FOO
138240
    1MOL0     O    1   9.496   4.726   6.507  0.3616  1.1278  0.4787
    1MOL0     C    2   9.598   4.663   6.487  0.0345  1.0267 -0.2887
    1MOL0     O    3   9.611   4.562   6.393 -0.6108  0.1008  0.2299
    1MOL0     C    4   9.487   4.520   6.336  0.1772  1.1657  0.0731
    1MOL0     C    5   9.463   4.381   6.336  0.4289 -0.4106  0.4899
    1MOL0     C    6   9.334   4.336   6.287  1.3378  0.1311  0.0008
    1MOL0     C    7   9.239   4.426   6.225  0.7343  0.3816 -0.2905
    1MOL0     O    8   9.118   4.395   6.177  0.4324 -0.2040 -0.7653
    1MOL0     C    9   9.103   4.275   6.101 -0.5194  0.2669  0.4321
    1MOL0     C   10   8.985   4.206   6.158 -0.0005 -0.2157 -1.1664
    1MOL0     C   11   9.019   4.160   6.307 -1.0910 -0.3406  0.0848
    1MOL0     C   12   8.906   4.077   6.378  0.1975  0.3427 -0.4105
    1MOL0     C   13   8.829   3.964   6.301 -0.0971  0.0055 -0.5125
    1MOL0     C   14   8.923   3.853   6.258 -0.1009 -0.3154  0.1327
    1MOL0     C   15   8.834   3.755   6.177  1.2640  0.1951  0.3168
    1MOL0     C   16   8.917   3.642   6.128 -0.7795  0.2230  0.2896
    1MOL0     N   17   8.837   3.515   6.109  0.1884  0.4452  0.2344
    1MOL0     C   18   8.763   3.475   5.998 -0.9601 -0.2549 -0.4908
    1MOL0     C   19   8.714   3.349   6.026 -0.7607 -0.0830  0.0020
    1MOL0     C   20   8.640   3.258   5.935 -0.1398  0.5394  0.6416
    1MOL0     C   21   8.720   3.238   5.806  0.5410 -0.2893 -0.1778
    1MOL0     C   22   8.642   3.169   5.701  0.2918 -0.2368  0.3330
    1MOL0     C   23   8.751   3.146   5.574  0.2250 -0.2127 -0.2652
    1MOL0     O   24   8.804   3.275   5.539  0.4906  0.2719  0.2007
    1MOL0     C   25   8.904   3.282   5.451  0.5938 -0.5564  0.5253
    1MOL0     C   26   8.990   3.178   5.413  0.1829 -0.5098 -0.6698
    1MOL0     C   27   9.068   3.192   5.303  0.3373 -0.0882  0.2976
    1MOL0     C   28   9.075   3.315   5.233  0.7437 -0.5530  0.4122
    1MOL0     C   29   9.156   3.335   5.112 -0.9569  0.0917  1.1501
    1MOL0     O   30   9.191   3.217   5.048  0.5203 -0.4181 -0.0136
    1MOL0     C   31   9.297   3.217   4.957  0.1485 -0.7095  0.0793
    1MOL0     C   32   9.296   3.140   4.840  0.3504 -0.0354 -0.1177
    1MOL0     C   33   9.397   3.134   4.740 -0.2341  0.2245 -0.6983
    1MOL0     C   34   9.511   3.210   4.759  0.2532 -0.6883  0.5903
    1MOL0     O   35   9.612   3.213   4.662 -0.1309 -0.8141 -0.2745
    1MOL0     C   36   9.695   3.331   4.658 -0.3046  0.4205  1.0452
    1MOL0     C   37   9.767   3.325   4.524  0.2363 -0.0925 -0.0600
    1MOL0     C   38   9.894   3.408   4.528 -0.0393  0.2100  0.1049
    1MOL0     C   39   9.863   3.556   4.500  0.8888  0.0279  1.0702
    1MOL0     C   40   9.830   3.574   4.351 -0.0745 -0.1244 -0.3402
    1MOL0     C   41   9.846   3.723   4.318 -0.2440  0.8141 -0.6016
    1MOL0     C   42   9.802   3.766   4.174 -0.0018  0.2264  0.6014
    1MOL0     C   43   9.784   3.921   4.166  0.9961  0.4206  0.0412
    1MOL0    Cl   44   9.919   4.005   4.226  0.1492  0.5874 -0.1284
    1MOL0     C   45   9.528   3.276   4.883 -0.1612  0.4978  0.3645
    1MOL0     C   46   9.422   3.282   4.974 -0.3415  0.0642 -0.5145
    1MOL0     O   47   9.207   3.444   5.084  0.1494 -0.4365  0.0192
    1MOL0     C   48   8.987   3.418   5.269  0.0772 -0.2168 -0.8685
    1MOL0     C   49   8.901   3.395   5.377  0.3111 -0.0798  1.7223
    1MOL0     N   50   8.772   3.310   6.143  0.9068  0.2960 -1.0087
    1MOL0     N   51   8.839   3.406   6.193 -0.5139 -0.2173  0.4560
    1MOL0     C   52   9.273   4.556   6.220  0.1311 -1.1085  0.7888
    1MOL0     C   53   9.392   4.604   6.272 -0.7320 -0.9106 -0.3176
    1MOL0     C   54   9.725   4.677   6.582  0.4911 -0.4417  1.4430
    1MOL0     C   55   9.849   4.642   6.531 -0.2623  0.7368 -0.7816
    1MOL0     C   56   9.970   4.657   6.602  0.1846 -0.5770 -0.0858
    1MOL0     C   57   9.963   4.711   6.729  0.8380  0.0867 -0.4491
    1MOL0     O   58  10.070   4.740   6.814 -0.0562 -0.3082 -0.2717
    1MOL0     C   59  10.170   4.634   6.821 -0.2158 -0.8351 -0.2255
    1MOL0     C   60  10.144   4.562   6.955  0.3469  0.0287 -0.1538
    1MOL0     C   61   9.990   4.529   6.995 -0.1740 -1.5022  0.0982
    1MOL0     C   62   9.950   4.422   6.892  0.2348  0.5789 -0.1021
    1MOL0     C   63   9.814   4.379   6.903 -0.0762  0.1044 -0.5272
    1MOL0     C   64   9.690   4.368   6.904 -1.2939  0.2561  1.5611
    1MOL0     C   65   9.836   4.746   6.781 -1.4067  0.0420  0.6090
    1MOL0     C   66   9.717   4.710   6.716  0.0622 -0.3840 -1.0322
    1MOL0     C   67   9.590   4.734   6.778 -0.0529 -0.5754  0.8158
    1MOL0     H   68   9.545   4.325   6.382  1.0127  0.4378  0.5048
    1MOL0     H   69   9.297   4.237   6.315 -0.1342  1.1796  2.0315
    1MOL0     H   70   9.074   4.295   5.997 -1.0186  0.7050  0.6489
    1MOL0     H   71   9.197   4.220   6.088 -0.3059  0.9125 -0.9888
    1MOL0     H   72   8.950   4.121   6.098  0.5842 -0.2621 -1.4486
    1MOL0     H   73   8.897   4.270   6.166  0.9072  0.8244  3.3099
    1MOL0     H   74   9.033   4.250   6.367 -2.5592  1.0031 -1.4572
    1MOL0     H   75   9.111   4.100   6.299 -0.1942  0.9206  0.5783
    1MOL0     H   76   8.944   4.031   6.469 -1.5331  1.3488  0.8848
    1MOL0     H   77   8.825   4.145   6.405 -2.8105 -2.7409 -0.8695
    1MOL0     H   78   8.757   3.925   6.374  0.2361 -0.0118 -0.1954
    1MOL0     H   79   8.781   4.001   6.210  0.3206  1.5316 -0.1436
    1MOL0     H   80   9.002   3.885   6.190 -0.3632  2.1939  0.9065
    1MOL0     H   81   8.963   3.808   6.349  0.6176  0.1416  0.0476
    1MOL0     H   82   8.801   3.818   6.094  2.0911 -0.6723 -0.7069
    1MOL0     H   83   8.763   3.712   6.248  2.9228  1.9770  3.2591
    1MOL0     H   84   8.980   3.675   6.044 -0.6515  2.7630  1.2965
    1MOL0     H   85   8.983   3.612   6.210 -1.1143  0.6315  0.7097
    1MOL0     H   86   8.757   3.543   5.913  5.0322  2.2925  0.6393
    1MOL0     H   87   8.603   3.164   5.975 -1.2505  0.0304 -1.4363
    1MOL0     H   88   8.547   3.306   5.903 -1.1829 -1.0617  1.1739
    1MOL0     H   89   8.768   3.330   5.772  2.2128 -1.2454 -0.5463
    1MOL0     H   90   8.802   3.172   5.837  1.7234  0.4476 -1.6267
    1MOL0     H   91   8.558   3.234   5.676 -1.1890 -0.2333  4.5413
    1MOL0     H   92   8.591   3.082   5.744 -3.3197  2.5593  2.2536
    1MOL0     H   93   8.703   3.098   5.488 -0.9731 -0.8885  0.7411
    1MOL0     H   94   8.825   3.076   5.613 -0.0524  0.1228  0.8984
    1MOL0     H   95   8.989   3.089   5.475 -0.0673 -0.1932 -0.2182
    1MOL0     H   96   9.107   3.096   5.269 -0.7542 -0.4905  0.1597
    1MOL0     H   97   9.206   3.082   4.826  1.0765 -0.7321 -2.2477
    1MOL0     H   98   9.385   3.076   4.649  1.2557 -0.4513 -0.4932
    1MOL0     H   99   9.638   3.421   4.635 -0.1456 -0.2141 -2.4031
    1MOL0     H  100   9.766   3.350   4.739  0.9340 -1.4371  0.4681
    1MOL0     H  101   9.772   3.218   4.500  0.6060 -0.9279  3.2352
    1MOL0     H  102   9.714   3.378   4.444  0.0619  1.6283  1.1402
    1MOL0     H  103   9.930   3.401   4.631  0.8570  1.5270 -0.0889
    1MOL0     H  104   9.962   3.372   4.449  0.1236 -0.9925  0.7632
    1MOL0     H  105   9.951   3.616   4.525  1.5487 -1.6590  3.0141
    1MOL0     H  106   9.790   3.597   4.571  0.7170  2.7769 -0.5396
    1MOL0     H  107   9.733   3.544   4.310  0.1034  0.8733 -1.5669
    1MOL0     H  108   9.908   3.519   4.297 -0.4016 -0.1877 -0.7571
    1MOL0     H  109   9.786   3.777   4.392  1.4255 -0.7049  2.0270
    1MOL0     H  110   9.951   3.750   4.330 -0.0454 -0.7008  2.0626
    1MOL0     H  111   9.711   3.713   4.144 -0.0482  0.9199 -0.5189
    1MOL0     H  112   9.890   3.746   4.112  0.0735 -1.0886  1.0953
    1MOL0     H  113   9.767   3.948   4.061  2.0239 -1.0951 -0.5466
    1MOL0     H  114   9.694   3.935   4.225  0.8622 -2.0205  0.5127
    1MOL0     H  115   9.622   3.320   4.914  2.4702 -5.2389  1.9538
    1MOL0     H  116   9.433   3.338   5.066 -1.9430 -1.3216  0.5750
    1MOL0     H  117   8.980   3.511   5.213 -1.3713 -0.6437 -1.4424
    1MOL0     H  118   8.822   3.469   5.389  0.1324 -0.5666  3.9137
    1MOL0     H  119   9.204   4.631   6.184  1.1646  0.1619  1.3394
    1MOL0     H  120   9.414   4.708   6.251  0.9211 -0.7656  1.7708
    1MOL0     H  121   9.859   4.615   6.426  2.3374 -0.1221 -0.3845
    1MOL0     H  122  10.066   4.636   6.554 -0.3301 -0.5849 -1.1428
    1MOL0     H  123  10.273   4.673   6.824 -0.1100 -1.1796  1.1390
    1MOL0     H  124  10.153   4.561   6.741 -1.2399  0.1941 -0.9809
    1MOL0     H  125  10.188   4.624   7.034  0.4973 -1.6802  1.1714
    1MOL0     H  126  10.192   4.464   6.957  1.3237  0.5118  0.6041
    1MOL0     H  127   9.929   4.620   6.997  1.0191 -0.6632 -0.6013
    1MOL0     H  128   9.978   4.481   7.092 -0.1202 -1.6849  0.0141
    1MOL0     H  129   9.965   4.452   6.788 -3.5582 -1.8890 -1.5759
    1MOL0     H  130  10.009   4.333   6.917 -2.3073 -1.2452 -0.2573
    1MOL0     H  131   9.585   4.352   6.892 -0.7228 -1.8495 -1.6471
    1MOL0     H  132   9.843   4.790   6.880  1.7003  1.6233 -0.1827
    1MOL0     H  133   9.518   4.656   6.751  0.7137 -0.1788 -2.9114
    1MOL0     H  134   9.582   4.748   6.886 -1.5526  1.2228  0.5223
    1MOL0     H  135   9.544   4.828   6.747  0.9441 -0.3671 -0.0573
    2MOL0     O  136   5.764   9.296   8.625 -0.2813 -0.9882 -0.2121
    2MOL0     C  137   5.665   9.351   8.684 -0.9368 -0.3608 -0.7968
    2MOL0     O  138   5.559   9.289   8.740 -0.3657  0.0170  0.3986
    2MOL0     C  139   5.522   9.175   8.678 -0.1329  0.2528 -0.0067
    2MOL0     C  140   5.480   9.069   8.757 -0.3499  0.2283  0.4123
    2MOL0     C  141   5.442   8.952   8.697  0.9359  0.2506 -0.2094
    2MOL0     C  142   5.440   8.943   8.561  0.3130  0.6023 -0.8626
    2MOL0     O  143   5.383   8.826   8.510 -0.6954 -0.7429 -0.7663
    2MOL0     C  144   5.483   8.749   8.440 -0.7631  0.2731 -0.0239
    2MOL0     C  145   5.411   8.629   8.374  0.3581 -0.7697 -0.9446
    2MOL0     C  146   5.379   8.525   8.481 -0.8552  1.2292 -0.5133
    2MOL0     C  147   5.235   8.513   8.546 -0.0981  0.1377 -0.1387
    2MOL0     C  148   5.221   8.426   8.672  0.6392 -0.3919  0.0469
    2MOL0     C  149   5.075   8.437   8.717 -1.0593  0.1802 -0.8150
    2MOL0     C  150   4.976   8.335   8.664 -0.5137 -0.7540 -0.3442
    2MOL0     C  151   4.993   8.210   8.743  1.0705  0.2554  0.3372
    2MOL0     N  152   4.891   8.107   8.715  0.1461 -0.0556  0.0762
    2MOL0     C  153   4.881   8.025   8.598  0.0816 -0.1454  0.3328
    2MOL0     C  154   4.794   7.930   8.637  0.6000 -0.0017  0.5091
    2MOL0     C  155   4.737   7.820   8.559  0.0904  0.1732  0.6754
    2MOL0     C  156   4.706   7.704   8.654  0.5293  0.0446  0.1239
    2MOL0     C  157   4.647   7.580   8.574 -0.1137  0.1445 -0.6150
    2MOL0     C  158   4.571   7.489   8.675  1.2575 -0.2796 -0.0842
    2MOL0     O  159   4.497   7.389   8.598  0.1107  0.7348  0.2852
    2MOL0     C  160   4.441   7.280   8.666 -1.1064  0.5935 -0.4102
    2MOL0     C  161   4.451   7.271   8.812  0.4971 -0.2950 -0.0424
    2MOL0     C  162   4.374   7.171   8.882  0.2081  0.3341  0.2547
    2MOL0     C  163   4.318   7.064   8.807  0.2480  0.8257  0.3928
    2MOL0     C  164   4.259   6.948   8.885 -0.2793 -0.0290 -0.6924
    2MOL0     O  165   4.194   6.861   8.811 -0.4026  0.5589 -0.2171
    2MOL0     C  166   4.138   6.764   8.891  0.7966  0.2889 -0.0309
    2MOL0     C  167   4.211   6.653   8.931  1.4628  0.3946  1.1983
    2MOL0     C  168   4.155   6.570   9.024  0.1556 -0.4009 -0.0306
    2MOL0     C  169   4.017   6.583   9.049 -0.3482 -0.4339 -0.4121
    2MOL0     O  170   3.963   6.483   9.121  0.2933 -0.7903 -0.1430
    2MOL0     C  171   3.922   6.377   9.031 -0.2661  0.5337  0.8172
    2MOL0     C  172   3.776   6.377   8.970 -1.1020  0.5480 -0.4890
    2MOL0     C  173   3.662   6.405   9.064 -0.1523 -0.1350  0.8931
    2MOL0     C  174   3.631   6.284   9.161 -0.5838 -0.6669  0.6634
    2MOL0     C  175   3.482   6.293   9.196  0.4654  0.6557  0.4836
    2MOL0     C  176   3.433   6.175   9.267 -0.4963  0.3097  1.3414
    2MOL0     C  177   3.298   6.216   9.307 -0.0958  0.5145  0.2655
    2MOL0     C  178   3.241   6.100   9.391 -0.0406  0.3916  0.5633
    2MOL0    Cl  179   3.062   6.129   9.428 -0.1356  0.6976  0.5545
    2MOL0     C  180   3.947   6.689   9.010  0.2767  0.3862 -0.6088
    2MOL0     C  181   4.007   6.785   8.925 -1.0723 -0.7123 -0.4382
    2MOL0     O  182   4.264   6.958   9.008  0.3743  0.1744  0.5641
    2MOL0     C  183   4.322   7.064   8.664  0.7491 -0.1256 -0.6164
    2MOL0     C  184   4.384   7.163   8.596  0.3573  0.2623 -0.5766
    2MOL0     N  185   4.747   7.958   8.764 -0.0165 -0.5154 -0.1606
    2MOL0     N  186   4.800   8.065   8.806 -0.3091  0.5721  0.5030
    2MOL0     C  187   5.470   9.046   8.484  0.1396 -0.6563 -0.2492
    2MOL0     C  188   5.509   9.168   8.543 -0.0948  0.3746 -0.1064
    2MOL0     C  189   5.683   9.497   8.713 -0.3279 -0.2784  0.0956
    2MOL0     C  190   5.808   9.535   8.767 -0.1255  0.1074  0.4987
    2MOL0     C  191   5.822   9.659   8.822 -0.7565 -0.9459  0.0338
    2MOL0     C  192   5.718   9.753   8.836 -0.2314 -0.0631  0.4392
    2MOL0     O  193   5.728   9.876   8.898 -0.7259  0.5365 -0.2898
    2MOL0     C  194   5.854   9.906   8.967  0.7466  0.5269  0.3433
    2MOL0     C  195   5.853   9.845   9.112  0.3880 -0.4833 -0.2049
    2MOL0     C  196   5.980   9.893   9.180 -0.4103 -0.2814 -0.0161
    2MOL0     C  197   5.990   9.853   9.324  0.0366  0.4480  0.1942
    2MOL0     C  198   6.095   9.930   9.398  0.6879  0.2863 -0.7864
    2MOL0     C  199   6.196   9.987   9.442  0.9690 -1.0044  0.6009
    2MOL0     C  200   5.598   9.716   8.781 -0.1818  0.9680  0.4943
    2MOL0     C  201   5.578   9.588   8.718 -0.0927 -0.2095  0.2104
    2MOL0     C  202   5.451   9.562   8.647  0.2540 -0.0819 -0.3646
    2MOL0     H  203   5.487   9.096   8.862  0.1892 -0.2522  0.5041
    2MOL0     H  204   5.424   8.860   8.751 -0.1450  1.0960  0.9582
    2MOL0     H  205   5.526   8.808   8.359  0.2257 -1.2646 -0.6746
    2MOL0     H  206   5.559   8.714   8.510 -1.3335 -0.5872  0.1834
    2MOL0     H  207   5.489   8.591   8.307 -0.9823 -0.8762 -2.5066
    2MOL0     H  208   5.321   8.657   8.319 -0.4346  1.9096  1.4843
    2MOL0     H  209   5.457   8.523   8.558 -2.3328  3.6603  1.1934
    2MOL0     H  210   5.392   8.431   8.427  2.4205  0.5618  1.1599
    2MOL0     H  211   5.206   8.616   8.571  3.5256  0.5675  3.3552
    2MOL0     H  212   5.166   8.473   8.471 -2.5745  0.8157  1.6683
    2MOL0     H  213   5.248   8.322   8.650 -1.0672 -0.9996  0.7259
    2MOL0     H  214   5.294   8.467   8.743  0.6819  0.7831 -0.6521
    2MOL0     H  215   5.076   8.434   8.827  2.2671 -0.9375 -0.7528
    2MOL0     H  216   5.043   8.539   8.697 -1.6351 -0.1553 -1.6345
    2MOL0     H  217   4.978   8.335   8.555 -0.2859  3.5050 -0.5224
    2MOL0     H  218   4.875   8.368   8.688  0.2769  1.8200 -0.1731
    2MOL0     H  219   5.091   8.173   8.711  1.3853  4.3969 -4.9193
    2MOL0     H  220   4.998   8.224   8.852  2.0286 -3.2265  0.8601
    2MOL0     H  221   4.935   8.030   8.503 -1.4771  1.6212 -0.5259
    2MOL0     H  222   4.653   7.847   8.494  2.3389  2.1269 -1.6576
    2MOL0     H  223   4.827   7.796   8.501  1.9847  1.6999  2.7938
    2MOL0     H  224   4.789   7.668   8.715  1.2882 -0.1134 -0.9674
    2MOL0     H  225   4.629   7.740   8.723  0.5766  0.7057 -0.1608
    2MOL0     H  226   4.725   7.528   8.517 -2.6233 -1.4972 -2.7612
    2MOL0     H  227   4.573   7.616   8.502 -2.8525 -1.9074  0.9722
    2MOL0     H  228   4.492   7.548   8.724 -0.8780 -1.2327 -2.1556
    2MOL0     H  229   4.631   7.443   8.753  1.2073  0.6017  0.4895
    2MOL0     H  230   4.503   7.336   8.881 -0.2925  0.5375 -0.2060
    2MOL0     H  231   4.351   7.176   8.988  0.5448 -0.6891  0.3859
    2MOL0     H  232   4.304   6.626   8.884  0.7357 -1.7232  0.8399
    2MOL0     H  233   4.207   6.482   9.061  1.3922  0.7958  1.1665
    2MOL0     H  234   3.998   6.367   8.954 -0.2754  0.2401  0.8432
    2MOL0     H  235   3.931   6.284   9.089  0.9788  0.0574 -0.1105
    2MOL0     H  236   3.781   6.445   8.885 -2.3242 -1.3289 -2.1565
    2MOL0     H  237   3.761   6.278   8.925  3.4481  0.8137 -3.2043
    2MOL0     H  238   3.678   6.492   9.128 -1.3451 -2.4069  4.5788
    2MOL0     H  239   3.575   6.412   8.998 -1.7397  0.3133  2.9213
    2MOL0     H  240   3.676   6.301   9.259 -0.6468  1.1282  0.4127
    2MOL0     H  241   3.665   6.186   9.126  0.0205 -0.6558  1.2032
    2MOL0     H  242   3.427   6.297   9.102  0.0421  0.8946  0.7376
    2MOL0     H  243   3.455   6.383   9.253 -2.0560  0.7469 -0.7120
    2MOL0     H  244   3.437   6.089   9.199  1.7700  1.3404  0.0485
    2MOL0     H  245   3.492   6.145   9.354  1.6908 -1.6963 -0.6723
    2MOL0     H  246   3.239   6.236   9.217 -0.0797 -0.1973  0.0891
    2MOL0     H  247   3.299   6.311   9.361 -4.9916  1.5535 -0.9648
    2MOL0     H  248   3.254   6.010   9.332  0.9357  0.5441  0.5344
    2MOL0     H  249   3.307   6.094   9.478  2.9629 -3.3650 -1.6738
    2MOL0     H  250   3.846   6.697   9.048  1.2260 -1.5871  2.6954
    2MOL0     H  251   3.949   6.867   8.886 -2.7492 -2.6215 -2.2216
    2MOL0     H  252   4.278   6.972   8.628 -1.9258 -0.5231  3.0904
    2MOL0     H  253   4.372   7.181   8.489 -3.7022 -1.5930 -0.6271
    2MOL0     H  254   5.460   9.046   8.375  0.7037  2.6323 -0.3823
    2MOL0     H  255   5.528   9.256   8.482  0.8991 -0.4348 -1.0194
    2MOL0     H  256   5.896   9.474   8.751 -1.7470 -2.0678 -0.5962
    2MOL0     H  257   5.925   9.688   8.836 -0.0366 -0.0625 -5.1419
    2MOL0     H  258   5.859  10.014   8.979  1.3920  0.3471  1.8908
    2MOL0     H  259   5.941   9.864   8.915 -0.9468  1.3768 -3.4691
    2MOL0     H  260   5.859   9.736   9.108 -0.7458 -0.6522  1.5197
    2MOL0     H  261   5.767   9.874   9.173  0.7734  0.2135  0.0214
    2MOL0     H  262   5.977  10.002   9.191 -4.6821 -0.4537  2.4791
    2MOL0     H  263   6.068   9.849   9.133 -0.4429  0.5699 -0.9038
    2MOL0     H  264   5.901   9.881   9.383  1.1674 -0.0289  2.2110
    2MOL0     H  265   5.997   9.745   9.333  2.5707  0.4865 -0.5970
    2MOL0     H  266   6.281  10.026   9.494  0.1360  1.7494  0.0684
    2MOL0     H  267   5.512   9.779   8.761 -2.0091 -2.2668 -3.2986
    2MOL0     H  268   5.382   9.500   8.704  0.2003 -2.0870 -2.4786
    2MOL0     H  269   5.403   9.659   8.628  0.7358  0.0978 -0.7111
    2MOL0     H  270   5.465   9.501   8.557  0.5228 -0.8433  0.1903
    3MOL0     O  271   7.875   2.479   1.874  0.0329  0.8056 -0.3612
    3MOL0     C  272   7.942   2.393   1.810  0.2062  0.2629  0.9936
    3MOL0     O  273   7.902   2.338   1.686  0.3548 -0.0561 -0.6080
    3MOL0     C  274   7.775   2.346   1.639  0.4183  0.7546 -0.1149
    3MOL0     C  275   7.768   2.348   1.497 -0.8252  0.8987 -0.0120
    3MOL0     C  276   7.647   2.382   1.440  0.5663  0.5376  0.1941
    3MOL0     C  277   7.524   2.387   1.517  0.7245  0.2769 -0.2391
    3MOL0     O  278   7.406   2.423   1.442  0.4383  0.1889 -1.2124
    3MOL0     C  279   7.284   2.338   1.464 -0.1774  0.4694  0.0961
    3MOL0     C  280   7.181   2.384   1.361  0.2195  0.1894  0.3499
    3MOL0     C  281   7.217   2.340   1.223 -0.1949  0.9215 -0.1115
    3MOL0     C  282   7.127   2.398   1.112  0.3662  0.0217 -0.7263
    3MOL0     C  283   7.183   2.527   1.052  0.2492  1.1483 -0.3325
    3MOL0     C  284   7.072   2.585   0.968  0.5460  0.3558 -0.0910
    3MOL0     C  285   7.101   2.726   0.964 -0.7923 -0.9394  0.3151
    3MOL0     C  286   7.100   2.777   0.820 -0.1907  1.3695  0.5645
    3MOL0     N  287   6.958   2.777   0.766 -0.1818 -0.6286 -0.2739
    3MOL0     C  288   6.935   2.763   0.636  0.5505 -0.6960  0.3201
    3MOL0     C  289   6.808   2.788   0.619 -0.3290 -0.3216  0.5748
    3MOL0     C  290   6.730   2.784   0.494 -0.3163  0.4366  0.5596
    3MOL0     C  291   6.734   2.915   0.405  0.8840  0.4617 -0.4718
    3MOL0     C  292   6.719   3.040   0.493 -0.1498  0.0881 -0.1374
    3MOL0     C  293   6.703   3.166   0.410 -0.3525 -0.0316 -0.1447
    3MOL0     O  294   6.679   3.274   0.500 -0.3017  0.6125 -0.6250
    3MOL0     C  295   6.655   3.396   0.450 -0.4591 -0.9522 -0.5825
    3MOL0     C  296   6.593   3.484   0.542  0.0737  0.2720  0.4571
    3MOL0     C  297   6.578   3.620   0.503 -0.9491  0.7289 -0.5973
    3MOL0     C  298   6.615   3.672   0.379 -1.0805  0.1188  0.1281
    3MOL0     C  299   6.594   3.817   0.339  0.5722  0.4055 -0.2689
    3MOL0     O  300   6.611   3.849   0.205 -0.2323  0.0272  0.3660
    3MOL0     C  301   6.570   3.976   0.179  0.3065  0.6914  0.5457
    3MOL0     C  302   6.436   4.012   0.201  0.0882 -0.7883  1.0100
    3MOL0     C  303   6.400   4.146   0.196 -0.2918  0.9902  0.7492
    3MOL0     C  304   6.483   4.242   0.148 -0.7193  0.2407  0.4702
    3MOL0     O  305   6.419   4.362   0.113 -0.5934 -0.2625  0.2297
    3MOL0     C  306   6.503   4.476   0.138 -0.8079 -0.1187 -0.0098
    3MOL0     C  307   6.412   4.586   0.179 -0.1721 -0.6053  0.4290
    3MOL0     C  308   6.326   4.642   0.053 -0.0467 -0.1632  0.1629
    3MOL0     C  309   6.233   4.749   0.095 -0.3625  0.7775 -0.2976
    3MOL0     C  310   6.157   4.813  -0.018 -0.1720  0.2898 -0.4587
    3MOL0     C  311   6.071   4.926   0.026 -0.0402  0.7492 -0.3582
    3MOL0     C  312   5.970   4.958  -0.082  1.0631  1.4032  0.6571
    3MOL0     C  313   5.909   5.103  -0.070 -1.2671 -0.0648 -0.3162
    3MOL0    Cl  314   6.023   5.240  -0.032  0.0640  0.1543 -0.6529
    3MOL0     C  315   6.613   4.214   0.122  0.1255  0.1064 -0.1422
    3MOL0     C  316   6.655   4.079   0.141 -0.2934 -0.3379 -0.1058
    3MOL0     O  317   6.572   3.901   0.431 -0.2676  0.6605 -0.1250
    3MOL0     C  318   6.680   3.580   0.286 -0.0614 -0.0103  0.2876
    3MOL0     C  319   6.697   3.444   0.319 -0.4257 -0.1091 -0.5315
    3MOL0     N  320   6.746   2.810   0.735 -0.7047 -0.0509  0.1473
    3MOL0     N  321   6.839   2.798   0.831 -0.5566  0.0229  0.5268
    3MOL0     C  322   7.536   2.384   1.656 -0.5141 -0.1148  0.4279
    3MOL0     C  323   7.660   2.369   1.719 -0.4691  0.0109 -0.0989
    3MOL0     C  324   8.071   2.354   1.866 -0.1021  0.9756 -0.2206
    3MOL0     C  325   8.103   2.219   1.855  0.4636 -1.6312  1.2202
    3MOL0     C  326   8.207   2.167   1.934  0.0901  0.1179  0.1432
    3MOL0     C  327   8.282   2.246   2.015 -0.0728  0.3798 -0.1985
    3MOL0     O  328   8.379   2.204   2.110 -0.5972 -0.7400 -0.5934
    3MOL0     C  329   8.416   2.065   2.101 -0.2261  0.1582 -0.6289
    3MOL0     C  330   8.494   2.050   2.232 -0.4634  0.0700 -1.1817
    3MOL0     C  331   8.576   1.926   2.210  0.9396  0.2332  0.0257
    3MOL0     C  332   8.614   1.861   2.344  0.3138  0.1060 -0.3494
    3MOL0     C  333   8.502   1.782   2.401 -0.0592 -0.6009 -0.6885
    3MOL0     C  334   8.392   1.744   2.450 -0.3361 -1.1076  0.2968
    3MOL0     C  335   8.259   2.382   2.017  0.1053 -0.3844 -0.7258
    3MOL0     C  336   8.151   2.436   1.945  0.3464 -0.0743  0.3539
    3MOL0     C  337   8.126   2.582   1.963  0.1023 -0.2666  0.2879
    3MOL0     H  338   7.863   2.338   1.445 -0.2405  0.3184  1.1368
    3MOL0     H  339   7.632   2.421   1.340  0.4202  1.7816  0.6811
    3MOL0     H  340   7.312   2.232   1.462  0.5803  0.6623 -0.1830
    3MOL0     H  341   7.256   2.355   1.568  0.5313 -1.4650  0.6558
    3MOL0     H  342   7.178   2.493   1.368 -0.9114  0.4068 -2.4648
    3MOL0     H  343   7.082   2.349   1.392  0.3242 -0.7570 -0.3532
    3MOL0     H  344   7.214   2.231   1.219  0.0416  0.8879  0.4591
    3MOL0     H  345   7.322   2.358   1.199  0.0542  0.3040  0.4741
    3MOL0     H  346   7.125   2.332   1.025  2.4772  1.8117 -2.2452
    3MOL0     H  347   7.025   2.416   1.148  0.4082 -1.7259  0.4037
    3MOL0     H  348   7.193   2.597   1.137  0.9822  1.6701 -0.8379
    3MOL0     H  349   7.279   2.524   1.001  0.9006 -0.5459  0.9151
    3MOL0     H  350   7.071   2.543   0.866  3.2236 -2.7666  1.0022
    3MOL0     H  351   6.971   2.575   1.009  0.0067 -0.0076 -1.4370
    3MOL0     H  352   7.188   2.760   1.021  0.0765 -2.7466  0.1427
    3MOL0     H  353   7.024   2.780   1.018  1.7196  0.8944  2.3037
    3MOL0     H  354   7.134   2.881   0.816 -1.6535  1.8711  0.5655
    3MOL0     H  355   7.178   2.725   0.765 -1.7790 -0.2697 -0.2235
    3MOL0     H  356   7.008   2.743   0.558  2.6156 -2.0423  2.4707
    3MOL0     H  357   6.780   2.705   0.436  0.1802 -0.4933  2.1963
    3MOL0     H  358   6.629   2.760   0.528 -0.7755  0.7509 -0.5348
    3MOL0     H  359   6.827   2.929   0.349  4.0551 -2.1389  3.4946
    3MOL0     H  360   6.648   2.913   0.338  1.9385  0.6805 -1.8631
    3MOL0     H  361   6.801   3.061   0.562  0.3939 -1.5073 -0.2543
    3MOL0     H  362   6.632   3.038   0.559 -1.1842  2.5310 -1.3111
    3MOL0     H  363   6.624   3.151   0.335 -1.7714 -2.0496  1.6372
    3MOL0     H  364   6.790   3.196   0.351 -3.0826  5.1342 -2.1752
    3MOL0     H  365   6.563   3.451   0.642  2.0535  1.3595  1.4670
    3MOL0     H  366   6.540   3.693   0.574 -4.4639 -0.5698 -0.9542
    3MOL0     H  367   6.367   3.936   0.236  0.1914 -0.8020  1.1812
    3MOL0     H  368   6.298   4.166   0.226 -0.3791  0.0149  1.1430
    3MOL0     H  369   6.569   4.465   0.225 -0.4056  1.8986 -0.0207
    3MOL0     H  370   6.562   4.503   0.050 -3.5251  1.0362 -1.5958
    3MOL0     H  371   6.344   4.552   0.258 -0.2807 -0.7268  0.2825
    3MOL0     H  372   6.466   4.672   0.220  3.3796 -0.5962 -3.5672
    3MOL0     H  373   6.402   4.671  -0.021  0.9246 -3.1373 -0.1459
    3MOL0     H  374   6.269   4.561   0.006 -0.4087  1.0974 -1.7117
    3MOL0     H  375   6.286   4.829   0.148 -1.3916  0.8512  0.6397
    3MOL0     H  376   6.151   4.704   0.151 -0.1074 -1.6856 -1.7538
    3MOL0     H  377   6.078   4.753  -0.065  0.7192 -0.1847 -1.3766
    3MOL0     H  378   6.215   4.846  -0.104 -0.4898  0.2642 -0.6849
    3MOL0     H  379   6.026   4.915   0.125  1.0198 -1.9842 -0.0893
    3MOL0     H  380   6.145   5.006   0.028 -0.0418  0.8480 -2.2757
    3MOL0     H  381   5.883   4.894  -0.068  0.4016  1.6002 -2.0211
    3MOL0     H  382   6.018   4.926  -0.175 -0.9542  0.1343 -0.0167
    3MOL0     H  383   5.828   5.113  -0.143  0.3643  0.0483 -2.2032
    3MOL0     H  384   5.859   5.096   0.027  2.4796 -0.7623  1.7897
    3MOL0     H  385   6.681   4.283   0.074 -0.0838 -0.5465 -1.4485
    3MOL0     H  386   6.761   4.067   0.120  0.5106  2.6725  1.7368
    3MOL0     H  387   6.719   3.618   0.193  4.0150  0.1678  1.8747
    3MOL0     H  388   6.731   3.395   0.229 -1.2540  2.4220 -2.3266
    3MOL0     H  389   7.445   2.400   1.715 -0.6338  0.9890 -0.0218
    3MOL0     H  390   7.674   2.348   1.825  2.6451 -0.2479 -0.4723
    3MOL0     H  391   8.053   2.149   1.789 -2.3592  1.0185  0.2709
    3MOL0     H  392   8.218   2.059   1.934  2.2157  0.2093 -2.8457
    3MOL0     H  393   8.463   2.032   2.008 -3.5092  2.1543 -3.2693
    3MOL0     H  394   8.324   2.006   2.108 -0.8568  0.5045 -4.1626
    3MOL0     H  395   8.410   2.046   2.303 -4.0905 -0.2494 -5.0941
    3MOL0     H  396   8.552   2.142   2.239  1.9396 -1.3789 -0.9178
    3MOL0     H  397   8.664   1.964   2.157  1.6988 -1.4045  0.0661
    3MOL0     H  398   8.514   1.861   2.148  2.0555 -2.8946  1.9542
    3MOL0     H  399   8.699   1.794   2.333  0.3989  0.3520 -1.3162
    3MOL0     H  400   8.630   1.944   2.413 -0.7642  3.0320 -3.3321
    3MOL0     H  401   8.291   1.738   2.486  0.1742  3.2756  3.3106
    3MOL0     H  402   8.331   2.446   2.067 -0.1926 -2.3278  2.4722
    3MOL0     H  403   8.094   2.625   1.868 -0.8127  0.4925  0.9198
    3MOL0     H  404   8.040   2.600   2.029 -0.1595  2.0150 -0.5898
    3MOL0     H  405   8.211   2.634   2.007 -0.9763  1.1887  0.7397
    4MOL0     O  406   0.452   7.827  10.663  0.1842  0.9190  0.1953
    4MOL0     C  407   0.358   7.763  10.605 -0.0423  1.3558 -0.0224
    4MOL0     O  408   0.254   7.821  10.544  0.1627  0.3500 -0.0061
    4MOL0     C  409   0.246   7.954  10.509  0.4231 -0.2716 -0.5486
    4MOL0     C  410   0.346   8.046  10.491 -0.2362  0.5664  0.1908
    4MOL0     C  411   0.317   8.177  10.464  0.2099 -0.5315 -0.3111
    4MOL0     C  412   0.191   8.226  10.508 -0.6595  0.1904  0.5739
    4MOL0     O  413   0.178   8.364  10.515  0.2327  0.0643  0.0134
    4MOL0     C  414   0.068   8.449  10.558  1.2112  0.4306 -0.2215
    4MOL0     C  415   0.058   8.434  10.704  0.3969  0.8236  0.3490
    4MOL0     C  416  -0.063   8.523  10.744  0.0123 -0.9690 -0.2534
    4MOL0     C  417  -0.066   8.530  10.892 -0.4803  0.4876  0.6242
    4MOL0     C  418  -0.159   8.646  10.944 -0.2182 -0.0120  0.3790
    4MOL0     C  419  -0.161   8.656  11.090  0.5732 -0.2527 -0.4138
    4MOL0     C  420  -0.029   8.706  11.155  1.7821  0.2074 -0.2930
    4MOL0     C  421   0.017   8.849  11.106  0.1865  0.4552  0.0443
    4MOL0     N  422   0.152   8.876  11.165  0.2182  0.9694 -0.4301
    4MOL0     C  423   0.276   8.820  11.113 -0.6433 -0.1232  0.0717
    4MOL0     C  424   0.362   8.827  11.213 -0.2514 -0.5044 -0.3336
    4MOL0     C  425   0.496   8.767  11.213 -0.7375 -0.5112 -0.6188
    4MOL0     C  426   0.596   8.866  11.275 -0.9614 -0.8249 -0.4318
    4MOL0     C  427   0.732   8.795  11.277 -0.7233  0.8564  0.3181
    4MOL0     C  428   0.825   8.885  11.353  0.2435  0.3983  0.3009
    4MOL0     O  429   0.972   8.867  11.333  0.1338  0.2806 -0.1253
    4MOL0     C  430   1.038   8.770  11.413 -0.3044 -0.8852  0.9857
    4MOL0     C  431   1.152   8.708  11.361 -0.3176  0.1689 -0.0805
    4MOL0     C  432   1.231   8.618  11.433  1.4191  0.5381 -1.4938
    4MOL0     C  433   1.179   8.576  11.560 -0.1227 -0.0020 -0.2344
    4MOL0     C  434   1.252   8.478  11.649  0.8732  0.2546  0.6542
    4MOL0     O  435   1.311   8.527  11.758  0.0330  0.2608 -0.1717
    4MOL0     C  436   1.404   8.459  11.831  0.0588  0.1300  0.0807
    4MOL0     C  437   1.371   8.325  11.881 -0.1951  0.2383  0.3172
    4MOL0     C  438   1.461   8.254  11.955  0.5099  0.3868  0.3011
    4MOL0     C  439   1.581   8.314  12.004  1.1978 -0.4911  0.1441
    4MOL0     O  440   1.666   8.246  12.084  0.2371 -0.0105 -0.2155
    4MOL0     C  441   1.765   8.303  12.162  0.7362 -0.2314 -0.2176
    4MOL0     C  442   1.836   8.182  12.234 -0.6270 -0.1854 -0.3332
    4MOL0     C  443   1.938   8.241  12.335  0.4999  0.1746 -0.3020
    4MOL0     C  444   1.873   8.265  12.475 -0.7378 -0.7342 -0.0611
    4MOL0     C  445   1.980   8.298  12.585  0.7076  0.7077  0.2950
    4MOL0     C  446   1.920   8.364  12.708 -0.1136 -0.5814  0.2499
    4MOL0     C  447   2.043   8.402  12.795 -1.3333 -1.2724  0.4380
    4MOL0     C  448   1.987   8.481  12.914  0.2415  0.3018  0.4263
    4MOL0    Cl  449   2.085   8.455  13.055  0.0502 -0.5231  0.1135
    4MOL0     C  450   1.607   8.453  11.971  1.4574  0.4726 -1.5998
    4MOL0     C  451   1.512   8.522  11.893  0.6777 -0.5504  0.6272
    4MOL0     O  452   1.272   8.369  11.594  0.1632 -0.2058  0.5130
    4MOL0     C  453   1.066   8.635  11.611 -0.0355  0.9498 -1.0205
    4MOL0     C  454   1.004   8.732  11.541 -0.3024  0.2393  0.3350
    4MOL0     N  455   0.302   8.887  11.320  0.1091  0.2573 -0.4162
    4MOL0     N  456   0.177   8.905  11.302 -0.4190 -0.0027  0.0702
    4MOL0     C  457   0.094   8.139  10.539  0.0716  1.1812  0.1104
    4MOL0     C  458   0.121   8.004  10.528 -0.8197 -0.7390  0.5550
    4MOL0     C  459   0.371   7.614  10.586 -0.5165 -0.1366  0.9657
    4MOL0     C  460   0.312   7.546  10.481  0.7783  0.6944 -0.0802
    4MOL0     C  461   0.327   7.412  10.457 -0.4108 -0.5385 -0.5149
    4MOL0     C  462   0.427   7.347  10.533 -0.2336  0.1469 -0.1551
    4MOL0     O  463   0.452   7.214  10.513  0.3953  0.0342 -0.2247
    4MOL0     C  464   0.375   7.133  10.422  0.6749 -0.2230  1.2586
    4MOL0     C  465   0.421   6.984  10.415  0.9455  0.0416 -0.6313
    4MOL0     C  466   0.443   6.922  10.549  0.0938  0.0005  0.2329
    4MOL0     C  467   0.460   6.768  10.543 -0.5175 -0.2303  0.9527
    4MOL0     C  468   0.326   6.703  10.518 -0.5635  0.3834 -0.4859
    4MOL0     C  469   0.218   6.662  10.494  0.2351 -0.2074  0.1612
    4MOL0     C  470   0.496   7.413  10.630  0.2127 -0.3328 -0.2644
    4MOL0     C  471   0.465   7.544  10.670  0.5680  0.9430  0.0513
    4MOL0     C  472   0.526   7.594  10.803 -0.9306  0.4881  0.0311
    4MOL0     H  473   0.451   8.021  10.479 -0.3813  1.2296 -4.9353
    4MOL0     H  474   0.394   8.244  10.429 -1.0292  0.1220 -1.9227
    4MOL0     H  475   0.075   8.554  10.530  0.0466  0.9872  1.4443
    4MOL0     H  476  -0.030   8.416  10.525 -0.8279  0.9106  4.5098
    4MOL0     H  477   0.155   8.473  10.737  2.2473 -1.8712 -1.4334
    4MOL0     H  478   0.045   8.329  10.731  0.5482 -0.0091 -2.5189
    4MOL0     H  479  -0.160   8.480  10.718 -1.3292  0.6977  1.7063
    4MOL0     H  480  -0.048   8.627  10.715  0.7397  0.2367  3.8374
    4MOL0     H  481  -0.097   8.429  10.922  1.6239 -1.1660 -2.2630
    4MOL0     H  482   0.030   8.541  10.944 -1.4182  2.3216  2.0768
    4MOL0     H  483  -0.121   8.741  10.906  2.0226 -1.2041 -0.5392
    4MOL0     H  484  -0.255   8.618  10.898 -0.4425  0.7645  0.3634
    4MOL0     H  485  -0.243   8.727  11.106  1.1978  0.3935  0.0039
    4MOL0     H  486  -0.186   8.559  11.134  0.3597  0.8743  2.1370
    4MOL0     H  487   0.055   8.644  11.122  1.3462 -0.0530 -0.9171
    4MOL0     H  488  -0.042   8.711  11.263  0.9030  5.1837 -0.3956
    4MOL0     H  489   0.029   8.865  10.998  1.5576  1.2532  0.2954
    4MOL0     H  490  -0.048   8.927  11.146 -0.3807 -1.8360  4.0905
    4MOL0     H  491   0.295   8.761  11.024  0.2487 -0.5195  0.5122
    4MOL0     H  492   0.494   8.673  11.269 -0.2629  0.4705  1.1332
    4MOL0     H  493   0.526   8.741  11.111 -0.3038 -0.9836 -0.3757
    4MOL0     H  494   0.601   8.957  11.214  2.6885  0.5954  1.7057
    4MOL0     H  495   0.566   8.907  11.372 -0.3160 -0.1570 -0.5141
    4MOL0     H  496   0.769   8.771  11.177  0.9916 -0.0393  1.1188
    4MOL0     H  497   0.717   8.702  11.333 -3.5554  1.1708  0.1854
    4MOL0     H  498   0.794   8.884  11.458 -0.7769  2.4675  0.0539
    4MOL0     H  499   0.802   8.989  11.330 -0.6505 -0.2624 -2.0829
    4MOL0     H  500   1.186   8.727  11.260 -0.4972 -4.1429 -1.1499
    4MOL0     H  501   1.320   8.575  11.388  2.7439  0.7893  0.7217
    4MOL0     H  502   1.283   8.280  11.837  0.2843 -0.4826  0.0707
    4MOL0     H  503   1.443   8.151  11.982  1.5909  0.6177  2.0454
    4MOL0     H  504   1.839   8.345  12.093  1.6826  1.0852  1.5022
    4MOL0     H  505   1.721   8.379  12.228 -0.0522 -0.9861  0.1521
    4MOL0     H  506   1.748   8.131  12.274 -1.5220  1.0921 -0.5990
    4MOL0     H  507   1.887   8.109  12.171 -1.7592 -1.0117 -0.3277
    4MOL0     H  508   2.024   8.175  12.345  0.7506  0.6421  0.7856
    4MOL0     H  509   1.976   8.326  12.278 -0.2487  0.7872  0.0874
    4MOL0     H  510   1.816   8.180  12.512  0.7336 -1.0966  1.4812
    4MOL0     H  511   1.794   8.341  12.465 -0.8628 -0.8272  0.2136
    4MOL0     H  512   2.060   8.356  12.540  1.6497 -0.0630  0.9282
    4MOL0     H  513   2.029   8.201  12.596 -1.4188 -0.5260 -0.4765
    4MOL0     H  514   1.855   8.448  12.680  2.4358  0.6615 -2.4600
    4MOL0     H  515   1.858   8.307  12.777 -0.1743  1.3356  1.8757
    4MOL0     H  516   2.116   8.463  12.743  0.6415 -2.9158  1.1574
    4MOL0     H  517   2.094   8.309  12.822 -0.4752 -0.5347  1.4194
    4MOL0     H  518   1.983   8.586  12.885  4.3080  0.2735 -0.8519
    4MOL0     H  519   1.885   8.448  12.935 -0.1678  1.2877  0.0567
    4MOL0     H  520   1.694   8.504  12.011  1.6134  0.7253 -2.2451
    4MOL0     H  521   1.532   8.625  11.866 -1.2411 -0.5928 -1.2296
    4MOL0     H  522   1.026   8.598  11.705 -1.1611  1.6990 -1.1833
    4MOL0     H  523   0.921   8.786  11.584 -2.7321 -1.3265 -1.9921
    4MOL0     H  524   0.008   8.171  10.596 -1.2134  0.4733 -1.3812
    4MOL0     H  525   0.040   7.937  10.557 -0.8053 -0.5450  1.0580
    4MOL0     H  526   0.240   7.605  10.425 -2.5642 -1.5515  1.4841
    4MOL0     H  527   0.283   7.358  10.374  1.7221 -2.4381 -0.5129
    4MOL0     H  528   0.390   7.185  10.326  2.0932 -2.4203  0.2170
    4MOL0     H  529   0.269   7.127  10.448  0.5010 -1.7702  0.2904
    4MOL0     H  530   0.515   6.980  10.360  0.8957 -2.5608 -0.6475
    4MOL0     H  531   0.349   6.922  10.359 -0.2867 -0.0215  0.9589
    4MOL0     H  532   0.364   6.953  10.618  1.3155 -0.2771  1.8146
    4MOL0     H  533   0.534   6.968  10.590  0.4900  0.1644 -0.8139
    4MOL0     H  534   0.535   6.749  10.465 -0.1275  1.9549  0.7420
    4MOL0     H  535   0.497   6.728  10.638  1.9930 -1.8983 -0.6012
    4MOL0     H  536   0.122   6.616  10.484  0.0703  0.4386 -1.4417
    4MOL0     H  537   0.573   7.369  10.693 -0.7587  0.6514  1.6976
    4MOL0     H  538   0.527   7.511  10.875  1.7239  1.9630  1.8557
    4MOL0     H  539   0.623   7.643  10.795 -0.6144  0.5714  3.1930
    4MOL0     H  540   0.459   7.671  10.842 -2.3028  0.2338 -1.6801
    5MOL0     O  541   5.222   9.532  11.288  0.2203 -0.7106 -0.1522
    5MOL0     C  542   5.202   9.412  11.260  0.8337 -0.9572  0.2211
    5MOL0     O  543   5.287   9.312  11.275 -0.3232 -0.0646  0.0604
    5MOL0     C  544   5.419   9.344  11.236  0.2928 -1.1724 -0.1665
    5MOL0     C  545   5.497   9.441  11.311 -0.3551  0.3773  0.3013
    5MOL0     C  546   5.636   9.467  11.266  0.1568  0.6033 -0.0689
    5MOL0     C  547   5.679   9.419  11.140  0.3161 -0.7004  0.1982
    5MOL0     O  548   5.796   9.430  11.069  0.1789 -0.2845 -0.5102
    5MOL0     C  549   5.883   9.527  11.126  0.2450  0.0768  0.3242
    5MOL0     C  550   6.019   9.542  11.045  1.4359 -0.1700 -0.5678
    5MOL0     C  551   6.008   9.574  10.896 -0.6278 -0.0015  0.1594
    5MOL0     C  552   6.135   9.635  10.834  0.1400  0.1178 -0.4726
    5MOL0     C  553   6.257   9.548  10.820 -0.6300 -0.4799 -0.4055
    5MOL0     C  554   6.368   9.632  10.737 -0.5691 -0.5277 -0.0773
    5MOL0     C  555   6.498   9.552  10.730  0.3906  0.0967 -0.4211
    5MOL0     C  556   6.498   9.424  10.650 -0.3154 -0.3468  0.2146
    5MOL0     N  557   6.429   9.432  10.519  0.6475  0.8753 -0.5600
    5MOL0     C  558   6.302   9.378  10.501  0.1118  0.3922 -0.2664
    5MOL0     C  559   6.277   9.405  10.364 -0.2775 -0.3816 -0.0604
    5MOL0     C  560   6.169   9.353  10.266 -0.5545 -0.3351  0.5544
    5MOL0     C  561   6.027   9.346  10.333  0.2353  0.7586 -0.4550
    5MOL0     C  562   5.925   9.274  10.246  0.3652 -0.3411  0.4663
    5MOL0     C  563   5.782   9.306  10.277 -0.2566 -0.5682 -0.2193
    5MOL0     O  564   5.740   9.304  10.415 -0.8428  0.5870  0.2126
    5MOL0     C  565   5.713   9.432  10.458 -0.4390  0.8904  0.3659
    5MOL0     C  566   5.776   9.478  10.572 -0.2513 -0.3083  0.1020
    5MOL0     C  567   5.761   9.611  10.616 -0.7908 -0.5214 -0.1975
    5MOL0     C  568   5.676   9.699  10.544 -1.2726 -0.2020  0.0991
    5MOL0     C  569   5.668   9.847  10.572 -0.3449 -1.2797  0.2947
    5MOL0     O  570   5.608   9.918  10.482 -0.0100 -0.0141  0.0895
    5MOL0     C  571   5.585  10.046  10.514 -0.5539  0.3666 -0.1715
    5MOL0     C  572   5.635  10.146  10.428 -0.3398 -0.1460  0.6204
    5MOL0     C  573   5.620  10.285  10.462 -0.3204 -0.0065 -0.1108
    5MOL0     C  574   5.561  10.332  10.572 -0.3312 -0.8479  0.0916
    5MOL0     O  575   5.562  10.467  10.600  1.1735  0.2892 -0.3518
    5MOL0     C  576   5.441  10.527  10.653 -0.0765 -0.3073 -0.1140
    5MOL0     C  577   5.434  10.674  10.597 -0.1253 -1.2646 -0.1495
    5MOL0     C  578   5.545  10.766  10.656 -1.3285 -1.1948 -0.4640
    5MOL0     C  579   5.535  10.894  10.594 -0.0077  0.8578 -0.0801
    5MOL0     C  580   5.388  10.956  10.571 -0.1069 -0.1435  0.1249
    5MOL0     C  581   5.369  11.083  10.487 -0.4856 -0.3879  0.0319
    5MOL0     C  582   5.463  11.190  10.552  0.1665  0.8386  0.3963
    5MOL0     C  583   5.445  11.317  10.472  0.9138 -0.2494 -0.5803
    5MOL0    Cl  584   5.539  11.324  10.319  0.0865 -0.2987  0.5314
    5MOL0     C  585   5.497  10.234  10.652  0.4968 -1.0662 -0.1403
    5MOL0     C  586   5.511  10.096  10.627  0.2299  0.5383  0.8609
    5MOL0     O  587   5.711   9.885  10.688 -0.1538 -0.3053  0.7134
    5MOL0     C  588   5.601   9.644  10.441  0.6184  0.2647 -0.3762
    5MOL0     C  589   5.617   9.514  10.397  0.3516 -0.5123  0.3227
    5MOL0     N  590   6.392   9.467  10.315  0.3398 -0.8928  0.4753
    5MOL0     N  591   6.488   9.473  10.402 -0.2680 -0.2510 -0.0731
    5MOL0     C  592   5.585   9.339  11.056 -0.2514 -0.3988  0.2922
    5MOL0     C  593   5.459   9.296  11.106 -0.3813  0.2562  0.3886
    5MOL0     C  594   5.066   9.394  11.197 -0.1948 -0.1242 -0.2211
    5MOL0     C  595   4.986   9.509  11.185 -1.0781  0.4984  0.4166
    5MOL0     C  596   4.858   9.509  11.122 -0.2614 -0.2208 -0.1862
    5MOL0     C  597   4.813   9.388  11.068 -0.0205  0.2194 -0.0243
    5MOL0     O  598   4.685   9.382  11.017  0.5662  0.1762  0.0263
    5MOL0     C  599   4.695   9.371  10.880 -0.5680 -0.3400 -0.3006
    5MOL0     C  600   4.572   9.442  10.822 -0.2863  0.6392 -0.4791
    5MOL0     C  601   4.579   9.593  10.837 -0.6398 -0.7212 -0.3661
    5MOL0     C  602   4.639   9.673  10.729  0.8741  0.1707 -0.7904
    5MOL0     C  603   4.790   9.659  10.738  0.2987  0.2197 -0.3798
    5MOL0     C  604   4.909   9.660  10.739 -0.7115 -0.3416  0.2408
    5MOL0     C  605   4.891   9.271  11.075 -0.0852  0.2145 -0.6144
    5MOL0     C  606   5.015   9.269  11.130  0.1753 -0.2815 -0.1269
    5MOL0     C  607   5.091   9.130  11.133 -0.2487 -0.8279 -0.3535
    5MOL0     H  608   5.455   9.462  11.408  1.3496  0.1479  1.1170
    5MOL0     H  609   5.696   9.534  11.325 -2.3299  1.2848  1.8417
    5MOL0     H  610   5.839   9.627  11.124  0.9621  0.4165 -2.2162
    5MOL0     H  611   5.908   9.496  11.228 -0.6285  0.3197  0.6257
    5MOL0     H  612   6.070   9.447  11.067  1.0152  0.3726  3.5262
    5MOL0     H  613   6.083   9.620  11.088  1.5297 -1.6368  2.2010
    5MOL0     H  614   5.932   9.652  10.881  0.3581  0.9095 -0.2088
    5MOL0     H  615   5.967   9.484  10.849 -2.4543  2.7956 -4.4055
    5MOL0     H  616   6.102   9.674  10.737 -1.3630  2.3885  0.8832
    5MOL0     H  617   6.164   9.722  10.894  0.9947  1.1229 -2.2445
    5MOL0     H  618   6.299   9.517  10.916 -0.7665  0.9634  0.1574
    5MOL0     H  619   6.235   9.458  10.763 -0.1327 -1.6519  1.1780
    5MOL0     H  620   6.329   9.666  10.641 -0.6102 -1.1379 -0.2760
    5MOL0     H  621   6.391   9.725  10.791  2.6771 -1.4336  0.3184
    5MOL0     H  622   6.531   9.529  10.832 -4.2779  1.0059  1.5452
    5MOL0     H  623   6.567   9.624  10.684 -0.9324  2.5668  1.2272
    5MOL0     H  624   6.603   9.405  10.624 -1.1138  0.0627 -3.8517
    5MOL0     H  625   6.442   9.353  10.711 -0.1797  0.1353  0.9128
    5MOL0     H  626   6.238   9.320  10.567 -3.9003  2.5724 -1.8950
    5MOL0     H  627   6.150   9.418  10.180 -1.5577  0.9460  1.7095
    5MOL0     H  628   6.191   9.254  10.224 -5.5074 -0.0808 -3.7241
    5MOL0     H  629   6.025   9.289  10.426 -1.3159  0.9969 -0.3243
    5MOL0     H  630   5.994   9.446  10.360  1.9869  1.1208  0.5096
    5MOL0     H  631   5.923   9.167  10.272 -3.3703 -0.6489 -0.4425
    5MOL0     H  632   5.943   9.292  10.140 -1.5982 -2.4999 -0.3406
    5MOL0     H  633   5.719   9.228  10.231 -1.6879  0.2992  0.2046
    5MOL0     H  634   5.769   9.407  10.237 -2.9369  0.4553  2.8093
    5MOL0     H  635   5.844   9.412  10.623  0.4832 -1.4949 -2.2508
    5MOL0     H  636   5.823   9.654  10.694  3.1039 -0.3502 -3.0621
    5MOL0     H  637   5.682  10.110  10.337 -0.1272  0.2019  0.5907
    5MOL0     H  638   5.651  10.363  10.393  0.4835  2.1456  2.5050
    5MOL0     H  639   5.355  10.474  10.611 -0.1397 -1.6044  1.5426
    5MOL0     H  640   5.449  10.526  10.762  2.1947  5.3597  0.1173
    5MOL0     H  641   5.432  10.675  10.488 -2.5632  0.3452 -0.1850
    5MOL0     H  642   5.333  10.704  10.626  0.5988  0.2998  0.9073
    5MOL0     H  643   5.538  10.767  10.765  1.5713  2.1252 -0.1444
    5MOL0     H  644   5.629  10.703  10.628 -3.5789 -2.9963 -3.8868
    5MOL0     H  645   5.584  10.901  10.497 -0.6525  2.6945 -0.3142
    5MOL0     H  646   5.585  10.973  10.651 -3.0803  1.1575  2.5036
    5MOL0     H  647   5.350  10.973  10.673  1.2997 -0.4382  0.7275
    5MOL0     H  648   5.323  10.880  10.527 -1.6575  0.7286  0.8206
    5MOL0     H  649   5.399  11.070  10.383  3.9615 -0.2512  1.0897
    5MOL0     H  650   5.268  11.125  10.491  0.1107  1.1012  0.2668
    5MOL0     H  651   5.569  11.167  10.535  0.7148  2.7464  0.9777
    5MOL0     H  652   5.441  11.209  10.657  0.2120  0.1531  0.5333
    5MOL0     H  653   5.341  11.348  10.457  0.6869 -0.9257 -0.4441
    5MOL0     H  654   5.490  11.398  10.530 -0.4336  1.2634 -1.5529
    5MOL0     H  655   5.452  10.256  10.748  4.8760  4.7752  1.1342
    5MOL0     H  656   5.479  10.025  10.703  1.6600 -1.1382 -0.0340
    5MOL0     H  657   5.538   9.715  10.388  0.4115 -0.7381 -1.5147
    5MOL0     H  658   5.550   9.475  10.320 -1.1032 -0.3983  1.5039
    5MOL0     H  659   5.618   9.305  10.959  1.1329  1.0265  0.2280
    5MOL0     H  660   5.391   9.233  11.050  0.4408 -0.9510  0.6819
    5MOL0     H  661   5.020   9.604  11.226 -1.2209  0.4623  0.6195
    5MOL0     H  662   4.814   9.608  11.109 -0.9772 -0.3098  1.3702
    5MOL0     H  663   4.697   9.268  10.843  2.0453 -0.5981  0.4097
    5MOL0     H  664   4.787   9.420  10.848 -0.9330 -0.1544 -1.1153
    5MOL0     H  665   4.489   9.397  10.878 -1.3465  2.3682 -0.5838
    5MOL0     H  666   4.562   9.420  10.715  1.0805  0.2459 -0.5444
    5MOL0     H  667   4.634   9.608  10.930 -0.4036  1.8838 -0.8299
    5MOL0     H  668   4.478   9.634  10.846 -0.7657 -1.1664  0.2925
    5MOL0     H  669   4.612   9.635  10.630 -1.5572  0.4885 -0.2984
    5MOL0     H  670   4.614   9.778  10.742  2.8004  0.6176 -0.4215
    5MOL0     H  671   5.016   9.661  10.744 -0.7647  0.5716  1.7706
    5MOL0     H  672   4.862   9.178  11.027  2.0215  0.2441 -2.1287
    5MOL0     H  673   5.110   9.110  11.239 -3.8908  0.9429  0.8191
    5MOL0     H  674   5.032   9.052  11.084 -1.9999  0.0170  0.2928
    5MOL0     H  675   5.186   9.143  11.081  0.1941  0.1810  0.6752
    6MOL0     O  676   0.819   6.115   0.680 -0.4109  0.7930 -0.6990
    6MOL0     C  677   0.933   6.164   0.682  0.1569  1.0278 -0.1919
    6MOL0     O  678   1.003   6.180   0.801 -0.0545  0.6683  0.9425
    6MOL0     C  679   0.946   6.149   0.925  0.0879  0.5763  1.0658
    6MOL0     C  680   1.043   6.110   1.022 -0.3882  0.0490  0.5248
    6MOL0     C  681   1.010   6.081   1.146 -0.1510  0.0643  0.1828
    6MOL0     C  682   0.876   6.073   1.185 -0.2557  0.7599 -0.8363
    6MOL0     O  683   0.858   6.046   1.325  0.4158  0.4961  0.3118
    6MOL0     C  684   0.727   6.044   1.380 -0.5588  0.2755 -0.7163
    6MOL0     C  685   0.721   5.965   1.516  0.5531 -0.0220 -0.1334
    6MOL0     C  686   0.615   5.848   1.523 -0.0668 -0.5563 -0.9954
    6MOL0     C  687   0.701   5.721   1.511  0.0541 -0.2830 -0.2860
    6MOL0     C  688   0.615   5.598   1.516  0.5559  0.1682 -0.1471
    6MOL0     C  689   0.696   5.465   1.493 -0.3988 -0.3368  0.4720
    6MOL0     C  690   0.589   5.362   1.455 -0.2553 -0.1028  0.3298
    6MOL0     C  691   0.650   5.235   1.408 -0.2477  0.5764  1.6417
    6MOL0     N  692   0.643   5.223   1.268 -0.2159  0.2275  0.1593
    6MOL0     C  693   0.735   5.286   1.178  0.9172  0.6572  0.8055
    6MOL0     C  694   0.686   5.233   1.057  0.0109  0.4126 -0.5930
    6MOL0     C  695   0.770   5.238   0.929 -0.7493 -0.5851 -0.7522
    6MOL0     C  696   0.702   5.320   0.816  0.2292 -0.1079 -0.2021
    6MOL0     C  697   0.762   5.285   0.678  0.4367  0.1366  0.4673
    6MOL0     C  698   0.704   5.392   0.575 -0.3441  0.0604 -0.1534
    6MOL0     O  699   0.702   5.519   0.636 -0.5777 -0.1697 -0.4390
    6MOL0     C  700   0.818   5.591   0.638 -0.2631 -0.7717  0.2402
    6MOL0     C  701   0.816   5.731   0.681  1.0265  0.3329  0.3322
    6MOL0     C  702   0.925   5.808   0.704  1.0889 -0.3470 -0.3320
    6MOL0     C  703   1.047   5.765   0.649  0.3624  0.2981  1.0987
    6MOL0     C  704   1.173   5.848   0.675  0.7509  0.6024  0.2800
    6MOL0     O  705   1.278   5.821   0.591 -0.1323  0.4125  0.1823
    6MOL0     C  706   1.404   5.885   0.600 -1.0093  0.0522  0.4904
    6MOL0     C  707   1.466   5.922   0.713 -0.3232 -0.6756  0.0304
    6MOL0     C  708   1.592   5.984   0.706 -0.6698  0.9085  0.2909
    6MOL0     C  709   1.651   6.006   0.580 -0.6716 -0.1436  0.4156
    6MOL0     O  710   1.768   6.060   0.545 -0.4379 -0.5181  0.5624
    6MOL0     C  711   1.843   6.111   0.650  0.4831 -0.2580  0.3467
    6MOL0     C  712   1.992   6.132   0.606  0.0838  1.0230 -0.3171
    6MOL0     C  713   2.005   6.262   0.533  0.8561 -0.8537 -0.5275
    6MOL0     C  714   2.139   6.343   0.566  0.0078  0.7822 -0.3774
    6MOL0     C  715   2.171   6.446   0.454 -0.0473  0.9778  0.7037
    6MOL0     C  716   2.081   6.569   0.451 -0.2643 -0.7285  0.7249
    6MOL0     C  717   2.108   6.657   0.327  0.0971  0.0949  0.2738
    6MOL0     C  718   2.005   6.760   0.305  0.3042 -0.2589 -0.6750
    6MOL0    Cl  719   1.987   6.892   0.422 -0.1262  1.0013  0.1862
    6MOL0     C  720   1.594   5.951   0.465  0.9163 -0.0859  0.5238
    6MOL0     C  721   1.469   5.889   0.478 -0.8426 -0.4982 -0.5907
    6MOL0     O  722   1.160   5.930   0.761 -0.6178 -0.3625 -0.5509
    6MOL0     C  723   1.056   5.626   0.614 -0.1620  0.7946 -0.4548
    6MOL0     C  724   0.943   5.545   0.600 -0.4432  0.0915 -0.2619
    6MOL0     N  725   0.574   5.156   1.078 -0.7698 -0.0330 -0.7575
    6MOL0     N  726   0.556   5.153   1.204  0.4210  0.1251  0.3134
    6MOL0     C  727   0.778   6.101   1.092 -0.1941  0.6851  0.2607
    6MOL0     C  728   0.815   6.130   0.959 -0.0415 -0.7584  0.7815
    6MOL0     C  729   0.997   6.164   0.551  1.0672  0.3057 -0.1870
    6MOL0     C  730   0.950   6.060   0.461 -0.3074  0.5434 -1.0171
    6MOL0     C  731   1.020   6.032   0.347  0.2278 -0.0324 -0.1854
    6MOL0     C  732   1.136   6.104   0.315  0.7025  0.5042 -0.3769
    6MOL0     O  733   1.217   6.044   0.224 -0.2750 -0.4574 -0.1326
    6MOL0     C  734   1.323   6.112   0.154 -0.0909  1.0027  1.2915
    6MOL0     C  735   1.396   6.009   0.066  0.1383  0.7445 -0.5018
    6MOL0     C  736   1.500   6.077  -0.024 -0.4700  0.9254  0.2989
    6MOL0     C  737   1.440   6.134  -0.156 -0.3147 -0.3035 -0.2412
    6MOL0     C  738   1.322   6.220  -0.156  0.0298 -0.1677 -0.6672
    6MOL0     C  739   1.239   6.310  -0.144  0.0878  0.0422 -1.7392
    6MOL0     C  740   1.185   6.213   0.401 -0.1414  0.1104  0.5210
    6MOL0     C  741   1.106   6.244   0.517  0.2896 -0.2887 -0.4860
    6MOL0     C  742   1.150   6.354   0.605 -0.0410  0.5152  1.7862
    6MOL0     H  743   1.149   6.126   1.003 -0.8970  1.1068 -1.6864
    6MOL0     H  744   1.098   6.082   1.210  0.2375  0.8907 -0.3305
    6MOL0     H  745   0.688   6.145   1.398  0.3831  0.7877 -1.5218
    6MOL0     H  746   0.663   5.997   1.306 -0.1345 -0.4753 -0.6139
    6MOL0     H  747   0.706   6.021   1.609  3.7075 -2.9822  2.4193
    6MOL0     H  748   0.819   5.918   1.529 -0.0729 -0.9353  1.6097
    6MOL0     H  749   0.546   5.850   1.438  0.7700 -1.8697 -1.7224
    6MOL0     H  750   0.567   5.847   1.621  2.0785  3.0302  0.2977
    6MOL0     H  751   0.763   5.706   1.423  0.0030 -0.2842 -0.3219
    6MOL0     H  752   0.780   5.717   1.587  0.5424  0.2321 -0.7562
    6MOL0     H  753   0.566   5.604   1.614  0.9812  0.4802  0.0463
    6MOL0     H  754   0.539   5.614   1.439  0.2358 -2.5332 -0.5212
    6MOL0     H  755   0.765   5.486   1.411 -0.5202  0.8420  0.6529
    6MOL0     H  756   0.753   5.437   1.582  2.3871  0.6510 -0.8775
    6MOL0     H  757   0.526   5.405   1.376 -0.1498 -0.3476  0.1096
    6MOL0     H  758   0.524   5.347   1.541 -0.3333  0.9241  0.4662
    6MOL0     H  759   0.757   5.248   1.428  0.3557  0.0360 -0.9106
    6MOL0     H  760   0.603   5.151   1.460  2.2936 -1.1766  1.2595
    6MOL0     H  761   0.830   5.334   1.199  2.3207 -0.7821 -1.7198
    6MOL0     H  762   0.866   5.288   0.947  0.0530 -2.2173 -0.2639
    6MOL0     H  763   0.796   5.134   0.908  0.6240 -1.2806  3.3604
    6MOL0     H  764   0.595   5.299   0.809 -0.6407  2.7652  2.1988
    6MOL0     H  765   0.695   5.425   0.847 -1.2393  0.6828 -2.8901
    6MOL0     H  766   0.745   5.183   0.641 -1.9731  0.8217 -0.5396
    6MOL0     H  767   0.870   5.293   0.692  0.4383 -0.3456  0.7508
    6MOL0     H  768   0.601   5.366   0.553 -0.0066  1.1031 -3.5204
    6MOL0     H  769   0.748   5.401   0.475 -0.3047  0.2801 -0.1158
    6MOL0     H  770   0.715   5.765   0.702 -0.4662 -1.6108 -2.8533
    6MOL0     H  771   0.927   5.903   0.756  0.1961 -0.9894  0.9456
    6MOL0     H  772   1.415   5.921   0.809 -1.6925 -1.2540 -0.6917
    6MOL0     H  773   1.631   6.025   0.798 -0.9399 -3.1071  2.4620
    6MOL0     H  774   1.797   6.203   0.687  1.2425 -0.0699  0.8440
    6MOL0     H  775   1.846   6.038   0.732 -1.3592  2.1177  2.7240
    6MOL0     H  776   2.037   6.146   0.704  1.6331 -0.8828 -0.6964
    6MOL0     H  777   2.033   6.063   0.532 -2.9186 -0.4565 -0.7521
    6MOL0     H  778   1.983   6.240   0.428 -2.2427 -0.5826 -0.0317
    6MOL0     H  779   1.928   6.336   0.555 -0.7473 -2.5098 -0.3157
    6MOL0     H  780   2.219   6.268   0.565  1.2589  2.0676 -0.3673
    6MOL0     H  781   2.132   6.384   0.667  1.1023  1.1331 -0.4302
    6MOL0     H  782   2.170   6.395   0.357 -0.7813 -0.0524  1.2321
    6MOL0     H  783   2.277   6.471   0.461  0.5953 -0.6891 -1.7590
    6MOL0     H  784   1.981   6.524   0.446 -0.3979 -1.0644  4.3178
    6MOL0     H  785   2.079   6.626   0.544 -2.9767  0.6142 -0.0467
    6MOL0     H  786   2.120   6.599   0.234 -1.0685  1.7572 -0.9702
    6MOL0     H  787   2.205   6.705   0.340  1.1162 -1.8017  0.1412
    6MOL0     H  788   2.029   6.808   0.210 -0.6285  4.1493  1.1001
    6MOL0     H  789   1.903   6.721   0.300 -0.1470  0.2080  2.6209
    6MOL0     H  790   1.652   5.966   0.375  1.5291  0.1182  0.9541
    6MOL0     H  791   1.399   5.872   0.397 -2.5759  1.2047  0.4464
    6MOL0     H  792   1.156   5.590   0.591  0.5699  4.6117 -4.8665
    6MOL0     H  793   0.955   5.443   0.566 -0.6554 -0.9718  2.5637
    6MOL0     H  794   0.671   6.102   1.110 -0.5169  2.1854 -1.4382
    6MOL0     H  795   0.732   6.146   0.891 -0.1729 -2.3373  0.5453
    6MOL0     H  796   0.867   5.992   0.476 -0.5763  0.9569 -0.6180
    6MOL0     H  797   0.998   5.953   0.277 -0.7680  4.0615 -5.0418
    6MOL0     H  798   1.394   6.169   0.215 -0.7039  2.4290  0.7182
    6MOL0     H  799   1.282   6.195   0.095 -1.1905 -0.5277 -0.1711
    6MOL0     H  800   1.325   5.950   0.006 -1.0215  2.3862 -0.8102
    6MOL0     H  801   1.446   5.941   0.135 -0.8158 -1.3790 -1.7819
    6MOL0     H  802   1.576   6.007  -0.060 -1.8557  1.0885 -3.3449
    6MOL0     H  803   1.542   6.155   0.041  0.6988 -0.4548  1.2917
    6MOL0     H  804   1.517   6.201  -0.195 -0.1018  1.8038  3.3108
    6MOL0     H  805   1.415   6.044  -0.212 -0.8940 -0.1448 -0.2481
    6MOL0     H  806   1.161   6.382  -0.132 -1.3159 -1.5305 -1.0214
    6MOL0     H  807   1.278   6.265   0.379 -0.0092  0.2292  1.3301
    6MOL0     H  808   1.065   6.384   0.667  0.8128  4.2544  1.4033
    6MOL0     H  809   1.228   6.322   0.675 -1.9015 -3.4057  2.3634
    6MOL0     H  810   1.177   6.441   0.545 -4.8222 -0.0111 -1.8064
    7MOL0     O  811   9.588   7.025   6.599  0.2620 -0.3505  0.1226
    7MOL0     C  812   9.630   6.920   6.624 -0.0914  1.3447  0.1541
    7MOL0     O  813   9.593   6.850   6.739  0.1901  0.2383 -0.1836
    7MOL0     C  814   9.477   6.891   6.813 -1.1413  0.3116 -0.4979
    7MOL0     C  815   9.480   6.894   6.952  0.0756  0.7468 -0.3905
    7MOL0     C  816   9.365   6.933   7.019  0.6240  0.0994 -0.9178
    7MOL0     C  817   9.248   6.975   6.952  0.6894  0.3370 -0.2192
    7MOL0     O  818   9.126   7.014   7.007 -0.4225 -0.0314  0.6576
    7MOL0     C  819   9.085   6.966   7.138  0.5994 -0.9151  0.4668
    7MOL0     C  820   9.017   7.086   7.219 -0.2617  0.9273  0.2433
    7MOL0     C  821   8.898   7.156   7.146 -0.0755  0.0332  0.7095
    7MOL0     C  822   8.877   7.295   7.192  0.5951 -0.7745 -0.5733
    7MOL0     C  823   8.732   7.337   7.155  0.2824  0.6192 -0.8827
    7MOL0     C  824   8.617   7.282   7.253 -0.0963  0.4526  0.9890
    7MOL0     C  825   8.481   7.340   7.217 -0.2808  0.0378 -0.0828
    7MOL0     C  826   8.362   7.260   7.277 -0.2157  0.3769 -0.6444
    7MOL0     N  827   8.242   7.337   7.316  0.0382  0.6418  0.5255
    7MOL0     C  828   8.228   7.412   7.424 -0.8772 -0.0767  1.1214
    7MOL0     C  829   8.105   7.468   7.414  0.8708 -0.2249  0.1453
    7MOL0     C  830   8.026   7.547   7.513  0.6510  0.1685  0.4400
    7MOL0     C  831   7.934   7.661   7.452 -0.3634 -0.0810  0.4477
    7MOL0     C  832   7.783   7.643   7.420 -1.2965  0.2184 -0.1940
    7MOL0     C  833   7.715   7.760   7.353 -0.2060  0.5368  0.1564
    7MOL0     O  834   7.738   7.861   7.456  0.3889  0.0671 -0.1589
    7MOL0     C  835   7.742   7.992   7.422 -0.9938  0.2362 -0.5752
    7MOL0     C  836   7.670   8.050   7.321 -0.5063 -0.3934  0.1776
    7MOL0     C  837   7.677   8.187   7.286 -0.5198  0.0985 -0.5017
    7MOL0     C  838   7.749   8.267   7.371  0.1693 -0.0741  0.2512
    7MOL0     C  839   7.725   8.416   7.371 -0.4994  0.5618 -0.1072
    7MOL0     O  840   7.639   8.465   7.269 -0.7272 -0.2351  0.2422
    7MOL0     C  841   7.610   8.595   7.226  0.4717  0.9657 -0.4458
    7MOL0     C  842   7.640   8.707   7.297 -0.4060  0.2207 -1.1135
    7MOL0     C  843   7.591   8.832   7.260  0.8196  0.2264  0.0524
    7MOL0     C  844   7.523   8.852   7.144  0.5966  1.0174 -0.3331
    7MOL0     O  845   7.480   8.971   7.102  0.0861  0.3912  0.7794
    7MOL0     C  846   7.554   9.085   7.135 -0.1794  0.4616  0.5577
    7MOL0     C  847   7.488   9.202   7.069 -0.1877 -0.9836  1.6029
    7MOL0     C  848   7.493   9.200   6.918 -0.2948 -0.2408  0.2643
    7MOL0     C  849   7.410   9.313   6.861 -1.1388  0.7904  0.5681
    7MOL0     C  850   7.335   9.268   6.732 -0.2543 -0.5817 -0.6429
    7MOL0     C  851   7.229   9.361   6.678  0.4951  0.3586  0.7784
    7MOL0     C  852   7.273   9.505   6.658 -0.5379 -1.1717  1.1318
    7MOL0     C  853   7.214   9.577   6.542 -0.3935  0.0130  0.1683
    7MOL0    Cl  854   7.048   9.622   6.561 -0.1455  0.2312 -0.5978
    7MOL0     C  855   7.479   8.741   7.079 -0.7627 -0.0947  0.6317
    7MOL0     C  856   7.524   8.605   7.117 -0.0355  0.0809 -0.8221
    7MOL0     O  857   7.780   8.487   7.454  1.1484  0.1001  0.5423
    7MOL0     C  858   7.832   8.206   7.474 -0.2717  0.2190  0.7528
    7MOL0     C  859   7.833   8.068   7.495 -0.1513  0.0580  0.0464
    7MOL0     N  860   8.038   7.398   7.311  0.2647 -0.2641 -0.6037
    7MOL0     N  861   8.123   7.318   7.253  0.2174  0.4106  0.3406
    7MOL0     C  862   9.249   6.981   6.820 -0.4015  0.6679 -0.6631
    7MOL0     C  863   9.363   6.947   6.747 -0.2480  0.2742 -0.1599
    7MOL0     C  864   9.740   6.849   6.548 -0.5616  0.6827 -0.8818
    7MOL0     C  865   9.838   6.778   6.622 -0.0847 -0.2975  0.9744
    7MOL0     C  866   9.947   6.717   6.562 -0.1652  1.0676 -0.3138
    7MOL0     C  867   9.961   6.722   6.433 -0.3870 -0.6011 -0.1173
    7MOL0     O  868  10.068   6.673   6.366 -0.5270  0.0647 -0.1644
    7MOL0     C  869  10.096   6.529   6.382 -0.3449 -0.6126  0.4884
    7MOL0     C  870   9.999   6.462   6.287  0.5663 -0.5743 -0.6749
    7MOL0     C  871  10.010   6.315   6.305 -0.4525  0.4696 -0.0021
    7MOL0     C  872   9.976   6.240   6.174  0.5063  0.0283 -1.2239
    7MOL0     C  873  10.065   6.259   6.058 -0.1413  0.0669 -0.1487
    7MOL0     C  874  10.150   6.283   5.974 -0.4683  0.3815 -0.0171
    7MOL0     C  875   9.864   6.788   6.353  0.6937  0.7903  0.9909
    7MOL0     C  876   9.755   6.851   6.411 -0.3920  0.3949 -0.3008
    7MOL0     C  877   9.666   6.932   6.316 -0.0164  0.8370 -1.2514
    7MOL0     H  878   9.561   6.863   7.018  0.7897  3.0646 -0.0856
    7MOL0     H  879   9.364   6.919   7.127  0.4711  1.1986 -0.7625
    7MOL0     H  880   9.006   6.896   7.107 -0.8463  1.0204 -0.5013
    7MOL0     H  881   9.161   6.921   7.202  0.4629 -0.8649  0.6635
    7MOL0     H  882   9.098   7.158   7.240  0.5051  0.2602 -0.3742
    7MOL0     H  883   8.971   7.046   7.310 -2.3524 -1.9335 -1.8929
    7MOL0     H  884   8.809   7.095   7.165 -1.1743  0.9739 -1.2406
    7MOL0     H  885   8.911   7.147   7.038  0.1992 -0.4615  0.7759
    7MOL0     H  886   8.904   7.301   7.298 -0.7794 -0.5199 -0.2188
    7MOL0     H  887   8.946   7.355   7.131  2.9113 -3.3885 -0.6996
    7MOL0     H  888   8.732   7.444   7.133  0.4085  0.2014 -3.2414
    7MOL0     H  889   8.713   7.296   7.055  1.1627  1.2538 -1.3187
    7MOL0     H  890   8.609   7.173   7.246  1.1343  0.3976  0.0454
    7MOL0     H  891   8.646   7.299   7.357 -0.3311 -1.1537  1.3374
    7MOL0     H  892   8.466   7.341   7.109  1.3104  0.1037 -0.3290
    7MOL0     H  893   8.488   7.440   7.260 -0.9244  0.1637 -0.2610
    7MOL0     H  894   8.331   7.187   7.202 -0.6125 -0.2180  0.0881
    7MOL0     H  895   8.411   7.208   7.360  3.8806  2.1903 -1.6461
    7MOL0     H  896   8.295   7.436   7.506 -2.8566  3.3220  1.9669
    7MOL0     H  897   7.970   7.478   7.577  1.1355 -2.2512 -1.6110
    7MOL0     H  898   8.105   7.597   7.570  2.2914 -0.8519 -0.8322
    7MOL0     H  899   7.927   7.733   7.534  3.0557  1.9868 -0.8765
    7MOL0     H  900   7.979   7.705   7.363 -0.1675  0.4897  0.8244
    7MOL0     H  901   7.731   7.620   7.513  1.6292 -2.0036  1.0640
    7MOL0     H  902   7.785   7.556   7.353  2.7392 -0.1849  0.1837
    7MOL0     H  903   7.611   7.743   7.325  0.1757  0.9718 -1.6316
    7MOL0     H  904   7.783   7.785   7.271  1.6403 -3.7255  0.0888
    7MOL0     H  905   7.585   8.007   7.268  0.0836 -3.8688  1.7760
    7MOL0     H  906   7.598   8.230   7.225 -0.3213  0.0656 -0.7850
    7MOL0     H  907   7.694   8.709   7.391 -2.8434  1.6335  0.3724
    7MOL0     H  908   7.630   8.923   7.305  2.2879 -1.0916  1.5580
    7MOL0     H  909   7.563   9.110   7.241  0.6484  2.0282  0.1568
    7MOL0     H  910   7.650   9.064   7.087 -1.1525 -1.9170 -0.5348
    7MOL0     H  911   7.385   9.218   7.102 -0.6115 -1.2614  0.4845
    7MOL0     H  912   7.551   9.287   7.096 -0.9999 -0.7509  2.8707
    7MOL0     H  913   7.593   9.199   6.875 -0.5876 -1.2209 -0.4348
    7MOL0     H  914   7.444   9.105   6.894 -1.9884 -0.3036  3.3944
    7MOL0     H  915   7.471   9.396   6.826 -1.6355 -0.1046 -2.7959
    7MOL0     H  916   7.339   9.358   6.931  1.9360  4.0500  1.8938
    7MOL0     H  917   7.296   9.167   6.752 -0.8943  0.2570  2.9886
    7MOL0     H  918   7.410   9.256   6.653  0.0028  0.4236 -0.5605
    7MOL0     H  919   7.189   9.323   6.583 -0.8478 -0.0332  1.4811
    7MOL0     H  920   7.151   9.356   6.754  1.2371  1.3612  1.6365
    7MOL0     H  921   7.380   9.518   6.641 -1.0841  0.6236 -1.4087
    7MOL0     H  922   7.265   9.556   6.755  3.4336 -2.6117  2.4250
    7MOL0     H  923   7.260   9.676   6.539 -1.8740  0.8198  2.0508
    7MOL0     H  924   7.247   9.529   6.449 -2.0341  2.8721 -2.0622
    7MOL0     H  925   7.408   8.764   7.000 -0.5042  1.6182  0.8669
    7MOL0     H  926   7.493   8.516   7.063  0.7292 -1.2898  0.9183
    7MOL0     H  927   7.910   8.259   7.528  1.1180 -0.0881 -0.8793
    7MOL0     H  928   7.904   8.032   7.570  0.5119  0.3268 -0.4432
    7MOL0     H  929   9.157   7.007   6.769 -0.0861  1.6805 -0.7426
    7MOL0     H  930   9.346   6.943   6.640 -1.0078 -0.9289 -0.0154
    7MOL0     H  931   9.839   6.775   6.730  2.6983 -1.2497  1.0134
    7MOL0     H  932  10.017   6.659   6.622 -0.1149  1.7871  0.3434
    7MOL0     H  933  10.085   6.490   6.484  2.1060 -0.4204  0.8785
    7MOL0     H  934  10.198   6.503   6.354 -0.1380  0.5562  0.1383
    7MOL0     H  935  10.025   6.492   6.185 -1.9094 -1.6768 -1.6888
    7MOL0     H  936   9.897   6.495   6.306  0.2244  1.3956 -4.7921
    7MOL0     H  937   9.959   6.278   6.394  2.2818 -1.1487  1.0149
    7MOL0     H  938  10.113   6.282   6.323 -0.7049  0.8505  2.4501
    7MOL0     H  939   9.974   6.138   6.214  5.5295  0.9161  2.2919
    7MOL0     H  940   9.872   6.264   6.150  0.4488  1.8432  0.5414
    7MOL0     H  941  10.228   6.305   5.903 -0.3911  1.1224  0.2952
    7MOL0     H  942   9.872   6.786   6.245 -0.2296  2.3855  0.8583
    7MOL0     H  943   9.568   6.961   6.355 -0.9220  0.9997 -3.4887
    7MOL0     H  944   9.726   7.019   6.289 -0.0391  1.4928  0.6507
    7MOL0     H  945   9.650   6.876   6.223 -0.2159  1.9359 -1.8932
    8MOL0     O  946   3.657   4.348   1.641  0.5380 -0.0310 -0.2575
    8MOL0     C  947   3.586   4.263   1.699  0.4025  0.0737  0.3094
    8MOL0     O  948   3.455   4.279   1.740  0.0928 -0.1087 -0.5445
    8MOL0     C  949   3.386   4.388   1.701  0.1936 -0.2840 -0.6162
    8MOL0     C  950   3.442   4.515   1.687  1.2493  0.0856 -0.3895
    8MOL0     C  951   3.357   4.611   1.628  0.1792 -0.0676  0.6920
    8MOL0     C  952   3.222   4.590   1.594  0.0515 -0.3909 -0.6798
    8MOL0     O  953   3.148   4.696   1.546 -0.0263  0.0128  0.5017
    8MOL0     C  954   3.013   4.703   1.602  0.2230  0.6585  0.2619
    8MOL0     C  955   2.958   4.842   1.579  0.3280 -0.3833  0.2776
    8MOL0     C  956   3.024   4.937   1.672  0.5472 -0.3682  0.3212
    8MOL0     C  957   2.933   5.058   1.676 -0.0330 -0.1542 -0.3430
    8MOL0     C  958   2.978   5.144   1.797  0.0951 -0.0644  0.3763
    8MOL0     C  959   2.878   5.256   1.828  0.1395  0.1823  0.3153
    8MOL0     C  960   2.917   5.362   1.930 -0.7021  0.7233 -0.4270
    8MOL0     C  961   2.940   5.309   2.069  0.3219 -0.2222  0.9965
    8MOL0     N  962   3.056   5.360   2.144 -1.0421 -0.3153  0.5129
    8MOL0     C  963   3.194   5.332   2.104  0.3446  0.3547 -0.4175
    8MOL0     C  964   3.267   5.420   2.179 -0.1538 -0.8120 -0.5012
    8MOL0     C  965   3.410   5.446   2.183 -0.1301  0.2706  0.4131
    8MOL0     C  966   3.464   5.580   2.155 -0.7361  0.1533  0.4214
    8MOL0     C  967   3.455   5.615   2.003 -0.0991 -0.5563  0.1357
    8MOL0     C  968   3.524   5.749   1.978 -0.8687 -0.4288  0.0173
    8MOL0     O  969   3.670   5.756   1.967  0.2513 -0.7998  0.3870
    8MOL0     C  970   3.747   5.771   2.084 -0.1864  0.5430 -0.1163
    8MOL0     C  971   3.868   5.707   2.096  0.3695 -0.0281 -0.1993
    8MOL0     C  972   3.950   5.722   2.211  0.2646  0.4313 -0.4690
    8MOL0     C  973   3.913   5.803   2.317  1.0788 -0.3120 -0.2229
    8MOL0     C  974   3.978   5.806   2.444  0.0144  0.1594 -0.2667
    8MOL0     O  975   4.114   5.797   2.441  0.1500  1.2164 -0.0506
    8MOL0     C  976   4.181   5.760   2.559  0.4030  0.9627 -0.7414
    8MOL0     C  977   4.271   5.854   2.618  0.0278 -0.6369 -0.5332
    8MOL0     C  978   4.354   5.822   2.734 -0.2252  0.0810 -0.0821
    8MOL0     C  979   4.347   5.691   2.785  0.1356  0.4488 -1.3193
    8MOL0     O  980   4.443   5.652   2.879 -0.4792 -0.0541  0.0378
    8MOL0     C  981   4.438   5.521   2.930 -0.1746  0.7608 -0.5373
    8MOL0     C  982   4.534   5.508   3.044  0.5002 -0.7120  0.7648
    8MOL0     C  983   4.681   5.499   2.999 -0.3903  0.5464  0.2925
    8MOL0     C  984   4.756   5.459   3.128  0.0280 -0.0742 -0.7901
    8MOL0     C  985   4.907   5.436   3.087  0.2859  1.4632  0.1373
    8MOL0     C  986   4.994   5.426   3.209  0.3701  0.5189  1.0921
    8MOL0     C  987   5.129   5.498   3.183 -0.1700 -0.4038 -0.8896
    8MOL0     C  988   5.212   5.494   3.313  0.5660 -0.7557 -0.4759
    8MOL0    Cl  989   5.387   5.467   3.293 -0.0343 -0.9394  0.0855
    8MOL0     C  990   4.242   5.597   2.732 -0.1421  0.2257  0.1924
    8MOL0     C  991   4.157   5.635   2.629 -1.5774 -0.5682 -0.2035
    8MOL0     O  992   3.903   5.815   2.545 -0.0174 -0.5592  0.2621
    8MOL0     C  993   3.778   5.856   2.310 -0.0326  0.3162  0.4920
    8MOL0     C  994   3.704   5.839   2.196 -0.0933  0.6987 -0.0454
    8MOL0     N  995   3.177   5.493   2.262  0.3416  0.0942  0.2603
    8MOL0     N  996   3.060   5.458   2.238  1.7630  0.1020  0.4681
    8MOL0     C  997   3.166   4.463   1.632  0.2946 -0.3596  0.3695
    8MOL0     C  998   3.245   4.362   1.684 -0.2635  0.2887  0.0135
    8MOL0     C  999   3.646   4.132   1.723 -1.0445  0.2632 -0.7786
    8MOL0     C 1000   3.565   4.017   1.718 -0.3654 -0.4204 -0.0307
    8MOL0     C 1001   3.610   3.893   1.742 -1.0594  0.6871 -0.3421
    8MOL0     C 1002   3.740   3.871   1.779  0.1472 -0.0191 -0.6973
    8MOL0     O 1003   3.773   3.740   1.789  0.3371  0.6735  0.1557
    8MOL0     C 1004   3.879   3.696   1.876 -0.2557  0.2193 -0.8267
    8MOL0     C 1005   3.823   3.618   1.999 -0.5650 -0.0274  0.3682
    8MOL0     C 1006   3.934   3.542   2.069  0.2492  0.3200  0.3381
    8MOL0     C 1007   3.941   3.396   2.010  0.4712 -0.5240 -0.0631
    8MOL0     C 1008   4.035   3.309   2.078 -0.8670  0.5211 -0.4413
    8MOL0     C 1009   4.122   3.275   2.159  0.5724 -0.6642  0.3299
    8MOL0     C 1010   3.821   3.984   1.809  0.5070  0.4816 -0.2425
    8MOL0     C 1011   3.776   4.118   1.778  0.5142 -0.0107 -0.9615
    8MOL0     C 1012   3.868   4.233   1.803 -0.4228  0.2768 -0.4112
    8MOL0     H 1013   3.544   4.548   1.702  1.1676 -0.2806  1.0759
    8MOL0     H 1014   3.398   4.710   1.617 -0.1518  0.3237  2.6904
    8MOL0     H 1015   2.959   4.627   1.544  2.3630  0.0032 -0.9866
    8MOL0     H 1016   3.015   4.675   1.707 -0.3894 -1.8773 -0.3284
    8MOL0     H 1017   2.850   4.837   1.593  0.2835 -1.3264 -0.2835
    8MOL0     H 1018   2.970   4.900   1.487  0.6233  1.1905  1.2912
    8MOL0     H 1019   3.128   4.951   1.641 -0.6329  1.7554 -3.2766
    8MOL0     H 1020   3.017   4.887   1.769 -4.2623  3.5389  2.4026
    8MOL0     H 1021   2.935   5.127   1.591 -1.6038  2.1389  1.3518
    8MOL0     H 1022   2.827   5.041   1.697  0.4297  2.0957  6.0935
    8MOL0     H 1023   2.992   5.074   1.880  2.9797 -0.0223  0.0293
    8MOL0     H 1024   3.077   5.185   1.776  2.2423 -2.0550  5.1306
    8MOL0     H 1025   2.864   5.313   1.736  4.6008 -1.1851 -1.4498
    8MOL0     H 1026   2.784   5.214   1.865  0.2048 -1.6639 -1.4653
    8MOL0     H 1027   2.831   5.429   1.927 -2.6538 -1.6741 -2.8875
    8MOL0     H 1028   3.004   5.414   1.889 -0.3408  1.0639  0.7417
    8MOL0     H 1029   2.845   5.320   2.121 -0.7492  2.0678 -1.2162
    8MOL0     H 1030   2.963   5.202   2.075  3.1004  0.2961  1.2116
    8MOL0     H 1031   3.212   5.258   2.026 -2.0025 -1.0927  0.3004
    8MOL0     H 1032   3.454   5.404   2.274 -2.8185 -2.8394  0.4539
    8MOL0     H 1033   3.437   5.374   2.105 -0.4904  0.4568  0.1183
    8MOL0     H 1034   3.423   5.661   2.216 -2.1895 -0.0235 -0.2763
    8MOL0     H 1035   3.568   5.576   2.188 -1.6962  1.3248  4.0306
    8MOL0     H 1036   3.353   5.624   1.965 -0.3895 -3.0371  0.1587
    8MOL0     H 1037   3.500   5.527   1.956 -0.5641 -0.6776 -0.0882
    8MOL0     H 1038   3.482   5.823   2.046 -2.5093  1.0503 -2.4683
    8MOL0     H 1039   3.488   5.793   1.885  1.0290  2.4369  0.5313
    8MOL0     H 1040   3.902   5.675   1.998 -3.5064  0.9720 -2.0772
    8MOL0     H 1041   4.047   5.675   2.213 -0.1750 -0.5784  2.6498
    8MOL0     H 1042   4.281   5.953   2.574  1.6697 -1.2700 -1.6904
    8MOL0     H 1043   4.430   5.890   2.770 -2.0333  1.6393  1.0434
    8MOL0     H 1044   4.340   5.493   2.970  0.0660 -1.1066 -1.1730
    8MOL0     H 1045   4.467   5.451   2.851  1.5463 -1.3579  1.7898
    8MOL0     H 1046   4.527   5.601   3.101  1.3269 -0.3074  0.2326
    8MOL0     H 1047   4.505   5.422   3.106 -2.2603 -0.3875  0.0644
    8MOL0     H 1048   4.696   5.426   2.919  2.2271 -1.4411  2.3679
    8MOL0     H 1049   4.706   5.601   2.970 -2.4667  0.3272 -2.7214
    8MOL0     H 1050   4.714   5.368   3.172  1.6533  0.4620  2.0865
    8MOL0     H 1051   4.740   5.535   3.204 -5.1829 -0.4118 -1.1729
    8MOL0     H 1052   4.959   5.506   3.021  0.4668  1.0093 -0.1995
    8MOL0     H 1053   4.910   5.343   3.030 -1.1494  2.6217 -1.9881
    8MOL0     H 1054   4.937   5.477   3.288 -0.5311 -0.2443  0.9448
    8MOL0     H 1055   5.004   5.319   3.229  0.0566  0.4167  0.7148
    8MOL0     H 1056   5.117   5.602   3.151  0.5698  0.1415  0.5163
    8MOL0     H 1057   5.177   5.457   3.093  2.2209  1.5489 -0.6327
    8MOL0     H 1058   5.201   5.589   3.367 -2.1707 -0.6597 -1.0516
    8MOL0     H 1059   5.168   5.418   3.377  2.0260 -0.6863  0.6515
    8MOL0     H 1060   4.231   5.490   2.750 -1.4653 -0.4538 -3.7440
    8MOL0     H 1061   4.083   5.567   2.587 -1.6253  0.0080 -1.0762
    8MOL0     H 1062   3.725   5.895   2.397 -2.0921  1.7750 -1.3116
    8MOL0     H 1063   3.613   5.896   2.209  1.5916  3.7539 -0.5937
    8MOL0     H 1064   3.059   4.445   1.627 -0.1678  2.3094 -1.7414
    8MOL0     H 1065   3.220   4.261   1.712 -1.0530  1.0574  2.2883
    8MOL0     H 1066   3.462   4.026   1.683  0.5068  2.6181 -2.2859
    8MOL0     H 1067   3.550   3.802   1.742 -1.0829  0.6014  2.5261
    8MOL0     H 1068   3.935   3.776   1.925 -0.4059 -0.2754  0.1878
    8MOL0     H 1069   3.954   3.640   1.820  1.7756 -0.7142  2.5563
    8MOL0     H 1070   3.742   3.555   1.960 -0.5293  0.4688 -0.5403
    8MOL0     H 1071   3.787   3.693   2.069 -1.6491  2.6855 -2.8695
    8MOL0     H 1072   3.919   3.545   2.178  4.5990 -0.2806  1.1358
    8MOL0     H 1073   4.034   3.585   2.058  0.2593  1.0732  2.7122
    8MOL0     H 1074   3.839   3.363   2.029 -0.2337  0.8998 -1.1715
    8MOL0     H 1075   3.967   3.397   1.904 -0.6246  3.1786 -0.4547
    8MOL0     H 1076   4.193   3.248   2.235  2.9404  1.3528 -1.0039
    8MOL0     H 1077   3.913   3.962   1.862 -0.5429 -0.1893  1.3950
    8MOL0     H 1078   3.822   4.322   1.848  1.2611  0.8624  0.2186
    8MOL0     H 1079   3.952   4.211   1.869 -0.9992  1.0452  0.6266
    8MOL0     H 1080   3.893   4.280   1.708 -2.2353  3.1628  0.3875
    9MOL0     O 1081   8.478   8.022   7.481 -0.4632 -0.5292 -0.1635
    9MOL0     C 1082   8.582   7.990   7.532 -0.6479  0.2789 -0.0788
    9MOL0     O 1083   8.633   8.058   7.638  0.2443 -1.2858  0.9328
    9MOL0     C 1084   8.597   8.190   7.656 -0.1695  0.5648 -0.3226
    9MOL0     C 1085   8.503   8.211   7.753 -0.1167  0.1770 -0.8707
    9MOL0     C 1086   8.480   8.348   7.786  0.8692  0.6819 -1.0197
    9MOL0     C 1087   8.542   8.456   7.715  0.9089  0.3517 -0.1853
    9MOL0     O 1088   8.547   8.586   7.769 -0.1657  0.5768  0.8251
    9MOL0     C 1089   8.676   8.636   7.793  0.4854  0.9734 -0.3895
    9MOL0     C 1090   8.682   8.771   7.737  0.0457 -0.7620 -1.0041
    9MOL0     C 1091   8.699   8.778   7.588 -0.8401  0.0460 -0.3077
    9MOL0     C 1092   8.693   8.929   7.539 -0.1555 -0.4623  0.4176
    9MOL0     C 1093   8.733   8.961   7.394  1.0803 -0.0001 -0.1206
    9MOL0     C 1094   8.625   8.929   7.296  0.2681  0.7529 -0.2208
    9MOL0     C 1095   8.684   8.925   7.148  0.7707  0.9570 -1.3081
    9MOL0     C 1096   8.554   8.909   7.051 -0.1752  0.5785  0.8820
    9MOL0     N 1097   8.485   9.023   6.990  0.1260  0.1474  0.5202
    9MOL0     C 1098   8.536   9.141   6.963 -0.1052 -0.1773 -0.3035
    9MOL0     C 1099   8.437   9.221   6.921 -1.2257 -0.6151  0.1124
    9MOL0     C 1100   8.439   9.369   6.866  0.1018 -0.2636 -0.7261
    9MOL0     C 1101   8.568   9.381   6.792 -0.1760  0.2831  0.8526
    9MOL0     C 1102   8.560   9.506   6.697 -0.0840 -0.5784  0.1759
    9MOL0     C 1103   8.588   9.636   6.776  0.0370  0.0441  0.4717
    9MOL0     O 1104   8.470   9.660   6.844  0.1499  0.2674  0.5029
    9MOL0     C 1105   8.462   9.742   6.953  1.0290  0.5815 -0.5921
    9MOL0     C 1106   8.369   9.718   7.050 -0.5178 -0.1711  0.3234
    9MOL0     C 1107   8.343   9.809   7.152 -0.2134 -0.1307 -0.4028
    9MOL0     C 1108   8.434   9.917   7.169  0.5779  0.3087 -1.2483
    9MOL0     C 1109   8.420  10.003   7.288  0.4495  0.2182  0.1823
    9MOL0     O 1110   8.308   9.967   7.364  0.5288  1.4056 -0.9527
    9MOL0     C 1111   8.277  10.031   7.483  0.0924  0.6619  0.0786
    9MOL0     C 1112   8.321   9.981   7.606  0.2989  1.0981  0.1626
    9MOL0     C 1113   8.284  10.034   7.731 -0.0140  0.3906  0.2738
    9MOL0     C 1114   8.195  10.147   7.725  0.0696  0.2202 -0.4088
    9MOL0     O 1115   8.154  10.204   7.847  0.1975 -0.2767  0.3812
    9MOL0     C 1116   8.043  10.311   7.835 -1.1144 -0.4647 -0.6630
    9MOL0     C 1117   8.009  10.369   7.971  0.7362  0.2912  0.7852
    9MOL0     C 1118   8.123  10.431   8.051  0.0861  0.3360 -0.1286
    9MOL0     C 1119   8.071  10.502   8.177 -0.1285  0.1251 -0.6883
    9MOL0     C 1120   8.017  10.403   8.276  0.1219  1.0487 -0.0445
    9MOL0     C 1121   7.962  10.486   8.390  0.1103 -0.2956 -0.0806
    9MOL0     C 1122   8.066  10.525   8.493  0.1141  0.5120  0.0336
    9MOL0     C 1123   8.005  10.599   8.606  0.2942 -0.2444  0.3394
    9MOL0    Cl 1124   7.892  10.743   8.545 -0.8292 -0.1037 -0.2113
    9MOL0     C 1125   8.137  10.181   7.602 -0.3184 -0.0742  0.0071
    9MOL0     C 1126   8.176  10.130   7.481 -0.0133 -0.4984  0.0558
    9MOL0     O 1127   8.488  10.102   7.299 -0.0954  0.1383  0.5406
    9MOL0     C 1128   8.537   9.932   7.075  0.3014 -0.9641 -0.4039
    9MOL0     C 1129   8.551   9.849   6.970 -0.1158  0.2351  0.1542
    9MOL0     N 1130   8.324   9.154   6.934 -0.1497 -0.8327  1.0858
    9MOL0     N 1131   8.353   9.032   6.975  0.3129  0.0209  0.7013
    9MOL0     C 1132   8.626   8.425   7.604 -0.4160 -0.3444  0.2611
    9MOL0     C 1133   8.653   8.292   7.584  0.3397  0.4821 -0.7594
    9MOL0     C 1134   8.656   7.877   7.469 -0.1447  0.7348 -0.7147
    9MOL0     C 1135   8.797   7.869   7.498  0.6402 -0.8280  1.1084
    9MOL0     C 1136   8.877   7.778   7.431  1.0781  0.4187  0.0184
    9MOL0     C 1137   8.825   7.687   7.342  0.7219  0.1351  0.1286
    9MOL0     O 1138   8.898   7.601   7.270  0.5192 -0.3668 -0.6431
    9MOL0     C 1139   9.039   7.600   7.235  0.0269 -0.2501 -0.1473
    9MOL0     C 1140   9.054   7.635   7.097  0.0076  0.6357  0.9124
    9MOL0     C 1141   9.023   7.774   7.055  0.3169  0.4123  0.2408
    9MOL0     C 1142   9.020   7.772   6.902 -0.1970  0.3756 -0.1355
    9MOL0     C 1143   9.028   7.903   6.847  0.4340  1.2038  0.3903
    9MOL0     C 1144   9.044   8.015   6.810  0.2265 -0.4218  1.0449
    9MOL0     C 1145   8.689   7.693   7.315  0.1414  0.1854 -0.0420
    9MOL0     C 1146   8.598   7.780   7.380 -0.7142  0.7696 -0.0277
    9MOL0     C 1147   8.451   7.767   7.335  0.0876  0.1370 -0.6020
    9MOL0     H 1148   8.457   8.138   7.819  2.2930  1.5586  2.6593
    9MOL0     H 1149   8.426   8.360   7.880  1.6896 -0.2682 -0.4034
    9MOL0     H 1150   8.688   8.642   7.902 -0.5358  1.9409 -0.3236
    9MOL0     H 1151   8.758   8.572   7.760  0.0184 -1.6386  2.9246
    9MOL0     H 1152   8.762   8.831   7.781 -1.1880 -0.6798  1.2613
    9MOL0     H 1153   8.591   8.825   7.763  0.3323 -1.5401  1.9025
    9MOL0     H 1154   8.617   8.726   7.538 -0.9976 -1.3509  1.2820
    9MOL0     H 1155   8.791   8.726   7.562 -0.0669  0.5532  1.2644
    9MOL0     H 1156   8.597   8.979   7.558 -0.3392  0.5972 -2.6544
    9MOL0     H 1157   8.775   8.975   7.595 -1.5756  0.6785  1.6383
    9MOL0     H 1158   8.770   9.062   7.376  0.2505  0.2020 -0.8160
    9MOL0     H 1159   8.822   8.897   7.385  2.2032  1.4081  0.6406
    9MOL0     H 1160   8.584   8.833   7.328  2.3966 -0.7222 -1.6428
    9MOL0     H 1161   8.542   8.999   7.285  0.1200  0.3033 -2.3966
    9MOL0     H 1162   8.740   8.836   7.122 -1.3807 -0.5367 -1.0979
    9MOL0     H 1163   8.743   9.016   7.136  2.0322  0.3904  0.3262
    9MOL0     H 1164   8.580   8.846   6.966 -1.6178  1.4730 -0.2705
    9MOL0     H 1165   8.485   8.842   7.104 -1.2919 -1.1030 -2.4232
    9MOL0     H 1166   8.639   9.174   6.951 -1.0850  2.1671 -3.6422
    9MOL0     H 1167   8.351   9.390   6.804 -1.6234 -1.4025  1.2066
    9MOL0     H 1168   8.443   9.444   6.946  0.2533  2.1608 -2.8625
    9MOL0     H 1169   8.650   9.382   6.864  0.3790  2.2089  0.2559
    9MOL0     H 1170   8.588   9.293   6.731  2.1182  0.2317  1.5785
    9MOL0     H 1171   8.469   9.510   6.637  1.4184  0.7121 -2.1603
    9MOL0     H 1172   8.643   9.496   6.627  0.9767  3.3420  0.5915
    9MOL0     H 1173   8.618   9.727   6.722  1.3903  0.6827  2.2270
    9MOL0     H 1174   8.667   9.614   6.848  2.7177 -1.8704 -2.7650
    9MOL0     H 1175   8.315   9.624   7.046  2.8884 -2.3403  1.3993
    9MOL0     H 1176   8.265   9.775   7.219  0.4041 -2.9286 -0.9930
    9MOL0     H 1177   8.389   9.897   7.611 -0.8255  0.2416  1.7733
    9MOL0     H 1178   8.340   9.994   7.815  2.8500  1.7085 -0.8413
    9MOL0     H 1179   8.074  10.394   7.771  0.6914 -0.5578  0.0443
    9MOL0     H 1180   7.955  10.258   7.797 -1.7080 -0.7562  1.0408
    9MOL0     H 1181   7.933  10.446   7.958  0.2638 -0.4383 -1.0890
    9MOL0     H 1182   7.970  10.287   8.033 -1.2117 -1.4601 -2.4676
    9MOL0     H 1183   8.194  10.352   8.074 -0.1621 -0.7843 -2.8608
    9MOL0     H 1184   8.175  10.506   7.991 -3.9743  2.2876 -1.6108
    9MOL0     H 1185   7.995  10.577   8.153 -0.0368  1.4907  2.8299
    9MOL0     H 1186   8.148  10.553   8.234 -2.8272  1.4363  2.0897
    9MOL0     H 1187   8.087  10.325   8.308 -2.8431 -2.8317 -2.1876
    9MOL0     H 1188   7.927  10.352   8.241 -0.4565 -0.1347  2.8897
    9MOL0     H 1189   7.918  10.579   8.352 -1.6515 -0.7478  0.7935
    9MOL0     H 1190   7.886  10.421   8.432 -0.0708  0.4776  0.8202
    9MOL0     H 1191   8.142  10.583   8.439 -1.5001  3.3819  0.6636
    9MOL0     H 1192   8.108  10.432   8.533 -1.1838  1.6103  4.4653
    9MOL0     H 1193   7.956  10.543   8.686 -0.6302  0.6947  0.4529
    9MOL0     H 1194   8.080  10.645   8.672 -2.3145  1.8157  2.1110
    9MOL0     H 1195   8.067  10.264   7.595 -0.8060 -0.4771  0.0285
    9MOL0     H 1196   8.140  10.171   7.388  3.6046  0.1521 -1.2442
    9MOL0     H 1197   8.607  10.016   7.081 -0.2628 -0.5665  1.1371
    9MOL0     H 1198   8.624   9.868   6.892 -0.5655 -1.7913 -0.8100
    9MOL0     H 1199   8.689   8.494   7.549  0.8257 -2.0125 -0.4879
    9MOL0     H 1200   8.722   8.267   7.504  0.3966 -3.9180  0.3727
    9MOL0     H 1201   8.858   7.934   7.560  1.0157 -1.4127  1.3632
    9MOL0     H 1202   8.982   7.761   7.449  0.5674 -3.7068 -0.0257
    9MOL0     H 1203   9.082   7.502   7.254 -0.7342 -0.8216 -1.2409
    9MOL0     H 1204   9.100   7.666   7.297  1.7069 -2.1356  0.2892
    9MOL0     H 1205   9.004   7.557   7.038 -0.2711  1.8165 -0.4917
    9MOL0     H 1206   9.157   7.618   7.064 -1.0061  0.7426 -2.7723
    9MOL0     H 1207   9.100   7.841   7.096 -0.4993  1.1262  0.6614
    9MOL0     H 1208   8.927   7.808   7.093 -0.2316  0.4328 -1.1307
    9MOL0     H 1209   9.104   7.720   6.854  0.4731  3.0869 -2.1349
    9MOL0     H 1210   8.928   7.724   6.867  0.4971 -0.5913 -0.6758
    9MOL0     H 1211   9.053   8.112   6.766 -2.0550 -1.5702 -2.3920
    9MOL0     H 1212   8.664   7.629   7.231 -0.4457  1.0167 -0.5159
    9MOL0     H 1213   8.418   7.672   7.378 -0.6645  0.7160  0.1592
    9MOL0     H 1214   8.376   7.835   7.380  3.2280  4.3520 -1.0967
    9MOL0     H 1215   8.438   7.771   7.227 -4.2143  0.2925 -0.2547
   10MOL0     O 1216   4.255   0.656   6.896 -0.9127 -0.7016  0.6345
   10MOL0     C 1217   4.343   0.574   6.888  0.2511  0.7401  0.0793
   10MOL0     O 1218   4.463   0.572   6.947  0.2902  0.7958  0.6381
   10MOL0     C 1219   4.482   0.664   7.045  0.0838  0.6848  0.2695
   10MOL0     C 1220   4.393   0.697   7.142 -0.0285 -0.3272 -0.0003
   10MOL0     C 1221   4.438   0.786   7.237  0.0240 -0.0320 -0.5732
   10MOL0     C 1222   4.562   0.849   7.240  0.0969 -0.7565  0.3337
   10MOL0     O 1223   4.584   0.945   7.325  0.8149 -0.1971  0.0921
   10MOL0     C 1224   4.699   1.024   7.309 -0.4898  0.0478 -0.2205
   10MOL0     C 1225   4.703   1.140   7.404  0.6693  0.1580 -0.3342
   10MOL0     C 1226   4.578   1.240   7.395 -0.7353  0.0485  0.1030
   10MOL0     C 1227   4.595   1.344   7.509 -0.0421 -0.3289  0.4410
   10MOL0     C 1228   4.484   1.465   7.496 -0.5059 -0.3068 -0.3455
   10MOL0     C 1229   4.514   1.546   7.373  0.9072 -0.8424  0.4118
   10MOL0     C 1230   4.420   1.667   7.378  0.2577 -0.7470  0.6189
   10MOL0     C 1231   4.443   1.782   7.273  0.0836  0.4883  0.5273
   10MOL0     N 1232   4.553   1.867   7.310 -0.2785 -0.7258 -0.2403
   10MOL0     C 1233   4.674   1.882   7.240 -0.2514  0.7928 -0.0574
   10MOL0     C 1234   4.742   1.979   7.306  0.6282  1.2266  0.3042
   10MOL0     C 1235   4.877   2.029   7.268  0.6099 -0.7257  0.8070
   10MOL0     C 1236   4.868   2.143   7.170 -0.4652 -0.0718 -0.1119
   10MOL0     C 1237   4.993   2.232   7.171  0.4639 -0.2500 -0.4440
   10MOL0     C 1238   5.121   2.175   7.110  0.3416 -1.4663  0.3178
   10MOL0     O 1239   5.160   2.053   7.171  0.1636  0.4395  0.3520
   10MOL0     C 1240   5.204   2.049   7.302  0.9396 -0.1109 -0.1743
   10MOL0     C 1241   5.193   1.934   7.374  0.2918 -0.0408 -1.0252
   10MOL0     C 1242   5.240   1.932   7.509  0.3862 -0.7162 -1.3498
   10MOL0     C 1243   5.301   2.040   7.575 -0.4696  1.1289  0.3015
   10MOL0     C 1244   5.371   2.020   7.707  0.2183  0.3456  0.6223
   10MOL0     O 1245   5.361   1.897   7.765 -0.4489 -0.4753  0.4695
   10MOL0     C 1246   5.390   1.868   7.896  0.4103  0.1811  0.2035
   10MOL0     C 1247   5.369   1.952   8.017 -0.6314  0.2143 -0.9843
   10MOL0     C 1248   5.409   1.906   8.143 -0.2575 -0.2696  0.0454
   10MOL0     C 1249   5.453   1.775   8.159 -0.1449  0.0170  1.0094
   10MOL0     O 1250   5.477   1.725   8.281 -0.6139  0.0599 -0.5628
   10MOL0     C 1251   5.522   1.813   8.388  0.6936 -0.2978  1.4009
   10MOL0     C 1252   5.498   1.734   8.518 -0.7159  0.4898 -0.3204
   10MOL0     C 1253   5.561   1.591   8.540  0.1453  0.7192 -0.4392
   10MOL0     C 1254   5.711   1.601   8.529 -0.0251  0.6499  0.5969
   10MOL0     C 1255   5.791   1.473   8.567  0.2374  0.0538 -0.0554
   10MOL0     C 1256   5.938   1.498   8.595  0.2059  0.1930 -0.6987
   10MOL0     C 1257   5.973   1.577   8.718  0.0920  0.2158 -0.0984
   10MOL0     C 1258   5.901   1.541   8.844  0.4851  0.0178 -0.0587
   10MOL0    Cl 1259   5.980   1.593   9.000  0.1890 -0.5731  0.4239
   10MOL0     C 1260   5.454   1.688   8.048 -0.2940 -0.4028 -0.5369
   10MOL0     C 1261   5.436   1.739   7.916  0.2435 -0.6178 -1.0499
   10MOL0     O 1262   5.423   2.119   7.759 -0.1230 -0.7646  0.0613
   10MOL0     C 1263   5.329   2.149   7.498  0.9530  0.2065  0.9944
   10MOL0     C 1264   5.277   2.157   7.362  0.6999  0.5618  0.5949
   10MOL0     N 1265   4.666   2.025   7.417  0.4446  0.1282  0.5674
   10MOL0     N 1266   4.550   1.958   7.415 -0.0181 -0.0665 -0.2448
   10MOL0     C 1267   4.659   0.799   7.147  0.1426  0.1968 -0.2030
   10MOL0     C 1268   4.611   0.713   7.049 -0.4314 -0.0679 -0.1592
   10MOL0     C 1269   4.319   0.466   6.786 -0.2539 -0.1090 -0.4844
   10MOL0     C 1270   4.228   0.495   6.681 -0.4534  0.6740  0.5816
   10MOL0     C 1271   4.235   0.416   6.565 -0.7249 -0.0880  0.5265
   10MOL0     C 1272   4.310   0.301   6.561 -0.3310 -0.5028 -0.3712
   10MOL0     O 1273   4.289   0.236   6.444  0.3751 -0.1397 -0.1283
   10MOL0     C 1274   4.340   0.106   6.445  0.3526  0.2802  0.1455
   10MOL0     C 1275   4.294   0.021   6.320 -0.4329  0.1443  0.3205
   10MOL0     C 1276   4.395  -0.092   6.296 -0.1370 -0.2008 -0.3744
   10MOL0     C 1277   4.336  -0.210   6.210  0.5413 -0.1004 -0.6304
   10MOL0     C 1278   4.304  -0.180   6.077 -0.0468 -0.4121  0.8454
   10MOL0     C 1279   4.276  -0.171   5.965  0.0271  0.0950 -0.9040
   10MOL0     C 1280   4.392   0.269   6.670  0.8244  0.7057 -0.4687
   10MOL0     C 1281   4.394   0.343   6.781 -0.9380  0.6604 -0.1990
   10MOL0     C 1282   4.492   0.298   6.889  0.5088 -0.6018 -0.1938
   10MOL0     H 1283   4.291   0.659   7.137  0.2020 -0.9089 -0.3426
   10MOL0     H 1284   4.366   0.813   7.314 -2.2299 -2.5126 -1.6596
   10MOL0     H 1285   4.791   0.965   7.317 -0.4639  0.0294 -0.6435
   10MOL0     H 1286   4.708   1.075   7.213  0.8678 -0.8663 -0.6037
   10MOL0     H 1287   4.794   1.196   7.384  0.9590  1.0653  3.0290
   10MOL0     H 1288   4.711   1.105   7.507 -0.0701 -2.7306 -1.1424
   10MOL0     H 1289   4.481   1.191   7.410  0.6598 -3.6584 -1.7833
   10MOL0     H 1290   4.586   1.281   7.294  3.4638 -0.5870  0.0088
   10MOL0     H 1291   4.578   1.291   7.603  0.6329 -4.3209 -1.4774
   10MOL0     H 1292   4.701   1.369   7.503  0.0512 -0.9509 -0.6701
   10MOL0     H 1293   4.379   1.437   7.496 -0.4406 -0.5840 -1.4303
   10MOL0     H 1294   4.502   1.526   7.585 -1.0963 -0.0965 -0.3679
   10MOL0     H 1295   4.620   1.575   7.376  2.1636 -4.2031 -2.7569
   10MOL0     H 1296   4.502   1.484   7.283  0.2645  0.0056 -0.0976
   10MOL0     H 1297   4.427   1.704   7.481 -0.3093 -2.7400  1.4158
   10MOL0     H 1298   4.321   1.625   7.359  1.4433 -2.8248 -1.4406
   10MOL0     H 1299   4.479   1.752   7.174  0.4085  1.0397  0.4804
   10MOL0     H 1300   4.346   1.831   7.264 -0.0740  0.3899  1.5194
   10MOL0     H 1301   4.699   1.821   7.154 -1.6590  2.0215 -1.4182
   10MOL0     H 1302   4.927   2.067   7.357  1.1961 -3.6625  1.8491
   10MOL0     H 1303   4.937   1.957   7.212 -1.2572 -0.8089 -1.2527
   10MOL0     H 1304   4.839   2.100   7.074 -1.9522 -0.0548  0.2954
   10MOL0     H 1305   4.783   2.210   7.189  0.5430  1.2941 -0.2873
   10MOL0     H 1306   5.028   2.252   7.273  1.2139 -1.1274 -0.5165
   10MOL0     H 1307   4.968   2.328   7.125  2.3822  2.4999  3.6299
   10MOL0     H 1308   5.196   2.254   7.110  0.1966 -1.3178  1.4688
   10MOL0     H 1309   5.101   2.148   7.006 -1.4440  1.4295 -0.1949
   10MOL0     H 1310   5.146   1.851   7.322 -0.5404 -0.3710  0.1952
   10MOL0     H 1311   5.209   1.846   7.568  1.0977  0.4855  0.8879
   10MOL0     H 1312   5.339   2.056   8.009  0.8122  0.8760  1.2658
   10MOL0     H 1313   5.412   1.989   8.214  0.0452 -0.1161 -0.1435
   10MOL0     H 1314   5.626   1.845   8.377  0.8558 -0.8351  1.3603
   10MOL0     H 1315   5.463   1.905   8.395  0.7729 -0.0360 -0.6620
   10MOL0     H 1316   5.534   1.805   8.594 -2.6040  2.7764 -1.4031
   10MOL0     H 1317   5.391   1.735   8.543 -0.0383  0.7668  3.1109
   10MOL0     H 1318   5.538   1.561   8.642 -2.6108  0.2863 -1.1166
   10MOL0     H 1319   5.515   1.532   8.460 -0.7009 -1.5256  1.6128
   10MOL0     H 1320   5.725   1.688   8.594 -3.9449  2.5095 -0.7330
   10MOL0     H 1321   5.741   1.628   8.428 -1.4017 -2.1516 -0.6818
   10MOL0     H 1322   5.791   1.406   8.481 -2.9884  2.3874 -2.1365
   10MOL0     H 1323   5.753   1.415   8.652 -2.0328  0.5116 -0.6757
   10MOL0     H 1324   5.992   1.404   8.604 -0.6737 -0.7027 -3.6687
   10MOL0     H 1325   5.977   1.555   8.510 -1.8018 -1.0398 -2.5457
   10MOL0     H 1326   5.952   1.682   8.695 -5.2457  0.3320  3.4635
   10MOL0     H 1327   6.080   1.573   8.738 -0.3848 -3.4086  2.9924
   10MOL0     H 1328   5.796   1.569   8.855  0.1727 -1.8790  3.1323
   10MOL0     H 1329   5.885   1.433   8.845 -2.8418  0.1992 -4.3730
   10MOL0     H 1330   5.501   1.591   8.064 -1.0476 -0.9680 -1.6894
   10MOL0     H 1331   5.446   1.680   7.825  0.9395  2.2159 -2.9919
   10MOL0     H 1332   5.372   2.241   7.538  1.1833 -0.1498  1.5782
   10MOL0     H 1333   5.293   2.247   7.303  0.9016  1.3333  1.7933
   10MOL0     H 1334   4.764   0.822   7.160 -0.2568  1.3632  1.1738
   10MOL0     H 1335   4.681   0.667   6.980  0.9210 -1.3447  1.9433
   10MOL0     H 1336   4.171   0.587   6.669  0.8788  1.3230 -1.3729
   10MOL0     H 1337   4.172   0.443   6.482 -0.1545 -0.2563  0.0317
   10MOL0     H 1338   4.309   0.052   6.535 -0.6569 -0.5397 -0.6695
   10MOL0     H 1339   4.450   0.113   6.440  0.5414 -0.0351  2.7047
   10MOL0     H 1340   4.283   0.088   6.234 -0.1442 -0.4598 -0.1927
   10MOL0     H 1341   4.195  -0.021   6.340  0.5736 -1.9330  1.1903
   10MOL0     H 1342   4.430  -0.131   6.392  1.9431  0.8584 -0.6326
   10MOL0     H 1343   4.486  -0.055   6.246  0.5344 -0.1530  0.8585
   10MOL0     H 1344   4.417  -0.283   6.218  0.8439  0.2983  0.0453
   10MOL0     H 1345   4.250  -0.249   6.264  1.8063  1.9270  3.2333
   10MOL0     H 1346   4.226  -0.155   5.872 -2.0719  0.0336  0.1543
   10MOL0     H 1347   4.446   0.177   6.649 -0.6593  0.3343 -2.9269
   10MOL0     H 1348   4.511   0.191   6.879 -1.6565 -1.0423 -0.0566
   10MOL0     H 1349   4.585   0.354   6.888 -0.3356  0.8468 -0.0432
   10MOL0     H 1350   4.450   0.319   6.988  0.3148  1.8811 -0.7390
   11MOL0     O 1351   1.336   5.627   2.526 -0.6309 -1.4462  1.0526
   11MOL0     C 1352   1.427   5.658   2.605  0.3427 -0.1224 -0.1475
   11MOL0     O 1353   1.417   5.764   2.695  0.3603  0.1603  1.0517
   11MOL0     C 1354   1.343   5.873   2.661 -0.2427 -1.2626 -0.1480
   11MOL0     C 1355   1.369   5.955   2.548 -0.1655  0.0718  0.7589
   11MOL0     C 1356   1.309   6.078   2.520 -0.3503  0.2368 -0.2391
   11MOL0     C 1357   1.208   6.121   2.606  0.5154 -0.3136  0.0968
   11MOL0     O 1358   1.153   6.252   2.593  0.0950 -0.4532  0.2060
   11MOL0     C 1359   1.016   6.271   2.617  0.0528 -0.1015 -0.5826
   11MOL0     C 1360   0.950   6.397   2.563 -1.7466  0.1685 -0.2527
   11MOL0     C 1361   0.817   6.398   2.639 -0.0508 -0.3990  0.1081
   11MOL0     C 1362   0.719   6.489   2.568 -0.4969  0.1693  0.5267
   11MOL0     C 1363   0.574   6.458   2.610  0.2974 -0.0791 -0.2508
   11MOL0     C 1364   0.484   6.573   2.560  0.6665 -0.3085  0.1107
   11MOL0     C 1365   0.345   6.569   2.615  0.1989 -0.0828  0.9097
   11MOL0     C 1366   0.277   6.710   2.576  0.4425  0.5702  0.3725
   11MOL0     N 1367   0.153   6.734   2.655  0.3648 -0.2099 -0.5093
   11MOL0     C 1368   0.021   6.700   2.605 -0.2816  0.1441  0.1440
   11MOL0     C 1369  -0.062   6.721   2.715 -0.7031  0.3953  0.6901
   11MOL0     C 1370  -0.202   6.685   2.711  0.1241 -0.3247 -0.2378
   11MOL0     C 1371  -0.276   6.737   2.828 -0.0771 -0.6007  0.2971
   11MOL0     C 1372  -0.421   6.700   2.830 -0.2703  0.2518  0.5976
   11MOL0     C 1373  -0.524   6.781   2.922  0.0123 -0.3098 -0.0563
   11MOL0     O 1374  -0.584   6.870   2.830 -0.8353 -0.8030 -0.4815
   11MOL0     C 1375  -0.681   6.812   2.751 -0.3016  0.5409  1.2064
   11MOL0     C 1376  -0.749   6.891   2.666 -0.7439 -0.0247  0.5287
   11MOL0     C 1377  -0.864   6.854   2.611 -0.2636 -0.2004 -0.0258
   11MOL0     C 1378  -0.900   6.716   2.603 -0.3058 -0.0431 -0.4000
   11MOL0     C 1379  -1.020   6.659   2.539 -0.8900 -0.3423 -0.5134
   11MOL0     O 1380  -1.101   6.751   2.484 -0.2643 -0.5730 -0.1014
   11MOL0     C 1381  -1.234   6.737   2.432 -0.7991  0.3480 -0.2623
   11MOL0     C 1382  -1.329   6.847   2.440 -0.4856  0.2670  0.1979
   11MOL0     C 1383  -1.456   6.833   2.387 -0.5098  0.6725 -0.1437
   11MOL0     C 1384  -1.504   6.710   2.345 -0.0450  0.1543 -0.8271
   11MOL0     O 1385  -1.635   6.702   2.315 -0.3031  0.0924 -0.3643
   11MOL0     C 1386  -1.660   6.688   2.174 -0.0338  0.1679 -0.0277
   11MOL0     C 1387  -1.804   6.659   2.159  0.2420  0.0592  0.2627
   11MOL0     C 1388  -1.819   6.513   2.111  0.4109 -0.4639 -0.2923
   11MOL0     C 1389  -1.781   6.414   2.231  0.0871  0.4969  0.7641
   11MOL0     C 1390  -1.766   6.266   2.190  0.2816  0.3039 -0.1288
   11MOL0     C 1391  -1.742   6.173   2.314  0.1786  0.3023  0.1623
   11MOL0     C 1392  -1.651   6.232   2.415 -0.4067  0.0972  0.4388
   11MOL0     C 1393  -1.598   6.124   2.499 -0.0480  0.3928 -0.3231
   11MOL0    Cl 1394  -1.699   6.055   2.623 -0.1076  0.2684 -0.6539
   11MOL0     C 1395  -1.419   6.600   2.344 -0.3361 -0.6172  0.7185
   11MOL0     C 1396  -1.282   6.613   2.387 -0.9554 -0.2079 -1.1366
   11MOL0     O 1397  -1.034   6.547   2.527  0.5551  1.1745  0.5656
   11MOL0     C 1398  -0.816   6.622   2.672  1.1293  0.6441 -0.3922
   11MOL0     C 1399  -0.718   6.669   2.749  0.7969  0.2042 -0.0238
   11MOL0     N 1400   0.021   6.758   2.818 -0.7045 -0.8724  0.7970
   11MOL0     N 1401   0.150   6.777   2.784 -0.2568 -0.3370 -0.4004
   11MOL0     C 1402   1.175   6.037   2.716  0.2812  0.9468  0.7136
   11MOL0     C 1403   1.243   5.919   2.739  0.3752 -1.3747 -1.0880
   11MOL0     C 1404   1.548   5.589   2.589 -0.8329 -1.2744 -0.4749
   11MOL0     C 1405   1.538   5.455   2.586 -0.3793 -0.4019  0.5671
   11MOL0     C 1406   1.650   5.370   2.592 -0.3668  0.2157 -0.6829
   11MOL0     C 1407   1.780   5.418   2.595 -0.5519  0.4174 -0.5986
   11MOL0     O 1408   1.900   5.342   2.599  0.8084  0.8898 -0.3990
   11MOL0     C 1409   1.881   5.199   2.587 -0.5450  0.6354  0.0758
   11MOL0     C 1410   1.864   5.149   2.444  0.2661 -0.0940  0.9725
   11MOL0     C 1411   1.853   4.993   2.441  0.3324 -0.7681 -0.5849
   11MOL0     C 1412   1.740   4.939   2.500 -0.2168  0.8197  0.5449
   11MOL0     C 1413   1.607   4.973   2.441  0.0154  0.2762  0.7360
   11MOL0     C 1414   1.498   5.009   2.397 -0.4244  0.0574  1.1731
   11MOL0     C 1415   1.790   5.556   2.602 -0.4340 -0.6841 -0.4753
   11MOL0     C 1416   1.679   5.648   2.595  0.3099  0.4917 -0.4000
   11MOL0     C 1417   1.720   5.800   2.612  0.6715  0.3509  0.0655
   11MOL0     H 1418   1.451   5.925   2.483 -0.5062  0.1319  0.2990
   11MOL0     H 1419   1.342   6.144   2.440 -2.0417  1.2203 -0.1914
   11MOL0     H 1420   0.973   6.178   2.576  2.0700 -0.4957 -1.9985
   11MOL0     H 1421   1.002   6.272   2.725 -0.5991  1.1471 -0.6636
   11MOL0     H 1422   0.950   6.404   2.454  0.7470 -2.7271 -0.5661
   11MOL0     H 1423   1.011   6.482   2.594 -1.0685  0.4088 -2.1395
   11MOL0     H 1424   0.839   6.437   2.738  5.1618  0.9553 -1.2819
   11MOL0     H 1425   0.769   6.300   2.646 -3.6588  1.2850  1.8168
   11MOL0     H 1426   0.735   6.592   2.599 -2.2130  0.3394  0.9572
   11MOL0     H 1427   0.722   6.473   2.460 -0.6739  3.5574 -0.0891
   11MOL0     H 1428   0.531   6.371   2.560 -1.3152  0.4170  0.1852
   11MOL0     H 1429   0.566   6.437   2.717 -1.7756  0.9674 -0.1466
   11MOL0     H 1430   0.534   6.664   2.596  1.8410 -0.5610 -0.8241
   11MOL0     H 1431   0.485   6.571   2.451 -1.9640 -1.4753  0.0192
   11MOL0     H 1432   0.348   6.557   2.723  1.6474  2.2849  1.1853
   11MOL0     H 1433   0.293   6.477   2.585 -0.0614 -0.9354  3.7443
   11MOL0     H 1434   0.336   6.800   2.595 -0.6215  0.7697  3.1656
   11MOL0     H 1435   0.249   6.701   2.470  0.8873 -1.7427  0.3980
   11MOL0     H 1436   0.005   6.667   2.503 -4.0870  0.2234  0.5751
   11MOL0     H 1437  -0.239   6.732   2.619 -1.0910  2.6032  1.6412
   11MOL0     H 1438  -0.207   6.575   2.715  1.7102 -0.3979  0.3389
   11MOL0     H 1439  -0.240   6.687   2.918 -0.3425 -0.0107  0.7359
   11MOL0     H 1440  -0.264   6.845   2.840  2.1448 -0.8802  1.0722
   11MOL0     H 1441  -0.442   6.597   2.860 -2.3097 -0.2825 -2.1848
   11MOL0     H 1442  -0.455   6.706   2.726 -3.5294 -1.4355  1.4004
   11MOL0     H 1443  -0.478   6.836   3.005 -5.1992  2.7934  1.2582
   11MOL0     H 1444  -0.602   6.720   2.968 -2.4237  1.4057 -1.7130
   11MOL0     H 1445  -0.724   6.996   2.662  0.7370 -0.3276 -4.2597
   11MOL0     H 1446  -0.928   6.925   2.558 -2.3447 -0.7679  1.5899
   11MOL0     H 1447  -1.298   6.944   2.477 -0.5134  0.4349 -0.2102
   11MOL0     H 1448  -1.525   6.917   2.382 -0.3268  0.7608 -2.5205
   11MOL0     H 1449  -1.629   6.782   2.128  0.2861 -0.5333 -1.2690
   11MOL0     H 1450  -1.604   6.604   2.132  0.7009 -0.0332  1.2730
   11MOL0     H 1451  -1.859   6.680   2.251 -2.0814 -1.8895 -0.5848
   11MOL0     H 1452  -1.851   6.722   2.084  1.9163  1.2609  0.1692
   11MOL0     H 1453  -1.925   6.506   2.086 -0.0812 -0.3324  1.6348
   11MOL0     H 1454  -1.764   6.505   2.017  1.4594 -1.9935  0.4126
   11MOL0     H 1455  -1.863   6.415   2.304 -2.2980 -2.6661 -1.5400
   11MOL0     H 1456  -1.701   6.465   2.285 -1.9437  2.8973  1.7077
   11MOL0     H 1457  -1.681   6.250   2.123 -0.2758  0.0706 -0.7873
   11MOL0     H 1458  -1.861   6.238   2.143 -0.2919  2.5571 -0.4408
   11MOL0     H 1459  -1.834   6.144   2.366 -0.4919  0.3211 -0.9880
   11MOL0     H 1460  -1.697   6.081   2.275  1.5239  0.5511  1.0365
   11MOL0     H 1461  -1.710   6.295   2.482  1.4928 -1.8055  4.2453
   11MOL0     H 1462  -1.571   6.293   2.372  1.0263 -2.0499 -0.1038
   11MOL0     H 1463  -1.557   6.048   2.432  1.7216 -0.0610  1.1862
   11MOL0     H 1464  -1.521   6.164   2.566  0.0777  1.1646 -0.9077
   11MOL0     H 1465  -1.474   6.508   2.327  2.6087 -2.6595  1.4326
   11MOL0     H 1466  -1.224   6.522   2.380 -0.3729  0.0417  0.0970
   11MOL0     H 1467  -0.838   6.515   2.671 -0.5771  0.9675 -0.8365
   11MOL0     H 1468  -0.669   6.607   2.823  0.5917  1.0636  0.8610
   11MOL0     H 1469   1.098   6.057   2.789  1.4863  0.5920  2.1278
   11MOL0     H 1470   1.205   5.866   2.826 -0.1953  0.2175 -0.3424
   11MOL0     H 1471   1.439   5.419   2.561  0.1737  0.1095 -2.7622
   11MOL0     H 1472   1.625   5.264   2.599 -1.8851  0.5307 -1.1011
   11MOL0     H 1473   1.805   5.177   2.662  0.5259  0.9813  1.3163
   11MOL0     H 1474   1.969   5.146   2.626 -0.2105 -1.5959 -3.3340
   11MOL0     H 1475   1.940   5.186   2.375 -1.6354  4.0562  0.7848
   11MOL0     H 1476   1.779   5.199   2.396 -0.5608 -0.8913  1.5577
   11MOL0     H 1477   1.941   4.953   2.492  0.1134 -0.9864 -0.3802
   11MOL0     H 1478   1.854   4.974   2.333 -0.4848  0.1883 -0.7784
   11MOL0     H 1479   1.750   4.832   2.480 -5.1499  0.2741 -0.2900
   11MOL0     H 1480   1.730   4.954   2.608 -1.3759  0.2791  0.5318
   11MOL0     H 1481   1.420   5.038   2.330  0.1653 -5.4427 -2.5420
   11MOL0     H 1482   1.892   5.591   2.604 -0.1021 -1.4941 -1.7569
   11MOL0     H 1483   1.723   5.811   2.721 -2.8537  0.5255  0.2506
   11MOL0     H 1484   1.812   5.836   2.566 -1.0020  1.1689 -2.8715
   11MOL0     H 1485   1.639   5.861   2.572 -0.8117 -0.5158  1.5882
   12MOL0     O 1486   1.314   7.697   5.869 -0.2459 -0.1524  0.3460
   12MOL0     C 1487   1.391   7.615   5.922 -0.5234  0.9647 -0.3136
   12MOL0     O 1488   1.421   7.486   5.867  0.2620  0.9402 -0.1138
   12MOL0     C 1489   1.355   7.452   5.752  0.0989 -0.6456 -0.1994
   12MOL0     C 1490   1.220   7.423   5.756 -0.6760 -0.3020  0.0397
   12MOL0     C 1491   1.154   7.380   5.643  0.5829 -0.0166  0.1166
   12MOL0     C 1492   1.232   7.344   5.536  0.6217  0.2600  0.1810
   12MOL0     O 1493   1.174   7.286   5.422  0.0536  0.1157 -0.6671
   12MOL0     C 1494   1.154   7.372   5.318  0.2276  0.6407 -0.7989
   12MOL0     C 1495   1.105   7.286   5.199  0.2445 -0.9410 -0.9972
   12MOL0     C 1496   0.955   7.294   5.178  0.2322 -0.3572 -0.5346
   12MOL0     C 1497   0.862   7.188   5.244  0.7059  0.4727  0.4524
   12MOL0     C 1498   0.709   7.200   5.227  0.1307 -0.0366 -0.0915
   12MOL0     C 1499   0.650   7.334   5.155 -0.3347  0.1844  0.1919
   12MOL0     C 1500   0.501   7.303   5.126 -0.0832  0.2018  0.0047
   12MOL0     C 1501   0.413   7.340   5.248  0.1414  0.5179 -1.4602
   12MOL0     N 1502   0.285   7.282   5.230 -0.7157  0.1227  0.5253
   12MOL0     C 1503   0.253   7.146   5.231 -0.6301 -0.4353  0.7287
   12MOL0     C 1504   0.126   7.140   5.196 -1.2629 -0.2425  0.5718
   12MOL0     C 1505   0.038   7.011   5.184 -0.0714 -0.7116  0.5352
   12MOL0     C 1506   0.011   6.927   5.309 -0.0282 -0.1540  0.3447
   12MOL0     C 1507  -0.046   7.026   5.411 -0.2285  0.7339  0.0680
   12MOL0     C 1508  -0.116   6.945   5.517  0.1135  0.5262  0.7162
   12MOL0     O 1509  -0.022   6.858   5.578  0.3524  0.1085  0.0804
   12MOL0     C 1510  -0.059   6.744   5.643 -0.0172 -0.4405 -0.5596
   12MOL0     C 1511   0.027   6.629   5.636  0.2005  0.0179 -0.1330
   12MOL0     C 1512  -0.006   6.514   5.716 -0.0642 -1.0001  0.5920
   12MOL0     C 1513  -0.113   6.520   5.808  0.0127 -0.1820  0.0051
   12MOL0     C 1514  -0.128   6.407   5.908  0.3565  0.1238 -0.0976
   12MOL0     O 1515  -0.210   6.436   6.013 -0.1991 -0.3669 -0.4065
   12MOL0     C 1516  -0.258   6.332   6.091  0.3544  0.2371  0.1020
   12MOL0     C 1517  -0.238   6.330   6.228 -0.4474 -0.2309 -0.4601
   12MOL0     C 1518  -0.293   6.232   6.307 -0.8629 -0.0053 -0.3604
   12MOL0     C 1519  -0.378   6.136   6.251 -0.3697  0.3953  0.3849
   12MOL0     O 1520  -0.450   6.051   6.322  0.3134 -0.1556 -0.4723
   12MOL0     C 1521  -0.472   6.073   6.468  0.0917  0.9180  0.9027
   12MOL0     C 1522  -0.546   6.204   6.506  0.1516  0.3380  0.3526
   12MOL0     C 1523  -0.701   6.191   6.499 -0.6833  0.5861  0.2857
   12MOL0     C 1524  -0.753   6.205   6.355  0.3853 -0.5775  0.5977
   12MOL0     C 1525  -0.901   6.235   6.342 -0.4707 -0.1708  0.7098
   12MOL0     C 1526  -0.998   6.117   6.370  0.0705  0.1896  0.5530
   12MOL0     C 1527  -1.119   6.165   6.457  0.1469 -0.2268 -0.8605
   12MOL0     C 1528  -1.230   6.052   6.488  0.3712 -0.1513 -0.1505
   12MOL0    Cl 1529  -1.344   6.108   6.613  0.2613  0.2153  0.4326
   12MOL0     C 1530  -0.398   6.136   6.116 -1.0334 -0.5438  0.3061
   12MOL0     C 1531  -0.325   6.222   6.034 -0.2772  0.1112 -0.3535
   12MOL0     O 1532  -0.085   6.302   5.873 -0.3446  0.9973 -0.8895
   12MOL0     C 1533  -0.198   6.628   5.797 -0.0231  0.5482  0.5914
   12MOL0     C 1534  -0.172   6.742   5.722 -0.6851 -0.0605  0.5595
   12MOL0     N 1535   0.081   7.269   5.158 -0.1675  0.6017  0.3064
   12MOL0     N 1536   0.180   7.348   5.182  0.5192 -0.4702  0.6310
   12MOL0     C 1537   1.359   7.394   5.514  0.5725 -0.0876 -1.9436
   12MOL0     C 1538   1.422   7.437   5.635 -0.9894 -0.0485  0.3772
   12MOL0     C 1539   1.464   7.651   6.043 -0.1566 -0.2306 -0.2835
   12MOL0     C 1540   1.530   7.546   6.113  1.1813 -0.2798 -0.0028
   12MOL0     C 1541   1.593   7.575   6.236  0.1547  0.3623 -0.0720
   12MOL0     C 1542   1.582   7.700   6.299 -0.5294  0.8896 -0.5294
   12MOL0     O 1543   1.619   7.704   6.425 -0.2192  0.6017  0.7575
   12MOL0     C 1544   1.566   7.796   6.524  0.5132  0.1589  0.5028
   12MOL0     C 1545   1.610   7.760   6.663 -0.4777  0.0370 -0.4704
   12MOL0     C 1546   1.742   7.814   6.697  0.4428 -0.2440 -0.7278
   12MOL0     C 1547   1.785   7.747   6.827 -0.1404  0.5810  0.4531
   12MOL0     C 1548   1.930   7.775   6.862 -0.2083 -0.5007  0.0604
   12MOL0     C 1549   2.045   7.804   6.885 -0.9261  0.3981  0.1553
   12MOL0     C 1550   1.514   7.798   6.232 -0.0276 -0.3467  0.5004
   12MOL0     C 1551   1.465   7.787   6.101  0.4379 -0.6563  0.1291
   12MOL0     C 1552   1.399   7.899   6.030 -0.0113  0.2392 -0.0289
   12MOL0     H 1553   1.164   7.426   5.849  0.7611  1.6347  0.9056
   12MOL0     H 1554   1.047   7.366   5.637  0.4450  1.1117 -0.2800
   12MOL0     H 1555   1.075   7.434   5.360 -2.6570 -3.5593  0.6040
   12MOL0     H 1556   1.245   7.423   5.285  1.9493 -1.3944  0.4930
   12MOL0     H 1557   1.117   7.178   5.213 -0.6914 -0.8461  0.7868
   12MOL0     H 1558   1.152   7.322   5.107 -0.6427  4.0831  0.2471
   12MOL0     H 1559   0.927   7.291   5.073 -0.0735 -1.0942 -0.4377
   12MOL0     H 1560   0.917   7.386   5.225 -0.1604 -3.3676  6.3285
   12MOL0     H 1561   0.895   7.086   5.219 -2.1819 -0.2743 -0.7228
   12MOL0     H 1562   0.870   7.178   5.353 -4.0368 -2.7223  0.8009
   12MOL0     H 1563   0.693   7.117   5.157 -1.3605 -2.2842  2.6954
   12MOL0     H 1564   0.664   7.178   5.324  1.1308  4.0738  1.5067
   12MOL0     H 1565   0.667   7.424   5.215 -0.4539  1.3590 -1.4798
   12MOL0     H 1566   0.704   7.344   5.061  1.8229  1.7995  1.5176
   12MOL0     H 1567   0.497   7.199   5.091 -0.4253  0.8846 -2.1416
   12MOL0     H 1568   0.478   7.363   5.038 -1.0254  1.1869  0.8972
   12MOL0     H 1569   0.448   7.302   5.345 -0.0446 -0.3539 -1.7245
   12MOL0     H 1570   0.402   7.448   5.247  1.3064  0.8544  2.5697
   12MOL0     H 1571   0.320   7.066   5.259  0.2248 -0.1008 -0.3127
   12MOL0     H 1572  -0.062   7.039   5.148  0.1662  2.0442  1.7501
   12MOL0     H 1573   0.095   6.952   5.112  1.2552 -3.2721  3.4769
   12MOL0     H 1574  -0.057   6.846   5.283 -0.1508  0.8861 -3.0440
   12MOL0     H 1575   0.093   6.865   5.347 -0.2271 -1.6629 -1.5428
   12MOL0     H 1576  -0.127   7.085   5.367  0.0270  0.1416 -1.2613
   12MOL0     H 1577   0.031   7.084   5.463 -0.9559  0.7114  1.2108
   12MOL0     H 1578  -0.199   6.892   5.470  0.3275 -0.7938  1.7537
   12MOL0     H 1579  -0.153   7.013   5.594 -1.8368 -0.9669  1.1754
   12MOL0     H 1580   0.109   6.644   5.566 -1.3790  1.5611 -1.7477
   12MOL0     H 1581   0.060   6.428   5.709 -0.8956 -1.7174  1.3338
   12MOL0     H 1582  -0.190   6.411   6.281 -2.6866 -1.0108  3.1248
   12MOL0     H 1583  -0.280   6.255   6.412 -1.3651 -0.5651 -0.1776
   12MOL0     H 1584  -0.523   5.983   6.502  0.2697  0.5483  0.2155
   12MOL0     H 1585  -0.373   6.071   6.514  0.0655 -2.2284  1.0361
   12MOL0     H 1586  -0.515   6.233   6.607 -3.1937  1.8640  1.0940
   12MOL0     H 1587  -0.516   6.292   6.448  0.0886  1.1729  1.5387
   12MOL0     H 1588  -0.732   6.090   6.526 -0.7906 -0.1020 -2.1683
   12MOL0     H 1589  -0.749   6.267   6.561 -2.6397  1.8626 -2.5905
   12MOL0     H 1590  -0.728   6.115   6.298 -2.3287 -0.7941 -0.4193
   12MOL0     H 1591  -0.695   6.284   6.308  0.5947 -1.4992 -0.7548
   12MOL0     H 1592  -0.912   6.273   6.240  0.1571  1.4768  1.2223
   12MOL0     H 1593  -0.917   6.319   6.409 -1.4116  0.7383 -0.6098
   12MOL0     H 1594  -1.039   6.074   6.278 -1.4601 -2.5926  2.3952
   12MOL0     H 1595  -0.951   6.031   6.420  0.9281 -1.4922 -2.8412
   12MOL0     H 1596  -1.176   6.251   6.420  1.4789  0.7152 -0.8296
   12MOL0     H 1597  -1.076   6.191   6.555  1.4398 -0.5947 -1.3072
   12MOL0     H 1598  -1.287   6.016   6.402  1.3133 -1.6323 -0.2007
   12MOL0     H 1599  -1.192   5.956   6.523 -1.5153 -1.1679 -0.7420
   12MOL0     H 1600  -0.451   6.052   6.071 -1.1738  0.0230 -0.6075
   12MOL0     H 1601  -0.313   6.211   5.927  0.3603  0.0882 -0.2834
   12MOL0     H 1602  -0.298   6.642   5.838  0.3850  4.6323  0.6277
   12MOL0     H 1603  -0.230   6.834   5.728  0.2001  0.6124 -0.7199
   12MOL0     H 1604   1.423   7.377   5.429  0.8936  0.2835 -1.7790
   12MOL0     H 1605   1.529   7.456   5.635 -1.2984  1.8860 -0.5417
   12MOL0     H 1606   1.563   7.449   6.077 -0.4482 -0.2002 -1.8556
   12MOL0     H 1607   1.623   7.482   6.284 -1.7856  0.3108  1.1329
   12MOL0     H 1608   1.457   7.804   6.513  0.6456  0.6628 -0.6161
   12MOL0     H 1609   1.595   7.899   6.501 -1.2228 -0.0069 -3.1928
   12MOL0     H 1610   1.613   7.650   6.657  4.8477  0.0050 -1.8384
   12MOL0     H 1611   1.540   7.794   6.741  1.9952  0.0569  1.8790
   12MOL0     H 1612   1.735   7.922   6.711 -1.5995 -0.5890  1.5798
   12MOL0     H 1613   1.806   7.779   6.615  2.6286 -0.4266  0.9709
   12MOL0     H 1614   1.720   7.781   6.908 -1.8755 -1.6577  0.0722
   12MOL0     H 1615   1.772   7.639   6.817  0.9648  0.6320 -2.9321
   12MOL0     H 1616   2.146   7.813   6.919 -1.6003 -4.8949  5.2969
   12MOL0     H 1617   1.516   7.899   6.273 -0.4404 -0.3871  0.6216
   12MOL0     H 1618   1.409   7.989   6.092 -2.2496  2.2065 -2.3343
   12MOL0     H 1619   1.455   7.905   5.936 -0.1400  2.2832 -0.0284
   12MOL0     H 1620   1.294   7.873   6.018  0.4570 -2.0690  0.3663
   13MOL0     O 1621   8.001   9.237   1.721 -0.0424  0.5090 -0.1775
   13MOL0     C 1622   8.058   9.340   1.751  0.0725 -0.2162  0.2097
   13MOL0     O 1623   7.989   9.450   1.787  0.1494 -0.5334 -0.1328
   13MOL0     C 1624   7.852   9.464   1.782  0.2303  0.2932 -0.0679
   13MOL0     C 1625   7.801   9.560   1.865  0.4038 -0.5708 -0.0191
   13MOL0     C 1626   7.661   9.595   1.864  0.3157  0.2083 -0.0679
   13MOL0     C 1627   7.572   9.513   1.786  0.4155 -0.2564  0.9173
   13MOL0     O 1628   7.436   9.532   1.802  0.3177 -0.4713  0.0112
   13MOL0     C 1629   7.386   9.632   1.707  0.7755  0.5600  0.0223
   13MOL0     C 1630   7.268   9.704   1.763  0.7623  0.0458  0.2332
   13MOL0     C 1631   7.304   9.805   1.873 -0.4921 -0.9391 -0.5002
   13MOL0     C 1632   7.190   9.878   1.936  0.4572  0.9195  1.1645
   13MOL0     C 1633   7.233   9.967   2.049 -0.9451 -0.0589 -0.4364
   13MOL0     C 1634   7.120  10.036   2.120  0.1638  0.6750 -0.2306
   13MOL0     C 1635   6.995   9.951   2.164 -0.1686 -0.5725  0.3769
   13MOL0     C 1636   6.874  10.048   2.182  0.1881  1.3200 -0.8207
   13MOL0     N 1637   6.887  10.131   2.302 -0.1278 -0.2099  0.0744
   13MOL0     C 1638   6.935  10.260   2.298  0.8138 -0.1270 -0.1940
   13MOL0     C 1639   6.940  10.299   2.429 -0.1855 -0.3598  0.0333
   13MOL0     C 1640   6.979  10.440   2.461 -0.8144 -0.4865  0.1839
   13MOL0     C 1641   7.109  10.447   2.540 -0.5883 -1.0003  0.0314
   13MOL0     C 1642   7.215  10.425   2.435  0.4131  0.5283  0.2359
   13MOL0     C 1643   7.342  10.377   2.514  0.1204  0.5941  0.1047
   13MOL0     O 1644   7.432  10.488   2.502 -0.6678  0.6373 -0.2592
   13MOL0     C 1645   7.568  10.472   2.529 -0.8090 -0.9565 -0.1154
   13MOL0     C 1646   7.624  10.362   2.598  0.2344 -0.1989  0.0473
   13MOL0     C 1647   7.756  10.344   2.613 -0.0912  0.3978  0.7963
   13MOL0     C 1648   7.839  10.456   2.580  0.0423  0.0315 -0.2244
   13MOL0     C 1649   7.983  10.442   2.624  0.2604  0.0825 -0.7577
   13MOL0     O 1650   8.058  10.561   2.607  0.8554  0.4887  0.6479
   13MOL0     C 1651   8.194  10.545   2.611  0.1177  0.6718  0.5899
   13MOL0     C 1652   8.266  10.536   2.725  0.3439 -0.2823 -1.3271
   13MOL0     C 1653   8.404  10.539   2.718  0.4342  0.0492 -0.3020
   13MOL0     C 1654   8.474  10.534   2.602  0.7134  0.6561  0.8768
   13MOL0     O 1655   8.616  10.521   2.596 -0.2140  0.5217 -0.0598
   13MOL0     C 1656   8.688  10.476   2.709  0.2902  0.0531 -1.2431
   13MOL0     C 1657   8.825  10.418   2.688  0.3236  0.0980 -0.0429
   13MOL0     C 1658   8.917  10.543   2.693 -0.2504  0.3107 -0.1554
   13MOL0     C 1659   9.066  10.505   2.655 -0.1827  0.3376 -1.2027
   13MOL0     C 1660   9.125  10.418   2.768  0.0687  0.1859  0.7609
   13MOL0     C 1661   9.263  10.370   2.727  0.2434 -0.4205 -0.5223
   13MOL0     C 1662   9.322  10.280   2.841 -0.5556 -0.0412  0.7405
   13MOL0     C 1663   9.378  10.341   2.971 -1.0011  0.4285  0.1463
   13MOL0    Cl 1664   9.389  10.236   3.123  0.5656  0.3418 -0.1981
   13MOL0     C 1665   8.397  10.536   2.483 -0.5259  0.2706  0.1235
   13MOL0     C 1666   8.256  10.540   2.489 -0.8720 -0.0184  0.8926
   13MOL0     O 1667   8.029  10.331   2.662  0.2173  0.3144  0.1207
   13MOL0     C 1668   7.792  10.571   2.511 -1.5167 -0.1625  0.1670
   13MOL0     C 1669   7.658  10.583   2.495  0.9348 -1.0586 -0.3792
   13MOL0     N 1670   6.892  10.194   2.507 -0.1179 -0.1245  0.5715
   13MOL0     N 1671   6.835  10.109   2.421  0.3585  0.2396 -0.0939
   13MOL0     C 1672   7.618   9.411   1.702  0.4663 -0.5209  0.1626
   13MOL0     C 1673   7.759   9.389   1.697  0.7854 -0.3742  0.4065
   13MOL0     C 1674   8.202   9.351   1.743 -0.4869  0.3994 -0.3713
   13MOL0     C 1675   8.275   9.247   1.791 -0.3059  0.6384 -0.2790
   13MOL0     C 1676   8.415   9.257   1.791 -0.2052 -0.1222 -0.5600
   13MOL0     C 1677   8.478   9.364   1.743 -0.6063  0.1147  0.2290
   13MOL0     O 1678   8.621   9.377   1.752  0.1496  0.1352 -1.0261
   13MOL0     C 1679   8.706   9.263   1.743  0.6171 -0.6270 -0.0720
   13MOL0     C 1680   8.698   9.187   1.613 -0.0038  0.1455 -0.1541
   13MOL0     C 1681   8.822   9.097   1.591 -0.1812  0.4139  0.9003
   13MOL0     C 1682   8.956   9.168   1.567 -0.6096  0.3119 -0.1497
   13MOL0     C 1683   9.055   9.066   1.522  0.5286  1.1262  0.0931
   13MOL0     C 1684   9.141   8.995   1.477 -0.4893 -0.4302 -0.0245
   13MOL0     C 1685   8.408   9.466   1.688  0.2960  0.6577  0.0165
   13MOL0     C 1686   8.270   9.465   1.689 -0.5075  0.2280  0.3752
   13MOL0     C 1687   8.194   9.590   1.634  0.2531  0.4003 -0.3549
   13MOL0     H 1688   7.877   9.606   1.927 -1.2854 -0.7297  2.3269
   13MOL0     H 1689   7.612   9.682   1.907 -0.9341 -0.7856  0.6039
   13MOL0     H 1690   7.458   9.705   1.670 -1.4386  1.9224 -1.9120
   13MOL0     H 1691   7.351   9.575   1.620 -0.8645 -1.5922  1.9423
   13MOL0     H 1692   7.204   9.626   1.805  1.4991  0.1505  1.5914
   13MOL0     H 1693   7.216   9.750   1.679  5.2641  2.4971 -1.5564
   13MOL0     H 1694   7.382   9.872   1.835  0.7994 -2.3526 -0.4522
   13MOL0     H 1695   7.363   9.749   1.946  0.0964  2.0701  1.4772
   13MOL0     H 1696   7.130   9.930   1.860 -1.8023 -0.6233  1.7815
   13MOL0     H 1697   7.125   9.797   1.973 -0.4726  1.1044 -0.0054
   13MOL0     H 1698   7.292   9.898   2.110 -0.0817 -1.6191 -2.8989
   13MOL0     H 1699   7.308  10.040   2.017  2.1592 -2.6344  0.4387
   13MOL0     H 1700   7.166  10.065   2.215 -0.3667 -1.8510  0.8965
   13MOL0     H 1701   7.099  10.129   2.066  0.5654  0.5708 -0.5716
   13MOL0     H 1702   7.015   9.879   2.244 -1.7828  0.4735  1.8011
   13MOL0     H 1703   6.961   9.891   2.080 -4.4608  3.8040 -1.5362
   13MOL0     H 1704   6.850  10.117   2.100 -2.3892  1.1755 -0.2559
   13MOL0     H 1705   6.803   9.966   2.194  1.7679  0.2205  1.8596
   13MOL0     H 1706   6.959  10.319   2.210  0.2332 -1.1566 -1.0667
   13MOL0     H 1707   6.972  10.498   2.369  3.3744 -0.4682 -0.2865
   13MOL0     H 1708   6.898  10.478   2.525 -1.3018 -0.3021 -0.5384
   13MOL0     H 1709   7.130  10.548   2.577 -0.8323 -1.3824  1.2414
   13MOL0     H 1710   7.115  10.382   2.628 -0.5287  2.2929  2.6743
   13MOL0     H 1711   7.237  10.507   2.366  1.2225 -1.9079 -2.6521
   13MOL0     H 1712   7.184  10.345   2.367 -0.5653  0.6920  0.4660
   13MOL0     H 1713   7.388  10.291   2.464  4.9053  1.6214  2.1874
   13MOL0     H 1714   7.325  10.349   2.619  2.2333 -0.3919  0.2335
   13MOL0     H 1715   7.550  10.291   2.632 -1.6507 -0.1146 -3.4166
   13MOL0     H 1716   7.805  10.253   2.646 -1.9612 -1.3149 -0.9257
   13MOL0     H 1717   8.215  10.538   2.820 -1.0314  3.6941 -1.9556
   13MOL0     H 1718   8.458  10.528   2.811  0.0858  0.5426 -0.0324
   13MOL0     H 1719   8.689  10.558   2.781  2.5974 -0.2918 -0.8134
   13MOL0     H 1720   8.625  10.397   2.753  0.5933 -0.5754 -1.9374
   13MOL0     H 1721   8.845  10.341   2.762 -0.9400  0.8192  1.1015
   13MOL0     H 1722   8.828  10.380   2.585 -0.2587  1.8017 -0.7368
   13MOL0     H 1723   8.880  10.618   2.623 -3.3456 -0.4051  0.5694
   13MOL0     H 1724   8.918  10.591   2.791  0.0505  0.3816 -0.1928
   13MOL0     H 1725   9.132  10.592   2.647  2.5889 -1.6302 -1.1658
   13MOL0     H 1726   9.065  10.459   2.556  1.8505  1.4062 -1.7757
   13MOL0     H 1727   9.064  10.330   2.791 -2.7530  1.1412 -2.2428
   13MOL0     H 1728   9.141  10.488   2.850  1.7350  1.9144 -0.9223
   13MOL0     H 1729   9.253  10.315   2.633  0.1403 -3.1523  1.0073
   13MOL0     H 1730   9.330  10.453   2.704 -0.6225  0.5366  0.3152
   13MOL0     H 1731   9.401  10.217   2.797  0.1678 -1.4540  3.8211
   13MOL0     H 1732   9.254  10.198   2.867  0.0241 -0.4028  1.1285
   13MOL0     H 1733   9.478  10.382   2.958 -0.1605 -1.7777 -0.8195
   13MOL0     H 1734   9.309  10.419   3.006  1.2080  2.0934  1.0784
   13MOL0     H 1735   8.459  10.542   2.395 -2.1187 -0.5965 -1.1208
   13MOL0     H 1736   8.209  10.544   2.391  0.9326  4.0933 -0.0217
   13MOL0     H 1737   7.867  10.644   2.482 -1.1984 -0.8877 -0.8739
   13MOL0     H 1738   7.633  10.677   2.449  5.7206  1.0924  0.7866
   13MOL0     H 1739   7.550   9.355   1.639  0.6857 -0.7543  0.1331
   13MOL0     H 1740   7.810   9.315   1.636  2.7185  0.9960  0.2687
   13MOL0     H 1741   8.237   9.161   1.845  2.7081  0.4458  1.7740
   13MOL0     H 1742   8.474   9.182   1.843  0.7974  0.0162 -1.4645
   13MOL0     H 1743   8.689   9.201   1.832  0.4497 -0.2623  0.1508
   13MOL0     H 1744   8.804   9.310   1.754 -1.0914  3.2051  0.1798
   13MOL0     H 1745   8.698   9.266   1.538 -1.0285  1.9701  1.6936
   13MOL0     H 1746   8.611   9.120   1.617  1.6930 -2.1476  1.4028
   13MOL0     H 1747   8.797   9.043   1.500  1.9675  1.0890 -0.1369
   13MOL0     H 1748   8.817   9.019   1.668  0.1956 -2.0718 -1.4607
   13MOL0     H 1749   8.943   9.251   1.498 -0.7720  1.9308  1.7397
   13MOL0     H 1750   9.002   9.200   1.661  1.2879 -4.6290  0.9031
   13MOL0     H 1751   9.221   8.936   1.439  0.1261 -0.5429  1.3995
   13MOL0     H 1752   8.454   9.551   1.639 -0.4547  0.9078 -0.2684
   13MOL0     H 1753   8.093   9.561   1.606  0.6711 -1.2085 -0.2808
   13MOL0     H 1754   8.183   9.662   1.716 -3.0049 -1.5063  1.0580
   13MOL0     H 1755   8.238   9.642   1.548  0.1699 -2.1537 -2.0356
   14MOL0     O 1756   0.788   4.737   9.641  0.1710  0.2790  0.1988
   14MOL0     C 1757   0.766   4.839   9.705  0.2624  0.6685  0.1369
   14MOL0     O 1758   0.785   4.853   9.839  0.5655 -0.3983  0.6627
   14MOL0     C 1759   0.859   4.758   9.898  0.1015  0.3156 -0.1099
   14MOL0     C 1760   0.992   4.725   9.865  0.3327  0.6327  0.6692
   14MOL0     C 1761   1.070   4.628   9.934 -1.2600 -0.2921  0.2565
   14MOL0     C 1762   1.010   4.555  10.036 -0.3838 -0.7199 -0.0650
   14MOL0     O 1763   1.082   4.468  10.106  0.2309  0.2589  0.3886
   14MOL0     C 1764   1.180   4.400  10.035 -0.1422  1.1493 -0.0900
   14MOL0     C 1765   1.168   4.248  10.065  0.2399  0.8919 -0.2356
   14MOL0     C 1766   1.036   4.185  10.012 -0.8902 -0.3970  0.1090
   14MOL0     C 1767   0.917   4.190  10.118 -0.3256 -0.4436 -0.9911
   14MOL0     C 1768   0.798   4.107  10.071  0.0252  0.0391 -0.0498
   14MOL0     C 1769   0.737   4.124   9.937  0.5073  0.0824 -0.1591
   14MOL0     C 1770   0.719   4.270   9.897 -1.2406 -0.0670 -0.1318
   14MOL0     C 1771   0.683   4.298   9.747  0.0169  0.1317 -0.0773
   14MOL0     N 1772   0.790   4.283   9.658 -0.1911 -0.5570  0.0394
   14MOL0     C 1773   0.870   4.390   9.613  0.0479 -0.8403 -0.2810
   14MOL0     C 1774   0.955   4.333   9.525 -1.2367 -0.2250 -0.2995
   14MOL0     C 1775   1.049   4.412   9.436 -0.3895 -0.2698  0.8732
   14MOL0     C 1776   1.025   4.562   9.439 -0.5591 -0.2182 -0.5103
   14MOL0     C 1777   1.133   4.635   9.355 -0.1096  0.3457 -1.1417
   14MOL0     C 1778   1.090   4.772   9.295 -0.1960 -0.7486  0.2108
   14MOL0     O 1779   1.130   4.854   9.400 -1.0155 -0.4363  0.3012
   14MOL0     C 1780   1.145   4.991   9.375  0.7450 -0.4664 -0.0019
   14MOL0     C 1781   1.117   5.053   9.252  0.2940  0.0101  0.1148
   14MOL0     C 1782   1.143   5.198   9.231  0.6550  0.3644 -0.6971
   14MOL0     C 1783   1.182   5.279   9.334  0.1596  0.0067  0.2152
   14MOL0     C 1784   1.183   5.423   9.315 -0.6807 -0.3269  0.1624
   14MOL0     O 1785   1.165   5.495   9.426 -0.0244  0.2223 -0.0286
   14MOL0     C 1786   1.160   5.630   9.413  0.0707 -0.2399 -0.2662
   14MOL0     C 1787   1.036   5.698   9.397  0.3638 -0.3872  0.6337
   14MOL0     C 1788   1.035   5.838   9.399  0.8791  0.9850 -0.6546
   14MOL0     C 1789   1.146   5.912   9.420  0.6558 -0.9683  0.6742
   14MOL0     O 1790   1.140   6.048   9.410  0.9759 -0.6568  0.4179
   14MOL0     C 1791   1.247   6.138   9.429  0.5168 -1.0511 -0.6191
   14MOL0     C 1792   1.285   6.142   9.581  0.4309  0.6542  0.1727
   14MOL0     C 1793   1.375   6.260   9.613  0.5615 -0.2065 -0.2478
   14MOL0     C 1794   1.461   6.222   9.725 -0.2291 -0.2012  0.3050
   14MOL0     C 1795   1.540   6.344   9.775  0.1923 -0.6030  0.0971
   14MOL0     C 1796   1.637   6.292   9.881 -0.5434 -0.5942 -0.1082
   14MOL0     C 1797   1.675   6.416   9.969  0.8517  0.1295  0.0768
   14MOL0     C 1798   1.785   6.403  10.079  0.6659  0.7606 -0.0565
   14MOL0    Cl 1799   1.738   6.276  10.191 -0.2302  0.0099  0.5430
   14MOL0     C 1800   1.262   5.846   9.450 -0.0193  0.4722  0.2390
   14MOL0     C 1801   1.272   5.706   9.437 -0.4757 -0.0854  0.7671
   14MOL0     O 1802   1.217   5.472   9.205 -0.2857  0.2628  0.0495
   14MOL0     C 1803   1.209   5.219   9.456 -1.3756  0.1592 -0.5560
   14MOL0     C 1804   1.190   5.080   9.472  0.7383 -0.8705  0.0355
   14MOL0     N 1805   0.926   4.194   9.507  1.0389  0.2171  0.5796
   14MOL0     N 1806   0.818   4.172   9.580  0.2899 -0.0010  0.2577
   14MOL0     C 1807   0.878   4.580  10.065 -0.4361 -0.3462 -0.5519
   14MOL0     C 1808   0.804   4.683  10.003 -0.0523  0.3455 -0.7111
   14MOL0     C 1809   0.753   4.951   9.608  0.2340  0.4078  0.6843
   14MOL0     C 1810   0.813   5.067   9.647  0.3002 -0.4264  0.2422
   14MOL0     C 1811   0.803   5.178   9.562 -1.1738 -0.2257 -0.1099
   14MOL0     C 1812   0.755   5.173   9.438 -0.1680 -0.2753 -0.6112
   14MOL0     O 1813   0.771   5.291   9.367  0.1845 -0.2062  0.1922
   14MOL0     C 1814   0.677   5.319   9.260  0.6176  0.6223  0.0769
   14MOL0     C 1815   0.701   5.462   9.216 -0.0759  0.2419  0.5809
   14MOL0     C 1816   0.631   5.486   9.084 -0.4620  1.2006  0.4790
   14MOL0     C 1817   0.727   5.522   8.962  0.9526  0.0218 -0.0693
   14MOL0     C 1818   0.806   5.642   8.988 -1.0785  1.0048 -0.1308
   14MOL0     C 1819   0.865   5.739   9.028  0.9960 -0.7638 -0.7313
   14MOL0     C 1820   0.697   5.060   9.401 -0.2930 -0.3631 -0.2670
   14MOL0     C 1821   0.690   4.953   9.483  1.0753  0.6601  0.8836
   14MOL0     C 1822   0.616   4.832   9.435 -0.0287 -0.2249  0.4939
   14MOL0     H 1823   1.038   4.780   9.784  0.4775 -0.0693  0.2641
   14MOL0     H 1824   1.176   4.619   9.912 -1.4853 -1.7853 -0.3909
   14MOL0     H 1825   1.173   4.413   9.926  2.0778  4.2140  0.0352
   14MOL0     H 1826   1.281   4.426  10.065  1.2448 -2.0582 -1.4396
   14MOL0     H 1827   1.187   4.213  10.167  3.8709 -2.4471 -1.7961
   14MOL0     H 1828   1.254   4.196  10.022  0.2247  0.2534  0.4852
   14MOL0     H 1829   1.054   4.079   9.996  2.0116  0.2619 -1.6345
   14MOL0     H 1830   1.018   4.231   9.914 -1.1187 -0.2474  0.2201
   14MOL0     H 1831   0.950   4.135  10.207 -1.2457  2.0193  1.0036
   14MOL0     H 1832   0.893   4.294  10.142  2.6615  0.2290 -0.5800
   14MOL0     H 1833   0.836   4.006  10.084  1.2715  0.8355  3.8974
   14MOL0     H 1834   0.724   4.107  10.153 -0.6668 -2.6703 -0.5956
   14MOL0     H 1835   0.806   4.067   9.874 -0.6091 -2.3831  0.7351
   14MOL0     H 1836   0.637   4.081   9.924  0.8615 -2.0764  3.0445
   14MOL0     H 1837   0.813   4.322   9.915 -0.2892 -1.7574 -0.0520
   14MOL0     H 1838   0.634   4.316   9.950 -2.2289 -1.0762 -0.7880
   14MOL0     H 1839   0.612   4.225   9.708  0.8120 -0.0465 -1.2439
   14MOL0     H 1840   0.645   4.399   9.728 -1.8549 -0.9425 -2.6522
   14MOL0     H 1841   0.864   4.495   9.640  2.4441 -1.0771  1.4289
   14MOL0     H 1842   1.146   4.392   9.481  1.0732  2.7185 -0.6781
   14MOL0     H 1843   1.049   4.367   9.336 -1.4061 -0.4149  0.9246
   14MOL0     H 1844   0.928   4.581   9.392 -0.0481 -3.0782 -3.0978
   14MOL0     H 1845   1.024   4.592   9.544 -1.3236 -3.1804  0.4456
   14MOL0     H 1846   1.138   4.564   9.272  3.4438 -2.0323  0.8790
   14MOL0     H 1847   1.216   4.641   9.425 -1.8704  0.0242  1.1072
   14MOL0     H 1848   0.983   4.794   9.302  0.6564  3.6597  2.9429
   14MOL0     H 1849   1.128   4.789   9.194 -4.2255  2.5048 -1.0407
   14MOL0     H 1850   1.082   5.002   9.163 -0.6827 -0.8532  0.9672
   14MOL0     H 1851   1.135   5.229   9.127  2.9918 -0.3458 -1.1451
   14MOL0     H 1852   0.945   5.645   9.370  1.7709 -2.4482 -0.4193
   14MOL0     H 1853   0.946   5.898   9.383  0.3905  0.5419  0.3001
   14MOL0     H 1854   1.329   6.103   9.366  0.2881 -0.8977 -1.0088
   14MOL0     H 1855   1.214   6.234   9.386  0.1769 -0.9723 -0.1962
   14MOL0     H 1856   1.194   6.136   9.642 -2.2480  1.2230 -3.4293
   14MOL0     H 1857   1.335   6.050   9.612 -1.1328  0.6171  2.9794
   14MOL0     H 1858   1.443   6.280   9.530 -1.8554 -3.6184 -3.3450
   14MOL0     H 1859   1.312   6.348   9.634 -2.1618 -2.0225 -0.3271
   14MOL0     H 1860   1.524   6.141   9.688  0.2183  1.5246 -3.1044
   14MOL0     H 1861   1.398   6.192   9.810  0.2988  1.3315  1.2823
   14MOL0     H 1862   1.458   6.406   9.811  0.4588 -0.1759 -0.0301
   14MOL0     H 1863   1.589   6.402   9.697 -2.9302  0.7026 -1.0807
   14MOL0     H 1864   1.579   6.214   9.932 -0.3982  0.6679  2.1063
   14MOL0     H 1865   1.724   6.252   9.828  2.0774  3.7858  0.4004
   14MOL0     H 1866   1.585   6.447  10.023  1.6725  0.8812  1.0252
   14MOL0     H 1867   1.709   6.499   9.907  1.8910 -0.8874 -0.7746
   14MOL0     H 1868   1.881   6.367  10.040 -0.0978 -1.1266 -0.3317
   14MOL0     H 1869   1.806   6.498  10.129 -0.5593  0.2312  1.5422
   14MOL0     H 1870   1.356   5.892   9.478  2.3329 -1.2037 -4.0619
   14MOL0     H 1871   1.362   5.649   9.456  0.0884  0.1977 -0.9024
   14MOL0     H 1872   1.234   5.263   9.552 -0.7136 -0.4605 -0.4291
   14MOL0     H 1873   1.204   5.046   9.575 -2.0133 -1.2853  0.3391
   14MOL0     H 1874   0.829   4.530  10.147 -1.1274  3.2941  1.4538
   14MOL0     H 1875   0.700   4.703  10.022  0.0586 -1.2734  2.2678
   14MOL0     H 1876   0.867   5.083   9.740 -0.4792 -2.3689  1.1051
   14MOL0     H 1877   0.849   5.273   9.589 -0.6075 -1.1729  2.5886
   14MOL0     H 1878   0.578   5.299   9.301  0.0327 -0.5310 -1.7872
   14MOL0     H 1879   0.695   5.250   9.177  1.5865  0.3181  0.5235
   14MOL0     H 1880   0.810   5.472   9.206  0.1140 -0.0284  2.2534
   14MOL0     H 1881   0.658   5.523   9.296 -0.1012 -1.0111  1.5420
   14MOL0     H 1882   0.556   5.564   9.095  0.3108  1.8279  1.4708
   14MOL0     H 1883   0.576   5.393   9.066  0.1438  0.7612  0.8327
   14MOL0     H 1884   0.791   5.438   8.932 -0.8479 -0.4193 -3.1101
   14MOL0     H 1885   0.662   5.534   8.875  2.4355 -4.1192 -2.0077
   14MOL0     H 1886   0.929   5.822   9.050 -0.9097  0.5194  0.2735
   14MOL0     H 1887   0.648   5.053   9.304  0.1675 -0.4188 -0.4989
   14MOL0     H 1888   0.699   4.771   9.397  0.5088 -0.7879  2.4441
   14MOL0     H 1889   0.571   4.766   9.510 -2.6526 -0.9613 -1.5921
   14MOL0     H 1890   0.545   4.852   9.354  2.0123 -1.0188 -1.5881
   15MOL0     O 1891   8.000   5.429   8.269 -0.0976  1.2033  0.4566
   15MOL0     C 1892   8.039   5.332   8.329  0.7000  1.1687  1.0441
   15MOL0     O 1893   8.163   5.287   8.317 -0.4139  0.6807  0.2902
   15MOL0     C 1894   8.277   5.352   8.294 -0.1294 -0.1317 -0.3866
   15MOL0     C 1895   8.389   5.269   8.258  0.1893 -0.2502  0.8445
   15MOL0     C 1896   8.513   5.327   8.257 -0.3060 -0.5260  0.0087
   15MOL0     C 1897   8.525   5.463   8.279  0.8948 -0.0807 -0.5486
   15MOL0     O 1898   8.647   5.519   8.277 -0.5239 -0.1519 -0.8618
   15MOL0     C 1899   8.680   5.604   8.391 -0.5114 -1.1186  0.4955
   15MOL0     C 1900   8.833   5.592   8.425  0.2455 -0.3686 -0.1268
   15MOL0     C 1901   8.923   5.661   8.319  0.4916 -0.4241 -0.2891
   15MOL0     C 1902   9.034   5.565   8.284  0.3728 -0.2379  0.4759
   15MOL0     C 1903   9.126   5.624   8.183 -0.4971  0.2412 -0.6257
   15MOL0     C 1904   9.250   5.561   8.163  0.4741 -0.0168  1.0682
   15MOL0     C 1905   9.357   5.591   8.269 -0.5559  0.1010 -0.0586
   15MOL0     C 1906   9.500   5.535   8.217  0.3146  0.0639 -0.3015
   15MOL0     N 1907   9.601   5.574   8.309  0.3641  0.1308 -0.4165
   15MOL0     C 1908   9.605   5.518   8.439  0.4539 -0.8157  0.1182
   15MOL0     C 1909   9.693   5.584   8.508 -1.6309  0.0406  0.1219
   15MOL0     C 1910   9.734   5.556   8.650  0.2412  0.5787  0.5994
   15MOL0     C 1911   9.663   5.638   8.758  0.2847  0.4554  0.3065
   15MOL0     C 1912   9.518   5.600   8.788  0.0021 -0.7558 -0.4054
   15MOL0     C 1913   9.494   5.456   8.842  1.0984  0.7366  0.1116
   15MOL0     O 1914   9.583   5.438   8.950 -0.2627 -0.5551 -0.6709
   15MOL0     C 1915   9.674   5.336   8.945  0.6753 -0.3115  1.0846
   15MOL0     C 1916   9.636   5.210   8.892  0.6146  0.2939 -0.2703
   15MOL0     C 1917   9.735   5.106   8.888 -1.1670 -0.6286  0.4190
   15MOL0     C 1918   9.871   5.131   8.932  0.4752  1.6333 -0.7558
   15MOL0     C 1919   9.979   5.036   8.925 -0.5782  0.7186 -0.2286
   15MOL0     O 1920   9.954   4.914   8.867 -0.4599  0.0255  0.2871
   15MOL0     C 1921  10.055   4.824   8.840 -0.2615  0.4175  0.7861
   15MOL0     C 1922  10.174   4.859   8.764  0.1050 -0.1295 -0.2992
   15MOL0     C 1923  10.265   4.765   8.752 -0.3350  0.6378  0.3918
   15MOL0     C 1924  10.252   4.627   8.796  0.0464 -0.3864  0.3909
   15MOL0     O 1925  10.338   4.533   8.751  0.1645 -0.7388 -0.9936
   15MOL0     C 1926  10.328   4.397   8.795  0.2301 -0.2465 -0.1033
   15MOL0     C 1927  10.434   4.308   8.739  0.9945 -0.1835  0.7370
   15MOL0     C 1928  10.573   4.315   8.806  0.2138 -0.4097 -0.4203
   15MOL0     C 1929  10.652   4.452   8.817  0.3027  0.0926  0.7458
   15MOL0     C 1930  10.800   4.424   8.845 -0.9427 -0.5387  0.4389
   15MOL0     C 1931  10.830   4.335   8.975  0.1733 -0.3553  0.2997
   15MOL0     C 1932  10.982   4.339   9.021  0.3849  0.0571  0.3885
   15MOL0     C 1933  11.036   4.460   9.105 -0.8846 -0.4930  0.4923
   15MOL0    Cl 1934  10.963   4.469   9.261 -0.1352  0.1178  0.0811
   15MOL0     C 1935  10.130   4.596   8.860  0.5252  0.3767  0.2088
   15MOL0     C 1936  10.030   4.690   8.868 -0.5510 -0.0768 -1.3504
   15MOL0     O 1937  10.088   5.068   8.976 -0.9463  0.5813 -0.2056
   15MOL0     C 1938   9.898   5.241   9.011 -0.3842 -0.9627 -1.0412
   15MOL0     C 1939   9.800   5.349   9.009  0.0624  0.1569  0.5395
   15MOL0     N 1940   9.746   5.679   8.420  0.1405  0.0876  0.3559
   15MOL0     N 1941   9.685   5.674   8.308 -0.5178 -0.6347 -0.2715
   15MOL0     C 1942   8.413   5.542   8.307 -0.4053  0.1396  0.3281
   15MOL0     C 1943   8.288   5.483   8.328  0.5129  0.3470  1.1475
   15MOL0     C 1944   7.931   5.255   8.395  0.3849  0.2068  0.0120
   15MOL0     C 1945   7.806   5.303   8.395  0.5748 -0.6595  0.6652
   15MOL0     C 1946   7.699   5.244   8.470 -0.1122  0.4473 -0.6587
   15MOL0     C 1947   7.715   5.123   8.529 -0.1056  1.1555 -0.3561
   15MOL0     O 1948   7.620   5.055   8.604  0.4394  0.0604  0.6890
   15MOL0     C 1949   7.502   5.123   8.651 -0.2849  0.0341 -0.0884
   15MOL0     C 1950   7.417   5.058   8.762  0.3430  0.4683  0.0476
   15MOL0     C 1951   7.500   5.020   8.886 -0.3747  1.1198  0.5251
   15MOL0     C 1952   7.420   5.013   9.024  0.0599 -0.1513  0.1453
   15MOL0     C 1953   7.272   4.980   9.019 -0.0002  1.1699  0.3993
   15MOL0     C 1954   7.154   4.967   9.008 -0.6757  0.5905 -0.8656
   15MOL0     C 1955   7.841   5.060   8.525 -0.4191  0.6371  0.5570
   15MOL0     C 1956   7.946   5.137   8.468 -0.3225  0.0931 -0.8525
   15MOL0     C 1957   8.080   5.071   8.478 -1.3109  0.3042  0.5069
   15MOL0     H 1958   8.376   5.165   8.230  2.3524 -0.0627 -1.1130
   15MOL0     H 1959   8.595   5.258   8.240 -3.6554 -4.5827 -1.4913
   15MOL0     H 1960   8.641   5.703   8.369 -1.6318 -1.5665  0.4030
   15MOL0     H 1961   8.623   5.576   8.481 -1.2252  1.6275  0.9749
   15MOL0     H 1962   8.861   5.489   8.449 -0.6992 -0.4238  0.8399
   15MOL0     H 1963   8.848   5.650   8.517 -1.3742 -0.6213  0.3242
   15MOL0     H 1964   8.957   5.757   8.360  1.2659 -0.7723 -0.0873
   15MOL0     H 1965   8.870   5.681   8.225 -1.0768 -2.0608  0.1915
   15MOL0     H 1966   9.089   5.536   8.375 -1.8275 -0.7387  1.7305
   15MOL0     H 1967   8.990   5.472   8.246  0.3450  0.0210 -0.1336
   15MOL0     H 1968   9.085   5.632   8.081  2.4477 -0.8769 -1.9846
   15MOL0     H 1969   9.154   5.724   8.217 -0.5828  0.0604 -0.0136
   15MOL0     H 1970   9.235   5.453   8.159 -2.3144  0.1160  3.9579
   15MOL0     H 1971   9.286   5.580   8.062 -2.6664 -1.4328 -0.4596
   15MOL0     H 1972   9.320   5.540   8.358  0.8302  0.9010  1.0251
   15MOL0     H 1973   9.366   5.699   8.287  3.0144 -0.0869 -0.0412
   15MOL0     H 1974   9.490   5.427   8.209 -0.4409  0.2408 -2.4012
   15MOL0     H 1975   9.522   5.573   8.116 -0.6544  0.5239 -0.3478
   15MOL0     H 1976   9.541   5.444   8.487 -1.0832 -0.6661 -1.5945
   15MOL0     H 1977   9.730   5.449   8.671 -0.8136  0.4785 -0.0056
   15MOL0     H 1978   9.840   5.580   8.655 -0.0923  2.1049  0.7560
   15MOL0     H 1979   9.725   5.642   8.848  1.2935  4.1502 -0.4203
   15MOL0     H 1980   9.676   5.741   8.725  2.2593  0.1426  0.0024
   15MOL0     H 1981   9.466   5.628   8.696 -1.2804  1.3660  0.8947
   15MOL0     H 1982   9.486   5.670   8.865  0.3994  0.0458 -0.9549
   15MOL0     H 1983   9.488   5.380   8.764 -2.5783 -2.0906  2.8006
   15MOL0     H 1984   9.394   5.459   8.888  0.4683  1.0706 -1.2229
   15MOL0     H 1985   9.537   5.192   8.852  1.4689 -2.0603 -1.5244
   15MOL0     H 1986   9.715   5.009   8.844  4.2750 -1.3654 -1.1799
   15MOL0     H 1987  10.190   4.961   8.732  2.2687 -0.6713 -1.1931
   15MOL0     H 1988  10.352   4.806   8.702 -1.9759  1.2538 -2.1394
   15MOL0     H 1989  10.315   4.378   8.902  2.9652 -0.9061  0.1817
   15MOL0     H 1990  10.241   4.351   8.746  1.3723 -0.6928 -1.8026
   15MOL0     H 1991  10.401   4.205   8.745  1.8743 -0.5203  0.1026
   15MOL0     H 1992  10.442   4.325   8.631 -0.3640 -1.8545  0.3286
   15MOL0     H 1993  10.561   4.298   8.914 -0.1265 -1.5107 -0.6161
   15MOL0     H 1994  10.638   4.231   8.777  0.5492 -1.1097  2.1132
   15MOL0     H 1995  10.607   4.525   8.885 -0.6505  1.0410 -0.8281
   15MOL0     H 1996  10.630   4.489   8.716  1.9578 -0.9634 -0.0555
   15MOL0     H 1997  10.854   4.519   8.849 -0.7396 -0.6226 -0.1303
   15MOL0     H 1998  10.834   4.373   8.754 -4.5317  0.7756 -1.8194
   15MOL0     H 1999  10.763   4.365   9.057  0.2638 -0.4588  0.4134
   15MOL0     H 2000  10.802   4.233   8.948 -1.7004 -1.4700  5.2738
   15MOL0     H 2001  11.039   4.330   8.928  1.3223  0.4922  0.9031
   15MOL0     H 2002  10.999   4.250   9.081 -0.2663  0.3106  0.9574
   15MOL0     H 2003  11.145   4.454   9.116 -1.1579 -1.9442  3.3051
   15MOL0     H 2004  11.009   4.555   9.059  2.1620  0.8548  1.2483
   15MOL0     H 2005  10.106   4.495   8.889 -0.5347 -0.6262 -3.6029
   15MOL0     H 2006   9.943   4.659   8.925  0.6751 -1.0664  0.0604
   15MOL0     H 2007   9.998   5.261   9.047 -0.6446  1.0726 -1.2764
   15MOL0     H 2008   9.842   5.442   9.046 -0.8023  1.6421 -1.9665
   15MOL0     H 2009   8.413   5.647   8.334  0.8500  0.4690 -0.8102
   15MOL0     H 2010   8.209   5.552   8.357 -0.1499  0.6536 -1.1595
   15MOL0     H 2011   7.771   5.395   8.348  2.1307 -0.1027  0.5081
   15MOL0     H 2012   7.597   5.278   8.451  1.0070  3.7550 -1.3464
   15MOL0     H 2013   7.443   5.144   8.562 -0.2932 -0.3940 -0.1860
   15MOL0     H 2014   7.530   5.223   8.687 -1.3195  0.6607 -0.9470
   15MOL0     H 2015   7.346   4.985   8.721 -1.6566  0.6685  2.8913
   15MOL0     H 2016   7.355   5.143   8.793  1.6063  0.9946  1.2272
   15MOL0     H 2017   7.586   5.086   8.899  2.2375 -1.8195 -0.5797
   15MOL0     H 2018   7.543   4.921   8.870 -1.2504  0.9094 -0.7225
   15MOL0     H 2019   7.462   4.935   9.089 -1.5204  0.4256  1.9450
   15MOL0     H 2020   7.426   5.104   9.085  1.1014 -0.4700  0.5370
   15MOL0     H 2021   7.048   4.958   9.016 -0.5533 -2.4266 -1.3774
   15MOL0     H 2022   7.849   4.961   8.570 -0.9767 -0.8933 -2.4605
   15MOL0     H 2023   8.145   5.141   8.531  1.2763 -1.1520 -0.5367
   15MOL0     H 2024   8.090   4.972   8.522  0.7265 -0.0288 -0.5748
   15MOL0     H 2025   8.112   5.050   8.376 -1.2520 -0.2035  0.6294
   16MOL0     O 2026   9.194   3.936   2.071  0.4239  0.4059  0.7323
   16MOL0     C 2027   9.147   3.996   2.167  0.8736  0.6139 -0.8006
   16MOL0     O 2028   9.037   4.083   2.150  0.3236 -0.0918 -0.1371
   16MOL0     C 2029   8.950   4.037   2.054  0.5582 -0.1910  0.0785
   16MOL0     C 2030   8.838   3.966   2.105  0.4343 -0.1636 -0.0382
   16MOL0     C 2031   8.743   3.916   2.018  0.3507 -0.1050  0.8613
   16MOL0     C 2032   8.757   3.936   1.879  0.7812 -1.2134 -0.8406
   16MOL0     O 2033   8.660   3.870   1.805 -0.0214 -0.6948 -0.9594
   16MOL0     C 2034   8.705   3.825   1.676 -0.1042 -0.5232 -0.2527
   16MOL0     C 2035   8.582   3.750   1.611 -0.1638  0.3274 -0.0271
   16MOL0     C 2036   8.623   3.656   1.497  0.3814 -0.1137  0.2437
   16MOL0     C 2037   8.613   3.705   1.354  0.8745 -0.2135  0.5327
   16MOL0     C 2038   8.707   3.822   1.336 -0.4095 -0.0549  0.4423
   16MOL0     C 2039   8.861   3.791   1.350 -0.3364 -0.0096  0.1323
   16MOL0     C 2040   8.959   3.905   1.331 -0.3083 -0.2131 -0.0608
   16MOL0     C 2041   8.936   4.019   1.430  0.5066 -0.4536  0.1718
   16MOL0     N 2042   9.039   4.124   1.434  0.5117 -0.5559  0.0136
   16MOL0     C 2043   9.040   4.225   1.525  0.9512  0.5709  0.8884
   16MOL0     C 2044   9.153   4.295   1.494 -0.2583 -0.0018  0.4294
   16MOL0     C 2045   9.210   4.411   1.574 -0.4011 -0.0961  0.3862
   16MOL0     C 2046   9.309   4.370   1.686  0.3671 -0.0540 -0.8916
   16MOL0     C 2047   9.434   4.316   1.630 -0.0564  0.4516  0.6233
   16MOL0     C 2048   9.557   4.322   1.738  0.7087 -1.0670  0.4611
   16MOL0     O 2049   9.592   4.457   1.766  0.3656 -0.5206  0.4522
   16MOL0     C 2050   9.683   4.472   1.865  0.6332  0.0485 -0.1624
   16MOL0     C 2051   9.776   4.374   1.906  0.5069 -0.5373  0.0345
   16MOL0     C 2052   9.875   4.416   1.995 -0.7499 -0.8328  0.8094
   16MOL0     C 2053   9.857   4.521   2.079 -0.0190 -0.6815 -0.0123
   16MOL0     C 2054   9.961   4.551   2.185 -0.6366 -0.1101  0.7737
   16MOL0     O 2055   9.939   4.667   2.257  0.0584 -0.6395 -0.0841
   16MOL0     C 2056  10.023   4.734   2.348 -0.2581  0.0778 -0.3227
   16MOL0     C 2057  10.004   4.874   2.370  0.5536 -0.9822 -0.3782
   16MOL0     C 2058  10.080   4.948   2.465 -0.5214  0.3406  0.3795
   16MOL0     C 2059  10.164   4.874   2.547  0.4165  0.0701 -0.0441
   16MOL0     O 2060  10.227   4.945   2.645 -0.1886 -0.3517  0.5367
   16MOL0     C 2061  10.275   4.875   2.767  0.0939  0.0573 -0.3582
   16MOL0     C 2062  10.338   4.976   2.856  0.2190  0.9026  0.5978
   16MOL0     C 2063  10.255   5.098   2.900  0.7941  0.1436 -0.1231
   16MOL0     C 2064  10.136   5.065   2.993  0.2942  0.3750  1.2119
   16MOL0     C 2065  10.042   5.187   3.003  1.0968 -1.0715  0.5312
   16MOL0     C 2066  10.107   5.316   3.041  0.0797 -0.9674  0.2725
   16MOL0     C 2067   9.995   5.428   3.044 -0.2631 -0.5040  0.8263
   16MOL0     C 2068   9.950   5.446   3.188 -0.2806  0.7084  0.1817
   16MOL0    Cl 2069  10.062   5.545   3.284  0.1183 -0.0255 -0.4427
   16MOL0     C 2070  10.189   4.737   2.520  0.1284 -0.1404 -0.4153
   16MOL0     C 2071  10.123   4.677   2.415  2.0751  0.3619  0.4757
   16MOL0     O 2072  10.043   4.466   2.212  0.1752  0.0992  0.4615
   16MOL0     C 2073   9.752   4.613   2.048  1.3616 -1.3760 -0.5100
   16MOL0     C 2074   9.672   4.593   1.933 -0.1193 -0.8747  0.5598
   16MOL0     N 2075   9.213   4.233   1.385  0.4601 -0.2720 -0.0479
   16MOL0     N 2076   9.148   4.136   1.349  0.0975  0.6606 -1.3034
   16MOL0     C 2077   8.867   4.013   1.829 -0.8922 -0.4550  0.1927
   16MOL0     C 2078   8.968   4.055   1.922 -0.0796 -0.9535 -0.4176
   16MOL0     C 2079   9.215   3.983   2.305 -0.1900 -0.5697  0.2139
   16MOL0     C 2080   9.150   4.042   2.414 -0.5822 -0.1430 -0.0507
   16MOL0     C 2081   9.191   4.022   2.542  0.2436  0.9800  0.5140
   16MOL0     C 2082   9.311   3.953   2.571  0.4967 -0.2844 -0.7468
   16MOL0     O 2083   9.368   3.935   2.702  0.6024  0.2687  0.4790
   16MOL0     C 2084   9.322   4.020   2.804 -0.2726  0.0528  0.2426
   16MOL0     C 2085   9.374   4.166   2.784  1.1346 -0.1462 -0.2224
   16MOL0     C 2086   9.409   4.236   2.915  0.3898  0.5048 -0.2395
   16MOL0     C 2087   9.438   4.385   2.895 -0.1902  0.7806 -0.0264
   16MOL0     C 2088   9.315   4.460   2.891  1.1586 -0.5449 -0.6083
   16MOL0     C 2089   9.206   4.510   2.862  0.3957 -1.1208  0.0637
   16MOL0     C 2090   9.370   3.882   2.467 -0.3443 -0.7648  0.2053
   16MOL0     C 2091   9.319   3.892   2.335 -1.1515 -0.0157 -0.3377
   16MOL0     C 2092   9.379   3.800   2.233  0.1872 -0.7857  0.1309
   16MOL0     H 2093   8.819   3.968   2.212 -2.4758  0.5451 -0.4831
   16MOL0     H 2094   8.651   3.864   2.044 -0.3799 -0.5747 -2.1941
   16MOL0     H 2095   8.737   3.906   1.610 -0.3714 -0.1536  0.0655
   16MOL0     H 2096   8.786   3.752   1.690  2.8407  2.6194  0.4903
   16MOL0     H 2097   8.505   3.822   1.579  0.4963  0.7026 -0.8220
   16MOL0     H 2098   8.527   3.692   1.685  2.5274 -2.4991 -0.0246
   16MOL0     H 2099   8.553   3.572   1.510  2.2186 -1.5669  1.2750
   16MOL0     H 2100   8.727   3.625   1.512  0.3993 -2.9555 -4.0182
   16MOL0     H 2101   8.650   3.634   1.280 -0.7241  1.0727 -1.6005
   16MOL0     H 2102   8.510   3.730   1.326  1.4837  0.8477 -0.8085
   16MOL0     H 2103   8.697   3.841   1.229  3.3261 -2.4496 -0.5038
   16MOL0     H 2104   8.677   3.916   1.384 -3.6788 -0.5030 -0.5346
   16MOL0     H 2105   8.884   3.771   1.455  2.6555  1.0004 -0.2338
   16MOL0     H 2106   8.891   3.711   1.282 -1.3104 -0.9661  0.7880
   16MOL0     H 2107   8.934   3.947   1.233 -0.9223  2.2788  1.1029
   16MOL0     H 2108   9.067   3.887   1.329  0.0292  1.5266 -3.0827
   16MOL0     H 2109   8.835   4.061   1.423  0.2574 -1.1397 -0.5354
   16MOL0     H 2110   8.951   3.973   1.527  0.6773 -0.1078  0.3106
   16MOL0     H 2111   8.983   4.256   1.612  0.6198  1.5269  0.3447
   16MOL0     H 2112   9.260   4.477   1.502 -1.1630 -1.5110 -1.5341
   16MOL0     H 2113   9.123   4.464   1.614 -0.0622  0.3250  0.5742
   16MOL0     H 2114   9.339   4.452   1.751  0.9786 -1.1994  0.3263
   16MOL0     H 2115   9.272   4.287   1.748 -1.5050  0.0300 -1.8193
   16MOL0     H 2116   9.468   4.376   1.545 -1.8837 -0.6442 -0.9528
   16MOL0     H 2117   9.424   4.211   1.601 -0.5182  1.2691 -2.6322
   16MOL0     H 2118   9.633   4.263   1.687 -1.0594 -2.4465 -0.6769
   16MOL0     H 2119   9.515   4.272   1.826  0.1416 -0.2617  0.6628
   16MOL0     H 2120   9.769   4.271   1.872 -2.4739 -1.1088  1.9765
   16MOL0     H 2121   9.958   4.350   2.021  0.3897  0.2411  0.0199
   16MOL0     H 2122   9.944   4.921   2.293  3.8795  0.7947 -2.1306
   16MOL0     H 2123  10.063   5.053   2.483 -3.0858  0.0479  0.0851
   16MOL0     H 2124  10.203   4.824   2.831  0.1577 -0.6477 -0.8327
   16MOL0     H 2125  10.351   4.802   2.737  1.1774  0.1166  2.0242
   16MOL0     H 2126  10.390   4.924   2.936  0.4435 -1.1064 -0.7857
   16MOL0     H 2127  10.421   5.009   2.792 -2.1045 -0.4691 -3.5466
   16MOL0     H 2128  10.330   5.152   2.959  1.1574 -2.9788  2.6219
   16MOL0     H 2129  10.219   5.148   2.810 -1.3264  1.7895  1.5377
   16MOL0     H 2130  10.160   5.039   3.096  0.4016 -0.4785  0.9860
   16MOL0     H 2131  10.084   4.976   2.955  0.4412  1.0854 -0.7612
   16MOL0     H 2132   9.974   5.154   3.082  0.5609 -1.7151 -0.1898
   16MOL0     H 2133   9.990   5.197   2.908 -1.0343 -5.3740  1.0118
   16MOL0     H 2134  10.163   5.302   3.135 -0.4660 -1.4862  0.5237
   16MOL0     H 2135  10.185   5.342   2.969  0.8749  0.2871  1.5102
   16MOL0     H 2136   9.912   5.391   2.983  1.1349 -2.2954 -0.1267
   16MOL0     H 2137  10.032   5.523   3.006 -0.8157 -0.2776  0.8512
   16MOL0     H 2138   9.852   5.496   3.192  0.3186  1.8463  2.4907
   16MOL0     H 2139   9.937   5.344   3.223  0.2628 -1.1880 -4.3741
   16MOL0     H 2140  10.257   4.683   2.585  4.5343  3.5439 -1.4712
   16MOL0     H 2141  10.135   4.571   2.394 -0.4652  0.4629 -2.0097
   16MOL0     H 2142   9.732   4.697   2.114  2.2048 -3.1710  2.1591
   16MOL0     H 2143   9.607   4.670   1.893  2.5748  0.7740 -0.9634
   16MOL0     H 2144   8.876   4.039   1.724  0.3752  0.3601  0.4772
   16MOL0     H 2145   9.055   4.115   1.896 -0.4123 -0.1120  0.3603
   16MOL0     H 2146   9.059   4.099   2.395 -1.0298 -1.8817 -4.0966
   16MOL0     H 2147   9.142   4.074   2.624 -0.7454  0.6148  0.1684
   16MOL0     H 2148   9.369   3.980   2.895 -0.3024  1.9455  1.1261
   16MOL0     H 2149   9.214   4.017   2.820 -0.4704  0.9229 -0.8440
   16MOL0     H 2150   9.297   4.218   2.726  0.2626 -0.8108  0.3171
   16MOL0     H 2151   9.461   4.170   2.717  1.0013 -0.6655 -0.4252
   16MOL0     H 2152   9.497   4.178   2.945 -0.3933 -0.8307 -0.4467
   16MOL0     H 2153   9.327   4.218   2.985 -1.9841 -1.0847 -3.2137
   16MOL0     H 2154   9.495   4.416   2.983  1.4744  2.4619 -1.6092
   16MOL0     H 2155   9.500   4.393   2.806 -1.2196 -0.4641 -0.9072
   16MOL0     H 2156   9.116   4.550   2.820 -0.4344 -2.5589  0.3835
   16MOL0     H 2157   9.454   3.816   2.484  0.0162 -0.4298 -0.2482
   16MOL0     H 2158   9.474   3.759   2.268  0.7776  0.9364  0.6304
   16MOL0     H 2159   9.305   3.722   2.214 -1.8693  1.2054 -0.4720
   16MOL0     H 2160   9.400   3.836   2.132 -2.5525 -0.0536 -0.2567
   17MOL0     O 2161   7.689   3.944   9.615 -0.2343 -0.3799 -0.1671
   17MOL0     C 2162   7.804   3.910   9.607  0.8219  0.1725  0.6108
   17MOL0     O 2163   7.897   3.967   9.529  0.7761  0.2610 -0.0449
   17MOL0     C 2164   7.858   4.069   9.449  0.7884 -0.4828 -0.3825
   17MOL0     C 2165   7.783   4.053   9.330  0.0146  0.1857 -0.3018
   17MOL0     C 2166   7.742   4.170   9.260 -0.3698 -0.3129 -0.0245
   17MOL0     C 2167   7.793   4.293   9.309  0.5430 -0.2110  0.8201
   17MOL0     O 2168   7.743   4.409   9.249 -0.0414 -0.0907 -0.2487
   17MOL0     C 2169   7.639   4.475   9.316 -0.9046  0.2398 -0.3664
   17MOL0     C 2170   7.559   4.557   9.215  0.4847 -0.1767  0.6931
   17MOL0     C 2171   7.635   4.657   9.133 -1.1600 -0.3945  0.0845
   17MOL0     C 2172   7.702   4.776   9.197  1.3756 -0.2165  0.0979
   17MOL0     C 2173   7.792   4.853   9.097  0.1215 -0.3597  0.9267
   17MOL0     C 2174   7.924   4.792   9.050  0.3254  0.1287  0.3664
   17MOL0     C 2175   8.009   4.740   9.164 -0.0747  0.3194 -0.2874
   17MOL0     C 2176   8.061   4.846   9.260 -0.4615  0.2690 -0.1141
   17MOL0     N 2177   8.125   4.955   9.188 -0.1196 -0.4390  0.6501
   17MOL0     C 2178   8.209   4.943   9.085 -0.8849  0.8267 -0.0341
   17MOL0     C 2179   8.226   5.065   9.048  0.4489  0.4152  1.0643
   17MOL0     C 2180   8.325   5.109   8.944 -0.1434 -0.0257  0.0527
   17MOL0     C 2181   8.312   5.030   8.804 -0.7218  0.1925  0.2676
   17MOL0     C 2182   8.405   5.086   8.696  0.3803  0.3655 -1.0282
   17MOL0     C 2183   8.551   5.052   8.733 -0.3426 -0.4929  0.4134
   17MOL0     O 2184   8.630   5.117   8.632  0.4863 -0.0256  0.2370
   17MOL0     C 2185   8.746   5.059   8.588  1.0696 -0.1842  0.0540
   17MOL0     C 2186   8.833   4.981   8.668  0.2543 -0.9907  0.0707
   17MOL0     C 2187   8.939   4.916   8.613 -0.2413 -0.8992  0.6546
   17MOL0     C 2188   8.970   4.933   8.486 -0.8592  0.5345 -0.3180
   17MOL0     C 2189   9.093   4.878   8.419 -0.1167  0.2596  0.9041
   17MOL0     O 2190   9.095   4.841   8.286 -0.5876 -0.6683  0.1766
   17MOL0     C 2191   9.195   4.756   8.239 -0.1370 -0.0118 -0.3043
   17MOL0     C 2192   9.156   4.637   8.183  0.3799  0.2356 -0.5820
   17MOL0     C 2193   9.247   4.541   8.133  0.7875  0.8318 -0.3649
   17MOL0     C 2194   9.384   4.557   8.157  1.5398 -0.1781 -0.0102
   17MOL0     O 2195   9.475   4.469   8.094  0.8300 -1.5737 -0.2583
   17MOL0     C 2196   9.533   4.370   8.181 -0.8080  0.5530  0.8772
   17MOL0     C 2197   9.435   4.262   8.219 -0.0768  0.2349  0.6397
   17MOL0     C 2198   9.507   4.146   8.299  0.0981 -0.7286 -0.0846
   17MOL0     C 2199   9.428   4.026   8.316 -0.3666  0.1378 -0.3752
   17MOL0     C 2200   9.292   4.040   8.390 -0.3453  0.7748 -0.2073
   17MOL0     C 2201   9.301   4.096   8.535  0.8813  0.2662 -0.8659
   17MOL0     C 2202   9.157   4.090   8.595 -0.0997  0.5034  0.5665
   17MOL0     C 2203   9.169   4.105   8.744  0.1092  0.2064  0.9693
   17MOL0    Cl 2204   9.034   4.216   8.798  0.3152  0.2652 -0.6016
   17MOL0     C 2205   9.428   4.676   8.215  0.7111 -0.8117 -0.5260
   17MOL0     C 2206   9.337   4.776   8.251 -0.3714 -0.0955 -0.0385
   17MOL0     O 2207   9.184   4.840   8.494  0.5639  0.7591  0.1083
   17MOL0     C 2208   8.891   5.010   8.401 -0.9985 -0.3189 -0.0884
   17MOL0     C 2209   8.776   5.076   8.456 -0.1924 -0.0144  0.2739
   17MOL0     N 2210   8.160   5.158   9.121 -0.7115  0.3082  0.4067
   17MOL0     N 2211   8.110   5.089   9.214  0.9458 -0.0943  0.8037
   17MOL0     C 2212   7.870   4.306   9.425  0.1762 -0.5997 -0.1525
   17MOL0     C 2213   7.904   4.192   9.500  0.3149 -0.6866  0.6217
   17MOL0     C 2214   7.841   3.791   9.683  0.4635 -0.8433 -1.1651
   17MOL0     C 2215   7.954   3.723   9.648 -0.9103  0.0946  0.3207
   17MOL0     C 2216   8.008   3.603   9.720  0.4216 -1.1014 -0.7053
   17MOL0     C 2217   7.934   3.551   9.826  0.0027 -0.1398  0.4790
   17MOL0     O 2218   7.977   3.452   9.915 -0.0783  0.4293 -0.5962
   17MOL0     C 2219   8.068   3.355   9.862 -0.2030 -0.0460 -0.1627
   17MOL0     C 2220   8.216   3.398   9.861  0.0204  0.1105 -0.0368
   17MOL0     C 2221   8.287   3.307   9.762 -0.2262 -0.1236 -0.1790
   17MOL0     C 2222   8.411   3.383   9.700  1.1682 -0.2177  0.2148
   17MOL0     C 2223   8.510   3.390   9.802  0.2112  0.9073 -1.1337
   17MOL0     C 2224   8.569   3.401   9.908  0.2936  0.5578 -0.5588
   17MOL0     C 2225   7.820   3.631   9.866 -0.3231 -0.3384  0.2804
   17MOL0     C 2226   7.761   3.739   9.800 -0.0486 -0.1604  0.1489
   17MOL0     C 2227   7.631   3.803   9.852  1.0578 -0.5128 -0.1382
   17MOL0     H 2228   7.747   3.954   9.305  0.5143 -1.3767  4.2552
   17MOL0     H 2229   7.674   4.166   9.175 -0.2337 -0.6335 -0.1247
   17MOL0     H 2230   7.585   4.399   9.372 -0.8574  0.5984  0.1770
   17MOL0     H 2231   7.684   4.540   9.392  0.4911 -2.2101  1.0225
   17MOL0     H 2232   7.486   4.614   9.273 -0.7013 -0.2548 -0.6779
   17MOL0     H 2233   7.509   4.476   9.162 -1.1106  1.0764  0.1985
   17MOL0     H 2234   7.571   4.705   9.059  0.2795  0.0239 -0.9267
   17MOL0     H 2235   7.723   4.609   9.089  0.2904  1.1467  1.1730
   17MOL0     H 2236   7.625   4.844   9.234 -0.7025 -2.1779 -0.3691
   17MOL0     H 2237   7.750   4.747   9.291 -1.9907  0.4885  2.1927
   17MOL0     H 2238   7.730   4.878   9.010  0.8372 -1.4227  0.0833
   17MOL0     H 2239   7.828   4.945   9.145  0.4596 -0.4179  0.7928
   17MOL0     H 2240   7.889   4.707   8.990  3.0454  1.7266 -3.8834
   17MOL0     H 2241   7.973   4.852   8.973  2.2023 -3.1004 -1.1689
   17MOL0     H 2242   8.087   4.679   9.117  1.4180 -0.3961  2.8010
   17MOL0     H 2243   7.946   4.674   9.226 -2.8121  1.2475 -1.9383
   17MOL0     H 2244   7.981   4.905   9.307  0.7387  2.1447 -0.3013
   17MOL0     H 2245   8.129   4.803   9.334 -2.7628  2.9424  3.9073
   17MOL0     H 2246   8.262   4.854   9.053 -0.2857  1.8088 -1.9233
   17MOL0     H 2247   8.310   5.213   8.913 -1.1884 -1.1674 -3.9373
   17MOL0     H 2248   8.424   5.115   8.989 -0.4533  0.2572  0.7179
   17MOL0     H 2249   8.339   4.925   8.819  0.1534  0.1837 -1.2213
   17MOL0     H 2250   8.209   5.032   8.768 -0.6330  1.6462  0.0267
   17MOL0     H 2251   8.395   5.194   8.680  3.2727  0.9857  0.6006
   17MOL0     H 2252   8.377   5.047   8.598 -2.3722  0.1361 -0.2154
   17MOL0     H 2253   8.572   4.945   8.738  1.6331 -0.1444  0.3829
   17MOL0     H 2254   8.577   5.092   8.832 -1.4181  0.8965  0.1555
   17MOL0     H 2255   8.802   4.974   8.772  1.0091  1.6909  0.5512
   17MOL0     H 2256   9.012   4.852   8.662  0.4371 -1.3056 -0.8360
   17MOL0     H 2257   9.057   4.593   8.184  0.1141  0.4849  3.8036
   17MOL0     H 2258   9.210   4.457   8.074  2.0943 -0.8168  1.0781
   17MOL0     H 2259   9.612   4.322   8.123 -1.9886 -0.1824 -0.1537
   17MOL0     H 2260   9.570   4.428   8.266 -0.6599  4.7932 -1.7820
   17MOL0     H 2261   9.351   4.304   8.275 -0.2354  2.2429 -0.9993
   17MOL0     H 2262   9.393   4.224   8.126 -0.7076  0.5071  0.8051
   17MOL0     H 2263   9.597   4.112   8.246  1.5307  0.5749  1.3653
   17MOL0     H 2264   9.541   4.179   8.398  0.0230 -1.9663  0.3769
   17MOL0     H 2265   9.491   3.959   8.376  0.6493  1.4180  0.0440
   17MOL0     H 2266   9.418   3.968   8.224 -0.4974 -1.5014  0.6344
   17MOL0     H 2267   9.238   3.945   8.393 -0.9538  1.0708 -1.3936
   17MOL0     H 2268   9.229   4.092   8.318 -1.0963 -0.5212 -0.5029
   17MOL0     H 2269   9.363   4.032   8.598 -0.1038  1.6151  1.6315
   17MOL0     H 2270   9.330   4.201   8.532  2.8420 -0.2514 -1.4167
   17MOL0     H 2271   9.112   3.996   8.563  0.2675 -0.3555  2.4390
   17MOL0     H 2272   9.105   4.178   8.556  0.7271  0.5324 -0.5142
   17MOL0     H 2273   9.162   4.006   8.790  0.3174  1.0270  2.8845
   17MOL0     H 2274   9.259   4.148   8.789 -0.3231 -1.2737  3.4606
   17MOL0     H 2275   9.536   4.682   8.219  0.7882 -2.4617  1.5233
   17MOL0     H 2276   9.368   4.869   8.298 -1.3066  0.0855  0.2423
   17MOL0     H 2277   8.916   5.020   8.295 -1.8586  1.8820 -0.1288
   17MOL0     H 2278   8.724   5.133   8.381  0.0832 -0.3652 -0.1879
   17MOL0     H 2279   7.909   4.397   9.471  0.8535 -2.5161  3.4693
   17MOL0     H 2280   7.966   4.193   9.589  0.0803  2.4499  0.8626
   17MOL0     H 2281   8.020   3.757   9.568  1.1216  1.3497  2.4311
   17MOL0     H 2282   8.108   3.573   9.689  1.4668  1.3003  0.0435
   17MOL0     H 2283   8.027   3.321   9.767  1.6297  3.2865 -2.3207
   17MOL0     H 2284   8.069   3.265   9.924  1.5878  0.1542  0.1432
   17MOL0     H 2285   8.260   3.384   9.960  3.0004 -2.3754 -1.5201
   17MOL0     H 2286   8.218   3.506   9.848  0.5388  0.3954  2.1403
   17MOL0     H 2287   8.222   3.290   9.676  0.7331  1.8082 -1.3672
   17MOL0     H 2288   8.316   3.218   9.818 -2.1681 -2.1108 -2.1516
   17MOL0     H 2289   8.452   3.319   9.621  0.5453 -0.6292  0.2198
   17MOL0     H 2290   8.390   3.477   9.648 -0.1747 -0.1703  0.8011
   17MOL0     H 2291   8.629   3.413   9.996 -1.1505  1.3285  0.3748
   17MOL0     H 2292   7.781   3.600   9.963 -2.3356 -0.2728 -0.4537
   17MOL0     H 2293   7.552   3.794   9.777 -1.0339 -0.1685  1.9029
   17MOL0     H 2294   7.588   3.761   9.944  1.6125  0.2240  0.4744
   17MOL0     H 2295   7.649   3.910   9.863  2.0004 -0.6175 -0.6060
   18MOL0     O 2296   7.637   3.187   4.562 -0.7754 -0.0155  0.6785
   18MOL0     C 2297   7.683   3.190   4.671 -0.3712 -0.4074 -0.5237
   18MOL0     O 2298   7.815   3.236   4.699  0.3525 -0.3276  0.1922
   18MOL0     C 2299   7.881   3.303   4.602 -0.6479 -0.0452 -1.5724
   18MOL0     C 2300   7.891   3.436   4.611 -0.1330 -0.1541 -0.2281
   18MOL0     C 2301   7.945   3.507   4.499 -0.2124 -0.0892 -0.2518
   18MOL0     C 2302   7.983   3.442   4.389  0.3146  0.0702 -0.1983
   18MOL0     O 2303   8.026   3.499   4.269  0.1190  0.8239  0.0742
   18MOL0     C 2304   8.009   3.635   4.249 -0.4779 -0.2562 -0.0612
   18MOL0     C 2305   8.047   3.660   4.097  0.4769  0.4118  0.6329
   18MOL0     C 2306   8.006   3.794   4.037  1.0814 -0.1591  0.3422
   18MOL0     C 2307   8.094   3.915   4.097 -0.8375 -0.0107  0.2605
   18MOL0     C 2308   8.085   4.041   4.018 -0.1218 -0.0485 -0.8037
   18MOL0     C 2309   8.114   4.170   4.111  0.5839 -0.0837  0.6571
   18MOL0     C 2310   8.118   4.302   4.033 -0.1019  0.1589 -0.4602
   18MOL0     C 2311   8.252   4.332   3.976 -0.5321 -0.1309  0.3681
   18MOL0     N 2312   8.239   4.463   3.911  0.3917  0.4456  0.7613
   18MOL0     C 2313   8.165   4.478   3.797  0.4517  0.0015  1.4297
   18MOL0     C 2314   8.192   4.606   3.764  0.5209 -0.1902 -0.4707
   18MOL0     C 2315   8.137   4.688   3.657  0.0085  0.2360 -0.1790
   18MOL0     C 2316   8.171   4.622   3.523  0.1354  0.0153  0.0570
   18MOL0     C 2317   8.322   4.626   3.494  0.0679 -0.8575  0.0922
   18MOL0     C 2318   8.358   4.591   3.351 -0.3492  1.0731  0.8930
   18MOL0     O 2319   8.490   4.637   3.312 -0.2978 -0.1224  0.9356
   18MOL0     C 2320   8.506   4.661   3.176 -0.2479  0.2342  1.1065
   18MOL0     C 2321   8.574   4.772   3.129 -0.4028  0.0734 -0.8368
   18MOL0     C 2322   8.578   4.800   2.988 -0.6676  0.2382 -0.0802
   18MOL0     C 2323   8.538   4.705   2.898 -0.3098 -1.2119 -0.9167
   18MOL0     C 2324   8.544   4.717   2.747  0.5746 -0.9230  0.4308
   18MOL0     O 2325   8.496   4.613   2.672  0.7893 -0.7796 -0.1520
   18MOL0     C 2326   8.470   4.629   2.544 -1.0952  0.0521  0.4770
   18MOL0     C 2327   8.390   4.739   2.487 -0.4858 -1.0018  0.0253
   18MOL0     C 2328   8.369   4.759   2.348  0.0411 -0.1688  0.5250
   18MOL0     C 2329   8.423   4.655   2.266 -0.7023 -0.1582  0.5332
   18MOL0     O 2330   8.397   4.662   2.124  0.0867 -0.5740 -1.0102
   18MOL0     C 2331   8.420   4.789   2.065 -0.2090 -0.8918  0.0171
   18MOL0     C 2332   8.445   4.783   1.920  0.6134 -0.6899 -0.3417
   18MOL0     C 2333   8.309   4.777   1.846  0.5478  0.8073  0.3149
   18MOL0     C 2334   8.318   4.814   1.695 -0.2584  0.0000  0.3421
   18MOL0     C 2335   8.183   4.835   1.622 -0.3954 -0.0450  1.2294
   18MOL0     C 2336   8.191   4.834   1.461  0.0689 -0.1826 -0.6084
   18MOL0     C 2337   8.097   4.945   1.411 -0.5162  0.1807  0.7244
   18MOL0     C 2338   8.130   4.999   1.276  0.2896 -0.3176  0.7457
   18MOL0    Cl 2339   8.014   5.129   1.247  0.0092 -0.1887 -0.2100
   18MOL0     C 2340   8.481   4.538   2.320 -0.2858 -1.0278  0.0529
   18MOL0     C 2341   8.503   4.523   2.458 -0.7769 -0.5455 -0.5603
   18MOL0     O 2342   8.593   4.820   2.699  0.1322  0.4006  0.0086
   18MOL0     C 2343   8.479   4.586   2.939 -0.6697  0.8153  1.0763
   18MOL0     C 2344   8.463   4.564   3.078  0.3436  0.6757 -0.2285
   18MOL0     N 2345   8.250   4.672   3.878  0.5873 -0.3615  0.8933
   18MOL0     N 2346   8.286   4.586   3.962 -0.2549  1.4210  0.0895
   18MOL0     C 2347   7.986   3.307   4.391 -0.2127  0.6207 -0.0672
   18MOL0     C 2348   7.931   3.234   4.495  1.1327 -0.1588  0.3228
   18MOL0     C 2349   7.608   3.116   4.771 -0.4672 -0.2120  0.0805
   18MOL0     C 2350   7.612   3.177   4.904  0.3209 -0.2906  0.6285
   18MOL0     C 2351   7.551   3.121   5.018 -0.5305 -0.6533  0.0050
   18MOL0     C 2352   7.468   3.007   4.997 -0.0665  0.1461 -0.0561
   18MOL0     O 2353   7.394   2.977   5.111  0.1780  0.4062 -0.3925
   18MOL0     C 2354   7.297   2.875   5.085 -0.6747  0.2351 -0.7417
   18MOL0     C 2355   7.188   2.870   5.198  0.4519  0.0497 -0.5461
   18MOL0     C 2356   7.243   2.803   5.314 -0.8061 -0.7305 -0.4292
   18MOL0     C 2357   7.136   2.768   5.416 -0.2765 -0.1863 -1.3473
   18MOL0     C 2358   7.038   2.674   5.374 -0.1839 -0.1082 -0.5223
   18MOL0     C 2359   6.947   2.599   5.346 -0.5735 -0.7163 -0.6816
   18MOL0     C 2360   7.465   2.937   4.866 -0.2485 -0.3028 -0.7697
   18MOL0     C 2361   7.527   2.996   4.755  0.2138  0.0385 -0.7509
   18MOL0     C 2362   7.525   2.918   4.626  0.3095 -0.7679  0.3865
   18MOL0     H 2363   7.838   3.484   4.692 -1.5954 -0.4070 -1.0112
   18MOL0     H 2364   7.953   3.615   4.492 -2.0011  0.0043 -1.6227
   18MOL0     H 2365   7.906   3.663   4.272 -0.4810 -2.7021  3.7050
   18MOL0     H 2366   8.078   3.690   4.314 -0.8085  2.8326 -2.0693
   18MOL0     H 2367   7.989   3.588   4.038 -1.9016 -0.3332  3.6440
   18MOL0     H 2368   8.154   3.635   4.088  0.1853 -0.7109 -0.0235
   18MOL0     H 2369   7.899   3.797   4.059  0.6221 -1.7780 -1.3747
   18MOL0     H 2370   7.993   3.788   3.928  0.2514  0.3356  0.4074
   18MOL0     H 2371   8.086   3.930   4.205  1.5699  1.6118  0.2786
   18MOL0     H 2372   8.200   3.890   4.084 -1.5158 -2.2481 -1.5993
   18MOL0     H 2373   8.158   4.039   3.937 -2.6729  1.9739 -3.4121
   18MOL0     H 2374   7.984   4.049   3.976 -0.5127  1.0323  0.2662
   18MOL0     H 2375   8.020   4.189   4.163  0.3865  3.2717 -0.6869
   18MOL0     H 2376   8.205   4.152   4.168  2.2775 -1.3927 -2.1981
   18MOL0     H 2377   8.110   4.380   4.109  0.8625  1.3283 -1.5070
   18MOL0     H 2378   8.039   4.301   3.957 -0.2403  0.7062 -0.3282
   18MOL0     H 2379   8.330   4.336   4.052 -0.5507  1.7112  0.3459
   18MOL0     H 2380   8.289   4.266   3.897  0.0650  0.7288 -0.0936
   18MOL0     H 2381   8.105   4.404   3.744  1.1023  0.9044 -0.6691
   18MOL0     H 2382   8.029   4.685   3.676 -0.0004  1.4298  0.0480
   18MOL0     H 2383   8.170   4.792   3.663 -3.4252  1.5422 -1.2623
   18MOL0     H 2384   8.139   4.519   3.509  1.9095 -0.3944 -1.3916
   18MOL0     H 2385   8.115   4.666   3.439 -0.3871 -4.6450 -2.3794
   18MOL0     H 2386   8.379   4.580   3.575 -0.6030 -0.7081  0.6581
   18MOL0     H 2387   8.348   4.733   3.495 -1.6921 -0.3928 -0.1541
   18MOL0     H 2388   8.280   4.640   3.291 -1.7326  0.2754  1.9826
   18MOL0     H 2389   8.352   4.483   3.334 -0.2003  0.4877  3.9386
   18MOL0     H 2390   8.605   4.851   3.197  0.1136 -1.1764  0.4300
   18MOL0     H 2391   8.626   4.892   2.954 -0.6274  0.3803  0.3511
   18MOL0     H 2392   8.368   4.814   2.562  4.8170  1.0692 -0.0561
   18MOL0     H 2393   8.314   4.847   2.315 -0.7407 -0.5807  0.7050
   18MOL0     H 2394   8.339   4.858   2.089  0.8885  1.0139 -1.4652
   18MOL0     H 2395   8.509   4.835   2.111  1.7082 -1.2401 -3.0468
   18MOL0     H 2396   8.502   4.876   1.911 -0.2072  0.3208  3.4023
   18MOL0     H 2397   8.507   4.710   1.866 -2.0709 -0.7056 -3.7531
   18MOL0     H 2398   8.256   4.685   1.870  0.9061 -0.1237 -2.2223
   18MOL0     H 2399   8.241   4.851   1.890 -1.2397 -0.4326 -0.2763
   18MOL0     H 2400   8.366   4.723   1.659 -2.3736 -1.7510  1.6747
   18MOL0     H 2401   8.388   4.898   1.686  4.2828 -2.7361  4.7164
   18MOL0     H 2402   8.137   4.930   1.654 -1.5009 -0.0495 -0.2144
   18MOL0     H 2403   8.105   4.761   1.645 -0.5473  0.5730  2.8147
   18MOL0     H 2404   8.285   4.867   1.417  0.4928  0.2137  0.5816
   18MOL0     H 2405   8.158   4.737   1.420 -2.0046  1.1212 -2.2491
   18MOL0     H 2406   8.098   5.025   1.486  1.3619  0.5174  0.3976
   18MOL0     H 2407   7.992   4.915   1.404 -1.2950  2.5181  1.5867
   18MOL0     H 2408   8.228   5.047   1.275 -0.4497  1.5236 -3.3361
   18MOL0     H 2409   8.109   4.921   1.203  0.7446  0.1081  0.1477
   18MOL0     H 2410   8.512   4.459   2.253  1.1729 -0.0109 -0.5202
   18MOL0     H 2411   8.545   4.429   2.493  0.7941  0.7107  1.1320
   18MOL0     H 2412   8.445   4.512   2.867  0.4567  4.2433 -3.4802
   18MOL0     H 2413   8.412   4.479   3.122 -0.5695  0.9102 -0.8074
   18MOL0     H 2414   8.025   3.269   4.297 -2.0189 -0.6972 -0.3455
   18MOL0     H 2415   7.919   3.127   4.486  0.7355 -0.0603 -0.3258
   18MOL0     H 2416   7.659   3.273   4.920 -2.1059  0.9613  0.5707
   18MOL0     H 2417   7.552   3.165   5.117 -4.1785  1.5988 -0.7693
   18MOL0     H 2418   7.339   2.774   5.080  1.6059  0.8301  2.5975
   18MOL0     H 2419   7.247   2.897   4.991  0.5623  0.7737 -1.2943
   18MOL0     H 2420   7.105   2.805   5.166 -0.4771  0.5505  0.7445
   18MOL0     H 2421   7.156   2.972   5.224  2.6755  0.8087 -0.6271
   18MOL0     H 2422   7.317   2.872   5.357  0.3929 -0.8924 -2.1111
   18MOL0     H 2423   7.304   2.717   5.285 -0.4574 -1.8297  3.1152
   18MOL0     H 2424   7.187   2.724   5.503 -2.5401 -4.1139 -1.7488
   18MOL0     H 2425   7.096   2.868   5.434  2.0427  0.9717 -2.2255
   18MOL0     H 2426   6.862   2.538   5.324 -0.2402 -2.1631  1.7079
   18MOL0     H 2427   7.407   2.846   4.852 -2.1432  0.4288  1.6125
   18MOL0     H 2428   7.628   2.898   4.596  0.1748  1.3596 -1.8468
   18MOL0     H 2429   7.495   2.813   4.631  2.9635 -1.5715  0.8507
   18MOL0     H 2430   7.465   2.968   4.549  1.1350  0.5139  0.5341
   19MOL0     O 2431   3.377   7.863   3.715  0.0920  0.0901 -0.6161
   19MOL0     C 2432   3.487   7.840   3.753  0.5253 -0.0743 -0.6986
   19MOL0     O 2433   3.598   7.904   3.702  0.8383  0.0307  0.2976
   19MOL0     C 2434   3.565   7.997   3.600 -0.2105  0.6304  0.0379
   19MOL0     C 2435   3.645   7.996   3.484 -0.0446  0.0481 -0.3302
   19MOL0     C 2436   3.615   8.087   3.383 -0.6676 -0.4291 -0.6851
   19MOL0     C 2437   3.515   8.187   3.394  0.7796  0.1698  0.5255
   19MOL0     O 2438   3.493   8.263   3.290 -1.0174 -0.0280 -0.2925
   19MOL0     C 2439   3.354   8.314   3.280 -0.6821 -0.0462 -0.6424
   19MOL0     C 2440   3.339   8.376   3.146 -0.5870  0.3700 -0.5268
   19MOL0     C 2441   3.209   8.449   3.116 -0.2122 -0.0606  0.0109
   19MOL0     C 2442   3.210   8.502   2.970 -0.5471  0.2005 -0.2575
   19MOL0     C 2443   3.096   8.603   2.939 -1.4469 -0.4264 -0.2031
   19MOL0     C 2444   3.130   8.743   2.984  0.6365 -0.8422  0.5166
   19MOL0     C 2445   3.024   8.858   2.968  0.7377  0.0736  0.1773
   19MOL0     C 2446   2.899   8.829   3.054  0.9303  0.5492  0.3857
   19MOL0     N 2447   2.790   8.932   3.058 -0.4510 -0.2617 -0.4634
   19MOL0     C 2448   2.774   8.996   3.182 -0.2178  0.1854 -0.0581
   19MOL0     C 2449   2.675   9.082   3.154  0.3622  0.1133  0.1379
   19MOL0     C 2450   2.591   9.151   3.251 -0.3629 -0.7142  0.1139
   19MOL0     C 2451   2.645   9.287   3.311 -0.1772 -0.4240  0.3581
   19MOL0     C 2452   2.656   9.387   3.196  0.8179 -0.1568 -0.3824
   19MOL0     C 2453   2.725   9.509   3.223  0.1939 -0.1502 -0.1404
   19MOL0     O 2454   2.664   9.579   3.333 -0.0266 -0.4101  0.1606
   19MOL0     C 2455   2.721   9.703   3.368 -0.4615  0.0336  0.6286
   19MOL0     C 2456   2.668   9.769   3.474 -0.3610 -0.2624  0.2904
   19MOL0     C 2457   2.718   9.892   3.507 -0.0960  0.4436  1.1404
   19MOL0     C 2458   2.829   9.953   3.441 -0.3164 -0.6389 -0.6283
   19MOL0     C 2459   2.884  10.080   3.492 -0.4037  0.2458 -1.1144
   19MOL0     O 2460   2.837  10.119   3.615 -0.4096  0.1882 -0.0127
   19MOL0     C 2461   2.892  10.227   3.683 -0.8987  0.5943  0.0261
   19MOL0     C 2462   2.817  10.272   3.793  0.6640  0.1178  1.0395
   19MOL0     C 2463   2.874  10.360   3.881  0.1886 -0.5757 -0.9178
   19MOL0     C 2464   2.995  10.430   3.859 -0.1711 -0.5648  0.3378
   19MOL0     O 2465   3.041  10.536   3.944 -0.3181  0.7572  0.4962
   19MOL0     C 2466   2.964  10.580   4.055  0.0069  0.3490 -0.1391
   19MOL0     C 2467   3.002  10.703   4.115 -0.5818 -0.1051 -0.2468
   19MOL0     C 2468   3.154  10.713   4.163 -0.1026 -0.0402  0.4064
   19MOL0     C 2469   3.172  10.831   4.256  0.3419  0.0028 -0.4576
   19MOL0     C 2470   3.143  10.791   4.402 -0.3207  0.4191  0.6243
   19MOL0     C 2471   3.266  10.724   4.472  0.3075 -0.0589  0.3913
   19MOL0     C 2472   3.241  10.709   4.621 -0.7252 -0.0435 -0.3043
   19MOL0     C 2473   3.308  10.834   4.694 -0.5244 -0.2041  0.4819
   19MOL0    Cl 2474   3.488  10.807   4.682  0.5070 -0.2156 -0.5361
   19MOL0     C 2475   3.066  10.395   3.746  0.2396 -0.5244  0.4508
   19MOL0     C 2476   3.021  10.296   3.663  1.4136  1.0978 -0.3648
   19MOL0     O 2477   2.967  10.141   3.426  0.3946 -0.1299  0.1839
   19MOL0     C 2478   2.894   9.884   3.339 -0.3034 -0.5299 -0.5695
   19MOL0     C 2479   2.837   9.753   3.304 -0.2054 -0.1301 -0.1823
   19MOL0     N 2480   2.654   9.080   3.013 -0.5901 -0.5796  0.0626
   19MOL0     N 2481   2.715   8.985   2.956  0.5336 -0.0946 -0.0790
   19MOL0     C 2482   3.449   8.200   3.518 -0.0449  0.1573 -1.0024
   19MOL0     C 2483   3.471   8.106   3.621 -0.3505 -0.1144 -0.4946
   19MOL0     C 2484   3.524   7.747   3.860 -0.2616 -0.3020  0.2991
   19MOL0     C 2485   3.661   7.717   3.893 -0.6588  0.0096 -0.8260
   19MOL0     C 2486   3.696   7.633   3.998  0.4286  0.6545 -0.2290
   19MOL0     C 2487   3.604   7.552   4.061 -0.1351 -0.0506 -0.1998
   19MOL0     O 2488   3.627   7.471   4.169  0.0100 -0.7008 -0.5104
   19MOL0     C 2489   3.743   7.496   4.251 -0.7860  1.0248 -0.1205
   19MOL0     C 2490   3.700   7.489   4.395 -0.2918  0.8985  0.4438
   19MOL0     C 2491   3.815   7.555   4.483 -0.5993  0.4373  0.7516
   19MOL0     C 2492   3.843   7.483   4.609 -0.2130 -0.8406  0.3648
   19MOL0     C 2493   3.957   7.557   4.672  0.2025  0.0636 -0.2685
   19MOL0     C 2494   4.038   7.601   4.762  0.5520  0.0563 -0.5604
   19MOL0     C 2495   3.471   7.580   4.023  0.2239  0.1681 -0.2914
   19MOL0     C 2496   3.427   7.666   3.924  0.5682  0.0875  0.9941
   19MOL0     C 2497   3.280   7.659   3.901 -0.7694  0.4256 -0.7153
   19MOL0     H 2498   3.729   7.929   3.466  2.0730  2.7858 -1.4903
   19MOL0     H 2499   3.681   8.078   3.297 -0.4373 -1.7244 -0.3954
   19MOL0     H 2500   3.284   8.230   3.290 -2.6624  1.3901 -1.7166
   19MOL0     H 2501   3.331   8.394   3.351  1.8102 -0.0921  0.3346
   19MOL0     H 2502   3.354   8.292   3.078  5.3269  1.2221 -0.7789
   19MOL0     H 2503   3.417   8.448   3.120 -1.9973  2.7183  1.3115
   19MOL0     H 2504   3.188   8.524   3.193 -1.1870 -0.0774 -0.2270
   19MOL0     H 2505   3.132   8.372   3.107  0.1839 -0.1801 -4.1563
   19MOL0     H 2506   3.313   8.534   2.956  1.0919 -3.4851  1.8917
   19MOL0     H 2507   3.215   8.416   2.903 -0.3267  0.1355 -0.1605
   19MOL0     H 2508   3.082   8.616   2.831  1.2763 -0.3014 -0.6172
   19MOL0     H 2509   3.001   8.570   2.983 -0.2870 -1.9168  1.3107
   19MOL0     H 2510   3.153   8.733   3.091  0.0639 -1.4453  0.5898
   19MOL0     H 2511   3.220   8.778   2.932 -0.7803 -0.5893 -1.8962
   19MOL0     H 2512   3.000   8.869   2.862  0.1059 -0.8273  0.2103
   19MOL0     H 2513   3.062   8.954   3.003  0.1369  0.4545 -0.2139
   19MOL0     H 2514   2.850   8.745   3.003 -0.0381  1.7505 -0.7330
   19MOL0     H 2515   2.917   8.815   3.161 -3.8103 -2.0282  1.1082
   19MOL0     H 2516   2.825   8.997   3.278  0.0125  0.6773 -0.1788
   19MOL0     H 2517   2.499   9.171   3.196  0.5357 -1.2639 -1.6558
   19MOL0     H 2518   2.564   9.083   3.333 -0.8355 -1.1919 -0.4300
   19MOL0     H 2519   2.575   9.325   3.385 -3.1135 -0.1998 -2.3366
   19MOL0     H 2520   2.746   9.277   3.353  0.0316  1.7724  0.4824
   19MOL0     H 2521   2.552   9.409   3.170 -0.1653 -1.2839  2.2279
   19MOL0     H 2522   2.693   9.339   3.105 -0.0008 -0.8021 -0.3906
   19MOL0     H 2523   2.729   9.564   3.129 -1.6434 -0.7926 -0.6362
   19MOL0     H 2524   2.827   9.487   3.256 -0.0725 -1.2971 -0.0546
   19MOL0     H 2525   2.587   9.725   3.531  1.4763 -3.8647  0.4117
   19MOL0     H 2526   2.672   9.952   3.586  1.2926  1.6518  1.0687
   19MOL0     H 2527   2.721  10.221   3.797 -0.0099  1.3674  1.0732
   19MOL0     H 2528   2.828  10.388   3.975  1.6433 -2.3999  0.4124
   19MOL0     H 2529   2.867  10.599   4.008  0.1842 -2.1127 -1.7069
   19MOL0     H 2530   2.948  10.500   4.128 -2.3605 -1.2119 -2.2084
   19MOL0     H 2531   2.973  10.778   4.041 -0.0832  0.4443  0.1070
   19MOL0     H 2532   2.928  10.716   4.194  0.9627  1.1427  1.0490
   19MOL0     H 2533   3.184  10.623   4.217  2.9029  2.3919  3.2424
   19MOL0     H 2534   3.213  10.719   4.071  0.1427  0.7400  0.6054
   19MOL0     H 2535   3.097  10.907   4.232 -1.8729 -1.4635  1.3589
   19MOL0     H 2536   3.276  10.865   4.252  2.2301 -4.7570  0.9356
   19MOL0     H 2537   3.052  10.730   4.402  0.1032 -0.3181 -1.8671
   19MOL0     H 2538   3.125  10.885   4.456  4.0335 -0.1950  3.7010
   19MOL0     H 2539   3.272  10.624   4.428 -1.1421  0.8652 -2.1807
   19MOL0     H 2540   3.363  10.772   4.459 -1.2266  2.5455 -3.1741
   19MOL0     H 2541   3.288  10.616   4.654  3.2817  2.5303  2.2022
   19MOL0     H 2542   3.133  10.707   4.639 -0.6884  2.6668  0.6663
   19MOL0     H 2543   3.278  10.929   4.649 -0.6952 -1.3712 -2.0617
   19MOL0     H 2544   3.270  10.843   4.797 -3.3541 -0.6268 -0.4211
   19MOL0     H 2545   3.154  10.449   3.714  1.9330 -2.5249  1.4701
   19MOL0     H 2546   3.075  10.284   3.570 -1.6561 -1.6159 -2.0044
   19MOL0     H 2547   2.985   9.921   3.294 -0.6027  3.3929  1.5416
   19MOL0     H 2548   2.891   9.700   3.226  1.3599 -1.4657  1.7313
   19MOL0     H 2549   3.386   8.283   3.548  0.3230 -0.2491  0.9811
   19MOL0     H 2550   3.436   8.101   3.723 -3.3234 -0.4404 -1.4265
   19MOL0     H 2551   3.743   7.776   3.854 -0.7492  0.7128  0.0152
   19MOL0     H 2552   3.801   7.621   4.021  0.6164  1.3248 -0.7268
   19MOL0     H 2553   3.793   7.591   4.233  1.7065 -0.2390 -0.3764
   19MOL0     H 2554   3.824   7.428   4.221 -0.8610  1.5563 -1.6251
   19MOL0     H 2555   3.675   7.384   4.415 -0.8356  1.4973  3.3256
   19MOL0     H 2556   3.612   7.551   4.416  0.4039  1.2540  2.5889
   19MOL0     H 2557   3.775   7.650   4.521 -3.3624 -0.2165 -0.2187
   19MOL0     H 2558   3.907   7.562   4.425  1.8432 -0.8806  4.1581
   19MOL0     H 2559   3.752   7.484   4.669 -1.2013 -1.4814 -1.0666
   19MOL0     H 2560   3.874   7.378   4.598  1.3858 -0.3377 -0.2731
   19MOL0     H 2561   4.109   7.629   4.838  1.3602  0.2147 -1.3582
   19MOL0     H 2562   3.399   7.514   4.071  0.9025  0.1854  0.8015
   19MOL0     H 2563   3.218   7.597   3.966 -2.9996  2.6215 -0.5984
   19MOL0     H 2564   3.246   7.752   3.948  1.8270 -0.3735  3.2430
   19MOL0     H 2565   3.263   7.650   3.793  5.7626 -0.3532 -2.0977
   20MOL0     O 2566   4.673   0.866   6.015 -0.4050  0.2254  0.7177
   20MOL0     C 2567   4.789   0.862   6.059 -0.2711  0.1886 -0.0868
   20MOL0     O 2568   4.885   0.760   6.032  0.0080  0.3906  0.0902
   20MOL0     C 2569   4.859   0.680   5.923 -0.7610  0.9642 -0.1624
   20MOL0     C 2570   4.878   0.730   5.792 -0.2797  0.3052 -0.3888
   20MOL0     C 2571   4.843   0.652   5.684 -0.4029 -0.9939 -0.3622
   20MOL0     C 2572   4.805   0.516   5.701 -0.4835  0.2399  0.4190
   20MOL0     O 2573   4.773   0.455   5.585  0.1824 -0.5803  0.0917
   20MOL0     C 2574   4.653   0.385   5.585  0.2546  0.3873 -1.0883
   20MOL0     C 2575   4.591   0.359   5.448  0.2140 -0.9812 -0.1645
   20MOL0     C 2576   4.668   0.258   5.358 -0.5979 -0.6841  0.7341
   20MOL0     C 2577   4.707   0.128   5.425 -0.6649  0.4323 -1.6248
   20MOL0     C 2578   4.730   0.012   5.327  0.2274  0.8462 -0.1544
   20MOL0     C 2579   4.862   0.039   5.239 -0.5286 -0.1706  1.2597
   20MOL0     C 2580   4.861  -0.042   5.099 -0.0971  0.1223  0.3404
   20MOL0     C 2581   4.956   0.022   4.998  0.4786 -0.9553 -0.7553
   20MOL0     N 2582   4.893   0.137   4.924  0.0002 -0.3676 -1.0547
   20MOL0     C 2583   4.827   0.113   4.805 -0.1286 -0.6118  0.4783
   20MOL0     C 2584   4.796   0.239   4.766 -0.3799 -0.6875 -0.5048
   20MOL0     C 2585   4.715   0.280   4.646 -0.2986  0.2102  0.0493
   20MOL0     C 2586   4.564   0.305   4.678 -0.6187  0.1315  0.1140
   20MOL0     C 2587   4.486   0.360   4.560 -0.4858 -0.7088 -0.2620
   20MOL0     C 2588   4.342   0.389   4.603 -0.1303  0.0723  0.4256
   20MOL0     O 2589   4.270   0.424   4.488 -0.0275 -0.2895 -0.4975
   20MOL0     C 2590   4.220   0.321   4.405 -0.2382 -0.9023  0.2718
   20MOL0     C 2591   4.139   0.365   4.296 -0.1406 -0.9627 -0.0959
   20MOL0     C 2592   4.075   0.270   4.218 -0.5415  0.0558  0.7062
   20MOL0     C 2593   4.107   0.128   4.235 -0.0933  0.2482  0.7021
   20MOL0     C 2594   4.034   0.024   4.153 -0.0958  1.4270  0.1463
   20MOL0     O 2595   3.897   0.038   4.123 -0.3109  0.0852 -0.1800
   20MOL0     C 2596   3.832  -0.046   4.035 -0.1944 -0.6208 -0.4950
   20MOL0     C 2597   3.713   0.012   3.982 -0.3589 -0.3465  0.3071
   20MOL0     C 2598   3.636  -0.061   3.895  0.1850 -0.9864 -0.3902
   20MOL0     C 2599   3.668  -0.189   3.857  0.2507  0.3447  0.1188
   20MOL0     O 2600   3.579  -0.246   3.774 -0.3029  0.0201  0.4062
   20MOL0     C 2601   3.621  -0.282   3.649  0.1148  0.8615  0.7138
   20MOL0     C 2602   3.549  -0.209   3.536  0.2632 -1.3405  0.3015
   20MOL0     C 2603   3.554  -0.294   3.394  1.1558  0.4163 -0.9286
   20MOL0     C 2604   3.430  -0.391   3.386  0.2307  0.1441 -0.4694
   20MOL0     C 2605   3.301  -0.323   3.369  1.4255 -0.6110  0.1113
   20MOL0     C 2606   3.293  -0.214   3.262  0.4040 -0.9151  1.2042
   20MOL0     C 2607   3.156  -0.207   3.178 -0.3894  0.8167  0.4842
   20MOL0     C 2608   3.150  -0.094   3.076  0.2294 -0.2174 -0.5576
   20MOL0    Cl 2609   3.073   0.052   3.146  0.0328 -0.1493 -0.6422
   20MOL0     C 2610   3.776  -0.252   3.916  0.2810  0.3209  0.3702
   20MOL0     C 2611   3.854  -0.183   4.007  0.1384  0.1602 -0.2755
   20MOL0     O 2612   4.099  -0.078   4.125  0.1755 -0.0553  0.8626
   20MOL0     C 2613   4.201   0.094   4.331 -0.1091 -0.6966  0.1527
   20MOL0     C 2614   4.248   0.185   4.422 -0.0732  0.4430 -0.5641
   20MOL0     N 2615   4.847   0.330   4.856  0.6381 -0.2257 -0.3804
   20MOL0     N 2616   4.896   0.267   4.955 -0.6283 -0.5518  0.0768
   20MOL0     C 2617   4.787   0.463   5.833 -0.3907  0.6179  0.4854
   20MOL0     C 2618   4.818   0.549   5.943 -0.2534 -0.5601 -0.4715
   20MOL0     C 2619   4.836   0.981   6.135  1.5292 -0.1660  0.9191
   20MOL0     C 2620   4.974   1.002   6.154  0.7707  0.3053  0.1525
   20MOL0     C 2621   5.028   1.120   6.218  0.3156  0.8227  0.2551
   20MOL0     C 2622   4.945   1.204   6.281  0.1542 -0.0898 -1.2949
   20MOL0     O 2623   5.001   1.313   6.345 -0.0986  0.0807 -0.2086
   20MOL0     C 2624   4.919   1.413   6.408  0.0835 -0.1202 -0.6594
   20MOL0     C 2625   4.999   1.514   6.483  0.2665  0.5674  0.7241
   20MOL0     C 2626   5.088   1.465   6.596 -0.5768  0.4791 -0.7349
   20MOL0     C 2627   5.193   1.572   6.627 -0.0546  1.0228  0.0063
   20MOL0     C 2628   5.272   1.537   6.745  0.4466 -0.4053  0.1846
   20MOL0     C 2629   5.350   1.511   6.833  0.5123 -0.1761  0.9777
   20MOL0     C 2630   4.806   1.184   6.265 -0.2849  0.2577  0.8787
   20MOL0     C 2631   4.750   1.080   6.193  0.0309 -0.1094  0.2882
   20MOL0     C 2632   4.599   1.071   6.200 -0.5487  0.9122 -0.6027
   20MOL0     H 2633   4.927   0.824   5.768  1.4774 -0.3341  0.5380
   20MOL0     H 2634   4.873   0.684   5.584 -0.0448 -1.3836 -0.3819
   20MOL0     H 2635   4.665   0.287   5.632 -4.7949  0.2434  0.4139
   20MOL0     H 2636   4.581   0.438   5.648 -0.4127 -1.9164  0.2154
   20MOL0     H 2637   4.595   0.459   5.406  0.0662 -1.2404 -0.8087
   20MOL0     H 2638   4.486   0.330   5.453  0.6469 -2.6598  0.1610
   20MOL0     H 2639   4.761   0.310   5.334  0.6147 -1.4503  3.4042
   20MOL0     H 2640   4.608   0.241   5.268  0.9968 -0.0240 -0.5047
   20MOL0     H 2641   4.799   0.140   5.484 -1.6137 -0.2141  0.0368
   20MOL0     H 2642   4.621   0.106   5.489  2.4540 -1.6015  2.3301
   20MOL0     H 2643   4.762  -0.072   5.389 -0.6846 -0.8702 -1.8937
   20MOL0     H 2644   4.636  -0.014   5.277 -1.2499  1.3079  2.1765
   20MOL0     H 2645   4.872   0.147   5.225  0.4021 -0.2115  1.5691
   20MOL0     H 2646   4.954   0.017   5.293  0.8487 -0.1560 -0.9778
   20MOL0     H 2647   4.765  -0.045   5.046 -0.4620  0.6368  0.9551
   20MOL0     H 2648   4.892  -0.145   5.118 -0.0550 -0.0621 -0.6814
   20MOL0     H 2649   5.044   0.064   5.046 -1.2232  2.1989 -0.1633
   20MOL0     H 2650   4.981  -0.056   4.925  1.5369 -2.2886  0.9421
   20MOL0     H 2651   4.800   0.021   4.755 -0.1070  1.0077 -2.7410
   20MOL0     H 2652   4.764   0.369   4.607  0.5525  0.1114  0.8635
   20MOL0     H 2653   4.720   0.197   4.575 -0.6148 -1.6091  2.0233
   20MOL0     H 2654   4.512   0.214   4.708 -0.7936  0.7717  1.8379
   20MOL0     H 2655   4.542   0.375   4.758  0.7601  0.0688  0.5733
   20MOL0     H 2656   4.504   0.290   4.478 -0.6134  1.7262 -2.5145
   20MOL0     H 2657   4.535   0.445   4.511  0.2636 -3.1109 -4.1742
   20MOL0     H 2658   4.345   0.476   4.669  0.3313 -1.0947  2.0106
   20MOL0     H 2659   4.300   0.305   4.660  0.3993  0.0601  0.8071
   20MOL0     H 2660   4.139   0.471   4.273 -0.1772 -1.3789 -2.2999
   20MOL0     H 2661   4.005   0.294   4.138  1.5657 -1.4677 -1.7826
   20MOL0     H 2662   3.693   0.117   4.005 -0.2631 -0.4924  1.0736
   20MOL0     H 2663   3.561  -0.014   3.831  2.9008  0.4350 -2.7290
   20MOL0     H 2664   3.730  -0.279   3.639  0.1323 -0.5150  0.2247
   20MOL0     H 2665   3.587  -0.385   3.631 -0.2372  1.5768 -3.8897
   20MOL0     H 2666   3.449  -0.184   3.573  0.2006 -0.7361 -0.2438
   20MOL0     H 2667   3.608  -0.117   3.527  0.7985 -1.6716  0.4385
   20MOL0     H 2668   3.565  -0.228   3.308  1.2231 -1.0328 -2.0649
   20MOL0     H 2669   3.646  -0.352   3.394  1.8629  1.5138 -0.2659
   20MOL0     H 2670   3.427  -0.455   3.475  1.5102 -1.9654 -1.8473
   20MOL0     H 2671   3.457  -0.457   3.302  0.7719 -0.6843  0.3373
   20MOL0     H 2672   3.261  -0.279   3.461 -0.1361 -2.7811  0.5433
   20MOL0     H 2673   3.222  -0.397   3.353 -0.8804  1.3763  1.5472
   20MOL0     H 2674   3.312  -0.120   3.315 -0.8553 -0.9682  1.8000
   20MOL0     H 2675   3.371  -0.230   3.187  1.0955  0.0951  1.6859
   20MOL0     H 2676   3.077  -0.202   3.253 -0.2852  0.4295  0.6205
   20MOL0     H 2677   3.135  -0.299   3.122  0.3518  0.9825 -0.0817
   20MOL0     H 2678   3.250  -0.076   3.034 -0.0610  0.4358 -0.9725
   20MOL0     H 2679   3.074  -0.130   3.007 -1.5224 -0.7868  1.5608
   20MOL0     H 2680   3.789  -0.359   3.898 -0.8769 -0.4111  3.3117
   20MOL0     H 2681   3.938  -0.236   4.051  0.0668 -0.8165 -1.2843
   20MOL0     H 2682   4.213  -0.011   4.356 -0.6662 -0.7312  0.3029
   20MOL0     H 2683   4.310   0.147   4.502  0.9684  0.7240 -1.2114
   20MOL0     H 2684   4.759   0.360   5.853  1.3920  0.5813  3.3034
   20MOL0     H 2685   4.804   0.511   6.044  0.1481 -0.7258 -0.4763
   20MOL0     H 2686   5.048   0.933   6.115 -1.4578 -0.5432 -2.9691
   20MOL0     H 2687   5.136   1.127   6.223  0.3060  2.4976 -1.0835
   20MOL0     H 2688   4.855   1.371   6.486 -0.5918  2.7299  0.4748
   20MOL0     H 2689   4.854   1.458   6.332 -0.3155 -0.2472 -0.3944
   20MOL0     H 2690   4.927   1.580   6.533  1.6003  2.9064 -0.2248
   20MOL0     H 2691   5.058   1.579   6.417 -2.3707  1.9212 -0.4601
   20MOL0     H 2692   5.116   1.360   6.581 -0.7206 -0.3803  3.6109
   20MOL0     H 2693   5.028   1.448   6.686  1.4587 -0.4744  0.5289
   20MOL0     H 2694   5.273   1.568   6.552 -0.3801 -2.0562 -0.3121
   20MOL0     H 2695   5.161   1.676   6.630  1.5507  1.5845 -0.9024
   20MOL0     H 2696   5.419   1.495   6.913  0.1410 -2.7761  0.8384
   20MOL0     H 2697   4.750   1.258   6.322 -2.1062  0.5003 -1.0986
   20MOL0     H 2698   4.569   1.168   6.239  1.5431  1.0399  0.8363
   20MOL0     H 2699   4.560   1.044   6.101  1.2164  1.2401 -1.4188
   20MOL0     H 2700   4.564   0.999   6.275  2.3010  1.5519  1.5007
   21MOL0     O 2701   7.706   1.760   3.665  0.3199 -0.6160 -1.3214
   21MOL0     C 2702   7.669   1.757   3.544 -0.6416 -1.1221  0.6408
   21MOL0     O 2703   7.732   1.841   3.444  0.1577 -1.0076  0.6891
   21MOL0     C 2704   7.829   1.928   3.489  0.0909  0.4989  0.3486
   21MOL0     C 2705   7.951   1.863   3.505 -0.3134 -0.2420 -0.0271
   21MOL0     C 2706   8.054   1.939   3.555 -0.0240  0.0842 -0.6067
   21MOL0     C 2707   8.032   2.078   3.577 -1.4575  0.4018 -1.6400
   21MOL0     O 2708   8.134   2.148   3.635 -0.4135 -0.0291  0.2593
   21MOL0     C 2709   8.129   2.288   3.664  0.0218  0.3271 -0.3206
   21MOL0     C 2710   8.270   2.325   3.714 -0.2870  0.0607  0.0734
   21MOL0     C 2711   8.315   2.204   3.808 -0.5797 -0.7352  0.1705
   21MOL0     C 2712   8.396   2.251   3.928 -0.2729  0.0365  0.2380
   21MOL0     C 2713   8.532   2.202   3.936 -0.0832  0.0647  0.1004
   21MOL0     C 2714   8.632   2.263   3.834  0.4893  0.1079  0.7317
   21MOL0     C 2715   8.624   2.407   3.806  1.1445  0.1114  0.0918
   21MOL0     C 2716   8.705   2.466   3.692 -0.1299 -0.5680  0.5057
   21MOL0     N 2717   8.847   2.411   3.707  0.3452  0.2823  0.5650
   21MOL0     C 2718   8.916   2.424   3.820 -0.2317 -0.1150 -0.5649
   21MOL0     C 2719   9.042   2.380   3.788 -0.0444  0.8026 -0.7078
   21MOL0     C 2720   9.174   2.379   3.857  0.0753 -0.0749 -0.7075
   21MOL0     C 2721   9.194   2.514   3.926  1.1009 -0.3711  0.0162
   21MOL0     C 2722   9.322   2.501   3.989  0.6872 -0.7417 -0.5888
   21MOL0     C 2723   9.396   2.628   4.030  0.1062  0.7120  0.8368
   21MOL0     O 2724   9.513   2.611   4.101 -0.4252  0.2179  0.4880
   21MOL0     C 2725   9.621   2.564   4.028 -1.2564 -0.2898 -0.9504
   21MOL0     C 2726   9.730   2.639   3.977  0.2600 -0.1254 -0.6871
   21MOL0     C 2727   9.836   2.580   3.902 -0.3883 -0.7905 -0.7365
   21MOL0     C 2728   9.847   2.447   3.878 -0.6975 -0.1719  0.9707
   21MOL0     C 2729   9.963   2.391   3.804  0.3546  0.4535  0.6060
   21MOL0     O 2730   9.966   2.260   3.775 -0.2140 -0.1738  0.4834
   21MOL0     C 2731  10.083   2.223   3.697  0.1387  0.6251 -0.8289
   21MOL0     C 2732  10.192   2.167   3.771 -0.1603  0.1918  0.1192
   21MOL0     C 2733  10.306   2.126   3.693 -0.1741  1.6174 -0.2288
   21MOL0     C 2734  10.308   2.127   3.552  0.4525  0.2109  0.1966
   21MOL0     O 2735  10.429   2.098   3.495  0.5029  0.1389  0.6953
   21MOL0     C 2736  10.436   1.979   3.423 -0.1576  0.5985 -0.2878
   21MOL0     C 2737  10.539   1.996   3.309  1.0078  0.4751  0.4029
   21MOL0     C 2738  10.479   2.064   3.183  0.2536  0.1388 -0.0636
   21MOL0     C 2739  10.569   2.064   3.060  0.4988  0.2823  0.2703
   21MOL0     C 2740  10.500   2.129   2.942  0.5072 -0.0265  0.3816
   21MOL0     C 2741  10.362   2.067   2.908  0.5464 -0.3989  0.1725
   21MOL0     C 2742  10.314   2.116   2.765 -0.1143  0.8187 -0.2357
   21MOL0     C 2743  10.233   2.251   2.775 -0.1915  0.2107  0.8697
   21MOL0    Cl 2744  10.145   2.286   2.625 -0.5849  0.2420 -0.7026
   21MOL0     C 2745  10.198   2.163   3.490  0.2708  0.2356  0.4474
   21MOL0     C 2746  10.082   2.209   3.559 -1.5466 -0.0501  0.8090
   21MOL0     O 2747  10.052   2.475   3.778  0.0356 -0.0314 -0.6853
   21MOL0     C 2748   9.745   2.370   3.920  0.0902  0.0907 -0.6021
   21MOL0     C 2749   9.640   2.422   4.003 -0.3198 -0.4503 -0.3040
   21MOL0     N 2750   9.041   2.321   3.658  0.0153 -0.1139 -0.6162
   21MOL0     N 2751   8.917   2.342   3.607  0.1538 -0.7759  0.3828
   21MOL0     C 2752   7.912   2.140   3.557  0.5418  0.6588 -0.6384
   21MOL0     C 2753   7.811   2.065   3.503  0.8552 -0.0404  0.6025
   21MOL0     C 2754   7.565   1.668   3.486  0.4473  0.8175 -0.1488
   21MOL0     C 2755   7.532   1.662   3.354  0.2204 -0.7610 -0.4208
   21MOL0     C 2756   7.446   1.572   3.295  0.1309 -0.2368 -0.7720
   21MOL0     C 2757   7.384   1.479   3.378  0.1599  0.6243  0.3652
   21MOL0     O 2758   7.293   1.399   3.320  0.4476  0.0826 -0.3670
   21MOL0     C 2759   7.346   1.306   3.222 -0.5660  0.3948 -0.1523
   21MOL0     C 2760   7.270   1.180   3.225  0.1654  0.3233  0.0883
   21MOL0     C 2761   7.309   1.078   3.334 -0.0463 -0.0649  1.1739
   21MOL0     C 2762   7.227   0.949   3.341 -0.1882 -0.0892  0.1935
   21MOL0     C 2763   7.295   0.878   3.452 -0.0213 -0.1260  0.3028
   21MOL0     C 2764   7.358   0.806   3.535  0.8596  0.1780 -0.1728
   21MOL0     C 2765   7.405   1.479   3.505  1.1036 -0.3591 -0.4438
   21MOL0     C 2766   7.489   1.576   3.572 -0.8086  0.4266  1.0168
   21MOL0     C 2767   7.504   1.561   3.720 -0.0124 -1.1710  0.3380
   21MOL0     H 2768   7.951   1.756   3.494  1.5235 -0.3515  0.5934
   21MOL0     H 2769   8.153   1.896   3.573  0.1666  0.4710 -0.7166
   21MOL0     H 2770   8.099   2.345   3.576 -0.5823  3.0721  1.5343
   21MOL0     H 2771   8.062   2.301   3.749  2.1114  0.0265  1.4535
   21MOL0     H 2772   8.271   2.411   3.781  2.8931 -0.9502  1.5010
   21MOL0     H 2773   8.341   2.342   3.632  1.9906 -0.2879  1.8746
   21MOL0     H 2774   8.379   2.134   3.753  0.3921 -0.6588  1.1602
   21MOL0     H 2775   8.228   2.157   3.855 -1.6924  2.3131  1.4076
   21MOL0     H 2776   8.399   2.357   3.955  1.0454  1.0916 -3.4673
   21MOL0     H 2777   8.336   2.217   4.013 -0.7857  0.2361 -0.0352
   21MOL0     H 2778   8.569   2.229   4.035 -0.8239 -0.1366  0.4448
   21MOL0     H 2779   8.532   2.093   3.936  0.8456  0.0282  1.7945
   21MOL0     H 2780   8.728   2.236   3.877  2.1063  0.8184 -2.1319
   21MOL0     H 2781   8.630   2.203   3.742  2.9457 -0.7133  1.1449
   21MOL0     H 2782   8.646   2.466   3.895  0.9596  0.2065  0.0756
   21MOL0     H 2783   8.519   2.436   3.795  0.1377 -2.6399  1.4136
   21MOL0     H 2784   8.662   2.443   3.594  4.7258  1.3634 -2.4530
   21MOL0     H 2785   8.705   2.576   3.700  0.0033 -0.5134 -0.1880
   21MOL0     H 2786   8.898   2.473   3.915 -0.4546  1.8135 -1.5526
   21MOL0     H 2787   9.175   2.297   3.930  0.6476  0.8567  0.3574
   21MOL0     H 2788   9.253   2.346   3.790 -1.7711  0.3317 -3.2206
   21MOL0     H 2789   9.194   2.603   3.862  1.1784  1.6986  2.6953
   21MOL0     H 2790   9.111   2.523   3.997  0.2513  0.9105 -1.0870
   21MOL0     H 2791   9.397   2.449   3.929  1.2533  0.1484 -0.6724
   21MOL0     H 2792   9.303   2.444   4.080  1.6754 -1.7222 -0.9781
   21MOL0     H 2793   9.337   2.687   4.101 -0.5055  0.9055  0.1826
   21MOL0     H 2794   9.410   2.684   3.937 -2.7414  0.8051  0.3701
   21MOL0     H 2795   9.738   2.746   3.992  2.0610 -0.6225  3.1447
   21MOL0     H 2796   9.904   2.658   3.868 -0.0285 -0.1078  1.4367
   21MOL0     H 2797  10.177   2.155   3.878 -2.4938  0.9475 -0.0555
   21MOL0     H 2798  10.393   2.082   3.740  0.5595 -2.2921 -4.5049
   21MOL0     H 2799  10.483   1.907   3.490  1.9382  1.3281 -0.8626
   21MOL0     H 2800  10.342   1.933   3.393  0.0580 -0.6597  0.8923
   21MOL0     H 2801  10.623   2.051   3.353 -0.4784  1.6585  1.8861
   21MOL0     H 2802  10.574   1.899   3.273  1.5501  1.3384 -1.5600
   21MOL0     H 2803  10.387   2.010   3.160  0.3156  0.7705 -1.9933
   21MOL0     H 2804  10.452   2.166   3.209 -2.6374 -0.6404  0.3547
   21MOL0     H 2805  10.614   1.965   3.048 -1.5941 -0.8021  0.8113
   21MOL0     H 2806  10.661   2.120   3.080  2.9474 -3.6603  1.1108
   21MOL0     H 2807  10.585   2.141   2.874  2.3941  0.4296  2.6964
   21MOL0     H 2808  10.486   2.232   2.976  2.0994  0.3956 -0.1481
   21MOL0     H 2809  10.368   1.958   2.912 -1.0224 -0.5021  0.3565
   21MOL0     H 2810  10.281   2.096   2.976 -1.3917  0.3291 -2.2724
   21MOL0     H 2811  10.244   2.038   2.732  0.9652 -0.5056  0.4944
   21MOL0     H 2812  10.394   2.122   2.691  2.6882  0.7869  2.5921
   21MOL0     H 2813  10.155   2.228   2.847 -0.3128  1.2320  1.0813
   21MOL0     H 2814  10.291   2.329   2.827  0.7445 -0.3948  0.7597
   21MOL0     H 2815  10.199   2.158   3.382  5.1309  3.1504  0.0868
   21MOL0     H 2816   9.990   2.219   3.502 -0.9724 -0.1861 -0.1653
   21MOL0     H 2817   9.751   2.263   3.905 -4.2053 -0.1373 -1.9947
   21MOL0     H 2818   9.577   2.351   4.056 -0.8686  1.8975  2.4540
   21MOL0     H 2819   7.897   2.244   3.583 -0.2403  0.5921 -0.7956
   21MOL0     H 2820   7.715   2.110   3.479  1.7044  0.2725 -2.7391
   21MOL0     H 2821   7.573   1.720   3.273 -0.0996 -0.8209 -0.6297
   21MOL0     H 2822   7.435   1.555   3.189  1.2910 -1.4645 -0.7103
   21MOL0     H 2823   7.450   1.279   3.242 -0.1296 -0.5919 -3.1942
   21MOL0     H 2824   7.341   1.349   3.121 -4.2181 -0.0622 -0.3238
   21MOL0     H 2825   7.278   1.137   3.124 -0.1652  1.8845 -0.6201
   21MOL0     H 2826   7.164   1.205   3.228  0.1709  0.3473  0.0938
   21MOL0     H 2827   7.295   1.126   3.432  0.0985  1.9280  0.2619
   21MOL0     H 2828   7.414   1.056   3.317 -0.4389  0.8664 -4.3693
   21MOL0     H 2829   7.124   0.975   3.368 -1.3099 -4.6746  1.1909
   21MOL0     H 2830   7.252   0.889   3.253 -0.7491  1.7084 -1.2502
   21MOL0     H 2831   7.422   0.755   3.605  2.9116  2.2356 -0.4328
   21MOL0     H 2832   7.348   1.416   3.573  0.1512  0.0052 -0.8905
   21MOL0     H 2833   7.406   1.532   3.761 -0.6536  1.9630  1.2438
   21MOL0     H 2834   7.585   1.489   3.735  1.0901 -0.6973 -2.6977
   21MOL0     H 2835   7.527   1.656   3.768  1.6994 -1.0700 -0.6380
   22MOL0     O 2836   6.249   9.139   0.096  0.6217 -0.0052  0.2977
   22MOL0     C 2837   6.198   9.252   0.076  0.5642  0.8279 -0.0410
   22MOL0     O 2838   6.143   9.285  -0.051 -0.2016 -0.6645 -0.3229
   22MOL0     C 2839   6.104   9.199  -0.148 -0.4488  0.9126 -0.2474
   22MOL0     C 2840   6.139   9.229  -0.283 -0.2599 -0.7327 -0.7616
   22MOL0     C 2841   6.103   9.140  -0.380 -0.0560  0.3128  0.0212
   22MOL0     C 2842   6.040   9.017  -0.352 -0.6305 -0.2931 -0.7553
   22MOL0     O 2843   6.003   8.927  -0.459 -0.7595  0.1024 -0.1584
   22MOL0     C 2844   5.927   8.992  -0.564 -0.4408  0.7621 -0.1760
   22MOL0     C 2845   5.867   8.876  -0.645  0.5853  0.4931  0.7119
   22MOL0     C 2846   5.850   8.899  -0.794 -0.1772  0.2408  0.8346
   22MOL0     C 2847   5.724   8.988  -0.807  0.3808  0.3993 -0.2100
   22MOL0     C 2848   5.709   9.054  -0.942  0.4350 -0.6547  0.4389
   22MOL0     C 2849   5.565   9.107  -0.956  0.7395 -0.2912  0.0640
   22MOL0     C 2850   5.531   9.225  -0.860  0.3581  0.7736 -0.7557
   22MOL0     C 2851   5.401   9.273  -0.918  0.3570 -0.2716  0.4530
   22MOL0     N 2852   5.327   9.359  -0.821  0.2045 -0.3902 -0.1396
   22MOL0     C 2853   5.369   9.490  -0.808  0.1605  1.1014  0.0142
   22MOL0     C 2854   5.306   9.528  -0.692  0.6952  0.6050 -0.2751
   22MOL0     C 2855   5.300   9.671  -0.649  0.5497 -0.1795 -0.2185
   22MOL0     C 2856   5.442   9.719  -0.598 -0.7328  0.2291  0.3103
   22MOL0     C 2857   5.440   9.742  -0.449  0.0679  0.6209  0.5552
   22MOL0     C 2858   5.375   9.871  -0.389  0.3019  0.0393  1.0266
   22MOL0     O 2859   5.432   9.980  -0.461 -0.2011  0.6337 -0.2555
   22MOL0     C 2860   5.410  10.114  -0.418 -0.2288 -0.1463 -0.3450
   22MOL0     C 2861   5.486  10.203  -0.485 -0.2340  0.5384 -0.4475
   22MOL0     C 2862   5.460  10.338  -0.468  0.1505 -0.5885  0.2570
   22MOL0     C 2863   5.366  10.397  -0.376 -0.2427 -0.3671 -0.1667
   22MOL0     C 2864   5.354  10.546  -0.375  0.5479  0.2016 -1.0498
   22MOL0     O 2865   5.279  10.595  -0.267  0.7283 -0.5446 -0.1742
   22MOL0     C 2866   5.295  10.729  -0.216 -0.2516  0.5469 -1.1424
   22MOL0     C 2867   5.194  10.781  -0.133  0.1750  0.6062  0.1937
   22MOL0     C 2868   5.199  10.914  -0.082 -0.7061  0.8123 -0.4334
   22MOL0     C 2869   5.296  10.997  -0.116 -0.2361  0.9272 -0.2126
   22MOL0     O 2870   5.291  11.127  -0.093 -1.0314 -0.2580  0.7892
   22MOL0     C 2871   5.242  11.215  -0.193  0.0054  0.7044 -0.3729
   22MOL0     C 2872   5.287  11.352  -0.182 -0.5844  0.3543 -0.9465
   22MOL0     C 2873   5.272  11.399  -0.042 -0.2301 -0.0219 -0.1498
   22MOL0     C 2874   5.310  11.546  -0.044 -0.8509 -0.0977  0.4135
   22MOL0     C 2875   5.187  11.631  -0.094 -0.0894  0.3107 -0.1463
   22MOL0     C 2876   5.221  11.784  -0.093  0.3700 -0.0599 -0.2982
   22MOL0     C 2877   5.108  11.879  -0.109  0.2579 -1.1268  0.6796
   22MOL0     C 2878   5.173  12.016  -0.116  0.2924 -0.6504  0.2444
   22MOL0    Cl 2879   5.038  12.123  -0.115 -0.0440 -0.3796 -0.7549
   22MOL0     C 2880   5.403  10.951  -0.193 -0.4326  0.9229  0.8396
   22MOL0     C 2881   5.404  10.813  -0.242 -1.5869 -0.2047 -1.0227
   22MOL0     O 2882   5.397  10.612  -0.467  0.9537 -0.4117 -0.2074
   22MOL0     C 2883   5.301  10.298  -0.294 -0.7949 -0.3482 -0.1773
   22MOL0     C 2884   5.341  10.166  -0.302  0.7205 -1.0676 -0.0476
   22MOL0     N 2885   5.224   9.422  -0.653  0.0432  0.2847 -0.0917
   22MOL0     N 2886   5.227   9.324  -0.739 -0.5938 -0.2197 -0.8919
   22MOL0     C 2887   6.011   8.991  -0.218  0.1380 -0.3373 -0.9123
   22MOL0     C 2888   6.042   9.083  -0.115  0.2462 -0.0656 -0.5693
   22MOL0     C 2889   6.199   9.370   0.173 -0.2194 -0.0624 -0.4442
   22MOL0     C 2890   6.317   9.374   0.255  0.4489  0.1858  0.9119
   22MOL0     C 2891   6.332   9.482   0.337  0.6070 -0.0642  0.3372
   22MOL0     C 2892   6.243   9.582   0.351 -0.1226 -0.4007 -0.5665
   22MOL0     O 2893   6.262   9.705   0.410  0.1100 -0.6375  0.5928
   22MOL0     C 2894   6.370   9.715   0.510 -0.1643 -0.2768  0.0038
   22MOL0     C 2895   6.330   9.668   0.651 -0.2814 -0.7453 -1.2159
   22MOL0     C 2896   6.241   9.769   0.737  0.2109  0.0747 -0.1977
   22MOL0     C 2897   6.089   9.720   0.746  0.7319 -0.4436 -0.2853
   22MOL0     C 2898   5.987   9.831   0.787 -1.0462  0.3234  0.0797
   22MOL0     C 2899   5.922   9.928   0.824  0.3001 -0.0135 -0.6938
   22MOL0     C 2900   6.131   9.568   0.273 -0.0904 -0.2887 -0.2371
   22MOL0     C 2901   6.102   9.471   0.180  0.4585 -0.5841  0.8346
   22MOL0     C 2902   5.962   9.476   0.104 -0.8691  0.1556 -1.2068
   22MOL0     H 2903   6.187   9.322  -0.309 -4.3195  1.7265 -0.4096
   22MOL0     H 2904   6.121   9.166  -0.484 -3.0080  0.2521 -0.5929
   22MOL0     H 2905   5.853   9.056  -0.515  1.5500  1.3904  2.1855
   22MOL0     H 2906   5.986   9.053  -0.633 -4.4574  2.2897 -2.6137
   22MOL0     H 2907   5.773   8.851  -0.594  1.5664  1.1982  3.0175
   22MOL0     H 2908   5.921   8.783  -0.627 -1.9209 -0.4996  4.3515
   22MOL0     H 2909   5.832   8.805  -0.846  0.1173 -0.2321  1.5755
   22MOL0     H 2910   5.939   8.951  -0.832 -0.2161  3.0967  4.1094
   22MOL0     H 2911   5.633   8.932  -0.784 -1.5174  3.2044 -0.3529
   22MOL0     H 2912   5.736   9.065  -0.730 -1.1427 -1.5462  2.1271
   22MOL0     H 2913   5.779   9.138  -0.946  1.0957 -1.2265 -0.3297
   22MOL0     H 2914   5.743   8.983  -1.017 -0.0603 -1.4136  0.9198
   22MOL0     H 2915   5.558   9.158  -1.053  0.0954 -2.5729 -1.1661
   22MOL0     H 2916   5.489   9.028  -0.955 -0.2572  0.6260  1.6405
   22MOL0     H 2917   5.597   9.312  -0.858  0.2504  0.8432  0.3058
   22MOL0     H 2918   5.517   9.189  -0.758 -0.3253 -2.5453 -1.8910
   22MOL0     H 2919   5.409   9.333  -1.009 -1.1395  1.9439  1.7007
   22MOL0     H 2920   5.348   9.181  -0.942 -0.0743 -0.3261  1.5444
   22MOL0     H 2921   5.435   9.559  -0.861 -2.0968  0.1957 -4.4881
   22MOL0     H 2922   5.278   9.746  -0.726 -0.2269 -1.2253 -1.0367
   22MOL0     H 2923   5.226   9.687  -0.571  0.6479  4.8393 -0.8332
   22MOL0     H 2924   5.523   9.647  -0.615 -0.8607  0.0758  0.3488
   22MOL0     H 2925   5.468   9.812  -0.650 -1.5492  1.6021  2.2302
   22MOL0     H 2926   5.543   9.741  -0.413 -0.4480 -0.3170  2.1006
   22MOL0     H 2927   5.400   9.656  -0.394  2.3034 -0.6551  0.2888
   22MOL0     H 2928   5.403   9.888  -0.285 -0.2520  1.1499  1.0126
   22MOL0     H 2929   5.266   9.875  -0.400  0.2687 -2.2769 -0.0833
   22MOL0     H 2930   5.564  10.165  -0.550 -0.0428 -2.1851  1.1953
   22MOL0     H 2931   5.520  10.412  -0.520  1.2785  0.4104  2.8048
   22MOL0     H 2932   5.100  10.733  -0.106 -0.6453  1.0961 -1.6087
   22MOL0     H 2933   5.125  10.950  -0.012  2.3242  0.8633  3.0413
   22MOL0     H 2934   5.264  11.184  -0.296 -1.0072 -0.2471 -0.3211
   22MOL0     H 2935   5.135  11.204  -0.172  0.5238 -0.6639  1.7968
   22MOL0     H 2936   5.393  11.351  -0.210  0.3542 -0.0796  2.3044
   22MOL0     H 2937   5.240  11.419  -0.255 -2.8221  0.3591  0.4187
   22MOL0     H 2938   5.172  11.373  -0.007 -0.1584 -0.9788 -0.6385
   22MOL0     H 2939   5.352  11.356   0.019 -0.1127  0.3506 -0.0366
   22MOL0     H 2940   5.398  11.568  -0.104 -1.0007  0.3358  0.3514
   22MOL0     H 2941   5.329  11.576   0.060  2.3907  0.5095 -0.2538
   22MOL0     H 2942   5.103  11.617  -0.025 -0.9012 -1.3395 -1.3967
   22MOL0     H 2943   5.166  11.609  -0.199 -1.4715 -3.1479  0.7270
   22MOL0     H 2944   5.266  11.803   0.005 -0.8669 -0.7281  0.4376
   22MOL0     H 2945   5.299  11.789  -0.169  1.1927  0.5667  0.5595
   22MOL0     H 2946   5.038  11.871  -0.025  2.5261 -0.9091  2.7015
   22MOL0     H 2947   5.048  11.882  -0.200  0.4709 -3.2691  0.4146
   22MOL0     H 2948   5.242  12.034  -0.033  2.0271  1.0173 -1.4566
   22MOL0     H 2949   5.229  12.021  -0.209 -0.3796 -0.4548 -0.1615
   22MOL0     H 2950   5.485  11.021  -0.196 -0.3992  0.8374 -0.4226
   22MOL0     H 2951   5.488  10.769  -0.295  1.0651 -1.1209  3.4563
   22MOL0     H 2952   5.221  10.322  -0.225 -2.7728 -0.9060 -2.1597
   22MOL0     H 2953   5.292  10.103  -0.228  1.4153  0.1152  1.4809
   22MOL0     H 2954   5.983   8.888  -0.198  4.2705 -0.8502  4.5444
   22MOL0     H 2955   6.006   9.061  -0.015  1.4315  0.8081  0.0683
   22MOL0     H 2956   6.399   9.303   0.249  1.1334  0.5854  4.0083
   22MOL0     H 2957   6.432   9.503   0.374 -0.0929  5.7931 -0.1318
   22MOL0     H 2958   6.401   9.820   0.518 -4.3091  1.2450 -1.2452
   22MOL0     H 2959   6.460   9.659   0.484  0.4591  0.1184  1.2086
   22MOL0     H 2960   6.421   9.654   0.710 -1.3987  2.4157  1.6346
   22MOL0     H 2961   6.274   9.575   0.640 -1.7395 -0.3497  1.7850
   22MOL0     H 2962   6.246   9.868   0.691  3.2451  0.1074  0.0178
   22MOL0     H 2963   6.278   9.770   0.840  0.6553  0.4831 -0.3564
   22MOL0     H 2964   6.067   9.680   0.647 -0.3724 -1.4211  0.3173
   22MOL0     H 2965   6.066   9.636   0.813 -0.1973  1.1847  1.5670
   22MOL0     H 2966   5.865  10.001   0.878 -2.0077 -2.5630  0.5755
   22MOL0     H 2967   6.059   9.649   0.284 -0.3633 -0.7760  2.5087
   22MOL0     H 2968   5.967   9.540   0.015  1.3129  1.2895 -0.3328
   22MOL0     H 2969   5.931   9.374   0.081 -0.2920 -0.8161  1.8385
   22MOL0     H 2970   5.884   9.516   0.171  0.9233  4.9196 -1.5579
   23MOL0     O 2971   3.742   2.873   0.033  0.0746  0.1156  0.2418
   23MOL0     C 2972   3.634   2.899   0.078  0.1670 -0.1045 -0.5628
   23MOL0     O 2973   3.552   2.808   0.140 -0.0019 -0.4963 -0.4168
   23MOL0     C 2974   3.573   2.676   0.133  0.1639 -0.1797  0.1635
   23MOL0     C 2975   3.510   2.592   0.231  0.3348  0.1438  0.1771
   23MOL0     C 2976   3.542   2.455   0.232 -0.6658  0.5321  0.0959
   23MOL0     C 2977   3.614   2.394   0.128 -0.0391 -0.2476 -0.0216
   23MOL0     O 2978   3.631   2.258   0.148 -0.5115 -0.1724 -0.5424
   23MOL0     C 2979   3.728   2.192   0.053 -0.6898  0.0530 -0.5551
   23MOL0     C 2980   3.811   2.080   0.112  0.5218 -0.2212  0.5897
   23MOL0     C 2981   3.938   2.038   0.031  0.4828  0.5143  0.4354
   23MOL0     C 2982   3.996   1.902   0.073 -0.4345 -0.4302  0.7049
   23MOL0     C 2983   4.136   1.891   0.019 -0.3049 -0.7426 -0.2848
   23MOL0     C 2984   4.147   1.827  -0.124  0.4020  0.5195  1.3659
   23MOL0     C 2985   4.179   1.925  -0.239  0.4083 -0.0989 -0.0639
   23MOL0     C 2986   4.061   1.962  -0.338  0.0098 -0.0554  0.2668
   23MOL0     N 2987   4.118   2.035  -0.448  0.4275 -0.0105  0.3615
   23MOL0     C 2988   4.200   2.145  -0.431 -0.4634  0.6794  0.3727
   23MOL0     C 2989   4.237   2.181  -0.563 -0.8130  0.7765  0.0474
   23MOL0     C 2990   4.335   2.295  -0.589 -0.3524  0.4472 -0.1220
   23MOL0     C 2991   4.485   2.255  -0.560  0.5360 -0.0093 -1.3884
   23MOL0     C 2992   4.557   2.139  -0.625  0.3884  0.7350 -0.9497
   23MOL0     C 2993   4.658   2.178  -0.727 -0.0521 -0.0568 -0.3244
   23MOL0     O 2994   4.751   2.069  -0.762  0.6326 -0.4262 -0.1213
   23MOL0     C 2995   4.856   2.113  -0.845 -0.6074  0.1259  0.8443
   23MOL0     C 2996   4.971   2.053  -0.826  0.0487  0.6543  0.2407
   23MOL0     C 2997   5.085   2.078  -0.898  0.8198  0.2223 -0.1551
   23MOL0     C 2998   5.083   2.180  -0.989  0.2987  0.1702  0.2810
   23MOL0     C 2999   5.209   2.215  -1.061 -0.9270  0.4299 -1.0963
   23MOL0     O 3000   5.230   2.345  -1.096 -0.3468 -0.1642 -0.5934
   23MOL0     C 3001   5.338   2.370  -1.175  0.1619 -0.4133  0.0135
   23MOL0     C 3002   5.397   2.496  -1.152 -0.5491  0.4640 -0.7033
   23MOL0     C 3003   5.522   2.528  -1.212  0.6913 -1.0086  0.5572
   23MOL0     C 3004   5.585   2.445  -1.300 -0.5275  1.6433 -0.4003
   23MOL0     O 3005   5.697   2.490  -1.362  0.3480  0.0948 -0.2259
   23MOL0     C 3006   5.736   2.433  -1.487  0.2853  0.9067  0.5445
   23MOL0     C 3007   5.856   2.504  -1.555 -0.0046  0.2767 -0.4640
   23MOL0     C 3008   5.963   2.503  -1.445 -0.1383 -0.3528 -0.7574
   23MOL0     C 3009   5.975   2.635  -1.361 -0.2266  0.8594 -0.1967
   23MOL0     C 3010   6.053   2.615  -1.226  0.1077  0.6659  0.9800
   23MOL0     C 3011   6.127   2.741  -1.172  0.2126  0.1240 -0.0902
   23MOL0     C 3012   6.143   2.721  -1.019  0.4321  0.2104 -0.4921
   23MOL0     C 3013   6.219   2.845  -0.971 -0.7215  0.0188  0.6195
   23MOL0    Cl 3014   6.130   2.998  -0.973 -0.0982 -0.4339  0.1545
   23MOL0     C 3015   5.520   2.327  -1.336  1.1378  0.7882  0.2634
   23MOL0     C 3016   5.404   2.284  -1.270 -0.4099 -0.0818 -0.6433
   23MOL0     O 3017   5.303   2.134  -1.041 -0.4555  0.9189  0.8885
   23MOL0     C 3018   4.967   2.253  -1.009  0.3002 -0.6563  0.4733
   23MOL0     C 3019   4.856   2.221  -0.932 -0.7619  1.1735 -0.4048
   23MOL0     N 3020   4.174   2.093  -0.644 -0.1223  0.1045  0.2990
   23MOL0     N 3021   4.089   2.020  -0.583 -0.3831 -0.0710 -0.2874
   23MOL0     C 3022   3.660   2.479   0.021  0.1307 -0.3241  1.3712
   23MOL0     C 3023   3.635   2.615   0.022 -0.1059  0.3020  0.6701
   23MOL0     C 3024   3.573   3.045   0.044  0.2196  0.8828  0.2607
   23MOL0     C 3025   3.660   3.149   0.007 -0.5819 -0.5516  0.1103
   23MOL0     C 3026   3.631   3.284  -0.001 -0.4363  0.6411 -0.3536
   23MOL0     C 3027   3.511   3.336   0.041  1.2934  0.7592  0.7220
   23MOL0     O 3028   3.500   3.474   0.049  1.2318  0.3774 -0.3892
   23MOL0     C 3029   3.385   3.529   0.127 -0.2281 -0.9032 -0.1701
   23MOL0     C 3030   3.258   3.552   0.044  0.2144  0.3300  0.0814
   23MOL0     C 3031   3.154   3.654   0.102 -0.4687  0.6019 -1.1192
   23MOL0     C 3032   3.091   3.605   0.226 -0.0225  1.1560 -0.2478
   23MOL0     C 3033   2.983   3.677   0.284  1.8558  0.2060  0.4487
   23MOL0     C 3034   2.883   3.736   0.331  0.3098 -0.2755  0.4363
   23MOL0     C 3035   3.421   3.232   0.075  0.3522 -0.1280  0.1241
   23MOL0     C 3036   3.440   3.092   0.067 -0.7349 -0.2476  0.1510
   23MOL0     C 3037   3.323   3.007   0.103 -0.2747 -0.7620 -0.4333
   23MOL0     H 3038   3.470   2.630   0.324  1.8916 -2.2056  1.9282
   23MOL0     H 3039   3.498   2.393   0.309  0.4815  0.7832  0.9828
   23MOL0     H 3040   3.668   2.131  -0.017  0.5330  0.0263 -1.6139
   23MOL0     H 3041   3.797   2.261   0.005  0.6743 -1.3255 -0.6415
   23MOL0     H 3042   3.748   1.992   0.129 -2.1333  1.4124 -0.2180
   23MOL0     H 3043   3.845   2.115   0.210 -0.9471 -1.4208  1.5667
   23MOL0     H 3044   4.017   2.108   0.061  0.7824 -0.7850  2.9393
   23MOL0     H 3045   3.920   2.043  -0.077  1.8115 -1.4257  0.0891
   23MOL0     H 3046   3.990   1.887   0.181  1.7215 -1.8331  0.6918
   23MOL0     H 3047   3.932   1.825   0.028 -2.3411  1.1893  0.5322
   23MOL0     H 3048   4.185   1.988   0.013 -3.1099  0.7484 -0.7751
   23MOL0     H 3049   4.199   1.841   0.093  0.6832 -0.8864 -1.1970
   23MOL0     H 3050   4.230   1.755  -0.124  1.1707  1.1032 -2.9000
   23MOL0     H 3051   4.054   1.771  -0.129 -1.0317  2.6681  2.5729
   23MOL0     H 3052   4.274   1.903  -0.289  0.7216 -0.2857  0.5969
   23MOL0     H 3053   4.200   2.021  -0.191 -1.0222 -0.2739  0.9706
   23MOL0     H 3054   4.015   1.872  -0.380  0.7660  0.6277 -2.2200
   23MOL0     H 3055   3.979   2.016  -0.291 -0.1911 -0.0151 -0.1250
   23MOL0     H 3056   4.220   2.194  -0.336  0.3501 -0.8673  1.0234
   23MOL0     H 3057   4.332   2.329  -0.693  1.7401 -0.0620 -0.3985
   23MOL0     H 3058   4.285   2.372  -0.529 -3.3915  0.4952 -2.4583
   23MOL0     H 3059   4.539   2.349  -0.577 -1.8508  1.7330  0.0517
   23MOL0     H 3060   4.493   2.239  -0.452 -0.5460 -3.0342 -1.6859
   23MOL0     H 3061   4.490   2.057  -0.654  0.0295  0.2838  1.0014
   23MOL0     H 3062   4.631   2.101  -0.554  0.9316 -0.0758 -1.9329
   23MOL0     H 3063   4.715   2.269  -0.705  1.2606 -0.4380 -1.9061
   23MOL0     H 3064   4.599   2.215  -0.811 -3.7601  2.9370  3.2076
   23MOL0     H 3065   4.987   1.964  -0.766 -0.1548  0.7516  0.4419
   23MOL0     H 3066   5.179   2.027  -0.877  0.6763 -0.5766 -1.3530
   23MOL0     H 3067   5.346   2.564  -1.085  0.8902 -1.6774  2.8238
   23MOL0     H 3068   5.564   2.625  -1.189 -0.3949  0.0206 -1.4722
   23MOL0     H 3069   5.763   2.328  -1.469 -1.1348  0.0953 -1.5968
   23MOL0     H 3070   5.646   2.442  -1.547  0.7225  3.0360  0.1223
   23MOL0     H 3071   5.892   2.442  -1.638  1.6462  1.4122 -0.6327
   23MOL0     H 3072   5.830   2.603  -1.593 -1.2629  0.8763  1.7590
   23MOL0     H 3073   5.950   2.417  -1.379  0.5009 -0.1786 -0.3961
   23MOL0     H 3074   6.065   2.500  -1.485  0.7454 -1.6401  1.4213
   23MOL0     H 3075   5.872   2.663  -1.340  0.0055  2.4827 -1.0371
   23MOL0     H 3076   6.023   2.712  -1.423 -1.2034  0.1073 -1.9505
   23MOL0     H 3077   6.122   2.532  -1.239 -0.0728  0.4245  1.5454
   23MOL0     H 3078   5.974   2.584  -1.157 -0.9674 -1.4656 -1.0814
   23MOL0     H 3079   6.220   2.755  -1.228 -0.4686  1.3424 -0.9813
   23MOL0     H 3080   6.067   2.832  -1.188 -0.7894 -0.3372  0.8988
   23MOL0     H 3081   6.192   2.627  -0.993 -1.8836 -1.4932 -1.8551
   23MOL0     H 3082   6.044   2.715  -0.972  0.4384  0.1378 -0.4878
   23MOL0     H 3083   6.242   2.831  -0.864  1.3798 -0.9174  0.1078
   23MOL0     H 3084   6.314   2.854  -1.026 -1.8734  1.7419 -1.2115
   23MOL0     H 3085   5.565   2.257  -1.406 -0.2389 -1.6016  1.6402
   23MOL0     H 3086   5.361   2.184  -1.278  0.0377 -0.3023 -0.3041
   23MOL0     H 3087   4.963   2.344  -1.068  3.7287 -1.2994 -0.9934
   23MOL0     H 3088   4.776   2.292  -0.951  0.0778  2.4909  0.7351
   23MOL0     H 3089   3.704   2.443  -0.072 -1.2526  1.6166 -0.1037
   23MOL0     H 3090   3.668   2.680  -0.058 -1.8782  0.0674 -0.2890
   23MOL0     H 3091   3.761   3.113  -0.013 -1.4302 -3.0929  0.0695
   23MOL0     H 3092   3.706   3.356  -0.032  0.4339  0.4749  1.2309
   23MOL0     H 3093   3.411   3.633   0.150 -0.1969 -0.5431 -1.7175
   23MOL0     H 3094   3.368   3.474   0.220  0.2477 -1.9124 -0.6694
   23MOL0     H 3095   3.212   3.458   0.013  1.2927 -0.2359  0.1461
   23MOL0     H 3096   3.292   3.601  -0.048  0.9854  0.9226  0.6658
   23MOL0     H 3097   3.078   3.675   0.026  0.4613  2.7629 -1.5333
   23MOL0     H 3098   3.214   3.738   0.138  0.7545 -0.9977  0.8253
   23MOL0     H 3099   3.059   3.502   0.210  0.8284  1.0973 -1.7424
   23MOL0     H 3100   3.164   3.602   0.307  0.8696 -0.6326 -1.0623
   23MOL0     H 3101   2.796   3.785   0.370 -1.3776 -2.3475 -0.5303
   23MOL0     H 3102   3.323   3.270   0.103  1.4907  2.8071  0.5818
   23MOL0     H 3103   3.236   3.048   0.051  0.5733  2.1197  0.2089
   23MOL0     H 3104   3.333   2.902   0.074 -0.3279 -1.1943  1.0619
   23MOL0     H 3105   3.305   3.007   0.210  1.3865 -1.5679 -0.1161
   24MOL0     O 3106   6.646   6.349   6.937  0.2832 -0.2508  0.4263
   24MOL0     C 3107   6.583   6.325   6.834 -0.0907 -0.6604 -0.2974
   24MOL0     O 3108   6.627   6.242   6.737  0.1608  0.5738 -0.1404
   24MOL0     C 3109   6.744   6.168   6.743 -0.1068  0.7969 -1.4664
   24MOL0     C 3110   6.808   6.130   6.628  0.5277 -0.8806 -0.7658
   24MOL0     C 3111   6.938   6.067   6.628 -0.5802 -0.0912 -0.3553
   24MOL0     C 3112   7.003   6.037   6.753  0.4444  0.0010  0.0237
   24MOL0     O 3113   7.125   5.970   6.768  0.4951  0.3404  0.4946
   24MOL0     C 3114   7.206   5.951   6.649  0.2809  0.8251 -0.4973
   24MOL0     C 3115   7.323   6.040   6.648  0.2193 -0.1047  0.3768
   24MOL0     C 3116   7.440   5.997   6.541 -0.7693 -0.2392 -0.2016
   24MOL0     C 3117   7.565   6.094   6.576 -0.0410 -0.1287 -0.2958
   24MOL0     C 3118   7.659   6.090   6.465 -0.3484 -0.3621  0.6096
   24MOL0     C 3119   7.785   6.170   6.500 -0.4473  0.0381 -0.8902
   24MOL0     C 3120   7.880   6.156   6.382  0.0491  0.2528 -0.7624
   24MOL0     C 3121   8.008   6.233   6.414  0.0582  0.2557 -0.8665
   24MOL0     N 3122   8.098   6.228   6.304 -1.2152 -0.1709  0.3740
   24MOL0     C 3123   8.093   6.307   6.192 -0.3228 -0.2869  0.0496
   24MOL0     C 3124   8.201   6.269   6.118  0.4013 -1.4803 -0.1411
   24MOL0     C 3125   8.199   6.312   5.976 -0.0711  0.2953 -1.0083
   24MOL0     C 3126   8.313   6.418   5.952  0.3017 -0.9493  0.1824
   24MOL0     C 3127   8.453   6.361   5.956 -0.3840  0.2492 -1.1018
   24MOL0     C 3128   8.560   6.461   5.960  0.9202 -0.1829 -0.7350
   24MOL0     O 3129   8.688   6.404   5.969 -0.1041 -0.7337  0.1960
   24MOL0     C 3130   8.789   6.464   5.901 -0.1729  0.3874 -0.0859
   24MOL0     C 3131   8.868   6.559   5.971  1.9157  1.5626  0.4275
   24MOL0     C 3132   8.983   6.611   5.915 -0.4872 -0.5469 -1.2276
   24MOL0     C 3133   9.015   6.579   5.782 -0.1061  0.4554  0.4843
   24MOL0     C 3134   9.142   6.626   5.724  0.1983  1.1715 -0.9782
   24MOL0     O 3135   9.240   6.629   5.817 -0.2966 -0.5027 -0.8983
   24MOL0     C 3136   9.365   6.692   5.795 -0.5854  0.4190 -0.1908
   24MOL0     C 3137   9.446   6.692   5.674 -0.1107 -0.0125  0.5986
   24MOL0     C 3138   9.557   6.771   5.665  0.1228 -0.2939  0.1478
   24MOL0     C 3139   9.586   6.864   5.766  0.8147 -0.3382  0.7072
   24MOL0     O 3140   9.677   6.958   5.740 -0.8116 -0.0135 -0.2708
   24MOL0     C 3141   9.808   6.911   5.770  0.2381 -0.2059 -0.1044
   24MOL0     C 3142   9.831   6.920   5.924  0.6547 -0.2038 -0.0926
   24MOL0     C 3143   9.792   7.061   5.982 -0.0942  0.6039 -0.8512
   24MOL0     C 3144   9.850   7.185   5.908 -0.7113  0.1693 -0.6293
   24MOL0     C 3145   9.810   7.323   5.974  0.7816 -0.2750  0.1186
   24MOL0     C 3146   9.853   7.370   6.113  0.4461  0.2026 -0.3599
   24MOL0     C 3147   9.796   7.323   6.247 -0.1352  0.3217  0.0916
   24MOL0     C 3148   9.865   7.373   6.374  0.3678 -0.1599  0.5034
   24MOL0    Cl 3149   9.838   7.550   6.389  0.2969 -0.2031 -0.2454
   24MOL0     C 3150   9.505   6.864   5.882 -0.8937 -0.2235 -0.1191
   24MOL0     C 3151   9.394   6.782   5.892 -0.4486  0.3387 -1.5397
   24MOL0     O 3152   9.145   6.658   5.606 -0.3322  0.0030  0.0668
   24MOL0     C 3153   8.927   6.496   5.707  0.1531 -0.2836 -0.5291
   24MOL0     C 3154   8.812   6.440   5.764  1.0535  0.4028 -0.6067
   24MOL0     N 3155   8.281   6.185   6.190 -0.2123  0.5056 -0.4032
   24MOL0     N 3156   8.230   6.169   6.299  1.0987 -0.6467 -0.1972
   24MOL0     C 3157   6.929   6.067   6.865 -0.3860  0.2285  0.4604
   24MOL0     C 3158   6.810   6.125   6.866  1.4727 -0.3257  0.6321
   24MOL0     C 3159   6.455   6.402   6.813  0.1975 -0.1140  0.2090
   24MOL0     C 3160   6.402   6.406   6.684 -0.0493  0.5246  0.2217
   24MOL0     C 3161   6.282   6.475   6.665  0.2809 -0.2539  0.0366
   24MOL0     C 3162   6.211   6.548   6.769  0.1089 -0.5375  1.2110
   24MOL0     O 3163   6.101   6.627   6.726  0.4290  0.2762 -0.0257
   24MOL0     C 3164   6.029   6.702   6.820 -0.8012  0.5749 -0.1486
   24MOL0     C 3165   6.099   6.841   6.818 -0.4184  0.6080 -0.5852
   24MOL0     C 3166   6.009   6.945   6.899  1.1021 -0.2402 -0.3249
   24MOL0     C 3167   5.969   6.896   7.046  0.9451 -0.1706 -0.5087
   24MOL0     C 3168   6.086   6.847   7.114 -0.0054 -0.7145  0.0709
   24MOL0     C 3169   6.183   6.788   7.167  0.2800 -0.3609  0.5952
   24MOL0     C 3170   6.265   6.540   6.898 -0.2261  0.7660  0.2590
   24MOL0     C 3171   6.386   6.471   6.919 -0.2941  0.3473 -0.2764
   24MOL0     C 3172   6.439   6.471   7.063 -0.2744  0.2304  1.2566
   24MOL0     H 3173   6.762   6.164   6.536 -1.5215 -0.3405  0.4100
   24MOL0     H 3174   6.979   6.020   6.540  2.5533 -2.0851  1.9834
   24MOL0     H 3175   7.237   5.848   6.667 -0.7948  0.6890  0.7299
   24MOL0     H 3176   7.149   5.947   6.555 -0.8629 -1.6634  0.1901
   24MOL0     H 3177   7.365   6.043   6.749  0.8118  0.0352  0.1338
   24MOL0     H 3178   7.286   6.141   6.633 -2.4578 -0.8164  1.6907
   24MOL0     H 3179   7.406   6.014   6.439  0.2050 -3.2038 -1.1180
   24MOL0     H 3180   7.461   5.890   6.537  1.3840  0.2045 -2.2606
   24MOL0     H 3181   7.527   6.195   6.592  1.1350  0.6460 -2.1081
   24MOL0     H 3182   7.618   6.051   6.662 -0.5418 -4.2003 -1.7815
   24MOL0     H 3183   7.681   5.985   6.446  1.5776  0.2383 -0.7386
   24MOL0     H 3184   7.612   6.142   6.381  0.5872 -0.3121  0.1022
   24MOL0     H 3185   7.754   6.272   6.523 -2.6864 -1.1797  2.4289
   24MOL0     H 3186   7.840   6.137   6.589  0.3491  0.0468 -1.3696
   24MOL0     H 3187   7.824   6.194   6.296 -4.3107 -1.1662  1.1640
   24MOL0     H 3188   7.892   6.050   6.357 -3.5213  0.0061 -2.0198
   24MOL0     H 3189   7.982   6.338   6.430 -1.0366 -0.0261 -0.7181
   24MOL0     H 3190   8.057   6.205   6.507 -0.8112  0.8213 -0.2209
   24MOL0     H 3191   8.005   6.362   6.160 -2.3489 -2.9481  0.6822
   24MOL0     H 3192   8.214   6.234   5.902  2.7221 -0.7861  0.5592
   24MOL0     H 3193   8.102   6.356   5.949  0.7147  0.5353 -3.7566
   24MOL0     H 3194   8.292   6.465   5.855  1.4648  1.9801  1.2348
   24MOL0     H 3195   8.313   6.494   6.030 -0.1882 -1.0114  0.2473
   24MOL0     H 3196   8.444   6.295   5.869 -3.1864 -1.1825  0.1679
   24MOL0     H 3197   8.465   6.301   6.046 -0.6354  1.4635 -0.2353
   24MOL0     H 3198   8.545   6.531   6.042 -0.9169 -5.1351  3.6532
   24MOL0     H 3199   8.542   6.520   5.869 -0.1341 -0.5496 -0.7771
   24MOL0     H 3200   8.850   6.572   6.077  2.2508 -0.8025  0.8245
   24MOL0     H 3201   9.039   6.681   5.977 -0.2360 -1.0357 -0.8991
   24MOL0     H 3202   9.421   6.634   5.585  3.0570 -2.8969  1.3755
   24MOL0     H 3203   9.611   6.781   5.571  0.9481 -3.2573  0.2216
   24MOL0     H 3204   9.827   6.810   5.732  1.1083 -1.0774  2.3946
   24MOL0     H 3205   9.884   6.968   5.716 -0.8011  1.3230  0.0126
   24MOL0     H 3206   9.787   6.836   5.979 -1.4454  0.3560 -0.8241
   24MOL0     H 3207   9.938   6.921   5.944  0.2040 -0.9441  2.7700
   24MOL0     H 3208   9.683   7.071   5.983  0.0124  2.3468 -2.3294
   24MOL0     H 3209   9.816   7.065   6.089 -1.7794  3.0747 -0.4921
   24MOL0     H 3210   9.808   7.191   5.808 -2.2429  0.7422  0.0110
   24MOL0     H 3211   9.957   7.175   5.891  0.0131  2.6034  1.6316
   24MOL0     H 3212   9.701   7.327   5.961  0.9019 -0.8021 -1.2796
   24MOL0     H 3213   9.845   7.402   5.906 -0.4121  2.9826  2.9847
   24MOL0     H 3214   9.960   7.351   6.122  0.0531 -2.7227 -0.6985
   24MOL0     H 3215   9.835   7.477   6.117 -0.5420  0.1051 -1.5509
   24MOL0     H 3216   9.803   7.214   6.241 -3.9490  0.0340 -3.2402
   24MOL0     H 3217   9.690   7.349   6.260 -0.0225 -0.3128  3.1598
   24MOL0     H 3218   9.839   7.334   6.473 -1.4574  0.9450  0.4944
   24MOL0     H 3219   9.967   7.340   6.350  0.1161 -0.5410 -0.0745
   24MOL0     H 3220   9.530   6.937   5.958  0.2181  1.0547 -1.6510
   24MOL0     H 3221   9.334   6.785   5.982  2.2014  0.2915  0.3732
   24MOL0     H 3222   8.937   6.482   5.600 -2.5218  0.7464 -0.9992
   24MOL0     H 3223   8.738   6.381   5.711 -1.1791 -0.8129  3.4792
   24MOL0     H 3224   6.985   6.044   6.955  0.2782  2.1727  0.6048
   24MOL0     H 3225   6.763   6.126   6.964  0.9085  1.5330  0.3883
   24MOL0     H 3226   6.439   6.353   6.596  3.3805 -0.1466  1.8843
   24MOL0     H 3227   6.243   6.483   6.564  0.6116 -2.1480 -0.2711
   24MOL0     H 3228   6.025   6.655   6.919 -1.3768  2.0301  0.5429
   24MOL0     H 3229   5.923   6.715   6.795 -0.1066  2.7365 -2.3818
   24MOL0     H 3230   6.110   6.874   6.714 -2.3198 -0.3142 -1.1364
   24MOL0     H 3231   6.194   6.830   6.870 -0.5843  3.1050  0.3774
   24MOL0     H 3232   5.919   6.958   6.838  3.0666  0.4368 -3.2782
   24MOL0     H 3233   6.059   7.040   6.921  0.6942 -0.5260  2.1883
   24MOL0     H 3234   5.923   6.972   7.109  3.2021 -1.3986  2.9330
   24MOL0     H 3235   5.902   6.809   7.041  3.3751 -2.4222  2.1733
   24MOL0     H 3236   6.265   6.743   7.219 -0.1996 -1.2358  0.6207
   24MOL0     H 3237   6.231   6.594   6.987 -0.6277  0.7191  0.1374
   24MOL0     H 3238   6.377   6.516   7.141  1.7449 -0.7210  3.5407
   24MOL0     H 3239   6.470   6.371   7.098 -2.8426 -1.0480  0.1642
   24MOL0     H 3240   6.529   6.532   7.070 -0.4584  0.3230  4.8044
   25MOL0     O 3241   4.751   5.236   4.125 -0.7334 -0.3199  0.0144
   25MOL0     C 3242   4.769   5.145   4.203 -0.9481 -0.0028  0.2872
   25MOL0     O 3243   4.681   5.090   4.292 -0.8619  0.3874 -0.2156
   25MOL0     C 3244   4.565   5.155   4.308  0.0149 -0.6600 -0.2354
   25MOL0     C 3245   4.441   5.094   4.262  0.1143  1.3499 -0.4319
   25MOL0     C 3246   4.325   5.156   4.285 -0.1610 -0.4402  0.2101
   25MOL0     C 3247   4.319   5.275   4.357  0.1368  1.2238 -0.6992
   25MOL0     O 3248   4.195   5.320   4.384  0.0514  0.2076  0.1546
   25MOL0     C 3249   4.163   5.448   4.355  0.7246 -0.3219  0.8983
   25MOL0     C 3250   4.023   5.507   4.399 -0.0052  0.5620 -0.3032
   25MOL0     C 3251   4.007   5.500   4.550  0.7654  0.7041  0.2900
   25MOL0     C 3252   3.888   5.590   4.599  0.1128 -0.4661 -0.6127
   25MOL0     C 3253   3.899   5.625   4.755 -0.2159  0.1528  1.1048
   25MOL0     C 3254   3.810   5.734   4.792  0.2994 -1.3255  0.2911
   25MOL0     C 3255   3.847   5.793   4.924 -0.4254  0.4709 -0.3981
   25MOL0     C 3256   3.729   5.885   4.976 -0.8743 -0.0562 -0.0208
   25MOL0     N 3257   3.614   5.802   5.007  0.3032  0.2393  0.3417
   25MOL0     C 3258   3.609   5.706   5.108  0.4295  0.3794  1.4678
   25MOL0     C 3259   3.476   5.683   5.097  0.5161  0.4581  0.7739
   25MOL0     C 3260   3.411   5.568   5.168 -0.5933 -0.0503 -0.4385
   25MOL0     C 3261   3.360   5.623   5.309 -0.2715 -0.0605 -0.5665
   25MOL0     C 3262   3.310   5.505   5.397 -0.0845  0.0374 -0.4023
   25MOL0     C 3263   3.212   5.407   5.325 -0.9712 -1.0685  0.6484
   25MOL0     O 3264   3.178   5.299   5.416  0.2973  0.3153  0.4065
   25MOL0     C 3265   3.240   5.175   5.405 -0.2488  0.6367 -0.9826
   25MOL0     C 3266   3.201   5.093   5.291 -0.7666  0.0715  0.4366
   25MOL0     C 3267   3.266   4.971   5.268 -0.4579  0.4107 -0.2920
   25MOL0     C 3268   3.370   4.934   5.350 -1.2639  0.6913  0.8282
   25MOL0     C 3269   3.459   4.817   5.321  0.5222  0.2590  0.4805
   25MOL0     O 3270   3.391   4.729   5.238  0.6947  0.2711  0.1652
   25MOL0     C 3271   3.482   4.630   5.198  0.4076 -0.0195  0.5671
   25MOL0     C 3272   3.491   4.509   5.268  0.0503  0.4280  0.9127
   25MOL0     C 3273   3.577   4.403   5.235  0.4653 -1.0216 -0.6723
   25MOL0     C 3274   3.653   4.418   5.118 -0.6121 -0.0186 -0.1603
   25MOL0     O 3275   3.730   4.321   5.052  1.2417 -0.0783  0.1327
   25MOL0     C 3276   3.736   4.183   5.086 -0.3953  0.1895  0.6263
   25MOL0     C 3277   3.648   4.092   5.014 -0.1731  0.8647  0.7265
   25MOL0     C 3278   3.661   4.082   4.857 -0.1886  0.2179  0.3765
   25MOL0     C 3279   3.567   3.981   4.807 -0.4511  0.4608  1.4205
   25MOL0     C 3280   3.424   4.002   4.816  0.2390  0.2422  0.9505
   25MOL0     C 3281   3.344   3.876   4.775 -0.3318 -0.0934  1.0622
   25MOL0     C 3282   3.196   3.902   4.824 -0.0032 -0.0798  0.7099
   25MOL0     C 3283   3.115   3.774   4.812  0.8058 -0.0970  0.2191
   25MOL0    Cl 3284   2.930   3.817   4.804 -0.6391 -0.4568 -0.3429
   25MOL0     C 3285   3.624   4.520   5.031  0.0204  0.2455  0.4100
   25MOL0     C 3286   3.543   4.624   5.069  0.1856  0.4354 -0.6338
   25MOL0     O 3287   3.582   4.807   5.353 -0.1086 -0.0490  0.4840
   25MOL0     C 3288   3.397   5.004   5.466  0.0650 -0.0235 -0.2816
   25MOL0     C 3289   3.342   5.130   5.493  0.3295  0.3725  0.3771
   25MOL0     N 3290   3.412   5.771   5.010 -0.0390  0.1812 -0.4042
   25MOL0     N 3291   3.498   5.846   4.955  0.5858  0.0371  0.3914
   25MOL0     C 3292   4.437   5.341   4.397  0.5528  0.7846 -0.6660
   25MOL0     C 3293   4.562   5.280   4.371  0.5504  0.6412  0.5200
   25MOL0     C 3294   4.888   5.068   4.189 -1.2751 -0.2703  0.5213
   25MOL0     C 3295   4.961   5.020   4.306  0.5858  0.6875 -0.4367
   25MOL0     C 3296   5.084   4.948   4.290  0.9561  1.0174  0.1466
   25MOL0     C 3297   5.133   4.910   4.165 -0.0602  0.4503  0.1203
   25MOL0     O 3298   5.250   4.834   4.142  0.5973 -0.8347  0.1206
   25MOL0     C 3299   5.324   4.795   4.260 -0.3268  0.2006 -0.0159
   25MOL0     C 3300   5.264   4.665   4.315 -0.1479 -0.2614  0.5739
   25MOL0     C 3301   5.330   4.623   4.447 -0.5435 -0.2919 -0.2597
   25MOL0     C 3302   5.304   4.476   4.473 -0.4007  0.4979 -0.6567
   25MOL0     C 3303   5.360   4.384   4.365  0.1219 -0.3566  0.3060
   25MOL0     C 3304   5.422   4.316   4.285  0.1713  0.6994  0.0277
   25MOL0     C 3305   5.070   4.956   4.053 -0.0800 -0.3541  0.1756
   25MOL0     C 3306   4.952   5.033   4.067  0.4083  0.1131  0.8750
   25MOL0     C 3307   4.885   5.061   3.935 -0.0911  1.3889 -0.0187
   25MOL0     H 3308   4.438   4.995   4.216 -0.4679  0.1455  1.9952
   25MOL0     H 3309   4.240   5.094   4.259  1.0390 -1.7138 -0.8008
   25MOL0     H 3310   4.235   5.522   4.392 -0.1281 -0.0227  2.0097
   25MOL0     H 3311   4.167   5.458   4.246 -2.1641  0.2056  0.7580
   25MOL0     H 3312   3.944   5.450   4.350  1.2652 -3.0999  1.5354
   25MOL0     H 3313   4.021   5.609   4.361  1.2938 -0.0771 -2.2630
   25MOL0     H 3314   4.103   5.520   4.597  0.8203  0.0994  0.4479
   25MOL0     H 3315   3.982   5.397   4.576  0.3716  1.4009  3.0295
   25MOL0     H 3316   3.880   5.681   4.539  0.8983  0.8070  1.1231
   25MOL0     H 3317   3.792   5.543   4.577 -0.2012 -0.4270  0.5985
   25MOL0     H 3318   3.877   5.527   4.798 -2.9635 -0.8497 -2.1421
   25MOL0     H 3319   4.004   5.654   4.752 -0.1734 -0.0179 -1.3639
   25MOL0     H 3320   3.816   5.819   4.723  1.1750  0.6840  2.6784
   25MOL0     H 3321   3.708   5.694   4.794  0.7259 -2.4570  2.4768
   25MOL0     H 3322   3.932   5.863   4.921 -1.4754  1.7613 -1.3441
   25MOL0     H 3323   3.874   5.711   4.991 -4.1695 -1.1457 -0.6147
   25MOL0     H 3324   3.771   5.928   5.067  0.0211 -2.9181  1.0351
   25MOL0     H 3325   3.695   5.959   4.902 -2.4248 -1.8259 -1.1614
   25MOL0     H 3326   3.679   5.645   5.163  1.7034  0.2452 -0.2300
   25MOL0     H 3327   3.323   5.541   5.108 -2.5129  1.0320  1.7496
   25MOL0     H 3328   3.490   5.493   5.173  1.1646  1.8106  1.0113
   25MOL0     H 3329   3.438   5.674   5.366 -0.9791  0.5052 -0.0861
   25MOL0     H 3330   3.276   5.693   5.299 -0.1918  0.6661  2.7078
   25MOL0     H 3331   3.259   5.550   5.483  2.0614 -0.6399  1.3322
   25MOL0     H 3332   3.401   5.452   5.426 -1.1932 -1.1531  1.0604
   25MOL0     H 3333   3.259   5.363   5.237  1.8964  0.7819  1.1225
   25MOL0     H 3334   3.126   5.464   5.289 -0.1909  1.1863  2.0842
   25MOL0     H 3335   3.119   5.126   5.227 -1.1462 -1.7799 -0.0877
   25MOL0     H 3336   3.223   4.916   5.185 -1.2140  1.2677 -0.4849
   25MOL0     H 3337   3.432   4.502   5.359 -1.3600  1.2551  0.1047
   25MOL0     H 3338   3.590   4.315   5.298  1.0399 -1.2956 -1.1713
   25MOL0     H 3339   3.834   4.137   5.072 -1.0782 -1.1279 -0.0273
   25MOL0     H 3340   3.711   4.164   5.191 -1.8626  0.8038  0.4142
   25MOL0     H 3341   3.653   3.990   5.054 -1.0110  0.2931 -0.5313
   25MOL0     H 3342   3.546   4.122   5.040 -0.5766  0.0530  0.1365
   25MOL0     H 3343   3.639   4.184   4.823 -0.4192  0.7435  2.0212
   25MOL0     H 3344   3.763   4.047   4.841 -0.2538 -1.3191  2.8582
   25MOL0     H 3345   3.586   3.887   4.860 -1.1370  0.8801  2.4507
   25MOL0     H 3346   3.592   3.955   4.704 -2.0513  1.8434  0.6500
   25MOL0     H 3347   3.405   4.092   4.757  0.4874 -0.1154  0.3100
   25MOL0     H 3348   3.393   4.024   4.918  0.4895 -0.3301  1.1574
   25MOL0     H 3349   3.337   3.865   4.667 -2.2004  1.4531  0.9728
   25MOL0     H 3350   3.385   3.784   4.819  2.1484 -0.2348 -1.3103
   25MOL0     H 3351   3.153   3.981   4.760 -1.1553  0.4870  2.1247
   25MOL0     H 3352   3.183   3.933   4.928 -4.6995  2.3786 -0.3251
   25MOL0     H 3353   3.146   3.716   4.725  2.3002  2.6554 -1.2477
   25MOL0     H 3354   3.130   3.716   4.903  1.1784 -0.2598  0.0566
   25MOL0     H 3355   3.670   4.511   4.934 -1.6385  0.0401 -0.3943
   25MOL0     H 3356   3.523   4.713   5.010 -4.6253  1.2712  1.7058
   25MOL0     H 3357   3.471   4.969   5.537 -2.4053  1.5182  3.4099
   25MOL0     H 3358   3.356   5.197   5.578 -0.8159  3.0095 -1.3955
   25MOL0     H 3359   4.431   5.440   4.440 -1.9786 -0.4781  2.1818
   25MOL0     H 3360   4.655   5.324   4.404  1.8763 -2.7363  1.6827
   25MOL0     H 3361   4.923   5.036   4.406  1.2207  1.0537 -0.2487
   25MOL0     H 3362   5.129   4.900   4.377  0.5361 -0.9770 -0.6729
   25MOL0     H 3363   5.323   4.877   4.333 -1.8769 -0.6158  0.9500
   25MOL0     H 3364   5.428   4.785   4.230 -0.2556  1.7360 -0.3496
   25MOL0     H 3365   5.277   4.582   4.245 -0.4578  2.3018 -2.8310
   25MOL0     H 3366   5.156   4.675   4.333 -0.3279  0.3073 -0.7150
   25MOL0     H 3367   5.290   4.691   4.522  4.2415  3.5585 -0.6295
   25MOL0     H 3368   5.437   4.646   4.450 -0.6433  0.0238  2.2501
   25MOL0     H 3369   5.354   4.454   4.568 -0.1846  2.2987 -0.3149
   25MOL0     H 3370   5.196   4.462   4.479 -0.4050 -0.5957 -2.4126
   25MOL0     H 3371   5.481   4.270   4.208  3.9699  0.7370  2.6233
   25MOL0     H 3372   5.102   4.931   3.952  1.2480 -0.8694  0.7061
   25MOL0     H 3373   4.881   5.169   3.923  0.6847  1.5822  1.2821
   25MOL0     H 3374   4.939   5.009   3.855 -0.2631  0.0007  0.7372
   25MOL0     H 3375   4.782   5.025   3.944  0.2478  0.8162  2.0280
   26MOL0     O 3376   9.348   8.432  10.320 -0.6678  0.3115  0.1928
   26MOL0     C 3377   9.448   8.360  10.298  0.3140  0.9643 -0.6304
   26MOL0     O 3378   9.445   8.240  10.245  0.2565  0.7679 -0.7006
   26MOL0     C 3379   9.338   8.199  10.171 -0.4922  0.8795  0.1286
   26MOL0     C 3380   9.301   8.274  10.060 -0.1190 -0.8319  0.6003
   26MOL0     C 3381   9.194   8.240   9.982 -0.5473 -0.2275 -0.9043
   26MOL0     C 3382   9.135   8.114  10.001  1.0178 -0.2316 -0.5424
   26MOL0     O 3383   9.039   8.068   9.910 -0.1710 -0.3150 -0.4599
   26MOL0     C 3384   8.900   8.074   9.951  0.2513 -0.8059 -0.9514
   26MOL0     C 3385   8.813   8.066   9.829 -0.5198  0.1676  0.1517
   26MOL0     C 3386   8.792   8.198   9.751 -1.3418 -0.4334 -0.3516
   26MOL0     C 3387   8.774   8.322   9.830 -1.1486 -0.1911 -0.3084
   26MOL0     C 3388   8.648   8.309   9.907  0.3209 -0.1538 -0.6748
   26MOL0     C 3389   8.630   8.433   9.991 -0.4328  0.5649 -0.1989
   26MOL0     C 3390   8.490   8.436  10.047 -0.2921  0.5280 -0.9307
   26MOL0     C 3391   8.396   8.490   9.944  0.1586  0.1191  1.0971
   26MOL0     N 3392   8.378   8.634   9.923 -1.3970  0.1865  0.2091
   26MOL0     C 3393   8.483   8.729   9.934  0.0171  0.7636 -0.8624
   26MOL0     C 3394   8.415   8.847   9.926  0.1451 -0.6099 -1.4763
   26MOL0     C 3395   8.485   8.979   9.909  0.1711  1.1236  0.4612
   26MOL0     C 3396   8.544   9.017  10.043  0.8556 -0.1001 -0.0560
   26MOL0     C 3397   8.588   9.167  10.030  0.1083 -0.7546 -0.1076
   26MOL0     C 3398   8.473   9.257  10.078 -0.6228 -1.2251  0.2352
   26MOL0     O 3399   8.437   9.228  10.211  0.2563 -0.7881  0.2686
   26MOL0     C 3400   8.518   9.272  10.312 -0.4541 -0.5471 -0.0771
   26MOL0     C 3401   8.473   9.237  10.441 -0.2577  0.1200 -0.3122
   26MOL0     C 3402   8.540   9.288  10.550  0.1140  0.2673  0.7267
   26MOL0     C 3403   8.643   9.376  10.539  0.0146 -0.4113  0.8872
   26MOL0     C 3404   8.700   9.446  10.656  0.1547  0.5516  0.1776
   26MOL0     O 3405   8.833   9.480  10.638  0.8663  0.2344 -0.1825
   26MOL0     C 3406   8.901   9.530  10.743  0.0306 -0.7504 -0.5056
   26MOL0     C 3407   8.930   9.662  10.733 -0.2340  0.1680  0.5248
   26MOL0     C 3408   9.019   9.721  10.825  0.1157 -0.4249  0.3698
   26MOL0     C 3409   9.056   9.653  10.931 -0.3800  0.9522 -1.4846
   26MOL0     O 3410   9.129   9.728  11.017  0.7840  0.3789 -1.1646
   26MOL0     C 3411   9.184   9.684  11.136  1.7902  0.0302 -1.1904
   26MOL0     C 3412   9.182   9.777  11.258 -0.8467  0.5998 -0.1806
   26MOL0     C 3413   9.255   9.905  11.238 -0.3725  0.3812 -0.2327
   26MOL0     C 3414   9.395   9.918  11.298  0.7075 -0.4480  0.6011
   26MOL0     C 3415   9.486   9.808  11.254 -1.1447  0.6066  0.6239
   26MOL0     C 3416   9.632   9.854  11.274  0.2016  0.6011 -0.0431
   26MOL0     C 3417   9.730   9.726  11.290  0.6621 -0.5278  0.7178
   26MOL0     C 3418   9.849   9.789  11.356 -0.0850 -0.1096  0.8911
   26MOL0    Cl 3419   9.940   9.875  11.230 -0.2518  0.1965 -0.1343
   26MOL0     C 3420   9.010   9.515  10.955  1.1611  0.3708 -0.4624
   26MOL0     C 3421   8.926   9.457  10.862  0.0295  1.1579  0.1486
   26MOL0     O 3422   8.626   9.473  10.756  0.0887 -0.0767 -0.7084
   26MOL0     C 3423   8.697   9.412  10.408 -0.1174 -0.1391  0.3079
   26MOL0     C 3424   8.617   9.368  10.299  0.1481  0.3432  0.4750
   26MOL0     N 3425   8.279   8.823   9.942  0.4948 -0.5205 -0.0409
   26MOL0     N 3426   8.263   8.699   9.941  0.4962 -0.1220  0.0856
   26MOL0     C 3427   9.174   8.037  10.111 -0.3711  0.1102 -0.1450
   26MOL0     C 3428   9.276   8.077  10.203  0.9713 -0.6533 -0.2904
   26MOL0     C 3429   9.578   8.412  10.363 -0.6721  0.1479 -0.4523
   26MOL0     C 3430   9.568   8.511  10.467 -0.7276  0.1879  0.7859
   26MOL0     C 3431   9.690   8.558  10.520  1.1257  0.4186  0.3508
   26MOL0     C 3432   9.816   8.507  10.487  0.1253 -0.1066 -0.2766
   26MOL0     O 3433   9.925   8.555  10.543 -0.6173 -0.1812  0.3079
   26MOL0     C 3434   9.989   8.476  10.648  0.4149  0.7471  0.5192
   26MOL0     C 3435   9.920   8.484  10.782 -1.3765  0.0162 -0.9188
   26MOL0     C 3436   9.918   8.631  10.838  0.3027 -0.2641  0.3954
   26MOL0     C 3437   9.805   8.638  10.947  0.1857  1.0845 -0.8406
   26MOL0     C 3438   9.828   8.754  11.030  0.0461 -0.1723  0.7788
   26MOL0     C 3439   9.850   8.839  11.112 -0.2063 -0.2018  0.5044
   26MOL0     C 3440   9.820   8.408  10.389 -1.9679  0.3305 -1.0550
   26MOL0     C 3441   9.708   8.359  10.328 -0.4830  0.0555 -1.2562
   26MOL0     C 3442   9.745   8.243  10.242 -0.3220 -0.2628 -0.1732
   26MOL0     H 3443   9.346   8.372  10.047  0.0816 -0.6354  2.4980
   26MOL0     H 3444   9.157   8.304   9.902 -1.7477 -2.7680 -2.5406
   26MOL0     H 3445   8.877   7.997  10.025  3.1539  1.3797  2.6102
   26MOL0     H 3446   8.896   8.161  10.018  1.4264 -1.6169  0.2375
   26MOL0     H 3447   8.714   8.030   9.859 -0.9203  2.2586  1.4935
   26MOL0     H 3448   8.863   8.003   9.754 -1.5274 -2.8390  1.8505
   26MOL0     H 3449   8.703   8.189   9.688 -1.4141 -0.6906 -0.2118
   26MOL0     H 3450   8.892   8.211   9.707 -0.6459  2.0321  1.6711
   26MOL0     H 3451   8.869   8.339   9.882  0.2826 -1.5930 -2.2976
   26MOL0     H 3452   8.758   8.402   9.757  0.5472 -1.0089 -1.6615
   26MOL0     H 3453   8.573   8.294   9.829 -1.3843 -1.9519  1.1761
   26MOL0     H 3454   8.652   8.226   9.978  0.0312  0.4047  0.0156
   26MOL0     H 3455   8.697   8.423  10.076  0.4989 -1.2828 -1.0948
   26MOL0     H 3456   8.649   8.523   9.931 -0.4602  0.4593 -0.3654
   26MOL0     H 3457   8.484   8.502  10.134 -0.4202 -0.2444 -0.3468
   26MOL0     H 3458   8.447   8.341  10.078  0.6768  0.5752  0.6937
   26MOL0     H 3459   8.395   8.444   9.845  0.2774 -0.8738  1.5520
   26MOL0     H 3460   8.298   8.456   9.978  0.2709 -1.6450 -0.2034
   26MOL0     H 3461   8.590   8.713   9.927  0.4676  3.0092  0.0882
   26MOL0     H 3462   8.565   8.966   9.835 -1.9970  2.9676 -2.4742
   26MOL0     H 3463   8.410   9.045   9.863 -0.1372 -2.0210 -4.3947
   26MOL0     H 3464   8.474   8.994  10.123 -2.1179  0.2883 -2.3706
   26MOL0     H 3465   8.626   8.948  10.065 -1.0749 -2.0337  1.4858
   26MOL0     H 3466   8.617   9.193   9.928 -1.4614  0.3510 -0.2975
   26MOL0     H 3467   8.673   9.169  10.099 -0.6794 -2.4148  0.9939
   26MOL0     H 3468   8.387   9.239  10.013  0.2488  2.0704 -2.0932
   26MOL0     H 3469   8.483   9.365  10.065 -1.9443 -1.3469 -2.2966
   26MOL0     H 3470   8.392   9.169  10.465 -0.7201 -0.4471 -3.1130
   26MOL0     H 3471   8.494   9.268  10.646  3.6159 -0.2003  2.4508
   26MOL0     H 3472   8.912   9.721  10.644 -1.8733  1.8066  1.8697
   26MOL0     H 3473   9.040   9.827  10.815  2.5412 -0.5517  2.8867
   26MOL0     H 3474   9.117   9.608  11.177  1.5022  1.0032  0.2202
   26MOL0     H 3475   9.281   9.643  11.106  0.5264 -3.5658 -0.8787
   26MOL0     H 3476   9.079   9.804  11.287 -0.4440  0.6871  1.2553
   26MOL0     H 3477   9.226   9.723  11.342  0.2093 -0.0805 -1.1503
   26MOL0     H 3478   9.275   9.918  11.131 -0.7686 -0.7731 -0.4526
   26MOL0     H 3479   9.208   9.996  11.276  0.5178  0.7950 -0.0898
   26MOL0     H 3480   9.380   9.900  11.405 -0.2087  1.4167  0.8316
   26MOL0     H 3481   9.434  10.019  11.282 -2.7121  0.7958 -0.8910
   26MOL0     H 3482   9.482   9.770  11.151 -0.6808  0.8075  0.5248
   26MOL0     H 3483   9.467   9.720  11.316  1.1115 -0.3118  0.1303
   26MOL0     H 3484   9.671   9.925  11.201  0.4177  1.6059  1.0192
   26MOL0     H 3485   9.636   9.896  11.375  4.7362  2.1235 -0.6288
   26MOL0     H 3486   9.753   9.692  11.189  1.9645  4.3964 -0.9550
   26MOL0     H 3487   9.693   9.650  11.359  1.1583 -1.0857  0.3692
   26MOL0     H 3488   9.826   9.851  11.443 -2.1176  2.0365 -1.0287
   26MOL0     H 3489   9.905   9.700  11.386 -0.6979 -1.2229 -1.0654
   26MOL0     H 3490   9.037   9.466  11.047  0.9725 -0.3234 -0.7741
   26MOL0     H 3491   8.877   9.361  10.874 -0.6946  1.3386 -1.1181
   26MOL0     H 3492   8.780   9.480  10.393  0.2300 -0.6332 -0.0353
   26MOL0     H 3493   8.635   9.397  10.196 -2.7920 -2.8364 -1.1433
   26MOL0     H 3494   9.120   7.945  10.130  0.6889 -1.2577 -3.1589
   26MOL0     H 3495   9.322   8.023  10.285 -0.8791  0.8843  1.9202
   26MOL0     H 3496   9.473   8.545  10.507 -2.8702 -5.0371  0.9364
   26MOL0     H 3497   9.676   8.623  10.606 -2.1872 -2.2792  2.1022
   26MOL0     H 3498  10.083   8.532  10.644 -0.4819  2.2729 -0.5210
   26MOL0     H 3499  10.012   8.373  10.619  0.4033  1.2639 -1.5193
   26MOL0     H 3500   9.970   8.425  10.860  3.8464  1.1305 -3.0048
   26MOL0     H 3501   9.816   8.453  10.770 -0.8474 -1.5707 -1.6759
   26MOL0     H 3502   9.905   8.705  10.758  0.9088  0.6988  1.1656
   26MOL0     H 3503  10.017   8.650  10.882 -0.5463 -0.4768  2.5110
   26MOL0     H 3504   9.708   8.645  10.897  0.6661 -0.0840 -1.9791
   26MOL0     H 3505   9.806   8.551  11.012 -2.8203  1.4042 -0.2502
   26MOL0     H 3506   9.870   8.916  11.184  0.6125  0.4135 -0.3507
   26MOL0     H 3507   9.915   8.363  10.361 -2.0161  1.0878 -2.5475
   26MOL0     H 3508   9.846   8.230  10.202 -1.4312 -3.9125 -2.2982
   26MOL0     H 3509   9.706   8.151  10.285  1.2301 -1.7667 -1.7991
   26MOL0     H 3510   9.685   8.262  10.152  0.7753 -0.6299 -1.0090
   27MOL0     O 3511   8.301   0.967   3.444  0.8925  0.0333 -0.5792
   27MOL0     C 3512   8.289   0.895   3.345  0.8646 -0.2349  1.0134
   27MOL0     O 3513   8.389   0.841   3.267 -0.0534 -1.0621  0.4529
   27MOL0     C 3514   8.516   0.880   3.301 -0.1211  0.4834  0.5776
   27MOL0     C 3515   8.609   0.782   3.337  0.1768 -0.4456 -0.1485
   27MOL0     C 3516   8.743   0.811   3.352  0.3105 -0.2617 -0.1809
   27MOL0     C 3517   8.786   0.951   3.338  0.1214  1.3036 -0.0483
   27MOL0     O 3518   8.922   0.968   3.355 -0.2607 -0.6898  0.1733
   27MOL0     C 3519   8.976   1.077   3.431  0.3605 -0.6755 -0.2020
   27MOL0     C 3520   8.935   1.062   3.577 -0.4064  0.8327 -0.1275
   27MOL0     C 3521   9.024   1.152   3.665 -0.0785  0.3102 -0.3287
   27MOL0     C 3522   9.010   1.298   3.628  0.0703  0.3199  0.8276
   27MOL0     C 3523   9.069   1.403   3.720 -0.0513 -0.2534 -0.4714
   27MOL0     C 3524   9.223   1.384   3.733 -0.7672  0.6128 -0.0277
   27MOL0     C 3525   9.276   1.508   3.802 -0.4642 -0.1734  0.0902
   27MOL0     C 3526   9.435   1.495   3.819 -1.1494 -0.1901 -0.1731
   27MOL0     N 3527   9.456   1.376   3.902 -0.0045 -0.1207 -0.5435
   27MOL0     C 3528   9.392   1.343   4.022 -0.0629  0.0751 -0.8974
   27MOL0     C 3529   9.450   1.224   4.057  0.4212  0.0465  0.8621
   27MOL0     C 3530   9.418   1.143   4.173  0.5800  0.0080 -0.6075
   27MOL0     C 3531   9.363   1.005   4.129 -0.1403 -0.0410  0.5159
   27MOL0     C 3532   9.306   0.910   4.229  0.7164 -0.1854  0.3816
   27MOL0     C 3533   9.399   0.813   4.286  0.7568 -0.7976 -0.0177
   27MOL0     O 3534   9.411   0.701   4.190 -0.2861  0.5327 -0.5758
   27MOL0     C 3535   9.490   0.591   4.222 -0.1481 -0.6943  0.2352
   27MOL0     C 3536   9.556   0.573   4.347  0.3262  1.0432  1.8528
   27MOL0     C 3537   9.611   0.450   4.378 -0.4984  1.2045  0.1125
   27MOL0     C 3538   9.615   0.344   4.277 -0.5861 -0.2382  0.7259
   27MOL0     C 3539   9.667   0.206   4.301  0.8345 -1.2667  0.6762
   27MOL0     O 3540   9.733   0.194   4.411 -0.6223 -0.4786  0.6126
   27MOL0     C 3541   9.758   0.058   4.445  0.3365  0.0251 -0.5539
   27MOL0     C 3542   9.870   0.000   4.392  0.2414 -0.3780  0.4190
   27MOL0     C 3543   9.890  -0.133   4.422  0.3712  0.0384 -0.7987
   27MOL0     C 3544   9.797  -0.207   4.497 -0.6337  0.3981  0.5919
   27MOL0     O 3545   9.814  -0.340   4.519  0.4151 -0.1196 -0.3936
   27MOL0     C 3546   9.771  -0.396   4.644 -0.4928  0.8251  0.1111
   27MOL0     C 3547   9.834  -0.532   4.647 -0.5698 -0.2398  0.0078
   27MOL0     C 3548   9.983  -0.531   4.635 -0.4212 -0.0806 -0.2319
   27MOL0     C 3549  10.064  -0.583   4.754  0.2798 -0.4244  0.1151
   27MOL0     C 3550  10.216  -0.562   4.739  0.5599 -0.2903  1.1659
   27MOL0     C 3551  10.279  -0.557   4.882  0.2534  0.1644  0.5464
   27MOL0     C 3552  10.433  -0.575   4.876 -0.3087  0.6797  0.1801
   27MOL0     C 3553  10.506  -0.470   4.799 -0.2466 -1.1573  0.4328
   27MOL0    Cl 3554  10.520  -0.311   4.865 -0.9514  0.0771  0.5563
   27MOL0     C 3555   9.694  -0.139   4.560 -0.4026  0.3436 -0.8048
   27MOL0     C 3556   9.670  -0.003   4.527 -0.5456  0.7336  0.1671
   27MOL0     O 3557   9.642   0.115   4.216  0.7814  0.0340 -0.0032
   27MOL0     C 3558   9.564   0.370   4.151  0.0658 -0.3539 -1.2032
   27MOL0     C 3559   9.497   0.488   4.124 -0.0968 -0.0867  0.8181
   27MOL0     N 3560   9.541   1.190   3.958  0.5670  0.6194 -0.1300
   27MOL0     N 3561   9.556   1.288   3.873  0.3024 -0.6670  0.1236
   27MOL0     C 3562   8.699   1.050   3.302  0.4615  0.2963 -0.6864
   27MOL0     C 3563   8.563   1.013   3.286  1.1569  0.2598  0.1406
   27MOL0     C 3564   8.153   0.873   3.289 -0.4326 -0.2906  0.1290
   27MOL0     C 3565   8.145   0.812   3.164 -0.5221  0.0248  1.0359
   27MOL0     C 3566   8.029   0.812   3.082 -0.4310 -0.3987  0.3887
   27MOL0     C 3567   7.914   0.879   3.139 -0.1829 -0.9394  0.5816
   27MOL0     O 3568   7.799   0.864   3.060 -0.5225  0.3950 -1.0059
   27MOL0     C 3569   7.690   0.960   3.088  0.3521  1.4132  0.0291
   27MOL0     C 3570   7.608   0.944   2.951 -0.1208 -0.1340 -0.6778
   27MOL0     C 3571   7.466   1.008   2.955  0.3933 -0.4464  0.8959
   27MOL0     C 3572   7.410   0.989   2.812 -0.4575  0.2011 -0.7490
   27MOL0     C 3573   7.270   1.012   2.810  0.2050  0.4182  0.1369
   27MOL0     C 3574   7.154   1.037   2.812  0.2204 -0.0129  0.1883
   27MOL0     C 3575   7.925   0.949   3.259  0.1134  0.3834  0.5410
   27MOL0     C 3576   8.036   0.941   3.337 -0.1545 -0.1392  0.9237
   27MOL0     C 3577   8.025   0.989   3.476  0.8213  0.9298 -0.0440
   27MOL0     H 3578   8.578   0.680   3.354 -2.5766  0.6934  2.6401
   27MOL0     H 3579   8.813   0.735   3.385 -0.5507 -0.5292  1.1434
   27MOL0     H 3580   9.085   1.068   3.427  0.4846 -0.0884  1.1822
   27MOL0     H 3581   8.936   1.171   3.390 -1.7348 -1.7642 -0.8057
   27MOL0     H 3582   8.956   0.957   3.598  2.0553  0.6783 -2.7031
   27MOL0     H 3583   8.830   1.090   3.595 -0.4366  1.6227 -1.3914
   27MOL0     H 3584   9.133   1.136   3.664  0.3276  0.1055  6.3817
   27MOL0     H 3585   8.992   1.128   3.766  0.5111 -0.0521 -0.2202
   27MOL0     H 3586   9.059   1.293   3.530  0.5729  1.6398  0.9879
   27MOL0     H 3587   8.904   1.319   3.613  0.5219  2.0484 -0.3955
   27MOL0     H 3588   9.039   1.506   3.702  0.9924 -0.0032 -0.8745
   27MOL0     H 3589   9.024   1.384   3.818  1.8878 -0.3896  0.4303
   27MOL0     H 3590   9.241   1.287   3.780 -0.9978 -0.4080 -1.9443
   27MOL0     H 3591   9.261   1.370   3.631 -1.4379 -0.0868 -0.1986
   27MOL0     H 3592   9.233   1.516   3.902 -1.0100  0.9756 -0.2213
   27MOL0     H 3593   9.264   1.594   3.736 -0.2260  1.1428  1.6977
   27MOL0     H 3594   9.487   1.474   3.725  1.0913 -1.1929  1.2055
   27MOL0     H 3595   9.499   1.568   3.868  1.1057 -1.7048 -0.6947
   27MOL0     H 3596   9.316   1.401   4.073  1.1958 -0.4710  1.7674
   27MOL0     H 3597   9.510   1.137   4.232 -0.1748  0.8528  0.7199
   27MOL0     H 3598   9.344   1.198   4.231 -0.4852 -2.1662  0.2206
   27MOL0     H 3599   9.291   1.019   4.048  1.5974 -3.5177 -1.8868
   27MOL0     H 3600   9.442   0.949   4.078 -1.3284 -2.0848  0.8015
   27MOL0     H 3601   9.216   0.864   4.187  0.4555 -0.1561  0.9047
   27MOL0     H 3602   9.274   0.978   4.308  0.1623  0.3973 -0.3298
   27MOL0     H 3603   9.355   0.789   4.383 -0.3540 -0.5201 -0.4323
   27MOL0     H 3604   9.496   0.859   4.307  0.0564  0.0646  1.4332
   27MOL0     H 3605   9.550   0.641   4.431 -1.6461  1.2827  1.5698
   27MOL0     H 3606   9.645   0.435   4.480  1.9312 -1.4299 -0.9329
   27MOL0     H 3607   9.932   0.042   4.314  1.9939 -3.6117 -0.1022
   27MOL0     H 3608   9.976  -0.186   4.383  0.4532 -1.8609  1.6919
   27MOL0     H 3609   9.809  -0.335   4.726 -3.2702  0.0452  2.1644
   27MOL0     H 3610   9.662  -0.392   4.650 -0.4994 -0.4637  1.8872
   27MOL0     H 3611   9.820  -0.574   4.747  0.8489  3.0380  1.7437
   27MOL0     H 3612   9.783  -0.599   4.577  2.6576 -0.1572 -2.6578
   27MOL0     H 3613  10.018  -0.584   4.546 -0.8994  1.8043 -1.5991
   27MOL0     H 3614  10.023  -0.431   4.619  0.2717 -0.6442 -2.4325
   27MOL0     H 3615  10.046  -0.689   4.776  0.5648 -0.2876  1.0551
   27MOL0     H 3616  10.037  -0.531   4.846  3.5167 -0.7880  1.3962
   27MOL0     H 3617  10.223  -0.463   4.693  1.3497 -0.9237 -0.1667
   27MOL0     H 3618  10.257  -0.641   4.675 -0.0747 -2.1091  2.9228
   27MOL0     H 3619  10.250  -0.467   4.936 -3.1346 -0.5806  0.1528
   27MOL0     H 3620  10.246  -0.644   4.940 -1.2113  0.1829 -0.2343
   27MOL0     H 3621  10.465  -0.671   4.834  1.6875  1.4090 -0.0508
   27MOL0     H 3622  10.473  -0.567   4.978  1.2358  1.6493 -0.4747
   27MOL0     H 3623  10.607  -0.504   4.776 -0.2658 -1.1510  0.3371
   27MOL0     H 3624  10.457  -0.448   4.704 -1.0750  5.0539  1.8756
   27MOL0     H 3625   9.619  -0.187   4.622  0.4887  4.3948  3.9661
   27MOL0     H 3626   9.583   0.045   4.570 -0.8540 -0.6915  1.2331
   27MOL0     H 3627   9.571   0.304   4.065  2.3957 -0.8808 -0.6621
   27MOL0     H 3628   9.451   0.492   4.026  0.0186  0.8560  0.7986
   27MOL0     H 3629   8.722   1.155   3.287 -0.4804  1.1491  2.8068
   27MOL0     H 3630   8.480   1.075   3.255  0.9208 -1.7402 -3.8010
   27MOL0     H 3631   8.237   0.762   3.133 -0.4292  1.0015 -0.4105
   27MOL0     H 3632   8.032   0.762   2.985  3.1341  0.7381 -0.2048
   27MOL0     H 3633   7.721   1.064   3.103  0.3650  1.0448  3.2375
   27MOL0     H 3634   7.627   0.920   3.167  2.2816  0.4865  1.1665
   27MOL0     H 3635   7.598   0.837   2.929  0.7258 -0.1154 -1.1813
   27MOL0     H 3636   7.663   0.987   2.867 -1.9133  2.9696 -0.4221
   27MOL0     H 3637   7.475   1.111   2.990 -0.3140 -1.1280  3.3063
   27MOL0     H 3638   7.408   0.952   3.029  0.9969 -2.2371  0.0641
   27MOL0     H 3639   7.463   1.072   2.763  0.4584 -0.8318 -1.5503
   27MOL0     H 3640   7.442   0.901   2.756  3.9370  2.3665 -2.1261
   27MOL0     H 3641   7.053   1.073   2.811  0.3747  0.5390 -2.2967
   27MOL0     H 3642   7.835   0.994   3.300  0.2779 -1.3582  3.0147
   27MOL0     H 3643   7.921   0.986   3.509  1.5519  1.0532  2.4689
   27MOL0     H 3644   8.079   0.919   3.542  0.0805 -0.4170 -0.8164
   27MOL0     H 3645   8.077   1.084   3.490  0.6477  0.6847  2.7695
   28MOL0     O 3646   0.100   5.260   9.286  0.4173  0.7213 -0.0212
   28MOL0     C 3647   0.036   5.320   9.369  0.1134  0.0367 -1.5399
   28MOL0     O 3648  -0.095   5.366   9.361 -0.5097 -0.2022  0.8226
   28MOL0     C 3649  -0.170   5.349   9.246 -1.1557 -0.0191  0.5712
   28MOL0     C 3650  -0.283   5.433   9.232  0.1598  0.4699  0.1503
   28MOL0     C 3651  -0.379   5.415   9.129  0.4167  0.0000  0.1046
   28MOL0     C 3652  -0.361   5.321   9.036  0.2050 -0.4749 -0.3634
   28MOL0     O 3653  -0.432   5.308   8.917  0.4074  0.7499  0.1171
   28MOL0     C 3654  -0.571   5.336   8.915 -0.2448 -0.0484 -0.7453
   28MOL0     C 3655  -0.642   5.329   8.781 -0.3293 -0.3521 -0.0022
   28MOL0     C 3656  -0.621   5.192   8.712  0.6448 -0.0730 -0.5368
   28MOL0     C 3657  -0.680   5.187   8.575 -0.1759 -0.6069 -0.1070
   28MOL0     C 3658  -0.715   5.045   8.538  1.0022  0.5729  0.9175
   28MOL0     C 3659  -0.844   5.028   8.443  0.2630 -0.5606  0.3527
   28MOL0     C 3660  -0.872   4.879   8.416  0.0260 -0.0223 -0.1823
   28MOL0     C 3661  -0.904   4.876   8.269 -0.2143 -0.5642 -0.1925
   28MOL0     N 3662  -0.928   4.738   8.223 -0.4090  0.1652  0.2895
   28MOL0     C 3663  -0.950   4.628   8.306  0.2588  0.4644  0.1168
   28MOL0     C 3664  -0.972   4.526   8.218 -0.1594 -0.5405  0.9843
   28MOL0     C 3665  -0.994   4.379   8.249  0.5888 -0.2077  0.5422
   28MOL0     C 3666  -0.894   4.317   8.351 -0.1367  0.1067 -0.2907
   28MOL0     C 3667  -0.910   4.165   8.358 -0.0966  0.4301  1.0618
   28MOL0     C 3668  -0.844   4.106   8.473  0.1762  0.4368 -0.3431
   28MOL0     O 3669  -0.790   3.983   8.443  0.2839  0.0975 -0.4857
   28MOL0     C 3670  -0.680   3.929   8.501 -1.0190 -0.0149 -0.8818
   28MOL0     C 3671  -0.629   3.814   8.452 -1.1324 -0.5451  0.0730
   28MOL0     C 3672  -0.525   3.739   8.514  0.7975  0.2694 -0.9458
   28MOL0     C 3673  -0.473   3.785   8.636  0.1795 -0.0052  1.0837
   28MOL0     C 3674  -0.366   3.708   8.711  0.8898 -0.2427  0.1589
   28MOL0     O 3675  -0.304   3.606   8.649  0.2602  0.0712  0.7195
   28MOL0     C 3676  -0.182   3.560   8.701  0.1639 -0.0065  0.8404
   28MOL0     C 3677  -0.069   3.643   8.708 -0.3427 -0.4063 -0.1798
   28MOL0     C 3678   0.056   3.587   8.728 -0.1698  0.7218  0.0991
   28MOL0     C 3679   0.072   3.445   8.738 -1.0190  1.1527  0.3000
   28MOL0     O 3680   0.193   3.387   8.731 -0.0667 -0.1678  0.2612
   28MOL0     C 3681   0.281   3.408   8.844 -0.5258  0.4890  0.0387
   28MOL0     C 3682   0.309   3.271   8.925  0.6602  0.1610  0.1288
   28MOL0     C 3683   0.390   3.161   8.848  0.7641 -0.0324 -0.7322
   28MOL0     C 3684   0.337   3.124   8.715  0.1163 -0.4666 -0.7952
   28MOL0     C 3685   0.408   3.006   8.658  0.4369 -0.7012 -1.1359
   28MOL0     C 3686   0.310   2.942   8.554 -0.9404  0.4732 -0.6483
   28MOL0     C 3687   0.400   2.831   8.474 -0.3080 -0.5702 -0.2771
   28MOL0     C 3688   0.398   2.687   8.533  0.3484 -0.6320  0.0083
   28MOL0    Cl 3689   0.454   2.577   8.400  0.4812 -0.5252  0.1321
   28MOL0     C 3690  -0.040   3.364   8.727  0.3241 -0.2329 -0.5523
   28MOL0     C 3691  -0.171   3.421   8.712 -0.9716  0.6664  0.2046
   28MOL0     O 3692  -0.322   3.760   8.805 -0.9203  0.3806  0.3645
   28MOL0     C 3693  -0.501   3.919   8.673 -0.2996 -0.2462  1.4948
   28MOL0     C 3694  -0.607   3.978   8.613 -0.1510  0.4708 -0.0316
   28MOL0     N 3695  -0.954   4.574   8.086 -0.4243  0.0760 -0.0326
   28MOL0     N 3696  -0.928   4.701   8.094  0.0974  0.4933 -0.3599
   28MOL0     C 3697  -0.244   5.243   9.042 -1.0663  0.4172 -0.2414
   28MOL0     C 3698  -0.150   5.244   9.145  0.2236  0.2067 -0.3705
   28MOL0     C 3699   0.111   5.377   9.487  0.8418  0.0175  1.7259
   28MOL0     C 3700   0.076   5.516   9.528 -0.5221  0.3991  0.4250
   28MOL0     C 3701   0.121   5.562   9.650  0.4836 -1.1461 -0.9254
   28MOL0     C 3702   0.200   5.487   9.731  0.0639  0.3375 -0.3240
   28MOL0     O 3703   0.232   5.551   9.854 -0.4031  0.1928  0.4037
   28MOL0     C 3704   0.328   5.485   9.924  0.8185 -0.3101  0.1516
   28MOL0     C 3705   0.370   5.578  10.033 -0.3795 -0.1349 -0.7572
   28MOL0     C 3706   0.254   5.599  10.123  0.5777  0.4836 -0.4556
   28MOL0     C 3707   0.296   5.670  10.251  0.0193 -0.4008 -0.3731
   28MOL0     C 3708   0.386   5.785  10.228 -0.5532 -0.1125 -0.1920
   28MOL0     C 3709   0.463   5.874  10.230  0.5983 -0.0967 -0.5392
   28MOL0     C 3710   0.251   5.364   9.675  0.1697  0.0180  0.9241
   28MOL0     C 3711   0.202   5.305   9.559 -0.9978 -0.0637 -0.1493
   28MOL0     C 3712   0.278   5.176   9.524  0.5173 -0.2377  0.7924
   28MOL0     H 3713  -0.304   5.515   9.299 -1.3729  1.1529 -1.0907
   28MOL0     H 3714  -0.470   5.475   9.125 -0.2695 -0.7796  2.2404
   28MOL0     H 3715  -0.613   5.258   8.979  1.8434 -0.8489 -0.2589
   28MOL0     H 3716  -0.589   5.434   8.961 -0.4142  0.9740 -2.8720
   28MOL0     H 3717  -0.604   5.387   8.697  2.4259  1.0316  2.0209
   28MOL0     H 3718  -0.747   5.357   8.794 -0.3531 -1.1990  2.0141
   28MOL0     H 3719  -0.678   5.114   8.763 -1.3117 -0.8658 -3.7039
   28MOL0     H 3720  -0.515   5.167   8.697 -0.0023 -1.5297 -3.1687
   28MOL0     H 3721  -0.776   5.240   8.574 -1.6206 -2.8699  2.4916
   28MOL0     H 3722  -0.614   5.233   8.501  0.8485  0.0893  1.1819
   28MOL0     H 3723  -0.627   5.011   8.483 -1.0908 -0.4773 -2.0553
   28MOL0     H 3724  -0.720   4.981   8.627  0.5893 -1.1634 -0.2992
   28MOL0     H 3725  -0.931   5.068   8.496  0.8664  0.4519  0.6123
   28MOL0     H 3726  -0.819   5.087   8.354  0.9399 -2.0080 -0.4594
   28MOL0     H 3727  -0.956   4.846   8.477 -0.8702 -0.1852 -1.4647
   28MOL0     H 3728  -0.779   4.826   8.440  1.7349  2.1047 -1.6680
   28MOL0     H 3729  -0.992   4.940   8.256 -0.2979 -0.6431 -0.0103
   28MOL0     H 3730  -0.829   4.923   8.204 -0.1876 -0.7702 -0.3101
   28MOL0     H 3731  -0.940   4.622   8.414  1.1601  5.0101  0.4810
   28MOL0     H 3732  -1.094   4.382   8.294 -0.7472 -1.7834 -2.0740
   28MOL0     H 3733  -0.984   4.336   8.149  2.1770  1.9548 -0.3125
   28MOL0     H 3734  -0.793   4.357   8.336 -0.4269  1.7972  1.7709
   28MOL0     H 3735  -0.903   4.366   8.448  1.1050  1.3275 -0.7573
   28MOL0     H 3736  -0.864   4.128   8.266 -0.4481  1.8119  0.3001
   28MOL0     H 3737  -1.011   4.125   8.372  1.0471 -2.7540  1.0009
   28MOL0     H 3738  -0.914   4.107   8.557 -1.7212  2.1317 -1.8249
   28MOL0     H 3739  -0.758   4.167   8.503 -0.8247  1.4330  0.5700
   28MOL0     H 3740  -0.670   3.767   8.363  1.2477 -1.5207 -0.5868
   28MOL0     H 3741  -0.490   3.650   8.461 -0.6966  0.9750 -3.3036
   28MOL0     H 3742  -0.083   3.750   8.703 -5.1884 -0.7670  0.5922
   28MOL0     H 3743   0.142   3.653   8.744  0.4488 -0.3172  1.2582
   28MOL0     H 3744   0.372   3.457   8.808 -1.2037  2.2854  0.6738
   28MOL0     H 3745   0.253   3.488   8.912  2.8756  1.3982  0.5525
   28MOL0     H 3746   0.361   3.286   9.020  0.5584 -0.9664  0.3797
   28MOL0     H 3747   0.211   3.227   8.946 -1.7044  2.4566 -4.4560
   28MOL0     H 3748   0.497   3.184   8.848  0.6628  0.4585 -1.3376
   28MOL0     H 3749   0.374   3.071   8.907 -1.2266 -0.3417 -1.6469
   28MOL0     H 3750   0.353   3.207   8.646 -2.4840 -1.2176 -2.4771
   28MOL0     H 3751   0.228   3.119   8.713 -0.1136  2.7243 -2.4037
   28MOL0     H 3752   0.438   2.934   8.735  1.8119 -2.5336 -3.2477
   28MOL0     H 3753   0.492   3.037   8.594 -0.0849  0.3366 -1.3408
   28MOL0     H 3754   0.216   2.902   8.594 -0.5958  2.6325  2.7160
   28MOL0     H 3755   0.279   3.015   8.479 -0.3160  0.5395 -0.8460
   28MOL0     H 3756   0.505   2.858   8.464 -0.4965 -0.2487 -1.5384
   28MOL0     H 3757   0.352   2.819   8.376  0.3354 -1.4656 -0.4901
   28MOL0     H 3758   0.466   2.681   8.618  1.3336 -0.7255 -0.7614
   28MOL0     H 3759   0.299   2.652   8.564 -0.3707  0.6430 -0.7644
   28MOL0     H 3760  -0.023   3.257   8.730 -4.2574 -1.1545 -0.5009
   28MOL0     H 3761  -0.259   3.359   8.701  0.5505 -1.2086 -2.5492
   28MOL0     H 3762  -0.453   3.978   8.750 -0.5567 -1.2414  2.4575
   28MOL0     H 3763  -0.611   4.081   8.647 -3.9517  0.3893  0.0884
   28MOL0     H 3764  -0.219   5.172   8.963  1.5316  0.9059  0.0519
   28MOL0     H 3765  -0.077   5.164   9.154 -1.0420 -0.8574  0.8193
   28MOL0     H 3766   0.005   5.562   9.461 -2.1539 -0.0823  1.7465
   28MOL0     H 3767   0.100   5.662   9.687  1.5503 -1.0527 -0.5191
   28MOL0     H 3768   0.413   5.452   9.862  0.5999 -2.3297  0.8434
   28MOL0     H 3769   0.293   5.389   9.962  3.7828 -2.0764 -1.2032
   28MOL0     H 3770   0.394   5.674   9.986 -1.1375  1.6748  2.2817
   28MOL0     H 3771   0.466   5.545  10.074  1.1857  2.9219 -1.6726
   28MOL0     H 3772   0.202   5.504  10.136 -1.0364  1.3063 -0.5351
   28MOL0     H 3773   0.183   5.666  10.074  0.7229  1.3240  0.4452
   28MOL0     H 3774   0.204   5.698  10.304  0.3555  0.4408 -0.2184
   28MOL0     H 3775   0.366   5.617  10.316  0.2220  1.8171  1.3325
   28MOL0     H 3776   0.524   5.962  10.220  1.9708 -1.0934 -1.3208
   28MOL0     H 3777   0.332   5.316   9.729  0.3438  0.1903  0.8152
   28MOL0     H 3778   0.219   5.112   9.458  0.3132 -0.4355  1.1594
   28MOL0     H 3779   0.373   5.191   9.472  0.7253 -0.2853  1.1504
   28MOL0     H 3780   0.280   5.109   9.611 -0.9307  0.5779  1.4946
   29MOL0     O 3781   2.729   3.841   6.226 -0.2414 -0.6014 -0.2520
   29MOL0     C 3782   2.724   3.826   6.349  0.1572  0.0035  0.3066
   29MOL0     O 3783   2.720   3.706   6.430 -0.1463 -0.2045 -0.1698
   29MOL0     C 3784   2.734   3.581   6.375 -0.2074 -0.3317  0.0831
   29MOL0     C 3785   2.729   3.487   6.473  0.9491 -0.7798  0.1957
   29MOL0     C 3786   2.744   3.352   6.450 -1.0014 -0.1018  0.5769
   29MOL0     C 3787   2.733   3.306   6.318 -0.1412 -0.0013 -0.4909
   29MOL0     O 3788   2.753   3.169   6.286  0.0682  0.3753  0.2037
   29MOL0     C 3789   2.717   3.066   6.377  0.0605  0.8528 -0.5620
   29MOL0     C 3790   2.681   2.946   6.286 -0.3803 -0.5589 -0.5405
   29MOL0     C 3791   2.793   2.877   6.210  0.3653 -0.0410  0.4194
   29MOL0     C 3792   2.872   2.792   6.303 -1.0886 -0.1443 -0.0242
   29MOL0     C 3793   2.986   2.721   6.239 -1.0892  0.1519 -0.2345
   29MOL0     C 3794   3.112   2.707   6.334  0.0500 -0.7354  0.0210
   29MOL0     C 3795   3.210   2.604   6.282 -0.3481  0.0566 -0.4674
   29MOL0     C 3796   3.354   2.630   6.333  0.1005 -0.3570 -0.3855
   29MOL0     N 3797   3.423   2.715   6.249  0.7130  0.1341 -0.2545
   29MOL0     C 3798   3.444   2.856   6.252 -0.8127 -0.1203  0.3154
   29MOL0     C 3799   3.537   2.888   6.157 -0.5654  0.0975 -0.0280
   29MOL0     C 3800   3.586   3.024   6.150  0.7080  0.0657  0.1557
   29MOL0     C 3801   3.748   3.025   6.133  0.4214 -0.0201  0.0493
   29MOL0     C 3802   3.832   3.024   6.258  0.4611  0.0244  0.0601
   29MOL0     C 3803   3.793   2.927   6.369 -0.4177 -0.0493  0.7814
   29MOL0     O 3804   3.693   2.974   6.439  0.5105 -0.1177  0.0731
   29MOL0     C 3805   3.648   2.903   6.547 -0.4573  0.1216 -0.2046
   29MOL0     C 3806   3.655   2.762   6.565 -0.5557  0.0121 -0.5310
   29MOL0     C 3807   3.601   2.712   6.683  0.0722  0.6150  0.5659
   29MOL0     C 3808   3.514   2.785   6.768  0.1090 -0.0578  0.2207
   29MOL0     C 3809   3.457   2.723   6.885 -0.2968  1.1739 -0.3682
   29MOL0     O 3810   3.520   2.602   6.919  0.1102 -0.4139 -0.3492
   29MOL0     C 3811   3.500   2.524   7.032  0.8556 -0.2866  0.6856
   29MOL0     C 3812   3.384   2.521   7.116 -0.0949 -0.8454  0.4912
   29MOL0     C 3813   3.387   2.431   7.216  1.0039  0.7954  0.5252
   29MOL0     C 3814   3.502   2.353   7.244 -0.8924  0.1346  0.1567
   29MOL0     O 3815   3.517   2.260   7.355  0.6604  0.1418 -0.1104
   29MOL0     C 3816   3.497   2.325   7.483  0.2576 -0.3197  0.7298
   29MOL0     C 3817   3.521   2.233   7.601 -0.8018 -0.4949 -0.5284
   29MOL0     C 3818   3.561   2.322   7.723 -0.4249  0.5763 -0.9952
   29MOL0     C 3819   3.534   2.258   7.860 -0.7002 -0.4082 -0.5221
   29MOL0     C 3820   3.591   2.355   7.970 -0.1558  0.1547 -0.1407
   29MOL0     C 3821   3.598   2.294   8.113  1.0560 -1.0780  0.3707
   29MOL0     C 3822   3.460   2.237   8.150  0.5721  0.4057  0.2387
   29MOL0     C 3823   3.413   2.268   8.291  0.3161 -0.6317 -1.2167
   29MOL0    Cl 3824   3.513   2.187   8.411 -0.4429  0.0403  0.0062
   29MOL0     C 3825   3.609   2.359   7.165  0.2485  0.1216  0.6877
   29MOL0     C 3826   3.613   2.451   7.059  0.0437  1.2145 -0.2315
   29MOL0     O 3827   3.366   2.782   6.951  0.4929 -0.2684  1.3100
   29MOL0     C 3828   3.480   2.913   6.727 -0.0047 -0.3424  0.0742
   29MOL0     C 3829   3.553   2.970   6.629 -0.1409 -0.1313  1.0438
   29MOL0     N 3830   3.575   2.774   6.094  0.0416  0.3536 -0.8003
   29MOL0     N 3831   3.504   2.672   6.146 -0.4310  0.4384 -0.2268
   29MOL0     C 3832   2.737   3.393   6.211  0.0630 -0.5546  0.1057
   29MOL0     C 3833   2.748   3.536   6.239  0.3712  1.0546  0.7275
   29MOL0     C 3834   2.734   3.959   6.426  0.6153  0.6024 -0.1603
   29MOL0     C 3835   2.728   3.954   6.566  0.1095  0.1596 -1.1547
   29MOL0     C 3836   2.746   4.066   6.651 -0.3704 -0.4249  0.7497
   29MOL0     C 3837   2.758   4.185   6.599 -0.2533 -0.7896 -0.8013
   29MOL0     O 3838   2.785   4.280   6.688 -0.5526 -1.0786  0.4226
   29MOL0     C 3839   2.687   4.386   6.688 -0.2496  0.6203 -0.9559
   29MOL0     C 3840   2.606   4.394   6.816  0.1665  0.5664 -1.1692
   29MOL0     C 3841   2.484   4.292   6.820  0.5018  0.0083 -0.2873
   29MOL0     C 3842   2.387   4.314   6.941 -0.1468  0.4886  0.6634
   29MOL0     C 3843   2.299   4.187   6.951 -1.2104 -0.3756 -0.0692
   29MOL0     C 3844   2.224   4.093   6.940  0.2065 -0.1403 -0.4760
   29MOL0     C 3845   2.753   4.199   6.462  0.4613  0.3916 -0.1153
   29MOL0     C 3846   2.741   4.094   6.372  0.7761  0.1959 -0.1247
   29MOL0     C 3847   2.753   4.131   6.225  0.8863 -0.2920 -0.3232
   29MOL0     H 3848   2.706   3.509   6.577 -2.6195 -1.7626 -0.2367
   29MOL0     H 3849   2.728   3.281   6.530  1.8094 -0.6989  0.7292
   29MOL0     H 3850   2.803   3.039   6.439 -0.1128  0.5073 -0.4705
   29MOL0     H 3851   2.626   3.079   6.436  0.7576 -0.8987  0.9776
   29MOL0     H 3852   2.613   2.975   6.205  1.1324 -2.3342 -2.5713
   29MOL0     H 3853   2.635   2.875   6.355  1.4750  1.9376  3.5772
   29MOL0     H 3854   2.856   2.956   6.167 -1.5113  1.5054  0.3670
   29MOL0     H 3855   2.743   2.816   6.135 -3.2060 -1.2712  3.5036
   29MOL0     H 3856   2.910   2.865   6.375 -0.5446  0.0626 -0.5080
   29MOL0     H 3857   2.811   2.716   6.354  0.3714 -1.5211 -0.2334
   29MOL0     H 3858   2.965   2.622   6.196 -0.6623 -0.5059  1.0446
   29MOL0     H 3859   3.018   2.791   6.160  1.2079 -1.1606 -0.5561
   29MOL0     H 3860   3.160   2.805   6.343 -0.8518 -0.2680 -0.1529
   29MOL0     H 3861   3.071   2.685   6.433  1.1659 -2.3496  0.1714
   29MOL0     H 3862   3.207   2.606   6.173  1.0180  1.2429 -0.5198
   29MOL0     H 3863   3.186   2.502   6.316  1.1117  0.8495  3.5568
   29MOL0     H 3864   3.360   2.665   6.436 -2.5484 -1.3861  0.2116
   29MOL0     H 3865   3.404   2.533   6.326  0.5804 -0.1282 -0.1411
   29MOL0     H 3866   3.413   2.913   6.339 -0.0059 -0.9846  1.1955
   29MOL0     H 3867   3.535   3.079   6.071  0.1144 -1.6445 -0.6995
   29MOL0     H 3868   3.559   3.072   6.244 -1.8742 -0.7607 -0.0973
   29MOL0     H 3869   3.775   2.937   6.074 -1.5096  0.2911 -1.3844
   29MOL0     H 3870   3.776   3.114   6.076 -0.5585  0.3172  0.0787
   29MOL0     H 3871   3.822   3.124   6.299 -2.2528  0.2163 -0.8813
   29MOL0     H 3872   3.938   3.015   6.231 -0.0985 -4.2053 -1.6800
   29MOL0     H 3873   3.873   2.927   6.443 -1.5666 -1.6678  2.1121
   29MOL0     H 3874   3.784   2.829   6.321  0.5305  0.3264 -0.2102
   29MOL0     H 3875   3.707   2.696   6.496 -1.0006 -1.8633  0.8340
   29MOL0     H 3876   3.635   2.617   6.722 -0.3857  0.9082  1.7193
   29MOL0     H 3877   3.290   2.564   7.083 -1.4477 -2.4453  2.0340
   29MOL0     H 3878   3.304   2.410   7.283 -0.4284 -1.3099 -1.7323
   29MOL0     H 3879   3.559   2.414   7.497  0.0843 -0.6045  4.0995
   29MOL0     H 3880   3.390   2.350   7.487  0.3487  0.1364  5.8458
   29MOL0     H 3881   3.430   2.175   7.618 -0.0970 -1.7036 -0.7698
   29MOL0     H 3882   3.603   2.164   7.579 -0.4891  0.2301 -1.7060
   29MOL0     H 3883   3.667   2.344   7.708  0.0375 -0.0154  1.0814
   29MOL0     H 3884   3.519   2.423   7.721  1.4554  1.3852 -2.8385
   29MOL0     H 3885   3.588   2.163   7.864  1.1679  0.2922 -4.2286
   29MOL0     H 3886   3.427   2.262   7.881 -1.1940  4.7495 -2.4970
   29MOL0     H 3887   3.533   2.448   7.967  0.6681  0.7247  0.9824
   29MOL0     H 3888   3.698   2.371   7.954  0.4747 -2.7173  0.5896
   29MOL0     H 3889   3.677   2.218   8.116  2.1796  0.0349 -0.3215
   29MOL0     H 3890   3.620   2.375   8.183 -2.3522  0.4391 -0.0807
   29MOL0     H 3891   3.462   2.128   8.139  0.0924  0.6214 -3.1466
   29MOL0     H 3892   3.380   2.267   8.082 -1.6980  0.2983  2.7074
   29MOL0     H 3893   3.409   2.376   8.308 -3.8218 -0.7942 -0.0820
   29MOL0     H 3894   3.314   2.228   8.314  0.7682 -2.5075 -2.3460
   29MOL0     H 3895   3.689   2.287   7.180  0.7208  0.1896 -1.3177
   29MOL0     H 3896   3.698   2.458   6.992 -1.1395  2.0251 -1.7104
   29MOL0     H 3897   3.405   2.973   6.777  0.8067  0.9930 -0.2437
   29MOL0     H 3898   3.539   3.077   6.619 -0.3092 -0.3299 -1.1676
   29MOL0     H 3899   2.738   3.346   6.113  1.3870 -2.0165  0.7633
   29MOL0     H 3900   2.758   3.607   6.158  3.7370  1.9988  1.8053
   29MOL0     H 3901   2.732   3.859   6.617  0.9256  1.1670  0.7486
   29MOL0     H 3902   2.749   4.065   6.760  0.0699 -2.2746  0.7547
   29MOL0     H 3903   2.620   4.383   6.602  0.6325  0.3548 -1.6472
   29MOL0     H 3904   2.740   4.481   6.679 -0.5043  0.5837 -3.8163
   29MOL0     H 3905   2.561   4.493   6.829 -0.0761  0.0526  4.0474
   29MOL0     H 3906   2.672   4.391   6.903 -0.5331 -1.0310 -0.6453
   29MOL0     H 3907   2.512   4.186   6.816  2.9252  0.2892  3.8728
   29MOL0     H 3908   2.421   4.301   6.731 -2.0862 -0.5239  1.3801
   29MOL0     H 3909   2.451   4.309   7.030  0.9849 -0.5926 -0.1742
   29MOL0     H 3910   2.321   4.401   6.938  0.3438  0.8345 -1.1070
   29MOL0     H 3911   2.178   3.997   6.937 -0.0686 -0.0307  0.0989
   29MOL0     H 3912   2.769   4.299   6.424 -0.3548 -0.1707 -2.0298
   29MOL0     H 3913   2.772   4.238   6.230 -2.6909  0.4385  0.0800
   29MOL0     H 3914   2.834   4.076   6.175 -1.5904 -1.9422 -2.9015
   29MOL0     H 3915   2.667   4.123   6.157  0.7747  0.8587 -0.3318
   30MOL0     O 3916  11.058  11.414   5.658 -1.6177  0.1560 -0.0812
   30MOL0     C 3917  10.989  11.483   5.732 -0.2513  0.1555  0.8442
   30MOL0     O 3918  10.852  11.491   5.735 -0.3363  1.0823  0.0892
   30MOL0     C 3919  10.787  11.443   5.617 -0.3592  0.1089  0.8673
   30MOL0     C 3920  10.704  11.332   5.635 -0.4927 -0.5487  0.1383
   30MOL0     C 3921  10.619  11.300   5.535 -0.9525  0.2733  0.1178
   30MOL0     C 3922  10.619  11.363   5.403 -0.6403  0.3464  0.3967
   30MOL0     O 3923  10.538  11.335   5.303 -0.4092  0.4339  0.4515
   30MOL0     C 3924  10.457  11.219   5.318  0.1688  0.4139  0.6047
   30MOL0     C 3925  10.357  11.222   5.208  0.3475 -0.4386 -0.6406
   30MOL0     C 3926  10.293  11.367   5.200  0.7148  0.4332  0.8684
   30MOL0     C 3927  10.156  11.384   5.136 -0.4223  0.3384 -0.0316
   30MOL0     C 3928  10.173  11.367   4.987  0.0008 -0.6101 -0.4804
   30MOL0     C 3929  10.042  11.405   4.916 -0.2102 -0.2370 -0.0098
   30MOL0     C 3930  10.049  11.424   4.765 -0.2516  0.0552  1.0717
   30MOL0     C 3931  10.132  11.534   4.709  0.2347 -0.6107  0.5624
   30MOL0     N 3932  10.077  11.662   4.735  0.4241 -0.7202 -0.4707
   30MOL0     C 3933   9.943  11.690   4.768 -0.1451 -0.1489 -0.6493
   30MOL0     C 3934   9.931  11.826   4.728 -0.6896  0.1085 -0.2204
   30MOL0     C 3935   9.822  11.915   4.754  0.1886  0.7059  0.0786
   30MOL0     C 3936   9.679  11.844   4.764  0.3238  0.3547 -0.2287
   30MOL0     C 3937   9.567  11.941   4.811 -0.3909 -0.2982 -0.3204
   30MOL0     C 3938   9.428  11.871   4.814 -0.1242  0.8410  0.1672
   30MOL0     O 3939   9.322  11.953   4.863 -0.7382 -0.5783  0.7279
   30MOL0     C 3940   9.264  12.041   4.771  1.0324 -0.1205  0.2618
   30MOL0     C 3941   9.175  12.136   4.823 -1.1035  0.0304 -0.0755
   30MOL0     C 3942   9.105  12.222   4.732  0.0019 -0.2195  0.2777
   30MOL0     C 3943   9.126  12.215   4.595  0.1529 -0.8255 -0.3129
   30MOL0     C 3944   9.037  12.286   4.504 -0.3225 -0.3462 -0.7646
   30MOL0     O 3945   8.933  12.352   4.561  0.2056  0.0907  0.2012
   30MOL0     C 3946   8.850  12.442   4.489 -0.7118  0.2391 -0.5993
   30MOL0     C 3947   8.777  12.506   4.584  1.0572 -0.2076 -0.1506
   30MOL0     C 3948   8.681  12.600   4.540  1.0390 -1.0571 -0.0362
   30MOL0     C 3949   8.674  12.646   4.410  0.1737  0.4032  0.7443
   30MOL0     O 3950   8.591  12.752   4.374 -0.0667  0.4530  0.5431
   30MOL0     C 3951   8.469  12.688   4.321  0.7150 -0.1309 -1.0618
   30MOL0     C 3952   8.369  12.798   4.331 -0.2546  0.7347 -0.1167
   30MOL0     C 3953   8.388  12.903   4.228  0.7169  0.9139  0.0771
   30MOL0     C 3954   8.260  12.990   4.244  0.4104 -0.1738 -0.4597
   30MOL0     C 3955   8.292  13.109   4.148 -0.4807 -0.0548 -0.2264
   30MOL0     C 3956   8.417  13.206   4.178  0.1392  0.8095  0.4716
   30MOL0     C 3957   8.399  13.335   4.098 -0.0806 -1.6575 -0.0462
   30MOL0     C 3958   8.407  13.351   3.948  0.2190 -0.2465 -1.0821
   30MOL0    Cl 3959   8.566  13.295   3.890  0.0028  0.3679  0.2303
   30MOL0     C 3960   8.765  12.591   4.319 -0.2424 -0.4347  0.0883
   30MOL0     C 3961   8.851  12.484   4.357  0.0940  0.3713 -0.5666
   30MOL0     O 3962   9.072  12.295   4.382 -0.1164  0.3466  0.4382
   30MOL0     C 3963   9.232  12.133   4.544  0.5343 -0.5842 -0.9634
   30MOL0     C 3964   9.300  12.054   4.635  0.0989 -0.5611  0.4393
   30MOL0     N 3965  10.055  11.865   4.672  0.8231  0.0445  0.8712
   30MOL0     N 3966  10.144  11.772   4.680 -0.0347  0.1296 -0.6710
   30MOL0     C 3967  10.707  11.478   5.392 -0.4011  0.1719 -0.0276
   30MOL0     C 3968  10.781  11.519   5.498 -0.1207 -0.6105 -0.0552
   30MOL0     C 3969  11.065  11.546   5.846 -0.0910 -0.1808  0.1395
   30MOL0     C 3970  11.186  11.487   5.879 -0.2821  0.8778  0.4078
   30MOL0     C 3971  11.266  11.535   5.981  0.1994 -0.3823 -0.3121
   30MOL0     C 3972  11.226  11.646   6.052  0.4590  0.0138  0.1425
   30MOL0     O 3973  11.306  11.715   6.147  0.3384 -0.1896 -0.1734
   30MOL0     C 3974  11.436  11.669   6.185  0.4183 -0.3320 -0.4859
   30MOL0     C 3975  11.490  11.716   6.320  0.2854 -0.3346 -1.0791
   30MOL0     C 3976  11.615  11.656   6.366  0.3061 -0.2059 -0.0323
   30MOL0     C 3977  11.593  11.517   6.432 -0.5902  0.0509  0.1390
   30MOL0     C 3978  11.718  11.466   6.495 -0.8155  0.4420  0.5612
   30MOL0     C 3979  11.806  11.434   6.566 -1.0697  0.0985  0.6680
   30MOL0     C 3980  11.096  11.695   6.032 -0.3662  0.5309  0.4012
   30MOL0     C 3981  11.020  11.660   5.927 -0.5341  0.9866  0.5776
   30MOL0     C 3982  10.885  11.727   5.897 -0.1189 -0.2610 -0.5509
   30MOL0     H 3983  10.696  11.288   5.734  1.4211 -1.1219  0.0691
   30MOL0     H 3984  10.540  11.227   5.548 -1.5627  0.6706 -1.1707
   30MOL0     H 3985  10.523  11.132   5.325  0.7094  0.5982 -1.4535
   30MOL0     H 3986  10.392  11.219   5.406  1.8322  0.3458  1.8884
   30MOL0     H 3987  10.267  11.165   5.233  0.0552  1.1447  2.3149
   30MOL0     H 3988  10.405  11.205   5.111 -3.1101 -1.3458 -2.3529
   30MOL0     H 3989  10.368  11.417   5.136  1.3924 -0.8148  0.6589
   30MOL0     H 3990  10.282  11.412   5.299 -2.1077 -0.7907  1.2034
   30MOL0     H 3991  10.089  11.315   5.189 -1.4918  0.3928 -1.2727
   30MOL0     H 3992  10.123  11.487   5.155  0.1150  0.8317 -1.6456
   30MOL0     H 3993  10.238  11.449   4.954 -1.2544  0.8376  0.4826
   30MOL0     H 3994  10.216  11.273   4.952  0.4149 -1.0810  1.1938
   30MOL0     H 3995   9.961  11.331   4.928  0.2521 -0.6114  0.8726
   30MOL0     H 3996  10.000  11.499   4.953  1.4991  0.6966 -0.3459
   30MOL0     H 3997   9.946  11.436   4.730 -0.0769 -1.8123 -0.2094
   30MOL0     H 3998  10.088  11.333   4.717  1.9073  1.8136 -0.7184
   30MOL0     H 3999  10.234  11.516   4.743 -0.0307  0.5743  2.0764
   30MOL0     H 4000  10.132  11.521   4.600  1.0930 -1.0329  0.6005
   30MOL0     H 4001   9.869  11.630   4.821 -0.6367 -1.3890 -2.6471
   30MOL0     H 4002   9.833  11.944   4.858 -3.2653 -0.6785  0.9847
   30MOL0     H 4003   9.835  11.999   4.686  1.9635  0.3942 -0.0095
   30MOL0     H 4004   9.648  11.791   4.674 -1.7070 -1.2355  1.2898
   30MOL0     H 4005   9.676  11.759   4.833 -3.8969  1.7144  1.6508
   30MOL0     H 4006   9.552  12.024   4.741 -1.1141  1.7122  2.0562
   30MOL0     H 4007   9.593  11.992   4.904  0.4724 -0.8279 -0.2650
   30MOL0     H 4008   9.432  11.780   4.874 -1.2420 -0.3057 -1.4273
   30MOL0     H 4009   9.405  11.834   4.713 -0.0246 -1.5284  0.9468
   30MOL0     H 4010   9.140  12.148   4.925 -3.2047  3.3106 -1.0236
   30MOL0     H 4011   9.017  12.272   4.771 -0.5686 -2.6772  2.4822
   30MOL0     H 4012   8.790  12.472   4.686 -0.1128 -1.2321 -0.3138
   30MOL0     H 4013   8.619  12.661   4.606 -0.8085  0.2591 -2.8026
   30MOL0     H 4014   8.482  12.665   4.215  2.9347  4.3487 -2.0138
   30MOL0     H 4015   8.432  12.601   4.377  2.2056  0.8807  1.7141
   30MOL0     H 4016   8.273  12.749   4.317  1.1250 -3.0962  2.4076
   30MOL0     H 4017   8.371  12.840   4.432 -2.2949  2.1764 -0.5975
   30MOL0     H 4018   8.485  12.945   4.253  0.8453 -0.5812  2.3583
   30MOL0     H 4019   8.392  12.863   4.126 -0.0561 -1.3100  0.8594
   30MOL0     H 4020   8.254  13.032   4.344 -0.8345  0.2835 -0.7078
   30MOL0     H 4021   8.162  12.946   4.221 -1.2182  3.9012 -2.4477
   30MOL0     H 4022   8.199  13.167   4.144 -1.8809 -2.2085 -0.3798
   30MOL0     H 4023   8.305  13.064   4.050  1.2884 -0.0610 -0.0172
   30MOL0     H 4024   8.429  13.232   4.283 -1.3751 -0.5174  0.9988
   30MOL0     H 4025   8.507  13.158   4.138 -1.0184  2.1601 -4.4201
   30MOL0     H 4026   8.462  13.410   4.146 -1.4965 -0.4123 -0.0326
   30MOL0     H 4027   8.299  13.371   4.125 -0.3842 -3.0851  0.8224
   30MOL0     H 4028   8.330  13.288   3.903 -2.3202  0.9883  1.2077
   30MOL0     H 4029   8.382  13.457   3.933 -1.9145 -0.3728  0.9143
   30MOL0     H 4030   8.760  12.621   4.215 -3.7545 -1.7708 -0.2632
   30MOL0     H 4031   8.917  12.438   4.283  0.7207 -1.9155  1.2876
   30MOL0     H 4032   9.257  12.123   4.438 -1.2601 -3.0538 -1.2211
   30MOL0     H 4033   9.358  11.974   4.590 -0.3198 -0.9242  0.5440
   30MOL0     H 4034  10.719  11.543   5.306 -0.1291  2.5895  1.7266
   30MOL0     H 4035  10.847  11.606   5.488  1.4869 -1.8816 -0.9699
   30MOL0     H 4036  11.213  11.401   5.820 -0.0665  0.4595  1.1151
   30MOL0     H 4037  11.370  11.505   5.985  0.8466  1.1687 -2.9631
   30MOL0     H 4038  11.511  11.703   6.112 -1.3347  2.9478 -0.9076
   30MOL0     H 4039  11.431  11.560   6.193 -0.2534 -0.1760  1.8152
   30MOL0     H 4040  11.417  11.677   6.391  1.3442 -4.2725 -1.9058
   30MOL0     H 4041  11.502  11.824   6.336  2.2016 -0.9237  2.3749
   30MOL0     H 4042  11.662  11.718   6.443  0.2051 -1.4913  1.0983
   30MOL0     H 4043  11.690  11.657   6.286 -2.9988  0.2008 -3.3969
   30MOL0     H 4044  11.518  11.530   6.511  1.1863  2.0222  1.6466
   30MOL0     H 4045  11.558  11.441   6.362 -3.6709  1.0435  0.4918
   30MOL0     H 4046  11.891  11.403   6.624  0.3510  0.3926 -1.1722
   30MOL0     H 4047  11.076  11.792   6.077 -2.9230 -0.1110  0.8225
   30MOL0     H 4048  10.885  11.831   5.928 -2.8770 -0.3284 -0.0935
   30MOL0     H 4049  10.868  11.731   5.789 -2.1383 -1.7703 -0.3548
   30MOL0     H 4050  10.806  11.673   5.950  0.2161  1.1044  1.4184
   31MOL0     O 4051   8.905   5.559   6.163  0.1835  0.4292 -0.7538
   31MOL0     C 4052   8.995   5.542   6.241  0.4792 -0.4375 -0.8426
   31MOL0     O 4053   8.969   5.516   6.376 -0.1544 -0.3776  0.2880
   31MOL0     C 4054   8.866   5.592   6.435  0.4526 -0.0023 -0.5661
   31MOL0     C 4055   8.825   5.719   6.397 -0.2882  1.0794  0.8982
   31MOL0     C 4056   8.729   5.788   6.460  0.0389 -0.2819 -0.2809
   31MOL0     C 4057   8.669   5.729   6.574  0.7093  0.8444 -0.1259
   31MOL0     O 4058   8.564   5.785   6.639  0.2976  0.2838 -0.9415
   31MOL0     C 4059   8.446   5.807   6.553 -0.4958  0.7499  0.3847
   31MOL0     C 4060   8.326   5.728   6.599 -0.6905  0.1503 -0.1782
   31MOL0     C 4061   8.238   5.804   6.711  0.5240  0.1735 -0.4804
   31MOL0     C 4062   8.105   5.753   6.722  0.1008  0.6311  0.0487
   31MOL0     C 4063   8.007   5.830   6.823 -0.2052 -0.1864 -0.0773
   31MOL0     C 4064   8.043   5.824   6.970  0.3900 -0.4991 -0.0083
   31MOL0     C 4065   7.944   5.921   7.044 -0.1743 -0.9030  1.3810
   31MOL0     C 4066   7.931   5.899   7.189 -0.0256  0.0414 -0.0890
   31MOL0     N 4067   7.850   5.992   7.274 -0.1722 -0.5405 -0.1309
   31MOL0     C 4068   7.761   6.090   7.232  0.0714 -0.5462  0.4625
   31MOL0     C 4069   7.744   6.171   7.346  1.0878 -0.3858  0.5393
   31MOL0     C 4070   7.650   6.289   7.362  0.4308 -0.9880 -0.0555
   31MOL0     C 4071   7.509   6.242   7.390 -0.3163  1.1199 -0.5449
   31MOL0     C 4072   7.426   6.359   7.425 -0.1179  0.8012 -0.1693
   31MOL0     C 4073   7.297   6.307   7.485 -0.2188  0.2522  0.2840
   31MOL0     O 4074   7.213   6.280   7.377 -0.2144 -0.6426  0.3352
   31MOL0     C 4075   7.087   6.231   7.393 -0.4067  0.5033  0.2670
   31MOL0     C 4076   7.037   6.163   7.507  0.9098 -0.4933  0.1795
   31MOL0     C 4077   6.901   6.116   7.505 -0.7215 -0.2793  0.1861
   31MOL0     C 4078   6.810   6.147   7.401  0.5381 -1.1034  0.3566
   31MOL0     C 4079   6.679   6.089   7.398 -0.5270 -0.0500  0.1712
   31MOL0     O 4080   6.643   6.010   7.511 -0.3377  0.8343  0.7853
   31MOL0     C 4081   6.515   5.975   7.525  0.8019  0.4257  0.2214
   31MOL0     C 4082   6.440   6.042   7.628  0.3467 -1.3415  0.1812
   31MOL0     C 4083   6.302   6.020   7.632  0.7860  0.0836  1.3273
   31MOL0     C 4084   6.238   5.921   7.554  0.0521 -0.0536 -0.0602
   31MOL0     O 4085   6.101   5.922   7.559 -0.3021  0.2756  0.0762
   31MOL0     C 4086   6.058   5.850   7.683 -0.3356 -0.3073  0.7529
   31MOL0     C 4087   5.907   5.829   7.670  0.0639  0.5643 -0.6303
   31MOL0     C 4088   5.862   5.714   7.758 -0.5292 -0.0071 -0.7778
   31MOL0     C 4089   5.726   5.738   7.829 -0.0724 -0.1021 -0.0577
   31MOL0     C 4090   5.609   5.748   7.728 -0.7210  0.8642 -0.3164
   31MOL0     C 4091   5.566   5.607   7.672  0.8128 -0.4283  0.8117
   31MOL0     C 4092   5.424   5.636   7.607 -0.3438  0.2950 -0.1989
   31MOL0     C 4093   5.306   5.627   7.697  0.6867  0.1388  0.5556
   31MOL0    Cl 4094   5.164   5.642   7.609 -0.5257  0.3098 -0.0749
   31MOL0     C 4095   6.312   5.851   7.463  0.0076  0.2011 -0.0772
   31MOL0     C 4096   6.445   5.877   7.443 -1.2946 -0.4461 -0.4987
   31MOL0     O 4097   6.609   6.106   7.296  0.1718  0.2575  0.2284
   31MOL0     C 4098   6.852   6.226   7.293  0.7053 -0.3282  0.0862
   31MOL0     C 4099   6.991   6.274   7.292  0.2617  1.0059  0.1482
   31MOL0     N 4100   7.813   6.118   7.449  0.3187 -0.1669  0.1534
   31MOL0     N 4101   7.883   6.021   7.398  0.5634 -0.0634  0.3276
   31MOL0     C 4102   8.712   5.603   6.616 -0.0458 -0.1927  0.2599
   31MOL0     C 4103   8.803   5.539   6.541  0.9995 -0.0631  0.9254
   31MOL0     C 4104   9.132   5.552   6.195  0.2685 -0.0056 -0.6844
   31MOL0     C 4105   9.188   5.446   6.132  0.6911  1.0152  0.2461
   31MOL0     C 4106   9.329   5.455   6.092  0.9534  1.3289  0.2595
   31MOL0     C 4107   9.412   5.569   6.108 -0.6849 -0.1942  0.1598
   31MOL0     O 4108   9.535   5.601   6.056 -0.8829 -0.5109  0.2887
   31MOL0     C 4109   9.619   5.495   5.993  0.6055  0.0884 -0.5727
   31MOL0     C 4110   9.649   5.391   6.092  0.5077  0.0657 -0.9998
   31MOL0     C 4111   9.735   5.280   6.038 -0.3214  0.9983 -0.2241
   31MOL0     C 4112   9.873   5.326   6.029 -0.1651 -0.4332  0.5483
   31MOL0     C 4113   9.964   5.216   5.989  0.2625 -0.5381 -0.3448
   31MOL0     C 4114  10.026   5.123   5.948  0.4979  0.0211  1.0013
   31MOL0     C 4115   9.348   5.680   6.161  0.2681  0.6138 -0.7554
   31MOL0     C 4116   9.216   5.662   6.212 -0.0839  0.4275 -0.4201
   31MOL0     C 4117   9.165   5.775   6.296 -0.5233 -0.1706 -0.0740
   31MOL0     H 4118   8.883   5.761   6.316 -1.0771  0.5838  0.0625
   31MOL0     H 4119   8.724   5.889   6.422 -0.4876  1.4651  3.9242
   31MOL0     H 4120   8.433   5.915   6.560  6.0166  1.9138  0.3568
   31MOL0     H 4121   8.470   5.787   6.448 -2.6861  1.4408 -0.2875
   31MOL0     H 4122   8.361   5.632   6.638  1.5080  1.0463  0.1919
   31MOL0     H 4123   8.260   5.699   6.516  0.2560 -2.4372 -0.1129
   31MOL0     H 4124   8.241   5.909   6.680  3.3685  0.0539 -0.9568
   31MOL0     H 4125   8.287   5.808   6.809 -1.3998  1.4503  0.4934
   31MOL0     H 4126   8.062   5.755   6.622 -0.0595 -0.4280  0.0807
   31MOL0     H 4127   8.122   5.647   6.743  2.3025  0.1660 -3.3266
   31MOL0     H 4128   7.998   5.931   6.780  0.2380  0.1178  0.5241
   31MOL0     H 4129   7.912   5.777   6.819 -1.2202  0.2577  6.6600
   31MOL0     H 4130   8.034   5.719   6.998  0.4980 -1.3940 -3.0483
   31MOL0     H 4131   8.144   5.854   6.999  0.4231  1.5818 -2.0227
   31MOL0     H 4132   7.842   5.906   7.008 -0.6538 -1.5278  2.9416
   31MOL0     H 4133   7.967   6.026   7.025 -2.9366 -0.0234  2.4737
   31MOL0     H 4134   7.897   5.797   7.208  0.4931  0.0125  0.7156
   31MOL0     H 4135   8.029   5.911   7.235 -0.9918  0.2362  2.0520
   31MOL0     H 4136   7.723   6.104   7.132  0.2175  2.3546  0.7081
   31MOL0     H 4137   7.688   6.373   7.420 -0.0260  1.2946 -2.8740
   31MOL0     H 4138   7.640   6.329   7.261  0.6295  2.6970  1.2423
   31MOL0     H 4139   7.449   6.199   7.310 -1.0157  0.2389  0.4215
   31MOL0     H 4140   7.512   6.173   7.475 -0.1740 -0.9023 -2.1343
   31MOL0     H 4141   7.409   6.411   7.329 -1.1054  0.2951 -0.2828
   31MOL0     H 4142   7.480   6.427   7.491  0.3252  2.7342 -2.3800
   31MOL0     H 4143   7.254   6.390   7.543 -0.3422  2.6396 -2.9014
   31MOL0     H 4144   7.316   6.221   7.549 -1.0512  1.4696  2.2597
   31MOL0     H 4145   7.103   6.116   7.579 -1.6445 -1.3356  2.1024
   31MOL0     H 4146   6.883   6.035   7.575  0.8371  0.2057  1.1964
   31MOL0     H 4147   6.485   6.121   7.689  2.0855 -0.8905 -1.5855
   31MOL0     H 4148   6.244   6.078   7.703 -0.7016  0.5350 -0.1929
   31MOL0     H 4149   6.104   5.752   7.690 -1.9444 -1.2728 -1.1243
   31MOL0     H 4150   6.082   5.905   7.774 -0.1698 -2.2662  1.9381
   31MOL0     H 4151   5.865   5.921   7.713  0.7561  1.4428 -1.7766
   31MOL0     H 4152   5.870   5.798   7.572  3.7006 -2.7698 -1.1689
   31MOL0     H 4153   5.845   5.624   7.699  1.6187 -0.7786 -0.3100
   31MOL0     H 4154   5.925   5.677   7.840 -4.1266  0.1984  2.3244
   31MOL0     H 4155   5.728   5.831   7.886  1.4910 -2.0200  3.2995
   31MOL0     H 4156   5.712   5.657   7.901  1.9549  0.4315  1.0167
   31MOL0     H 4157   5.645   5.806   7.643  4.2736 -4.7476 -2.7326
   31MOL0     H 4158   5.522   5.787   7.782 -0.2001  2.0226 -0.2818
   31MOL0     H 4159   5.644   5.580   7.600  0.8123  1.1410  0.1713
   31MOL0     H 4160   5.554   5.540   7.757  0.5559  2.7688  3.5192
   31MOL0     H 4161   5.422   5.550   7.538  1.7284  0.5506 -0.6368
   31MOL0     H 4162   5.423   5.728   7.548  1.6273 -0.5422 -1.6720
   31MOL0     H 4163   5.309   5.524   7.733 -0.8403  0.5600  1.9724
   31MOL0     H 4164   5.313   5.700   7.778  0.2338  1.3511 -0.4547
   31MOL0     H 4165   6.267   5.776   7.399  2.6347 -0.7304 -0.9695
   31MOL0     H 4166   6.493   5.825   7.360 -0.9333 -1.0699  0.0930
   31MOL0     H 4167   6.799   6.270   7.209  1.7479 -3.4250 -2.3676
   31MOL0     H 4168   7.043   6.338   7.221 -0.6181  1.3947 -0.1782
   31MOL0     H 4169   8.685   5.562   6.712 -0.1162  2.5477  1.4975
   31MOL0     H 4170   8.835   5.440   6.572 -1.4640 -1.0701  0.5379
   31MOL0     H 4171   9.139   5.351   6.117  1.8514  0.4808 -0.2716
   31MOL0     H 4172   9.365   5.360   6.055 -1.3788  0.3636  0.2781
   31MOL0     H 4173   9.715   5.538   5.960  1.1046 -0.3931  0.2254
   31MOL0     H 4174   9.563   5.446   5.913 -0.9499 -0.0109  0.5425
   31MOL0     H 4175   9.554   5.353   6.131  0.2548 -0.8221 -2.4230
   31MOL0     H 4176   9.691   5.446   6.177 -1.1373  1.7196 -1.2022
   31MOL0     H 4177   9.695   5.257   5.939 -0.5380 -2.0813  0.4833
   31MOL0     H 4178   9.726   5.189   6.097 -0.5106  1.6031  0.6863
   31MOL0     H 4179   9.890   5.398   5.948  0.0006 -2.2934 -1.1388
   31MOL0     H 4180   9.913   5.359   6.125  1.7287 -2.3386  0.4940
   31MOL0     H 4181  10.083   5.039   5.913 -4.0613 -3.0584  0.0289
   31MOL0     H 4182   9.381   5.782   6.178 -1.3080  1.0000  0.1957
   31MOL0     H 4183   9.246   5.834   6.338 -0.1265 -1.6155  1.2745
   31MOL0     H 4184   9.093   5.843   6.251 -1.3080  1.8688  3.8529
   31MOL0     H 4185   9.116   5.736   6.385  0.4882  1.3633  1.1889
   32MOL0     O 4186   4.385   4.389   4.316 -0.5924 -0.1423  0.5263
   32MOL0     C 4187   4.409   4.303   4.230  0.7155  0.5801  0.4827
   32MOL0     O 4188   4.320   4.201   4.203  0.4208 -0.2750  0.0673
   32MOL0     C 4189   4.192   4.188   4.261  0.0299  0.1271 -0.2660
   32MOL0     C 4190   4.107   4.119   4.177 -0.8501  0.3773 -0.0266
   32MOL0     C 4191   3.967   4.124   4.188 -0.3024  0.0973 -0.0443
   32MOL0     C 4192   3.912   4.183   4.300 -0.9751  0.2145  0.5406
   32MOL0     O 4193   3.779   4.163   4.304  0.7135 -0.0349 -0.7423
   32MOL0     C 4194   3.726   4.124   4.432 -1.1075 -0.4896  0.6583
   32MOL0     C 4195   3.570   4.107   4.416  0.3004  0.2106 -0.2412
   32MOL0     C 4196   3.492   4.235   4.364 -0.0800 -0.5285 -0.6485
   32MOL0     C 4197   3.484   4.347   4.461  0.3665 -0.3681 -0.1762
   32MOL0     C 4198   3.424   4.311   4.598 -0.0637 -0.2190 -0.5338
   32MOL0     C 4199   3.396   4.442   4.677 -0.1019  0.3183  0.9614
   32MOL0     C 4200   3.358   4.408   4.822 -0.1599 -0.4912  0.0988
   32MOL0     C 4201   3.221   4.359   4.835  0.3091  0.1646 -0.7136
   32MOL0     N 4202   3.190   4.331   4.979  0.1072  0.5058  0.1758
   32MOL0     C 4203   3.184   4.416   5.078 -0.0677 -0.0622 -0.5817
   32MOL0     C 4204   3.170   4.337   5.184  0.0611  1.1069  0.6852
   32MOL0     C 4205   3.162   4.362   5.338 -0.5429 -0.6321  0.0681
   32MOL0     C 4206   3.147   4.508   5.367 -0.3452 -0.0845 -0.7853
   32MOL0     C 4207   2.994   4.538   5.369  0.3513 -0.8648 -0.2597
   32MOL0     C 4208   2.958   4.679   5.394  0.3742  0.0269 -0.4293
   32MOL0     O 4209   2.829   4.684   5.465 -0.4137  0.4563 -0.6078
   32MOL0     C 4210   2.796   4.799   5.538  0.4445 -0.4618 -0.2617
   32MOL0     C 4211   2.858   4.924   5.527  0.1629  0.1714 -0.8183
   32MOL0     C 4212   2.822   5.019   5.626 -0.9292  1.4812  0.7364
   32MOL0     C 4213   2.736   4.987   5.734 -1.5689 -0.2469 -2.0454
   32MOL0     C 4214   2.713   5.102   5.830 -0.1926 -0.2613 -0.3068
   32MOL0     O 4215   2.755   5.236   5.809 -0.0667 -0.4837  0.6514
   32MOL0     C 4216   2.685   5.338   5.870 -0.2257  0.4793  0.2435
   32MOL0     C 4217   2.566   5.379   5.810  0.4147 -0.5015  0.1014
   32MOL0     C 4218   2.512   5.498   5.854  0.2186 -0.8046 -0.0340
   32MOL0     C 4219   2.560   5.571   5.974 -0.1423 -0.2915 -0.9906
   32MOL0     O 4220   2.494   5.677   6.023  0.6856  0.1754  0.4754
   32MOL0     C 4221   2.386   5.732   5.958 -0.5626 -0.3105 -0.0766
   32MOL0     C 4222   2.361   5.864   6.020 -0.5329 -0.5493 -0.9878
   32MOL0     C 4223   2.232   5.926   5.965  0.3467  0.1588 -0.1188
   32MOL0     C 4224   2.170   6.045   6.054 -0.8729 -0.0976 -0.6769
   32MOL0     C 4225   2.065   6.117   5.973  0.1290  0.3889 -0.5414
   32MOL0     C 4226   1.944   6.032   5.922  0.0089 -0.2554  0.0050
   32MOL0     C 4227   1.863   6.123   5.824 -0.7521 -0.4672 -0.5954
   32MOL0     C 4228   1.787   6.238   5.891 -0.2572 -0.5923  0.1026
   32MOL0    Cl 4229   1.734   6.353   5.760 -0.0181 -0.3032 -0.1704
   32MOL0     C 4230   2.672   5.515   6.034  0.5298 -0.0840  0.9579
   32MOL0     C 4231   2.736   5.403   5.980  0.0691  1.0766  0.3460
   32MOL0     O 4232   2.646   5.068   5.927 -0.0713 -0.9670 -0.6442
   32MOL0     C 4233   2.671   4.867   5.737  0.3522 -0.0113 -0.4794
   32MOL0     C 4234   2.705   4.774   5.640  1.2293 -0.6001  0.4739
   32MOL0     N 4235   3.159   4.206   5.139  0.0521  0.5961  0.0510
   32MOL0     N 4236   3.182   4.205   5.020 -0.2344 -0.1275 -0.3924
   32MOL0     C 4237   4.000   4.251   4.391 -0.5953 -0.4734 -0.0972
   32MOL0     C 4238   4.138   4.258   4.374 -0.0106  0.6083 -0.2318
   32MOL0     C 4239   4.542   4.325   4.156 -0.2460 -0.3308  0.3426
   32MOL0     C 4240   4.650   4.379   4.230  0.3998  0.3798 -0.4436
   32MOL0     C 4241   4.779   4.371   4.173 -0.4558 -0.0412 -0.7604
   32MOL0     C 4242   4.803   4.325   4.044  0.2751 -1.1827 -0.9381
   32MOL0     O 4243   4.928   4.325   3.986 -0.0106 -1.0321  0.0368
   32MOL0     C 4244   5.043   4.329   4.071  1.2512  0.1069 -0.4686
   32MOL0     C 4245   5.080   4.195   4.147  0.3117 -0.2533 -1.0618
   32MOL0     C 4246   5.065   4.069   4.067 -0.4842 -1.3122  0.0969
   32MOL0     C 4247   5.123   4.068   3.921  0.5047 -0.3837  0.3036
   32MOL0     C 4248   5.269   4.055   3.926 -0.7638  0.3745  0.5897
   32MOL0     C 4249   5.388   4.007   3.934  0.1381 -1.5540  0.0305
   32MOL0     C 4250   4.695   4.283   3.963  0.4812 -0.4565 -0.5859
   32MOL0     C 4251   4.568   4.275   4.022  0.6157 -0.7820 -0.5990
   32MOL0     C 4252   4.448   4.211   3.943 -0.6763  0.2801 -0.4892
   32MOL0     H 4253   4.152   4.065   4.094 -0.7796  1.3608 -0.6502
   32MOL0     H 4254   3.895   4.067   4.129 -3.8400  2.4051  1.6762
   32MOL0     H 4255   3.779   4.033   4.460  0.2585 -0.6573 -2.1704
   32MOL0     H 4256   3.736   4.192   4.518 -1.6455 -2.9489  2.8139
   32MOL0     H 4257   3.532   4.076   4.513  0.1314 -1.3157 -0.7771
   32MOL0     H 4258   3.561   4.018   4.354 -1.1854 -1.4317  2.1693
   32MOL0     H 4259   3.392   4.217   4.324  0.2013  2.6657 -3.1359
   32MOL0     H 4260   3.542   4.276   4.276 -0.6736  0.5961 -0.4733
   32MOL0     H 4261   3.577   4.397   4.489 -0.0161  0.4579 -0.3484
   32MOL0     H 4262   3.414   4.421   4.420 -2.7892 -1.9083  2.0121
   32MOL0     H 4263   3.334   4.253   4.580 -1.0192  1.9560 -3.5830
   32MOL0     H 4264   3.499   4.251   4.650 -0.2284  2.0481  2.6478
   32MOL0     H 4265   3.478   4.514   4.684  0.5587 -0.3711  0.5010
   32MOL0     H 4266   3.310   4.489   4.629  2.0283  1.7892 -1.6958
   32MOL0     H 4267   3.363   4.494   4.890 -2.7788 -0.2574  0.0996
   32MOL0     H 4268   3.413   4.324   4.865 -0.3162  0.4559  2.3137
   32MOL0     H 4269   3.152   4.432   4.793  0.4642 -0.6441 -2.4428
   32MOL0     H 4270   3.203   4.261   4.790  0.4486 -1.0195  1.6194
   32MOL0     H 4271   3.201   4.522   5.067  0.0183  0.1068  0.9150
   32MOL0     H 4272   3.080   4.300   5.377  0.0097 -2.6523 -1.7493
   32MOL0     H 4273   3.257   4.332   5.383 -1.5017  2.1592  4.5730
   32MOL0     H 4274   3.198   4.521   5.464  1.8291  1.6248 -2.0445
   32MOL0     H 4275   3.201   4.574   5.298  0.8440 -0.6801 -0.4648
   32MOL0     H 4276   2.945   4.476   5.444 -0.6307  1.8402  1.4509
   32MOL0     H 4277   2.949   4.508   5.274 -1.7800 -1.1103  0.7702
   32MOL0     H 4278   2.965   4.728   5.297 -0.6931  0.6063 -0.2333
   32MOL0     H 4279   3.032   4.728   5.458 -0.6836  1.5640 -0.3123
   32MOL0     H 4280   2.946   4.935   5.466  0.5817 -0.5170 -0.3598
   32MOL0     H 4281   2.869   5.116   5.632  0.7371  0.8640 -1.1446
   32MOL0     H 4282   2.524   5.331   5.722 -1.4689  0.0862  0.6446
   32MOL0     H 4283   2.410   5.522   5.824 -0.7998 -0.7371  3.0680
   32MOL0     H 4284   2.398   5.745   5.850  2.3963 -0.2634  0.1743
   32MOL0     H 4285   2.304   5.663   5.979 -1.6934  0.8813 -0.3954
   32MOL0     H 4286   2.351   5.837   6.126  1.0400 -0.9765 -0.9253
   32MOL0     H 4287   2.439   5.937   5.994 -3.6039  2.7641 -1.6415
   32MOL0     H 4288   2.248   5.951   5.860  0.7334 -0.3775 -0.1921
   32MOL0     H 4289   2.153   5.851   5.976  0.9912 -0.4176  0.6963
   32MOL0     H 4290   2.260   6.104   6.070  1.3178 -3.0374 -1.4163
   32MOL0     H 4291   2.139   6.026   6.157  3.0564  0.3000  0.7170
   32MOL0     H 4292   2.103   6.186   5.897  0.3208  1.3267  0.3898
   32MOL0     H 4293   2.031   6.191   6.045  1.0588  0.8642 -0.5706
   32MOL0     H 4294   1.973   5.945   5.863  3.3483  0.9590 -0.3777
   32MOL0     H 4295   1.887   6.001   6.010  0.8984  1.0874  1.1197
   32MOL0     H 4296   1.791   6.055   5.778  3.2090 -3.7829 -2.6630
   32MOL0     H 4297   1.928   6.168   5.747  2.5151  0.0828  2.2128
   32MOL0     H 4298   1.702   6.194   5.944 -0.1623 -1.0849 -0.1459
   32MOL0     H 4299   1.859   6.295   5.951 -2.2288  0.8037  1.2741
   32MOL0     H 4300   2.714   5.561   6.123 -0.0298 -0.6715  1.5345
   32MOL0     H 4301   2.830   5.370   6.024  0.0228  0.1844 -0.2075
   32MOL0     H 4302   2.592   4.845   5.808  0.0584  2.4113  0.0214
   32MOL0     H 4303   2.660   4.676   5.655  1.3079 -0.6228  0.5636
   32MOL0     H 4304   3.953   4.298   4.477  3.2886 -0.0767  2.0397
   32MOL0     H 4305   4.197   4.322   4.439  0.3557  1.1313 -1.0627
   32MOL0     H 4306   4.638   4.434   4.323  0.8913  0.6897 -0.5596
   32MOL0     H 4307   4.861   4.405   4.235 -1.0279 -1.0239  0.5847
   32MOL0     H 4308   5.046   4.415   4.138  4.0177 -0.4786  0.2916
   32MOL0     H 4309   5.130   4.349   4.007  0.5460 -2.3738 -2.3686
   32MOL0     H 4310   5.023   4.189   4.240  0.1291  1.0227 -1.0760
   32MOL0     H 4311   5.185   4.209   4.173  0.0122  3.7960 -1.3884
   32MOL0     H 4312   4.959   4.063   4.042  0.3511 -4.1979 -3.6601
   32MOL0     H 4313   5.097   3.976   4.114  3.2167 -0.6630 -0.8054
   32MOL0     H 4314   5.080   3.977   3.877 -2.5228 -0.1204  2.4406
   32MOL0     H 4315   5.104   4.161   3.867  0.0414  0.2959  1.6114
   32MOL0     H 4316   5.488   3.967   3.939  0.3164 -1.0833  0.2270
   32MOL0     H 4317   4.713   4.250   3.861 -2.4666  0.8355 -1.6199
   32MOL0     H 4318   4.489   4.190   3.844 -0.4254 -0.5001 -0.2283
   32MOL0     H 4319   4.416   4.117   3.990 -0.9406 -0.4341 -2.0115
   32MOL0     H 4320   4.363   4.280   3.935  0.3243  1.3109 -5.0283
   33MOL0     O 4321   7.196   0.255   5.385  0.7408 -0.3775  0.2968
   33MOL0     C 4322   7.237   0.240   5.267 -0.0886 -0.5381 -0.2858
   33MOL0     O 4323   7.320   0.326   5.201 -0.9953 -1.0446 -1.0940
   33MOL0     C 4324   7.387   0.424   5.262 -0.0941  0.4320  0.2632
   33MOL0     C 4325   7.377   0.542   5.198  0.2428  0.1408 -0.3586
   33MOL0     C 4326   7.432   0.661   5.259  0.7245 -0.0556  0.3233
   33MOL0     C 4327   7.518   0.648   5.369  0.7801  0.1218  0.4751
   33MOL0     O 4328   7.579   0.763   5.404  0.8510 -0.6170  1.3462
   33MOL0     C 4329   7.556   0.807   5.533 -0.3205 -0.5212  0.0644
   33MOL0     C 4330   7.628   0.945   5.552 -0.0964  0.4941 -0.3292
   33MOL0     C 4331   7.784   0.929   5.551  1.5984  0.3300  0.1666
   33MOL0     C 4332   7.845   1.067   5.540 -0.1643  0.9465 -0.3224
   33MOL0     C 4333   8.002   1.041   5.551  0.7712 -0.7127  0.5286
   33MOL0     C 4334   8.072   1.180   5.533  0.2834 -0.4956  0.0382
   33MOL0     C 4335   8.228   1.201   5.554  0.5258  0.8058  0.0683
   33MOL0     C 4336   8.268   1.188   5.710  0.5090 -0.7454  0.7456
   33MOL0     N 4337   8.400   1.237   5.755 -0.3633  0.5035  0.1435
   33MOL0     C 4338   8.418   1.347   5.821 -0.3180  0.8634 -0.4168
   33MOL0     C 4339   8.551   1.375   5.826  1.2950  1.1232 -0.4418
   33MOL0     C 4340   8.616   1.491   5.891 -0.5330 -0.5574 -0.4195
   33MOL0     C 4341   8.674   1.580   5.782  0.7119 -0.3010  0.0925
   33MOL0     C 4342   8.795   1.658   5.843 -0.4281 -0.2065 -0.2526
   33MOL0     C 4343   8.906   1.578   5.900  0.6015  0.1247 -0.1651
   33MOL0     O 4344   9.034   1.637   5.915  0.4675 -0.0780 -0.0375
   33MOL0     C 4345   9.059   1.740   6.006  1.0183  0.3913 -0.3732
   33MOL0     C 4346   9.179   1.812   5.989  0.5932 -0.1192  0.3257
   33MOL0     C 4347   9.212   1.919   6.075 -0.3652 -0.0918  0.1011
   33MOL0     C 4348   9.142   1.934   6.202 -0.1796 -0.3617  1.7062
   33MOL0     C 4349   9.175   2.025   6.310  0.0779 -0.1587 -0.5943
   33MOL0     O 4350   9.083   2.040   6.416 -0.0622  0.0967 -0.2833
   33MOL0     C 4351   9.128   2.103   6.525 -0.1691  0.2164 -0.1138
   33MOL0     C 4352   9.106   2.237   6.543 -0.4467  1.1496  0.2879
   33MOL0     C 4353   9.129   2.297   6.668  1.4320 -0.2220  0.1110
   33MOL0     C 4354   9.182   2.226   6.779  0.5769  0.4179  0.0936
   33MOL0     O 4355   9.205   2.294   6.891  0.1256  0.0116 -0.2370
   33MOL0     C 4356   9.155   2.224   7.008  0.0775  0.8349 -0.3065
   33MOL0     C 4357   9.163   2.316   7.133 -0.9469  0.6108  0.6181
   33MOL0     C 4358   9.106   2.247   7.259 -0.1951  0.5183 -0.6202
   33MOL0     C 4359   9.054   2.360   7.359 -0.0313  0.9541 -0.1414
   33MOL0     C 4360   8.994   2.320   7.491  0.1360 -0.1089 -0.2462
   33MOL0     C 4361   8.901   2.425   7.561 -0.2725  0.3370  1.1774
   33MOL0     C 4362   8.983   2.554   7.590  0.3475  0.4444 -0.4521
   33MOL0     C 4363   8.917   2.659   7.682  0.7898  0.1751  0.3306
   33MOL0    Cl 4364   9.018   2.801   7.679 -0.0041 -0.3995 -0.3320
   33MOL0     C 4365   9.221   2.088   6.755  0.0976 -0.9404 -0.6250
   33MOL0     C 4366   9.186   2.037   6.632  0.4149  0.5871  0.0896
   33MOL0     O 4367   9.291   2.068   6.312 -0.1983  0.5179  0.4004
   33MOL0     C 4368   9.016   1.865   6.213 -0.0781 -0.2737 -0.0449
   33MOL0     C 4369   8.976   1.776   6.118  0.1901  0.6334  0.0383
   33MOL0     N 4370   8.608   1.268   5.768 -0.0217  0.2410 -0.2641
   33MOL0     N 4371   8.523   1.181   5.723 -0.4838  0.1552 -0.9360
   33MOL0     C 4372   7.529   0.525   5.428  0.2651  0.7999 -0.6165
   33MOL0     C 4373   7.462   0.414   5.377 -0.2340 -0.9884  0.4620
   33MOL0     C 4374   7.210   0.110   5.199  0.4164  0.6945  0.4521
   33MOL0     C 4375   7.174   0.003   5.283  0.2100 -0.2161 -0.3843
   33MOL0     C 4376   7.147  -0.122   5.224 -0.0835  1.2558  0.7774
   33MOL0     C 4377   7.166  -0.151   5.089  0.3254 -0.1554  0.1502
   33MOL0     O 4378   7.150  -0.270   5.023  0.3844 -1.3103 -0.4490
   33MOL0     C 4379   7.105  -0.374   5.112  0.0469  0.0116  0.9341
   33MOL0     C 4380   7.056  -0.499   5.047  0.0319  0.1551 -0.2751
   33MOL0     C 4381   6.999  -0.608   5.140 -0.4357 -0.2873 -0.2876
   33MOL0     C 4382   7.112  -0.717   5.180  0.2135  0.2333  0.2671
   33MOL0     C 4383   7.152  -0.798   5.067  0.4676  0.2611 -0.6386
   33MOL0     C 4384   7.186  -0.881   4.983  0.1506 -0.4157  0.4451
   33MOL0     C 4385   7.183  -0.038   5.008  0.1870 -0.2738 -0.2405
   33MOL0     C 4386   7.210   0.089   5.058  0.3414 -0.3039 -0.1614
   33MOL0     C 4387   7.245   0.191   4.959 -0.8457 -0.5337  1.4198
   33MOL0     H 4388   7.303   0.553   5.119 -2.4570 -0.9343  1.8334
   33MOL0     H 4389   7.407   0.757   5.215 -1.4717 -0.3688  0.8011
   33MOL0     H 4390   7.448   0.816   5.544 -0.5967 -0.0911 -2.4998
   33MOL0     H 4391   7.604   0.742   5.607  1.6307  1.5739  0.7489
   33MOL0     H 4392   7.596   0.998   5.641 -2.3164 -0.0972 -0.7264
   33MOL0     H 4393   7.591   0.997   5.463 -1.9044 -3.1037 -1.9112
   33MOL0     H 4394   7.815   0.851   5.481  1.1550  2.2257 -2.2656
   33MOL0     H 4395   7.803   0.891   5.652 -1.9744  0.1742  0.9368
   33MOL0     H 4396   7.821   1.113   5.444 -0.3838 -1.7311 -1.6413
   33MOL0     H 4397   7.805   1.131   5.619 -0.0429  0.1395  0.4170
   33MOL0     H 4398   8.025   0.995   5.648  0.5207 -3.1503 -0.4942
   33MOL0     H 4399   8.039   0.979   5.469 -3.0453 -0.8766 -1.2861
   33MOL0     H 4400   8.049   1.226   5.436 -2.5952  0.3773  1.0247
   33MOL0     H 4401   8.020   1.247   5.602  1.9747 -0.8789  1.7391
   33MOL0     H 4402   8.257   1.303   5.528  2.6789 -0.3570 -2.5205
   33MOL0     H 4403   8.279   1.133   5.486  3.4953  3.3061 -0.4290
   33MOL0     H 4404   8.188   1.255   5.746 -0.5499  0.1955 -2.9474
   33MOL0     H 4405   8.245   1.087   5.744  0.1912 -0.5552  1.1166
   33MOL0     H 4406   8.343   1.414   5.862  0.3247  1.2435  0.1563
   33MOL0     H 4407   8.539   1.544   5.948 -2.1054 -0.1663 -2.7474
   33MOL0     H 4408   8.687   1.463   5.969  1.3776 -4.8273 -3.3064
   33MOL0     H 4409   8.717   1.512   5.708  3.0610  0.4594  0.6751
   33MOL0     H 4410   8.599   1.645   5.735  0.1853 -1.6854 -1.0403
   33MOL0     H 4411   8.754   1.727   5.918 -0.9090 -0.9014  0.1359
   33MOL0     H 4412   8.837   1.731   5.773 -2.2089  1.1056 -0.0135
   33MOL0     H 4413   8.911   1.480   5.851  3.2713  1.1290 -2.1257
   33MOL0     H 4414   8.878   1.558   6.004 -2.4178  1.0706 -0.7240
   33MOL0     H 4415   9.245   1.785   5.907  0.4451  0.2314  0.0862
   33MOL0     H 4416   9.309   1.966   6.062  0.0227 -1.3032 -1.8287
   33MOL0     H 4417   9.068   2.283   6.453 -1.0153  3.7314  1.7646
   33MOL0     H 4418   9.089   2.396   6.687  0.1575 -0.7328  0.1325
   33MOL0     H 4419   9.052   2.191   6.997 -0.3421  2.2606 -0.8585
   33MOL0     H 4420   9.220   2.137   7.022  2.2093  2.3261 -0.4558
   33MOL0     H 4421   9.264   2.357   7.149 -1.5098  2.8161 -0.9749
   33MOL0     H 4422   9.106   2.408   7.122 -0.9684  0.5745  0.4195
   33MOL0     H 4423   9.017   2.190   7.232 -0.5843  1.9437 -2.6219
   33MOL0     H 4424   9.185   2.188   7.307 -2.4324 -0.2658  2.3578
   33MOL0     H 4425   8.980   2.413   7.298 -1.1575 -0.4740 -0.0604
   33MOL0     H 4426   9.142   2.424   7.375  2.0238 -1.7679  0.0791
   33MOL0     H 4427   9.079   2.298   7.556  0.4828  2.8565  0.4407
   33MOL0     H 4428   8.928   2.233   7.483 -0.2434 -0.1011  2.0112
   33MOL0     H 4429   8.821   2.449   7.490 -0.0024 -1.2120  0.2982
   33MOL0     H 4430   8.858   2.389   7.655  0.4851  1.3819  1.9474
   33MOL0     H 4431   9.008   2.601   7.495  3.6515 -1.1620 -0.5287
   33MOL0     H 4432   9.072   2.525   7.648 -2.1042 -0.2972  3.2787
   33MOL0     H 4433   8.832   2.663   7.613 -1.4116 -1.3643  2.7715
   33MOL0     H 4434   8.876   2.631   7.779 -2.8748  0.7670 -0.8899
   33MOL0     H 4435   9.243   2.016   6.832 -1.5250  1.6790  2.5750
   33MOL0     H 4436   9.189   1.929   6.619 -1.7828  0.5919 -0.8655
   33MOL0     H 4437   8.963   1.873   6.307 -3.0024 -1.4114 -1.4634
   33MOL0     H 4438   8.883   1.723   6.135 -0.7843  2.5978  1.2001
   33MOL0     H 4439   7.589   0.511   5.518 -1.8944  1.5328  1.0269
   33MOL0     H 4440   7.493   0.320   5.421  0.9226  0.2915  2.5883
   33MOL0     H 4441   7.154   0.028   5.387  0.6438 -1.7521  0.0895
   33MOL0     H 4442   7.113  -0.209   5.280 -2.3441  0.7370 -1.2273
   33MOL0     H 4443   7.026  -0.336   5.177  1.3333  0.9333  2.0192
   33MOL0     H 4444   7.198  -0.413   5.155  0.9552 -0.5157 -1.3386
   33MOL0     H 4445   7.143  -0.533   4.991 -2.4098 -2.9154 -2.5635
   33MOL0     H 4446   6.985  -0.470   4.969 -1.8649 -1.1912  0.8854
   33MOL0     H 4447   6.913  -0.653   5.089 -1.8821  2.0369 -0.0124
   33MOL0     H 4448   6.960  -0.554   5.227 -1.1029  1.2047 -1.4609
   33MOL0     H 4449   7.196  -0.665   5.227  0.1588 -0.7350  1.5059
   33MOL0     H 4450   7.065  -0.777   5.259 -1.0042  2.4621  1.3474
   33MOL0     H 4451   7.222  -0.965   4.927 -0.8506 -0.3094 -0.3848
   33MOL0     H 4452   7.186  -0.053   4.900  0.1571 -1.1565 -0.1303
   33MOL0     H 4453   7.209   0.291   4.985  0.2103  0.0224  0.8047
   33MOL0     H 4454   7.354   0.201   4.951 -0.6366 -3.3423 -0.0823
   33MOL0     H 4455   7.200   0.163   4.864  1.5592 -2.6935  0.8095
   34MOL0     O 4456   1.939   8.092  10.111  0.0403  1.2564  0.3491
   34MOL0     C 4457   1.960   8.142  10.222  0.7428  0.4198 -1.1178
   34MOL0     O 4458   2.047   8.096  10.313  0.0338  0.3547 -0.3573
   34MOL0     C 4459   2.139   8.005  10.267  0.7830  0.0322 -0.5910
   34MOL0     C 4460   2.272   8.039  10.227  0.2664 -0.0469 -0.5296
   34MOL0     C 4461   2.365   7.939  10.202  1.3482 -0.2454  0.3695
   34MOL0     C 4462   2.328   7.803  10.216  0.7926 -0.7572  0.1430
   34MOL0     O 4463   2.415   7.700  10.213  0.1466  0.3211 -0.1895
   34MOL0     C 4464   2.521   7.714  10.109  0.7405 -0.0023  0.4010
   34MOL0     C 4465   2.604   7.598  10.071  0.1222 -0.3410  0.4757
   34MOL0     C 4466   2.527   7.494   9.998 -0.1726 -0.9170  0.5435
   34MOL0     C 4467   2.620   7.375   9.959  0.4381  0.9169 -0.1798
   34MOL0     C 4468   2.560   7.263   9.871 -0.4838 -1.0614 -0.0817
   34MOL0     C 4469   2.659   7.213   9.772  0.0244  0.2431 -0.7238
   34MOL0     C 4470   2.587   7.126   9.656  0.6360  0.7822  0.2635
   34MOL0     C 4471   2.668   7.107   9.530  0.5681 -0.0877  0.7955
   34MOL0     N 4472   2.782   7.011   9.546  0.2317 -0.3798 -0.8219
   34MOL0     C 4473   2.899   7.026   9.622  0.3370 -0.1014  0.2040
   34MOL0     C 4474   2.972   6.915   9.599 -0.6239  0.1036 -0.1627
   34MOL0     C 4475   3.101   6.881   9.662 -0.4294  0.8135  0.5559
   34MOL0     C 4476   3.230   6.936   9.603  0.2268  0.9760  1.5544
   34MOL0     C 4477   3.250   7.090   9.623  0.6513 -0.7814 -0.2629
   34MOL0     C 4478   3.374   7.134   9.533  0.3772  0.1121  0.0847
   34MOL0     O 4479   3.389   7.273   9.549 -0.4637 -1.3412  0.6605
   34MOL0     C 4480   3.347   7.343   9.434  0.9305  0.9141  0.7477
   34MOL0     C 4481   3.440   7.420   9.364  0.0630 -0.2187 -0.6597
   34MOL0     C 4482   3.410   7.501   9.246  0.1204 -0.6020  0.0859
   34MOL0     C 4483   3.277   7.481   9.189 -0.3737 -0.9639 -0.7112
   34MOL0     C 4484   3.235   7.566   9.068  0.1010  0.5750  0.1470
   34MOL0     O 4485   3.316   7.660   9.023 -0.5626  0.4853  0.0371
   34MOL0     C 4486   3.279   7.750   8.921  0.2373  0.3543 -1.1537
   34MOL0     C 4487   3.166   7.762   8.851  0.7524 -0.6005  0.3908
   34MOL0     C 4488   3.161   7.847   8.742 -1.0394 -0.2901 -0.2594
   34MOL0     C 4489   3.255   7.939   8.712 -0.4147  0.4354 -0.6236
   34MOL0     O 4490   3.230   8.015   8.601 -0.0157 -0.7444  0.0178
   34MOL0     C 4491   3.125   8.110   8.626  0.9341 -0.0130  0.5263
   34MOL0     C 4492   3.049   8.132   8.492 -0.0028 -0.0101 -0.0819
   34MOL0     C 4493   2.989   7.999   8.459 -0.1258  0.7072  0.2945
   34MOL0     C 4494   2.876   8.012   8.349 -1.0649 -0.6295 -0.3481
   34MOL0     C 4495   2.807   7.885   8.302  0.3944  0.5651 -0.6057
   34MOL0     C 4496   2.728   7.803   8.408 -0.8254 -0.2055 -0.8156
   34MOL0     C 4497   2.640   7.905   8.492  0.9718 -0.0761 -0.0113
   34MOL0     C 4498   2.543   7.851   8.587 -0.4726  0.7368 -0.5624
   34MOL0    Cl 4499   2.440   7.738   8.487  0.1911 -0.0087  0.2165
   34MOL0     C 4500   3.372   7.940   8.789  0.2391 -0.1541 -0.6760
   34MOL0     C 4501   3.381   7.842   8.891 -0.6474 -0.1050  0.8543
   34MOL0     O 4502   3.129   7.537   9.021 -0.0864 -0.0663  0.2280
   34MOL0     C 4503   3.187   7.388   9.257  0.5987 -0.2202  0.8849
   34MOL0     C 4504   3.216   7.336   9.382 -0.4366 -0.2201  0.0167
   34MOL0     N 4505   2.898   6.837   9.516 -0.9029  0.4317 -0.0022
   34MOL0     N 4506   2.798   6.894   9.474  0.5194 -0.7834  0.5881
   34MOL0     C 4507   2.195   7.775  10.251 -1.1513 -0.7425 -0.3180
   34MOL0     C 4508   2.109   7.878  10.277  0.6864 -0.1542 -0.6787
   34MOL0     C 4509   1.886   8.270  10.253 -0.2853 -1.2777  0.4092
   34MOL0     C 4510   1.901   8.309  10.390  0.7632 -0.4639 -0.4164
   34MOL0     C 4511   1.854   8.438  10.427 -0.2964  0.0351 -0.2715
   34MOL0     C 4512   1.786   8.522  10.329 -1.2841  0.4004  0.4395
   34MOL0     O 4513   1.729   8.642  10.349  0.2683  0.9806  0.0817
   34MOL0     C 4514   1.711   8.689  10.486  0.9316 -0.0248  0.1434
   34MOL0     C 4515   1.673   8.834  10.477  0.8626  0.3793 -0.3037
   34MOL0     C 4516   1.606   8.887  10.609  0.6627  0.3172  0.2356
   34MOL0     C 4517   1.509   9.011  10.583  0.1059 -0.4485 -0.0411
   34MOL0     C 4518   1.598   9.124  10.568 -0.1997 -0.4999 -1.1838
   34MOL0     C 4519   1.673   9.222  10.564  0.3736 -0.4278  0.1098
   34MOL0     C 4520   1.774   8.479  10.201 -0.5646 -0.0880  0.3663
   34MOL0     C 4521   1.832   8.359  10.157 -0.3410 -0.0036 -0.3014
   34MOL0     C 4522   1.822   8.335  10.014  0.3549  0.2473  0.4170
   34MOL0     H 4523   2.295   8.144  10.243 -2.4987  0.6069 -0.2783
   34MOL0     H 4524   2.469   7.967  10.187  1.0764 -0.6038 -3.1666
   34MOL0     H 4525   2.477   7.747  10.014  0.5864 -3.6676 -0.9650
   34MOL0     H 4526   2.593   7.791  10.138 -0.9336  1.2847  1.3324
   34MOL0     H 4527   2.652   7.558  10.161  0.0586 -1.7065 -0.0712
   34MOL0     H 4528   2.685   7.639  10.011 -1.6316  1.7049 -0.6110
   34MOL0     H 4529   2.481   7.539   9.910  0.6047  0.4388  0.7952
   34MOL0     H 4530   2.452   7.450  10.064 -1.7600 -1.6650 -1.6211
   34MOL0     H 4531   2.699   7.423   9.901 -1.8459  0.2997 -4.1749
   34MOL0     H 4532   2.659   7.326  10.048 -3.7201 -1.3174  0.6713
   34MOL0     H 4533   2.508   7.185   9.929  2.4507 -2.4541  0.8632
   34MOL0     H 4534   2.487   7.301   9.798  1.7830 -0.6557 -2.2922
   34MOL0     H 4535   2.711   7.298   9.728  1.5983 -0.0509  0.5031
   34MOL0     H 4536   2.741   7.160   9.820 -0.3725  1.1217  0.9819
   34MOL0     H 4537   2.495   7.176   9.625  0.4879 -0.4706 -1.5219
   34MOL0     H 4538   2.565   7.024   9.691 -1.3528  1.2788  0.5702
   34MOL0     H 4539   2.606   7.067   9.450 -4.1643  3.2335  2.3402
   34MOL0     H 4540   2.699   7.203   9.489 -1.9024  0.2915 -0.3571
   34MOL0     H 4541   2.918   7.098   9.701 -0.4345  0.4928 -0.1303
   34MOL0     H 4542   3.110   6.908   9.768  4.4389  0.9976  0.3172
   34MOL0     H 4543   3.103   6.772   9.654  0.8211  0.9057 -0.9392
   34MOL0     H 4544   3.320   6.887   9.642  0.7038 -1.9402 -2.5341
   34MOL0     H 4545   3.236   6.906   9.498  1.8560  0.1803  1.8383
   34MOL0     H 4546   3.261   7.116   9.728 -4.8402  1.5274  0.0871
   34MOL0     H 4547   3.159   7.142   9.590  0.2202 -0.9088  0.7078
   34MOL0     H 4548   3.350   7.102   9.431  1.3559  1.8331 -0.7269
   34MOL0     H 4549   3.464   7.080   9.562 -0.0453 -0.9293 -0.4790
   34MOL0     H 4550   3.536   7.441   9.409 -1.3427  4.0057  0.8204
   34MOL0     H 4551   3.486   7.561   9.196 -1.6887  0.5740 -1.4253
   34MOL0     H 4552   3.072   7.718   8.882 -0.0609 -0.4329 -1.6762
   34MOL0     H 4553   3.064   7.847   8.693 -1.0524  1.6617 -0.2815
   34MOL0     H 4554   3.047   8.076   8.695  0.5206 -0.0628  0.0408
   34MOL0     H 4555   3.157   8.209   8.659  0.7001  0.8099 -1.5868
   34MOL0     H 4556   2.977   8.209   8.521 -0.2022 -1.2770  3.1230
   34MOL0     H 4557   3.123   8.155   8.414  0.6671 -1.4943  0.0861
   34MOL0     H 4558   3.064   7.933   8.415 -1.3776  1.6419 -3.7335
   34MOL0     H 4559   2.945   7.948   8.545 -2.1515  2.4790  0.4035
   34MOL0     H 4560   2.920   8.063   8.263  0.1879 -4.9309 -2.5600
   34MOL0     H 4561   2.808   8.086   8.391  1.6920  2.0071 -0.2224
   34MOL0     H 4562   2.877   7.829   8.240  1.4699  3.1976 -1.9170
   34MOL0     H 4563   2.727   7.914   8.234  0.8748  0.4164 -1.2431
   34MOL0     H 4564   2.664   7.728   8.361 -0.2085  0.3818 -2.7241
   34MOL0     H 4565   2.804   7.752   8.467 -0.8936 -0.2303 -0.7486
   34MOL0     H 4566   2.608   7.984   8.425 -2.0173 -1.9444 -0.9617
   34MOL0     H 4567   2.711   7.958   8.556  2.5335 -1.5515 -0.4411
   34MOL0     H 4568   2.600   7.791   8.658 -1.6512  1.8003  1.3694
   34MOL0     H 4569   2.486   7.929   8.638  1.3850  1.7599  0.0526
   34MOL0     H 4570   3.459   8.005   8.789  0.9158 -1.0121 -2.5557
   34MOL0     H 4571   3.470   7.848   8.953 -1.8447 -1.6490  2.8285
   34MOL0     H 4572   3.084   7.380   9.224  1.2348  0.0845 -1.4250
   34MOL0     H 4573   3.148   7.287   9.450  0.5489 -0.8658  0.5665
   34MOL0     H 4574   2.157   7.673  10.244 -0.7938 -0.9404  0.5098
   34MOL0     H 4575   2.004   7.861  10.300  0.7213 -0.9266 -1.0335
   34MOL0     H 4576   1.950   8.250  10.467 -0.3962 -0.3795  0.4201
   34MOL0     H 4577   1.867   8.471  10.530 -1.3803 -0.8751  0.1768
   34MOL0     H 4578   1.804   8.681  10.544 -0.3906 -3.0291  2.0664
   34MOL0     H 4579   1.635   8.628  10.535  1.7526 -1.7337 -0.6504
   34MOL0     H 4580   1.606   8.845  10.391  0.0955  1.4167  0.4000
   34MOL0     H 4581   1.760   8.899  10.465 -0.3500  2.0220 -0.5532
   34MOL0     H 4582   1.678   8.920  10.685  0.5899  0.9119  0.0505
   34MOL0     H 4583   1.546   8.810  10.659  0.4046  2.2655  3.1875
   34MOL0     H 4584   1.458   8.996  10.487 -2.4347  1.0212  0.9853
   34MOL0     H 4585   1.438   9.017  10.666 -1.0587  0.5572 -1.0659
   34MOL0     H 4586   1.752   9.293  10.550  0.1710 -0.2048  0.0748
   34MOL0     H 4587   1.729   8.554  10.138 -0.3689 -1.3414 -1.3364
   34MOL0     H 4588   1.915   8.331   9.957 -0.7299 -3.5509 -1.4514
   34MOL0     H 4589   1.777   8.236   9.999  0.8471  0.0144  0.4769
   34MOL0     H 4590   1.757   8.410   9.968 -1.1162 -0.0546  1.8966
   35MOL0     O 4591   2.481  11.263   6.701  0.4509 -0.0646 -0.1383
   35MOL0     C 4592   2.402  11.296   6.612 -0.6786 -0.6218  0.5243
   35MOL0     O 4593   2.417  11.260   6.479  0.0867  0.8179 -0.3061
   35MOL0     C 4594   2.529  11.170   6.470 -0.8193 -0.5150  1.0326
   35MOL0     C 4595   2.539  11.034   6.517 -0.4443  0.4104  0.2283
   35MOL0     C 4596   2.663  10.962   6.516  0.0353 -0.0110 -0.2307
   35MOL0     C 4597   2.768  11.006   6.441  0.6461  0.0270 -0.1472
   35MOL0     O 4598   2.885  10.937   6.441 -0.4695 -0.5084  0.2642
   35MOL0     C 4599   2.927  10.857   6.559 -0.3566  0.4429  0.4578
   35MOL0     C 4600   3.084  10.843   6.564 -0.3637 -0.1245 -0.0485
   35MOL0     C 4601   3.137  10.985   6.591 -0.5611 -0.5457 -0.2485
   35MOL0     C 4602   3.285  11.002   6.585  0.2857 -0.4265 -0.0375
   35MOL0     C 4603   3.331  11.150   6.607 -0.0337 -0.7581  0.0710
   35MOL0     C 4604   3.487  11.145   6.589  0.9453 -0.1445 -0.4603
   35MOL0     C 4605   3.535  11.280   6.522  0.8279  0.4883 -0.5773
   35MOL0     C 4606   3.526  11.404   6.620 -0.4181 -0.6140 -0.1881
   35MOL0     N 4607   3.612  11.382   6.734  0.2459  0.3211 -0.3923
   35MOL0     C 4608   3.578  11.417   6.862 -1.0583  0.5024 -1.1454
   35MOL0     C 4609   3.690  11.398   6.938 -0.5725  0.4348  0.1494
   35MOL0     C 4610   3.706  11.419   7.090  0.6659 -0.0064  0.8136
   35MOL0     C 4611   3.840  11.365   7.143  0.3035 -0.2345 -0.1173
   35MOL0     C 4612   3.845  11.212   7.159  0.1651  0.1068  0.0103
   35MOL0     C 4613   3.760  11.155   7.272  0.0056  0.5698 -0.6546
   35MOL0     O 4614   3.787  11.239   7.386 -0.3260 -0.3230 -0.3454
   35MOL0     C 4615   3.776  11.182   7.507  0.6171 -0.0447 -0.0421
   35MOL0     C 4616   3.678  11.096   7.548  0.0869  0.5330 -0.4109
   35MOL0     C 4617   3.694  11.015   7.667 -0.0511  0.5141  0.7721
   35MOL0     C 4618   3.803  11.033   7.747  0.2251 -1.0862 -1.2271
   35MOL0     C 4619   3.823  10.954   7.881  0.5055  1.1940 -0.0129
   35MOL0     O 4620   3.902  10.994   7.976 -1.0040 -0.8250 -0.1506
   35MOL0     C 4621   3.911  10.925   8.093  0.9181 -0.3642 -0.1228
   35MOL0     C 4622   3.792  10.896   8.170 -0.2233 -0.2187  0.2944
   35MOL0     C 4623   3.803  10.819   8.286 -0.4698  0.0252 -0.1997
   35MOL0     C 4624   3.929  10.766   8.326  0.6333  0.3362  0.1254
   35MOL0     O 4625   3.954  10.690   8.438  0.0025  0.0509  0.7771
   35MOL0     C 4626   3.899  10.726   8.561 -1.0006 -0.3504  0.1786
   35MOL0     C 4627   3.782  10.640   8.591 -0.4065  0.3380  1.0656
   35MOL0     C 4628   3.803  10.487   8.577 -0.0040 -0.4589 -0.3105
   35MOL0     C 4629   3.921  10.437   8.662 -0.3546 -0.2817  0.4418
   35MOL0     C 4630   3.911  10.285   8.681 -0.2816 -0.0026  0.9360
   35MOL0     C 4631   4.052  10.219   8.719 -0.2188  0.3093  0.6725
   35MOL0     C 4632   4.114  10.264   8.846  0.3834  0.2851  0.2092
   35MOL0     C 4633   4.274  10.256   8.834  0.2463 -0.3703 -0.6966
   35MOL0    Cl 4634   4.328  10.373   8.697 -0.1534  1.0093  0.1415
   35MOL0     C 4635   4.039  10.785   8.241  0.4833 -0.3907 -0.0480
   35MOL0     C 4636   4.037  10.868   8.130  0.5654  1.1575  0.7056
   35MOL0     O 4637   3.748  10.849   7.889  0.6962  0.0201  0.0338
   35MOL0     C 4638   3.888  11.142   7.716  0.6720 -0.0018  0.3679
   35MOL0     C 4639   3.880  11.200   7.595 -0.2221 -0.2058 -0.1152
   35MOL0     N 4640   3.783  11.345   6.848  1.0902 -0.3380  0.0761
   35MOL0     N 4641   3.741  11.341   6.728 -0.1776  0.6051 -0.3685
   35MOL0     C 4642   2.765  11.134   6.386  0.1225  0.0273  1.7846
   35MOL0     C 4643   2.643  11.212   6.400  1.0476 -0.4146  0.6595
   35MOL0     C 4644   2.306  11.410   6.629  0.9158  0.2799 -0.4059
   35MOL0     C 4645   2.326  11.492   6.738 -0.6599  0.6805  0.3254
   35MOL0     C 4646   2.229  11.592   6.761 -0.2873 -0.3375  0.3037
   35MOL0     C 4647   2.129  11.620   6.679  0.2733  0.2257 -0.4086
   35MOL0     O 4648   2.065  11.737   6.698  0.0315 -0.1274 -0.0091
   35MOL0     C 4649   1.945  11.777   6.638  0.3098  0.6873  0.0970
   35MOL0     C 4650   1.937  11.929   6.644 -1.0264 -0.7129 -0.0597
   35MOL0     C 4651   1.820  12.003   6.579 -0.1169 -0.1321 -0.1011
   35MOL0     C 4652   1.791  12.136   6.643  0.3111 -0.0188  0.2105
   35MOL0     C 4653   1.672  12.191   6.578 -0.7892 -0.5015 -0.4286
   35MOL0     C 4654   1.580  12.253   6.522 -0.5354  0.4543 -0.6001
   35MOL0     C 4655   2.104  11.533   6.577 -0.3708 -0.2613  0.3188
   35MOL0     C 4656   2.184  11.422   6.560  0.3198 -0.2257  0.3608
   35MOL0     C 4657   2.146  11.331   6.441 -0.2880  0.7204  0.4216
   35MOL0     H 4658   2.461  10.981   6.569 -1.0270  0.8691 -0.1670
   35MOL0     H 4659   2.654  10.859   6.550 -0.0996 -0.5041 -1.7110
   35MOL0     H 4660   2.886  10.907   6.648 -1.2760 -1.0127  0.8932
   35MOL0     H 4661   2.884  10.757   6.556 -0.7469  0.5955  0.7515
   35MOL0     H 4662   3.124  10.808   6.469  2.6549 -0.5447  1.2874
   35MOL0     H 4663   3.122  10.776   6.642  1.7362  1.7793  0.6523
   35MOL0     H 4664   3.106  11.013   6.693 -1.9066 -0.9496 -0.5245
   35MOL0     H 4665   3.104  11.051   6.511  0.4708 -2.9653 -2.8542
   35MOL0     H 4666   3.332  10.946   6.666 -0.0897 -2.3899 -1.1227
   35MOL0     H 4667   3.315  10.953   6.492 -0.6958 -0.0421 -0.5810
   35MOL0     H 4668   3.291  11.211   6.525 -1.1018 -3.3958 -1.5200
   35MOL0     H 4669   3.292  11.197   6.698 -1.6488  1.8208 -1.8070
   35MOL0     H 4670   3.528  11.138   6.690  1.7828  1.0703 -0.7004
   35MOL0     H 4671   3.515  11.057   6.530 -3.9774 -1.1695 -1.7849
   35MOL0     H 4672   3.466  11.304   6.441 -2.1052  0.2692  1.6921
   35MOL0     H 4673   3.635  11.265   6.480  2.6697  0.9365  3.2411
   35MOL0     H 4674   3.546  11.493   6.560 -0.3876  0.8918  1.9760
   35MOL0     H 4675   3.425  11.420   6.659  0.2145  2.0943  0.5482
   35MOL0     H 4676   3.488  11.459   6.904 -0.3366  2.1629 -1.1950
   35MOL0     H 4677   3.700  11.525   7.118  1.3103 -0.0050  0.9842
   35MOL0     H 4678   3.626  11.375   7.150  0.2367  0.2934  0.4658
   35MOL0     H 4679   3.913  11.405   7.073  0.7514 -0.0921  0.4191
   35MOL0     H 4680   3.868  11.410   7.239  3.0989  1.1909 -1.4927
   35MOL0     H 4681   3.942  11.170   7.185 -0.7510 -2.3231 -0.1965
   35MOL0     H 4682   3.824  11.177   7.058 -0.0943  2.2488 -0.7338
   35MOL0     H 4683   3.788  11.051   7.294 -2.7573 -0.5537 -1.9822
   35MOL0     H 4684   3.652  11.151   7.255 -0.2888 -2.7569  1.0852
   35MOL0     H 4685   3.597  11.065   7.483  1.5193 -3.0329 -0.7262
   35MOL0     H 4686   3.621  10.938   7.691  0.9592 -0.3658  1.0779
   35MOL0     H 4687   3.695  10.926   8.132  1.0301  2.4438 -1.0587
   35MOL0     H 4688   3.714  10.803   8.346 -2.9491 -1.9738 -3.9961
   35MOL0     H 4689   3.973  10.740   8.640 -0.0397  3.1171 -1.1382
   35MOL0     H 4690   3.884  10.835   8.555  2.6222  0.1956 -1.9516
   35MOL0     H 4691   3.749  10.655   8.694  0.2880 -0.8787  1.4924
   35MOL0     H 4692   3.703  10.676   8.525 -1.0097  0.4006  1.8009
   35MOL0     H 4693   3.712  10.440   8.614 -0.8993  0.0089 -1.8304
   35MOL0     H 4694   3.822  10.467   8.471  0.4149  1.4491 -0.6338
   35MOL0     H 4695   3.918  10.487   8.759 -0.7205 -1.6545  1.1618
   35MOL0     H 4696   4.004  10.470   8.599 -1.3604  1.2062 -0.1695
   35MOL0     H 4697   3.878  10.244   8.585 -2.6063  3.6232 -0.0107
   35MOL0     H 4698   3.835  10.254   8.754 -1.1801  0.0525  0.0422
   35MOL0     H 4699   4.041  10.110   8.720 -0.5181  0.1951 -2.8388
   35MOL0     H 4700   4.107  10.253   8.631  2.1204 -0.1165  1.8920
   35MOL0     H 4701   4.070  10.203   8.925 -0.2070 -0.9910 -1.0363
   35MOL0     H 4702   4.076  10.366   8.851 -1.4907  0.0014 -3.8458
   35MOL0     H 4703   4.329  10.287   8.923  0.3672  3.7784 -1.9899
   35MOL0     H 4704   4.314  10.156   8.813  3.3247  0.1205  2.0205
   35MOL0     H 4705   4.134  10.750   8.282  1.1776 -0.9660 -2.0217
   35MOL0     H 4706   4.122  10.881   8.064 -1.2593 -0.2967 -2.1144
   35MOL0     H 4707   3.971  11.174   7.779  1.6543  0.6086 -1.1739
   35MOL0     H 4708   3.957  11.272   7.568 -0.2827 -0.9712 -2.6604
   35MOL0     H 4709   2.851  11.179   6.337 -2.0231 -0.3973 -2.9943
   35MOL0     H 4710   2.627  11.305   6.346  1.7247 -1.6570 -1.8285
   35MOL0     H 4711   2.416  11.484   6.797 -1.3781 -3.2060  1.1261
   35MOL0     H 4712   2.261  11.669   6.831 -0.7980  0.7694 -0.6596
   35MOL0     H 4713   1.865  11.728   6.694 -0.1301 -0.0490 -1.1427
   35MOL0     H 4714   1.935  11.748   6.533  2.6834  2.0734 -0.6008
   35MOL0     H 4715   2.030  11.964   6.596 -0.3558 -1.8778  0.3723
   35MOL0     H 4716   1.940  11.957   6.749  0.2058 -0.6931 -0.0773
   35MOL0     H 4717   1.736  11.934   6.589 -0.2192  0.1188  0.9046
   35MOL0     H 4718   1.832  12.013   6.470  0.0752  0.0865 -0.0609
   35MOL0     H 4719   1.751  12.122   6.744 -0.5479 -2.5074 -0.4133
   35MOL0     H 4720   1.868  12.213   6.635 -0.3381  0.5092 -1.5174
   35MOL0     H 4721   1.492  12.291   6.474  0.8136  3.5995 -0.8454
   35MOL0     H 4722   2.021  11.551   6.510  0.0080 -2.2094 -0.7445
   35MOL0     H 4723   2.169  11.229   6.473 -1.0042  0.6062  0.5869
   35MOL0     H 4724   2.040  11.346   6.419  0.2249  3.1397 -0.7619
   35MOL0     H 4725   2.202  11.351   6.349 -0.5207  1.6355  0.4777
   36MOL0     O 4726   8.302   7.428   4.331 -0.5906 -0.2755 -0.2617
   36MOL0     C 4727   8.325   7.496   4.231  0.6980 -0.3790 -0.0554
   36MOL0     O 4728   8.273   7.624   4.198 -0.3081  0.1014 -0.9331
   36MOL0     C 4729   8.206   7.697   4.299  0.6704  0.3250  0.0555
   36MOL0     C 4730   8.254   7.716   4.431  0.9173  0.0654  0.2229
   36MOL0     C 4731   8.183   7.792   4.525 -0.7713 -0.5575  0.9592
   36MOL0     C 4732   8.055   7.855   4.488  0.2055  0.1454 -0.3902
   36MOL0     O 4733   7.984   7.925   4.581  0.2664 -0.2588  0.1235
   36MOL0     C 4734   7.850   7.958   4.550  0.2524 -0.3572  0.7543
   36MOL0     C 4735   7.794   8.049   4.651 -0.4735 -0.3887  0.2090
   36MOL0     C 4736   7.842   8.197   4.640 -0.1645  0.0630 -0.8021
   36MOL0     C 4737   7.995   8.215   4.687  0.1754  0.2171  0.0104
   36MOL0     C 4738   8.033   8.355   4.725 -0.7166 -1.3449  0.7287
   36MOL0     C 4739   8.040   8.462   4.613 -0.1495  0.2378 -0.0565
   36MOL0     C 4740   8.036   8.601   4.660  0.3092  0.3251  0.1497
   36MOL0     C 4741   8.134   8.644   4.774  0.2765 -0.1416  0.2197
   36MOL0     N 4742   8.276   8.626   4.738 -0.2023 -0.2303 -0.2406
   36MOL0     C 4743   8.339   8.641   4.609 -0.0137 -0.0956 -0.7821
   36MOL0     C 4744   8.476   8.645   4.630  0.2813  0.3225 -0.3074
   36MOL0     C 4745   8.595   8.654   4.531 -0.0169 -0.0000  0.4574
   36MOL0     C 4746   8.698   8.769   4.566 -0.4077 -0.4439 -0.2469
   36MOL0     C 4747   8.824   8.754   4.484 -0.2314 -0.3845  0.2123
   36MOL0     C 4748   8.929   8.863   4.517  0.6758 -0.0005 -0.3957
   36MOL0     O 4749   9.019   8.877   4.410 -0.7361  0.7361 -0.6072
   36MOL0     C 4750   9.159   8.858   4.441  0.9309 -0.2098  0.2004
   36MOL0     C 4751   9.221   8.895   4.566  0.8685 -0.4743  0.3415
   36MOL0     C 4752   9.346   8.870   4.589 -0.1860 -0.1146  0.4744
   36MOL0     C 4753   9.428   8.804   4.498 -0.5258  0.0115  0.3964
   36MOL0     C 4754   9.571   8.771   4.519 -0.6977 -0.8793 -0.3949
   36MOL0     O 4755   9.656   8.718   4.415 -0.2652  0.4001  0.4940
   36MOL0     C 4756   9.781   8.667   4.467  1.3243  0.2361  0.5453
   36MOL0     C 4757   9.786   8.607   4.601  0.2411 -1.2030  0.1885
   36MOL0     C 4758   9.902   8.546   4.642 -0.6634 -0.0635 -0.5753
   36MOL0     C 4759  10.016   8.520   4.549  0.4094  1.2840 -0.5894
   36MOL0     O 4760  10.137   8.445   4.589 -0.8581  0.4480 -0.1624
   36MOL0     C 4761  10.127   8.303   4.571 -0.2492  0.4378 -0.4320
   36MOL0     C 4762  10.045   8.256   4.687  0.5544  0.5453 -0.3349
   36MOL0     C 4763  10.038   8.106   4.681 -0.3173 -0.0886 -0.1065
   36MOL0     C 4764   9.897   8.053   4.725  0.4854  0.4157 -0.3050
   36MOL0     C 4765   9.893   7.899   4.754 -0.3056 -0.2644 -0.5255
   36MOL0     C 4766   9.958   7.808   4.637  0.9269  0.2992 -0.4617
   36MOL0     C 4767   9.855   7.775   4.520 -0.2870 -0.3360 -1.6238
   36MOL0     C 4768   9.840   7.886   4.412  0.0911  0.3366 -0.1986
   36MOL0    Cl 4769  10.000   7.913   4.333 -0.1621 -0.4680  0.2249
   36MOL0     C 4770   9.991   8.553   4.421 -0.7797 -0.5278 -0.5090
   36MOL0     C 4771   9.876   8.631   4.381 -0.3900 -0.2311 -1.1243
   36MOL0     O 4772   9.615   8.818   4.628  0.3599 -0.1818 -0.0495
   36MOL0     C 4773   9.372   8.778   4.369  0.9629 -0.2121  0.5144
   36MOL0     C 4774   9.239   8.813   4.335 -0.4558  0.8254 -0.3080
   36MOL0     N 4775   8.494   8.621   4.765 -0.3477  0.6156 -0.0589
   36MOL0     N 4776   8.379   8.622   4.827  1.2695 -0.6755  0.2644
   36MOL0     C 4777   8.011   7.829   4.355 -0.9904 -1.0489  0.1400
   36MOL0     C 4778   8.083   7.756   4.261  0.0193  0.2967  0.6203
   36MOL0     C 4779   8.404   7.436   4.112  0.0025  0.9208 -2.0055
   36MOL0     C 4780   8.424   7.522   3.995 -0.7383 -0.7629 -0.4295
   36MOL0     C 4781   8.476   7.461   3.882 -0.7239 -0.0680 -0.4886
   36MOL0     C 4782   8.526   7.315   3.872 -0.6395 -1.6130 -0.2082
   36MOL0     O 4783   8.574   7.247   3.770  0.4086  0.4139 -0.2401
   36MOL0     C 4784   8.617   7.325   3.658 -0.3262  0.1554 -0.1798
   36MOL0     C 4785   8.646   7.236   3.533  0.0622 -0.0232 -0.1627
   36MOL0     C 4786   8.768   7.159   3.542 -0.9135  0.3725 -1.4616
   36MOL0     C 4787   8.813   7.068   3.422  0.7745 -0.5351 -0.2668
   36MOL0     C 4788   8.931   7.129   3.363  0.1439  0.1073  0.4454
   36MOL0     C 4789   9.021   7.182   3.304  0.3357  0.1840  0.0587
   36MOL0     C 4790   8.489   7.239   3.985  0.3300  0.0797 -0.4633
   36MOL0     C 4791   8.431   7.290   4.107  0.1220 -0.4295  0.4631
   36MOL0     C 4792   8.410   7.204   4.234  0.0818 -0.5711 -0.3670
   36MOL0     H 4793   8.346   7.663   4.453  1.0854  1.2565  2.6847
   36MOL0     H 4794   8.228   7.801   4.623 -0.9523 -0.1683  1.0089
   36MOL0     H 4795   7.851   8.011   4.454 -0.2976 -0.8584  0.4686
   36MOL0     H 4796   7.798   7.863   4.532  1.4354 -1.1405  1.3634
   36MOL0     H 4797   7.816   8.011   4.751 -0.9028 -0.6131  0.2196
   36MOL0     H 4798   7.685   8.045   4.641 -0.3494 -1.8027 -0.8196
   36MOL0     H 4799   7.791   8.267   4.707 -0.0049 -1.4959  1.0503
   36MOL0     H 4800   7.837   8.224   4.534  0.6553 -1.6577 -1.3115
   36MOL0     H 4801   8.028   8.158   4.774  2.9201 -0.4994 -1.3929
   36MOL0     H 4802   8.049   8.181   4.599 -2.3536 -1.6547 -0.9555
   36MOL0     H 4803   7.969   8.398   4.803  1.5511  0.1674  1.8716
   36MOL0     H 4804   8.137   8.363   4.758 -0.5054  3.4151 -0.3173
   36MOL0     H 4805   8.119   8.442   4.540 -1.5771  0.5611 -1.7567
   36MOL0     H 4806   7.954   8.439   4.550  0.2757  2.1519 -1.4150
   36MOL0     H 4807   7.936   8.621   4.699 -0.0955 -1.9202  0.4117
   36MOL0     H 4808   8.047   8.662   4.570  4.2440 -0.6082 -0.1813
   36MOL0     H 4809   8.124   8.750   4.800 -1.1690 -0.4034  0.7722
   36MOL0     H 4810   8.116   8.584   4.863  1.9406 -2.7681 -1.1005
   36MOL0     H 4811   8.292   8.659   4.513  0.8651 -0.1409 -1.2338
   36MOL0     H 4812   8.640   8.556   4.513 -0.3826  0.1475 -1.4931
   36MOL0     H 4813   8.564   8.689   4.432  1.3977  4.0184  1.2520
   36MOL0     H 4814   8.647   8.865   4.550 -4.5514 -2.6361 -1.6000
   36MOL0     H 4815   8.729   8.764   4.671 -0.7154  0.5301 -0.0972
   36MOL0     H 4816   8.799   8.751   4.378  1.3402  2.0734 -0.3228
   36MOL0     H 4817   8.866   8.657   4.512  1.6946  0.2014 -0.5266
   36MOL0     H 4818   8.989   8.836   4.604  1.2621  1.9950 -0.1341
   36MOL0     H 4819   8.871   8.954   4.537 -0.6600 -0.5578 -1.5539
   36MOL0     H 4820   9.177   8.956   4.644 -0.6885 -0.2292 -0.6979
   36MOL0     H 4821   9.386   8.914   4.680 -0.2353  0.3569  0.2693
   36MOL0     H 4822   9.708   8.615   4.676  0.9300 -0.4537  0.8401
   36MOL0     H 4823   9.914   8.517   4.746 -1.8721  0.1307 -0.3643
   36MOL0     H 4824  10.076   8.275   4.479 -1.9890 -0.5569  0.7705
   36MOL0     H 4825  10.223   8.251   4.562  0.5287  2.0138 -2.0488
   36MOL0     H 4826  10.085   8.286   4.784  1.8284 -1.4632 -0.1837
   36MOL0     H 4827   9.941   8.291   4.686  0.9392  1.7270 -0.2866
   36MOL0     H 4828  10.056   8.079   4.577 -0.0275  0.9514 -0.3476
   36MOL0     H 4829  10.119   8.072   4.748  0.2026  1.8075  0.2969
   36MOL0     H 4830   9.811   8.080   4.663 -1.8958 -1.8970  1.7191
   36MOL0     H 4831   9.878   8.116   4.814 -1.0508  4.5503 -3.2331
   36MOL0     H 4832   9.792   7.858   4.769  0.3987 -1.8916 -0.0486
   36MOL0     H 4833   9.949   7.892   4.848  0.5921 -1.6940 -1.1550
   36MOL0     H 4834  10.058   7.832   4.600  1.1896  1.6762  1.0136
   36MOL0     H 4835   9.973   7.720   4.700 -0.0740  0.9928  0.8151
   36MOL0     H 4836   9.757   7.770   4.568  0.1864  1.0066 -0.4797
   36MOL0     H 4837   9.888   7.678   4.480 -1.9492 -0.6217 -2.3972
   36MOL0     H 4838   9.770   7.854   4.334  3.0754  2.9703 -4.3321
   36MOL0     H 4839   9.797   7.975   4.457 -2.4121 -1.2799  0.8716
   36MOL0     H 4840  10.064   8.541   4.342 -2.7816 -1.5523 -2.3075
   36MOL0     H 4841   9.855   8.655   4.277  0.8914 -2.3561 -1.9443
   36MOL0     H 4842   9.435   8.738   4.290  0.7342 -0.6958  0.5799
   36MOL0     H 4843   9.193   8.797   4.238 -7.4331 -2.5103  2.8281
   36MOL0     H 4844   7.925   7.880   4.313 -2.4071 -3.4942 -0.1425
   36MOL0     H 4845   8.047   7.755   4.159 -0.1442  0.5451  0.6733
   36MOL0     H 4846   8.400   7.628   3.996 -0.8127 -0.7712 -1.0219
   36MOL0     H 4847   8.503   7.524   3.798 -1.6866  0.7710 -0.1835
   36MOL0     H 4848   8.699   7.396   3.667  0.2814 -0.6928  1.3235
   36MOL0     H 4849   8.545   7.401   3.626  0.8970  0.7938 -1.5436
   36MOL0     H 4850   8.660   7.310   3.453 -1.4247 -1.9837 -2.3837
   36MOL0     H 4851   8.558   7.173   3.520 -0.1769 -0.2815  2.2474
   36MOL0     H 4852   8.754   7.088   3.625 -0.0642 -0.6539 -2.1732
   36MOL0     H 4853   8.849   7.229   3.563  2.2376 -2.8655 -1.9712
   36MOL0     H 4854   8.834   6.965   3.453 -0.8934 -1.5926 -2.3666
   36MOL0     H 4855   8.730   7.050   3.354  1.0349  0.9307 -1.0169
   36MOL0     H 4856   9.097   7.220   3.239  0.9516  1.3850  1.4187
   36MOL0     H 4857   8.505   7.132   3.978  0.5316  0.1343 -0.9038
   36MOL0     H 4858   8.303   7.206   4.257 -0.2731 -2.2118 -1.6447
   36MOL0     H 4859   8.423   7.098   4.209 -1.4922  0.0582 -4.7096
   36MOL0     H 4860   8.469   7.235   4.321  1.9056  1.5426 -2.2509
   37MOL0     O 4861   4.076   5.097   1.851  0.2757  0.7614  0.3488
   37MOL0     C 4862   4.125   5.203   1.832  0.1224 -0.2235 -0.7416
   37MOL0     O 4863   4.069   5.311   1.767  0.1415  0.0148  0.7655
   37MOL0     C 4864   3.943   5.317   1.734  0.6921 -0.4866  0.6956
   37MOL0     C 4865   3.841   5.266   1.814  0.5372 -0.1097  0.2175
   37MOL0     C 4866   3.707   5.290   1.781  0.7550  0.2467 -0.3705
   37MOL0     C 4867   3.662   5.356   1.667 -0.2908 -0.8483 -0.4808
   37MOL0     O 4868   3.532   5.384   1.640 -0.1752  0.7412  0.3524
   37MOL0     C 4869   3.460   5.274   1.585 -0.3173  0.1782 -0.5858
   37MOL0     C 4870   3.309   5.296   1.615 -0.5776  0.4859  0.8856
   37MOL0     C 4871   3.250   5.419   1.540 -0.9880  0.1233 -0.8373
   37MOL0     C 4872   3.094   5.427   1.555 -0.4546 -0.0280  0.2997
   37MOL0     C 4873   3.029   5.483   1.431  0.0015 -0.0835  0.2067
   37MOL0     C 4874   2.875   5.483   1.448 -0.3826  0.5738  0.1848
   37MOL0     C 4875   2.829   5.557   1.572 -0.2765 -1.7415 -0.7599
   37MOL0     C 4876   2.681   5.601   1.558  0.4686  0.7336 -0.1031
   37MOL0     N 4877   2.616   5.515   1.650  0.0886 -0.3050  0.6077
   37MOL0     C 4878   2.601   5.537   1.786 -0.3914  0.5219  0.2948
   37MOL0     C 4879   2.530   5.439   1.831  0.4092 -0.3207  0.5772
   37MOL0     C 4880   2.479   5.426   1.976  0.1353 -0.1074 -0.4988
   37MOL0     C 4881   2.454   5.558   2.047 -0.6580  0.5102 -0.2812
   37MOL0     C 4882   2.400   5.543   2.189 -0.8066 -0.1314 -0.4440
   37MOL0     C 4883   2.285   5.452   2.224  0.4320  0.2541  1.0675
   37MOL0     O 4884   2.184   5.495   2.130 -0.7064  0.7592 -0.2162
   37MOL0     C 4885   2.105   5.608   2.156 -1.2517  0.8231 -0.2055
   37MOL0     C 4886   2.055   5.634   2.281 -0.6531 -0.1189  0.0031
   37MOL0     C 4887   1.963   5.729   2.310 -0.2224  0.1665 -0.1088
   37MOL0     C 4888   1.915   5.804   2.204 -0.4860  0.2927 -0.0220
   37MOL0     C 4889   1.821   5.925   2.215 -0.0414  0.7872  0.8506
   37MOL0     O 4890   1.809   6.011   2.106  0.0651 -0.2509  0.5696
   37MOL0     C 4891   1.736   6.126   2.127  0.1043  0.2055 -0.7632
   37MOL0     C 4892   1.593   6.118   2.165 -0.4641 -0.2527 -0.4044
   37MOL0     C 4893   1.519   6.230   2.178  0.6476 -0.3862 -0.5136
   37MOL0     C 4894   1.565   6.354   2.176  0.0735  0.2333  0.2540
   37MOL0     O 4895   1.467   6.440   2.216 -0.8244 -0.4175  0.3535
   37MOL0     C 4896   1.492   6.519   2.336  0.0295  0.1961  0.2094
   37MOL0     C 4897   1.360   6.520   2.422  0.5228 -0.5631  0.6767
   37MOL0     C 4898   1.405   6.557   2.566  0.1728  0.5997 -0.8174
   37MOL0     C 4899   1.298   6.557   2.673  0.5997 -0.0003  0.0122
   37MOL0     C 4900   1.350   6.577   2.820  0.8081 -0.1752  0.1634
   37MOL0     C 4901   1.426   6.708   2.844  0.4945 -0.4010 -0.0235
   37MOL0     C 4902   1.334   6.831   2.845 -0.3122  0.0500 -0.3372
   37MOL0     C 4903   1.405   6.943   2.927 -0.3035  0.6306  0.0064
   37MOL0    Cl 4904   1.478   6.898   3.095  0.2341 -0.2499 -0.1622
   37MOL0     C 4905   1.700   6.373   2.139  0.9822  0.2772  0.3705
   37MOL0     C 4906   1.784   6.258   2.113  0.1157  0.2419 -0.6562
   37MOL0     O 4907   1.766   5.935   2.324 -0.8156 -0.0641 -0.3641
   37MOL0     C 4908   1.971   5.786   2.070 -0.5826 -0.1276  0.0987
   37MOL0     C 4909   2.069   5.688   2.052  0.0391 -0.3185  0.8683
   37MOL0     N 4910   2.488   5.357   1.729 -0.5099  1.2593  0.3348
   37MOL0     N 4911   2.536   5.409   1.625  0.5843  0.3920  0.5453
   37MOL0     C 4912   3.760   5.409   1.588 -1.0858  1.1746  0.0741
   37MOL0     C 4913   3.900   5.385   1.616  0.5981  0.0003  1.3013
   37MOL0     C 4914   4.252   5.217   1.899 -0.4715 -0.2628  0.3309
   37MOL0     C 4915   4.269   5.290   2.015  0.5713 -0.1969  0.1464
   37MOL0     C 4916   4.387   5.307   2.081 -0.4831  0.9378  0.2320
   37MOL0     C 4917   4.502   5.254   2.034  0.0968  0.2086 -0.7274
   37MOL0     O 4918   4.621   5.275   2.103  0.7739 -0.1965  0.6960
   37MOL0     C 4919   4.733   5.184   2.079  0.4127  0.2591 -0.1276
   37MOL0     C 4920   4.842   5.240   2.183 -0.2886 -0.1226 -0.6998
   37MOL0     C 4921   4.977   5.156   2.176 -0.1926  0.1912 -0.3618
   37MOL0     C 4922   5.095   5.223   2.243  0.1283  0.2176 -1.2434
   37MOL0     C 4923   5.176   5.115   2.299 -0.4954  0.1320  0.0208
   37MOL0     C 4924   5.236   5.027   2.358  0.8180 -0.6231  0.2577
   37MOL0     C 4925   4.491   5.178   1.918  0.2222  0.3255  0.6442
   37MOL0     C 4926   4.364   5.147   1.852 -0.5255  0.5752 -0.9599
   37MOL0     C 4927   4.375   5.053   1.732  0.8766  0.1708  0.0205
   37MOL0     H 4928   3.866   5.221   1.910  1.7352  0.6675  0.3014
   37MOL0     H 4929   3.632   5.231   1.834  2.1318 -0.9142  0.3491
   37MOL0     H 4930   3.488   5.260   1.480 -2.3535  0.6471 -1.2369
   37MOL0     H 4931   3.485   5.180   1.635 -0.4386 -1.7142 -3.8413
   37MOL0     H 4932   3.294   5.308   1.723 -3.8446  1.9052  0.3800
   37MOL0     H 4933   3.265   5.203   1.580 -1.2728  0.6509  1.3096
   37MOL0     H 4934   3.282   5.408   1.436  1.6060 -1.6625  0.0369
   37MOL0     H 4935   3.308   5.508   1.566 -2.1052  1.0864 -1.5370
   37MOL0     H 4936   3.062   5.322   1.564  0.9177 -0.3984  1.0947
   37MOL0     H 4937   3.063   5.481   1.645 -5.4672  1.3258 -1.8621
   37MOL0     H 4938   3.060   5.583   1.401 -0.2434 -0.6656 -2.1792
   37MOL0     H 4939   3.050   5.416   1.347  1.0880 -0.0370  0.4376
   37MOL0     H 4940   2.826   5.537   1.367 -3.2772 -0.6958  0.9533
   37MOL0     H 4941   2.837   5.380   1.449  1.4894 -0.1489  1.3087
   37MOL0     H 4942   2.893   5.645   1.587 -2.3725 -0.2299 -0.2776
   37MOL0     H 4943   2.850   5.488   1.654  3.5577 -2.9204 -2.4759
   37MOL0     H 4944   2.644   5.699   1.593 -0.5404  0.2196  0.3216
   37MOL0     H 4945   2.660   5.576   1.454  0.8153 -4.7105  0.8826
   37MOL0     H 4946   2.648   5.620   1.837  2.3163  0.8674 -2.4356
   37MOL0     H 4947   2.386   5.369   1.971  0.2277 -0.1928 -1.3760
   37MOL0     H 4948   2.540   5.371   2.049  1.6228  1.8970 -0.1620
   37MOL0     H 4949   2.546   5.618   2.046  0.2509 -0.8405 -1.1405
   37MOL0     H 4950   2.372   5.607   1.994 -0.6882  0.9577  0.1737
   37MOL0     H 4951   2.357   5.641   2.213 -1.7676 -0.8375  0.7958
   37MOL0     H 4952   2.479   5.514   2.259 -0.6233 -1.0916 -1.0357
   37MOL0     H 4953   2.257   5.462   2.329 -0.8090  1.6444  0.6503
   37MOL0     H 4954   2.314   5.348   2.205 -4.4511 -1.1548 -0.2437
   37MOL0     H 4955   2.098   5.567   2.355 -0.0589 -2.4229 -2.2501
   37MOL0     H 4956   1.938   5.757   2.412  2.6734 -2.1806  1.4239
   37MOL0     H 4957   1.567   6.013   2.166  2.5200 -1.1153 -1.6434
   37MOL0     H 4958   1.413   6.213   2.193  0.5212  2.1244  2.5568
   37MOL0     H 4959   1.576   6.480   2.395  0.8273 -0.7541 -1.4908
   37MOL0     H 4960   1.521   6.616   2.295  0.8236  0.1061  0.5364
   37MOL0     H 4961   1.291   6.596   2.385  0.1349 -2.3839 -2.7737
   37MOL0     H 4962   1.311   6.422   2.412  2.2680 -1.4996  0.7690
   37MOL0     H 4963   1.470   6.473   2.593 -0.9457  0.3195  1.1728
   37MOL0     H 4964   1.463   6.649   2.558  1.1040  0.1452  0.3652
   37MOL0     H 4965   1.247   6.460   2.665  0.4544  0.1943 -2.1466
   37MOL0     H 4966   1.220   6.631   2.656 -0.4977 -1.6911 -3.2434
   37MOL0     H 4967   1.424   6.500   2.844  2.8908  1.3015 -1.1688
   37MOL0     H 4968   1.270   6.561   2.893  1.1977  3.3226  1.5302
   37MOL0     H 4969   1.468   6.695   2.945 -0.6813 -0.0930  0.5263
   37MOL0     H 4970   1.502   6.716   2.766  0.6727 -1.8187 -0.0341
   37MOL0     H 4971   1.241   6.797   2.892 -1.7602  1.5883 -1.9375
   37MOL0     H 4972   1.320   6.871   2.744 -0.2138 -1.3464 -0.9274
   37MOL0     H 4973   1.487   6.978   2.865  1.2459  1.4626  2.3905
   37MOL0     H 4974   1.338   7.029   2.935  0.7482  1.8293 -2.8477
   37MOL0     H 4975   1.731   6.477   2.134 -2.4972  1.5727  2.2872
   37MOL0     H 4976   1.888   6.281   2.097 -0.1391  0.2782 -2.4068
   37MOL0     H 4977   1.942   5.850   1.988 -0.9786 -1.8967 -1.1876
   37MOL0     H 4978   2.120   5.669   1.958  1.1840 -0.7847  1.5484
   37MOL0     H 4979   3.726   5.466   1.502 -1.5606 -0.2930 -0.7381
   37MOL0     H 4980   3.974   5.421   1.545  0.4932 -4.1637 -1.2475
   37MOL0     H 4981   4.181   5.331   2.063 -0.6364  0.5122 -2.4878
   37MOL0     H 4982   4.406   5.364   2.172 -0.2183 -0.6576  1.2139
   37MOL0     H 4983   4.779   5.196   1.981 -0.5515 -1.9479 -0.9010
   37MOL0     H 4984   4.712   5.077   2.089 -1.6971  0.5949 -0.4933
   37MOL0     H 4985   4.811   5.246   2.287 -0.5072 -0.5103 -0.7392
   37MOL0     H 4986   4.869   5.339   2.145  2.0321 -1.1893 -2.0662
   37MOL0     H 4987   5.015   5.143   2.074  4.3111 -1.2418  1.2333
   37MOL0     H 4988   4.950   5.059   2.219 -2.0047  0.3508 -1.0498
   37MOL0     H 4989   5.150   5.289   2.174  0.2549  0.9734 -0.4388
   37MOL0     H 4990   5.059   5.286   2.325  2.1149 -1.6374  1.1819
   37MOL0     H 4991   5.288   4.955   2.417  0.7816  0.3148  1.4732
   37MOL0     H 4992   4.572   5.126   1.867 -1.1821 -3.5941  2.0523
   37MOL0     H 4993   4.441   4.966   1.734 -2.2802 -2.4464 -1.0252
   37MOL0     H 4994   4.284   4.993   1.723  0.7435  0.6830 -2.8824
   37MOL0     H 4995   4.384   5.106   1.637 -1.0042  2.1878  0.8909
   38MOL0     O 4996   2.983   3.433   8.228  0.9361 -0.4283 -1.0175
   38MOL0     C 4997   3.081   3.394   8.292  1.2906  0.9873  0.7247
   38MOL0     O 4998   3.075   3.287   8.382  0.5223 -0.7360  0.5005
   38MOL0     C 4999   2.959   3.240   8.423  1.3386 -0.8217  0.4318
   38MOL0     C 5000   2.874   3.314   8.511  0.0763 -0.2362 -0.2603
   38MOL0     C 5001   2.764   3.253   8.571  0.3183  0.5361  0.4115
   38MOL0     C 5002   2.722   3.133   8.525 -0.3415  0.2070 -0.5912
   38MOL0     O 5003   2.606   3.069   8.571 -0.2246 -0.5040  0.4733
   38MOL0     C 5004   2.555   3.116   8.700 -0.2784  0.0740 -0.9054
   38MOL0     C 5005   2.478   2.991   8.757  0.7334  0.2436  0.6348
   38MOL0     C 5006   2.336   2.970   8.702 -0.4375  0.7743  0.2034
   38MOL0     C 5007   2.268   2.834   8.758 -0.3436  0.3340  0.4701
   38MOL0     C 5008   2.127   2.808   8.697  0.4642  0.8402 -0.6349
   38MOL0     C 5009   2.070   2.673   8.754  0.6787 -0.4682  0.6864
   38MOL0     C 5010   1.932   2.645   8.717 -0.2788 -0.3086  0.6806
   38MOL0     C 5011   1.922   2.607   8.566  0.9070 -0.0252 -0.3183
   38MOL0     N 5012   1.789   2.550   8.545  0.4388 -0.6827  0.4924
   38MOL0     C 5013   1.742   2.426   8.570 -0.3123  0.6105  0.0973
   38MOL0     C 5014   1.610   2.429   8.538 -0.6099 -0.4939  0.0099
   38MOL0     C 5015   1.516   2.312   8.556  0.0169 -0.5164  0.2386
   38MOL0     C 5016   1.376   2.362   8.580  0.7152  0.2533 -0.7350
   38MOL0     C 5017   1.284   2.330   8.456  0.1661 -0.9475  0.1655
   38MOL0     C 5018   1.142   2.382   8.485 -0.7321 -0.0955 -0.6812
   38MOL0     O 5019   1.091   2.299   8.597 -0.2472  0.5710  0.0021
   38MOL0     C 5020   0.995   2.368   8.670 -0.4446  0.2593  0.3313
   38MOL0     C 5021   1.035   2.429   8.793 -0.7123 -0.2782  0.3216
   38MOL0     C 5022   0.941   2.470   8.881 -0.3110 -0.7463 -0.1222
   38MOL0     C 5023   0.796   2.473   8.848  0.4693 -0.7598  0.1009
   38MOL0     C 5024   0.701   2.536   8.937 -0.7037  0.1606 -1.0202
   38MOL0     O 5025   0.591   2.595   8.882  0.5261 -0.0983  1.0221
   38MOL0     C 5026   0.496   2.668   8.954  0.2866  0.7039 -0.0415
   38MOL0     C 5027   0.366   2.669   8.903 -0.3886  0.4388 -0.0167
   38MOL0     C 5028   0.261   2.739   8.959 -0.2975 -0.4698  0.0578
   38MOL0     C 5029   0.286   2.813   9.067  0.9734  0.1212 -0.8635
   38MOL0     O 5030   0.197   2.901   9.118 -0.0055  0.4994  0.0884
   38MOL0     C 5031   0.066   2.854   9.151  0.1751 -0.3362  0.7214
   38MOL0     C 5032   0.060   2.734   9.250 -0.2763 -0.6813  0.7488
   38MOL0     C 5033  -0.075   2.676   9.283  0.7937  0.3502 -0.0747
   38MOL0     C 5034  -0.182   2.767   9.355 -0.2777  0.3595 -0.4432
   38MOL0     C 5035  -0.308   2.692   9.413 -0.3698 -0.9725  1.0602
   38MOL0     C 5036  -0.423   2.669   9.320 -0.4168  0.2252  0.9187
   38MOL0     C 5037  -0.405   2.533   9.250 -0.4314  0.0167 -0.4771
   38MOL0     C 5038  -0.523   2.518   9.146  0.2553 -0.2217  0.4408
   38MOL0    Cl 5039  -0.500   2.626   9.007  0.2788 -0.2218 -0.0788
   38MOL0     C 5040   0.414   2.818   9.116 -0.5126 -0.8098  0.0316
   38MOL0     C 5041   0.521   2.754   9.062 -0.2822  0.1132 -0.1995
   38MOL0     O 5042   0.726   2.551   9.054  0.1019 -0.4965  0.1505
   38MOL0     C 5043   0.760   2.426   8.720 -1.3650  0.2754  0.3403
   38MOL0     C 5044   0.862   2.367   8.637  0.3667 -0.0542  0.9273
   38MOL0     N 5045   1.580   2.550   8.492  0.1394  0.3453 -0.1835
   38MOL0     N 5046   1.682   2.628   8.498 -1.1242 -0.3692 -0.7737
   38MOL0     C 5047   2.798   3.054   8.436  0.3778  0.0814  0.4966
   38MOL0     C 5048   2.913   3.116   8.385 -1.8373 -0.6908 -0.7655
   38MOL0     C 5049   3.216   3.422   8.253 -0.2271  0.4510 -0.0623
   38MOL0     C 5050   3.308   3.315   8.253 -0.1634  0.2714  1.4077
   38MOL0     C 5051   3.440   3.340   8.199 -0.6771 -0.4095 -0.7808
   38MOL0     C 5052   3.478   3.464   8.148  0.7419 -0.3507  0.2198
   38MOL0     O 5053   3.604   3.504   8.090 -0.0176  0.5347 -0.1336
   38MOL0     C 5054   3.681   3.392   8.038  1.3962 -0.4938  0.0515
   38MOL0     C 5055   3.794   3.459   7.949  0.0984  0.6143 -0.7271
   38MOL0     C 5056   3.894   3.520   8.049 -0.2155  0.0590 -1.2083
   38MOL0     C 5057   4.038   3.516   8.022 -0.2812  0.2516 -0.4914
   38MOL0     C 5058   4.060   3.586   7.896 -0.5953 -0.2551 -0.3953
   38MOL0     C 5059   4.087   3.645   7.791  0.5571  1.4450  0.4349
   38MOL0     C 5060   3.381   3.562   8.138 -0.5158  0.6076 -0.8521
   38MOL0     C 5061   3.253   3.550   8.189  0.9540 -0.3058 -0.6265
   38MOL0     C 5062   3.157   3.673   8.184 -0.5496 -0.1408 -0.6382
   38MOL0     H 5063   2.896   3.418   8.533 -4.2328  1.6290 -3.4301
   38MOL0     H 5064   2.695   3.311   8.630 -1.8670  0.2387 -1.6897
   38MOL0     H 5065   2.635   3.151   8.765 -0.6048  1.0237 -0.9978
   38MOL0     H 5066   2.490   3.204   8.708 -0.8757 -0.5409  3.8014
   38MOL0     H 5067   2.479   3.001   8.866 -0.0142  1.8888  0.5309
   38MOL0     H 5068   2.543   2.909   8.726  0.9552  1.2519 -1.8132
   38MOL0     H 5069   2.358   2.941   8.599  4.9091  0.0380  1.2986
   38MOL0     H 5070   2.281   3.064   8.714 -2.0038 -0.0154 -0.5208
   38MOL0     H 5071   2.334   2.747   8.751  0.1246  0.5481  1.9097
   38MOL0     H 5072   2.250   2.839   8.866 -0.8134 -1.0212  0.4718
   38MOL0     H 5073   2.057   2.886   8.728 -0.8138  0.7226 -3.0211
   38MOL0     H 5074   2.126   2.800   8.588 -3.6102  1.1755 -0.7524
   38MOL0     H 5075   2.128   2.585   8.725 -2.3555 -2.3492 -0.1320
   38MOL0     H 5076   2.072   2.680   8.863 -2.2082  1.4799  0.7180
   38MOL0     H 5077   1.886   2.744   8.720 -0.5066 -0.4118  0.6997
   38MOL0     H 5078   1.878   2.594   8.798  0.6884 -0.5350  1.1886
   38MOL0     H 5079   1.945   2.691   8.501  1.3309 -1.3245 -1.9073
   38MOL0     H 5080   1.987   2.522   8.543  4.6133  2.6959 -0.8547
   38MOL0     H 5081   1.794   2.340   8.610 -1.3044  0.2375  0.5952
   38MOL0     H 5082   1.528   2.265   8.458  3.3500 -1.4401  0.9687
   38MOL0     H 5083   1.554   2.252   8.639  3.8838 -0.1724 -1.1133
   38MOL0     H 5084   1.341   2.311   8.671  2.2330  0.5851  0.0608
   38MOL0     H 5085   1.381   2.470   8.591  4.7485  0.2828 -1.3510
   38MOL0     H 5086   1.285   2.224   8.431  2.7673 -1.2193  1.0178
   38MOL0     H 5087   1.323   2.390   8.373  0.5448 -2.4832 -0.8165
   38MOL0     H 5088   1.081   2.363   8.397 -0.9794  3.3467 -1.4104
   38MOL0     H 5089   1.149   2.490   8.502 -0.7316  0.1879 -2.3190
   38MOL0     H 5090   1.139   2.420   8.822 -1.1975 -2.8322  1.5362
   38MOL0     H 5091   0.980   2.505   8.976 -2.5524  2.3243 -0.2230
   38MOL0     H 5092   0.344   2.608   8.816  0.1506 -0.4486  0.4557
   38MOL0     H 5093   0.169   2.755   8.903  0.0869  2.2129  0.0779
   38MOL0     H 5094   0.016   2.929   9.213 -0.8056  0.8764 -1.4288
   38MOL0     H 5095   0.014   2.832   9.057 -1.7893 -0.9365  1.9044
   38MOL0     H 5096   0.118   2.654   9.204 -1.6525 -1.0361 -0.4212
   38MOL0     H 5097   0.111   2.769   9.340 -1.5142  0.2298  1.1289
   38MOL0     H 5098  -0.126   2.625   9.201  0.7549  0.8443 -0.3546
   38MOL0     H 5099  -0.056   2.589   9.348  1.0712  0.4471 -0.0284
   38MOL0     H 5100  -0.215   2.857   9.301  2.2864  2.2703  0.9113
   38MOL0     H 5101  -0.127   2.815   9.436  1.4073 -0.8764 -0.7963
   38MOL0     H 5102  -0.342   2.758   9.494  2.9153 -0.7921  2.4543
   38MOL0     H 5103  -0.275   2.594   9.450 -0.4374 -0.9760  1.1121
   38MOL0     H 5104  -0.522   2.665   9.368  0.5674  2.6858  3.4327
   38MOL0     H 5105  -0.433   2.749   9.246 -0.9721 -1.5110 -0.9816
   38MOL0     H 5106  -0.422   2.456   9.325 -1.4679  0.8896  0.2154
   38MOL0     H 5107  -0.315   2.498   9.198 -0.7961 -0.7772 -0.5918
   38MOL0     H 5108  -0.524   2.411   9.120  1.2044  0.1362 -1.1492
   38MOL0     H 5109  -0.620   2.542   9.192  0.5022 -0.4957  1.1286
   38MOL0     H 5110   0.434   2.888   9.197 -1.4509 -0.6629  0.1562
   38MOL0     H 5111   0.622   2.761   9.102  0.1030 -1.5191 -0.8133
   38MOL0     H 5112   0.659   2.422   8.679 -0.9815 -4.1416 -0.6494
   38MOL0     H 5113   0.820   2.328   8.545 -2.5737  3.6004  0.5048
   38MOL0     H 5114   2.762   2.954   8.411 -0.4772  0.0451  1.7779
   38MOL0     H 5115   2.971   3.056   8.315  2.5074  2.2877 -0.1140
   38MOL0     H 5116   3.277   3.217   8.288  0.7504 -0.5988 -0.1247
   38MOL0     H 5117   3.503   3.251   8.199 -1.7819 -1.2837  1.2658
   38MOL0     H 5118   3.612   3.340   7.970 -2.2121  1.2501  2.0795
   38MOL0     H 5119   3.712   3.323   8.117 -3.3519 -0.6684  2.0876
   38MOL0     H 5120   3.757   3.523   7.868  1.3338  1.0594 -0.9595
   38MOL0     H 5121   3.840   3.380   7.889 -2.3350 -0.3875 -1.3804
   38MOL0     H 5122   3.872   3.480   8.148 -3.4508  0.0322 -1.8162
   38MOL0     H 5123   3.868   3.626   8.058  2.1800  0.6074 -0.0720
   38MOL0     H 5124   4.097   3.552   8.106  1.0926 -1.3375 -0.7189
   38MOL0     H 5125   4.057   3.408   8.013 -0.5026 -0.0252  1.7622
   38MOL0     H 5126   4.102   3.700   7.701 -1.3116 -2.9310 -2.9223
   38MOL0     H 5127   3.424   3.657   8.108 -1.4101  0.9715 -0.9968
   38MOL0     H 5128   3.206   3.757   8.134 -2.4461  1.3633 -0.0752
   38MOL0     H 5129   3.071   3.647   8.122  1.3050 -2.6484 -2.3729
   38MOL0     H 5130   3.130   3.698   8.287 -1.9104  0.7478 -1.1818
   39MOL0     O 5131   2.310   1.953   7.579  0.2213  0.0832  1.0166
   39MOL0     C 5132   2.196   1.958   7.537  0.3326  0.1445  0.1477
   39MOL0     O 5133   2.120   1.849   7.541  0.0081  0.2763  0.1947
   39MOL0     C 5134   2.013   1.839   7.461  1.0427  1.2852  0.0298
   39MOL0     C 5135   2.012   1.821   7.325  0.2976 -0.0537 -0.9679
   39MOL0     C 5136   1.886   1.805   7.253 -0.0623  0.5585 -0.1074
   39MOL0     C 5137   1.772   1.780   7.324  0.3515  0.3788 -0.3496
   39MOL0     O 5138   1.651   1.779   7.263 -0.6117 -0.5190 -0.1738
   39MOL0     C 5139   1.627   1.674   7.164 -0.7577 -0.1497 -1.3894
   39MOL0     C 5140   1.479   1.701   7.109 -0.7120  0.9830 -0.2806
   39MOL0     C 5141   1.448   1.822   7.024  0.1733  0.5471  0.6777
   39MOL0     C 5142   1.313   1.824   6.964 -0.1367  0.2271  0.5345
   39MOL0     C 5143   1.307   1.926   6.846 -0.4237  0.7359  0.3044
   39MOL0     C 5144   1.175   1.891   6.779  0.2329  0.1764  0.1402
   39MOL0     C 5145   1.127   2.016   6.713  0.1368  0.0307  0.3624
   39MOL0     C 5146   0.975   2.008   6.690  0.2911  0.1076  0.1895
   39MOL0     N 5147   0.936   2.123   6.614 -0.8207  0.3787  0.6655
   39MOL0     C 5148   0.970   2.142   6.479 -0.2208 -0.0091  0.1525
   39MOL0     C 5149   0.939   2.270   6.442 -0.0957  0.7099  0.0703
   39MOL0     C 5150   0.939   2.340   6.318  0.5758 -0.5359 -0.2382
   39MOL0     C 5151   1.078   2.390   6.259  0.6155 -0.0539  0.2837
   39MOL0     C 5152   1.062   2.472   6.124  0.1438  0.5394 -0.0977
   39MOL0     C 5153   1.012   2.375   6.012 -0.1172 -0.0427  0.3520
   39MOL0     O 5154   1.082   2.401   5.890 -0.8790  0.1457  0.6788
   39MOL0     C 5155   1.033   2.512   5.823 -1.3646 -0.5714  0.1782
   39MOL0     C 5156   1.115   2.543   5.709  0.1977 -0.8417  0.5872
   39MOL0     C 5157   1.086   2.646   5.617 -0.6698 -0.2160 -0.0352
   39MOL0     C 5158   0.974   2.735   5.640  0.1580  1.2661 -0.1841
   39MOL0     C 5159   0.954   2.864   5.559  0.5079  0.1798  0.2377
   39MOL0     O 5160   1.055   2.913   5.490  0.2135 -0.4686  0.6437
   39MOL0     C 5161   1.039   3.026   5.411  0.2363 -0.2903  0.2310
   39MOL0     C 5162   1.080   3.034   5.279  1.0302 -0.7216 -0.1038
   39MOL0     C 5163   1.058   3.157   5.201 -0.4719  0.8279  0.2215
   39MOL0     C 5164   0.990   3.263   5.249 -1.0491 -1.2695  0.2951
   39MOL0     O 5165   0.993   3.366   5.159 -0.0246 -0.0495  0.2272
   39MOL0     C 5166   0.948   3.496   5.190 -0.4986 -0.8305  0.0605
   39MOL0     C 5167   1.068   3.584   5.241  0.5734  0.4217  0.1447
   39MOL0     C 5168   1.030   3.702   5.328  0.4763  0.6028  1.0631
   39MOL0     C 5169   1.153   3.764   5.393 -0.2685  0.0270 -0.4984
   39MOL0     C 5170   1.123   3.887   5.475  0.0991  0.8715 -0.0969
   39MOL0     C 5171   1.243   3.965   5.516 -0.6732  0.2288 -0.2668
   39MOL0     C 5172   1.322   3.906   5.634 -0.3348 -0.1869  0.0907
   39MOL0     C 5173   1.240   3.909   5.764 -0.9843 -0.1539  0.1363
   39MOL0    Cl 5174   1.352   3.882   5.896  0.9404 -0.4817 -0.4024
   39MOL0     C 5175   0.940   3.258   5.380 -0.8025 -0.0606  0.5065
   39MOL0     C 5176   0.967   3.141   5.457  0.4804 -0.2770 -0.2747
   39MOL0     O 5177   0.834   2.907   5.561 -0.5213 -0.3207  0.1422
   39MOL0     C 5178   0.895   2.705   5.752 -0.3790  0.2199 -1.3747
   39MOL0     C 5179   0.928   2.597   5.839 -0.3400  0.0718 -0.6411
   39MOL0     N 5180   0.888   2.325   6.559  0.4760  0.3595  0.2590
   39MOL0     N 5181   0.890   2.242   6.661 -0.9563  0.8350  0.2705
   39MOL0     C 5182   1.772   1.780   7.465 -0.2892  0.3219 -0.0482
   39MOL0     C 5183   1.887   1.815   7.529 -0.3400 -0.2943  0.6302
   39MOL0     C 5184   2.143   2.081   7.469  0.2515 -0.4386 -0.9194
   39MOL0     C 5185   2.194   2.120   7.338  0.4251  1.0771 -0.0198
   39MOL0     C 5186   2.136   2.235   7.281  0.6678  1.1336 -0.0284
   39MOL0     C 5187   2.034   2.308   7.351  0.1047 -0.1704  0.5832
   39MOL0     O 5188   1.985   2.413   7.283 -0.9642 -0.4871  0.0888
   39MOL0     C 5189   1.918   2.519   7.358 -0.8443  0.2972  0.1440
   39MOL0     C 5190   1.767   2.505   7.384 -0.1003 -0.5626 -0.1265
   39MOL0     C 5191   1.705   2.620   7.478 -0.1061  0.4501  0.3696
   39MOL0     C 5192   1.565   2.656   7.432  0.5644 -0.5215 -0.4009
   39MOL0     C 5193   1.548   2.799   7.469 -0.0134 -0.0238  0.8532
   39MOL0     C 5194   1.522   2.915   7.500 -1.1486  0.7047  0.1931
   39MOL0     C 5195   1.996   2.274   7.477 -0.0009 -0.2403  0.8181
   39MOL0     C 5196   2.045   2.167   7.539 -0.0953 -0.6884 -0.9638
   39MOL0     C 5197   1.984   2.142   7.676 -0.2309 -0.0345 -0.6854
   39MOL0     H 5198   2.109   1.830   7.277  0.1993  1.7476 -0.8960
   39MOL0     H 5199   1.900   1.800   7.146 -0.1887 -3.7160 -0.1058
   39MOL0     H 5200   1.700   1.657   7.085 -0.6102 -2.1950 -0.8492
   39MOL0     H 5201   1.630   1.577   7.213 -3.1873  1.3252  2.0910
   39MOL0     H 5202   1.416   1.712   7.198 -0.9263  0.2390 -0.3364
   39MOL0     H 5203   1.447   1.611   7.056 -1.6057 -1.0038  3.3267
   39MOL0     H 5204   1.521   1.813   6.943 -0.0190  1.6537  0.3606
   39MOL0     H 5205   1.467   1.917   7.075 -1.5565  1.6909 -0.6698
   39MOL0     H 5206   1.307   1.724   6.921  2.2865  0.1800  0.1783
   39MOL0     H 5207   1.239   1.846   7.042 -1.1474  0.7463 -0.5369
   39MOL0     H 5208   1.324   2.030   6.876 -1.6952  0.4094  2.3626
   39MOL0     H 5209   1.390   1.902   6.779 -1.3622 -0.3671 -0.5099
   39MOL0     H 5210   1.181   1.808   6.708 -1.4055 -1.3294  1.6692
   39MOL0     H 5211   1.091   1.854   6.838 -2.0422  3.7185 -0.5837
   39MOL0     H 5212   1.177   2.023   6.616  1.6581 -0.4479  1.0808
   39MOL0     H 5213   1.149   2.105   6.773  0.2703 -0.2278  0.6976
   39MOL0     H 5214   0.951   1.909   6.650  0.6489  1.1008 -2.7171
   39MOL0     H 5215   0.925   2.012   6.788 -2.1990  0.2054 -0.9987
   39MOL0     H 5216   1.027   2.080   6.410 -1.6608 -0.0877 -1.0051
   39MOL0     H 5217   0.883   2.282   6.244 -0.5959 -0.0779  0.2603
   39MOL0     H 5218   0.879   2.429   6.342 -0.6435 -1.7170  1.3854
   39MOL0     H 5219   1.136   2.451   6.329  1.0162 -0.9442  0.7450
   39MOL0     H 5220   1.141   2.305   6.230  0.0744 -0.5335  0.4807
   39MOL0     H 5221   1.154   2.521   6.092  0.2184 -0.4797 -1.5338
   39MOL0     H 5222   0.987   2.549   6.141  0.0142  1.2743 -3.4036
   39MOL0     H 5223   0.902   2.374   6.008 -0.2311 -1.5261  2.2914
   39MOL0     H 5224   1.050   2.281   6.053  4.4886  1.2509 -0.4268
   39MOL0     H 5225   1.186   2.471   5.671  0.3104 -0.8075  0.7328
   39MOL0     H 5226   1.152   2.655   5.531  0.9964 -1.6819  1.0394
   39MOL0     H 5227   1.130   2.949   5.235  0.8774 -1.3530  0.9154
   39MOL0     H 5228   1.095   3.161   5.099 -0.8697 -0.8855 -0.0079
   39MOL0     H 5229   0.899   3.529   5.098  1.0113  1.2794 -0.0490
   39MOL0     H 5230   0.868   3.492   5.265  0.9010 -0.6485  1.6201
   39MOL0     H 5231   1.136   3.526   5.305 -0.9818 -2.4500 -0.6285
   39MOL0     H 5232   1.133   3.604   5.155  0.0215 -2.8275 -1.1905
   39MOL0     H 5233   0.979   3.781   5.271  0.4651  0.0710  0.3153
   39MOL0     H 5234   0.955   3.662   5.397  0.8477 -3.0831 -0.4598
   39MOL0     H 5235   1.230   3.788   5.319  0.6616 -3.8087 -1.0111
   39MOL0     H 5236   1.198   3.695   5.465  0.8434  1.3654  0.1471
   39MOL0     H 5237   1.070   3.866   5.569 -0.8339  3.3995  0.0007
   39MOL0     H 5238   1.052   3.944   5.415 -2.0809 -2.7284 -1.2912
   39MOL0     H 5239   1.310   3.981   5.431 -0.6474  3.3044  0.2105
   39MOL0     H 5240   1.211   4.068   5.536 -1.7959 -0.3653  1.1561
   39MOL0     H 5241   1.407   3.971   5.659 -0.6610  0.1632  0.3134
   39MOL0     H 5242   1.355   3.803   5.620  0.4474 -0.1639  1.5587
   39MOL0     H 5243   1.178   3.999   5.773 -1.2430 -0.4645  1.7977
   39MOL0     H 5244   1.170   3.828   5.786 -2.6932  1.4664  1.0062
   39MOL0     H 5245   0.895   3.343   5.429 -1.0001  0.6814 -0.9014
   39MOL0     H 5246   0.924   3.140   5.557  1.1366 -0.4799  0.0092
   39MOL0     H 5247   0.808   2.765   5.777  0.3819  0.7977  0.0471
   39MOL0     H 5248   0.855   2.570   5.915 -0.0493  1.7862  0.2900
   39MOL0     H 5249   1.677   1.765   7.514 -0.1753  1.2631  0.4811
   39MOL0     H 5250   1.876   1.812   7.637 -0.1600  0.5464  0.6792
   39MOL0     H 5251   2.275   2.071   7.285  1.3118  1.1814  1.2028
   39MOL0     H 5252   2.173   2.258   7.182  0.0681 -0.4734 -0.6450
   39MOL0     H 5253   1.932   2.609   7.298  1.6370 -0.2477 -0.2106
   39MOL0     H 5254   1.971   2.532   7.452  4.3664 -2.7890 -1.9259
   39MOL0     H 5255   1.747   2.404   7.422  2.7707 -1.8889 -1.8307
   39MOL0     H 5256   1.724   2.504   7.283  1.4397  0.5406 -0.8283
   39MOL0     H 5257   1.767   2.711   7.472  0.7196 -0.1168  0.0093
   39MOL0     H 5258   1.712   2.586   7.582 -0.0671  1.5795  0.7477
   39MOL0     H 5259   1.552   2.643   7.324 -1.2193 -1.8208 -0.0762
   39MOL0     H 5260   1.489   2.592   7.478 -2.5617  1.1575 -2.7919
   39MOL0     H 5261   1.492   3.015   7.526 -2.1622  0.5692 -0.3937
   39MOL0     H 5262   1.916   2.328   7.526 -1.1720  0.5165 -1.7599
   39MOL0     H 5263   2.053   2.083   7.737  0.7433  2.6460  0.9680
   39MOL0     H 5264   1.961   2.237   7.725 -3.0739 -1.3560  0.8074
   39MOL0     H 5265   1.890   2.087   7.662 -0.7083  0.5200  0.2379
   40MOL0     O 5266   2.385   2.176   1.227  0.2056  0.2882 -0.1480
   40MOL0     C 5267   2.316   2.085   1.272  0.2135  0.3419 -0.0645
   40MOL0     O 5268   2.365   1.954   1.295  0.3891  0.4203 -0.3247
   40MOL0     C 5269   2.503   1.932   1.275 -0.4605  0.6730 -0.2261
   40MOL0     C 5270   2.583   1.987   1.371 -0.2252 -0.1199 -0.9690
   40MOL0     C 5271   2.724   1.952   1.364  0.0618 -0.8711  1.3222
   40MOL0     C 5272   2.770   1.875   1.262 -0.5031  0.2378 -0.7191
   40MOL0     O 5273   2.902   1.839   1.260  0.5966 -0.2872 -0.0375
   40MOL0     C 5274   3.003   1.935   1.307  0.2480  0.7820  0.6879
   40MOL0     C 5275   3.146   1.877   1.308  0.7067 -0.5554  0.7702
   40MOL0     C 5276   3.147   1.768   1.411  0.1007 -0.1601 -0.5337
   40MOL0     C 5277   3.287   1.692   1.401 -0.5917 -0.0469 -0.3166
   40MOL0     C 5278   3.276   1.590   1.521  0.1202 -0.0899 -0.5134
   40MOL0     C 5279   3.405   1.508   1.544 -0.0314  0.2057  0.1270
   40MOL0     C 5280   3.522   1.591   1.593 -0.6151 -0.4454  0.3950
   40MOL0     C 5281   3.642   1.502   1.611  0.3554 -0.4509  0.3106
   40MOL0     N 5282   3.654   1.483   1.756 -0.6202 -0.4533  0.1161
   40MOL0     C 5283   3.567   1.401   1.822 -0.4959  0.0776  0.1563
   40MOL0     C 5284   3.607   1.422   1.949  0.6051 -0.1445  0.5497
   40MOL0     C 5285   3.545   1.381   2.080 -0.1272 -0.5003 -0.5519
   40MOL0     C 5286   3.399   1.415   2.086 -0.0036 -1.0731  0.2594
   40MOL0     C 5287   3.376   1.566   2.095  0.1311  0.0720 -0.3386
   40MOL0     C 5288   3.458   1.641   2.196  0.1145 -0.2495 -0.1888
   40MOL0     O 5289   3.388   1.761   2.240  0.1616 -0.0802  0.1458
   40MOL0     C 5290   3.282   1.753   2.320 -0.2211  1.4767  1.3174
   40MOL0     C 5291   3.241   1.637   2.387 -0.4585 -0.9217 -0.8279
   40MOL0     C 5292   3.129   1.647   2.468 -0.1785 -0.5402  0.3118
   40MOL0     C 5293   3.047   1.758   2.483  0.1116  0.7153  0.4064
   40MOL0     C 5294   2.913   1.760   2.545 -0.3432  0.9391 -0.2826
   40MOL0     O 5295   2.829   1.857   2.507  0.1321 -0.7622  0.6739
   40MOL0     C 5296   2.693   1.864   2.552  0.4180  0.6458  0.1631
   40MOL0     C 5297   2.628   1.989   2.565  0.3089  0.5076  1.0053
   40MOL0     C 5298   2.487   2.000   2.596 -0.7227 -0.1961  0.5262
   40MOL0     C 5299   2.415   1.885   2.624  0.4269 -0.3792  0.4684
   40MOL0     O 5300   2.271   1.902   2.628 -0.3083  0.1472 -1.0089
   40MOL0     C 5301   2.199   1.799   2.700 -0.2873  0.4267 -0.9053
   40MOL0     C 5302   2.063   1.852   2.725  0.3096  0.4864  0.1567
   40MOL0     C 5303   2.007   1.928   2.597  0.3290 -0.0200  0.9202
   40MOL0     C 5304   1.925   1.829   2.497 -0.5967 -0.4625 -0.2874
   40MOL0     C 5305   1.884   1.904   2.369 -0.1412 -0.5765 -0.5351
   40MOL0     C 5306   1.750   1.864   2.328  0.8994 -0.0621 -0.9243
   40MOL0     C 5307   1.714   1.913   2.192 -0.1439 -0.0496 -0.5345
   40MOL0     C 5308   1.567   1.863   2.180 -0.2877  0.1781  0.0460
   40MOL0    Cl 5309   1.464   1.989   2.251  0.1006  0.3919  0.2777
   40MOL0     C 5310   2.474   1.759   2.597  0.5975 -0.1134 -0.2071
   40MOL0     C 5311   2.609   1.745   2.568 -0.5393 -0.6339 -0.0602
   40MOL0     O 5312   2.895   1.679   2.633 -1.1534  0.2800 -0.6157
   40MOL0     C 5313   3.090   1.864   2.402  1.2617 -0.8266  0.0418
   40MOL0     C 5314   3.207   1.865   2.327  0.6220 -0.3354  1.6178
   40MOL0     N 5315   3.699   1.527   1.956 -0.7147 -0.1565 -1.1675
   40MOL0     N 5316   3.733   1.551   1.838 -0.6196  0.3346  0.0542
   40MOL0     C 5317   2.684   1.821   1.168  0.0667 -0.0286 -0.7527
   40MOL0     C 5318   2.549   1.862   1.168 -0.0805 -0.5415  1.2295
   40MOL0     C 5319   2.175   2.129   1.319 -0.2147 -0.5468  0.0581
   40MOL0     C 5320   2.109   2.230   1.242  0.2482 -0.6764  0.4376
   40MOL0     C 5321   1.989   2.294   1.292 -0.0764  0.1405 -1.1188
   40MOL0     C 5322   1.926   2.236   1.402 -0.6501  0.4110  0.9179
   40MOL0     O 5323   1.809   2.299   1.429  0.7429  0.6440 -0.0156
   40MOL0     C 5324   1.700   2.253   1.515  0.6422  0.3315 -0.0778
   40MOL0     C 5325   1.587   2.206   1.427  0.2797 -0.1517 -0.2690
   40MOL0     C 5326   1.532   2.315   1.342  1.2069 -1.1542 -0.6959
   40MOL0     C 5327   1.458   2.420   1.427 -0.7317  1.4220  0.1515
   40MOL0     C 5328   1.456   2.550   1.357 -0.5538 -0.1772  0.1941
   40MOL0     C 5329   1.443   2.658   1.301 -0.2695 -0.5634 -0.4471
   40MOL0     C 5330   1.986   2.130   1.464  0.5274 -0.4262 -0.3700
   40MOL0     C 5331   2.113   2.085   1.434  0.1618 -0.6084  0.0166
   40MOL0     C 5332   2.175   1.990   1.524 -0.2136 -0.0859 -0.3812
   40MOL0     H 5333   2.531   2.032   1.456  0.6842  1.6755 -1.3212
   40MOL0     H 5334   2.774   1.985   1.455  1.9450  2.5171 -0.7127
   40MOL0     H 5335   2.983   2.024   1.246 -1.0662  1.3887  1.9540
   40MOL0     H 5336   2.990   1.976   1.407 -0.0601  1.2939  0.4388
   40MOL0     H 5337   3.208   1.960   1.341  1.4220 -0.1178 -1.4976
   40MOL0     H 5338   3.175   1.845   1.207  3.7030  0.3999  1.2412
   40MOL0     H 5339   3.070   1.696   1.385  1.1079 -1.0721 -1.0703
   40MOL0     H 5340   3.131   1.801   1.514  2.9663 -2.3889  0.7700
   40MOL0     H 5341   3.300   1.644   1.303 -1.4059  1.9976 -1.4894
   40MOL0     H 5342   3.366   1.765   1.423 -0.8530  1.1749 -2.9660
   40MOL0     H 5343   3.244   1.647   1.609  1.9024  1.4472 -0.7837
   40MOL0     H 5344   3.205   1.509   1.507  1.9399 -1.9840  0.6722
   40MOL0     H 5345   3.378   1.436   1.622  0.2354  1.0074  0.9774
   40MOL0     H 5346   3.430   1.452   1.453 -0.9290 -2.0868  1.2153
   40MOL0     H 5347   3.502   1.646   1.686 -0.0499 -1.1343  0.9366
   40MOL0     H 5348   3.541   1.666   1.516 -0.9914 -2.5913 -1.9106
   40MOL0     H 5349   3.627   1.400   1.575  0.2476 -0.2933 -0.1082
   40MOL0     H 5350   3.730   1.537   1.556 -0.3350 -3.0225 -2.7379
   40MOL0     H 5351   3.489   1.342   1.776 -0.7379  1.3010 -1.0743
   40MOL0     H 5352   3.565   1.273   2.084  2.1769 -0.1447 -1.2240
   40MOL0     H 5353   3.581   1.436   2.168 -3.1401  0.7621  0.0274
   40MOL0     H 5354   3.352   1.367   2.000  2.0888  0.6150 -1.9559
   40MOL0     H 5355   3.351   1.374   2.176 -2.7588  0.8199 -0.2492
   40MOL0     H 5356   3.271   1.594   2.109 -0.3607 -1.4104 -0.8767
   40MOL0     H 5357   3.402   1.602   1.995 -1.3841 -2.0811 -1.5849
   40MOL0     H 5358   3.554   1.668   2.151  1.5757 -2.2240  1.5102
   40MOL0     H 5359   3.488   1.580   2.282  2.2281 -0.3597 -0.9276
   40MOL0     H 5360   3.300   1.546   2.390  3.4031  1.3823  1.7180
   40MOL0     H 5361   3.105   1.554   2.520 -0.4841 -0.7956 -0.2809
   40MOL0     H 5362   2.681   2.083   2.549 -0.5611  0.7634 -0.5850
   40MOL0     H 5363   2.451   2.102   2.600 -2.1653 -0.5934 -0.8840
   40MOL0     H 5364   2.207   1.713   2.633 -1.7273  2.7243 -4.3616
   40MOL0     H 5365   2.265   1.767   2.781  2.2491  0.7123 -2.7302
   40MOL0     H 5366   2.001   1.765   2.746  0.3176  0.2128 -0.8704
   40MOL0     H 5367   2.064   1.911   2.817  1.0996 -1.8480  1.7490
   40MOL0     H 5368   1.938   2.004   2.635  0.8545 -0.1813  2.2281
   40MOL0     H 5369   2.076   1.983   2.532 -1.5105  0.4121 -0.7521
   40MOL0     H 5370   1.835   1.796   2.548 -1.4403  1.8644 -0.1430
   40MOL0     H 5371   2.003   1.756   2.474  2.2637  2.4970 -0.9009
   40MOL0     H 5372   1.953   1.886   2.286 -1.9896  0.1307 -2.3052
   40MOL0     H 5373   1.874   2.009   2.396  1.6132 -1.3463  3.9914
   40MOL0     H 5374   1.755   1.755   2.335  2.0468  0.0158 -0.2337
   40MOL0     H 5375   1.678   1.894   2.404  2.1354  2.8895 -0.7689
   40MOL0     H 5376   1.781   1.862   2.123  2.2977  1.5561  0.5315
   40MOL0     H 5377   1.717   2.022   2.183 -2.8786  0.0369 -1.2309
   40MOL0     H 5378   1.536   1.844   2.076  2.2113  3.5578 -1.4723
   40MOL0     H 5379   1.556   1.774   2.243 -0.4821  2.2814  3.1818
   40MOL0     H 5380   2.416   1.667   2.597 -1.2625  1.0017 -1.4467
   40MOL0     H 5381   2.656   1.650   2.547  0.2875 -0.3948  0.6103
   40MOL0     H 5382   3.041   1.960   2.392  1.7296 -0.5377  0.4884
   40MOL0     H 5383   3.232   1.945   2.258 -1.4073 -4.0428 -4.1960
   40MOL0     H 5384   2.723   1.750   1.095  1.5889 -1.2391  1.1301
   40MOL0     H 5385   2.490   1.841   1.079  0.1224  0.8036  0.7546
   40MOL0     H 5386   2.158   2.284   1.162  0.9809  2.6549  2.8886
   40MOL0     H 5387   1.945   2.379   1.240 -1.6145  1.5315  2.1949
   40MOL0     H 5388   1.671   2.338   1.577  0.7282 -0.4474  1.0510
   40MOL0     H 5389   1.733   2.172   1.581 -1.6699 -1.2350 -0.6988
   40MOL0     H 5390   1.512   2.162   1.493  1.5029 -3.4870 -0.8970
   40MOL0     H 5391   1.633   2.133   1.360  0.9216 -0.8657  0.9000
   40MOL0     H 5392   1.460   2.277   1.269  1.6519  0.1764 -1.8636
   40MOL0     H 5393   1.614   2.359   1.284  1.4211  1.6563  1.5365
   40MOL0     H 5394   1.351   2.395   1.427 -0.1104 -1.5319  0.8818
   40MOL0     H 5395   1.503   2.428   1.526 -0.4807  1.8841  0.0038
   40MOL0     H 5396   1.451   2.748   1.244  0.7821 -0.2720  0.1422
   40MOL0     H 5397   1.931   2.097   1.552  1.0314 -0.0313  0.0998
   40MOL0     H 5398   2.189   1.901   1.463 -0.9459  0.3539 -1.2079
   40MOL0     H 5399   2.269   2.023   1.569  0.6922 -1.2244 -1.3732
   40MOL0     H 5400   2.105   1.971   1.606  1.2139 -0.7041  0.7347
   41MOL0     O 5401  10.986   2.602   2.849 -0.8704  0.7202 -0.5472
   41MOL0     C 5402  11.028   2.525   2.938 -1.0624 -0.1924 -0.3606
   41MOL0     O 5403  10.959   2.468   3.032 -0.3935 -0.5514  0.0335
   41MOL0     C 5404  10.829   2.507   3.036  0.7926 -0.2892  0.5891
   41MOL0     C 5405  10.721   2.448   2.969  0.8296 -0.3113  0.0761
   41MOL0     C 5406  10.590   2.503   2.978  0.4449 -0.0508 -0.1820
   41MOL0     C 5407  10.562   2.614   3.055  0.5991 -0.2165 -0.7202
   41MOL0     O 5408  10.446   2.689   3.041  0.1700  0.5839 -0.1336
   41MOL0     C 5409  10.442   2.824   3.092  0.6900  0.2230  0.0289
   41MOL0     C 5410  10.315   2.895   3.039  0.1222 -0.0475 -1.0302
   41MOL0     C 5411  10.278   2.864   2.889 -0.0420  0.0194  0.1296
   41MOL0     C 5412  10.184   2.976   2.828  0.4808  0.2236 -0.1231
   41MOL0     C 5413  10.158   2.956   2.678  1.3663  0.7757  0.0123
   41MOL0     C 5414  10.057   3.053   2.623 -0.5281  0.6410 -0.3074
   41MOL0     C 5415  10.032   3.031   2.472  1.0275 -1.0425  0.4138
   41MOL0     C 5416  10.081   3.148   2.381 -1.4879 -0.1786  0.9493
   41MOL0     N 5417   9.988   3.255   2.351 -0.1571  0.0585  0.0371
   41MOL0     C 5418   9.909   3.264   2.234 -0.2399 -0.5718 -0.0243
   41MOL0     C 5419   9.830   3.383   2.251 -0.1252  0.3397 -0.5935
   41MOL0     C 5420   9.714   3.428   2.169 -0.6004  0.8540  0.3850
   41MOL0     C 5421   9.724   3.427   2.025 -0.5141  0.0302  1.3249
   41MOL0     C 5422   9.599   3.480   1.946  0.3277 -0.2630 -0.0364
   41MOL0     C 5423   9.611   3.430   1.804  0.7186  0.2319  0.1841
   41MOL0     O 5424   9.733   3.489   1.755  0.9567 -0.5717 -1.0004
   41MOL0     C 5425   9.773   3.456   1.635 -0.0050 -0.3740 -0.1898
   41MOL0     C 5426   9.705   3.369   1.551  0.3909 -0.3978  0.2504
   41MOL0     C 5427   9.761   3.323   1.432 -1.1890 -0.3295 -0.6986
   41MOL0     C 5428   9.883   3.371   1.389  0.2790 -0.1577 -0.1073
   41MOL0     C 5429   9.933   3.313   1.260 -0.3203 -0.4275 -0.0777
   41MOL0     O 5430  10.060   3.365   1.221 -0.4365 -0.4847 -0.7208
   41MOL0     C 5431  10.129   3.292   1.132  1.5778  0.6108 -0.0053
   41MOL0     C 5432  10.148   3.353   1.006 -0.0216 -0.1534 -1.2458
   41MOL0     C 5433  10.216   3.285   0.909 -0.2209  0.1872  0.6513
   41MOL0     C 5434  10.263   3.151   0.945 -0.7092 -0.6474 -0.0659
   41MOL0     O 5435  10.333   3.086   0.844 -0.9833  0.0830 -0.3964
   41MOL0     C 5436  10.276   2.970   0.793 -0.9589  0.8222 -0.2628
   41MOL0     C 5437  10.208   2.985   0.652  0.0054 -1.0989 -1.0849
   41MOL0     C 5438  10.289   3.079   0.557  0.2434 -0.5320  0.1220
   41MOL0     C 5439  10.281   3.016   0.407 -1.3862  0.2085 -0.1935
   41MOL0     C 5440  10.372   3.092   0.306  0.2232 -0.5010  0.2283
   41MOL0     C 5441  10.518   3.071   0.336 -0.2489  0.3455 -0.5115
   41MOL0     C 5442  10.603   3.113   0.212  0.1549 -0.2134 -0.1341
   41MOL0     C 5443  10.627   3.264   0.211  0.1842  0.3538  1.0370
   41MOL0    Cl 5444  10.717   3.316   0.067 -0.4515 -0.2451 -0.0341
   41MOL0     C 5445  10.260   3.095   1.074  0.6473 -0.7936  0.0345
   41MOL0     C 5446  10.184   3.171   1.171  0.2341 -0.0838  0.6679
   41MOL0     O 5447   9.872   3.221   1.205 -0.2829  0.3023 -0.9495
   41MOL0     C 5448   9.951   3.473   1.463 -0.2520 -0.9269  0.1822
   41MOL0     C 5449   9.889   3.512   1.585 -0.1943  0.4211 -1.1175
   41MOL0     N 5450   9.881   3.444   2.367 -0.1633  0.5132  1.0064
   41MOL0     N 5451   9.983   3.377   2.413 -0.8859 -0.8741  0.2364
   41MOL0     C 5452  10.673   2.666   3.136  0.1875  0.1656 -0.5263
   41MOL0     C 5453  10.804   2.604   3.124  0.6705 -0.2273 -0.4059
   41MOL0     C 5454  11.169   2.490   2.930  0.0906  0.6354  0.5603
   41MOL0     C 5455  11.207   2.357   2.966 -0.4603 -0.6180  0.4311
   41MOL0     C 5456  11.331   2.301   2.943  0.4844  0.4122 -0.2265
   41MOL0     C 5457  11.430   2.390   2.882 -0.5573 -0.0423 -0.5528
   41MOL0     O 5458  11.562   2.349   2.853  0.0460 -0.3802  0.8740
   41MOL0     C 5459  11.616   2.229   2.917  0.0846 -0.9463 -0.1337
   41MOL0     C 5460  11.765   2.252   2.946  0.2769  0.5838  0.7929
   41MOL0     C 5461  11.787   2.382   3.023  0.2824  0.4262  0.5436
   41MOL0     C 5462  11.903   2.371   3.130  0.4568 -0.1839  0.3132
   41MOL0     C 5463  11.929   2.492   3.207 -0.8057 -0.0580  0.2202
   41MOL0     C 5464  11.951   2.591   3.279  0.3325  1.2621 -0.4923
   41MOL0     C 5465  11.398   2.524   2.861 -0.6619  0.9446 -0.7302
   41MOL0     C 5466  11.273   2.575   2.888 -0.8633 -1.3154  0.6825
   41MOL0     C 5467  11.245   2.713   2.835  0.6866  0.2404 -0.1328
   41MOL0     H 5468  10.746   2.359   2.912  3.2553 -1.5111  2.7191
   41MOL0     H 5469  10.517   2.457   2.912 -0.1985  1.4629 -0.5835
   41MOL0     H 5470  10.443   2.816   3.202 -3.4565  0.3166  0.2008
   41MOL0     H 5471  10.528   2.879   3.051 -1.0822  0.5928 -3.5279
   41MOL0     H 5472  10.325   3.002   3.058 -1.3328  0.6980 -3.8776
   41MOL0     H 5473  10.231   2.862   3.100 -1.5124  4.1179 -0.7100
   41MOL0     H 5474  10.237   2.765   2.869 -0.1974 -0.5135  2.7477
   41MOL0     H 5475  10.372   2.882   2.836  0.6924 -3.1182  0.1687
   41MOL0     H 5476  10.085   2.964   2.873  0.2138 -3.4628 -1.3515
   41MOL0     H 5477  10.221   3.076   2.850 -1.3200  0.8332  0.3233
   41MOL0     H 5478  10.249   2.964   2.618  0.8515  1.4490 -0.6987
   41MOL0     H 5479  10.125   2.852   2.668  0.3633  0.6240  3.4201
   41MOL0     H 5480   9.962   3.027   2.671 -0.8593  0.5946 -0.9696
   41MOL0     H 5481  10.088   3.157   2.631  0.3871  0.3482  0.0094
   41MOL0     H 5482   9.922   3.028   2.468  1.0285 -3.3484 -2.8511
   41MOL0     H 5483  10.065   2.935   2.431 -1.1874 -1.5217 -0.4106
   41MOL0     H 5484  10.183   3.179   2.407 -0.1718 -1.8158 -1.7848
   41MOL0     H 5485  10.109   3.102   2.286  3.9202  0.0316  2.1175
   41MOL0     H 5486   9.893   3.188   2.158 -2.4286  0.1438 -0.3609
   41MOL0     H 5487   9.637   3.361   2.207  0.0453  0.9455  1.9412
   41MOL0     H 5488   9.684   3.525   2.209  0.7670  0.7664  1.7623
   41MOL0     H 5489   9.811   3.491   2.006  1.2749 -2.8273 -0.7920
   41MOL0     H 5490   9.742   3.324   1.995 -1.7662  0.2090 -0.1216
   41MOL0     H 5491   9.615   3.588   1.952  3.0961 -0.5551 -0.9463
   41MOL0     H 5492   9.502   3.446   1.983 -0.5775  1.7119 -0.4677
   41MOL0     H 5493   9.524   3.465   1.747  1.7841  1.4163 -0.7790
   41MOL0     H 5494   9.633   3.323   1.798  1.8105  0.3972  0.9323
   41MOL0     H 5495   9.609   3.334   1.587  0.9198 -1.0365  1.0742
   41MOL0     H 5496   9.701   3.247   1.383  3.3524 -3.0713 -2.7028
   41MOL0     H 5497  10.122   3.458   1.003  3.8103  0.9791 -0.5323
   41MOL0     H 5498  10.237   3.336   0.816 -0.3444 -0.1783  0.4200
   41MOL0     H 5499  10.371   2.915   0.790 -1.7716 -1.1672  3.4551
   41MOL0     H 5500  10.206   2.918   0.858 -0.9869  0.4203 -0.6073
   41MOL0     H 5501  10.205   2.884   0.610 -0.0880 -1.0481 -1.2009
   41MOL0     H 5502  10.107   3.025   0.667  0.4180 -0.6828  0.8282
   41MOL0     H 5503  10.236   3.174   0.559 -1.4437 -1.0541 -5.1759
   41MOL0     H 5504  10.394   3.079   0.585 -0.7162 -2.2787  4.7084
   41MOL0     H 5505  10.181   3.023   0.364 -1.4832  1.9632  0.2446
   41MOL0     H 5506  10.314   2.912   0.400 -0.6855  0.3303  1.0318
   41MOL0     H 5507  10.335   3.194   0.289  1.3874 -0.2967 -1.2239
   41MOL0     H 5508  10.360   3.050   0.206  1.3269 -1.1918  0.3777
   41MOL0     H 5509  10.548   3.120   0.429 -0.6083 -2.6998  1.3641
   41MOL0     H 5510  10.546   2.966   0.351 -0.4133 -0.3354 -4.0792
   41MOL0     H 5511  10.559   3.084   0.116 -1.4846  0.9771  0.2119
   41MOL0     H 5512  10.702   3.067   0.220  1.2244  1.8800 -0.5251
   41MOL0     H 5513  10.527   3.309   0.213 -2.4454 -4.3441 -2.6328
   41MOL0     H 5514  10.681   3.297   0.300  0.8032  1.7713  0.1733
   41MOL0     H 5515  10.296   2.996   1.099  3.0010 -0.0828 -0.2684
   41MOL0     H 5516  10.164   3.137   1.273  2.5124  2.2280  1.9840
   41MOL0     H 5517  10.037   3.524   1.423  0.0916 -1.9141 -0.3738
   41MOL0     H 5518   9.932   3.590   1.646 -1.2269 -1.8040  2.8483
   41MOL0     H 5519  10.653   2.751   3.200  0.9305  0.6650 -0.9348
   41MOL0     H 5520  10.889   2.638   3.184 -0.6206  1.6603  0.4517
   41MOL0     H 5521  11.132   2.291   3.008 -1.1453  0.7787  1.4682
   41MOL0     H 5522  11.346   2.199   2.976 -1.7657  0.4351  1.0395
   41MOL0     H 5523  11.611   2.139   2.855 -2.0277 -2.1200  1.5989
   41MOL0     H 5524  11.568   2.210   3.013  1.6410 -2.2522  0.4465
   41MOL0     H 5525  11.825   2.250   2.854  0.5541 -4.6831  0.8165
   41MOL0     H 5526  11.806   2.166   2.999  2.7983  1.1845 -0.0386
   41MOL0     H 5527  11.693   2.407   3.073 -0.5022 -2.8953  0.9752
   41MOL0     H 5528  11.814   2.465   2.957  1.5197  1.2076  1.9463
   41MOL0     H 5529  11.887   2.284   3.194 -0.2713 -1.7313 -1.8406
   41MOL0     H 5530  11.997   2.353   3.078 -0.9093 -1.4637 -1.8392
   41MOL0     H 5531  11.979   2.671   3.345  0.0101 -1.3810  3.1624
   41MOL0     H 5532  11.483   2.585   2.830  0.6996 -0.1694  0.6475
   41MOL0     H 5533  11.214   2.706   2.731 -3.2278  0.7431  0.8438
   41MOL0     H 5534  11.161   2.764   2.882 -0.2108  1.2990 -2.7055
   41MOL0     H 5535  11.328   2.785   2.842 -0.0026  0.9973  0.3930
   42MOL0     O 5536   5.365   0.502   4.351  0.5948 -1.2387  0.0323
   42MOL0     C 5537   5.287   0.593   4.347 -0.2405 -0.1172 -0.2669
   42MOL0     O 5538   5.265   0.675   4.234  0.1400 -0.4108 -0.3400
   42MOL0     C 5539   5.329   0.648   4.122  0.2955 -0.3619  0.4494
   42MOL0     C 5540   5.287   0.551   4.030 -0.0212 -0.2966  0.2345
   42MOL0     C 5541   5.354   0.518   3.912 -0.2937 -0.3702 -0.5340
   42MOL0     C 5542   5.455   0.602   3.870 -1.1064 -0.4081 -0.6954
   42MOL0     O 5543   5.536   0.567   3.756  0.0331 -0.0099 -0.4770
   42MOL0     C 5544   5.492   0.450   3.680 -0.3577 -0.4327  0.0559
   42MOL0     C 5545   5.578   0.426   3.554 -0.4027 -0.3037 -0.8753
   42MOL0     C 5546   5.540   0.300   3.491 -0.0810  0.4104  0.2372
   42MOL0     C 5547   5.427   0.303   3.391 -0.3061  0.2109 -0.2928
   42MOL0     C 5548   5.379   0.166   3.357 -0.0238 -0.0292  0.3701
   42MOL0     C 5549   5.262   0.186   3.270  0.5845 -0.1946 -0.3918
   42MOL0     C 5550   5.199   0.050   3.230  0.1846  0.1559 -0.5725
   42MOL0     C 5551   5.290  -0.048   3.149  0.1791  0.4080 -0.1545
   42MOL0     N 5552   5.217  -0.161   3.092 -0.3741 -0.3195 -0.0279
   42MOL0     C 5553   5.110  -0.228   3.157  0.4314  0.2041 -0.5194
   42MOL0     C 5554   5.071  -0.306   3.060  0.1783  1.5668  0.1987
   42MOL0     C 5555   4.947  -0.395   3.076  0.4881  0.8128 -0.6761
   42MOL0     C 5556   4.869  -0.402   2.941  0.3519  0.7350  0.8034
   42MOL0     C 5557   4.928  -0.513   2.858  0.1768 -0.3220 -0.4656
   42MOL0     C 5558   4.847  -0.648   2.851  0.1464  0.5767 -0.1787
   42MOL0     O 5559   4.819  -0.690   2.987  0.1583 -0.0747  0.7837
   42MOL0     C 5560   4.744  -0.805   3.016  0.1791 -0.9393  0.0842
   42MOL0     C 5561   4.754  -0.851   3.141 -0.2977  0.8197 -0.9249
   42MOL0     C 5562   4.691  -0.961   3.182 -0.9981  0.8113  0.5141
   42MOL0     C 5563   4.611  -1.035   3.099 -0.2344 -0.5515 -0.2506
   42MOL0     C 5564   4.550  -1.160   3.153 -1.1515  0.0846 -0.2580
   42MOL0     O 5565   4.580  -1.197   3.278  0.2623  0.0425  0.0119
   42MOL0     C 5566   4.520  -1.285   3.370  0.4113  0.1727  1.3078
   42MOL0     C 5567   4.545  -1.271   3.500  0.1680 -0.4297  0.7908
   42MOL0     C 5568   4.481  -1.358   3.599  0.1845 -1.1127  0.3714
   42MOL0     C 5569   4.397  -1.460   3.558  0.1020 -0.8303 -0.6132
   42MOL0     O 5570   4.349  -1.537   3.652 -0.2278 -0.0077  0.3332
   42MOL0     C 5571   4.246  -1.636   3.629 -0.2228  0.2379  1.0697
   42MOL0     C 5572   4.221  -1.711   3.758  0.2173  0.4798  0.1489
   42MOL0     C 5573   4.362  -1.764   3.812  0.5177 -0.2017 -0.1435
   42MOL0     C 5574   4.356  -1.850   3.941  0.1432  0.4682  0.2158
   42MOL0     C 5575   4.487  -1.904   3.977  0.0227 -0.4935  0.2147
   42MOL0     C 5576   4.605  -1.811   4.000 -0.1497  0.1510 -0.4853
   42MOL0     C 5577   4.716  -1.841   4.109  0.2274  0.3046 -0.2359
   42MOL0     C 5578   4.821  -1.732   4.127  0.2924  0.4076 -0.4600
   42MOL0    Cl 5579   4.764  -1.568   4.190 -0.0187 -0.0381 -0.1016
   42MOL0     C 5580   4.368  -1.469   3.420 -0.0307 -0.6429  0.1472
   42MOL0     C 5581   4.425  -1.378   3.334  0.2839 -0.2328  0.2535
   42MOL0     O 5582   4.477  -1.213   3.078 -0.3490 -0.0161 -0.4910
   42MOL0     C 5583   4.578  -0.976   2.974  0.5586 -0.2575 -0.1549
   42MOL0     C 5584   4.653  -0.871   2.921  0.5124  0.2282 -0.3526
   42MOL0     N 5585   5.155  -0.300   2.946  0.5603 -0.8576 -0.2553
   42MOL0     N 5586   5.254  -0.218   2.968  0.1264 -0.4341 -0.5224
   42MOL0     C 5587   5.504   0.708   3.954 -0.3556  0.2091  0.3078
   42MOL0     C 5588   5.438   0.731   4.074  0.3315  0.7102 -0.9264
   42MOL0     C 5589   5.237   0.632   4.482 -0.0474  0.3346 -0.1834
   42MOL0     C 5590   5.256   0.543   4.586  0.3262  0.7184 -0.1777
   42MOL0     C 5591   5.216   0.559   4.714 -0.4858  0.3015  0.3865
   42MOL0     C 5592   5.159   0.677   4.750 -0.5702  0.0477  0.1176
   42MOL0     O 5593   5.135   0.696   4.882  0.2579  0.2337 -0.2745
   42MOL0     C 5594   5.016   0.753   4.929  0.1147  0.0649 -0.2770
   42MOL0     C 5595   5.007   0.732   5.081 -0.2900  0.0365 -0.2943
   42MOL0     C 5596   4.977   0.590   5.125 -1.0558  0.7635  0.1330
   42MOL0     C 5597   4.969   0.587   5.274 -0.6366  0.5885 -1.1459
   42MOL0     C 5598   5.081   0.650   5.350 -0.2374 -0.1453  0.2470
   42MOL0     C 5599   5.168   0.720   5.391 -0.3084 -0.7507  0.6210
   42MOL0     C 5600   5.134   0.779   4.651 -0.4688 -0.5715  0.7518
   42MOL0     C 5601   5.170   0.756   4.515 -0.4363 -0.4075 -0.5414
   42MOL0     C 5602   5.122   0.851   4.414 -0.6460 -0.1876 -0.7082
   42MOL0     H 5603   5.189   0.504   4.034 -0.4139  0.1783 -2.1858
   42MOL0     H 5604   5.323   0.433   3.852 -1.7315  0.0771 -0.4547
   42MOL0     H 5605   5.505   0.365   3.748 -0.1148  0.0303  0.5988
   42MOL0     H 5606   5.389   0.461   3.645  0.8882  1.8073 -3.4358
   42MOL0     H 5607   5.676   0.428   3.602  0.0513 -1.8548 -1.7082
   42MOL0     H 5608   5.585   0.506   3.479 -1.8735 -0.2562 -0.9954
   42MOL0     H 5609   5.509   0.241   3.577  1.8915  0.1115  0.7923
   42MOL0     H 5610   5.631   0.258   3.446 -0.4127 -0.0845  0.0211
   42MOL0     H 5611   5.349   0.362   3.440  1.7198  3.4518 -0.6821
   42MOL0     H 5612   5.459   0.353   3.299 -1.9398 -0.0365 -1.0393
   42MOL0     H 5613   5.452   0.092   3.323 -1.4430 -1.2200 -0.2203
   42MOL0     H 5614   5.346   0.106   3.442 -0.9203 -1.1994 -0.7727
   42MOL0     H 5615   5.189   0.245   3.327 -2.1626 -3.2859 -0.4212
   42MOL0     H 5616   5.294   0.235   3.177  3.7619 -4.5547 -1.9129
   42MOL0     H 5617   5.107   0.070   3.174  0.3286 -3.0191 -2.1696
   42MOL0     H 5618   5.166   0.003   3.323  0.2160 -0.8809 -1.0712
   42MOL0     H 5619   5.352   0.007   3.078 -1.6678  2.0438 -0.5953
   42MOL0     H 5620   5.359  -0.100   3.215  0.6178 -0.6474 -1.4195
   42MOL0     H 5621   5.060  -0.214   3.252 -2.1660 -1.2956 -1.5732
   42MOL0     H 5622   4.968  -0.493   3.122  1.6727  1.6656  0.7146
   42MOL0     H 5623   4.876  -0.345   3.143 -0.9897  1.7480 -2.8149
   42MOL0     H 5624   4.766  -0.434   2.963  0.8611 -1.3774  0.3372
   42MOL0     H 5625   4.878  -0.308   2.887  4.5205  0.0989  0.0713
   42MOL0     H 5626   5.024  -0.529   2.908 -1.2903  1.6650  3.3850
   42MOL0     H 5627   4.947  -0.466   2.761 -0.9621  2.3284  0.4792
   42MOL0     H 5628   4.900  -0.725   2.795  0.3724  2.0462 -2.0738
   42MOL0     H 5629   4.751  -0.629   2.803 -0.6934  0.5368  1.4143
   42MOL0     H 5630   4.821  -0.786   3.198 -0.8215 -0.3754  1.1174
   42MOL0     H 5631   4.715  -0.998   3.281 -2.3912  4.5774  2.4681
   42MOL0     H 5632   4.591  -1.180   3.538 -0.0201 -0.7271  1.7592
   42MOL0     H 5633   4.494  -1.347   3.706  1.2607  0.3542  0.1150
   42MOL0     H 5634   4.149  -1.598   3.596 -0.2011 -0.9470 -0.4262
   42MOL0     H 5635   4.272  -1.714   3.558  1.6615  1.9321 -0.2390
   42MOL0     H 5636   4.186  -1.653   3.844  3.9745 -1.2422  3.1533
   42MOL0     H 5637   4.154  -1.793   3.729  1.9082 -0.8502 -0.1366
   42MOL0     H 5638   4.388  -1.821   3.722  2.6523  2.2005 -1.1781
   42MOL0     H 5639   4.418  -1.672   3.828 -2.1021  1.9021 -2.0611
   42MOL0     H 5640   4.296  -1.941   3.929  1.1563 -0.2301  0.3566
   42MOL0     H 5641   4.313  -1.791   4.022 -1.4557  1.6350 -1.3967
   42MOL0     H 5642   4.506  -1.984   3.905 -0.7366  0.9837 -1.7250
   42MOL0     H 5643   4.458  -1.952   4.071 -2.6671  1.0180  0.2602
   42MOL0     H 5644   4.663  -1.806   3.907  1.2911  0.6750  0.4108
   42MOL0     H 5645   4.562  -1.712   4.020 -0.9659 -0.4928  1.0910
   42MOL0     H 5646   4.757  -1.937   4.076  0.8082  0.4505  0.0299
   42MOL0     H 5647   4.669  -1.866   4.205  0.4809 -1.9148 -0.6290
   42MOL0     H 5648   4.881  -1.769   4.211 -1.9673 -1.7370  0.3172
   42MOL0     H 5649   4.872  -1.715   4.032 -1.7252  2.5081 -1.2551
   42MOL0     H 5650   4.293  -1.535   3.376 -1.2397 -0.0906  1.2933
   42MOL0     H 5651   4.405  -1.398   3.229  0.3258 -1.5734  0.4929
   42MOL0     H 5652   4.504  -1.022   2.909 -1.8928  2.6142  0.3680
   42MOL0     H 5653   4.627  -0.805   2.838  1.5250  2.2239  0.8489
   42MOL0     H 5654   5.583   0.772   3.917  1.1943 -0.4026  2.3852
   42MOL0     H 5655   5.454   0.803   4.154  2.7185  1.9124 -2.3832
   42MOL0     H 5656   5.304   0.446   4.579 -2.9139 -0.8926 -4.0358
   42MOL0     H 5657   5.218   0.471   4.778 -0.5905 -0.6628 -0.9025
   42MOL0     H 5658   4.937   0.696   4.878  1.7984 -1.7526 -1.0024
   42MOL0     H 5659   5.015   0.858   4.901  0.3810 -0.3082 -1.7917
   42MOL0     H 5660   4.931   0.793   5.129 -0.4255 -1.7257  1.8347
   42MOL0     H 5661   5.101   0.773   5.119  0.8833 -2.3549 -0.4063
   42MOL0     H 5662   5.055   0.519   5.095 -2.8779 -1.3003  0.0116
   42MOL0     H 5663   4.883   0.554   5.082 -1.9647 -0.7716  3.0828
   42MOL0     H 5664   4.877   0.640   5.301 -0.3688 -0.1537  1.5138
   42MOL0     H 5665   4.976   0.488   5.320  1.8672  1.8152  1.4367
   42MOL0     H 5666   5.248   0.771   5.442 -0.8479 -1.9505  2.8021
   42MOL0     H 5667   5.089   0.873   4.681 -0.6008  0.0634 -1.3430
   42MOL0     H 5668   5.085   0.808   4.321 -2.6912  0.8606 -0.4410
   42MOL0     H 5669   5.045   0.918   4.454 -0.4857 -0.5854  0.3016
   42MOL0     H 5670   5.201   0.921   4.386 -0.3158 -1.0634 -2.0332
   43MOL0     O 5671   2.597   6.314   1.654  0.7138 -0.5973  0.6242
   43MOL0     C 5672   2.668   6.406   1.610 -0.7593 -0.1203 -0.3179
   43MOL0     O 5673   2.763   6.481   1.680  0.3608  0.2790 -0.3638
   43MOL0     C 5674   2.752   6.465   1.813 -0.3943  0.0841 -0.0602
   43MOL0     C 5675   2.684   6.554   1.890  0.4844  0.3996  0.5630
   43MOL0     C 5676   2.703   6.557   2.028 -0.6321  0.0125 -0.9625
   43MOL0     C 5677   2.783   6.455   2.098 -0.4303 -0.6749  0.6474
   43MOL0     O 5678   2.787   6.447   2.236 -0.2378  0.1860 -0.4521
   43MOL0     C 5679   2.887   6.374   2.304  0.3740  0.1367 -0.0469
   43MOL0     C 5680   2.904   6.447   2.438 -1.0109 -0.0484  0.4220
   43MOL0     C 5681   3.052   6.438   2.486 -0.5037  0.4271 -0.0823
   43MOL0     C 5682   3.151   6.505   2.387 -0.7258 -0.2388 -0.0257
   43MOL0     C 5683   3.285   6.538   2.458 -0.2856  1.1764 -0.5579
   43MOL0     C 5684   3.397   6.562   2.356 -0.9424 -0.3438 -0.0952
   43MOL0     C 5685   3.532   6.615   2.427 -0.8161 -0.6438 -0.3235
   43MOL0     C 5686   3.622   6.509   2.491  0.2901 -0.2321  0.6521
   43MOL0     N 5687   3.673   6.388   2.413 -0.1168 -0.3424 -0.4476
   43MOL0     C 5688   3.767   6.378   2.316 -0.3660 -0.5031 -0.2317
   43MOL0     C 5689   3.788   6.246   2.306 -0.5352 -0.6730  0.0137
   43MOL0     C 5690   3.903   6.194   2.227 -0.2134 -0.7985 -0.0758
   43MOL0     C 5691   3.864   6.160   2.094 -0.8165 -0.8822  0.8017
   43MOL0     C 5692   3.990   6.112   2.014 -0.3540  0.0704 -0.5985
   43MOL0     C 5693   4.087   6.216   1.961  0.1573 -0.0138  0.1669
   43MOL0     O 5694   4.199   6.162   1.887 -0.1155 -0.2614  0.2001
   43MOL0     C 5695   4.196   6.171   1.753 -0.9188  0.8195  0.1025
   43MOL0     C 5696   4.080   6.185   1.678 -0.3780 -0.1661  0.2366
   43MOL0     C 5697   4.084   6.165   1.538 -0.0061  0.2365  0.1854
   43MOL0     C 5698   4.203   6.156   1.476  0.0810 -0.6157  0.7482
   43MOL0     C 5699   4.214   6.134   1.327  0.0842 -0.9411 -0.5891
   43MOL0     O 5700   4.123   6.053   1.271 -0.3645 -0.4798 -0.3703
   43MOL0     C 5701   4.129   6.037   1.136 -0.2619 -0.1428 -0.6607
   43MOL0     C 5702   4.225   5.964   1.072 -0.4653  0.3413  0.1621
   43MOL0     C 5703   4.218   5.961   0.935  0.2394 -1.2490  0.1317
   43MOL0     C 5704   4.114   6.028   0.863 -0.4620 -0.3211  0.2016
   43MOL0     O 5705   4.101   6.020   0.719  0.0112 -0.1258 -0.5491
   43MOL0     C 5706   4.176   5.917   0.650 -0.2653 -0.6775 -0.4897
   43MOL0     C 5707   4.125   5.908   0.510  0.2612  0.5036  0.4508
   43MOL0     C 5708   4.217   5.822   0.427 -0.5545  0.2623 -1.0399
   43MOL0     C 5709   4.182   5.827   0.289  0.2007 -0.2004 -0.0065
   43MOL0     C 5710   4.284   5.729   0.212  0.7586  0.1193  0.2272
   43MOL0     C 5711   4.227   5.586   0.209 -0.2032  1.1793 -0.2550
   43MOL0     C 5712   4.348   5.494   0.201  0.3607  1.6054  0.1358
   43MOL0     C 5713   4.295   5.363   0.146 -1.0656  0.3523  0.0633
   43MOL0    Cl 5714   4.275   5.378  -0.036  0.0319 -0.3495  0.3601
   43MOL0     C 5715   4.024   6.103   0.932 -0.2893 -0.0701 -0.2379
   43MOL0     C 5716   4.037   6.117   1.075  1.1807  0.4297  0.2767
   43MOL0     O 5717   4.299   6.193   1.265 -0.1394  0.0628 -0.0799
   43MOL0     C 5718   4.317   6.154   1.549  0.0755 -0.9351 -0.2082
   43MOL0     C 5719   4.315   6.166   1.685 -0.1822 -0.3172 -0.5490
   43MOL0     N 5720   3.706   6.179   2.397  0.5132  0.5829  0.1141
   43MOL0     N 5721   3.636   6.262   2.461 -0.1948 -1.1351  0.4923
   43MOL0     C 5722   2.839   6.353   2.018  0.2484  0.1131  0.2580
   43MOL0     C 5723   2.834   6.371   1.877  0.8701 -1.0226  0.4538
   43MOL0     C 5724   2.676   6.422   1.468 -0.3531  0.2553 -1.6309
   43MOL0     C 5725   2.804   6.413   1.402  0.4385  0.1267  0.4161
   43MOL0     C 5726   2.807   6.412   1.266  0.4809 -0.6694 -0.7106
   43MOL0     C 5727   2.691   6.446   1.196 -0.2086  0.5650  0.1272
   43MOL0     O 5728   2.698   6.478   1.063  0.0390 -0.0247 -0.3270
   43MOL0     C 5729   2.657   6.612   1.011  0.1733  0.1486  0.5829
   43MOL0     C 5730   2.760   6.720   1.037  0.6791  0.9729  0.6118
   43MOL0     C 5731   2.885   6.683   0.956 -1.3094  0.2869  1.1781
   43MOL0     C 5732   2.987   6.799   0.928  0.9807 -1.0921  1.0686
   43MOL0     C 5733   2.914   6.916   0.867 -0.2773  0.6200  0.3449
   43MOL0     C 5734   2.863   6.985   0.787  0.5568  0.8203 -0.0868
   43MOL0     C 5735   2.564   6.452   1.247 -0.5645  0.1051  0.5321
   43MOL0     C 5736   2.552   6.436   1.393 -1.0094 -0.2623  0.1120
   43MOL0     C 5737   2.421   6.451   1.460  0.8919  0.9136  0.4768
   43MOL0     H 5738   2.606   6.612   1.843  0.2654  0.4106  0.9320
   43MOL0     H 5739   2.658   6.614   2.108 -0.6856 -1.4761  0.1146
   43MOL0     H 5740   2.856   6.269   2.307 -0.7141  0.3678 -1.7351
   43MOL0     H 5741   2.978   6.372   2.243 -1.8960 -1.6456 -3.7283
   43MOL0     H 5742   2.842   6.402   2.517  1.0851  0.6545  2.5990
   43MOL0     H 5743   2.875   6.552   2.423 -0.9197 -0.2656 -1.4640
   43MOL0     H 5744   3.073   6.332   2.502  0.7053  0.6321 -0.2179
   43MOL0     H 5745   3.076   6.483   2.583 -0.6721  0.9546 -0.2829
   43MOL0     H 5746   3.176   6.435   2.307 -0.4297 -2.1797  1.6814
   43MOL0     H 5747   3.118   6.600   2.344  1.3982 -0.4191 -2.2855
   43MOL0     H 5748   3.268   6.628   2.518 -0.0160  0.6034  0.4081
   43MOL0     H 5749   3.312   6.462   2.533  2.2153  0.9435 -1.6004
   43MOL0     H 5750   3.422   6.474   2.296  1.8854  1.5813 -2.0621
   43MOL0     H 5751   3.353   6.616   2.272 -2.2551 -0.4800  0.4775
   43MOL0     H 5752   3.506   6.684   2.507  0.7540  2.9991 -2.7045
   43MOL0     H 5753   3.590   6.675   2.357  1.3025  0.3093  2.0613
   43MOL0     H 5754   3.715   6.562   2.515  0.2560 -1.2070  3.1798
   43MOL0     H 5755   3.568   6.476   2.580 -0.4109 -0.5798  0.1146
   43MOL0     H 5756   3.815   6.457   2.259  0.9886 -3.5306 -3.6154
   43MOL0     H 5757   3.982   6.269   2.221 -1.3133  0.3738 -0.4473
   43MOL0     H 5758   3.945   6.106   2.277  3.6648 -0.1194 -1.7481
   43MOL0     H 5759   3.796   6.076   2.110 -0.4224 -1.2953  0.3682
   43MOL0     H 5760   3.822   6.241   2.034 -2.4334 -2.4201 -0.2521
   43MOL0     H 5761   3.964   6.047   1.931  0.9103  1.2511 -1.9800
   43MOL0     H 5762   4.053   6.047   2.075 -2.5235  0.1667  1.9150
   43MOL0     H 5763   4.133   6.259   2.051 -2.3911  0.1572  1.4559
   43MOL0     H 5764   4.039   6.297   1.906 -0.0387 -0.4629 -0.3340
   43MOL0     H 5765   3.993   6.182   1.742  3.0408  0.1393  5.5164
   43MOL0     H 5766   4.010   6.149   1.461  1.2155 -2.4132 -0.5493
   43MOL0     H 5767   4.298   5.911   1.133 -1.6371 -0.3430  1.0136
   43MOL0     H 5768   4.291   5.895   0.889 -0.3184 -2.3175  0.7331
   43MOL0     H 5769   4.279   5.952   0.641  0.2964 -1.6669  1.4162
   43MOL0     H 5770   4.163   5.819   0.698  0.3614 -1.2605 -1.4918
   43MOL0     H 5771   4.025   5.864   0.510 -0.5880  2.3562  0.1139
   43MOL0     H 5772   4.117   6.006   0.464  1.2848  0.7161  0.6957
   43MOL0     H 5773   4.322   5.848   0.445  0.2065 -0.9262 -3.3595
   43MOL0     H 5774   4.227   5.722   0.470 -1.2228 -0.3805 -2.3198
   43MOL0     H 5775   4.189   5.933   0.263  2.2193  0.1909  1.8844
   43MOL0     H 5776   4.077   5.797   0.283 -0.6544  2.0735  2.0731
   43MOL0     H 5777   4.388   5.743   0.243  0.5740  0.9670  0.4849
   43MOL0     H 5778   4.274   5.765   0.109  1.9459  1.5863  0.5933
   43MOL0     H 5779   4.175   5.559   0.301  1.7624  1.3992  0.9584
   43MOL0     H 5780   4.153   5.575   0.128 -1.0461 -4.2773  0.8764
   43MOL0     H 5781   4.383   5.482   0.304  1.6437  4.0819  0.0756
   43MOL0     H 5782   4.425   5.540   0.139 -2.6283  1.5188 -4.0423
   43MOL0     H 5783   4.366   5.284   0.170  0.2511  2.1127  2.2983
   43MOL0     H 5784   4.206   5.334   0.203 -1.0003  0.1044  0.0403
   43MOL0     H 5785   3.941   6.152   0.881  0.3655  1.7427  0.3407
   43MOL0     H 5786   3.964   6.177   1.129  1.3920 -0.9338  2.1418
   43MOL0     H 5787   4.412   6.141   1.499 -1.1357 -1.0753 -2.5895
   43MOL0     H 5788   4.406   6.179   1.743 -0.5807  0.2429 -0.0303
   43MOL0     H 5789   2.906   6.275   2.053 -1.0256 -1.3998 -0.5057
   43MOL0     H 5790   2.898   6.304   1.820  0.0924 -2.3011  1.0283
   43MOL0     H 5791   2.890   6.391   1.464 -0.9790 -0.1904  2.3604
   43MOL0     H 5792   2.901   6.414   1.211  0.8833 -1.2628 -0.0739
   43MOL0     H 5793   2.565   6.634   1.067  0.2355 -3.2859  2.2469
   43MOL0     H 5794   2.622   6.614   0.907 -0.9502 -0.7027  0.9180
   43MOL0     H 5795   2.794   6.725   1.140  1.3326 -0.6395  0.4988
   43MOL0     H 5796   2.711   6.813   1.005 -1.4181 -0.8041 -1.6746
   43MOL0     H 5797   2.850   6.649   0.858  0.7751 -2.0359  1.1405
   43MOL0     H 5798   2.942   6.598   0.995  0.1646 -0.5738 -2.3610
   43MOL0     H 5799   3.042   6.843   1.012  0.1955  0.4299  0.8099
   43MOL0     H 5800   3.057   6.758   0.854  3.6098 -0.9356  3.3116
   43MOL0     H 5801   2.803   7.051   0.726  1.2628  2.5244  0.9879
   43MOL0     H 5802   2.472   6.464   1.192  1.1945 -1.6048 -3.0783
   43MOL0     H 5803   2.428   6.520   1.544 -3.5402 -0.2893  2.1099
   43MOL0     H 5804   2.339   6.478   1.392 -0.1947 -0.8879  0.9885
   43MOL0     H 5805   2.393   6.359   1.512 -1.9381  1.8151  0.7512
   44MOL0     O 5806   7.187   0.524   2.608  0.2600 -0.0271 -0.2882
   44MOL0     C 5807   7.092   0.605   2.592  0.3219  1.2265 -0.3985
   44MOL0     O 5808   7.107   0.733   2.557  0.1716 -0.4653 -0.3914
   44MOL0     C 5809   7.216   0.783   2.492 -0.8122  0.2371  0.3946
   44MOL0     C 5810   7.350   0.746   2.510 -0.5332  0.0486  0.1898
   44MOL0     C 5811   7.453   0.812   2.435 -0.4762 -0.4489  0.5764
   44MOL0     C 5812   7.436   0.918   2.344  0.4897  0.5747 -0.9467
   44MOL0     O 5813   7.530   0.975   2.264 -0.4050 -0.5248  0.6620
   44MOL0     C 5814   7.664   0.925   2.264 -0.5004  0.1139  0.2980
   44MOL0     C 5815   7.763   1.044   2.268  0.1026 -0.1414  0.2840
   44MOL0     C 5816   7.757   1.121   2.144  0.3969 -0.5660  0.7793
   44MOL0     C 5817   7.871   1.227   2.108  0.0330  0.1960  0.0888
   44MOL0     C 5818   7.839   1.297   1.979  0.3012  0.0720 -0.2847
   44MOL0     C 5819   7.724   1.398   2.003  0.5172 -0.7114 -0.3227
   44MOL0     C 5820   7.712   1.514   1.912 -0.3458  0.5341  0.0677
   44MOL0     C 5821   7.562   1.556   1.876 -0.5944  0.2753  0.0646
   44MOL0     N 5822   7.503   1.619   1.995 -0.2490  0.8657  0.0420
   44MOL0     C 5823   7.386   1.697   1.992  0.1957  0.4107  0.7799
   44MOL0     C 5824   7.344   1.719   2.118 -0.8029 -0.5481  1.0449
   44MOL0     C 5825   7.225   1.811   2.163  0.2528 -0.0468 -0.6968
   44MOL0     C 5826   7.274   1.923   2.255 -0.0452  0.0088  0.7761
   44MOL0     C 5827   7.323   1.878   2.397 -0.6490 -0.2218 -0.0398
   44MOL0     C 5828   7.476   1.899   2.410 -0.1509  0.2603  1.0244
   44MOL0     O 5829   7.514   1.874   2.539 -0.3853  0.4651 -0.0608
   44MOL0     C 5830   7.658   1.885   2.555  0.0416  0.0298  0.3122
   44MOL0     C 5831   7.720   2.008   2.596  0.7059  1.0575  0.2731
   44MOL0     C 5832   7.858   2.017   2.615 -0.1767 -0.5064 -1.3085
   44MOL0     C 5833   7.939   1.902   2.607  0.6181 -0.1029 -0.7733
   44MOL0     C 5834   8.079   1.905   2.635  0.6096  0.1333 -0.3789
   44MOL0     O 5835   8.141   2.020   2.668  1.2191 -0.0136  0.2265
   44MOL0     C 5836   8.276   2.028   2.670 -0.9499  0.0140  0.2167
   44MOL0     C 5837   8.348   2.111   2.584 -0.3865 -0.0230  0.4619
   44MOL0     C 5838   8.490   2.111   2.583  0.8463 -0.2105  0.1518
   44MOL0     C 5839   8.566   2.019   2.662 -0.3789 -0.6503  0.2245
   44MOL0     O 5840   8.701   2.004   2.652  0.1480  0.2319  0.7129
   44MOL0     C 5841   8.779   2.107   2.600 -0.1125 -0.3170  0.3645
   44MOL0     C 5842   8.914   2.094   2.677  0.2263  0.0985  0.2659
   44MOL0     C 5843   9.001   2.222   2.674  0.7747 -0.5867  0.1080
   44MOL0     C 5844   9.131   2.196   2.748  0.8559 -0.1485 -0.0275
   44MOL0     C 5845   9.231   2.309   2.722 -0.0934 -0.9011  0.2925
   44MOL0     C 5846   9.349   2.311   2.821 -0.5608 -0.7215 -0.8705
   44MOL0     C 5847   9.464   2.409   2.773  0.4566 -0.3663  0.3584
   44MOL0     C 5848   9.545   2.363   2.661  0.3452  0.4252  0.1193
   44MOL0    Cl 5849   9.660   2.258   2.735  0.1598  0.0074  0.3781
   44MOL0     C 5850   8.494   1.935   2.746 -0.7053  0.3076 -0.3405
   44MOL0     C 5851   8.359   1.939   2.752 -0.0917  0.1348  0.6461
   44MOL0     O 5852   8.135   1.792   2.638 -0.2635  0.0232  0.5694
   44MOL0     C 5853   7.874   1.785   2.579  0.3825  0.6456  0.0297
   44MOL0     C 5854   7.738   1.776   2.553  0.2287  0.3682  0.1317
   44MOL0     N 5855   7.435   1.652   2.196  0.2859  0.2177  0.6891
   44MOL0     N 5856   7.514   1.583   2.123 -0.0772 -0.8119  0.1534
   44MOL0     C 5857   7.302   0.950   2.321  0.2409  0.0796 -0.7250
   44MOL0     C 5858   7.199   0.889   2.400 -0.1550  0.1903  0.3295
   44MOL0     C 5859   6.957   0.547   2.616  0.0312 -0.3398  0.3431
   44MOL0     C 5860   6.956   0.415   2.673  0.5752  1.0302  0.0962
   44MOL0     C 5861   6.829   0.351   2.693 -0.2378 -1.1781  0.1038
   44MOL0     C 5862   6.709   0.411   2.661 -0.0884 -0.5593  0.8649
   44MOL0     O 5863   6.583   0.352   2.682  0.3064  0.2638 -0.1640
   44MOL0     C 5864   6.525   0.391   2.803 -0.3579  0.2045 -0.0069
   44MOL0     C 5865   6.390   0.329   2.819  0.9171 -0.3051  0.0982
   44MOL0     C 5866   6.379   0.186   2.855  0.2958 -0.4809 -0.8975
   44MOL0     C 5867   6.246   0.140   2.886  0.7012  0.1698 -0.6443
   44MOL0     C 5868   6.177   0.226   2.986  0.3042 -0.4995  1.4521
   44MOL0     C 5869   6.114   0.281   3.069  0.4453  0.4921  0.2020
   44MOL0     C 5870   6.713   0.533   2.596  0.0878 -0.4481  0.2076
   44MOL0     C 5871   6.834   0.607   2.582  0.3334 -0.8613  0.0771
   44MOL0     C 5872   6.821   0.751   2.535 -0.1634 -2.0383 -0.1734
   44MOL0     H 5873   7.387   0.683   2.590 -1.6895 -0.5131  0.2995
   44MOL0     H 5874   7.548   0.770   2.466 -0.9510 -2.9065 -0.9845
   44MOL0     H 5875   7.678   0.861   2.352 -3.7658  0.2808  1.0857
   44MOL0     H 5876   7.677   0.854   2.183 -1.0901  0.6478 -0.2750
   44MOL0     H 5877   7.866   1.012   2.284  0.0820  0.0545  0.8565
   44MOL0     H 5878   7.724   1.105   2.350  0.0554 -0.3765  0.4370
   44MOL0     H 5879   7.657   1.155   2.118  2.0646  2.8236 -1.9985
   44MOL0     H 5880   7.775   1.043   2.069  0.1146 -0.3339  0.4674
   44MOL0     H 5881   7.908   1.299   2.182 -0.8204  0.7031  0.0338
   44MOL0     H 5882   7.958   1.163   2.089 -1.8617 -1.5744 -3.7627
   44MOL0     H 5883   7.926   1.361   1.963  1.2409 -1.5206 -2.0257
   44MOL0     H 5884   7.823   1.230   1.894 -0.1568  1.8426 -1.6460
   44MOL0     H 5885   7.628   1.344   2.011 -0.8260  1.6884  1.0436
   44MOL0     H 5886   7.749   1.443   2.100 -0.4358 -0.9797  0.0625
   44MOL0     H 5887   7.762   1.483   1.819  1.4622 -0.7025  1.3709
   44MOL0     H 5888   7.770   1.596   1.955  1.5211 -1.3793  1.4096
   44MOL0     H 5889   7.574   1.635   1.801  1.1882  0.6611  0.6943
   44MOL0     H 5890   7.496   1.475   1.845 -0.8039 -1.0223  3.4802
   44MOL0     H 5891   7.337   1.732   1.901 -0.5257 -3.3410 -0.4702
   44MOL0     H 5892   7.200   1.872   2.075  1.6194  4.5768  1.7540
   44MOL0     H 5893   7.147   1.749   2.207  0.1423  1.9361  2.1596
   44MOL0     H 5894   7.368   1.961   2.214 -0.0066  0.4821  1.2886
   44MOL0     H 5895   7.195   1.999   2.256  0.7516  0.8640  0.5681
   44MOL0     H 5896   7.291   1.777   2.426 -1.8070  0.5007  1.3412
   44MOL0     H 5897   7.282   1.951   2.467  2.1470  1.1884  0.2831
   44MOL0     H 5898   7.496   2.006   2.397  1.0875 -0.1300 -0.5036
   44MOL0     H 5899   7.537   1.832   2.349 -1.0371 -0.3020  0.7404
   44MOL0     H 5900   7.645   2.085   2.605  0.0258  0.1921  3.5322
   44MOL0     H 5901   7.897   2.114   2.643  0.0623 -0.6971 -0.9742
   44MOL0     H 5902   8.298   2.183   2.520  2.6375  1.8325 -0.0227
   44MOL0     H 5903   8.544   2.169   2.509  0.8773  1.1514  1.2117
   44MOL0     H 5904   8.794   2.097   2.492  0.0633 -1.6742  0.4866
   44MOL0     H 5905   8.735   2.204   2.621 -0.6666 -0.4001 -0.3717
   44MOL0     H 5906   8.898   2.066   2.782  0.1769 -3.1519 -0.5042
   44MOL0     H 5907   8.958   2.002   2.639 -2.7617 -1.0926 -0.5967
   44MOL0     H 5908   9.015   2.240   2.567 -0.0104  2.7348  0.4602
   44MOL0     H 5909   8.954   2.313   2.712  3.3479  0.8751 -0.0198
   44MOL0     H 5910   9.167   2.093   2.741  0.0910 -0.7471  3.1501
   44MOL0     H 5911   9.109   2.206   2.855 -3.9391  0.2578 -0.8397
   44MOL0     H 5912   9.179   2.405   2.718  0.5959 -0.5714 -1.3253
   44MOL0     H 5913   9.271   2.301   2.621  1.7356 -1.1059  0.9917
   44MOL0     H 5914   9.319   2.313   2.926  0.0664 -0.7020 -0.6899
   44MOL0     H 5915   9.395   2.213   2.811 -0.2423 -0.5734 -0.8598
   44MOL0     H 5916   9.532   2.435   2.855  0.3767 -0.1615  0.3602
   44MOL0     H 5917   9.412   2.502   2.747 -0.6081 -1.3567 -1.1982
   44MOL0     H 5918   9.494   2.299   2.589  0.8319 -0.9535  0.9701
   44MOL0     H 5919   9.585   2.444   2.599 -0.8036 -0.9269 -2.5679
   44MOL0     H 5920   8.557   1.878   2.812 -2.6654  1.2909  2.5648
   44MOL0     H 5921   8.302   1.884   2.826 -1.2261  1.3889  0.7581
   44MOL0     H 5922   7.934   1.697   2.560 -1.2056 -0.3112 -0.8013
   44MOL0     H 5923   7.698   1.677   2.535  1.9588 -0.2217 -0.6119
   44MOL0     H 5924   7.271   1.028   2.251 -2.9169 -2.3658 -2.3420
   44MOL0     H 5925   7.102   0.928   2.374  0.3329  0.4033 -1.2687
   44MOL0     H 5926   7.047   0.374   2.716 -0.0683 -0.7892 -0.1784
   44MOL0     H 5927   6.842   0.250   2.731  3.3713 -0.3071  1.6737
   44MOL0     H 5928   6.501   0.497   2.815 -1.6453  0.1499 -1.5992
   44MOL0     H 5929   6.581   0.343   2.884 -2.2190 -1.9806  0.1063
   44MOL0     H 5930   6.352   0.337   2.717  1.3765 -0.3805 -0.0833
   44MOL0     H 5931   6.338   0.401   2.882  3.0879  2.2096 -0.7724
   44MOL0     H 5932   6.434   0.181   2.949 -2.6390 -1.2383  0.9168
   44MOL0     H 5933   6.420   0.127   2.773  0.9873 -1.2671 -0.0084
   44MOL0     H 5934   6.184   0.141   2.796  1.1409 -1.3662 -0.9885
   44MOL0     H 5935   6.243   0.034   2.911 -1.2651 -0.3881 -2.8260
   44MOL0     H 5936   6.046   0.331   3.135 -1.6145  0.1440 -1.5704
   44MOL0     H 5937   6.614   0.569   2.570 -2.2205 -6.4121 -0.9002
   44MOL0     H 5938   6.719   0.769   2.501  1.0743  1.3778 -2.6623
   44MOL0     H 5939   6.856   0.809   2.621  3.2569 -1.3999 -1.8203
   44MOL0     H 5940   6.879   0.783   2.448 -0.3593 -2.6453 -0.5370
   45MOL0     O 5941   4.016  11.270   8.678  0.1135 -0.0189  0.3998
   45MOL0     C 5942   3.912  11.333   8.646  0.0244 -0.4367 -1.0210
   45MOL0     O 5943   3.788  11.330   8.712 -0.3809  1.0788 -0.2576
   45MOL0     C 5944   3.783  11.322   8.849  0.6809 -0.4154 -0.5364
   45MOL0     C 5945   3.881  11.353   8.942 -0.4159  0.1829 -0.9724
   45MOL0     C 5946   3.854  11.317   9.071  0.3341  0.4218 -1.3974
   45MOL0     C 5947   3.719  11.279   9.121 -0.4174 -1.0686  1.0499
   45MOL0     O 5948   3.700  11.280   9.256  0.9385 -0.4185 -0.7154
   45MOL0     C 5949   3.647  11.160   9.318  1.1312 -0.6498 -0.0561
   45MOL0     C 5950   3.713  11.127   9.445 -0.5264 -1.1713  0.0307
   45MOL0     C 5951   3.678  11.218   9.568 -0.4013  0.4603  0.0303
   45MOL0     C 5952   3.754  11.165   9.695 -0.3606  0.1415  0.9669
   45MOL0     C 5953   3.903  11.227   9.695  0.5837  0.7634 -0.5636
   45MOL0     C 5954   3.911  11.309   9.824 -1.0024  1.3029  0.6230
   45MOL0     C 5955   3.827  11.432   9.827  0.7482  0.0461  1.0344
   45MOL0     C 5956   3.855  11.513   9.954  0.3658 -0.3263  0.0382
   45MOL0     N 5957   3.789  11.645   9.967 -0.6164 -0.0495  0.7499
   45MOL0     C 5958   3.653  11.668   9.980  0.0903 -0.0055 -0.2191
   45MOL0     C 5959   3.643  11.800  10.010 -0.3015 -1.0146  0.8639
   45MOL0     C 5960   3.517  11.867  10.030  0.4358 -0.1106 -0.7619
   45MOL0     C 5961   3.460  11.833  10.170  0.7560 -1.0899 -0.0931
   45MOL0     C 5962   3.551  11.868  10.288 -0.3377 -1.1068 -0.5129
   45MOL0     C 5963   3.606  12.013  10.292 -0.4779  0.7150 -0.4493
   45MOL0     O 5964   3.506  12.114  10.269 -0.0292 -0.0267 -0.2301
   45MOL0     C 5965   3.509  12.230  10.354 -0.0602  0.2397 -0.3190
   45MOL0     C 5966   3.404  12.321  10.348 -0.1914  0.7741  0.8617
   45MOL0     C 5967   3.402  12.443  10.404  0.5850 -0.0569 -0.0564
   45MOL0     C 5968   3.506  12.475  10.493 -0.5752 -0.7326 -0.3555
   45MOL0     C 5969   3.493  12.603  10.571 -0.1406 -0.5958 -0.8434
   45MOL0     O 5970   3.368  12.643  10.604 -0.5254  0.1102 -0.7104
   45MOL0     C 5971   3.332  12.769  10.657 -0.1891 -1.0705 -0.2170
   45MOL0     C 5972   3.379  12.899  10.632  0.3202 -0.4557  0.6480
   45MOL0     C 5973   3.331  13.007  10.706  0.5594  0.3004  0.1323
   45MOL0     C 5974   3.215  12.993  10.785  0.1211 -1.0944  0.3403
   45MOL0     O 5975   3.157  13.111  10.839  0.4808  0.6382  0.3554
   45MOL0     C 5976   3.015  13.131  10.831  0.4599 -0.1247  0.4446
   45MOL0     C 5977   2.973  13.269  10.881 -0.5228 -0.0533  0.6421
   45MOL0     C 5978   2.819  13.289  10.881 -0.5399 -0.1936  0.1981
   45MOL0     C 5979   2.758  13.364  10.759  0.4379 -0.4888  0.2029
   45MOL0     C 5980   2.599  13.338  10.756 -0.3729  0.2265  0.5963
   45MOL0     C 5981   2.548  13.402  10.619 -0.5960  0.4628  0.3493
   45MOL0     C 5982   2.407  13.357  10.579 -0.1743  0.0825 -1.1867
   45MOL0     C 5983   2.339  13.432  10.469  0.4294  0.1527 -0.9060
   45MOL0    Cl 5984   2.222  13.564  10.523  0.2775 -0.8635 -0.2842
   45MOL0     C 5985   3.160  12.876  10.801 -0.3565  0.4166 -0.2770
   45MOL0     C 5986   3.223  12.766  10.741  0.3627  0.6430 -1.0768
   45MOL0     O 5987   3.595  12.656  10.600 -0.5598 -0.1793  0.4495
   45MOL0     C 5988   3.619  12.384  10.509 -0.3932 -0.2557 -0.1912
   45MOL0     C 5989   3.621  12.267  10.432  0.0815 -1.3790  0.2806
   45MOL0     N 5990   3.774  11.862  10.016 -0.6842  0.3139 -1.3924
   45MOL0     N 5991   3.853  11.763   9.994 -0.4218  0.3822 -0.0023
   45MOL0     C 5992   3.623  11.267   9.029 -0.0432 -0.3410  0.2608
   45MOL0     C 5993   3.660  11.268   8.895 -0.3913  0.8761  0.6797
   45MOL0     C 5994   3.938  11.437   8.549  0.4223  0.1111  0.8708
   45MOL0     C 5995   3.864  11.557   8.555  0.7257  0.0809 -0.7329
   45MOL0     C 5996   3.881  11.661   8.474 -1.1820 -0.1734  0.2391
   45MOL0     C 5997   3.980  11.669   8.377  0.2399  0.1622  0.0220
   45MOL0     O 5998   3.986  11.783   8.299 -0.4677  0.2943 -0.1128
   45MOL0     C 5999   4.098  11.865   8.349  1.0753 -0.4510  0.0275
   45MOL0     C 6000   4.029  12.006   8.364 -0.1060 -0.1000 -0.1887
   45MOL0     C 6001   3.954  12.041   8.492 -0.2479  0.1618  0.3218
   45MOL0     C 6002   3.879  12.177   8.475 -0.4726  0.3302  0.1395
   45MOL0     C 6003   3.773  12.189   8.578  0.8202 -0.0338  0.4111
   45MOL0     C 6004   3.677  12.200   8.654 -0.2183  0.4588 -0.2691
   45MOL0     C 6005   4.063  11.556   8.373  0.2835 -0.5535  0.6173
   45MOL0     C 6006   4.039  11.442   8.443  0.5232  0.3036 -0.7806
   45MOL0     C 6007   4.137  11.329   8.421  0.6714 -0.3658  0.1149
   45MOL0     H 6008   3.985  11.377   8.918  0.2202 -2.1839 -0.8280
   45MOL0     H 6009   3.934  11.335   9.142  2.2378  0.9008 -3.5320
   45MOL0     H 6010   3.540  11.161   9.340  0.5550 -4.0090 -1.9264
   45MOL0     H 6011   3.661  11.077   9.248 -2.1660 -0.5639 -0.9648
   45MOL0     H 6012   3.820  11.125   9.425 -0.3394  0.1090  0.7745
   45MOL0     H 6013   3.678  11.025   9.465 -1.9095 -0.9158 -0.9444
   45MOL0     H 6014   3.569  11.219   9.579 -0.5270  0.6026 -1.1204
   45MOL0     H 6015   3.703  11.320   9.538 -2.2877  0.9015 -0.1943
   45MOL0     H 6016   3.692  11.202   9.777  1.0791 -2.8185  3.6445
   45MOL0     H 6017   3.771  11.058   9.711  1.4329  0.3794  0.7989
   45MOL0     H 6018   3.970  11.142   9.706 -0.3114  0.0059 -0.8595
   45MOL0     H 6019   3.923  11.281   9.602  0.3696  0.3506 -0.8526
   45MOL0     H 6020   3.875  11.240   9.902 -0.5046 -1.2294 -1.2669
   45MOL0     H 6021   4.014  11.338   9.848 -0.6971 -0.6256  1.8347
   45MOL0     H 6022   3.720  11.407   9.819  1.5368 -3.8353  0.1053
   45MOL0     H 6023   3.850  11.492   9.739 -0.7468  1.9446  1.8806
   45MOL0     H 6024   3.841  11.448  10.041 -1.2525  0.4275  0.3911
   45MOL0     H 6025   3.960  11.538   9.940  0.1805 -1.3944 -5.9802
   45MOL0     H 6026   3.565  11.605   9.971 -0.9863  1.7661 -3.5684
   45MOL0     H 6027   3.535  11.975  10.021  2.8377 -0.3390  0.5574
   45MOL0     H 6028   3.441  11.824   9.965 -2.2327  0.4376  1.7606
   45MOL0     H 6029   3.366  11.888  10.170  1.2029 -0.2523 -1.7897
   45MOL0     H 6030   3.438  11.726  10.169 -1.8587 -0.6547 -2.9848
   45MOL0     H 6031   3.640  11.805  10.283 -0.3045 -1.0476 -5.5219
   45MOL0     H 6032   3.495  11.845  10.380 -0.7959  1.9784  0.0642
   45MOL0     H 6033   3.685  12.021  10.216 -1.4012  0.5208 -1.4569
   45MOL0     H 6034   3.649  12.022  10.392 -0.3006  0.8152 -0.5335
   45MOL0     H 6035   3.326  12.284  10.283  0.5008  0.0159  0.4354
   45MOL0     H 6036   3.303  12.487  10.397  0.0603 -0.9199  1.5990
   45MOL0     H 6037   3.452  12.909  10.552  1.8102  0.5847  2.0666
   45MOL0     H 6038   3.377  13.103  10.683  1.5160  0.0306  0.8577
   45MOL0     H 6039   2.977  13.132  10.729 -0.9602  0.4360  0.9459
   45MOL0     H 6040   2.955  13.056  10.883 -3.3276  1.3565 -1.4219
   45MOL0     H 6041   3.018  13.282  10.981  0.7943  0.0231  0.0660
   45MOL0     H 6042   3.015  13.346  10.817  1.5686 -0.9977  0.7845
   45MOL0     H 6043   2.780  13.188  10.893  3.8274 -1.7166  4.7645
   45MOL0     H 6044   2.785  13.341  10.971 -3.0262 -0.8371 -0.2926
   45MOL0     H 6045   2.803  13.327  10.666  1.3520 -0.0302  0.4462
   45MOL0     H 6046   2.788  13.469  10.764 -2.0230  0.2250  1.7102
   45MOL0     H 6047   2.552  13.388  10.842 -0.3054  0.1512  0.6771
   45MOL0     H 6048   2.591  13.229  10.756 -1.7161  0.3069  1.1756
   45MOL0     H 6049   2.565  13.510  10.614  1.3772  0.1382 -3.7006
   45MOL0     H 6050   2.614  13.366  10.540 -1.3852 -0.4192  0.0870
   45MOL0     H 6051   2.342  13.356  10.667 -1.0323  0.1196 -1.8030
   45MOL0     H 6052   2.421  13.251  10.557  2.5923  0.1979 -0.3974
   45MOL0     H 6053   2.425  13.476  10.418  0.4575  3.5765  1.7005
   45MOL0     H 6054   2.291  13.369  10.394 -1.4034 -1.7904  1.7002
   45MOL0     H 6055   3.070  12.857  10.860 -1.7220  1.5563 -1.8838
   45MOL0     H 6056   3.176  12.675  10.776 -1.4208  2.0624  0.4068
   45MOL0     H 6057   3.710  12.401  10.566 -0.3784 -4.3917  1.3904
   45MOL0     H 6058   3.715  12.213  10.436  0.0130 -1.6352 -1.0064
   45MOL0     H 6059   3.521  11.258   9.067 -1.1883 -0.9286 -2.6612
   45MOL0     H 6060   3.585  11.232   8.825 -0.0438 -0.5002  0.9818
   45MOL0     H 6061   3.789  11.566   8.634  1.8867  1.7023  0.2589
   45MOL0     H 6062   3.818  11.743   8.507 -0.6271  0.4776 -0.3051
   45MOL0     H 6063   4.162  11.872   8.261  0.2725  0.7238 -0.4968
   45MOL0     H 6064   4.142  11.825   8.441  1.6400  0.8589  0.3500
   45MOL0     H 6065   3.970  12.020   8.273  1.8156 -3.4026 -2.1774
   45MOL0     H 6066   4.106  12.084   8.365  0.4336 -0.6237 -0.4245
   45MOL0     H 6067   4.020  12.050   8.578 -1.7924  2.1044  1.3744
   45MOL0     H 6068   3.892  11.953   8.515  0.1614 -0.6127 -1.3741
   45MOL0     H 6069   3.965  12.237   8.507  0.8994 -0.2414 -2.2281
   45MOL0     H 6070   3.850  12.207   8.374  2.8671 -1.3714 -1.4749
   45MOL0     H 6071   3.601  12.196   8.729  0.2511  1.8026  0.3114
   45MOL0     H 6072   4.148  11.547   8.305  1.1342  1.3232  1.3628
   45MOL0     H 6073   4.073  11.249   8.383 -0.1483  0.8875 -1.2455
   45MOL0     H 6074   4.214  11.355   8.348 -1.3539  0.9755 -1.6457
   45MOL0     H 6075   4.181  11.291   8.514 -1.2634 -1.3660  0.6684
   46MOL0     O 6076   3.499  10.142   4.297 -0.3606 -0.6154  0.5668
   46MOL0     C 6077   3.419  10.217   4.241  0.3641 -0.2553 -0.1327
   46MOL0     O 6078   3.369  10.327   4.299 -0.1783  0.2204  0.2151
   46MOL0     C 6079   3.422  10.358   4.423  0.0269 -0.1492  0.3613
   46MOL0     C 6080   3.539  10.429   4.440 -0.4883 -0.1503  0.4749
   46MOL0     C 6081   3.577  10.482   4.564 -0.2892  0.9459  1.0454
   46MOL0     C 6082   3.521  10.427   4.678  0.3779 -0.1968  0.2669
   46MOL0     O 6083   3.564  10.481   4.798 -0.3577  0.0511 -0.3322
   46MOL0     C 6084   3.583  10.399   4.919 -0.5038 -0.2771 -0.5364
   46MOL0     C 6085   3.657  10.472   5.038  1.0980 -0.8901 -0.4898
   46MOL0     C 6086   3.796  10.519   5.001 -0.1746  0.2295 -0.9062
   46MOL0     C 6087   3.873  10.390   4.943 -1.4555 -0.0119 -0.3779
   46MOL0     C 6088   4.022  10.417   4.939  0.3702 -0.7418  0.2008
   46MOL0     C 6089   4.111  10.295   4.911  0.3393 -0.3245 -0.0950
   46MOL0     C 6090   4.092  10.249   4.771 -0.6268  0.2974  0.6832
   46MOL0     C 6091   4.166  10.338   4.662  0.8374 -1.3912 -0.1873
   46MOL0     N 6092   4.162  10.267   4.527  1.1431  0.2555  0.5511
   46MOL0     C 6093   4.274  10.202   4.493 -0.6286  0.6449 -0.3247
   46MOL0     C 6094   4.235  10.133   4.380 -0.2691 -0.7909 -0.1556
   46MOL0     C 6095   4.340  10.071   4.290 -0.0067  0.4926 -0.5073
   46MOL0     C 6096   4.319   9.925   4.270 -0.2662 -0.0869  0.9391
   46MOL0     C 6097   4.302   9.851   4.411  0.2624  0.3314 -0.0986
   46MOL0     C 6098   4.306   9.697   4.404 -0.9170 -0.0158  0.5195
   46MOL0     O 6099   4.212   9.651   4.311 -0.7896  0.0937  0.8847
   46MOL0     C 6100   4.198   9.517   4.299 -0.0748 -0.1087 -0.2463
   46MOL0     C 6101   4.158   9.465   4.177 -0.2068  0.1457 -0.6638
   46MOL0     C 6102   4.139   9.326   4.159 -0.0351  0.8373 -0.6430
   46MOL0     C 6103   4.181   9.236   4.262 -0.3152 -0.9514  0.1070
   46MOL0     C 6104   4.160   9.090   4.239  0.5898  0.5697  0.9175
   46MOL0     O 6105   4.157   9.008   4.355 -0.3403 -0.5430 -0.1176
   46MOL0     C 6106   4.158   8.877   4.344 -0.0468  0.8217  0.1935
   46MOL0     C 6107   4.265   8.810   4.273 -0.4188  0.3250 -0.1203
   46MOL0     C 6108   4.254   8.670   4.248  0.3175  0.0061 -0.3724
   46MOL0     C 6109   4.142   8.596   4.292 -0.3482  0.2841  0.9581
   46MOL0     O 6110   4.137   8.463   4.282  0.0467  0.9247  1.4733
   46MOL0     C 6111   4.109   8.424   4.147 -0.0761 -0.6198  0.0705
   46MOL0     C 6112   4.154   8.282   4.098 -0.1564 -0.4188 -0.1077
   46MOL0     C 6113   4.301   8.248   4.138 -0.1131 -0.4729 -0.8141
   46MOL0     C 6114   4.358   8.125   4.082 -0.0090  0.4794 -0.0055
   46MOL0     C 6115   4.506   8.117   4.112 -0.7626 -0.6972  0.1860
   46MOL0     C 6116   4.532   8.057   4.250 -0.4296 -0.9998  0.4971
   46MOL0     C 6117   4.691   8.044   4.274 -1.1097 -0.5294 -0.5471
   46MOL0     C 6118   4.705   7.957   4.403  0.6891 -0.1491 -0.6253
   46MOL0    Cl 6119   4.653   8.052   4.543  0.3979  0.2302 -0.3063
   46MOL0     C 6120   4.045   8.670   4.361 -0.3254 -0.7014  0.2925
   46MOL0     C 6121   4.052   8.806   4.384 -0.0006 -0.3755 -0.6078
   46MOL0     O 6122   4.162   9.048   4.122 -0.2974 -0.1317  0.4010
   46MOL0     C 6123   4.219   9.288   4.386 -0.1475 -1.0044  0.2549
   46MOL0     C 6124   4.233   9.427   4.407  0.3583  0.2019 -0.6865
   46MOL0     N 6125   4.102  10.168   4.346 -0.8712  0.3079 -0.0759
   46MOL0     N 6126   4.052  10.247   4.449  0.4828  0.0471  0.4253
   46MOL0     C 6127   3.407  10.349   4.668  0.8611  0.4393  0.1128
   46MOL0     C 6128   3.362  10.313   4.538  0.3395 -0.1028 -0.1605
   46MOL0     C 6129   3.415  10.204   4.096  0.1936  0.1988 -0.1237
   46MOL0     C 6130   3.406  10.323   4.016  0.5745 -0.1705 -0.8236
   46MOL0     C 6131   3.414  10.316   3.875 -0.2773  0.0397 -0.6350
   46MOL0     C 6132   3.434  10.194   3.809 -0.6617 -1.0253 -0.8386
   46MOL0     O 6133   3.446  10.188   3.677 -0.1879 -0.2972  0.4202
   46MOL0     C 6134   3.491  10.063   3.616 -0.4915  0.3585  0.7605
   46MOL0     C 6135   3.548  10.075   3.470 -0.1211  0.6360 -0.4953
   46MOL0     C 6136   3.462  10.161   3.379  0.4137  0.0174 -0.1655
   46MOL0     C 6137   3.506  10.151   3.236  0.3381 -0.5240 -0.4102
   46MOL0     C 6138   3.625  10.224   3.200 -0.0927 -0.4142  0.2412
   46MOL0     C 6139   3.719  10.298   3.166 -0.2910  0.4912  0.4907
   46MOL0     C 6140   3.442  10.082   3.895 -0.4109  0.3556  0.0061
   46MOL0     C 6141   3.429  10.081   4.036 -0.6685 -0.7281  0.4495
   46MOL0     C 6142   3.420   9.952   4.111 -0.2398  0.6687 -0.4092
   46MOL0     H 6143   3.596  10.450   4.350  2.9814 -0.7255  2.3505
   46MOL0     H 6144   3.665  10.540   4.589  0.8965  0.2784 -1.2488
   46MOL0     H 6145   3.481  10.399   4.958 -0.5179  1.0442 -0.5365
   46MOL0     H 6146   3.620  10.296   4.919 -1.3512 -0.6053  0.8289
   46MOL0     H 6147   3.657  10.393   5.113  0.6674  0.4142  0.9240
   46MOL0     H 6148   3.602  10.559   5.075  1.3525 -0.5255 -0.9425
   46MOL0     H 6149   3.841  10.562   5.091  0.3670  0.7974 -1.4382
   46MOL0     H 6150   3.790  10.598   4.926 -0.8224 -2.8583 -4.3509
   46MOL0     H 6151   3.861  10.301   5.006 -1.7402  0.2226 -0.0975
   46MOL0     H 6152   3.846  10.359   4.842  0.5869 -4.1110  0.1084
   46MOL0     H 6153   4.038  10.497   4.866 -1.3249  1.7321  2.3685
   46MOL0     H 6154   4.053  10.470   5.029  3.1634 -0.3843 -0.8835
   46MOL0     H 6155   4.213  10.329   4.929 -0.3430  0.5203  2.6365
   46MOL0     H 6156   4.102  10.211   4.981  2.3316 -0.6495 -0.1668
   46MOL0     H 6157   3.986  10.248   4.741 -0.5937 -0.1155  0.5702
   46MOL0     H 6158   4.125  10.145   4.761 -0.8929  0.4218 -3.2709
   46MOL0     H 6159   4.102  10.427   4.659  2.0762 -0.4473  0.6887
   46MOL0     H 6160   4.266  10.379   4.676  0.3129 -0.6335  1.6219
   46MOL0     H 6161   4.376  10.214   4.526 -0.8259  2.5573 -0.3107
   46MOL0     H 6162   4.337  10.123   4.193  0.1063  0.2001 -0.6693
   46MOL0     H 6163   4.441  10.090   4.327  0.3254  1.8425 -1.9314
   46MOL0     H 6164   4.238   9.901   4.201 -0.7262  3.2102  0.1718
   46MOL0     H 6165   4.409   9.878   4.230  0.2617 -0.9310  2.9727
   46MOL0     H 6166   4.203   9.878   4.449 -0.3299  0.2206 -1.5031
   46MOL0     H 6167   4.387   9.887   4.469 -0.2466  0.5012  0.5503
   46MOL0     H 6168   4.299   9.659   4.507  0.0766 -1.2064  0.1745
   46MOL0     H 6169   4.404   9.670   4.364 -1.4349  0.1138 -0.8870
   46MOL0     H 6170   4.132   9.532   4.096 -0.4673  0.0375 -0.6713
   46MOL0     H 6171   4.100   9.298   4.062 -3.6442 -1.7421  1.2812
   46MOL0     H 6172   4.356   8.862   4.243  2.0380 -1.2707  3.7706
   46MOL0     H 6173   4.334   8.618   4.197  2.8820  0.8571  2.5050
   46MOL0     H 6174   4.001   8.435   4.138  0.1511 -0.1081 -3.5318
   46MOL0     H 6175   4.152   8.499   4.081 -3.3627  3.2117  1.8748
   46MOL0     H 6176   4.092   8.210   4.153  1.0177 -1.8236 -0.5391
   46MOL0     H 6177   4.130   8.277   3.992  1.0769 -2.2838 -0.3592
   46MOL0     H 6178   4.361   8.334   4.107 -1.7450  1.7832  1.7789
   46MOL0     H 6179   4.300   8.236   4.246  0.5513  1.4803 -0.5450
   46MOL0     H 6180   4.334   8.131   3.976  0.4537  2.4962 -0.0460
   46MOL0     H 6181   4.309   8.035   4.120 -1.3342  0.5628 -1.4503
   46MOL0     H 6182   4.559   8.213   4.101 -0.6830 -0.7759 -0.1393
   46MOL0     H 6183   4.548   8.054   4.033  0.3560 -0.4742  0.5776
   46MOL0     H 6184   4.501   8.129   4.326  2.9712 -0.5758  1.6522
   46MOL0     H 6185   4.473   7.965   4.257 -1.2568 -0.3885  2.1314
   46MOL0     H 6186   4.739   8.141   4.292 -0.8076 -0.1254 -3.1548
   46MOL0     H 6187   4.743   8.007   4.185 -1.5185  0.6237 -1.2897
   46MOL0     H 6188   4.651   7.863   4.387  4.4383 -2.4726 -0.8750
   46MOL0     H 6189   4.813   7.938   4.415  1.1600  1.6138 -1.6607
   46MOL0     H 6190   3.953   8.625   4.398 -1.5607  1.8880  0.6104
   46MOL0     H 6191   3.981   8.858   4.448 -0.1507 -1.7732  0.4147
   46MOL0     H 6192   4.245   9.215   4.461  0.7026 -0.7208  0.2494
   46MOL0     H 6193   4.276   9.456   4.503 -0.1277  0.6696 -0.6032
   46MOL0     H 6194   3.359  10.299   4.752  0.5301 -5.6687 -3.1254
   46MOL0     H 6195   3.271  10.256   4.529  2.1229 -4.0735  3.2813
   46MOL0     H 6196   3.384  10.423   4.050 -0.3915 -0.0679 -1.7043
   46MOL0     H 6197   3.393  10.414   3.834 -0.1524  2.0165  3.5195
   46MOL0     H 6198   3.403  10.000   3.611  1.0115 -1.7272 -2.7798
   46MOL0     H 6199   3.566  10.018   3.682  0.4157 -1.0751 -1.1575
   46MOL0     H 6200   3.556   9.973   3.431 -1.7147  0.9685 -1.7929
   46MOL0     H 6201   3.654  10.104   3.472 -0.4417  1.7641  0.9946
   46MOL0     H 6202   3.457  10.262   3.420  0.3535 -0.2079  0.3900
   46MOL0     H 6203   3.357  10.131   3.385 -0.1800  1.7978 -0.9720
   46MOL0     H 6204   3.519  10.046   3.208  1.0109 -0.4043 -0.5602
   46MOL0     H 6205   3.426  10.198   3.178  1.7829  2.8205  0.1248
   46MOL0     H 6206   3.795  10.366   3.133  1.6560 -2.3382 -1.2559
   46MOL0     H 6207   3.449   9.984   3.847 -1.7187  1.5669 -2.8861
   46MOL0     H 6208   3.387   9.955   4.215 -1.5123 -0.1816 -0.7750
   46MOL0     H 6209   3.344   9.891   4.062  1.3231 -2.5762  0.8982
   46MOL0     H 6210   3.515   9.897   4.111 -0.3198  0.4827  1.1045
   47MOL0     O 6211   6.718   8.933   6.079  0.5136  0.6092  0.4548
   47MOL0     C 6212   6.682   9.003   6.180  0.5818  0.2628  0.2693
   47MOL0     O 6213   6.735   9.128   6.214  0.5690 -0.3682 -0.0181
   47MOL0     C 6214   6.825   9.187   6.131 -0.3885 -0.2044 -0.6348
   47MOL0     C 6215   6.802   9.208   5.992  0.2406 -0.0615 -0.4836
   47MOL0     C 6216   6.903   9.266   5.912  0.2083 -0.2127 -0.5186
   47MOL0     C 6217   7.030   9.297   5.966 -0.4096 -0.5576 -0.3346
   47MOL0     O 6218   7.127   9.334   5.872  1.4486  1.0256  0.9385
   47MOL0     C 6219   7.207   9.444   5.905  0.1914 -0.3111 -0.0483
   47MOL0     C 6220   7.306   9.486   5.802 -0.3366  0.6412  0.9204
   47MOL0     C 6221   7.395   9.598   5.855 -0.0873 -0.2351  0.7227
   47MOL0     C 6222   7.503   9.627   5.763 -0.5640 -0.5392  0.6208
   47MOL0     C 6223   7.621   9.707   5.825  0.1491  0.2447 -0.7408
   47MOL0     C 6224   7.730   9.740   5.709  0.4237  0.2728  0.8724
   47MOL0     C 6225   7.864   9.771   5.758  0.1321  0.2476 -0.0699
   47MOL0     C 6226   7.965   9.659   5.762 -0.1596  0.8172 -0.4451
   47MOL0     N 6227   7.920   9.539   5.852 -0.0561 -0.4472 -0.4197
   47MOL0     C 6228   7.876   9.550   5.985 -0.5260 -0.5700 -0.4387
   47MOL0     C 6229   7.846   9.425   6.025  0.7689  0.5184 -0.3854
   47MOL0     C 6230   7.799   9.387   6.158  0.4240  0.2778  0.5057
   47MOL0     C 6231   7.655   9.343   6.146  1.0658  0.4021 -0.5078
   47MOL0     C 6232   7.592   9.295   6.275 -0.5546  0.5539  0.0777
   47MOL0     C 6233   7.461   9.225   6.243  0.2073  0.1660 -0.3532
   47MOL0     O 6234   7.375   9.216   6.359 -0.6123 -0.6197 -0.3323
   47MOL0     C 6235   7.364   9.092   6.435  0.4898  0.9636  0.0212
   47MOL0     C 6236   7.240   9.029   6.434  0.7267 -0.2229 -0.3186
   47MOL0     C 6237   7.221   8.908   6.506 -0.0498 -0.3193  0.5804
   47MOL0     C 6238   7.318   8.850   6.590 -0.2588 -0.1908  0.1448
   47MOL0     C 6239   7.285   8.725   6.664 -0.0195 -1.4623 -0.8866
   47MOL0     O 6240   7.377   8.671   6.733  0.8497  0.4817 -0.3736
   47MOL0     C 6241   7.346   8.554   6.807 -0.0420 -0.5081 -0.4534
   47MOL0     C 6242   7.250   8.553   6.910  0.0420 -0.8266  0.7356
   47MOL0     C 6243   7.242   8.449   7.004  0.9460 -0.3326 -0.5594
   47MOL0     C 6244   7.310   8.333   6.977 -0.4711 -0.7415 -0.6514
   47MOL0     O 6245   7.301   8.242   7.073  0.4235  0.2267 -0.2845
   47MOL0     C 6246   7.320   8.108   7.031 -0.7522  0.0605  0.0321
   47MOL0     C 6247   7.277   8.017   7.143 -0.0428 -0.2484 -0.5912
   47MOL0     C 6248   7.265   7.877   7.081 -0.1755  0.2536 -0.9300
   47MOL0     C 6249   7.271   7.775   7.195  1.0250 -0.6102  0.0022
   47MOL0     C 6250   7.210   7.647   7.140 -1.1813 -0.6612 -0.2115
   47MOL0     C 6251   7.216   7.543   7.252 -0.0459  0.4005  0.5534
   47MOL0     C 6252   7.177   7.401   7.211 -0.3990  0.5568 -0.6219
   47MOL0     C 6253   7.279   7.314   7.132  0.4743 -0.3920 -0.0994
   47MOL0    Cl 6254   7.308   7.373   6.968  0.5832  0.0873 -0.3270
   47MOL0     C 6255   7.398   8.323   6.867  0.2447 -1.5634  0.3039
   47MOL0     C 6256   7.418   8.437   6.792  0.1655  0.1826 -1.0364
   47MOL0     O 6257   7.166   8.688   6.657 -0.9956  0.0837 -0.1911
   47MOL0     C 6258   7.442   8.918   6.597  0.5431  0.5721  0.1348
   47MOL0     C 6259   7.460   9.036   6.525 -0.2061  0.3695  0.5506
   47MOL0     N 6260   7.868   9.348   5.919 -0.7208  0.7478 -0.1767
   47MOL0     N 6261   7.906   9.416   5.818 -1.3379  0.4683  0.1603
   47MOL0     C 6262   7.049   9.267   6.102 -0.3109 -0.4563 -0.3624
   47MOL0     C 6263   6.956   9.204   6.181 -0.6477 -0.4556 -0.6291
   47MOL0     C 6264   6.569   8.944   6.271 -0.3427 -0.1110 -0.1703
   47MOL0     C 6265   6.500   8.830   6.225  0.8091  0.0958  0.3562
   47MOL0     C 6266   6.422   8.763   6.310  0.9886 -0.3291 -0.4988
   47MOL0     C 6267   6.405   8.797   6.443 -0.2839  0.1630 -0.3582
   47MOL0     O 6268   6.333   8.733   6.541 -0.9537  1.1373  0.1596
   47MOL0     C 6269   6.234   8.632   6.483  0.0372  0.8373 -0.0599
   47MOL0     C 6270   6.121   8.703   6.412  1.0309 -0.7995 -0.4111
   47MOL0     C 6271   6.013   8.608   6.383 -0.4047  0.1949  0.2996
   47MOL0     C 6272   5.896   8.663   6.296  0.5558 -0.2043 -0.8194
   47MOL0     C 6273   5.954   8.708   6.164 -0.7286  0.7494  0.1389
   47MOL0     C 6274   5.994   8.759   6.064 -0.2535  0.3824  0.1143
   47MOL0     C 6275   6.465   8.908   6.493 -0.0909 -1.3956 -0.2285
   47MOL0     C 6276   6.541   8.989   6.411 -0.6898  0.7959 -0.1482
   47MOL0     C 6277   6.605   9.107   6.474 -0.1433 -0.0537 -0.5602
   47MOL0     H 6278   6.706   9.183   5.948  0.5224 -2.8960  0.3423
   47MOL0     H 6279   6.882   9.268   5.806 -0.5913 -1.5393 -0.4025
   47MOL0     H 6280   7.146   9.534   5.915  0.6510  0.1302 -1.1334
   47MOL0     H 6281   7.250   9.419   6.002  0.1624 -1.0297 -0.2115
   47MOL0     H 6282   7.274   9.522   5.703 -0.0891  0.5734  0.8141
   47MOL0     H 6283   7.361   9.400   5.763 -0.7239  0.5751  0.5039
   47MOL0     H 6284   7.438   9.559   5.947 -1.9506 -5.7522 -0.3833
   47MOL0     H 6285   7.334   9.687   5.876 -3.2993 -2.1944  0.4553
   47MOL0     H 6286   7.557   9.538   5.731  2.4065  0.2529  2.9225
   47MOL0     H 6287   7.476   9.674   5.667  0.1841 -0.1640  0.5859
   47MOL0     H 6288   7.579   9.798   5.869 -2.1311 -1.2753  0.4690
   47MOL0     H 6289   7.668   9.639   5.897 -0.8003  1.4360  1.0872
   47MOL0     H 6290   7.737   9.655   5.641  0.5062  2.8328 -2.5790
   47MOL0     H 6291   7.693   9.816   5.640  1.7821 -2.3513 -3.0845
   47MOL0     H 6292   7.843   9.812   5.857 -0.6194  1.3433 -0.6633
   47MOL0     H 6293   7.911   9.846   5.693  2.2021 -2.3770 -1.8726
   47MOL0     H 6294   7.984   9.627   5.660  3.5427 -0.7649  0.5899
   47MOL0     H 6295   8.052   9.710   5.804 -0.4793  0.3719  0.8271
   47MOL0     H 6296   7.865   9.645   6.036 -0.0616  0.5132 -2.2371
   47MOL0     H 6297   7.854   9.300   6.195  1.5044  0.2709 -0.9893
   47MOL0     H 6298   7.796   9.477   6.219  0.5825 -0.3063  1.3939
   47MOL0     H 6299   7.589   9.419   6.104  0.3553  0.8748  1.4036
   47MOL0     H 6300   7.644   9.264   6.070  0.5893  2.8562 -3.1660
   47MOL0     H 6301   7.578   9.388   6.331 -0.3053  0.2078  0.7193
   47MOL0     H 6302   7.655   9.232   6.338 -0.2330  1.5976  0.8165
   47MOL0     H 6303   7.485   9.124   6.209  1.7407  0.9844 -1.8197
   47MOL0     H 6304   7.411   9.264   6.154  0.4422  3.9277  0.9714
   47MOL0     H 6305   7.154   9.070   6.383  1.1808  2.6801  1.0366
   47MOL0     H 6306   7.130   8.849   6.498  0.2523 -0.5861 -1.1649
   47MOL0     H 6307   7.217   8.656   6.923  1.8721  0.1655 -1.6683
   47MOL0     H 6308   7.172   8.454   7.087 -0.0765  0.3634 -1.4242
   47MOL0     H 6309   7.265   8.080   6.941  1.2328  0.0266 -1.2164
   47MOL0     H 6310   7.428   8.091   7.027 -0.8967 -0.9425 -0.0349
   47MOL0     H 6311   7.342   8.014   7.232  0.2036 -0.6404 -0.7844
   47MOL0     H 6312   7.178   8.046   7.180  0.6727  0.3786  0.9124
   47MOL0     H 6313   7.168   7.881   7.029 -0.5987 -1.3152 -0.3438
   47MOL0     H 6314   7.338   7.852   7.005 -1.7690 -1.9313 -1.8458
   47MOL0     H 6315   7.205   7.815   7.273 -1.5951 -2.2166 -1.2573
   47MOL0     H 6316   7.370   7.770   7.241  1.5748  0.3969 -1.0280
   47MOL0     H 6317   7.258   7.624   7.045 -1.1600  2.1716 -0.9723
   47MOL0     H 6318   7.103   7.640   7.122 -2.1514 -0.5260  4.2203
   47MOL0     H 6319   7.324   7.547   7.272  0.2805  1.9051 -1.1778
   47MOL0     H 6320   7.153   7.572   7.337 -4.6175  0.8670 -2.6204
   47MOL0     H 6321   7.079   7.398   7.162 -0.7952  0.9194  0.1281
   47MOL0     H 6322   7.164   7.348   7.306 -4.2602 -1.6344 -2.1289
   47MOL0     H 6323   7.375   7.320   7.185  0.6917 -1.5773 -0.3361
   47MOL0     H 6324   7.247   7.210   7.138  3.5667 -1.4442  0.2503
   47MOL0     H 6325   7.472   8.244   6.867  0.6165 -1.2193  0.6803
   47MOL0     H 6326   7.486   8.417   6.710  1.4617 -2.0848  0.4784
   47MOL0     H 6327   7.525   8.877   6.655  1.1705  2.2764  0.5087
   47MOL0     H 6328   7.545   9.101   6.545 -0.4265  0.5212  1.0207
   47MOL0     H 6329   7.153   9.280   6.132 -1.1173  1.6189  1.8901
   47MOL0     H 6330   6.985   9.181   6.283  0.0031  2.9687  0.0931
   47MOL0     H 6331   6.512   8.792   6.123 -1.8240  2.5193 -0.9736
   47MOL0     H 6332   6.357   8.683   6.275 -1.6266  0.4114  2.3020
   47MOL0     H 6333   6.201   8.566   6.564  2.6847  0.8065  1.1102
   47MOL0     H 6334   6.279   8.554   6.421 -1.2731 -1.1230  1.3741
   47MOL0     H 6335   6.152   8.766   6.328 -0.1757 -0.4951 -0.6378
   47MOL0     H 6336   6.075   8.770   6.486  0.7951  1.2707 -2.3211
   47MOL0     H 6337   5.971   8.575   6.478  2.9653 -2.0752  1.1806
   47MOL0     H 6338   6.059   8.520   6.338  1.0895 -0.0213  2.1422
   47MOL0     H 6339   5.823   8.585   6.275 -0.0555  0.4200 -1.0381
   47MOL0     H 6340   5.847   8.754   6.332  1.9068  0.0032  0.6339
   47MOL0     H 6341   6.037   8.797   5.974  1.2563 -2.5149 -0.4975
   47MOL0     H 6342   6.441   8.932   6.597  2.5426 -0.0878  0.1564
   47MOL0     H 6343   6.714   9.098   6.475 -0.0897 -0.5896  3.4762
   47MOL0     H 6344   6.576   9.199   6.423  0.7786  2.2714  2.7669
   47MOL0     H 6345   6.576   9.119   6.579 -2.2372  1.5800 -1.2533
   48MOL0     O 6346   6.763  11.136   4.783  0.1564  0.1217 -0.1681
   48MOL0     C 6347   6.814  11.234   4.829  0.5663 -0.3734  1.1933
   48MOL0     O 6348   6.923  11.303   4.773  0.4345 -0.1007 -0.4476
   48MOL0     C 6349   6.983  11.251   4.660 -0.0050  0.3438 -0.2007
   48MOL0     C 6350   7.118  11.232   4.670 -0.6374 -0.6462  0.7180
   48MOL0     C 6351   7.189  11.198   4.559 -0.2287 -0.0389 -1.0775
   48MOL0     C 6352   7.126  11.160   4.445 -0.2761  0.4466  0.2804
   48MOL0     O 6353   7.188  11.152   4.321 -0.3309  0.2457  1.0619
   48MOL0     C 6354   7.313  11.089   4.315 -0.1377  0.5507 -0.4937
   48MOL0     C 6355   7.352  11.086   4.171 -1.1229  0.9189  0.0689
   48MOL0     C 6356   7.424  11.212   4.119  0.1321 -0.0307 -0.0293
   48MOL0     C 6357   7.544  11.261   4.201  0.7399 -0.4016  0.0335
   48MOL0     C 6358   7.615  11.391   4.148  0.1209  0.9096 -0.0692
   48MOL0     C 6359   7.538  11.516   4.194 -0.2200 -0.7890  0.4998
   48MOL0     C 6360   7.626  11.639   4.204  0.5178  0.0073  0.3737
   48MOL0     C 6361   7.547  11.764   4.240  0.5495 -0.9035  0.2547
   48MOL0     N 6362   7.619  11.891   4.206  0.0138 -0.5439  0.5268
   48MOL0     C 6363   7.696  11.965   4.290 -0.5346 -0.1574 -0.6690
   48MOL0     C 6364   7.738  12.069   4.209 -0.2688  0.0494 -0.1519
   48MOL0     C 6365   7.850  12.166   4.245  1.7248 -0.0749 -1.0784
   48MOL0     C 6366   7.838  12.302   4.169 -0.3962  1.1935 -0.2961
   48MOL0     C 6367   7.946  12.389   4.237  0.4570 -0.0382  0.9270
   48MOL0     C 6368   7.975  12.517   4.160  0.1708 -0.3784 -0.2914
   48MOL0     O 6369   8.048  12.483   4.042  0.4110 -0.3783 -0.0726
   48MOL0     C 6370   8.086  12.578   3.955  0.2771 -0.0438 -0.0728
   48MOL0     C 6371   8.071  12.718   3.980 -0.5344  0.3613 -0.3463
   48MOL0     C 6372   8.127  12.816   3.895  0.6555  0.0108 -0.0371
   48MOL0     C 6373   8.211  12.772   3.786 -0.2154 -0.7859  0.2646
   48MOL0     C 6374   8.264  12.876   3.696 -0.0236  0.1622  0.2637
   48MOL0     O 6375   8.332  12.836   3.590 -0.1007 -0.6169 -0.2637
   48MOL0     C 6376   8.371  12.930   3.500 -0.4073 -0.1418  0.1347
   48MOL0     C 6377   8.505  12.975   3.514  0.0959  0.3826  0.7615
   48MOL0     C 6378   8.550  13.075   3.426  0.2171  0.6513  1.0007
   48MOL0     C 6379   8.463  13.144   3.336  0.4887  0.5031  0.4803
   48MOL0     O 6380   8.501  13.258   3.268 -0.6955 -0.0842  0.7924
   48MOL0     C 6381   8.553  13.372   3.339 -0.3201  0.9230 -0.6124
   48MOL0     C 6382   8.565  13.480   3.228 -0.7810  0.4198 -0.3742
   48MOL0     C 6383   8.436  13.563   3.217  0.2590 -0.7256  1.0852
   48MOL0     C 6384   8.312  13.488   3.175 -0.5112  0.2345 -0.0339
   48MOL0     C 6385   8.196  13.591   3.143  0.6158 -0.0451 -0.0675
   48MOL0     C 6386   8.064  13.518   3.133  0.6756  0.3927 -0.2207
   48MOL0     C 6387   7.957  13.620   3.090  1.0252  0.0305 -0.0692
   48MOL0     C 6388   7.816  13.564   3.131  0.6638  0.5724  0.5676
   48MOL0    Cl 6389   7.794  13.403   3.053  0.3197  0.2839  0.0310
   48MOL0     C 6390   8.331  13.086   3.321 -0.5010 -0.2764 -0.5050
   48MOL0     C 6391   8.277  12.989   3.414 -0.4404 -0.3583  0.5469
   48MOL0     O 6392   8.238  12.995   3.736 -0.2778  0.5536 -0.4751
   48MOL0     C 6393   8.218  12.639   3.757  0.4669  0.5167  0.4998
   48MOL0     C 6394   8.161  12.537   3.846  0.1296  0.8126  0.8647
   48MOL0     N 6395   7.696  12.050   4.081  0.3268 -0.8644 -0.5434
   48MOL0     N 6396   7.631  11.940   4.080  0.2897  0.5567  0.0986
   48MOL0     C 6397   6.991  11.155   4.437 -0.5691  0.4495  0.2417
   48MOL0     C 6398   6.918  11.207   4.545  0.2770 -0.0634  0.1958
   48MOL0     C 6399   6.769  11.282   4.957  1.6067 -0.9910  0.6863
   48MOL0     C 6400   6.809  11.411   5.001 -0.6854 -0.3517  0.4176
   48MOL0     C 6401   6.768  11.461   5.127 -0.4095 -0.2424 -1.2951
   48MOL0     C 6402   6.690  11.392   5.218 -0.7142 -0.6300 -0.0363
   48MOL0     O 6403   6.666  11.437   5.345 -0.0476  1.2048  0.1598
   48MOL0     C 6404   6.751  11.366   5.450  0.6774  0.1468  0.3187
   48MOL0     C 6405   6.728  11.434   5.586  0.5399 -0.7118 -0.8468
   48MOL0     C 6406   6.581  11.404   5.633  0.0897  0.6990 -0.8283
   48MOL0     C 6407   6.558  11.490   5.757  0.5387  1.0602  0.1099
   48MOL0     C 6408   6.452  11.431   5.839  0.3449 -0.2566  0.2169
   48MOL0     C 6409   6.382  11.409   5.935  0.2517  0.5809  0.4613
   48MOL0     C 6410   6.638  11.269   5.170  0.2029 -0.3404  0.3095
   48MOL0     C 6411   6.678  11.211   5.047  0.6536 -0.0040  0.7347
   48MOL0     C 6412   6.612  11.079   5.012 -0.0001  1.2155 -0.4482
   48MOL0     H 6413   7.169  11.270   4.759 -0.7769 -0.6895  0.8171
   48MOL0     H 6414   7.297  11.207   4.565  0.2251 -4.2851  1.0795
   48MOL0     H 6415   7.387  11.126   4.386  0.5315 -2.8236  0.7730
   48MOL0     H 6416   7.288  10.987   4.348  2.8676  0.5402  2.2470
   48MOL0     H 6417   7.267  11.062   4.107 -0.4670  0.5381 -0.6942
   48MOL0     H 6418   7.427  11.007   4.162  0.3340  2.1695  0.6897
   48MOL0     H 6419   7.353  11.294   4.119 -3.0650 -2.5702 -1.0284
   48MOL0     H 6420   7.468  11.191   4.020  5.1605 -3.5150  2.4649
   48MOL0     H 6421   7.516  11.265   4.307 -1.8630 -0.3275 -0.5857
   48MOL0     H 6422   7.613  11.177   4.190 -0.5444 -1.7788  1.9542
   48MOL0     H 6423   7.716  11.386   4.190  1.6191 -3.0619 -3.4234
   48MOL0     H 6424   7.627  11.387   4.040  0.5573 -0.4040  0.0066
   48MOL0     H 6425   7.450  11.533   4.132  0.1319  0.2203  0.2554
   48MOL0     H 6426   7.495  11.501   4.293  1.5079  1.4457  1.7040
   48MOL0     H 6427   7.689  11.660   4.117  1.6266  2.8644  1.7107
   48MOL0     H 6428   7.701  11.620   4.282  1.6514 -1.1719 -0.9531
   48MOL0     H 6429   7.463  11.760   4.170  1.6541  0.4388 -1.2217
   48MOL0     H 6430   7.514  11.769   4.344  0.2620 -0.4632  0.1483
   48MOL0     H 6431   7.729  11.939   4.391 -1.7671 -0.4152 -0.3138
   48MOL0     H 6432   7.832  12.173   4.353 -2.0906 -0.7976 -1.5203
   48MOL0     H 6433   7.946  12.115   4.233  1.1876 -1.3342 -0.2206
   48MOL0     H 6434   7.854  12.298   4.061  1.1830 -0.7953 -0.0453
   48MOL0     H 6435   7.747  12.358   4.192  0.7158  2.4617  1.2312
   48MOL0     H 6436   8.038  12.332   4.254  0.3833 -0.4369  0.0361
   48MOL0     H 6437   7.900  12.405   4.335 -1.6033  0.9490 -0.1287
   48MOL0     H 6438   8.027  12.597   4.212 -0.3834  0.7960 -1.4865
   48MOL0     H 6439   7.878  12.556   4.131  0.0570  0.3264  1.0096
   48MOL0     H 6440   8.018  12.747   4.070  1.4227 -0.7966  1.2544
   48MOL0     H 6441   8.105  12.917   3.926 -2.3235 -0.6681  0.3531
   48MOL0     H 6442   8.582  12.939   3.581 -0.5060  1.5414  2.1415
   48MOL0     H 6443   8.655  13.099   3.439 -0.4007  3.5303  1.3410
   48MOL0     H 6444   8.492  13.404   3.424  2.4596 -0.4791  2.0791
   48MOL0     H 6445   8.655  13.347   3.368  0.5596  0.9864 -3.4108
   48MOL0     H 6446   8.639  13.553   3.261 -2.6617  1.2328  2.3525
   48MOL0     H 6447   8.586  13.434   3.130  0.2613  0.6718 -0.2818
   48MOL0     H 6448   8.411  13.620   3.307 -1.5169 -2.2968  1.6479
   48MOL0     H 6449   8.453  13.624   3.128 -1.6456 -1.0002  0.4806
   48MOL0     H 6450   8.287  13.426   3.262 -0.0180 -0.6479 -0.5053
   48MOL0     H 6451   8.338  13.437   3.081 -1.2003  1.1922 -0.7627
   48MOL0     H 6452   8.218  13.635   3.045 -1.2673  2.8366  0.6890
   48MOL0     H 6453   8.177  13.662   3.224  0.2063  0.8275 -0.9115
   48MOL0     H 6454   8.060  13.446   3.051 -1.7186 -1.8561  1.7156
   48MOL0     H 6455   8.035  13.472   3.227  0.4642  0.4835 -0.2394
   48MOL0     H 6456   7.960  13.635   2.982 -0.4944 -1.9901 -0.4671
   48MOL0     H 6457   7.972  13.714   3.143  0.1686  0.6500 -0.8809
   48MOL0     H 6458   7.808  13.537   3.237  1.8977 -2.3707  0.0234
   48MOL0     H 6459   7.730  13.627   3.106 -1.2636 -1.5396  1.5214
   48MOL0     H 6460   8.266  13.123   3.242 -3.8914  1.0909  2.6611
   48MOL0     H 6461   8.172  12.961   3.407 -0.0907 -1.6087 -0.1541
   48MOL0     H 6462   8.279  12.600   3.676  2.9163  0.3962  2.2799
   48MOL0     H 6463   8.186  12.431   3.838 -0.4989  0.6526  0.9664
   48MOL0     H 6464   6.953  11.106   4.348  0.3683  0.0905  0.0322
   48MOL0     H 6465   6.810  11.203   4.534  0.2433 -3.5737  0.6318
   48MOL0     H 6466   6.880  11.467   4.941  0.2249 -3.1631 -1.3026
   48MOL0     H 6467   6.820  11.547   5.168 -1.6281  1.0680 -2.3803
   48MOL0     H 6468   6.857  11.383   5.428  0.4449 -0.3309 -1.2556
   48MOL0     H 6469   6.730  11.259   5.455 -0.8199  0.4696  1.8544
   48MOL0     H 6470   6.729  11.540   5.561 -0.9853 -0.7547 -1.2038
   48MOL0     H 6471   6.802  11.399   5.658 -2.0558 -0.5393  2.1331
   48MOL0     H 6472   6.583  11.296   5.651  1.3863  0.3752 -2.5483
   48MOL0     H 6473   6.505  11.407   5.554 -1.6145 -1.6566  0.5898
   48MOL0     H 6474   6.646  11.483   5.823  1.0512  1.6213 -0.4965
   48MOL0     H 6475   6.541  11.596   5.735 -0.3620  0.8244 -0.3554
   48MOL0     H 6476   6.323  11.391   6.023 -1.9400 -2.5415 -1.4528
   48MOL0     H 6477   6.573  11.228   5.246  0.0962 -0.8727 -0.0632
   48MOL0     H 6478   6.542  11.051   5.091  2.4463  0.0699  1.4500
   48MOL0     H 6479   6.563  11.082   4.914  2.0109 -0.8161 -1.6299
   48MOL0     H 6480   6.683  10.995   5.013 -1.1114  0.2687  0.6054
   49MOL0     O 6481   8.909   9.817   8.850  0.4123  0.2301 -0.2524
   49MOL0     C 6482   8.993   9.751   8.919  0.4014 -0.2453  0.0652
   49MOL0     O 6483   8.972   9.632   8.979  0.1425  0.5271 -0.1439
   49MOL0     C 6484   8.847   9.575   8.945  0.0377  0.2707  0.5454
   49MOL0     C 6485   8.829   9.472   8.856 -0.0735 -0.5718  0.4915
   49MOL0     C 6486   8.705   9.442   8.813  0.1119 -0.7080  0.3522
   49MOL0     C 6487   8.584   9.490   8.878 -0.1681  0.0306  1.0787
   49MOL0     O 6488   8.462   9.454   8.819 -0.0335 -0.5093 -1.1242
   49MOL0     C 6489   8.359   9.531   8.877  0.1675  0.3232  0.2437
   49MOL0     C 6490   8.242   9.509   8.793 -0.2432  0.4769  1.0340
   49MOL0     C 6491   8.101   9.521   8.865 -0.9955 -0.2419  0.2947
   49MOL0     C 6492   8.067   9.664   8.872 -0.0837  0.5427  0.5454
   49MOL0     C 6493   7.972   9.699   8.988  0.7180  0.2881 -0.2472
   49MOL0     C 6494   7.946   9.855   8.989  1.3860  0.0738  0.5231
   49MOL0     C 6495   7.838   9.885   9.096 -0.8947 -1.0252 -0.1098
   49MOL0     C 6496   7.795  10.033   9.120  0.1320  0.6050 -0.1771
   49MOL0     N 6497   7.910  10.132   9.123 -0.4342  0.2981  0.1221
   49MOL0     C 6498   7.959  10.190   9.231 -0.3134 -0.2402 -0.5516
   49MOL0     C 6499   8.044  10.286   9.202 -0.0367  0.5552  0.6603
   49MOL0     C 6500   8.098  10.373   9.305 -1.5437  0.3408  0.5627
   49MOL0     C 6501   8.031  10.504   9.286  0.1022 -0.5904 -1.0991
   49MOL0     C 6502   8.028  10.590   9.421  0.3872  0.2983  0.3269
   49MOL0     C 6503   8.010  10.728   9.372 -0.1786 -0.0239  1.1866
   49MOL0     O 6504   7.976  10.804   9.486 -0.2532  0.1740 -1.4172
   49MOL0     C 6505   8.059  10.903   9.530 -0.3352  0.3695 -0.4610
   49MOL0     C 6506   8.096  11.027   9.472 -0.5771  0.5163 -0.4127
   49MOL0     C 6507   8.157  11.125   9.551 -0.4922 -0.4038 -0.1693
   49MOL0     C 6508   8.195  11.107   9.686  0.2552  0.3450  0.0507
   49MOL0     C 6509   8.235  11.223   9.777  0.0163  0.1744  0.0968
   49MOL0     O 6510   8.236  11.350   9.720 -1.0950 -0.5816 -0.7607
   49MOL0     C 6511   8.250  11.459   9.800  0.3548  0.1763  0.4378
   49MOL0     C 6512   8.143  11.535   9.847 -1.2128 -0.4964  0.7600
   49MOL0     C 6513   8.164  11.645   9.932 -0.1445 -0.3259  0.4617
   49MOL0     C 6514   8.296  11.684   9.968  1.0511 -0.1859  1.0113
   49MOL0     O 6515   8.321  11.810  10.016  0.1789 -0.0328 -0.9145
   49MOL0     C 6516   8.214  11.906  10.040  0.9277  0.2176  0.6540
   49MOL0     C 6517   8.280  12.015  10.121 -0.8552 -0.4751  0.3852
   49MOL0     C 6518   8.310  11.978  10.266  0.3670 -0.1395 -0.4350
   49MOL0     C 6519   8.471  11.965  10.280  0.1076 -0.4604  0.1437
   49MOL0     C 6520   8.483  11.945  10.437 -0.1851 -0.3964 -0.3052
   49MOL0     C 6521   8.538  12.068  10.504  0.6648  0.2115  0.1921
   49MOL0     C 6522   8.436  12.180  10.501  0.2488  0.1748 -0.4136
   49MOL0     C 6523   8.477  12.314  10.559 -0.3521  0.1131 -0.4727
   49MOL0    Cl 6524   8.530  12.302  10.734  0.2984  0.3286  0.3464
   49MOL0     C 6525   8.400  11.602   9.928  0.0739 -0.9984 -0.4492
   49MOL0     C 6526   8.376  11.484   9.853 -0.4468  0.2106  0.8248
   49MOL0     O 6527   8.287  11.184   9.881  0.6770  0.3949 -0.3876
   49MOL0     C 6528   8.171  10.978   9.736 -0.9960  0.1855  0.0809
   49MOL0     C 6529   8.108  10.881   9.661  0.0828  0.5540  0.9367
   49MOL0     N 6530   8.044  10.288   9.063  0.8339 -0.1217  0.1080
   49MOL0     N 6531   7.972  10.191   9.019 -0.2375 -0.3905 -0.1932
   49MOL0     C 6532   8.608   9.583   8.980  0.9354  1.0879  0.6446
   49MOL0     C 6533   8.733   9.628   9.009  0.0199  0.5484 -0.7240
   49MOL0     C 6534   9.122   9.815   8.940  0.3110  0.3147 -0.4274
   49MOL0     C 6535   9.208   9.757   9.033 -1.3345 -0.6490  0.6408
   49MOL0     C 6536   9.343   9.785   9.045 -0.3441 -0.2516  0.1245
   49MOL0     C 6537   9.395   9.900   8.990 -0.3104 -0.9165 -0.0185
   49MOL0     O 6538   9.525   9.929   9.020  0.2860  0.2661 -1.1759
   49MOL0     C 6539   9.600  10.016   8.932  0.4778  0.9950 -0.5142
   49MOL0     C 6540   9.745  10.029   8.976  0.5023  0.0896 -1.9645
   49MOL0     C 6541   9.814  10.149   8.913 -0.4215 -0.5714  0.5198
   49MOL0     C 6542   9.958  10.161   8.965  0.3075  0.6672 -0.2516
   49MOL0     C 6543  10.043  10.039   8.977  0.9121 -0.4672 -0.5084
   49MOL0     C 6544  10.111   9.941   9.000  0.5131  0.0812 -0.2688
   49MOL0     C 6545   9.315   9.966   8.894 -0.0607 -0.7014  0.1551
   49MOL0     C 6546   9.181   9.925   8.865  0.1700 -0.1228  0.3679
   49MOL0     C 6547   9.108  10.000   8.762  1.3160 -0.0809  0.0014
   49MOL0     H 6548   8.909   9.425   8.800 -4.0720 -3.8948 -3.1464
   49MOL0     H 6549   8.700   9.372   8.730  2.0969 -0.1833 -0.2587
   49MOL0     H 6550   8.352   9.498   8.981  6.2492  0.2832  1.0049
   49MOL0     H 6551   8.382   9.638   8.868  1.9325 -0.0783 -0.5231
   49MOL0     H 6552   8.249   9.408   8.753 -2.2116  0.4693  0.5770
   49MOL0     H 6553   8.235   9.587   8.717 -0.4448  1.2994  1.8756
   49MOL0     H 6554   8.110   9.464   8.957  0.3000 -0.9593 -0.2520
   49MOL0     H 6555   8.029   9.469   8.801 -1.3806  1.8634 -1.0939
   49MOL0     H 6556   8.160   9.722   8.875  2.8846 -3.7707  1.3300
   49MOL0     H 6557   8.017   9.683   8.777  3.4980  0.0692 -1.5842
   49MOL0     H 6558   7.873   9.654   8.982  0.7456  0.2297 -0.2715
   49MOL0     H 6559   8.009   9.670   9.087 -4.6370  1.9271  2.6404
   49MOL0     H 6560   8.038   9.903   9.025  2.1414 -2.3002  1.9737
   49MOL0     H 6561   7.918   9.892   8.890 -0.6526 -1.2994  0.5375
   49MOL0     H 6562   7.887   9.840   9.183  1.2669 -3.3038 -2.3217
   49MOL0     H 6563   7.756   9.814   9.084  0.3141 -2.4546 -0.3103
   49MOL0     H 6564   7.724  10.077   9.050  1.1841  2.7698  0.0109
   49MOL0     H 6565   7.754  10.047   9.221  0.4345 -0.9729  0.1801
   49MOL0     H 6566   7.932  10.162   9.333  3.4029 -0.9411  0.3962
   49MOL0     H 6567   8.102  10.329   9.405  2.7067 -0.5225  0.1775
   49MOL0     H 6568   8.204  10.388   9.282 -1.1539 -0.7925  1.5188
   49MOL0     H 6569   8.082  10.558   9.207 -1.2928  0.9469 -0.9920
   49MOL0     H 6570   7.927  10.486   9.258 -0.7465  3.9929 -1.6372
   49MOL0     H 6571   8.120  10.568   9.476 -0.0217  1.9343  1.7750
   49MOL0     H 6572   7.945  10.565   9.488 -1.1245  1.3204 -1.0961
   49MOL0     H 6573   7.929  10.728   9.298  2.0394  5.0591 -1.7143
   49MOL0     H 6574   8.093  10.768   9.314 -3.1167  1.7663 -2.2488
   49MOL0     H 6575   8.066  11.056   9.372  0.5923  3.1707 -0.0819
   49MOL0     H 6576   8.169  11.226   9.514 -0.9510  0.3271  1.5562
   49MOL0     H 6577   8.040  11.515   9.818 -2.5786  5.0639  0.7204
   49MOL0     H 6578   8.083  11.710   9.966  0.1610 -1.4115  3.6123
   49MOL0     H 6579   8.162  11.928   9.946  1.2353 -3.0858 -0.4125
   49MOL0     H 6580   8.144  11.849  10.102 -1.3832  1.1142 -0.9770
   49MOL0     H 6581   8.367  12.050  10.065 -1.1935  1.1687  0.8192
   49MOL0     H 6582   8.207  12.097  10.130  0.8696  0.9678  1.9872
   49MOL0     H 6583   8.266  12.057  10.327 -0.0878 -1.7607  1.4681
   49MOL0     H 6584   8.255  11.896  10.314 -1.3707 -0.1813 -2.3875
   49MOL0     H 6585   8.522  12.056  10.248 -0.7402  0.6661  1.8433
   49MOL0     H 6586   8.511  11.884  10.218  0.9924 -1.2400  1.6778
   49MOL0     H 6587   8.558  11.874  10.473  0.5513 -0.1698 -1.3293
   49MOL0     H 6588   8.388  11.927  10.488  1.3175 -0.3409  2.7482
   49MOL0     H 6589   8.559  12.052  10.611 -0.1061 -0.9665  0.1864
   49MOL0     H 6590   8.636  12.096  10.465  1.3752 -3.1378 -0.7886
   49MOL0     H 6591   8.349  12.148  10.560 -3.3028  4.8888 -2.4326
   49MOL0     H 6592   8.406  12.198  10.397  1.1330  0.1151 -0.6839
   49MOL0     H 6593   8.558  12.358  10.501 -0.3422  1.1647  0.3028
   49MOL0     H 6594   8.382  12.368  10.555 -1.8854 -2.4538 -1.2057
   49MOL0     H 6595   8.494  11.641   9.964 -1.5954  1.5848  1.5203
   49MOL0     H 6596   8.458  11.414   9.849  1.2818  2.1421  1.0051
   49MOL0     H 6597   8.201  10.929   9.827 -1.6653 -1.5691 -0.6054
   49MOL0     H 6598   8.104  10.779   9.697 -0.7380  0.1512 -0.2224
   49MOL0     H 6599   8.526   9.633   9.031  1.4008  1.0478  1.4365
   49MOL0     H 6600   8.749   9.703   9.085  1.5739  2.7823 -3.0795
   49MOL0     H 6601   9.175   9.676   9.097 -1.0052  1.2744  3.4294
   49MOL0     H 6602   9.409   9.724   9.105 -0.5307 -1.8959 -1.2803
   49MOL0     H 6603   9.555  10.114   8.915  2.1009  1.9416  0.4826
   49MOL0     H 6604   9.599   9.976   8.830 -2.1464  1.8769 -0.9042
   49MOL0     H 6605   9.790   9.934   8.946  0.4609 -0.1899 -1.1519
   49MOL0     H 6606   9.761  10.049   9.082  2.9587 -0.2710 -2.2035
   49MOL0     H 6607   9.755  10.238   8.935  1.0685  1.1620 -1.9040
   49MOL0     H 6608   9.830  10.136   8.805  0.4421  2.4336  0.1996
   49MOL0     H 6609  10.013  10.235   8.907  1.4671  1.3280  1.6045
   49MOL0     H 6610   9.953  10.201   9.067 -3.7638 -2.0393  0.8691
   49MOL0     H 6611  10.178   9.860   9.018  1.8865  1.3857  0.7905
   49MOL0     H 6612   9.364  10.051   8.847  1.3152 -0.9670  1.0397
   49MOL0     H 6613   9.013  10.044   8.795  0.9401 -0.6109 -0.3377
   49MOL0     H 6614   9.169  10.082   8.724 -2.6441  2.6636 -1.1010
   49MOL0     H 6615   9.079   9.939   8.676 -1.6876  0.1940  0.7075
   50MOL0     O 6616   3.447   5.539   3.730  0.2561 -0.7641 -0.9629
   50MOL0     C 6617   3.486   5.614   3.641 -0.2974 -0.2127  0.8148
   50MOL0     O 6618   3.405   5.703   3.568  0.7031  0.9401 -0.3016
   50MOL0     C 6619   3.280   5.732   3.616 -0.3517 -0.2864  0.5222
   50MOL0     C 6620   3.253   5.762   3.745  0.1775 -1.4433  0.3902
   50MOL0     C 6621   3.135   5.803   3.791  0.8056  0.9497  0.1646
   50MOL0     C 6622   3.024   5.795   3.701 -0.1770  1.0679 -0.3352
   50MOL0     O 6623   2.890   5.809   3.751  0.0217 -0.0565 -0.1528
   50MOL0     C 6624   2.873   5.861   3.885 -0.3374  0.3412  0.9623
   50MOL0     C 6625   2.727   5.869   3.914 -0.1028  0.0952 -0.1442
   50MOL0     C 6626   2.704   5.947   4.047  0.6238  0.0848  0.1949
   50MOL0     C 6627   2.554   5.974   4.048 -0.6656  0.6812  0.1730
   50MOL0     C 6628   2.509   6.042   4.175 -0.0537  0.6611  0.0655
   50MOL0     C 6629   2.410   6.164   4.145  1.0431 -0.1466  0.6549
   50MOL0     C 6630   2.355   6.223   4.267 -1.0225  0.4684  0.0386
   50MOL0     C 6631   2.268   6.339   4.231  0.3089 -0.6341  0.3054
   50MOL0     N 6632   2.237   6.422   4.343 -0.0343  0.3125  0.0770
   50MOL0     C 6633   2.308   6.530   4.379  0.4070 -0.3793 -0.3188
   50MOL0     C 6634   2.218   6.605   4.440  0.4184 -1.0580  0.4115
   50MOL0     C 6635   2.242   6.745   4.479  0.4879 -0.2577 -0.1578
   50MOL0     C 6636   2.114   6.817   4.516 -0.2077 -0.1961  0.9273
   50MOL0     C 6637   2.164   6.967   4.549  0.0742  1.0164  0.1361
   50MOL0     C 6638   2.040   7.055   4.567 -0.3417 -0.1652 -0.3358
   50MOL0     O 6639   1.946   6.996   4.660 -0.3718 -0.2351  0.3036
   50MOL0     C 6640   1.835   7.073   4.688  0.1051  0.2849 -0.6313
   50MOL0     C 6641   1.843   7.179   4.783 -0.4010  0.1108 -0.0332
   50MOL0     C 6642   1.724   7.250   4.804 -0.3594 -0.0868 -0.3034
   50MOL0     C 6643   1.602   7.215   4.757 -0.3916 -0.4479  0.2823
   50MOL0     C 6644   1.475   7.299   4.782  0.0011  0.7057 -0.4757
   50MOL0     O 6645   1.492   7.418   4.836  0.3609 -0.2902 -0.0394
   50MOL0     C 6646   1.390   7.507   4.861  0.7322 -0.4573  0.2373
   50MOL0     C 6647   1.402   7.586   4.975  0.1220  1.4529  0.1874
   50MOL0     C 6648   1.302   7.682   5.018 -0.5636 -0.4536 -0.1537
   50MOL0     C 6649   1.184   7.685   4.946  0.4127  0.1132  0.1035
   50MOL0     O 6650   1.069   7.753   4.987 -0.0737  0.8018  1.1701
   50MOL0     C 6651   1.014   7.707   5.111  0.2579  0.8182  0.3268
   50MOL0     C 6652   0.866   7.729   5.109  0.2354  0.5578 -0.6819
   50MOL0     C 6653   0.795   7.666   4.992 -0.2835 -0.0800  0.4127
   50MOL0     C 6654   0.667   7.748   4.969  0.3706 -0.3709 -0.3186
   50MOL0     C 6655   0.597   7.695   4.846  1.0051 -0.6454 -0.9568
   50MOL0     C 6656   0.504   7.798   4.784 -0.2223 -1.1502  0.6154
   50MOL0     C 6657   0.496   7.801   4.635 -0.1396  1.3515 -0.5349
   50MOL0     C 6658   0.448   7.927   4.563  0.5348  0.3926 -0.0238
   50MOL0    Cl 6659   0.486   7.936   4.388  0.1208 -0.0078 -0.2442
   50MOL0     C 6660   1.169   7.621   4.820 -0.4815 -0.7308 -0.6990
   50MOL0     C 6661   1.267   7.531   4.783  0.7077  0.4515 -0.7436
   50MOL0     O 6662   1.367   7.249   4.743 -0.3285 -0.2398  0.2231
   50MOL0     C 6663   1.599   7.100   4.676  0.3870 -0.4329  0.1498
   50MOL0     C 6664   1.715   7.029   4.638 -0.1714  0.3547  0.2169
   50MOL0     N 6665   2.106   6.528   4.465  0.4915 -0.2099 -0.0768
   50MOL0     N 6666   2.106   6.422   4.399 -0.3802  0.5593 -0.2160
   50MOL0     C 6667   3.042   5.745   3.566  0.2395  0.3515 -0.8273
   50MOL0     C 6668   3.180   5.725   3.525 -0.2952 -0.3249  0.1931
   50MOL0     C 6669   3.633   5.608   3.610  0.1810  1.4555  0.2744
   50MOL0     C 6670   3.701   5.734   3.603 -0.9676  0.4770  1.4562
   50MOL0     C 6671   3.845   5.738   3.588 -0.0651 -0.0605 -0.0788
   50MOL0     C 6672   3.914   5.617   3.583 -0.3070 -0.1506 -0.2696
   50MOL0     O 6673   4.050   5.607   3.572 -0.6644 -0.5427  0.0309
   50MOL0     C 6674   4.111   5.629   3.447  0.5214  0.1713  1.1045
   50MOL0     C 6675   4.243   5.703   3.463  0.2527 -0.5792  0.0797
   50MOL0     C 6676   4.372   5.625   3.443  0.3433 -0.4575  0.7978
   50MOL0     C 6677   4.390   5.505   3.531 -0.2084 -1.2955 -0.2680
   50MOL0     C 6678   4.519   5.448   3.497 -0.1751  0.2119 -0.6723
   50MOL0     C 6679   4.628   5.390   3.479 -0.1868  0.1564  0.8333
   50MOL0     C 6680   3.847   5.506   3.599  0.9699  0.6477  0.6119
   50MOL0     C 6681   3.709   5.489   3.613 -0.3561  0.2098 -0.8557
   50MOL0     C 6682   3.660   5.346   3.627 -0.3505 -0.6821 -0.3828
   50MOL0     H 6683   3.329   5.752   3.823  1.8211  1.6245 -0.6197
   50MOL0     H 6684   3.117   5.823   3.896 -0.1309  0.1446  0.1702
   50MOL0     H 6685   2.935   5.794   3.945  5.1345  1.9162 -2.2131
   50MOL0     H 6686   2.915   5.962   3.881 -4.6391  2.3344 -2.4548
   50MOL0     H 6687   2.701   5.767   3.942  0.7560 -0.0433  0.1765
   50MOL0     H 6688   2.666   5.909   3.832 -0.1990  1.5961  0.6216
   50MOL0     H 6689   2.757   6.042   4.052 -3.8951  3.9424 -6.9668
   50MOL0     H 6690   2.736   5.885   4.131 -1.1790  2.2013  2.6065
   50MOL0     H 6691   2.521   6.037   3.965 -1.0459 -0.6385 -0.7063
   50MOL0     H 6692   2.511   5.874   4.040 -1.9090  1.2319 -0.2499
   50MOL0     H 6693   2.450   5.975   4.238  0.2992 -0.8657 -1.1719
   50MOL0     H 6694   2.595   6.078   4.234 -0.7310  0.8450  0.9720
   50MOL0     H 6695   2.467   6.239   4.090 -0.3996 -0.1080 -0.8535
   50MOL0     H 6696   2.334   6.121   4.080  2.6421  0.9556 -2.0979
   50MOL0     H 6697   2.429   6.255   4.341 -0.5711 -3.3879  1.4620
   50MOL0     H 6698   2.295   6.143   4.311  1.0271 -3.2923 -3.2741
   50MOL0     H 6699   2.314   6.404   4.156  1.7451  0.9482  2.4325
   50MOL0     H 6700   2.176   6.306   4.182 -0.7008 -0.8316  2.2219
   50MOL0     H 6701   2.406   6.567   4.350 -0.3822  1.8476 -0.3103
   50MOL0     H 6702   2.314   6.749   4.561  0.2082  3.5056  0.0825
   50MOL0     H 6703   2.289   6.800   4.396 -0.6421 -0.3701 -0.8987
   50MOL0     H 6704   2.048   6.816   4.429  1.2795  1.1551 -0.2770
   50MOL0     H 6705   2.061   6.771   4.600 -2.8556  1.7071  0.4418
   50MOL0     H 6706   2.220   6.997   4.460  0.2994 -1.8653 -0.8136
   50MOL0     H 6707   2.238   6.959   4.628  0.5729 -4.2928 -0.4694
   50MOL0     H 6708   1.984   7.066   4.473 -0.2603  3.3696 -0.1025
   50MOL0     H 6709   2.079   7.151   4.602 -0.1429 -1.4009  3.2066
   50MOL0     H 6710   1.930   7.214   4.838 -2.4402  1.7856  2.3081
   50MOL0     H 6711   1.739   7.337   4.868  0.0042 -1.6600  1.8707
   50MOL0     H 6712   1.491   7.563   5.033 -0.4886  0.9759  0.9387
   50MOL0     H 6713   1.317   7.733   5.113 -0.2371  2.0830 -1.4720
   50MOL0     H 6714   1.032   7.599   5.112  0.3450  0.7308 -2.7437
   50MOL0     H 6715   1.056   7.752   5.201  1.6937  1.2126 -0.5276
   50MOL0     H 6716   0.831   7.688   5.204  1.1177  1.3486  0.0048
   50MOL0     H 6717   0.855   7.837   5.121  0.9737  0.4221  1.8723
   50MOL0     H 6718   0.858   7.650   4.904  0.0603  0.1871  0.6038
   50MOL0     H 6719   0.782   7.563   5.023  0.2964 -0.6380 -1.0894
   50MOL0     H 6720   0.681   7.856   4.955 -1.9130  0.5758  3.4075
   50MOL0     H 6721   0.603   7.742   5.058 -2.5829  4.0062 -1.7578
   50MOL0     H 6722   0.533   7.609   4.866 -3.4300  1.2568 -5.0270
   50MOL0     H 6723   0.672   7.663   4.772  0.2548  0.7531 -2.3684
   50MOL0     H 6724   0.407   7.775   4.828 -1.1946  2.3933  0.6497
   50MOL0     H 6725   0.527   7.905   4.790 -3.5944 -0.0669 -2.1908
   50MOL0     H 6726   0.443   7.710   4.604  2.4757  0.0156 -1.3698
   50MOL0     H 6727   0.602   7.798   4.607  0.6589 -1.5646  2.1993
   50MOL0     H 6728   0.339   7.925   4.561  0.4646  2.5070 -0.2962
   50MOL0     H 6729   0.482   8.015   4.618 -0.3375 -0.6792  2.3726
   50MOL0     H 6730   1.082   7.643   4.759  0.2656  0.6157 -1.3221
   50MOL0     H 6731   1.271   7.480   4.687  0.1666  1.3500 -1.2571
   50MOL0     H 6732   1.500   7.069   4.645 -1.3625  3.6220  0.9247
   50MOL0     H 6733   1.710   6.944   4.570 -1.4911  0.7486 -0.2088
   50MOL0     H 6734   2.952   5.717   3.513  0.0442 -0.2335 -0.1945
   50MOL0     H 6735   3.198   5.684   3.426  0.2617 -1.9926  0.9456
   50MOL0     H 6736   3.652   5.830   3.590  0.4698  1.1993  1.1553
   50MOL0     H 6737   3.908   5.824   3.568 -0.2391  0.6552  2.2171
   50MOL0     H 6738   4.050   5.684   3.375 -1.6717  0.9077  3.3564
   50MOL0     H 6739   4.135   5.537   3.393 -3.6680  0.2073 -1.1559
   50MOL0     H 6740   4.254   5.771   3.548  3.5482  0.0966 -0.7314
   50MOL0     H 6741   4.245   5.767   3.375 -0.0878 -0.1167  0.4025
   50MOL0     H 6742   4.449   5.702   3.452 -0.6713  1.0045 -1.7292
   50MOL0     H 6743   4.371   5.590   3.339 -0.1933  2.9350 -0.4800
   50MOL0     H 6744   4.392   5.556   3.628  2.2035  4.8863 -2.9998
   50MOL0     H 6745   4.317   5.424   3.526  1.3449 -2.8333  0.8503
   50MOL0     H 6746   4.722   5.346   3.452  0.8026  0.8694  2.8832
   50MOL0     H 6747   3.903   5.413   3.601 -1.1863 -0.8338 -1.8672
   50MOL0     H 6748   3.697   5.314   3.725 -0.0339 -2.1998 -0.9634
   50MOL0     H 6749   3.551   5.353   3.635 -0.4242  4.3944 -2.5436
   50MOL0     H 6750   3.692   5.275   3.550 -0.7541  0.2221 -1.3947
   51MOL0     O 6751   7.321   6.769  10.007 -0.2304  0.2158  0.0049
   51MOL0     C 6752   7.444   6.798  10.006  0.3729  0.8056  0.3453
   51MOL0     O 6753   7.499   6.899  10.091  0.4696  0.5080 -0.9221
   51MOL0     C 6754   7.412   6.969  10.167 -1.1808 -0.0792 -0.6485
   51MOL0     C 6755   7.396   7.104  10.156  0.3701  0.5800  0.5485
   51MOL0     C 6756   7.333   7.184  10.249  0.0988  0.5595 -0.6539
   51MOL0     C 6757   7.260   7.126  10.352 -0.6243 -0.5319  0.1677
   51MOL0     O 6758   7.207   7.202  10.450  0.4631 -0.2714  0.1843
   51MOL0     C 6759   7.200   7.142  10.572  0.5634  1.0101 -1.4913
   51MOL0     C 6760   7.227   7.248  10.669 -0.1991  0.3926 -0.7296
   51MOL0     C 6761   7.259   7.185  10.812  0.1817  0.0358  0.2990
   51MOL0     C 6762   7.185   7.257  10.926 -0.1731  0.6000  0.7181
   51MOL0     C 6763   7.241   7.227  11.060  0.2645 -0.2625  0.6039
   51MOL0     C 6764   7.151   7.274  11.174  0.4010  0.5980  0.2497
   51MOL0     C 6765   7.233   7.264  11.311 -0.3171  0.0402  0.2705
   51MOL0     C 6766   7.204   7.121  11.363  0.1514 -0.4497 -0.0155
   51MOL0     N 6767   7.277   7.097  11.491  0.9520 -0.2804 -0.3989
   51MOL0     C 6768   7.224   7.117  11.617  0.4516 -0.3194 -0.9570
   51MOL0     C 6769   7.334   7.118  11.696 -0.4435  0.7181 -0.1614
   51MOL0     C 6770   7.328   7.139  11.844  0.4803 -0.7916  0.0113
   51MOL0     C 6771   7.231   7.054  11.923  0.4252  0.0723 -0.3761
   51MOL0     C 6772   7.324   6.947  11.990  0.4254  0.2944 -0.0972
   51MOL0     C 6773   7.399   7.004  12.106 -0.0411 -0.3018  0.0165
   51MOL0     O 6774   7.301   7.046  12.206  0.0630 -0.3360 -0.2261
   51MOL0     C 6775   7.346   7.120  12.313 -0.7369  0.1146  0.3828
   51MOL0     C 6776   7.330   7.059  12.441  0.7967  0.0459  0.7458
   51MOL0     C 6777   7.402   7.103  12.551  0.6466 -1.1147  0.3781
   51MOL0     C 6778   7.488   7.210  12.542  0.8636  0.1870 -0.7830
   51MOL0     C 6779   7.568   7.264  12.657  0.0461  0.5447  0.3813
   51MOL0     O 6780   7.544   7.205  12.782 -0.9713  0.1576 -0.6243
   51MOL0     C 6781   7.635   7.258  12.873  0.3405  0.5281  0.3124
   51MOL0     C 6782   7.592   7.332  12.979  0.4269 -0.2361  0.0235
   51MOL0     C 6783   7.679   7.369  13.083  0.4173 -0.7305 -0.2094
   51MOL0     C 6784   7.807   7.308  13.085 -0.5143 -0.0068 -0.5716
   51MOL0     O 6785   7.901   7.323  13.185  0.0575 -0.6845 -0.0187
   51MOL0     C 6786   7.857   7.398  13.302  0.2351 -0.4707  0.0180
   51MOL0     C 6787   7.957   7.383  13.426  0.1505 -0.0597 -0.6638
   51MOL0     C 6788   8.006   7.245  13.447  0.7440 -0.5353  0.8424
   51MOL0     C 6789   8.096   7.246  13.568 -0.0176 -0.0530  0.8337
   51MOL0     C 6790   8.176   7.116  13.561  0.6009  0.8869  0.3885
   51MOL0     C 6791   8.085   6.986  13.543  0.1620 -0.5790  0.1707
   51MOL0     C 6792   8.185   6.864  13.529 -0.4560 -0.1291  0.1538
   51MOL0     C 6793   8.263   6.836  13.656 -0.2851  0.8608  0.2353
   51MOL0    Cl 6794   8.173   6.836  13.806 -0.1857  0.6088  0.2694
   51MOL0     C 6795   7.855   7.240  12.983 -0.1436  0.5797  0.7453
   51MOL0     C 6796   7.770   7.210  12.875  0.4930  0.5454  0.1665
   51MOL0     O 6797   7.643   7.355  12.639  0.2849  0.0991 -0.5966
   51MOL0     C 6798   7.507   7.265  12.416  0.8446 -0.1939  0.2028
   51MOL0     C 6799   7.441   7.225  12.308  1.3872  1.0428 -0.0053
   51MOL0     N 6800   7.451   7.106  11.617 -0.0621  0.1760 -0.0009
   51MOL0     N 6801   7.413   7.093  11.493  0.0369  0.2060  0.4957
   51MOL0     C 6802   7.254   6.986  10.346  0.6174 -1.4487  0.1461
   51MOL0     C 6803   7.336   6.913  10.266 -0.7102  0.2469  0.2176
   51MOL0     C 6804   7.529   6.740   9.900  0.4287 -0.0758  0.1137
   51MOL0     C 6805   7.470   6.655   9.804  0.3376  0.3181  0.9902
   51MOL0     C 6806   7.530   6.610   9.690  0.5602  0.0508  0.3391
   51MOL0     C 6807   7.665   6.641   9.670  0.4574  0.2298 -0.0337
   51MOL0     O 6808   7.744   6.598   9.564  0.2108  0.5123  0.3815
   51MOL0     C 6809   7.692   6.499   9.475  0.1469  0.2889  1.0469
   51MOL0     C 6810   7.763   6.512   9.339 -0.0447  0.8948  0.5506
   51MOL0     C 6811   7.918   6.518   9.350 -0.9407 -0.2415  0.4370
   51MOL0     C 6812   7.994   6.400   9.408 -0.5212 -0.1925  0.8213
   51MOL0     C 6813   8.131   6.432   9.440 -1.0253  0.4395 -0.4766
   51MOL0     C 6814   8.247   6.456   9.462 -0.8209  0.4998 -0.3697
   51MOL0     C 6815   7.727   6.727   9.757  0.1087  0.8247 -0.0858
   51MOL0     C 6816   7.660   6.778   9.876  0.2433 -0.4109 -0.0844
   51MOL0     C 6817   7.747   6.849   9.975  0.5195  0.0474 -0.0703
   51MOL0     H 6818   7.452   7.167  10.087 -0.7210  1.9853  0.8902
   51MOL0     H 6819   7.346   7.291  10.245  0.6365  0.4882 -0.9763
   51MOL0     H 6820   7.102   7.101  10.599  0.4920  2.6664  1.1505
   51MOL0     H 6821   7.272   7.061  10.588 -1.0614 -0.7476 -2.6843
   51MOL0     H 6822   7.143   7.318  10.670 -0.4248  0.1461  1.7142
   51MOL0     H 6823   7.316   7.305  10.642 -0.2085  1.3515  1.1491
   51MOL0     H 6824   7.368   7.192  10.826  0.4559  3.0690 -2.1981
   51MOL0     H 6825   7.235   7.079  10.815  0.4386 -0.1643 -2.3041
   51MOL0     H 6826   7.188   7.366  10.910 -0.3066  0.8323  2.1666
   51MOL0     H 6827   7.081   7.223  10.932  0.4647 -1.9476 -0.9678
   51MOL0     H 6828   7.259   7.119  11.064  2.6895  0.1293  2.1900
   51MOL0     H 6829   7.343   7.264  11.072  2.0533 -4.3858 -0.0575
   51MOL0     H 6830   7.127   7.380  11.160  0.8795  0.9669  1.9591
   51MOL0     H 6831   7.058   7.216  11.172  1.4134 -1.1587  1.3169
   51MOL0     H 6832   7.204   7.345  11.379  0.2159 -0.7207  1.4167
   51MOL0     H 6833   7.341   7.266  11.295 -0.3117 -0.9209  0.1440
   51MOL0     H 6834   7.097   7.111  11.388  0.2249 -0.7188  0.1908
   51MOL0     H 6835   7.240   7.049  11.289  2.3565 -1.7146  2.1460
   51MOL0     H 6836   7.123   7.141  11.650  1.5111  2.6527  0.5148
   51MOL0     H 6837   7.429   7.132  11.888 -0.6011 -3.8670  2.3876
   51MOL0     H 6838   7.298   7.243  11.851 -1.3552 -1.3994  4.9787
   51MOL0     H 6839   7.186   7.127  11.990  0.8788  1.5460 -1.6027
   51MOL0     H 6840   7.164   7.022  11.843  1.2565  3.4830 -2.6671
   51MOL0     H 6841   7.396   6.904  11.920  0.2160 -1.5226  0.7691
   51MOL0     H 6842   7.266   6.864  12.031 -0.1562  1.8595  2.4667
   51MOL0     H 6843   7.456   7.094  12.080  0.0601 -1.0651 -2.8324
   51MOL0     H 6844   7.469   6.930  12.144  2.3300  0.6042 -2.2768
   51MOL0     H 6845   7.258   6.979  12.456 -0.3378  0.6007 -1.3376
   51MOL0     H 6846   7.398   7.040  12.639  0.9989  2.1092  2.8882
   51MOL0     H 6847   7.494   7.378  12.969  0.7247  0.5538  0.6337
   51MOL0     H 6848   7.633   7.429  13.161  1.1575  0.7369 -0.8699
   51MOL0     H 6849   7.858   7.503  13.271  5.1457 -0.0623  0.7035
   51MOL0     H 6850   7.759   7.364  13.336 -0.9567  2.8620  0.3290
   51MOL0     H 6851   8.044   7.445  13.407 -0.2760  0.9038  0.4350
   51MOL0     H 6852   7.901   7.426  13.510  0.5981 -2.4195  0.9500
   51MOL0     H 6853   7.920   7.178  13.451 -0.4255  0.9792  2.3067
   51MOL0     H 6854   8.057   7.209  13.357 -2.1218 -1.7267 -0.4310
   51MOL0     H 6855   8.036   7.247  13.659  0.7543  2.5651  1.3873
   51MOL0     H 6856   8.171   7.326  13.563 -1.4924  1.3072 -0.3467
   51MOL0     H 6857   8.218   7.099  13.660  2.9832  0.2451 -0.6703
   51MOL0     H 6858   8.249   7.128  13.481 -1.1461 -0.2839 -1.4657
   51MOL0     H 6859   8.012   6.987  13.624  0.9219 -3.7831  1.0507
   51MOL0     H 6860   8.025   6.983  13.452 -1.4667 -2.8984  1.2307
   51MOL0     H 6861   8.253   6.901  13.452 -0.1048  1.0057  0.9800
   51MOL0     H 6862   8.139   6.775  13.486 -0.3854  0.0927 -0.3793
   51MOL0     H 6863   8.305   6.735  13.649 -2.0613  0.0617  0.5042
   51MOL0     H 6864   8.345   6.908  13.665 -1.0976  1.8561 -0.1109
   51MOL0     H 6865   7.958   7.207  12.984 -0.6787 -1.5039 -2.0944
   51MOL0     H 6866   7.801   7.147  12.792 -1.3077 -1.2090  0.7607
   51MOL0     H 6867   7.573   7.351  12.403  0.3167  0.2315  0.2835
   51MOL0     H 6868   7.453   7.268  12.209 -1.6617  0.9848 -0.4899
   51MOL0     H 6869   7.197   6.939  10.426 -1.4221  0.8446  0.1724
   51MOL0     H 6870   7.330   6.805  10.278 -0.0080  0.4435  3.0557
   51MOL0     H 6871   7.370   6.617   9.824  0.4531 -1.7220 -1.7228
   51MOL0     H 6872   7.488   6.544   9.616  4.4704 -1.3056 -0.9531
   51MOL0     H 6873   7.587   6.507   9.446 -0.3753 -2.8097  1.7926
   51MOL0     H 6874   7.702   6.399   9.517 -0.4456  0.0442  0.6187
   51MOL0     H 6875   7.730   6.597   9.279  0.6143 -0.3716 -1.7464
   51MOL0     H 6876   7.753   6.423   9.275  2.6277 -0.3995  1.7795
   51MOL0     H 6877   7.947   6.610   9.401 -1.9335 -1.5310  3.5795
   51MOL0     H 6878   7.951   6.505   9.247  2.8644 -0.6757  1.5572
   51MOL0     H 6879   7.940   6.353   9.491  0.7054 -3.3710 -0.0063
   51MOL0     H 6880   8.005   6.327   9.328  3.1211  3.2804 -2.2405
   51MOL0     H 6881   8.350   6.464   9.489 -1.1187  1.0468  0.6541
   51MOL0     H 6882   7.829   6.757   9.734  0.3028  0.5160  0.3414
   51MOL0     H 6883   7.852   6.834   9.949  0.7672  1.1185  0.2583
   51MOL0     H 6884   7.741   6.958   9.968 -0.7291 -0.0486 -0.7158
   51MOL0     H 6885   7.721   6.811  10.074  0.4553 -1.0310 -0.4853
   52MOL0     O 6886  10.349  11.494  10.130  0.7998 -0.9933 -0.2188
   52MOL0     C 6887  10.262  11.483  10.216 -0.7637 -0.8361 -0.3641
   52MOL0     O 6888  10.286  11.489  10.351  0.0584  0.2191  1.2322
   52MOL0     C 6889  10.405  11.460  10.406 -0.0935 -0.9348 -0.8461
   52MOL0     C 6890  10.501  11.361  10.375  0.6033  1.0328 -0.2114
   52MOL0     C 6891  10.617  11.350  10.442  0.3838 -0.2809 -0.8297
   52MOL0     C 6892  10.639  11.417  10.556  0.5955 -0.2951 -0.2317
   52MOL0     O 6893  10.750  11.399  10.625  1.1759 -0.1006 -0.2042
   52MOL0     C 6894  10.745  11.278  10.711  0.3968 -0.3505  0.0335
   52MOL0     C 6895  10.862  11.286  10.811  0.5907  1.3420  0.3097
   52MOL0     C 6896  11.004  11.293  10.752 -0.0806 -0.3695  0.3772
   52MOL0     C 6897  11.112  11.269  10.863  0.1888  0.8781  0.0207
   52MOL0     C 6898  11.251  11.289  10.814 -0.3075  0.5401 -0.1564
   52MOL0     C 6899  11.339  11.222  10.913 -0.0184 -0.2879 -0.9080
   52MOL0     C 6900  11.482  11.281  10.903 -1.0268  0.2730  0.2947
   52MOL0     C 6901  11.583  11.223  11.010  0.2084  0.3524 -0.0656
   52MOL0     N 6902  11.524  11.250  11.143 -0.3925  0.1562  1.4584
   52MOL0     C 6903  11.471  11.369  11.192  0.1875 -0.0862 -0.0139
   52MOL0     C 6904  11.406  11.338  11.303 -0.2015  0.0783 -0.4529
   52MOL0     C 6905  11.329  11.430  11.391 -0.5361 -0.3450 -0.0325
   52MOL0     C 6906  11.183  11.465  11.345 -0.4742 -0.5385  0.0244
   52MOL0     C 6907  11.185  11.530  11.198  0.1201 -0.4831 -0.2956
   52MOL0     C 6908  11.064  11.597  11.169  0.0134 -0.0865  0.2831
   52MOL0     O 6909  10.954  11.501  11.159  0.1606 -0.6100  0.1266
   52MOL0     C 6910  10.829  11.531  11.121  0.0391 -0.3387  0.0313
   52MOL0     C 6911  10.722  11.446  11.146 -1.2029 -0.0356  0.3769
   52MOL0     C 6912  10.586  11.477  11.111 -0.1189 -0.0923 -0.4368
   52MOL0     C 6913  10.560  11.606  11.049 -0.0772 -0.3223 -0.6608
   52MOL0     C 6914  10.424  11.658  10.995 -0.1101  0.1300 -0.1883
   52MOL0     O 6915  10.320  11.568  10.988  0.3496 -0.6148  0.2193
   52MOL0     C 6916  10.200  11.615  10.944 -0.1101  1.0451 -0.1661
   52MOL0     C 6917  10.165  11.594  10.807  0.0010  1.2909  0.0779
   52MOL0     C 6918  10.042  11.639  10.752  1.1933  0.2558  0.0538
   52MOL0     C 6919   9.955  11.703  10.844  0.2568 -1.0314  0.3669
   52MOL0     O 6920   9.832  11.735  10.795 -0.8288 -0.2813  1.0414
   52MOL0     C 6921   9.719  11.693  10.867 -0.0232  0.1183 -0.0870
   52MOL0     C 6922   9.631  11.617  10.773 -0.2252  0.7653 -0.2310
   52MOL0     C 6923   9.580  11.688  10.644  0.4853  0.7890  0.2277
   52MOL0     C 6924   9.445  11.764  10.674  0.1522  0.4515 -0.1875
   52MOL0     C 6925   9.352  11.765  10.550 -1.0275 -0.3486  0.4440
   52MOL0     C 6926   9.239  11.859  10.594  0.0064 -0.2972 -0.5313
   52MOL0     C 6927   9.136  11.877  10.478  0.0121 -0.0899 -0.2035
   52MOL0     C 6928   9.032  11.756  10.466 -0.4670  0.2942  0.3268
   52MOL0    Cl 6929   8.902  11.773  10.586 -0.4271  0.5007  0.5966
   52MOL0     C 6930   9.984  11.719  10.982  0.1179 -0.8147  0.7345
   52MOL0     C 6931  10.105  11.672  11.029  0.8603 -0.4234  0.8425
   52MOL0     O 6932  10.426  11.778  10.969  0.1146 -0.7661  0.5763
   52MOL0     C 6933  10.671  11.691  11.026 -0.5498  0.0191 -0.9748
   52MOL0     C 6934  10.799  11.650  11.059 -0.1380 -0.9788 -0.2851
   52MOL0     N 6935  11.401  11.196  11.321  0.4705 -0.2293 -0.0215
   52MOL0     N 6936  11.473  11.152  11.222  0.0171 -0.6042  1.0903
   52MOL0     C 6937  10.546  11.505  10.610  0.1720  0.5854  0.1096
   52MOL0     C 6938  10.430  11.541  10.528 -0.8964  0.4216 -0.0383
   52MOL0     C 6939  10.126  11.435  10.178  0.2135  0.2085  1.2114
   52MOL0     C 6940  10.030  11.400  10.274  0.5321  0.4497 -0.2002
   52MOL0     C 6941   9.905  11.355  10.239  0.2635  0.7036 -0.0273
   52MOL0     C 6942   9.869  11.326  10.106 -0.7937  0.3287  0.7693
   52MOL0     O 6943   9.749  11.286  10.058 -0.6253  0.3186 -0.2101
   52MOL0     C 6944   9.668  11.210  10.155 -1.1348 -0.1982 -0.1890
   52MOL0     C 6945   9.533  11.175  10.092 -0.3256  0.9110  1.0738
   52MOL0     C 6946   9.570  11.099   9.975  0.2464  0.4468  0.5992
   52MOL0     C 6947   9.431  11.053   9.918 -0.0790  0.1308 -0.8175
   52MOL0     C 6948   9.463  10.969   9.800  0.4523  0.5867 -0.5403
   52MOL0     C 6949   9.508  10.899   9.719 -0.2384  0.3373  0.3051
   52MOL0     C 6950   9.964  11.358  10.007 -0.4324 -0.1006 -0.1461
   52MOL0     C 6951  10.094  11.407  10.040 -0.1746  0.4903  0.1611
   52MOL0     C 6952  10.180  11.422   9.916 -0.2421 -0.1718 -0.6139
   52MOL0     H 6953  10.474  11.300  10.289 -1.3176  0.5023  0.6866
   52MOL0     H 6954  10.703  11.288  10.421  1.8221  1.9168 -1.8708
   52MOL0     H 6955  10.651  11.278  10.767 -0.1378  1.9895 -0.7081
   52MOL0     H 6956  10.755  11.201  10.634 -2.3572 -0.4002 -0.3668
   52MOL0     H 6957  10.860  11.186  10.853 -1.8058  1.6635  1.1137
   52MOL0     H 6958  10.845  11.367  10.883  2.1072  0.1981  2.0447
   52MOL0     H 6959  11.029  11.388  10.704 -1.7195  0.0287  0.2236
   52MOL0     H 6960  11.026  11.210  10.685 -1.6805  0.9636 -1.9464
   52MOL0     H 6961  11.085  11.336  10.945 -4.5264 -0.9215  0.2581
   52MOL0     H 6962  11.109  11.166  10.901  1.0605  1.0002  0.4351
   52MOL0     H 6963  11.265  11.258  10.710 -0.7801  1.8457 -0.6362
   52MOL0     H 6964  11.268  11.397  10.823 -2.7405  0.8235  2.8315
   52MOL0     H 6965  11.301  11.236  11.014  0.7345 -0.1048 -0.6469
   52MOL0     H 6966  11.338  11.113  10.903 -3.7766 -0.6407  1.4951
   52MOL0     H 6967  11.485  11.389  10.921 -0.0057  0.0899  1.3046
   52MOL0     H 6968  11.518  11.255  10.803  0.1778  1.1875  0.4565
   52MOL0     H 6969  11.597  11.117  10.989  3.9657  0.6276  0.3601
   52MOL0     H 6970  11.681  11.271  11.001 -0.2755  1.3251 -0.2638
   52MOL0     H 6971  11.474  11.470  11.154 -0.0321  0.1206  0.4981
   52MOL0     H 6972  11.330  11.388  11.492 -1.1674  1.7397  0.8897
   52MOL0     H 6973  11.383  11.525  11.390  1.8019 -1.5955 -0.1022
   52MOL0     H 6974  11.127  11.372  11.333  1.2128 -1.5280 -0.5375
   52MOL0     H 6975  11.139  11.528  11.422  1.0676 -1.4279  1.7436
   52MOL0     H 6976  11.190  11.463  11.111 -0.3756  0.5954 -1.1745
   52MOL0     H 6977  11.268  11.601  11.199  0.5052 -0.7884  2.9423
   52MOL0     H 6978  11.075  11.659  11.080  2.0029 -0.6450  0.0993
   52MOL0     H 6979  11.045  11.659  11.257 -2.3448 -2.9402  1.9561
   52MOL0     H 6980  10.743  11.350  11.193  0.5210  0.9482  1.7248
   52MOL0     H 6981  10.496  11.421  11.134  0.3781 -1.1392 -0.9558
   52MOL0     H 6982  10.235  11.538  10.745 -0.9702  0.0837  0.0355
   52MOL0     H 6983  10.016  11.631  10.646 -2.3691  3.2107  0.4981
   52MOL0     H 6984   9.737  11.624  10.950  0.5510 -0.2436 -0.5011
   52MOL0     H 6985   9.662  11.781  10.897  2.9628  2.1309  0.1317
   52MOL0     H 6986   9.696  11.539  10.732  1.3010  1.4448  0.7705
   52MOL0     H 6987   9.553  11.579  10.838  0.0657 -0.8168 -0.7758
   52MOL0     H 6988   9.653  11.762  10.612  0.2903  2.2794  2.9150
   52MOL0     H 6989   9.556  11.608  10.573 -3.4189 -0.5619  2.7375
   52MOL0     H 6990   9.472  11.863  10.711  1.9082  0.5378 -1.5861
   52MOL0     H 6991   9.394  11.709  10.754  5.8074 -1.2505  2.7258
   52MOL0     H 6992   9.330  11.659  10.531  0.4957 -0.7395  0.7019
   52MOL0     H 6993   9.409  11.806  10.467 -0.7500 -1.9654 -0.1926
   52MOL0     H 6994   9.183  11.837  10.685 -0.0566  2.1291  0.0961
   52MOL0     H 6995   9.273  11.962  10.612 -3.0813  0.9406 -1.0846
   52MOL0     H 6996   9.177  11.875  10.376 -3.7964  0.2789 -1.8869
   52MOL0     H 6997   9.080  11.969  10.498 -0.8138 -0.9195  1.3998
   52MOL0     H 6998   8.979  11.749  10.372 -0.9018 -2.5261  0.6973
   52MOL0     H 6999   9.105  11.675  10.477  1.4039  1.4523 -2.3952
   52MOL0     H 7000   9.919  11.776  11.048  0.6023  0.5528  0.0744
   52MOL0     H 7001  10.128  11.690  11.134 -1.2074  1.5117  1.0507
   52MOL0     H 7002  10.671  11.779  10.963  0.3133  0.7662  0.0352
   52MOL0     H 7003  10.876  11.725  11.044  0.6672 -1.3776  1.5388
   52MOL0     H 7004  10.572  11.557  10.702  3.0732  0.1101 -0.3509
   52MOL0     H 7005  10.360  11.623  10.542  1.5829  2.5844  0.5661
   52MOL0     H 7006  10.057  11.422  10.377 -1.1380  1.4643  0.0593
   52MOL0     H 7007   9.836  11.327  10.317 -0.1161 -4.9461 -1.9490
   52MOL0     H 7008   9.648  11.278  10.238 -0.4827  1.1406 -1.0858
   52MOL0     H 7009   9.728  11.121  10.179 -2.2086 -0.9197 -0.1154
   52MOL0     H 7010   9.478  11.264  10.062 -1.0240 -0.4664 -2.1235
   52MOL0     H 7011   9.477  11.119  10.168 -0.8979 -0.7693 -0.5137
   52MOL0     H 7012   9.631  11.013  10.003  0.6284  0.2847 -0.6533
   52MOL0     H 7013   9.637  11.157   9.911  1.8302 -2.1262 -0.2325
   52MOL0     H 7014   9.391  10.983   9.991  1.1697 -0.8038 -0.9986
   52MOL0     H 7015   9.372  11.143   9.899 -1.0239 -0.4679 -0.8096
   52MOL0     H 7016   9.541  10.831   9.643 -1.7550  0.1987 -0.2701
   52MOL0     H 7017   9.932  11.336   9.906 -0.7093  2.0326 -0.5779
   52MOL0     H 7018  10.114  11.446   9.832  0.5827 -1.5109 -1.6845
   52MOL0     H 7019  10.237  11.513   9.935  2.3495 -2.0169  1.1199
   52MOL0     H 7020  10.255  11.344   9.900  0.2451  0.2617 -0.4643
   53MOL0     O 7021   1.677   3.487  11.433  0.2566 -1.1889  0.7632
   53MOL0     C 7022   1.745   3.389  11.447  1.0834  0.8422  0.3140
   53MOL0     O 7023   1.875   3.375  11.501  0.8758 -0.1577  0.1203
   53MOL0     C 7024   1.965   3.469  11.464  0.3740  0.1126  0.9837
   53MOL0     C 7025   2.030   3.547  11.562  0.2780  0.1434  0.0257
   53MOL0     C 7026   2.137   3.627  11.523 -0.9579  0.1667  0.1760
   53MOL0     C 7027   2.170   3.632  11.389 -0.3275 -0.4130  0.0649
   53MOL0     O 7028   2.277   3.707  11.345 -0.1802 -0.0571 -0.6079
   53MOL0     C 7029   2.266   3.844  11.350  0.0985  0.1383  0.5160
   53MOL0     C 7030   2.290   3.886  11.203 -0.4938 -0.4350 -0.3980
   53MOL0     C 7031   2.443   3.865  11.168  0.4282  0.8505 -0.4802
   53MOL0     C 7032   2.445   3.741  11.065  0.1147 -0.6821  1.1608
   53MOL0     C 7033   2.591   3.711  11.018 -0.4654  0.1597  0.0477
   53MOL0     C 7034   2.680   3.817  10.936 -0.6094 -1.0367  0.2540
   53MOL0     C 7035   2.633   3.836  10.794 -0.7682  0.0828 -0.2337
   53MOL0     C 7036   2.718   3.940  10.729 -0.1442  0.5500 -0.3056
   53MOL0     N 7037   2.648   4.068  10.741  0.5190  0.7820 -0.5344
   53MOL0     C 7038   2.710   4.190  10.742  0.5369 -0.6036 -0.2143
   53MOL0     C 7039   2.616   4.287  10.701 -0.3096  0.7215  0.4824
   53MOL0     C 7040   2.640   4.435  10.681  0.3738  0.0389 -1.0105
   53MOL0     C 7041   2.658   4.513  10.810 -0.8040  0.0179 -0.3413
   53MOL0     C 7042   2.668   4.663  10.802  0.3640  0.0965 -0.2113
   53MOL0     C 7043   2.791   4.723  10.730 -0.9339 -0.2049  0.6624
   53MOL0     O 7044   2.823   4.861  10.768  0.1763 -0.0394 -0.4703
   53MOL0     C 7045   2.731   4.959  10.717  0.4029 -0.8883 -0.2216
   53MOL0     C 7046   2.687   4.955  10.588 -0.2560  0.0948  1.2159
   53MOL0     C 7047   2.617   5.056  10.526 -0.1178 -0.6629 -0.6824
   53MOL0     C 7048   2.584   5.172  10.603 -0.2206  0.8185 -0.3529
   53MOL0     C 7049   2.496   5.277  10.557  0.4095 -0.0895 -0.2959
   53MOL0     O 7050   2.407   5.321  10.655  0.4654  0.0229  0.5253
   53MOL0     C 7051   2.344   5.446  10.648  0.2352  0.8272  0.0079
   53MOL0     C 7052   2.396   5.547  10.568  0.0173 -0.3436  0.8876
   53MOL0     C 7053   2.334   5.676  10.568 -0.6953 -0.2764 -0.2341
   53MOL0     C 7054   2.220   5.697  10.645  1.2075 -0.4410 -0.5108
   53MOL0     O 7055   2.159   5.818  10.612 -0.9100  0.4454  0.3948
   53MOL0     C 7056   2.028   5.834  10.652 -0.8945  1.1013 -0.0300
   53MOL0     C 7057   1.987   5.986  10.612  0.6009  0.6457 -0.5977
   53MOL0     C 7058   2.034   6.096  10.706  0.1444 -0.7121  0.0404
   53MOL0     C 7059   1.945   6.122  10.825  0.4656 -0.0795  1.0305
   53MOL0     C 7060   1.998   6.241  10.896 -1.0760 -0.0248 -1.3980
   53MOL0     C 7061   2.141   6.218  10.939 -0.7849 -0.0670 -0.1889
   53MOL0     C 7062   2.202   6.305  11.052  0.3753  0.4975 -0.2240
   53MOL0     C 7063   2.341   6.259  11.098 -0.3440 -0.7053 -0.1861
   53MOL0    Cl 7064   2.399   6.377  11.212  0.5022  0.1723 -0.0203
   53MOL0     C 7065   2.167   5.591  10.713 -0.3813  0.1201 -0.4745
   53MOL0     C 7066   2.229   5.471  10.727 -0.9536 -0.7098  0.3867
   53MOL0     O 7067   2.499   5.319  10.446 -0.0192 -0.6245  0.5044
   53MOL0     C 7068   2.630   5.175  10.733 -0.0610 -0.4942 -0.1683
   53MOL0     C 7069   2.704   5.071  10.790  0.5290  0.3943  0.4961
   53MOL0     N 7070   2.498   4.213  10.682  0.0198  0.7677 -0.3054
   53MOL0     N 7071   2.525   4.088  10.696  0.0590  0.2523  0.1633
   53MOL0     C 7072   2.115   3.542  11.298 -0.2848  0.5851  0.3272
   53MOL0     C 7073   2.008   3.461  11.328 -0.2246 -0.3728 -0.4636
   53MOL0     C 7074   1.685   3.259  11.400  0.0367  0.1673 -0.4481
   53MOL0     C 7075   1.758   3.141  11.447  0.2161 -0.1906 -0.5008
   53MOL0     C 7076   1.737   3.018  11.386 -0.2551 -0.0083 -0.0459
   53MOL0     C 7077   1.635   2.995  11.290 -0.0225 -0.9029  0.3180
   53MOL0     O 7078   1.590   2.877  11.247  0.7444  1.1075  0.1244
   53MOL0     C 7079   1.674   2.765  11.234  0.2489 -0.0615  0.3332
   53MOL0     C 7080   1.698   2.714  11.088  0.1852 -1.3750  0.5209
   53MOL0     C 7081   1.757   2.844  11.012  0.5694 -0.1614 -0.2263
   53MOL0     C 7082   1.776   2.823  10.856 -0.3314 -0.9923  0.2102
   53MOL0     C 7083   1.911   2.800  10.815 -0.5304 -0.1721 -0.2433
   53MOL0     C 7084   2.027   2.800  10.764 -0.1303 -0.1388  0.6205
   53MOL0     C 7085   1.561   3.106  11.246 -0.3637  0.3804 -0.3620
   53MOL0     C 7086   1.587   3.230  11.307  0.1197  0.4022  0.2688
   53MOL0     C 7087   1.496   3.334  11.250 -0.3071 -0.1135 -0.3435
   53MOL0     H 7088   2.008   3.559  11.668 -0.1871  0.0818 -0.0657
   53MOL0     H 7089   2.199   3.688  11.588  1.4719  0.0154 -1.8290
   53MOL0     H 7090   2.161   3.860  11.374 -0.6251 -1.6645 -1.1189
   53MOL0     H 7091   2.332   3.882  11.429 -0.1974  3.1152 -0.5806
   53MOL0     H 7092   2.281   3.995  11.204  1.4573 -0.2385  0.3440
   53MOL0     H 7093   2.221   3.836  11.134 -3.1169  1.8221  0.3669
   53MOL0     H 7094   2.498   3.828  11.255 -1.1351 -0.1802  0.1259
   53MOL0     H 7095   2.489   3.952  11.122  3.2681 -0.3410 -0.0937
   53MOL0     H 7096   2.406   3.645  11.100  2.1917 -1.8295  0.4710
   53MOL0     H 7097   2.391   3.763  10.973  1.1038 -2.2313  0.1568
   53MOL0     H 7098   2.652   3.695  11.107 -2.1295  1.1670  1.4292
   53MOL0     H 7099   2.598   3.613  10.969 -1.5159 -1.1955  2.4773
   53MOL0     H 7100   2.657   3.912  10.985 -0.6894 -1.1955  0.5268
   53MOL0     H 7101   2.788   3.799  10.947 -0.1870  0.0925 -1.5422
   53MOL0     H 7102   2.525   3.850  10.795 -0.7736  0.0230  0.3930
   53MOL0     H 7103   2.647   3.745  10.735 -1.1736  1.3412 -2.3962
   53MOL0     H 7104   2.817   3.944  10.776 -0.8708  3.3853  1.2135
   53MOL0     H 7105   2.723   3.910  10.623  1.7060 -4.0258  0.8257
   53MOL0     H 7106   2.813   4.214  10.768  1.0169  3.9237 -4.7245
   53MOL0     H 7107   2.729   4.449  10.618  1.4542  0.3104  0.5096
   53MOL0     H 7108   2.554   4.475  10.626 -0.8921  0.0318  0.8778
   53MOL0     H 7109   2.570   4.487  10.870 -1.0891  0.8242 -0.3918
   53MOL0     H 7110   2.743   4.477  10.869 -1.0183  3.5317  2.4589
   53MOL0     H 7111   2.677   4.700  10.905  4.3600  1.3623 -0.8241
   53MOL0     H 7112   2.579   4.707  10.756  0.7844  1.9371  0.6574
   53MOL0     H 7113   2.778   4.706  10.623 -0.8617 -1.7724  0.8742
   53MOL0     H 7114   2.879   4.660  10.747  0.6746  1.1001 -2.0750
   53MOL0     H 7115   2.748   4.887  10.529  1.6194  0.2877  2.8265
   53MOL0     H 7116   2.599   5.048  10.419 -1.2824 -2.0648 -0.4151
   53MOL0     H 7117   2.477   5.538  10.497  0.5150 -0.8427  1.5069
   53MOL0     H 7118   2.369   5.738  10.486  0.3910  1.1464  1.2528
   53MOL0     H 7119   1.969   5.765  10.592  2.6168 -2.3990  0.2044
   53MOL0     H 7120   2.002   5.822  10.758 -2.5744  4.0587  0.0078
   53MOL0     H 7121   2.032   6.006  10.514 -0.9436 -0.1948 -1.5122
   53MOL0     H 7122   1.878   5.987  10.615  0.5138 -1.6896 -0.9484
   53MOL0     H 7123   2.135   6.080  10.745  0.5746  0.7569 -0.3763
   53MOL0     H 7124   2.045   6.182  10.639 -0.5667 -1.6009 -1.2628
   53MOL0     H 7125   1.943   6.034  10.890 -2.4311 -1.9359 -1.3238
   53MOL0     H 7126   1.841   6.131  10.793  0.7068  0.2926  0.3153
   53MOL0     H 7127   1.940   6.261  10.987 -1.7055  1.1275 -2.0333
   53MOL0     H 7128   1.991   6.334  10.838 -1.2317  1.6746  1.1340
   53MOL0     H 7129   2.147   6.115  10.974  3.9720  0.5667  1.5739
   53MOL0     H 7130   2.205   6.242  10.854 -2.2983  0.0321 -1.3407
   53MOL0     H 7131   2.138   6.301  11.141 -0.2497 -0.1294 -0.6908
   53MOL0     H 7132   2.207   6.404  11.006 -0.3018 -0.1363 -1.7543
   53MOL0     H 7133   2.342   6.161  11.146  1.7070 -1.4311 -1.6118
   53MOL0     H 7134   2.411   6.262  11.015  1.0940  0.0953  0.9908
   53MOL0     H 7135   2.070   5.600  10.762  0.8074 -1.1655  2.3165
   53MOL0     H 7136   2.197   5.390  10.791 -1.1847 -1.0104 -0.1000
   53MOL0     H 7137   2.618   5.264  10.795  1.9176  0.1656 -0.6698
   53MOL0     H 7138   2.737   5.067  10.893 -2.7315 -0.1133  1.6686
   53MOL0     H 7139   2.158   3.552  11.199  2.3638 -0.5294  1.2802
   53MOL0     H 7140   1.980   3.384  11.257 -1.1316 -0.3926 -0.0926
   53MOL0     H 7141   1.829   3.146  11.529 -1.5898  2.7934  1.0159
   53MOL0     H 7142   1.806   2.943  11.422  1.0379  1.5310  0.7899
   53MOL0     H 7143   1.624   2.685  11.290  2.5771 -0.3112  2.2336
   53MOL0     H 7144   1.773   2.767  11.282 -0.5496 -0.8404  2.1044
   53MOL0     H 7145   1.604   2.682  11.042  0.0688 -1.2078  0.6403
   53MOL0     H 7146   1.756   2.621  11.080  0.2698 -1.1845 -2.7755
   53MOL0     H 7147   1.860   2.856  11.048  0.1987  2.5950  0.1034
   53MOL0     H 7148   1.704   2.938  11.029  0.5443  0.3261 -2.6970
   53MOL0     H 7149   1.709   2.751  10.809  2.3575 -3.0263 -0.8015
   53MOL0     H 7150   1.760   2.923  10.816  3.3075  0.6766  2.4018
   53MOL0     H 7151   2.115   2.786  10.704 -1.9780 -0.0152 -2.3177
   53MOL0     H 7152   1.480   3.096  11.174 -1.3563 -1.7470  0.9707
   53MOL0     H 7153   1.427   3.372  11.326 -0.2330  1.6267 -1.1020
   53MOL0     H 7154   1.561   3.412  11.212  1.2510 -0.6022  1.1810
   53MOL0     H 7155   1.422   3.303  11.175  1.6840  1.0373 -2.9152
   54MOL0     O 7156  11.096   9.266   5.127 -0.9490 -0.3295  0.1193
   54MOL0     C 7157  10.985   9.273   5.179 -0.1938 -0.0103  0.0880
   54MOL0     O 7158  10.880   9.356   5.130 -0.4108  0.5755 -0.3653
   54MOL0     C 7159  10.888   9.442   5.020  0.3043  0.4363 -0.5489
   54MOL0     C 7160  10.775   9.479   4.951 -0.7004 -0.4592  0.6287
   54MOL0     C 7161  10.785   9.566   4.849  0.8511  0.1355 -0.9915
   54MOL0     C 7162  10.911   9.613   4.799  0.2700 -0.3271  0.3149
   54MOL0     O 7163  10.928   9.694   4.693 -0.8654  0.4282 -0.7287
   54MOL0     C 7164  10.827   9.778   4.655  0.9074  0.1152 -0.0556
   54MOL0     C 7165  10.873   9.858   4.531  0.6907  0.0286  0.1751
   54MOL0     C 7166  10.760   9.928   4.448  0.2576 -0.2791  0.3291
   54MOL0     C 7167  10.643   9.979   4.528 -0.2147  0.4863 -0.3458
   54MOL0     C 7168  10.559  10.071   4.442  0.7753  0.2025 -0.9852
   54MOL0     C 7169  10.429  10.115   4.516 -0.4096 -0.4869  0.1607
   54MOL0     C 7170  10.336  10.191   4.429 -0.0119 -0.8842  0.2147
   54MOL0     C 7171  10.213  10.248   4.503 -0.5599  0.5241 -0.4545
   54MOL0     N 7172  10.146  10.354   4.434 -0.0449  1.3939 -0.6113
   54MOL0     C 7173  10.170  10.483   4.479 -1.0649  0.9410  0.6036
   54MOL0     C 7174  10.108  10.558   4.383 -0.4115  0.2539 -0.6798
   54MOL0     C 7175  10.110  10.710   4.377  0.7879 -0.5905  0.3074
   54MOL0     C 7176  10.122  10.775   4.234  0.6871 -0.4857 -0.3176
   54MOL0     C 7177  10.255  10.720   4.177 -0.1928  0.5032  0.9848
   54MOL0     C 7178  10.276  10.772   4.035  0.4707 -0.9772  0.2641
   54MOL0     O 7179  10.406  10.746   3.978  0.0482 -0.1175  0.4972
   54MOL0     C 7180  10.442  10.622   3.925 -0.5591  0.9024  0.9137
   54MOL0     C 7181  10.346  10.521   3.905 -0.3558 -0.1557 -0.2907
   54MOL0     C 7182  10.371  10.407   3.823 -0.3079  0.2162 -0.0489
   54MOL0     C 7183  10.495  10.379   3.779  0.0758 -0.4839  0.3040
   54MOL0     C 7184  10.530  10.246   3.712 -0.2590 -0.2116 -0.5689
   54MOL0     O 7185  10.429  10.177   3.665  0.1239  0.0149  0.1287
   54MOL0     C 7186  10.438  10.043   3.651 -0.3130  0.2758 -0.1463
   54MOL0     C 7187  10.347   9.996   3.559 -0.5517  0.9610  0.2308
   54MOL0     C 7188  10.335   9.858   3.543  0.6654  0.0711  0.1440
   54MOL0     C 7189  10.400   9.761   3.616 -0.0681 -0.0689 -0.4075
   54MOL0     O 7190  10.383   9.631   3.603 -0.1735  0.2138 -0.2105
   54MOL0     C 7191  10.288   9.581   3.510 -0.3310 -1.0909 -0.2946
   54MOL0     C 7192  10.301   9.430   3.530  0.1801  0.4970  0.3516
   54MOL0     C 7193  10.190   9.369   3.446  0.0971 -0.7132 -0.6615
   54MOL0     C 7194  10.239   9.272   3.334  0.3678  0.3343 -0.8401
   54MOL0     C 7195  10.316   9.351   3.229 -0.4083 -0.1184 -0.2701
   54MOL0     C 7196  10.320   9.282   3.095 -1.4803 -0.5841  0.2796
   54MOL0     C 7197  10.428   9.175   3.087  0.1238  0.0293  0.3296
   54MOL0     C 7198  10.418   9.091   2.957  0.1213 -0.4027  0.3392
   54MOL0    Cl 7199  10.252   9.022   2.917 -0.4241  0.1276 -0.0007
   54MOL0     C 7200  10.501   9.803   3.698  0.2078 -0.2016  0.0659
   54MOL0     C 7201  10.519   9.942   3.721  0.7995  0.0386  0.4395
   54MOL0     O 7202  10.643  10.212   3.721 -0.3013  0.6080 -0.0649
   54MOL0     C 7203  10.594  10.481   3.791  0.6602 -0.0957  1.0610
   54MOL0     C 7204  10.560  10.594   3.861 -0.1956  0.5777 -0.3708
   54MOL0     N 7205  10.043  10.476   4.289 -0.6301 -0.0003  0.9497
   54MOL0     N 7206  10.071  10.351   4.321 -0.0501  0.5278  0.4668
   54MOL0     C 7207  11.026   9.575   4.872 -0.1330  0.2932 -0.3997
   54MOL0     C 7208  11.015   9.501   4.985 -0.2961  0.3109 -0.5969
   54MOL0     C 7209  10.958   9.196   5.311 -1.8051  0.3145 -0.6623
   54MOL0     C 7210  10.852   9.227   5.396 -0.9593 -1.2464 -0.0321
   54MOL0     C 7211  10.840   9.183   5.530 -0.1468 -0.8957 -0.3139
   54MOL0     C 7212  10.931   9.091   5.575  0.5213 -0.0075 -0.4344
   54MOL0     O 7213  10.919   9.062   5.708 -0.2976  0.4899  0.0055
   54MOL0     C 7214  11.021   9.001   5.779 -0.1398  0.6012 -0.1391
   54MOL0     C 7215  10.967   8.960   5.920  0.1757  0.3068 -1.3115
   54MOL0     C 7216  10.917   9.083   6.004  0.1510  0.6860 -0.0854
   54MOL0     C 7217  10.839   9.035   6.135 -0.4402  0.8921  0.7390
   54MOL0     C 7218  10.918   8.959   6.224  0.1791 -0.3049  0.5435
   54MOL0     C 7219  10.959   8.876   6.311  0.3038 -0.4186 -0.6326
   54MOL0     C 7220  11.033   9.043   5.493 -0.3167 -0.4429 -0.0733
   54MOL0     C 7221  11.057   9.099   5.363  0.1691 -0.1833  0.0697
   54MOL0     C 7222  11.180   9.049   5.290 -0.7739 -0.2966 -0.3610
   54MOL0     H 7223  10.673   9.442   4.962 -0.6631 -1.5075 -1.9865
   54MOL0     H 7224  10.698   9.584   4.785  1.9960 -0.3098 -2.7577
   54MOL0     H 7225  10.739   9.718   4.631  1.1729 -0.4201  0.3044
   54MOL0     H 7226  10.799   9.843   4.739 -2.2239 -2.7152  1.3119
   54MOL0     H 7227  10.934   9.797   4.464  0.1475  0.4840 -0.7440
   54MOL0     H 7228  10.928   9.940   4.578 -4.7647  3.3586  1.6547
   54MOL0     H 7229  10.721   9.868   4.366 -2.2922  0.6867  0.7295
   54MOL0     H 7230  10.811  10.010   4.396 -1.7450 -0.6894 -2.5016
   54MOL0     H 7231  10.582   9.894   4.558  0.9190 -0.4031 -0.5107
   54MOL0     H 7232  10.683  10.027   4.618 -0.2991 -1.2004  0.6327
   54MOL0     H 7233  10.612  10.166   4.430  1.8384 -0.4172 -1.2787
   54MOL0     H 7234  10.531  10.015   4.353 -0.3154 -0.1304 -0.4518
   54MOL0     H 7235  10.379  10.026   4.555 -4.0450  1.6303  0.7079
   54MOL0     H 7236  10.459  10.176   4.602  0.7476 -1.6551  0.6309
   54MOL0     H 7237  10.310  10.117   4.352 -1.7792 -0.6516  0.5372
   54MOL0     H 7238  10.395  10.272   4.386 -0.0174 -1.1847 -0.3737
   54MOL0     H 7239  10.144  10.164   4.514 -0.1778  0.5659  4.6900
   54MOL0     H 7240  10.239  10.283   4.603  0.7707  0.1997 -0.6681
   54MOL0     H 7241  10.228  10.527   4.559  0.4142  1.7574 -0.8606
   54MOL0     H 7242  10.022  10.742   4.434  1.7214 -0.1079  1.5382
   54MOL0     H 7243  10.191  10.756   4.434 -0.3041  0.4688  1.0602
   54MOL0     H 7244  10.035  10.729   4.186  2.1044 -2.3504 -1.2396
   54MOL0     H 7245  10.125  10.882   4.256 -0.4755 -0.3796 -0.6369
   54MOL0     H 7246  10.240  10.612   4.168  0.0652  0.6299 -1.8834
   54MOL0     H 7247  10.345  10.746   4.234 -0.0722  1.1627  0.5150
   54MOL0     H 7248  10.278  10.881   4.047  1.0498 -1.1327  1.9035
   54MOL0     H 7249  10.189  10.744   3.976 -0.1767 -1.1832  1.2803
   54MOL0     H 7250  10.240  10.518   3.926 -0.5334  0.0388 -1.1484
   54MOL0     H 7251  10.292  10.333   3.813 -0.1869 -0.3348  2.3765
   54MOL0     H 7252  10.269  10.058   3.515 -0.2787 -0.8203 -3.0644
   54MOL0     H 7253  10.254   9.831   3.476  1.2606 -1.8861  0.1508
   54MOL0     H 7254  10.190   9.620   3.536  0.8246  0.7376  1.6139
   54MOL0     H 7255  10.327   9.605   3.410  2.9969 -0.7487  0.9447
   54MOL0     H 7256  10.399   9.389   3.501 -0.4268 -0.7801  0.0212
   54MOL0     H 7257  10.277   9.414   3.635 -4.4679  3.5112  0.0183
   54MOL0     H 7258  10.112   9.332   3.514  0.4380  0.4781  0.4035
   54MOL0     H 7259  10.138   9.449   3.391  1.2354 -2.5466 -4.8630
   54MOL0     H 7260  10.143   9.236   3.297 -0.4440  3.2805 -1.7941
   54MOL0     H 7261  10.306   9.187   3.356 -2.8751 -2.7209 -1.8294
   54MOL0     H 7262  10.416   9.371   3.269 -0.4326 -2.4924  1.1620
   54MOL0     H 7263  10.273   9.451   3.224  0.4638  0.2423 -0.8276
   54MOL0     H 7264  10.220   9.238   3.086 -2.7104  2.0932 -0.1665
   54MOL0     H 7265  10.330   9.361   3.019  1.1771 -2.1061 -1.0899
   54MOL0     H 7266  10.421   9.103   3.169  0.3268  0.1202  0.4266
   54MOL0     H 7267  10.527   9.221   3.089 -0.6284  1.6892  0.4748
   54MOL0     H 7268  10.447   9.147   2.867 -2.5218 -0.0907 -0.3982
   54MOL0     H 7269  10.487   9.009   2.981 -0.1282 -0.6384  0.2542
   54MOL0     H 7270  10.557   9.736   3.761  1.6693  0.8975 -0.0183
   54MOL0     H 7271  10.588   9.975   3.799 -2.1030  1.6017  2.5513
   54MOL0     H 7272  10.693  10.475   3.746  0.3306  0.4804  0.2500
   54MOL0     H 7273  10.631  10.674   3.879 -1.4719  1.3460  1.5693
   54MOL0     H 7274  11.119   9.621   4.842 -0.1952 -0.7754 -2.4358
   54MOL0     H 7275  11.103   9.506   5.049 -2.2241 -0.9034  2.4133
   54MOL0     H 7276  10.770   9.290   5.365 -0.6435  0.5640  2.4522
   54MOL0     H 7277  10.764   9.210   5.603  0.7097 -1.9073  0.9869
   54MOL0     H 7278  11.108   9.064   5.798  0.5471 -1.1543  3.4982
   54MOL0     H 7279  11.054   8.908   5.733  3.0843  1.9130 -0.7768
   54MOL0     H 7280  11.039   8.913   5.986 -1.5342  1.4713  1.5757
   54MOL0     H 7281  10.880   8.897   5.899 -0.8018 -0.0196  2.8577
   54MOL0     H 7282  10.841   9.141   5.950 -1.1572  0.8941  1.8889
   54MOL0     H 7283  10.999   9.153   6.026 -1.9132  3.0569  0.5970
   54MOL0     H 7284  10.821   9.133   6.180  4.3479  1.4775  2.0175
   54MOL0     H 7285  10.746   8.981   6.116 -0.7810  1.5459  0.5485
   54MOL0     H 7286  10.995   8.825   6.398 -0.5688 -0.6928 -0.4264
   54MOL0     H 7287  11.107   8.970   5.524  0.5393 -0.0479 -1.1193
   54MOL0     H 7288  11.159   9.017   5.188  0.2218  0.4701 -0.8333
   54MOL0     H 7289  11.247   9.132   5.266  1.7332 -3.0224 -3.6744
   54MOL0     H 7290  11.243   8.984   5.351 -0.0813  1.5390  1.0092
   55MOL0     O 7291   0.305   5.659   3.531 -0.1270 -0.5893  0.4946
   55MOL0     C 7292   0.309   5.638   3.648  0.2098  1.0541 -0.1674
   55MOL0     O 7293   0.204   5.579   3.724  0.6264  0.2736  0.4140
   55MOL0     C 7294   0.085   5.563   3.667  0.3661  0.2947  0.0251
   55MOL0     C 7295   0.033   5.433   3.668 -0.2480  0.1376  0.4442
   55MOL0     C 7296  -0.091   5.400   3.613  0.7317  0.6180 -0.7184
   55MOL0     C 7297  -0.172   5.497   3.553  0.0619  0.1331  0.0132
   55MOL0     O 7298  -0.296   5.477   3.493 -1.2485  1.0675 -0.1942
   55MOL0     C 7299  -0.360   5.341   3.500 -0.2533 -0.9902  0.1459
   55MOL0     C 7300  -0.500   5.335   3.447  0.0853  0.4376  0.2387
   55MOL0     C 7301  -0.522   5.205   3.367 -0.3386 -0.8028  0.1030
   55MOL0     C 7302  -0.539   5.078   3.453 -0.5119  0.4392  0.1121
   55MOL0     C 7303  -0.484   4.957   3.376  0.4487 -0.9502  0.0831
   55MOL0     C 7304  -0.485   4.820   3.442  0.9802  0.6402 -0.3559
   55MOL0     C 7305  -0.371   4.807   3.536 -0.0838  0.4717  0.2429
   55MOL0     C 7306  -0.227   4.792   3.485 -0.4700  0.5708 -0.3327
   55MOL0     N 7307  -0.129   4.811   3.592  1.2490  0.0317  0.9456
   55MOL0     C 7308  -0.076   4.928   3.621  0.0880 -0.7507 -0.8831
   55MOL0     C 7309   0.028   4.900   3.701 -0.2291 -0.4017 -0.6875
   55MOL0     C 7310   0.124   4.999   3.767 -0.1676 -0.2548 -0.6779
   55MOL0     C 7311   0.261   5.005   3.683  0.6682 -0.3567  0.9668
   55MOL0     C 7312   0.244   5.043   3.527 -0.5816  0.2532  0.2203
   55MOL0     C 7313   0.383   5.068   3.464  1.2505  0.4466  0.8535
   55MOL0     O 7314   0.410   5.204   3.492  0.0565  0.7341  1.2204
   55MOL0     C 7315   0.544   5.236   3.477 -0.4583  0.0825 -1.4981
   55MOL0     C 7316   0.565   5.375   3.494 -0.2361 -0.7481 -0.9904
   55MOL0     C 7317   0.693   5.422   3.497  0.8745  0.4669  0.5473
   55MOL0     C 7318   0.811   5.341   3.487 -1.0717 -0.3609  0.7165
   55MOL0     C 7319   0.946   5.391   3.493 -1.1949  0.7899  0.6239
   55MOL0     O 7320   1.043   5.313   3.455 -0.0138 -0.1143  0.9515
   55MOL0     C 7321   1.174   5.344   3.437  0.2183  0.4675 -0.7583
   55MOL0     C 7322   1.261   5.236   3.441 -0.0003  0.9618  0.2064
   55MOL0     C 7323   1.402   5.243   3.428 -0.8517  0.2808 -0.0701
   55MOL0     C 7324   1.450   5.373   3.419  0.0562 -0.3116  0.6731
   55MOL0     O 7325   1.585   5.406   3.399  0.9177 -0.1933  0.0904
   55MOL0     C 7326   1.693   5.318   3.433  0.1379 -0.0026 -0.5661
   55MOL0     C 7327   1.829   5.390   3.389  0.1236  0.0891 -0.3108
   55MOL0     C 7328   1.875   5.501   3.485  0.5695  0.0526  0.2290
   55MOL0     C 7329   2.014   5.554   3.434  0.4329 -0.3742 -1.1037
   55MOL0     C 7330   2.054   5.694   3.488  0.2071  0.0959  0.6143
   55MOL0     C 7331   2.085   5.718   3.634 -0.3520  0.1533  0.1035
   55MOL0     C 7332   2.205   5.635   3.678 -0.8792 -0.1190 -0.0372
   55MOL0     C 7333   2.257   5.663   3.818 -0.1009 -0.8101  0.1177
   55MOL0    Cl 7334   2.251   5.834   3.865  0.0855 -0.0105 -0.1139
   55MOL0     C 7335   1.361   5.481   3.405  0.7116  0.1445 -0.2761
   55MOL0     C 7336   1.223   5.467   3.408 -0.6395 -0.2738  0.0384
   55MOL0     O 7337   0.957   5.501   3.532 -0.2817 -1.2982 -1.3996
   55MOL0     C 7338   0.791   5.210   3.472  0.2364  0.6341  0.1613
   55MOL0     C 7339   0.658   5.159   3.473 -0.0243  0.2983 -0.3291
   55MOL0     N 7340   0.035   4.762   3.716  0.0165 -0.2902 -0.4406
   55MOL0     N 7341  -0.057   4.707   3.649  0.6391  0.6254  0.2431
   55MOL0     C 7342  -0.121   5.622   3.556  0.5314 -0.5152  0.3257
   55MOL0     C 7343   0.003   5.662   3.610  0.3741  0.1894  0.1802
   55MOL0     C 7344   0.429   5.682   3.726 -0.0194  0.1625 -0.0073
   55MOL0     C 7345   0.547   5.708   3.652 -0.0888 -0.1825 -0.5250
   55MOL0     C 7346   0.657   5.770   3.722 -0.9688 -0.9033 -0.4765
   55MOL0     C 7347   0.644   5.800   3.853 -0.8949  0.0993  0.2926
   55MOL0     O 7348   0.743   5.875   3.916 -0.0122  0.2102  0.1271
   55MOL0     C 7349   0.793   5.996   3.853  0.1286 -0.1565 -0.4147
   55MOL0     C 7350   0.891   6.082   3.942 -0.8679 -0.7496  0.2219
   55MOL0     C 7351   1.038   6.029   3.969 -0.6880 -1.3948  0.4059
   55MOL0     C 7352   1.108   6.125   4.064  0.0615  1.0305  0.8198
   55MOL0     C 7353   1.242   6.059   4.088  0.0707 -0.1738  0.2215
   55MOL0     C 7354   1.348   6.006   4.096 -1.1877  0.1594 -0.1074
   55MOL0     C 7355   0.535   5.774   3.926 -0.7167 -1.2500  0.8003
   55MOL0     C 7356   0.425   5.708   3.866  0.4624  0.2933  0.7680
   55MOL0     C 7357   0.303   5.691   3.956  0.7535 -0.1641  0.1685
   55MOL0     H 7358   0.085   5.355   3.722 -1.3928  0.5515  2.2202
   55MOL0     H 7359  -0.124   5.298   3.633 -0.2958  1.1919  0.7179
   55MOL0     H 7360  -0.296   5.270   3.446 -4.1087 -3.3457 -1.7843
   55MOL0     H 7361  -0.362   5.316   3.606  1.7997 -0.0947  0.4541
   55MOL0     H 7362  -0.511   5.426   3.388 -0.0191  1.4901  1.8093
   55MOL0     H 7363  -0.570   5.351   3.530 -3.0807 -3.6572 -1.2726
   55MOL0     H 7364  -0.432   5.208   3.304 -2.0360  1.8776 -2.4411
   55MOL0     H 7365  -0.606   5.217   3.298  0.4730  2.0106 -0.5180
   55MOL0     H 7366  -0.478   5.080   3.544 -0.6003 -2.2967  0.3180
   55MOL0     H 7367  -0.643   5.046   3.467  0.1533 -1.3226  1.3083
   55MOL0     H 7368  -0.537   4.946   3.281 -0.1765  1.0999  0.1373
   55MOL0     H 7369  -0.383   4.980   3.340 -0.8566  0.8453 -2.7134
   55MOL0     H 7370  -0.577   4.804   3.498  0.9726 -3.7673 -1.2241
   55MOL0     H 7371  -0.488   4.743   3.364  4.5013 -0.3574  0.3029
   55MOL0     H 7372  -0.395   4.724   3.603 -0.8190  0.9507  0.5764
   55MOL0     H 7373  -0.378   4.892   3.604  0.9107  0.8836 -0.1372
   55MOL0     H 7374  -0.205   4.695   3.437  1.1721  0.1892  1.1037
   55MOL0     H 7375  -0.200   4.864   3.407 -0.2191 -2.4398 -3.2620
   55MOL0     H 7376  -0.100   5.021   3.570  1.3606  0.0683 -0.0249
   55MOL0     H 7377   0.083   5.098   3.787 -1.4690 -0.8799 -0.1214
   55MOL0     H 7378   0.144   4.958   3.867  2.5358  1.1623 -0.5340
   55MOL0     H 7379   0.325   5.080   3.729  2.7430 -2.3885  1.5750
   55MOL0     H 7380   0.320   4.913   3.685  1.7411  0.3233  1.0493
   55MOL0     H 7381   0.178   5.129   3.513  0.9086  1.0753 -2.5694
   55MOL0     H 7382   0.200   4.967   3.463 -2.1748  0.8858  0.5301
   55MOL0     H 7383   0.383   5.058   3.355 -0.6299  0.4555  0.8210
   55MOL0     H 7384   0.465   5.004   3.495  2.0401 -1.1947 -3.7982
   55MOL0     H 7385   0.479   5.442   3.497 -2.3713 -3.3248  0.9022
   55MOL0     H 7386   0.693   5.529   3.510  1.2592  0.7659 -1.5792
   55MOL0     H 7387   1.216   5.139   3.457  1.6002  0.5778  3.0993
   55MOL0     H 7388   1.464   5.159   3.457 -2.0296  0.0758  2.0424
   55MOL0     H 7389   1.694   5.279   3.535  2.3784 -0.0488 -0.5554
   55MOL0     H 7390   1.686   5.220   3.387  4.1640 -0.8157  0.1229
   55MOL0     H 7391   1.902   5.309   3.379  0.6446  0.2774  1.5309
   55MOL0     H 7392   1.808   5.427   3.289 -0.9545 -1.8254 -0.8509
   55MOL0     H 7393   1.810   5.589   3.484  0.8192  0.2759  1.6890
   55MOL0     H 7394   1.892   5.476   3.590  3.7910  4.2247  0.9657
   55MOL0     H 7395   1.999   5.563   3.326 -0.1938 -0.4725 -1.0249
   55MOL0     H 7396   2.097   5.488   3.461  0.2262  0.3341  1.5706
   55MOL0     H 7397   1.980   5.766   3.452 -1.3855 -1.9948 -0.5860
   55MOL0     H 7398   2.143   5.711   3.427  1.8217  0.9375  3.0707
   55MOL0     H 7399   2.107   5.825   3.642  1.3610 -0.2171  0.7880
   55MOL0     H 7400   2.002   5.696   3.701 -0.2976  0.4437  0.2698
   55MOL0     H 7401   2.296   5.645   3.619  0.1674 -0.7707  1.4057
   55MOL0     H 7402   2.177   5.529   3.673 -3.7351  0.4494  1.7550
   55MOL0     H 7403   2.185   5.612   3.883 -1.7688 -1.7330 -2.3367
   55MOL0     H 7404   2.359   5.626   3.806  0.8935  1.6486  0.3278
   55MOL0     H 7405   1.397   5.580   3.382 -0.7748  0.4390 -1.4283
   55MOL0     H 7406   1.166   5.558   3.394  4.0957  3.1043  0.3037
   55MOL0     H 7407   0.870   5.139   3.451 -0.7552  0.0521 -1.8599
   55MOL0     H 7408   0.651   5.054   3.445 -2.9018  0.8986 -2.3666
   55MOL0     H 7409  -0.187   5.701   3.521  1.8171  0.2403 -0.4999
   55MOL0     H 7410   0.022   5.768   3.625 -1.4781  0.1937  3.4108
   55MOL0     H 7411   0.550   5.681   3.547  1.8542 -2.2486 -0.0072
   55MOL0     H 7412   0.755   5.782   3.677 -0.8111  0.6618  0.2324
   55MOL0     H 7413   0.713   6.063   3.821  0.3255  0.2032 -0.1729
   55MOL0     H 7414   0.848   5.956   3.767  0.8276 -1.3104  0.5356
   55MOL0     H 7415   0.828   6.101   4.030 -2.4375 -1.0723 -0.7962
   55MOL0     H 7416   0.902   6.178   3.890 -2.1642  0.6072  2.3030
   55MOL0     H 7417   1.100   6.027   3.879 -2.3486 -2.6801 -0.7693
   55MOL0     H 7418   1.024   5.936   4.025 -0.8002 -2.1946 -0.8997
   55MOL0     H 7419   1.132   6.224   4.025  3.5302  0.1031  0.2641
   55MOL0     H 7420   1.056   6.148   4.158  0.3088  0.6212  1.0582
   55MOL0     H 7421   1.439   5.949   4.094 -0.5577  1.1335 -1.8470
   55MOL0     H 7422   0.523   5.802   4.030  0.1461  1.3191  0.2851
   55MOL0     H 7423   0.317   5.726   4.059 -0.2651  2.3923 -0.4773
   55MOL0     H 7424   0.220   5.744   3.910  0.1416 -3.2751 -2.7045
   55MOL0     H 7425   0.277   5.585   3.962 -1.0786  0.0540 -2.5348
   56MOL0     O 7426   1.506  11.353   1.856 -0.4220 -0.6154  0.3118
   56MOL0     C 7427   1.601  11.326   1.774  0.2800  0.6954  0.4268
   56MOL0     O 7428   1.588  11.237   1.673 -0.5939 -0.6265 -0.0613
   56MOL0     C 7429   1.460  11.197   1.655 -0.2557  0.1692  0.1734
   56MOL0     C 7430   1.388  11.260   1.546 -0.2133  0.0084 -0.0909
   56MOL0     C 7431   1.254  11.218   1.522  0.3307 -1.6571 -0.0274
   56MOL0     C 7432   1.195  11.110   1.585 -0.8184  1.3474 -0.4067
   56MOL0     O 7433   1.065  11.069   1.569 -0.3106 -0.0315  0.3937
   56MOL0     C 7434   0.971  11.170   1.516 -0.1795 -0.4433 -0.0376
   56MOL0     C 7435   0.835  11.112   1.524 -1.1825  0.5749 -0.7364
   56MOL0     C 7436   0.726  11.211   1.508  0.1311 -0.6822 -0.7615
   56MOL0     C 7437   0.600  11.169   1.581 -0.5336  0.5044 -0.3219
   56MOL0     C 7438   0.490  11.276   1.586 -0.2209  0.5054 -0.0096
   56MOL0     C 7439   0.366  11.234   1.670  0.4149 -0.1247 -0.1931
   56MOL0     C 7440   0.289  11.358   1.724  0.2534 -1.0038 -0.2921
   56MOL0     C 7441   0.163  11.321   1.785  0.4902  0.3654 -0.3624
   56MOL0     N 7442   0.039  11.331   1.700 -0.4097 -0.4554  0.4975
   56MOL0     C 7443   0.024  11.258   1.585  0.0151 -0.5602  0.4832
   56MOL0     C 7444  -0.064  11.328   1.516  0.6339  0.9155 -1.2201
   56MOL0     C 7445  -0.112  11.293   1.379  0.3301  0.8594  0.7155
   56MOL0     C 7446  -0.014  11.330   1.266  0.6599 -0.0879 -0.4746
   56MOL0     C 7447  -0.012  11.477   1.231  0.6050 -1.1066  0.2865
   56MOL0     C 7448   0.107  11.538   1.301  0.6394  0.3127 -0.0667
   56MOL0     O 7449   0.114  11.672   1.248 -0.0917 -0.6395  1.1002
   56MOL0     C 7450   0.193  11.758   1.311 -0.3065  0.2857 -0.1948
   56MOL0     C 7451   0.232  11.867   1.245 -1.1921 -0.6611  0.7866
   56MOL0     C 7452   0.335  11.949   1.293 -0.9419  0.0471  0.0776
   56MOL0     C 7453   0.398  11.937   1.418 -0.4391 -0.1200 -0.3551
   56MOL0     C 7454   0.495  12.023   1.471  0.0572 -0.8289  0.1196
   56MOL0     O 7455   0.560  12.101   1.376  0.0304  0.3727  0.3538
   56MOL0     C 7456   0.639  12.206   1.400 -0.7251 -0.8859 -0.3692
   56MOL0     C 7457   0.628  12.301   1.500  0.4482  0.0105 -0.2498
   56MOL0     C 7458   0.716  12.413   1.511  0.1039 -0.0963 -0.5645
   56MOL0     C 7459   0.813  12.430   1.420  0.0244  0.4302  0.0902
   56MOL0     O 7460   0.889  12.541   1.422  0.1367 -1.5542 -0.0219
   56MOL0     C 7461   1.027  12.516   1.376  0.4133  0.1181  0.1045
   56MOL0     C 7462   1.116  12.614   1.448 -0.0038 -0.3689 -0.7348
   56MOL0     C 7463   1.247  12.626   1.363 -0.6026 -0.2173  0.0884
   56MOL0     C 7464   1.232  12.748   1.273 -0.2242  0.0174  1.1282
   56MOL0     C 7465   1.355  12.836   1.288 -0.3854 -0.9387  0.3062
   56MOL0     C 7466   1.333  12.970   1.209 -0.5356 -0.0523  0.0021
   56MOL0     C 7467   1.269  13.073   1.303 -0.6332  0.7067 -0.3873
   56MOL0     C 7468   1.203  13.174   1.220 -0.1771  0.1333  0.2886
   56MOL0    Cl 7469   1.160  13.299   1.340 -0.1546 -0.1472 -0.2433
   56MOL0     C 7470   0.817  12.336   1.305  0.3454 -0.5507 -0.1551
   56MOL0     C 7471   0.739  12.230   1.298  1.3580 -0.1095  0.1043
   56MOL0     O 7472   0.510  12.030   1.594  0.1189  0.0254  0.5225
   56MOL0     C 7473   0.339  11.837   1.497 -0.4852 -0.3134 -1.2081
   56MOL0     C 7474   0.239  11.741   1.448 -0.1396 -0.8232  0.0127
   56MOL0     N 7475  -0.112  11.431   1.587 -0.2704  0.2073 -0.8288
   56MOL0     N 7476  -0.044  11.431   1.706  0.4802  0.3531 -0.4815
   56MOL0     C 7477   1.269  11.045   1.682 -0.1753  0.5244  0.7236
   56MOL0     C 7478   1.404  11.088   1.722 -0.2051 -0.0230  0.8388
   56MOL0     C 7479   1.721  11.408   1.790  0.9367  0.3132  0.2043
   56MOL0     C 7480   1.794  11.435   1.669  0.2611 -0.2329  0.2844
   56MOL0     C 7481   1.910  11.524   1.676  0.0453 -0.9269 -0.3709
   56MOL0     C 7482   1.956  11.564   1.796 -0.2038  0.4494 -0.6894
   56MOL0     O 7483   2.069  11.646   1.825  0.3550  0.0634 -0.5058
   56MOL0     C 7484   2.148  11.696   1.706  0.4509  1.0147 -0.7150
   56MOL0     C 7485   2.248  11.797   1.752 -0.1566 -0.5526 -0.2177
   56MOL0     C 7486   2.330  11.854   1.636 -0.8872  1.3499  0.3084
   56MOL0     C 7487   2.468  11.886   1.676  0.3696  0.8784  0.1036
   56MOL0     C 7488   2.465  11.995   1.778  0.0125  0.2566 -0.4974
   56MOL0     C 7489   2.468  12.091   1.850 -0.2737 -0.3964  0.6355
   56MOL0     C 7490   1.880  11.524   1.917 -0.0042 -0.9094 -0.3646
   56MOL0     C 7491   1.767  11.442   1.918 -0.5291  0.2214  0.0811
   56MOL0     C 7492   1.725  11.377   2.057  0.3107 -0.6813 -0.1538
   56MOL0     H 7493   1.439  11.344   1.500  1.8393 -0.5381  1.0448
   56MOL0     H 7494   1.216  11.278   1.440 -1.4136 -0.8355  1.3119
   56MOL0     H 7495   0.981  11.259   1.580  0.1453 -0.2092 -0.4069
   56MOL0     H 7496   0.986  11.187   1.409 -0.6946 -0.5990 -0.1349
   56MOL0     H 7497   0.824  11.060   1.619 -3.5497 -0.1433 -1.3363
   56MOL0     H 7498   0.817  11.035   1.448  1.3452 -0.4063 -0.4562
   56MOL0     H 7499   0.687  11.228   1.408  0.3205 -1.4368 -0.9715
   56MOL0     H 7500   0.763  11.302   1.554  1.6448 -1.7216  0.1738
   56MOL0     H 7501   0.551  11.081   1.540 -0.7087  0.8864 -0.9495
   56MOL0     H 7502   0.621  11.150   1.687  1.9067  0.3864 -0.7643
   56MOL0     H 7503   0.534  11.369   1.623 -1.1170  0.0810  2.3689
   56MOL0     H 7504   0.467  11.297   1.481  1.4608 -0.7416 -0.6682
   56MOL0     H 7505   0.304  11.176   1.602  1.8232 -2.2205  0.2275
   56MOL0     H 7506   0.398  11.177   1.758 -4.4478 -3.0399  0.0211
   56MOL0     H 7507   0.282  11.430   1.643  2.7271  2.0175  1.9409
   56MOL0     H 7508   0.360  11.414   1.786 -1.5876  1.4908 -0.3269
   56MOL0     H 7509   0.164  11.221   1.831 -2.1518  0.7085  0.5921
   56MOL0     H 7510   0.150  11.395   1.865 -1.0445  2.3188 -2.3189
   56MOL0     H 7511   0.082  11.174   1.549  0.4042 -0.8161  1.6546
   56MOL0     H 7512  -0.131  11.185   1.373 -0.5960  1.0100  0.7531
   56MOL0     H 7513  -0.208  11.345   1.367  0.7565  1.7474  1.0605
   56MOL0     H 7514   0.083  11.280   1.265  0.6131 -0.2430  0.9298
   56MOL0     H 7515  -0.058  11.281   1.178  2.1967 -1.2140 -0.6618
   56MOL0     H 7516  -0.099  11.542   1.238  2.8047  2.0940  0.1358
   56MOL0     H 7517   0.010  11.493   1.125 -1.1061 -2.3308 -0.3002
   56MOL0     H 7518   0.198  11.482   1.281  0.0959 -0.7815  0.3910
   56MOL0     H 7519   0.078  11.548   1.406 -1.3150  2.6223 -0.7273
   56MOL0     H 7520   0.196  11.883   1.144  0.2898 -1.2147  0.1509
   56MOL0     H 7521   0.361  12.039   1.239 -4.7289  0.7698 -0.8062
   56MOL0     H 7522   0.553  12.287   1.577  1.4571 -1.8977  0.4447
   56MOL0     H 7523   0.702  12.489   1.587 -0.0776 -0.6192 -0.0741
   56MOL0     H 7524   1.063  12.420   1.413  0.5812  0.3486  0.5372
   56MOL0     H 7525   1.037  12.531   1.268 -0.7494  0.8293  0.0681
   56MOL0     H 7526   1.074  12.714   1.457  1.0253  0.3546 -3.1382
   56MOL0     H 7527   1.127  12.561   1.543 -0.3955 -3.3838 -2.2288
   56MOL0     H 7528   1.322  12.644   1.440  0.6920  2.8468 -1.7286
   56MOL0     H 7529   1.264  12.531   1.310  2.4933  0.2743  0.0343
   56MOL0     H 7530   1.139  12.800   1.299 -0.3498 -0.9807  2.8841
   56MOL0     H 7531   1.229  12.720   1.167 -0.6478  2.8314  0.3204
   56MOL0     H 7532   1.452  12.795   1.258  0.8998  3.3483 -2.3109
   56MOL0     H 7533   1.352  12.864   1.394 -5.2025 -1.4841  0.5549
   56MOL0     H 7534   1.428  13.006   1.167 -0.9127 -1.2793 -2.0476
   56MOL0     H 7535   1.260  12.948   1.131 -1.6793 -1.0703  1.3267
   56MOL0     H 7536   1.351  13.111   1.363  0.1856 -2.9891  1.0997
   56MOL0     H 7537   1.190  13.036   1.370 -2.0721  3.0571 -0.6453
   56MOL0     H 7538   1.271  13.227   1.152  2.6421 -0.1311  2.6862
   56MOL0     H 7539   1.112  13.133   1.176 -0.5476  0.0122  1.1612
   56MOL0     H 7540   0.890  12.361   1.229  1.5491  0.1930  1.1913
   56MOL0     H 7541   0.749  12.157   1.219  1.2825 -0.1542  0.1360
   56MOL0     H 7542   0.383  11.822   1.595  0.5207  1.2437 -1.3778
   56MOL0     H 7543   0.193  11.667   1.512 -1.2366  0.3224  0.5789
   56MOL0     H 7544   1.219  10.972   1.745 -0.1808  1.2050  1.5239
   56MOL0     H 7545   1.449  11.030   1.802  0.4922 -0.3533  0.2262
   56MOL0     H 7546   1.762  11.402   1.570  0.8660 -1.0627  0.3494
   56MOL0     H 7547   1.972  11.554   1.591 -0.0624  2.7874  0.6943
   56MOL0     H 7548   2.085  11.742   1.630  0.6163 -0.6838 -1.9339
   56MOL0     H 7549   2.207  11.613   1.665  0.0074  0.8304 -0.9836
   56MOL0     H 7550   2.306  11.749   1.831  0.1053  0.8787  0.4875
   56MOL0     H 7551   2.192  11.879   1.798  0.4603 -0.0846 -0.3054
   56MOL0     H 7552   2.272  11.943   1.612 -5.0157 -1.9413 -3.6835
   56MOL0     H 7553   2.324  11.794   1.545 -1.4999  1.3067  0.3715
   56MOL0     H 7554   2.522  11.801   1.717  3.3383  1.0973 -2.8815
   56MOL0     H 7555   2.519  11.915   1.583  1.2905  2.8915  1.1797
   56MOL0     H 7556   2.463  12.180   1.910 -0.1687 -0.0392  0.1299
   56MOL0     H 7557   1.920  11.551   2.014 -1.2037 -0.3062 -0.0151
   56MOL0     H 7558   1.718  11.268   2.044 -1.8099 -0.8640  1.8119
   56MOL0     H 7559   1.796  11.409   2.134  1.6350  2.6813 -2.5787
   56MOL0     H 7560   1.629  11.416   2.090  1.4100  0.4449  1.9258
   57MOL0     O 7561   9.452   6.856   9.787 -0.5570  0.3261  0.0099
   57MOL0     C 7562   9.487   6.781   9.699  0.6046  0.3428  0.0184
   57MOL0     O 7563   9.406   6.685   9.637 -0.5842 -0.6013 -0.0525
   57MOL0     C 7564   9.267   6.681   9.662  0.5963 -0.0442 -0.3868
   57MOL0     C 7565   9.218   6.589   9.752  0.8532  0.5970  0.3006
   57MOL0     C 7566   9.080   6.575   9.769 -0.0730  0.0457  0.2077
   57MOL0     C 7567   8.994   6.663   9.707 -0.5334  0.1950  0.3939
   57MOL0     O 7568   8.867   6.651   9.722 -0.0101  0.0869 -0.1956
   57MOL0     C 7569   8.807   6.700   9.842  0.5040  0.2766 -0.2458
   57MOL0     C 7570   8.652   6.681   9.835 -0.4889  0.5903 -0.0176
   57MOL0     C 7571   8.605   6.539   9.876  1.0416 -0.6265 -0.3594
   57MOL0     C 7572   8.450   6.523   9.843  0.3810  0.4259  0.1256
   57MOL0     C 7573   8.392   6.384   9.874  0.6402 -0.2735  0.4019
   57MOL0     C 7574   8.431   6.281   9.770  0.1733  0.7396  0.7201
   57MOL0     C 7575   8.358   6.151   9.799 -0.5796  0.7375  0.5755
   57MOL0     C 7576   8.208   6.170   9.778  0.9166  0.1686  0.0018
   57MOL0     N 7577   8.143   6.043   9.739  0.0871 -0.2353  0.7087
   57MOL0     C 7578   8.048   5.988   9.813 -0.6153  0.4754 -0.3540
   57MOL0     C 7579   8.017   5.875   9.754 -0.1154  0.4653 -0.2618
   57MOL0     C 7580   7.894   5.784   9.786 -0.8153 -0.2175 -0.5243
   57MOL0     C 7581   7.939   5.631   9.772 -0.1641  0.0701  0.6796
   57MOL0     C 7582   8.063   5.595   9.842  0.6079  0.0674 -0.4345
   57MOL0     C 7583   8.061   5.615   9.990 -0.8181 -0.0703 -0.2231
   57MOL0     O 7584   8.184   5.567  10.051  0.3414 -0.5233  0.2996
   57MOL0     C 7585   8.299   5.645  10.057  0.5943  0.2525  0.1660
   57MOL0     C 7586   8.323   5.754   9.981  0.2876  0.0982 -0.0767
   57MOL0     C 7587   8.444   5.821   9.985  0.4033 -0.2163 -1.6997
   57MOL0     C 7588   8.550   5.774  10.070  0.8184 -0.5677  0.1510
   57MOL0     C 7589   8.673   5.857  10.055 -0.6957  0.2180 -0.8756
   57MOL0     O 7590   8.701   5.933   9.941 -0.4707 -0.3110 -0.7828
   57MOL0     C 7591   8.829   5.989   9.922  0.0044  0.5340  0.4932
   57MOL0     C 7592   8.831   6.128   9.918  0.2209  0.1507  0.6297
   57MOL0     C 7593   8.955   6.198   9.912 -0.3682  0.1034 -0.1153
   57MOL0     C 7594   9.076   6.120   9.905  0.3835 -0.3382 -0.3751
   57MOL0     O 7595   9.200   6.183   9.889  0.3660  0.4682 -1.1357
   57MOL0     C 7596   9.301   6.161   9.996  0.7423 -1.6339  0.1851
   57MOL0     C 7597   9.435   6.218   9.961  0.1347 -0.6005  1.0420
   57MOL0     C 7598   9.545   6.176  10.063  0.1195 -0.1138 -0.0553
   57MOL0     C 7599   9.531   6.268  10.184  0.0195  0.4171 -1.7780
   57MOL0     C 7600   9.659   6.246  10.266 -0.1429 -0.2341 -0.8230
   57MOL0     C 7601   9.671   6.335  10.389 -0.5706  0.5174 -0.7109
   57MOL0     C 7602   9.799   6.319  10.463 -1.1582 -0.9507 -0.5254
   57MOL0     C 7603   9.824   6.174  10.518  0.3666  0.0330 -0.6189
   57MOL0    Cl 7604   9.936   6.182  10.655  0.4556 -0.6498 -0.4403
   57MOL0     C 7605   9.067   5.977   9.903  1.0142 -0.5000 -0.0526
   57MOL0     C 7606   8.946   5.912   9.913 -0.4878 -1.0245 -0.3378
   57MOL0     O 7607   8.744   5.852  10.159  0.2082  0.7516 -0.3834
   57MOL0     C 7608   8.528   5.657  10.144  0.1780  0.2230 -0.6537
   57MOL0     C 7609   8.404   5.594  10.141  0.3308  0.0137 -0.8737
   57MOL0     N 7610   8.108   5.867   9.639  0.0117  0.2069 -0.5475
   57MOL0     N 7611   8.178   5.969   9.636  0.7909  0.3445 -0.2535
   57MOL0     C 7612   9.041   6.771   9.640 -0.9011 -0.0832 -0.0579
   57MOL0     C 7613   9.177   6.775   9.610  0.2864 -0.1286 -0.1083
   57MOL0     C 7614   9.625   6.774   9.673 -0.3088  0.4032 -0.3077
   57MOL0     C 7615   9.714   6.883   9.672  0.2316 -0.8802 -0.4914
   57MOL0     C 7616   9.849   6.866   9.662 -0.5205  0.0280 -0.4629
   57MOL0     C 7617   9.909   6.740   9.634 -0.4036 -0.0583 -0.0226
   57MOL0     O 7618  10.043   6.724   9.625  0.0314 -0.3162  0.1918
   57MOL0     C 7619  10.104   6.790   9.512  0.0014  0.6431 -1.2833
   57MOL0     C 7620  10.238   6.719   9.479  0.4061  0.9887  0.2268
   57MOL0     C 7621  10.349   6.727   9.587 -0.6821  0.3361 -0.1325
   57MOL0     C 7622  10.358   6.866   9.641  0.4595  0.3571  0.9268
   57MOL0     C 7623  10.395   6.970   9.541  0.1179  0.4982 -0.2838
   57MOL0     C 7624  10.421   7.047   9.452  0.2215  0.6958 -0.4444
   57MOL0     C 7625   9.827   6.634   9.627  0.4709 -0.4560 -0.2065
   57MOL0     C 7626   9.685   6.644   9.646 -0.3792 -0.9887  0.7361
   57MOL0     C 7627   9.621   6.509   9.643 -0.0263 -0.0409  0.4454
   57MOL0     H 7628   9.291   6.530   9.807 -0.4503 -0.0089  1.4404
   57MOL0     H 7629   9.040   6.481   9.806 -2.0152  0.1695 -1.4080
   57MOL0     H 7630   8.840   6.648   9.932 -1.0010 -0.9778 -0.3665
   57MOL0     H 7631   8.828   6.806   9.858 -0.3633  0.8525 -2.5754
   57MOL0     H 7632   8.627   6.716   9.735  0.9326  1.2056 -0.1848
   57MOL0     H 7633   8.617   6.750   9.913 -4.3628 -1.6999  0.5106
   57MOL0     H 7634   8.629   6.528   9.983 -1.0185  0.7754  0.3041
   57MOL0     H 7635   8.659   6.462   9.821  0.2408 -0.5739 -1.2402
   57MOL0     H 7636   8.390   6.598   9.896 -1.9377 -1.9286  1.0424
   57MOL0     H 7637   8.433   6.552   9.739 -1.6158  0.5927  0.4542
   57MOL0     H 7638   8.423   6.346   9.971 -0.7759 -0.7258  0.6944
   57MOL0     H 7639   8.283   6.388   9.863  0.7476 -1.7815 -2.2168
   57MOL0     H 7640   8.413   6.312   9.667 -0.1829  1.9865  1.1328
   57MOL0     H 7641   8.539   6.268   9.774  0.2744  1.1859 -0.4147
   57MOL0     H 7642   8.381   6.141   9.905 -2.8372  4.2100  1.5488
   57MOL0     H 7643   8.413   6.070   9.750 -0.1442  0.6657  1.1763
   57MOL0     H 7644   8.146   6.188   9.866 -3.8195 -1.6666 -2.5948
   57MOL0     H 7645   8.172   6.238   9.699 -2.9107 -1.0093  0.5038
   57MOL0     H 7646   8.009   6.030   9.906 -2.3581  0.3145 -0.9637
   57MOL0     H 7647   7.856   5.811   9.885 -2.2430 -2.7157 -0.3037
   57MOL0     H 7648   7.820   5.807   9.709 -2.4773 -1.8316  0.5033
   57MOL0     H 7649   7.855   5.566   9.798 -1.5284  1.5236  0.0477
   57MOL0     H 7650   7.951   5.614   9.665  0.7562 -0.9231  0.9277
   57MOL0     H 7651   8.150   5.645   9.799  0.7000 -0.9739 -1.5260
   57MOL0     H 7652   8.073   5.486   9.836 -0.2224 -0.2864  2.7784
   57MOL0     H 7653   7.971   5.565  10.027 -2.2931  2.1409 -0.5816
   57MOL0     H 7654   8.056   5.723  10.006 -2.1287 -0.1475  0.0146
   57MOL0     H 7655   8.259   5.796   9.904 -0.0537 -0.8584 -0.3302
   57MOL0     H 7656   8.459   5.902   9.914  3.5933 -2.2136 -3.5766
   57MOL0     H 7657   8.733   6.170   9.936  0.3362  0.2774  0.9621
   57MOL0     H 7658   8.957   6.305   9.934  0.6362 -0.0379  0.5445
   57MOL0     H 7659   9.272   6.212  10.088  1.2070  2.5352 -1.7812
   57MOL0     H 7660   9.306   6.054  10.021  1.3864 -1.5107  0.5908
   57MOL0     H 7661   9.479   6.184   9.867 -0.1415 -0.9078  1.0198
   57MOL0     H 7662   9.426   6.326   9.952 -3.5625 -0.8599  0.0422
   57MOL0     H 7663   9.534   6.073  10.096 -0.5356 -1.3094 -3.5919
   57MOL0     H 7664   9.638   6.189  10.007  1.1051  1.7294  1.8727
   57MOL0     H 7665   9.446   6.235  10.244  1.5291 -0.3501  0.0221
   57MOL0     H 7666   9.527   6.373  10.153 -1.6038  1.0728  0.4230
   57MOL0     H 7667   9.746   6.268  10.204  0.0029  0.6555 -0.3330
   57MOL0     H 7668   9.666   6.142  10.297  2.1344 -0.5453 -2.1507
   57MOL0     H 7669   9.654   6.438  10.355  0.9446  1.0696  0.0708
   57MOL0     H 7670   9.587   6.304  10.452 -1.0720  0.7836 -1.2432
   57MOL0     H 7671   9.792   6.385  10.549 -0.2165 -0.1129 -1.0657
   57MOL0     H 7672   9.890   6.348  10.409 -1.0424  0.9031  0.6117
   57MOL0     H 7673   9.734   6.129  10.562  1.7042 -0.9688  1.2243
   57MOL0     H 7674   9.855   6.115  10.431  2.0846  0.1744 -0.1346
   57MOL0     H 7675   9.161   5.923   9.897  1.9121  1.0672 -0.7072
   57MOL0     H 7676   8.950   5.804   9.928  0.2107 -0.7129  2.0941
   57MOL0     H 7677   8.606   5.634  10.216 -0.7499  4.1449  1.9240
   57MOL0     H 7678   8.399   5.499  10.193  1.2223  0.8508  0.8123
   57MOL0     H 7679   8.974   6.846   9.599  1.8746  2.2052 -0.6953
   57MOL0     H 7680   9.206   6.850   9.537 -0.3423  2.1179  1.7885
   57MOL0     H 7681   9.660   6.976   9.688 -1.8210 -2.6190  5.4316
   57MOL0     H 7682   9.918   6.949   9.674  1.2303 -1.0297 -2.3283
   57MOL0     H 7683  10.103   6.898   9.530  0.4318  0.1065  2.8032
   57MOL0     H 7684  10.041   6.782   9.422 -1.1709 -1.2851 -0.3521
   57MOL0     H 7685  10.265   6.772   9.388  0.3927  1.1577  0.3208
   57MOL0     H 7686  10.236   6.612   9.455 -0.0693  1.0272  0.0946
   57MOL0     H 7687  10.448   6.702   9.549  0.4123  0.3709  2.4524
   57MOL0     H 7688  10.337   6.652   9.667  1.9506 -0.6650 -0.5823
   57MOL0     H 7689  10.268   6.891   9.697  1.2141  2.4012  1.3018
   57MOL0     H 7690  10.444   6.857   9.708  1.4241 -2.0510 -0.4786
   57MOL0     H 7691  10.422   7.115   9.369  2.7793 -0.9049 -1.8654
   57MOL0     H 7692   9.876   6.539   9.609  0.4034 -0.9037  1.7313
   57MOL0     H 7693   9.537   6.506   9.712 -0.6466  0.5230 -0.2774
   57MOL0     H 7694   9.586   6.495   9.540  2.2699 -1.5994 -0.2250
   57MOL0     H 7695   9.692   6.426   9.655  0.4299  0.4925  1.5654
   58MOL0     O 7696  11.478   1.531   7.499  0.5190 -0.3564  0.9117
   58MOL0     C 7697  11.438   1.621   7.426 -0.5759  0.0879 -0.8763
   58MOL0     O 7698  11.510   1.740   7.408  0.8269 -0.8873 -0.0669
   58MOL0     C 7699  11.600   1.778   7.511  1.0200 -0.5249 -0.1683
   58MOL0     C 7700  11.563   1.863   7.622  0.5093 -0.0622  0.9972
   58MOL0     C 7701  11.646   1.888   7.733 -0.2994  0.1186  1.5551
   58MOL0     C 7702  11.771   1.833   7.728  0.0770 -1.6138 -0.4329
   58MOL0     O 7703  11.870   1.852   7.831 -0.1309 -0.1189  0.5550
   58MOL0     C 7704  11.888   1.990   7.861  0.3500 -0.4866 -0.6481
   58MOL0     C 7705  11.798   2.056   7.964  0.5669  0.1673 -0.2079
   58MOL0     C 7706  11.852   2.199   8.009  1.1105  0.8012  0.5285
   58MOL0     C 7707  11.751   2.263   8.094 -0.4562 -0.2729  0.2070
   58MOL0     C 7708  11.810   2.404   8.128  1.0393  0.4607  0.1194
   58MOL0     C 7709  11.707   2.511   8.168 -0.3387 -0.7157  0.7813
   58MOL0     C 7710  11.651   2.496   8.307  0.0426  0.3352  0.2560
   58MOL0     C 7711  11.605   2.633   8.352  0.0259 -0.2483 -0.0195
   58MOL0     N 7712  11.529   2.647   8.481 -0.2856  0.0428 -0.4795
   58MOL0     C 7713  11.457   2.551   8.531  0.8860 -0.6478 -0.2477
   58MOL0     C 7714  11.424   2.596   8.660  0.3671  0.5053 -1.2452
   58MOL0     C 7715  11.361   2.511   8.772  0.7020  0.3058  0.0422
   58MOL0     C 7716  11.446   2.478   8.892  0.5709 -0.1940 -0.3141
   58MOL0     C 7717  11.577   2.411   8.843  0.1634 -0.8946 -0.4599
   58MOL0     C 7718  11.548   2.270   8.778 -0.9405  0.0380 -0.0347
   58MOL0     O 7719  11.657   2.186   8.821  0.6110  0.1067 -0.5427
   58MOL0     C 7720  11.762   2.170   8.735 -0.7627 -0.2035 -0.8657
   58MOL0     C 7721  11.781   2.230   8.610  1.1308  0.1247 -0.2159
   58MOL0     C 7722  11.898   2.224   8.533 -0.0783 -0.2942 -1.1875
   58MOL0     C 7723  12.002   2.144   8.587 -0.8886  0.6669 -0.5876
   58MOL0     C 7724  12.127   2.109   8.505 -0.1686 -0.1042 -0.8352
   58MOL0     O 7725  12.218   2.024   8.569 -0.0963 -0.2580 -0.6711
   58MOL0     C 7726  12.325   1.973   8.502  0.7448 -0.2162  0.1231
   58MOL0     C 7727  12.419   2.055   8.441 -0.1963  0.1450  0.6157
   58MOL0     C 7728  12.532   1.995   8.376 -0.8191 -0.5189 -0.9004
   58MOL0     C 7729  12.558   1.856   8.371  1.0685 -0.1682 -0.7159
   58MOL0     O 7730  12.689   1.819   8.322  0.4852 -0.5885 -0.0400
   58MOL0     C 7731  12.719   1.676   8.299 -0.8019 -1.4725 -0.4350
   58MOL0     C 7732  12.691   1.646   8.157 -0.0422 -0.7010  0.2747
   58MOL0     C 7733  12.783   1.719   8.057 -0.2850  0.0912  0.9255
   58MOL0     C 7734  12.719   1.717   7.920 -1.0708 -0.1761  0.1966
   58MOL0     C 7735  12.829   1.763   7.820  0.3885  0.0501 -1.0217
   58MOL0     C 7736  12.818   1.702   7.681  0.3877 -0.0146 -1.2682
   58MOL0     C 7737  12.692   1.745   7.612  1.1583  0.2769  0.0644
   58MOL0     C 7738  12.676   1.698   7.462 -0.0352  0.3121  0.0551
   58MOL0    Cl 7739  12.703   1.525   7.456 -0.2552  0.3926  0.0286
   58MOL0     C 7740  12.460   1.771   8.411 -0.1918  0.5600 -1.1585
   58MOL0     C 7741  12.351   1.834   8.484  0.0446 -0.9822  0.9543
   58MOL0     O 7742  12.136   2.151   8.390  0.5876  0.9817 -0.0061
   58MOL0     C 7743  11.997   2.087   8.721 -0.0476  0.9512  0.6184
   58MOL0     C 7744  11.867   2.102   8.785  0.6475  0.1488 -0.2185
   58MOL0     N 7745  11.484   2.716   8.674 -0.1861 -0.7937  0.0043
   58MOL0     N 7746  11.528   2.751   8.570 -0.3645 -0.5888  0.4551
   58MOL0     C 7747  11.809   1.757   7.619  0.0738  0.5732 -1.6596
   58MOL0     C 7748  11.717   1.723   7.519 -0.4288  0.5626 -0.0007
   58MOL0     C 7749  11.322   1.588   7.337 -0.0435 -0.6263  0.6148
   58MOL0     C 7750  11.279   1.691   7.254  1.0507 -0.3250 -0.3785
   58MOL0     C 7751  11.175   1.681   7.160  0.0149 -0.0857  0.5119
   58MOL0     C 7752  11.108   1.559   7.134  0.6270 -0.0633  0.0271
   58MOL0     O 7753  11.015   1.555   7.034 -0.0776  0.5987  0.8742
   58MOL0     C 7754  10.924   1.446   7.029 -0.1520 -0.0004  0.0102
   58MOL0     C 7755  10.885   1.423   6.882  0.1368 -0.6134 -0.0742
   58MOL0     C 7756  10.791   1.298   6.865 -0.5516  0.7214 -0.2866
   58MOL0     C 7757  10.763   1.279   6.711 -0.1616 -0.0509  0.3033
   58MOL0     C 7758  10.883   1.260   6.630  0.6268 -1.1179  0.3094
   58MOL0     C 7759  10.974   1.261   6.548  0.2495  0.6104  0.3607
   58MOL0     C 7760  11.149   1.458   7.222  1.0056 -0.3829  0.2897
   58MOL0     C 7761  11.249   1.467   7.324 -0.2110 -0.5031 -0.0166
   58MOL0     C 7762  11.261   1.364   7.436  0.6705  0.0373  0.2771
   58MOL0     H 7763  11.459   1.894   7.632 -0.5506 -2.5662 -1.0565
   58MOL0     H 7764  11.584   1.938   7.807 -2.0459 -1.5081  1.2635
   58MOL0     H 7765  11.985   1.994   7.911 -0.6477 -0.3627  1.3888
   58MOL0     H 7766  11.900   2.064   7.781  0.9912 -0.8275 -0.8666
   58MOL0     H 7767  11.785   1.990   8.050 -1.0020 -0.3583 -0.8015
   58MOL0     H 7768  11.702   2.078   7.917  1.3353  0.8105 -1.5315
   58MOL0     H 7769  11.854   2.266   7.922 -0.6957  0.2905  0.0556
   58MOL0     H 7770  11.947   2.178   8.060 -0.2167 -0.1850  2.7190
   58MOL0     H 7771  11.660   2.279   8.035 -0.7170 -1.1847  0.3478
   58MOL0     H 7772  11.733   2.194   8.177  0.0144 -0.9365 -0.2337
   58MOL0     H 7773  11.882   2.404   8.210  2.2120  0.0523 -0.8794
   58MOL0     H 7774  11.870   2.445   8.046  1.7312  1.7854  1.2251
   58MOL0     H 7775  11.750   2.610   8.158  2.8767 -2.0649  0.0965
   58MOL0     H 7776  11.620   2.503   8.102 -0.3067  0.1715  0.6208
   58MOL0     H 7777  11.734   2.453   8.364  0.5921 -1.0006 -1.4408
   58MOL0     H 7778  11.579   2.414   8.310 -0.9970  1.2518  1.4621
   58MOL0     H 7779  11.687   2.706   8.352 -0.3801  0.2103 -1.0318
   58MOL0     H 7780  11.533   2.672   8.280 -3.7135 -0.9818  2.9961
   58MOL0     H 7781  11.440   2.450   8.493  2.7711 -1.9658  2.0969
   58MOL0     H 7782  11.273   2.558   8.815  1.0605  0.5570  0.5071
   58MOL0     H 7783  11.325   2.422   8.719 -1.3415  1.5521 -0.7751
   58MOL0     H 7784  11.466   2.574   8.941  1.8021 -1.0762  1.0225
   58MOL0     H 7785  11.402   2.408   8.964  2.6824 -3.1439 -1.7036
   58MOL0     H 7786  11.640   2.399   8.932 -2.5626 -0.0482  1.7298
   58MOL0     H 7787  11.631   2.479   8.775  3.3409 -1.6653  1.0889
   58MOL0     H 7788  11.535   2.253   8.671 -1.7090  0.1418  0.0347
   58MOL0     H 7789  11.462   2.224   8.828  0.7368 -3.6250 -0.1903
   58MOL0     H 7790  11.713   2.310   8.581 -1.8983 -1.8663  0.9062
   58MOL0     H 7791  11.900   2.287   8.444  2.5220  0.3630 -0.7221
   58MOL0     H 7792  12.408   2.161   8.461  1.2904  0.4404  0.0263
   58MOL0     H 7793  12.609   2.053   8.326  0.6366 -1.1936  0.4666
   58MOL0     H 7794  12.824   1.652   8.319 -0.1367 -1.5279 -3.4917
   58MOL0     H 7795  12.664   1.614   8.370  1.6179 -1.7422  1.3211
   58MOL0     H 7796  12.689   1.538   8.138  0.8368 -1.4697  3.7826
   58MOL0     H 7797  12.590   1.678   8.131  1.1152  1.0504 -2.4554
   58MOL0     H 7798  12.791   1.828   8.068  3.4109 -0.0141  0.5936
   58MOL0     H 7799  12.883   1.675   8.052  0.2892  1.2255  1.7833
   58MOL0     H 7800  12.632   1.783   7.917 -2.2354 -1.7139 -0.7178
   58MOL0     H 7801  12.693   1.618   7.883  0.5494 -0.4500 -0.2826
   58MOL0     H 7802  12.931   1.734   7.846  0.4736  0.1183 -1.2719
   58MOL0     H 7803  12.827   1.872   7.818  1.9169  0.2729  2.5418
   58MOL0     H 7804  12.904   1.742   7.626  2.5968  2.8405  3.6232
   58MOL0     H 7805  12.835   1.594   7.688 -0.6486 -0.1340 -0.4166
   58MOL0     H 7806  12.688   1.854   7.620  0.9440  0.6337 -3.3267
   58MOL0     H 7807  12.604   1.705   7.664  2.3971 -1.5795  0.8074
   58MOL0     H 7808  12.573   1.714   7.429  0.1315 -2.0394 -1.9060
   58MOL0     H 7809  12.743   1.759   7.401 -1.7634  2.3315  0.1006
   58MOL0     H 7810  12.477   1.664   8.405 -0.8241  0.3580  0.3228
   58MOL0     H 7811  12.273   1.774   8.529 -0.2491 -1.4835 -0.1780
   58MOL0     H 7812  12.072   2.026   8.772 -0.2986  1.1535  1.2408
   58MOL0     H 7813  11.849   2.070   8.887 -1.6069 -1.5389 -1.0801
   58MOL0     H 7814  11.910   1.717   7.613  0.9646  1.4521  3.0843
   58MOL0     H 7815  11.751   1.656   7.441  0.2321  2.4934 -1.4683
   58MOL0     H 7816  11.331   1.786   7.259  0.5589  0.0457 -1.8195
   58MOL0     H 7817  11.152   1.760   7.090  2.7715 -1.5136 -2.2270
   58MOL0     H 7818  10.827   1.478   7.070 -0.4234  3.0741 -2.5769
   58MOL0     H 7819  10.972   1.359   7.073  0.3733 -0.5736 -1.6317
   58MOL0     H 7820  10.972   1.397   6.820 -1.2480 -0.3491 -2.2097
   58MOL0     H 7821  10.832   1.512   6.847  1.8051  1.3151  1.9286
   58MOL0     H 7822  10.692   1.298   6.912 -0.0345  0.1131  0.8509
   58MOL0     H 7823  10.840   1.204   6.892 -0.0877  1.5565  2.0552
   58MOL0     H 7824  10.692   1.199   6.687 -2.6218  1.8100  0.9704
   58MOL0     H 7825  10.716   1.368   6.669 -2.4539 -0.8884  0.9437
   58MOL0     H 7826  11.029   1.263   6.456  0.1428  1.0777  0.3054
   58MOL0     H 7827  11.102   1.360   7.218 -1.4702  0.7650 -0.9183
   58MOL0     H 7828  11.259   1.415   7.533 -1.1621 -0.2884  0.4518
   58MOL0     H 7829  11.171   1.302   7.439 -0.3692  1.5379  1.8366
   58MOL0     H 7830  11.348   1.298   7.435 -1.2782 -2.7765  1.4761
   59MOL0     O 7831   7.838  11.022   2.114 -0.5309 -0.6629 -0.4884
   59MOL0     C 7832   7.941  11.087   2.081  0.3971 -0.8153  0.3099
   59MOL0     O 7833   8.071  11.035   2.059  0.1432  0.6313 -0.1026
   59MOL0     C 7834   8.095  10.894   2.049  0.0074 -1.7224  1.0482
   59MOL0     C 7835   8.009  10.791   2.007 -0.0693 -0.0420  0.4541
   59MOL0     C 7836   8.044  10.650   2.019 -0.4771 -0.0443 -0.9117
   59MOL0     C 7837   8.161  10.607   2.073 -0.1677  0.3398 -0.2904
   59MOL0     O 7838   8.212  10.477   2.094 -0.2674 -0.6568 -0.2410
   59MOL0     C 7839   8.151  10.376   2.009  0.2431 -0.0611 -0.7532
   59MOL0     C 7840   8.191  10.238   2.072 -0.4317  0.2343 -0.3181
   59MOL0     C 7841   8.103  10.174   2.187  0.2935  0.2002 -0.0361
   59MOL0     C 7842   8.165  10.181   2.322  0.0870 -0.6087  0.0340
   59MOL0     C 7843   8.085  10.125   2.440  1.3608 -1.1726 -0.2262
   59MOL0     C 7844   8.052   9.983   2.437  0.6822 -0.5398 -1.1339
   59MOL0     C 7845   8.173   9.898   2.427  0.5887  0.0147  0.5634
   59MOL0     C 7846   8.259   9.920   2.555  0.6448  1.2308  0.1348
   59MOL0     N 7847   8.360   9.808   2.555  1.0488  0.3795 -0.2366
   59MOL0     C 7848   8.442   9.789   2.661  0.2381 -0.0257  0.4996
   59MOL0     C 7849   8.504   9.673   2.629 -0.0874 -0.7249  0.0388
   59MOL0     C 7850   8.609   9.605   2.721  0.6067  0.1332 -0.2973
   59MOL0     C 7851   8.726   9.695   2.759  0.3715 -0.5757  0.4136
   59MOL0     C 7852   8.824   9.610   2.838  0.0677  0.3281  0.5696
   59MOL0     C 7853   8.954   9.685   2.859 -0.7728  1.1040 -0.3845
   59MOL0     O 7854   9.037   9.604   2.942 -0.2058 -0.5366 -0.1047
   59MOL0     C 7855   9.169   9.641   2.971  1.0045 -0.3832 -0.4790
   59MOL0     C 7856   9.276   9.542   2.988  0.3562 -0.2386  0.3265
   59MOL0     C 7857   9.403   9.593   3.012 -0.6453 -0.4532  0.1769
   59MOL0     C 7858   9.424   9.729   3.044  0.1855 -0.3701  0.8462
   59MOL0     C 7859   9.559   9.769   3.097 -0.5893 -0.3669  1.6808
   59MOL0     O 7860   9.583   9.905   3.110  0.6155 -0.2826  0.8578
   59MOL0     C 7861   9.710   9.944   3.149  0.5731 -0.7000  0.1046
   59MOL0     C 7862   9.809   9.951   3.055  0.9204 -1.0303  0.5918
   59MOL0     C 7863   9.934  10.004   3.095 -0.3852  0.2772 -0.3149
   59MOL0     C 7864   9.968  10.038   3.231 -0.0385 -0.0129  0.2344
   59MOL0     O 7865  10.074  10.106   3.269 -1.0909  0.9672 -0.4549
   59MOL0     C 7866  10.141  10.183   3.167  0.1662 -0.4503 -0.6083
   59MOL0     C 7867  10.237  10.287   3.228 -1.3120 -0.3478  0.4287
   59MOL0     C 7868  10.192  10.334   3.364 -0.0456  0.3760 -0.9123
   59MOL0     C 7869  10.059  10.413   3.361 -0.9192  0.1940  0.0179
   59MOL0     C 7870  10.008  10.474   3.494  0.0776 -0.5187  0.0293
   59MOL0     C 7871   9.870  10.543   3.477 -0.3249 -0.3928 -0.4730
   59MOL0     C 7872   9.799  10.548   3.607  0.1188 -0.6141 -0.3657
   59MOL0     C 7873   9.670  10.630   3.611 -0.0951 -0.4251 -0.3314
   59MOL0    Cl 7874   9.715  10.807   3.585  0.1877  0.2835 -0.1651
   59MOL0     C 7875   9.863  10.034   3.325 -0.6922  0.6976 -0.4939
   59MOL0     C 7876   9.745   9.982   3.281  0.6102 -1.0930  0.3752
   59MOL0     O 7877   9.652   9.681   3.098 -0.2762 -0.4767 -0.6708
   59MOL0     C 7878   9.319   9.821   3.038 -1.1236 -0.0207 -0.1431
   59MOL0     C 7879   9.197   9.778   2.988  0.0793 -0.1000 -0.2367
   59MOL0     N 7880   8.462   9.617   2.505 -0.1841 -0.8274 -0.6192
   59MOL0     N 7881   8.378   9.704   2.467  0.1047 -0.1976 -0.3542
   59MOL0     C 7882   8.252  10.716   2.113  0.1205 -0.6600 -0.2797
   59MOL0     C 7883   8.217  10.849   2.096  0.0735 -0.4346  0.1881
   59MOL0     C 7884   7.919  11.231   2.056 -0.9131  0.3344 -0.0118
   59MOL0     C 7885   8.033  11.310   2.070 -0.3155 -0.3105  0.0856
   59MOL0     C 7886   8.027  11.448   2.057  0.0974  0.4700  0.4111
   59MOL0     C 7887   7.902  11.515   2.020  0.3821 -0.6765 -0.4725
   59MOL0     O 7888   7.873  11.638   2.001  0.4072  0.0931  0.0617
   59MOL0     C 7889   7.966  11.745   2.027  0.7277  0.9309 -0.1947
   59MOL0     C 7890   7.901  11.863   1.971  0.4201 -0.8420 -0.3164
   59MOL0     C 7891   7.759  11.896   2.017  0.1592  0.3224  1.4049
   59MOL0     C 7892   7.751  11.868   2.170 -0.2957 -0.4513 -0.1458
   59MOL0     C 7893   7.640  11.939   2.237  0.7299 -0.6189 -0.3644
   59MOL0     C 7894   7.548  11.984   2.303 -1.4666  0.3208 -0.4857
   59MOL0     C 7895   7.789  11.426   2.001  0.3309 -1.5805  0.4490
   59MOL0     C 7896   7.791  11.288   2.012 -0.6415 -1.0511 -0.2183
   59MOL0     C 7897   7.684  11.209   1.959 -0.1203 -0.5224  0.5116
   59MOL0     H 7898   7.918  10.825   1.960  1.8494  3.8233 -0.8774
   59MOL0     H 7899   7.978  10.573   1.980  1.3022 -2.8607  1.1499
   59MOL0     H 7900   8.042  10.383   2.013  0.2606  1.0256 -1.8008
   59MOL0     H 7901   8.182  10.389   1.905  1.3605  0.5798 -0.3608
   59MOL0     H 7902   8.299  10.237   2.089 -0.2824  0.1311 -1.1853
   59MOL0     H 7903   8.178  10.161   1.995 -0.8266  1.1830 -1.2309
   59MOL0     H 7904   8.096  10.066   2.171 -2.8829  0.6238 -2.3442
   59MOL0     H 7905   8.007  10.225   2.187 -0.8701 -1.7208 -3.3932
   59MOL0     H 7906   8.264  10.135   2.317  0.5845  0.4601 -0.0793
   59MOL0     H 7907   8.173  10.289   2.334  0.5129 -0.4759 -1.2802
   59MOL0     H 7908   8.137  10.156   2.531  1.0972 -0.3056 -0.3599
   59MOL0     H 7909   7.993  10.184   2.428  1.7094  0.2897  3.1024
   59MOL0     H 7910   7.986   9.962   2.521 -0.7509  1.9388 -1.5630
   59MOL0     H 7911   7.999   9.960   2.344 -2.3337 -1.0222  0.5765
   59MOL0     H 7912   8.224   9.923   2.333 -2.1939  1.1399 -0.7412
   59MOL0     H 7913   8.129   9.798   2.419 -0.9732  0.7938 -1.6982
   59MOL0     H 7914   8.300  10.022   2.552  0.1736  1.4286  0.2388
   59MOL0     H 7915   8.195   9.905   2.642  3.2629 -0.9641  1.8444
   59MOL0     H 7916   8.444   9.838   2.758  2.7122 -0.2090  0.6098
   59MOL0     H 7917   8.563   9.572   2.815  2.1363 -1.5326 -0.0709
   59MOL0     H 7918   8.637   9.512   2.672  2.2218  0.6953 -0.4947
   59MOL0     H 7919   8.769   9.713   2.660  1.2714  3.0006  1.2910
   59MOL0     H 7920   8.694   9.788   2.807  0.0566 -0.1421 -0.5930
   59MOL0     H 7921   8.860   9.523   2.782  0.6405 -0.5282  2.2131
   59MOL0     H 7922   8.774   9.580   2.930  0.6933  0.5888  1.0063
   59MOL0     H 7923   8.922   9.773   2.914 -2.2266 -0.5032  1.5020
   59MOL0     H 7924   9.008   9.712   2.768  0.7309 -1.6243 -0.4285
   59MOL0     H 7925   9.262   9.435   2.976  3.9753 -0.8423  0.3018
   59MOL0     H 7926   9.489   9.526   3.009 -2.4851 -3.0357  1.4067
   59MOL0     H 7927   9.786   9.926   2.952 -2.2711 -1.4915  1.3142
   59MOL0     H 7928  10.016  10.017   3.025  0.1415  1.4106  0.4860
   59MOL0     H 7929  10.204  10.115   3.109  0.3849 -1.6713  1.0058
   59MOL0     H 7930  10.071  10.241   3.105 -0.3980 -1.4544 -0.9341
   59MOL0     H 7931  10.330  10.230   3.238 -1.0072 -0.1933 -1.2080
   59MOL0     H 7932  10.250  10.371   3.160  1.3292 -1.5348 -0.6984
   59MOL0     H 7933  10.177  10.246   3.427  0.8393  1.7979  1.4399
   59MOL0     H 7934  10.281  10.375   3.413  1.9842 -4.7463  0.3005
   59MOL0     H 7935   9.983  10.353   3.312  0.2028  0.1615 -1.7723
   59MOL0     H 7936  10.088  10.490   3.289  2.5984 -0.4713  0.5107
   59MOL0     H 7937  10.077  10.534   3.554  0.2106 -1.9023  1.3356
   59MOL0     H 7938   9.999  10.390   3.564  3.3669  2.0448  3.9928
   59MOL0     H 7939   9.885  10.638   3.424 -2.3305  0.2435 -0.0168
   59MOL0     H 7940   9.817  10.482   3.404 -0.7090  1.4275 -1.7972
   59MOL0     H 7941   9.864  10.598   3.680 -0.0670 -0.6049 -0.2062
   59MOL0     H 7942   9.773  10.450   3.649 -3.8567  0.6459  0.5283
   59MOL0     H 7943   9.607  10.607   3.525 -1.9910 -0.4199  1.0174
   59MOL0     H 7944   9.627  10.605   3.708 -0.2553  1.7488  0.2145
   59MOL0     H 7945   9.866  10.063   3.429 -2.2145 -1.9109  0.3477
   59MOL0     H 7946   9.664   9.990   3.353 -2.5977  2.7628 -3.1443
   59MOL0     H 7947   9.316   9.927   3.060 -1.9684 -0.5450  2.6095
   59MOL0     H 7948   9.124   9.856   2.973 -0.9771 -1.5103 -3.2948
   59MOL0     H 7949   8.348  10.680   2.149 -0.5548 -0.9038  1.3650
   59MOL0     H 7950   8.289  10.927   2.117  0.3397 -0.2645 -1.2761
   59MOL0     H 7951   8.133  11.268   2.076 -0.1959 -0.0394  0.0346
   59MOL0     H 7952   8.120  11.501   2.072 -0.6425  2.1959 -0.7726
   59MOL0     H 7953   8.060  11.740   1.972  1.2120  0.3387  0.6553
   59MOL0     H 7954   7.987  11.733   2.134 -1.8452 -0.4970  0.2532
   59MOL0     H 7955   7.908  11.855   1.862 -2.4427 -3.2190 -0.4596
   59MOL0     H 7956   7.967  11.946   1.999  0.0773 -1.0965  1.3297
   59MOL0     H 7957   7.685  11.844   1.955  1.0317 -1.5083  1.8025
   59MOL0     H 7958   7.753  12.000   1.985  4.5727 -0.2100 -2.2210
   59MOL0     H 7959   7.738  11.763   2.197 -0.0036 -1.0960 -2.3458
   59MOL0     H 7960   7.840  11.909   2.219 -0.7572 -1.8319  1.9644
   59MOL0     H 7961   7.471  12.027   2.364 -1.8430  1.4475 -1.7126
   59MOL0     H 7962   7.702  11.471   1.954  0.4525  1.3293  2.7109
   59MOL0     H 7963   7.622  11.260   1.885  2.9187 -1.7228 -3.2533
   59MOL0     H 7964   7.732  11.120   1.917 -0.3461 -1.7967  2.7896
   59MOL0     H 7965   7.629  11.176   2.048 -0.5318 -0.3257  0.3317
   60MOL0     O 7966   0.023   3.608   9.800 -0.5511 -0.0973 -0.2443
   60MOL0     C 7967   0.016   3.487   9.831  0.1056 -0.4629 -0.1010
   60MOL0     O 7968  -0.099   3.412   9.822  0.0261 -0.2925 -0.4034
   60MOL0     C 7969  -0.208   3.469   9.760 -1.0664 -0.5538  0.2905
   60MOL0     C 7970  -0.214   3.463   9.624  0.9873  0.0545  0.0510
   60MOL0     C 7971  -0.329   3.504   9.554  0.6499  0.6399  0.8608
   60MOL0     C 7972  -0.431   3.572   9.625  0.5957 -0.0210  0.1430
   60MOL0     O 7973  -0.552   3.620   9.570 -0.3545 -0.4547 -0.3139
   60MOL0     C 7974  -0.565   3.764   9.552 -0.8363  0.4241 -0.6590
   60MOL0     C 7975  -0.698   3.811   9.483  0.2324 -1.1085  0.3433
   60MOL0     C 7976  -0.817   3.755   9.564  0.5643  0.7751  0.4955
   60MOL0     C 7977  -0.952   3.817   9.522 -0.3554  0.4229 -0.1263
   60MOL0     C 7978  -1.078   3.752   9.581 -0.8981  0.0999 -0.7874
   60MOL0     C 7979  -1.211   3.797   9.515  0.1060 -0.5014 -0.2891
   60MOL0     C 7980  -1.336   3.750   9.592  0.1977  0.1870 -0.1943
   60MOL0     C 7981  -1.444   3.850   9.565 -1.0057  0.5326  0.0605
   60MOL0     N 7982  -1.470   3.859   9.420 -0.2065  0.2039  0.5458
   60MOL0     C 7983  -1.589   3.828   9.363  0.6470 -0.0607  0.2064
   60MOL0     C 7984  -1.570   3.872   9.234 -0.3107  0.3081  0.0605
   60MOL0     C 7985  -1.675   3.851   9.128  0.1995 -0.8902  0.4515
   60MOL0     C 7986  -1.814   3.890   9.165 -0.3864  1.7387 -0.1240
   60MOL0     C 7987  -1.822   4.024   9.226  0.1735 -0.5251  0.2582
   60MOL0     C 7988  -1.966   4.071   9.260 -0.7975 -0.0424  0.0872
   60MOL0     O 7989  -1.956   4.188   9.341  0.0286  0.3390 -0.0231
   60MOL0     C 7990  -1.971   4.167   9.479  0.4005 -0.7416 -0.0088
   60MOL0     C 7991  -1.991   4.292   9.545 -0.0411  0.1416  0.1621
   60MOL0     C 7992  -2.031   4.290   9.682 -0.7536 -0.0829  0.3606
   60MOL0     C 7993  -2.041   4.178   9.759 -1.1408 -0.1347 -0.4285
   60MOL0     C 7994  -2.088   4.178   9.897  0.4396  0.0461  0.5040
   60MOL0     O 7995  -2.151   4.295   9.939  0.1502  0.3510 -0.5221
   60MOL0     C 7996  -2.192   4.289  10.071  0.2523 -0.3432  0.3523
   60MOL0     C 7997  -2.328   4.273  10.113 -0.1932 -0.4272  0.9769
   60MOL0     C 7998  -2.347   4.278  10.249  0.2010 -0.4751  0.5650
   60MOL0     C 7999  -2.255   4.307  10.340 -0.6510 -0.3548  0.9507
   60MOL0     O 8000  -2.285   4.331  10.468  0.4673  0.3274 -0.2401
   60MOL0     C 8001  -2.364   4.454  10.478 -0.1429 -0.2704 -0.2039
   60MOL0     C 8002  -2.253   4.569  10.495  0.0908  0.2895 -0.6723
   60MOL0     C 8003  -2.337   4.696  10.537  0.3179 -0.5293 -0.4000
   60MOL0     C 8004  -2.240   4.816  10.535  0.2903  0.1713 -0.8761
   60MOL0     C 8005  -2.148   4.819  10.662  0.8975  0.7221 -0.1813
   60MOL0     C 8006  -2.037   4.926  10.661 -0.4321 -0.0535  0.8458
   60MOL0     C 8007  -2.061   5.027  10.769 -0.2509  0.4726 -0.3165
   60MOL0     C 8008  -2.164   5.135  10.729  0.4048  0.0510 -0.4661
   60MOL0    Cl 8009  -2.215   5.231  10.877 -0.1195  0.0067 -0.3179
   60MOL0     C 8010  -2.119   4.320  10.296 -0.2749  0.2557  0.5752
   60MOL0     C 8011  -2.088   4.318  10.157 -0.3684 -0.6131  0.0358
   60MOL0     O 8012  -2.068   4.078   9.962 -0.3189 -0.0733 -0.7353
   60MOL0     C 8013  -1.990   4.060   9.698 -0.3511  0.6609 -0.1270
   60MOL0     C 8014  -1.963   4.050   9.556  0.1848  0.1228  0.1069
   60MOL0     N 8015  -1.451   3.934   9.225  0.0434  0.2043 -0.1925
   60MOL0     N 8016  -1.392   3.935   9.332  0.9197  0.2351 -0.7519
   60MOL0     C 8017  -0.421   3.591   9.760 -0.2393  0.4378 -0.6131
   60MOL0     C 8018  -0.311   3.535   9.827 -0.3712 -0.7660 -0.2787
   60MOL0     C 8019   0.145   3.428   9.893  0.8624 -0.1681  0.3853
   60MOL0     C 8020   0.241   3.527   9.936  0.6132  0.2286 -1.0046
   60MOL0     C 8021   0.363   3.481   9.993  0.1896 -0.4661 -0.5111
   60MOL0     C 8022   0.394   3.348   9.998  0.1077 -0.1127  0.4829
   60MOL0     O 8023   0.495   3.281  10.057  0.7937 -0.0495  0.3887
   60MOL0     C 8024   0.585   3.357  10.139 -0.2823  0.4177 -0.1072
   60MOL0     C 8025   0.688   3.261  10.193  0.7311  0.4942  0.2413
   60MOL0     C 8026   0.613   3.170  10.298 -0.0734  0.3997 -0.6582
   60MOL0     C 8027   0.709   3.063  10.371 -0.0350 -0.6334  0.5310
   60MOL0     C 8028   0.770   2.963  10.284 -0.0885 -0.2803  0.0526
   60MOL0     C 8029   0.828   2.880  10.221  0.3576  0.2688  0.5512
   60MOL0     C 8030   0.304   3.259   9.950  0.4418 -0.3413  0.1765
   60MOL0     C 8031   0.174   3.293   9.890  0.1041 -0.3694  1.2790
   60MOL0     C 8032   0.090   3.186   9.828  0.1701 -0.1406 -0.2074
   60MOL0     H 8033  -0.133   3.430   9.560  0.8433  0.4907 -0.3634
   60MOL0     H 8034  -0.342   3.487   9.448 -3.0622 -0.9289  1.4067
   60MOL0     H 8035  -0.558   3.809   9.651 -0.4973 -0.4206 -0.2923
   60MOL0     H 8036  -0.480   3.807   9.500 -0.7250  1.4132  0.3079
   60MOL0     H 8037  -0.707   3.771   9.382  0.9806 -1.4032  0.3875
   60MOL0     H 8038  -0.705   3.920   9.493 -0.0127 -1.0541 -0.3995
   60MOL0     H 8039  -0.795   3.763   9.671  0.9628  5.1340  0.2519
   60MOL0     H 8040  -0.812   3.649   9.538  0.5515  0.1886  2.7261
   60MOL0     H 8041  -0.945   3.923   9.547  0.9101  0.7506 -1.6731
   60MOL0     H 8042  -0.959   3.806   9.413  2.5904 -0.6597 -0.3061
   60MOL0     H 8043  -1.063   3.645   9.566  0.7039  0.4141 -1.6259
   60MOL0     H 8044  -1.085   3.761   9.689 -2.5024 -3.5859 -0.4105
   60MOL0     H 8045  -1.214   3.906   9.509  0.9108 -0.4185  0.4826
   60MOL0     H 8046  -1.218   3.769   9.410 -0.0911  1.5704 -0.8722
   60MOL0     H 8047  -1.315   3.743   9.699 -0.1204  0.7320 -0.0951
   60MOL0     H 8048  -1.365   3.654   9.549  1.2653 -0.5333  0.6313
   60MOL0     H 8049  -1.535   3.821   9.620 -4.3183  1.9962 -4.1493
   60MOL0     H 8050  -1.435   3.949   9.610 -2.0948  0.7771 -0.2286
   60MOL0     H 8051  -1.685   3.781   9.385  0.0279  0.6067 -0.9408
   60MOL0     H 8052  -1.655   3.908   9.037  1.8687 -2.9986 -0.6169
   60MOL0     H 8053  -1.679   3.749   9.088 -2.2133  0.7058 -4.1302
   60MOL0     H 8054  -1.872   3.907   9.074 -1.4355 -0.6793 -0.0071
   60MOL0     H 8055  -1.863   3.807   9.218 -0.2603  1.4314 -0.4878
   60MOL0     H 8056  -1.775   4.105   9.170 -1.2244  1.2274  1.5079
   60MOL0     H 8057  -1.771   4.003   9.321 -0.5112 -2.3079  0.2787
   60MOL0     H 8058  -2.026   3.995   9.311 -0.0342 -0.3708  0.5150
   60MOL0     H 8059  -2.012   4.111   9.169 -2.1567  1.3795  1.3390
   60MOL0     H 8060  -1.991   4.381   9.484 -3.6735 -0.8254 -1.5530
   60MOL0     H 8061  -2.048   4.388   9.725  1.9855  1.2083 -1.2214
   60MOL0     H 8062  -2.416   4.253  10.054 -0.4735 -2.1358  1.9142
   60MOL0     H 8063  -2.448   4.280  10.289 -0.2564 -0.0447 -0.5619
   60MOL0     H 8064  -2.424   4.475  10.389  1.7130 -1.6017 -1.8422
   60MOL0     H 8065  -2.435   4.450  10.562  2.2217 -0.4626  1.9166
   60MOL0     H 8066  -2.188   4.548  10.580  2.7835 -2.9887 -3.2122
   60MOL0     H 8067  -2.196   4.573  10.401 -2.9541 -2.0272 -2.8364
   60MOL0     H 8068  -2.416   4.715  10.465  0.2739 -0.5165 -0.3478
   60MOL0     H 8069  -2.397   4.680  10.628 -1.2501  2.0320 -0.9009
   60MOL0     H 8070  -2.299   4.906  10.512  1.0294  0.4575 -1.7001
   60MOL0     H 8071  -2.158   4.811  10.463  2.9763 -5.6528  1.9227
   60MOL0     H 8072  -2.094   4.724  10.668 -0.2518  0.1296  1.6720
   60MOL0     H 8073  -2.207   4.825  10.754  1.2761 -0.2703  0.1401
   60MOL0     H 8074  -1.945   4.870  10.679 -0.7307 -2.2642 -3.3397
   60MOL0     H 8075  -2.014   4.972  10.565  2.2033  0.4340  1.6372
   60MOL0     H 8076  -1.967   5.065  10.809  1.1803 -2.3292 -0.7906
   60MOL0     H 8077  -2.103   4.970  10.852  2.5346 -0.3861  0.6063
   60MOL0     H 8078  -2.142   5.215  10.657 -2.7479  0.5443 -1.0044
   60MOL0     H 8079  -2.258   5.091  10.696 -0.7189  1.0894  1.2055
   60MOL0     H 8080  -2.043   4.345  10.369 -3.1925  1.6758  3.3480
   60MOL0     H 8081  -1.989   4.340  10.119 -0.5047 -0.6156 -0.3260
   60MOL0     H 8082  -1.980   3.974   9.764  0.9424  1.2005  0.4166
   60MOL0     H 8083  -1.932   3.950   9.526 -2.5065 -1.6524  2.6508
   60MOL0     H 8084  -0.475   3.666   9.818  0.9247  0.9284 -0.1227
   60MOL0     H 8085  -0.306   3.561   9.932  2.3951  3.8628 -1.2452
   60MOL0     H 8086   0.217   3.633   9.931  0.3144  0.2347  0.2823
   60MOL0     H 8087   0.439   3.550  10.028  1.2160 -1.8851  0.1330
   60MOL0     H 8088   0.545   3.415  10.223  6.2090  0.1095  3.8810
   60MOL0     H 8089   0.630   3.427  10.068 -1.0563 -0.9642 -2.0239
   60MOL0     H 8090   0.774   3.311  10.236  0.2555  0.1608  1.6249
   60MOL0     H 8091   0.725   3.207  10.105  1.0332 -2.3386  1.9797
   60MOL0     H 8092   0.555   3.101  10.236  3.6103 -2.2164 -1.5431
   60MOL0     H 8093   0.550   3.225  10.368 -0.2214 -0.2678 -0.2519
   60MOL0     H 8094   0.788   3.108  10.432 -0.3013  1.8062 -0.8135
   60MOL0     H 8095   0.645   3.017  10.447  1.2349  1.8762  3.3413
   60MOL0     H 8096   0.865   2.797  10.164  0.5909  0.5327  0.3101
   60MOL0     H 8097   0.327   3.154   9.960  2.4296  0.1304  0.9671
   60MOL0     H 8098   0.031   3.158   9.916 -0.7240  2.5164  0.1537
   60MOL0     H 8099   0.023   3.224   9.751  0.8183  0.8535 -0.3078
   60MOL0     H 8100   0.147   3.104   9.785  1.8059  1.3662 -1.0396
   61MOL0     O 8101   9.346   6.394   3.849 -0.7699  0.0222  0.1106
   61MOL0     C 8102   9.445   6.320   3.840  0.3906 -0.5313  0.6601
   61MOL0     O 8103   9.545   6.327   3.741  0.5841 -0.9027  0.2155
   61MOL0     C 8104   9.525   6.420   3.643  0.0403  0.1566 -0.4558
   61MOL0     C 8105   9.520   6.562   3.654 -0.4223  0.3255  0.1920
   61MOL0     C 8106   9.510   6.641   3.540 -0.3362 -0.2399 -0.5926
   61MOL0     C 8107   9.510   6.591   3.412 -0.0966  0.2821  0.1423
   61MOL0     O 8108   9.484   6.668   3.297  0.1929 -0.0815 -0.2648
   61MOL0     C 8109   9.476   6.812   3.301  0.1642 -0.7870  0.0824
   61MOL0     C 8110   9.464   6.875   3.162 -0.2763  0.6957 -0.5259
   61MOL0     C 8111   9.333   6.956   3.138  0.2196 -0.4836  0.0709
   61MOL0     C 8112   9.303   7.000   3.001  0.0768 -0.4512 -0.8340
   61MOL0     C 8113   9.234   7.142   2.993  0.2480 -0.3999 -0.2267
   61MOL0     C 8114   9.302   7.264   3.051 -0.5438 -0.3153 -0.5342
   61MOL0     C 8115   9.456   7.287   3.044 -0.7399  0.5932 -0.4902
   61MOL0     C 8116   9.486   7.352   2.908 -0.1433  0.0795 -0.5763
   61MOL0     N 8117   9.453   7.494   2.899 -0.1946  0.2352  0.7072
   61MOL0     C 8118   9.551   7.594   2.893  0.0367  0.1062  0.1946
   61MOL0     C 8119   9.487   7.706   2.878  1.2358 -1.0119  1.2121
   61MOL0     C 8120   9.553   7.846   2.862  0.5409  0.0117 -0.5914
   61MOL0     C 8121   9.443   7.961   2.875 -0.2761  0.5596  1.0710
   61MOL0     C 8122   9.495   8.080   2.809  0.0185 -0.3018  0.5644
   61MOL0     C 8123   9.392   8.196   2.798 -0.2029  0.9382 -0.1387
   61MOL0     O 8124   9.348   8.213   2.936 -0.2860 -0.1376  0.1451
   61MOL0     C 8125   9.261   8.319   2.964  0.5950  0.4887  0.4305
   61MOL0     C 8126   9.142   8.328   2.885 -0.5385 -0.0664 -0.0175
   61MOL0     C 8127   9.047   8.408   2.914 -0.1579 -0.2159  0.5682
   61MOL0     C 8128   9.058   8.495   3.029  0.3943  0.2110  0.2216
   61MOL0     C 8129   8.959   8.594   3.057  0.2657  0.3209 -0.1214
   61MOL0     O 8130   8.831   8.580   2.999  0.4611 -0.5837  0.2204
   61MOL0     C 8131   8.737   8.669   3.029  0.5992  0.2888 -0.8474
   61MOL0     C 8132   8.611   8.628   3.069 -0.3148 -0.6738 -0.0755
   61MOL0     C 8133   8.497   8.708   3.071 -0.0052 -0.2166  0.8515
   61MOL0     C 8134   8.511   8.842   3.047 -0.5896 -0.2513 -0.0197
   61MOL0     O 8135   8.414   8.942   3.050  0.0581 -0.3969  0.3188
   61MOL0     C 8136   8.281   8.899   3.032 -0.8439  0.1187 -0.4346
   61MOL0     C 8137   8.175   8.987   2.978 -0.8701 -0.1658  1.2598
   61MOL0     C 8138   8.128   9.104   3.067 -0.3068 -0.1392 -0.0695
   61MOL0     C 8139   8.076   9.064   3.204  0.0651  0.3308  0.3030
   61MOL0     C 8140   8.018   9.168   3.302  0.7607  0.1319 -0.3962
   61MOL0     C 8141   7.947   9.273   3.227  0.4346 -0.6637  0.1378
   61MOL0     C 8142   7.826   9.214   3.161 -0.3054 -1.3912 -0.1253
   61MOL0     C 8143   7.737   9.320   3.090  0.2348 -0.4195  0.2038
   61MOL0    Cl 8144   7.832   9.421   2.969 -0.0324  0.2712  0.0872
   61MOL0     C 8145   8.646   8.890   3.030  0.6154 -1.1295 -0.0917
   61MOL0     C 8146   8.757   8.805   3.004 -0.4698 -0.1447 -0.1976
   61MOL0     O 8147   8.986   8.684   3.143  1.1554  0.2251 -0.6389
   61MOL0     C 8148   9.174   8.499   3.098 -0.5152  0.0642 -0.4745
   61MOL0     C 8149   9.280   8.406   3.066  0.1813  0.0377 -0.8783
   61MOL0     N 8150   9.349   7.681   2.877  0.2918  1.0721 -0.1068
   61MOL0     N 8151   9.333   7.554   2.912  1.2637  0.5753  0.6581
   61MOL0     C 8152   9.519   6.450   3.388  0.5209  0.0004 -0.0012
   61MOL0     C 8153   9.525   6.371   3.502 -0.2752  0.4299 -0.0515
   61MOL0     C 8154   9.457   6.206   3.936 -0.2459  0.4659  0.4989
   61MOL0     C 8155   9.534   6.097   3.896 -0.6729 -0.0639  0.5767
   61MOL0     C 8156   9.551   5.973   3.968 -0.6831 -0.6435  0.6430
   61MOL0     C 8157   9.501   5.973   4.101 -0.1704  0.2075 -1.0012
   61MOL0     O 8158   9.528   5.858   4.177 -0.1382 -1.1443 -0.0918
   61MOL0     C 8159   9.539   5.875   4.326 -0.1429 -0.6927  0.7875
   61MOL0     C 8160   9.404   5.818   4.388  0.5886  0.7834  0.9910
   61MOL0     C 8161   9.422   5.830   4.536 -0.1951  0.0410  0.7801
   61MOL0     C 8162   9.295   5.817   4.611  0.7432 -0.1615 -0.0084
   61MOL0     C 8163   9.312   5.791   4.753  0.7565 -0.1869  0.9640
   61MOL0     C 8164   9.316   5.760   4.869 -0.7291 -0.4567 -0.3825
   61MOL0     C 8165   9.436   6.089   4.143  0.0039  0.2864 -0.4041
   61MOL0     C 8166   9.400   6.202   4.070 -0.5407 -0.9580  0.5833
   61MOL0     C 8167   9.296   6.305   4.134 -1.1362  0.4580  0.1618
   61MOL0     H 8168   9.508   6.601   3.755  1.7220 -3.3119  2.0856
   61MOL0     H 8169   9.511   6.747   3.564  1.0446 -0.1285 -1.0624
   61MOL0     H 8170   9.392   6.841   3.365  0.1804 -1.8388  0.5963
   61MOL0     H 8171   9.567   6.852   3.346 -1.0699  0.9833  1.0976
   61MOL0     H 8172   9.462   6.799   3.083 -1.9860 -1.6744  1.6449
   61MOL0     H 8173   9.557   6.932   3.166 -0.9185  1.6939  1.9950
   61MOL0     H 8174   9.336   7.046   3.199 -1.1402  1.6577 -2.7915
   61MOL0     H 8175   9.249   6.895   3.172  1.7995 -1.8442  1.7492
   61MOL0     H 8176   9.400   7.014   2.951  0.5759  3.5093  0.8679
   61MOL0     H 8177   9.243   6.925   2.949 -3.3096  1.8962 -0.5603
   61MOL0     H 8178   9.238   7.165   2.886 -0.9393  1.3152  0.0476
   61MOL0     H 8179   9.131   7.146   3.030  1.1300 -0.4162  2.4725
   61MOL0     H 8180   9.249   7.357   3.027 -2.8562 -1.6945 -1.1040
   61MOL0     H 8181   9.278   7.245   3.156 -1.5298  0.0189 -0.6910
   61MOL0     H 8182   9.503   7.192   3.070 -4.1524 -0.1640  4.1369
   61MOL0     H 8183   9.490   7.361   3.117 -0.5867  0.3356 -0.2980
   61MOL0     H 8184   9.594   7.345   2.892  0.2211  0.2463  1.5417
   61MOL0     H 8185   9.422   7.308   2.831 -3.9046  0.4139  2.0910
   61MOL0     H 8186   9.656   7.573   2.914 -0.0041 -0.3046  0.0005
   61MOL0     H 8187   9.637   7.860   2.930  3.2731 -0.2069 -3.6525
   61MOL0     H 8188   9.592   7.858   2.760 -0.6767  0.4961 -1.0138
   61MOL0     H 8189   9.353   7.948   2.814  0.4311  0.2442  0.0670
   61MOL0     H 8190   9.413   7.979   2.979 -1.2341 -2.5255  1.4516
   61MOL0     H 8191   9.523   8.067   2.704  0.8091 -0.4704  0.7874
   61MOL0     H 8192   9.581   8.123   2.861  0.1103 -0.6967  0.7409
   61MOL0     H 8193   9.303   8.164   2.743 -0.8727 -0.5906  1.7203
   61MOL0     H 8194   9.439   8.281   2.748  3.2591 -2.0442 -2.4379
   61MOL0     H 8195   9.117   8.278   2.792 -0.3290  2.7852 -1.7171
   61MOL0     H 8196   8.966   8.416   2.843  0.1379  0.6360  0.3061
   61MOL0     H 8197   8.596   8.520   3.074  3.7142 -1.3900 -0.0135
   61MOL0     H 8198   8.405   8.669   3.114  0.2178 -1.3236  0.3643
   61MOL0     H 8199   8.272   8.807   2.974 -2.6577 -3.3796  4.6461
   61MOL0     H 8200   8.243   8.869   3.130  1.4763 -2.2675 -0.1328
   61MOL0     H 8201   8.212   9.026   2.883  0.5195  2.3484  2.7057
   61MOL0     H 8202   8.091   8.923   2.951 -0.8023  0.3292 -0.2437
   61MOL0     H 8203   8.216   9.168   3.083 -0.0652 -0.4389 -0.1764
   61MOL0     H 8204   8.058   9.162   3.006 -0.2618 -2.3046 -2.3213
   61MOL0     H 8205   8.156   9.013   3.259 -0.1359  1.3747  1.6149
   61MOL0     H 8206   7.994   8.993   3.188  0.9748 -0.3885 -1.4382
   61MOL0     H 8207   8.107   9.214   3.346  0.9183 -0.4170 -0.1238
   61MOL0     H 8208   7.964   9.119   3.383 -0.1731 -0.4447 -1.3385
   61MOL0     H 8209   7.927   9.356   3.295  0.8780 -0.3274 -0.1385
   61MOL0     H 8210   8.007   9.323   3.150  1.2441  0.9499  1.7297
   61MOL0     H 8211   7.762   9.169   3.237  0.2105 -0.8047  0.6745
   61MOL0     H 8212   7.854   9.147   3.079  0.6789 -3.6495  1.9463
   61MOL0     H 8213   7.652   9.266   3.047  0.5818 -1.2194  0.5162
   61MOL0     H 8214   7.692   9.382   3.168 -0.5425 -1.0585  0.2786
   61MOL0     H 8215   8.654   8.997   3.014 -0.2512 -1.1529 -0.7779
   61MOL0     H 8216   8.852   8.854   2.986 -0.9385  0.4829 -1.0105
   61MOL0     H 8217   9.201   8.561   3.183 -1.8733  0.0406 -0.0103
   61MOL0     H 8218   9.369   8.394   3.127 -0.7338  0.5808  0.5923
   61MOL0     H 8219   9.520   6.404   3.290 -0.7434  2.8227 -1.4469
   61MOL0     H 8220   9.511   6.264   3.501 -0.3425  0.3355  2.7424
   61MOL0     H 8221   9.576   6.105   3.796  0.0826 -0.6156  0.8343
   61MOL0     H 8222   9.601   5.889   3.920  1.2267  0.1042  1.2456
   61MOL0     H 8223   9.559   5.973   4.370 -1.4393 -1.3640  3.0256
   61MOL0     H 8224   9.624   5.817   4.361  3.1427  2.8331 -0.5977
   61MOL0     H 8225   9.389   5.714   4.359  0.7195  1.1553 -0.5079
   61MOL0     H 8226   9.318   5.871   4.347 -0.0574 -0.4074  0.7551
   61MOL0     H 8227   9.456   5.930   4.561 -1.7334  0.7179  0.2822
   61MOL0     H 8228   9.500   5.758   4.562  0.6076 -0.0503 -1.5933
   61MOL0     H 8229   9.234   5.907   4.602  1.5712  0.5890  1.4721
   61MOL0     H 8230   9.237   5.730   4.579  1.7164 -0.6829 -0.3806
   61MOL0     H 8231   9.313   5.711   4.964  1.0583 -0.7955 -0.4504
   61MOL0     H 8232   9.410   6.088   4.249 -0.2454 -1.3597 -0.4569
   61MOL0     H 8233   9.255   6.244   4.215 -1.2867  0.1367 -0.1499
   61MOL0     H 8234   9.348   6.393   4.172  0.3686 -0.6186  0.7165
   61MOL0     H 8235   9.216   6.340   4.069 -1.4381  0.8237  0.7234
   62MOL0     O 8236   8.051  11.466   9.363  0.1471  0.8969 -0.3621
   62MOL0     C 8237   8.040  11.554   9.447 -0.2070  0.3241 -0.7839
   62MOL0     O 8238   8.125  11.659   9.463  0.0653 -0.5169 -0.0555
   62MOL0     C 8239   8.243  11.670   9.386  0.3221  0.1728  0.1268
   62MOL0     C 8240   8.342  11.570   9.387 -1.1323 -0.5430 -0.0020
   62MOL0     C 8241   8.466  11.591   9.321  0.1748  0.0474  0.2247
   62MOL0     C 8242   8.487  11.712   9.243 -0.3800  1.1505  0.5579
   62MOL0     O 8243   8.596  11.722   9.159  0.5975  0.1007 -0.0403
   62MOL0     C 8244   8.725  11.694   9.218 -0.0044 -0.7442  0.0741
   62MOL0     C 8245   8.804  11.829   9.197 -0.4808 -0.0394  0.1497
   62MOL0     C 8246   8.947  11.783   9.212 -0.3830  0.0773  0.1319
   62MOL0     C 8247   9.023  11.899   9.265  0.2692 -0.3960 -0.7272
   62MOL0     C 8248   9.180  11.883   9.285 -0.2165  0.1801  0.5152
   62MOL0     C 8249   9.234  11.746   9.338 -0.1996  1.2025 -0.4081
   62MOL0     C 8250   9.199  11.723   9.485 -0.5970 -0.6632 -0.5648
   62MOL0     C 8251   9.270  11.588   9.518  0.1022 -0.7987 -0.4095
   62MOL0     N 8252   9.195  11.470   9.480  0.6935  0.4567  0.3019
   62MOL0     C 8253   9.148  11.390   9.576  0.5499 -0.8350 -0.3596
   62MOL0     C 8254   9.111  11.276   9.511 -1.1959  0.1348  0.4612
   62MOL0     C 8255   9.061  11.146   9.567  0.5597  0.1552  0.7645
   62MOL0     C 8256   9.110  11.017   9.501 -0.1689  0.2566  0.7912
   62MOL0     C 8257   9.034  10.967   9.372  0.1825  0.2496  0.3981
   62MOL0     C 8258   8.910  10.889   9.429  0.4334  1.1420  0.0929
   62MOL0     O 8259   8.939  10.743   9.440  0.0875  0.1189  0.1150
   62MOL0     C 8260   8.869  10.672   9.339 -0.3323 -0.2112 -0.1146
   62MOL0     C 8261   8.798  10.561   9.380 -0.1637 -0.2446 -0.2947
   62MOL0     C 8262   8.747  10.468   9.289  0.5758  0.5024 -0.0421
   62MOL0     C 8263   8.752  10.494   9.147 -0.1815 -0.5125 -0.8386
   62MOL0     C 8264   8.701  10.410   9.049 -0.0575 -0.2226 -0.5978
   62MOL0     O 8265   8.748  10.433   8.923  0.4973  0.6658 -0.1095
   62MOL0     C 8266   8.731  10.332   8.829 -0.2699 -0.0910 -0.4451
   62MOL0     C 8267   8.730  10.190   8.855 -0.2150  0.6691  0.0840
   62MOL0     C 8268   8.700  10.094   8.753  0.2654 -0.6734  1.1253
   62MOL0     C 8269   8.698  10.137   8.620  0.3316  1.1920 -0.3662
   62MOL0     O 8270   8.681  10.053   8.513  0.0546  0.2970  0.4409
   62MOL0     C 8271   8.730   9.921   8.529 -0.2326  0.1705  0.2060
   62MOL0     C 8272   8.728   9.839   8.399  0.7110  1.1126  0.8962
   62MOL0     C 8273   8.747   9.686   8.413 -0.0267 -0.7895  0.4656
   62MOL0     C 8274   8.899   9.648   8.406  0.1442  1.0988 -0.0684
   62MOL0     C 8275   8.965   9.562   8.506  0.1329 -0.0446  0.0424
   62MOL0     C 8276   9.125   9.557   8.478  0.1571 -0.8371 -0.1047
   62MOL0     C 8277   9.206   9.487   8.581  1.2419 -0.0500 -0.0666
   62MOL0     C 8278   9.220   9.567   8.708  0.3503 -0.7402  0.1484
   62MOL0    Cl 8279   9.258   9.450   8.840  0.1170  0.0194  0.1717
   62MOL0     C 8280   8.706  10.272   8.598 -0.2023 -0.6709  0.1279
   62MOL0     C 8281   8.710  10.364   8.706  0.6622  0.3435  0.4814
   62MOL0     O 8282   8.627  10.319   9.082 -0.4901  0.1891  0.1188
   62MOL0     C 8283   8.821  10.613   9.111  0.4754 -0.1038 -1.0330
   62MOL0     C 8284   8.873  10.701   9.202 -0.9280  0.1986  1.0225
   62MOL0     N 8285   9.147  11.296   9.379 -0.3247 -0.5259 -0.5345
   62MOL0     N 8286   9.180  11.415   9.353  0.2897 -0.1196  0.4156
   62MOL0     C 8287   8.378  11.800   9.225 -0.3670 -0.5268  0.9098
   62MOL0     C 8288   8.263  11.782   9.302  0.3007  0.7473 -0.2354
   62MOL0     C 8289   7.918  11.547   9.548 -0.6275  0.4119 -0.4777
   62MOL0     C 8290   7.900  11.655   9.634  0.6660 -1.0169  0.8592
   62MOL0     C 8291   7.790  11.661   9.723  0.0544  0.6456  0.3933
   62MOL0     C 8292   7.698  11.559   9.730  0.1851 -0.2637 -0.2773
   62MOL0     O 8293   7.611  11.570   9.840 -0.3649  0.0185 -0.2369
   62MOL0     C 8294   7.588  11.450   9.920  1.1538 -0.0870  0.2371
   62MOL0     C 8295   7.679  11.472  10.045  0.5596  0.3781 -0.4700
   62MOL0     C 8296   7.628  11.578  10.139  0.3626  0.1325  0.6824
   62MOL0     C 8297   7.688  11.559  10.278  0.0504  0.2983  0.0240
   62MOL0     C 8298   7.618  11.640  10.385 -0.3691 -0.0064 -0.6810
   62MOL0     C 8299   7.555  11.678  10.483 -0.0348 -0.0241 -0.3081
   62MOL0     C 8300   7.716  11.449   9.647  0.1359 -1.3100 -0.8861
   62MOL0     C 8301   7.827  11.438   9.563  0.2286  0.0530  0.4640
   62MOL0     C 8302   7.833  11.309   9.487 -0.7917 -0.2870  0.8910
   62MOL0     H 8303   8.338  11.477   9.444  2.8378 -0.9860 -0.1095
   62MOL0     H 8304   8.541  11.514   9.331  2.1544  1.2969 -3.1253
   62MOL0     H 8305   8.710  11.668   9.323  0.0749 -2.0407 -0.2110
   62MOL0     H 8306   8.772  11.608   9.168 -1.0847 -1.5244  0.3691
   62MOL0     H 8307   8.770  11.898   9.275 -0.3969 -0.1670  0.2993
   62MOL0     H 8308   8.786  11.868   9.096  1.7929 -3.6514 -1.8907
   62MOL0     H 8309   8.982  11.769   9.109  0.8272 -3.0941  0.8753
   62MOL0     H 8310   8.961  11.695   9.275  1.5381  0.7809  0.7558
   62MOL0     H 8311   9.009  11.977   9.190 -1.3255 -2.0733 -2.2854
   62MOL0     H 8312   8.976  11.943   9.354  1.9892  3.8197 -1.6690
   62MOL0     H 8313   9.220  11.885   9.183 -0.6126  0.8179  0.3588
   62MOL0     H 8314   9.219  11.976   9.328  0.2009 -0.0270  0.5875
   62MOL0     H 8315   9.174  11.669   9.287 -1.7025  1.1020  1.4125
   62MOL0     H 8316   9.342  11.729   9.327 -0.4867 -1.0525 -0.2473
   62MOL0     H 8317   9.093  11.729   9.510 -0.5645  2.6413 -0.7123
   62MOL0     H 8318   9.252  11.806   9.532  1.7851  0.0273 -4.0296
   62MOL0     H 8319   9.362  11.593   9.459 -1.1985  0.4906 -2.4838
   62MOL0     H 8320   9.295  11.575   9.623  0.3845  1.1825 -0.1839
   62MOL0     H 8321   9.153  11.404   9.683  1.4861  1.1201 -0.6049
   62MOL0     H 8322   9.089  11.144   9.673 -0.2069 -2.0473  0.9631
   62MOL0     H 8323   8.953  11.157   9.557  0.7400  0.6960 -0.8046
   62MOL0     H 8324   9.213  11.030   9.468 -1.0127  0.1293 -2.2534
   62MOL0     H 8325   9.123  10.943   9.581  0.8173 -1.3777 -0.7972
   62MOL0     H 8326   9.097  10.900   9.312  0.7934  1.0039  0.1868
   62MOL0     H 8327   9.004  11.050   9.308  0.7535 -0.8962 -1.4137
   62MOL0     H 8328   8.827  10.907   9.360  1.5190 -0.4837 -1.7296
   62MOL0     H 8329   8.885  10.918   9.531  2.7978  0.9845  0.7963
   62MOL0     H 8330   8.803  10.537   9.485 -1.0808 -0.7460 -0.3492
   62MOL0     H 8331   8.686  10.385   9.322  0.8820  0.2840 -0.0164
   62MOL0     H 8332   8.761  10.155   8.953 -2.3903 -0.8800  0.2818
   62MOL0     H 8333   8.675   9.993   8.782 -2.3913  0.5330  3.4971
   62MOL0     H 8334   8.835   9.928   8.561 -0.9226  0.0775  2.7294
   62MOL0     H 8335   8.675   9.866   8.606  0.5054 -2.4361 -1.0104
   62MOL0     H 8336   8.626   9.855   8.363  0.4649 -0.7441  0.6913
   62MOL0     H 8337   8.805   9.879   8.332  1.6569 -0.3223  1.0930
   62MOL0     H 8338   8.716   9.668   8.517  1.5008  1.7317  1.4433
   62MOL0     H 8339   8.680   9.634   8.343 -0.1882 -1.3154  1.0031
   62MOL0     H 8340   8.950   9.742   8.385 -2.5983  2.4903 -0.9667
   62MOL0     H 8341   8.907   9.590   8.313  0.2050 -0.8491  1.0857
   62MOL0     H 8342   8.925   9.460   8.512 -0.0067 -0.0593 -0.8649
   62MOL0     H 8343   8.941   9.604   8.604  0.6071  0.9471 -0.2493
   62MOL0     H 8344   9.142   9.496   8.389  1.2321 -1.8123  0.7517
   62MOL0     H 8345   9.165   9.658   8.461 -0.8240 -0.1955  1.2228
   62MOL0     H 8346   9.297   9.455   8.529  1.6123  3.8149 -2.1964
   62MOL0     H 8347   9.140   9.402   8.601 -0.6947  0.5737 -3.2257
   62MOL0     H 8348   9.294   9.647   8.701 -1.4533  0.9099 -1.4123
   62MOL0     H 8349   9.123   9.613   8.733  1.3664  0.6682  1.7226
   62MOL0     H 8350   8.701  10.306   8.494 -2.3981 -1.4346 -0.0538
   62MOL0     H 8351   8.704  10.466   8.671  0.8872 -0.0785 -0.8367
   62MOL0     H 8352   8.839  10.629   9.005  1.4217 -2.0911 -1.2184
   62MOL0     H 8353   8.933  10.779   9.158  2.0015 -3.5554 -2.4452
   62MOL0     H 8354   8.392  11.882   9.155 -2.7172  0.0393  1.0189
   62MOL0     H 8355   8.181  11.852   9.303 -0.4473 -0.1029  1.0177
   62MOL0     H 8356   7.971  11.737   9.639 -2.0239  1.4049  3.5266
   62MOL0     H 8357   7.769  11.752   9.778  2.5649  0.4818  1.7921
   62MOL0     H 8358   7.615  11.355   9.872  0.1885 -1.7716  2.7647
   62MOL0     H 8359   7.481  11.449   9.944  1.2310  0.2980  0.5960
   62MOL0     H 8360   7.772  11.514  10.007  0.5771  0.9096  0.1498
   62MOL0     H 8361   7.703  11.379  10.098 -1.8910  0.5294  1.0698
   62MOL0     H 8362   7.520  11.559  10.148  0.0880 -0.6714 -2.6726
   62MOL0     H 8363   7.649  11.676  10.096 -0.7443 -0.2454 -0.8207
   62MOL0     H 8364   7.687  11.455  10.314  0.5417  0.0117 -0.7540
   62MOL0     H 8365   7.790  11.599  10.286 -0.1156  0.4791  1.3689
   62MOL0     H 8366   7.514  11.721  10.572 -0.6643  1.8060 -1.4391
   62MOL0     H 8367   7.646  11.367   9.662 -2.1665 -0.3179 -4.6872
   62MOL0     H 8368   7.800  11.322   9.383 -0.8759  1.1041  1.0677
   62MOL0     H 8369   7.935  11.271   9.488  0.9184  3.7640 -0.4208
   62MOL0     H 8370   7.770  11.228   9.526 -3.9072  0.6005 -1.8251
   63MOL0     O 8371   4.665   4.106   6.194  0.6398  0.4962  0.0029
   63MOL0     C 8372   4.581   4.106   6.285 -0.0021 -0.9824 -0.0368
   63MOL0     O 8373   4.559   4.218   6.368  0.1401  0.8295 -0.7421
   63MOL0     C 8374   4.641   4.324   6.381  0.6474 -0.6781 -1.1273
   63MOL0     C 8375   4.771   4.352   6.319 -0.4627  0.2234 -0.6037
   63MOL0     C 8376   4.836   4.465   6.343  0.1798 -0.3303  0.6530
   63MOL0     C 8377   4.782   4.564   6.415  1.0129  0.9419  0.4471
   63MOL0     O 8378   4.848   4.678   6.454  0.2541  0.8148 -0.4627
   63MOL0     C 8379   4.930   4.729   6.352 -1.1693 -1.0881 -0.3358
   63MOL0     C 8380   4.867   4.803   6.235  0.0321  0.4200 -0.9557
   63MOL0     C 8381   4.969   4.870   6.145  0.9199  0.7585 -0.1394
   63MOL0     C 8382   4.912   4.948   6.031 -1.1706  0.5861 -0.1765
   63MOL0     C 8383   5.023   4.994   5.932  0.3411 -0.3358 -0.4077
   63MOL0     C 8384   5.054   4.901   5.818  0.5553 -0.1424  0.7234
   63MOL0     C 8385   5.168   4.800   5.853  1.2765  0.4573  0.8383
   63MOL0     C 8386   5.189   4.697   5.739  0.0454 -0.9692 -0.0651
   63MOL0     N 8387   5.235   4.771   5.620 -0.1607 -0.9266  0.1119
   63MOL0     C 8388   5.161   4.809   5.499  0.6266  0.3517 -0.5177
   63MOL0     C 8389   5.249   4.880   5.423  0.5831  0.6494 -0.1151
   63MOL0     C 8390   5.222   4.936   5.284  0.2246  0.1323  0.4969
   63MOL0     C 8391   5.242   5.095   5.282  0.3546 -0.1380 -0.0609
   63MOL0     C 8392   5.123   5.165   5.342  0.0006 -0.0156 -0.7471
   63MOL0     C 8393   5.129   5.315   5.355 -1.1977  0.2978 -0.0958
   63MOL0     O 8394   5.242   5.348   5.434 -0.2392 -0.0268 -0.2205
   63MOL0     C 8395   5.248   5.482   5.469 -0.4246  0.2789  0.6798
   63MOL0     C 8396   5.180   5.517   5.579  1.0560 -0.5538 -0.3259
   63MOL0     C 8397   5.170   5.652   5.618 -0.2439 -1.0745  0.4388
   63MOL0     C 8398   5.238   5.754   5.546  0.1348  0.0607 -0.3676
   63MOL0     C 8399   5.237   5.892   5.596  0.3644  0.5601  0.7279
   63MOL0     O 8400   5.291   5.997   5.516  0.7290 -0.6584 -0.9555
   63MOL0     C 8401   5.286   6.121   5.580 -1.0934 -0.1237 -0.3089
   63MOL0     C 8402   5.393   6.174   5.652  0.7614  0.3440 -0.1574
   63MOL0     C 8403   5.385   6.311   5.690  0.1177  0.9284 -0.2793
   63MOL0     C 8404   5.276   6.380   5.668  0.6343 -0.2441  0.3444
   63MOL0     O 8405   5.266   6.504   5.721 -0.7887  0.3146  0.8356
   63MOL0     C 8406   5.359   6.607   5.659  0.1123  0.8961 -0.0528
   63MOL0     C 8407   5.319   6.746   5.705  0.4330  0.4159 -0.3484
   63MOL0     C 8408   5.360   6.863   5.609  0.2507 -0.0079 -0.4462
   63MOL0     C 8409   5.348   7.003   5.659 -0.0973  0.4610 -0.2705
   63MOL0     C 8410   5.197   7.022   5.710  0.4585  0.5794  0.5986
   63MOL0     C 8411   5.175   7.177   5.723  0.1175 -0.1658 -0.2766
   63MOL0     C 8412   5.271   7.243   5.828  1.0224 -1.0201 -0.6345
   63MOL0     C 8413   5.220   7.370   5.896 -0.5770 -0.1641 -0.3513
   63MOL0    Cl 8414   5.192   7.508   5.794 -0.0584 -0.0021 -0.2800
   63MOL0     C 8415   5.163   6.331   5.593  0.7338  0.6879  0.0064
   63MOL0     C 8416   5.177   6.201   5.544  0.3477 -0.1296  0.0473
   63MOL0     O 8417   5.191   5.904   5.710  0.4936 -0.0023 -0.4756
   63MOL0     C 8418   5.319   5.710   5.444  0.4944 -0.2599  0.4838
   63MOL0     C 8419   5.333   5.574   5.414 -0.5910 -0.2855  0.7319
   63MOL0     N 8420   5.365   4.861   5.489 -0.4530  0.0730  0.0388
   63MOL0     N 8421   5.362   4.795   5.598  0.3788  0.1250 -0.9435
   63MOL0     C 8422   4.663   4.544   6.480  0.0375 -0.6265  0.0149
   63MOL0     C 8423   4.595   4.421   6.475 -0.4217 -0.7794 -0.4054
   63MOL0     C 8424   4.480   3.999   6.302  0.2786 -0.8595 -0.1189
   63MOL0     C 8425   4.495   3.881   6.233  0.4139  0.8823  0.4312
   63MOL0     C 8426   4.400   3.780   6.229 -0.5872 -0.3480 -0.5870
   63MOL0     C 8427   4.278   3.797   6.287  0.5420 -0.6166  0.0345
   63MOL0     O 8428   4.179   3.702   6.315 -0.8733  0.0388 -0.0413
   63MOL0     C 8429   4.197   3.569   6.264  0.0256  0.4340 -0.1798
   63MOL0     C 8430   4.080   3.474   6.290 -0.2390  0.5946  0.2586
   63MOL0     C 8431   3.959   3.526   6.197 -1.2007  0.0469 -0.1940
   63MOL0     C 8432   3.844   3.419   6.209 -0.5716 -0.3216  0.2111
   63MOL0     C 8433   3.775   3.427   6.340  0.3676  0.2493 -0.5357
   63MOL0     C 8434   3.741   3.394   6.445  0.5157  0.0681  0.6874
   63MOL0     C 8435   4.257   3.916   6.358  1.0639  0.3760  0.2698
   63MOL0     C 8436   4.357   4.017   6.371 -0.3804 -0.7514  0.5665
   63MOL0     C 8437   4.321   4.136   6.458  0.7320  0.6592 -0.3368
   63MOL0     H 8438   4.819   4.261   6.286 -2.9099 -1.0856 -0.8117
   63MOL0     H 8439   4.941   4.472   6.313  0.4931 -2.7882  0.9533
   63MOL0     H 8440   4.982   4.806   6.410 -2.0672  0.2005 -1.1831
   63MOL0     H 8441   5.006   4.654   6.328 -1.3851 -2.4508  2.7117
   63MOL0     H 8442   4.786   4.872   6.262  1.6902  2.2613 -0.5176
   63MOL0     H 8443   4.817   4.723   6.179  0.0792  0.3837 -0.9461
   63MOL0     H 8444   5.026   4.788   6.099  1.8792  0.1966  1.9088
   63MOL0     H 8445   5.039   4.931   6.204  2.2283 -2.1605  1.5472
   63MOL0     H 8446   4.838   4.894   5.971 -1.4679  1.7843 -0.9357
   63MOL0     H 8447   4.870   5.035   6.084 -2.6025  0.3529 -0.8891
   63MOL0     H 8448   4.990   5.090   5.890 -1.0898 -0.5857  0.1069
   63MOL0     H 8449   5.110   5.019   5.993 -1.5542  2.1889  1.5008
   63MOL0     H 8450   4.963   4.855   5.778 -0.5920  1.0688  1.8121
   63MOL0     H 8451   5.085   4.971   5.739  0.6558 -2.1147 -1.0580
   63MOL0     H 8452   5.145   4.749   5.947  2.2727 -3.5438 -0.9030
   63MOL0     H 8453   5.262   4.858   5.853  2.0293 -0.5409 -2.5692
   63MOL0     H 8454   5.266   4.625   5.769 -0.4990 -0.8721  1.6768
   63MOL0     H 8455   5.097   4.644   5.715 -0.7712 -0.4075  1.6684
   63MOL0     H 8456   5.058   4.787   5.472 -0.9936  4.5752  1.2274
   63MOL0     H 8457   5.289   4.887   5.213  1.1880 -2.8423  3.2055
   63MOL0     H 8458   5.119   4.907   5.261  1.0883 -1.7937 -1.2840
   63MOL0     H 8459   5.341   5.122   5.320  2.2022  0.0889 -4.4702
   63MOL0     H 8460   5.254   5.129   5.179  3.0669  0.0724  0.2436
   63MOL0     H 8461   5.097   5.130   5.443 -2.1133  0.8544 -0.9355
   63MOL0     H 8462   5.035   5.138   5.284 -1.8271  1.2083  1.2817
   63MOL0     H 8463   5.035   5.339   5.405 -1.2831 -0.0602 -0.0860
   63MOL0     H 8464   5.140   5.373   5.263 -2.5289 -0.9733 -1.1117
   63MOL0     H 8465   5.141   5.453   5.657 -0.9083  1.3470  0.3476
   63MOL0     H 8466   5.109   5.682   5.703 -2.5535 -3.1731 -0.3391
   63MOL0     H 8467   5.486   6.124   5.675  1.3422  1.4806  0.0362
   63MOL0     H 8468   5.470   6.348   5.746 -0.7876  1.2868  0.9106
   63MOL0     H 8469   5.462   6.588   5.690 -1.1846 -2.5536  2.9193
   63MOL0     H 8470   5.366   6.600   5.550  1.7849 -2.6258  0.1436
   63MOL0     H 8471   5.212   6.751   5.728  0.3530 -0.5648 -0.4570
   63MOL0     H 8472   5.373   6.763   5.798 -1.8862  0.7838  1.0055
   63MOL0     H 8473   5.467   6.849   5.595  1.0441  2.5581  2.0178
   63MOL0     H 8474   5.301   6.850   5.518  1.2147  1.2928 -1.2913
   63MOL0     H 8475   5.368   7.073   5.578 -2.4938  1.9539  0.3305
   63MOL0     H 8476   5.417   7.018   5.743 -0.5269  0.0714  0.1657
   63MOL0     H 8477   5.196   6.964   5.802  0.6500 -0.4535 -0.0395
   63MOL0     H 8478   5.115   6.982   5.649 -1.8471  1.0777  3.1660
   63MOL0     H 8479   5.174   7.235   5.630  4.1835  0.2761 -0.2147
   63MOL0     H 8480   5.070   7.186   5.754 -0.4231 -1.2383 -1.6257
   63MOL0     H 8481   5.361   7.250   5.767  0.5788 -0.0787 -1.2066
   63MOL0     H 8482   5.295   7.180   5.915 -1.4581  0.9930  1.6950
   63MOL0     H 8483   5.132   7.360   5.960 -0.0149 -0.1713  0.4271
   63MOL0     H 8484   5.304   7.394   5.962 -0.3511  1.8758 -1.3035
   63MOL0     H 8485   5.075   6.393   5.579 -2.1365 -2.7387  1.5564
   63MOL0     H 8486   5.097   6.149   5.492  1.9839 -0.4731 -2.2733
   63MOL0     H 8487   5.383   5.783   5.396 -1.4360  1.1652 -0.0706
   63MOL0     H 8488   5.403   5.550   5.334 -1.5704 -0.7898  0.0095
   63MOL0     H 8489   4.616   4.623   6.538 -0.7280  0.1152 -1.5806
   63MOL0     H 8490   4.496   4.412   6.519 -0.1162 -2.6768 -0.0071
   63MOL0     H 8491   4.589   3.863   6.180 -1.1511 -1.3064 -1.8566
   63MOL0     H 8492   4.420   3.684   6.183 -1.9094 -0.4003 -1.0888
   63MOL0     H 8493   4.288   3.524   6.304  0.5699  1.4112 -0.2980
   63MOL0     H 8494   4.213   3.570   6.156 -2.3299  0.6842 -0.5732
   63MOL0     H 8495   4.048   3.486   6.394  0.2914 -4.6626  1.3290
   63MOL0     H 8496   4.109   3.368   6.291 -0.1422  0.5551  3.3550
   63MOL0     H 8497   3.997   3.522   6.095  0.5772  0.3394  0.4285
   63MOL0     H 8498   3.921   3.624   6.224 -1.6849 -0.0177 -0.6235
   63MOL0     H 8499   3.771   3.433   6.128  1.5180  1.0997 -1.5475
   63MOL0     H 8500   3.880   3.316   6.202 -2.6581 -1.0097 -1.7262
   63MOL0     H 8501   3.693   3.382   6.540 -0.0045  2.7699  0.8395
   63MOL0     H 8502   4.163   3.923   6.413  0.0504 -1.0298 -1.1933
   63MOL0     H 8503   4.224   4.122   6.509 -0.4352  0.6049 -2.4545
   63MOL0     H 8504   4.392   4.136   6.541  0.1664 -2.4340  0.2687
   63MOL0     H 8505   4.313   4.235   6.412 -0.0684 -0.4639 -2.7907
   64MOL0     O 8506   1.030   9.997  10.809  0.0602  0.2764 -0.3399
   64MOL0     C 8507   0.941  10.010  10.728 -0.5362 -0.7457  0.7663
   64MOL0     O 8508   0.868  10.129  10.705  0.3017  0.0735 -0.6829
   64MOL0     C 8509   0.881  10.233  10.784  0.4417 -0.5801 -1.2711
   64MOL0     C 8510   0.876  10.363  10.731  0.3455  0.5923 -0.6398
   64MOL0     C 8511   0.872  10.474  10.804  0.5827 -0.2931  0.0335
   64MOL0     C 8512   0.865  10.473  10.942  0.9682 -0.0658 -0.6775
   64MOL0     O 8513   0.842  10.585  11.018 -0.5874  0.5052 -0.2749
   64MOL0     C 8514   0.719  10.582  11.088 -0.2797  0.0276  0.3368
   64MOL0     C 8515   0.704  10.723  11.162  0.0727 -0.1008  0.3228
   64MOL0     C 8516   0.800  10.746  11.278  0.2572 -0.1015 -0.7554
   64MOL0     C 8517   0.748  10.856  11.371 -1.1156 -0.4642 -0.1649
   64MOL0     C 8518   0.859  10.889  11.477  0.4842 -0.0690  0.0001
   64MOL0     C 8519   0.788  10.924  11.613  0.1327 -0.3661  0.2974
   64MOL0     C 8520   0.887  11.014  11.696 -0.4889 -0.3180  0.0899
   64MOL0     C 8521   0.976  10.933  11.796 -1.0171  0.5964 -0.2044
   64MOL0     N 8522   0.919  10.889  11.919  0.4782 -0.1670 -0.6813
   64MOL0     C 8523   0.865  10.962  12.018  0.1809 -0.5230 -0.3851
   64MOL0     C 8524   0.814  10.862  12.104 -0.7944  0.6086 -0.5100
   64MOL0     C 8525   0.720  10.879  12.224  0.4978 -0.5811  0.4237
   64MOL0     C 8526   0.788  10.946  12.350  0.1135 -0.0629  0.3115
   64MOL0     C 8527   0.876  10.854  12.424 -0.5735  0.1169  0.2108
   64MOL0     C 8528   0.819  10.718  12.469 -0.5046  0.0366  0.8988
   64MOL0     O 8529   0.688  10.728  12.518  0.0121 -0.3909  0.1221
   64MOL0     C 8530   0.665  10.711  12.656 -0.2390  0.8712  0.4773
   64MOL0     C 8531   0.674  10.823  12.739 -0.5256  0.1051 -0.8666
   64MOL0     C 8532   0.629  10.829  12.865 -0.4798 -0.4310  0.1135
   64MOL0     C 8533   0.598  10.711  12.930  0.4356 -0.7536 -0.5020
   64MOL0     C 8534   0.546  10.719  13.065 -0.0867 -0.5866 -0.1279
   64MOL0     O 8535   0.504  10.844  13.109 -0.0455  0.5965  0.0385
   64MOL0     C 8536   0.416  10.857  13.216  0.1219  0.6166 -0.4980
   64MOL0     C 8537   0.468  10.918  13.337  0.7958  0.3388  0.9254
   64MOL0     C 8538   0.376  10.955  13.435 -0.2529  0.0863  0.3434
   64MOL0     C 8539   0.239  10.920  13.422 -0.5422  0.0330 -0.8345
   64MOL0     O 8540   0.141  10.954  13.516  0.4918 -0.3410 -0.6062
   64MOL0     C 8541   0.159  11.069  13.599 -1.3481 -0.6765  0.1367
   64MOL0     C 8542   0.021  11.106  13.647  0.6196  1.2768  0.2960
   64MOL0     C 8543  -0.018  11.021  13.774 -0.2126 -0.2973 -0.3813
   64MOL0     C 8544  -0.166  11.051  13.820 -1.1048  0.3978 -0.2509
   64MOL0     C 8545  -0.202  10.974  13.949 -0.1472 -0.8835  0.6607
   64MOL0     C 8546  -0.311  11.038  14.035  0.4671  0.7386 -1.0246
   64MOL0     C 8547  -0.379  10.962  14.155 -0.3786  0.5074 -0.5574
   64MOL0     C 8548  -0.517  11.015  14.195  0.0259  0.3209  0.1251
   64MOL0    Cl 8549  -0.573  10.883  14.294 -0.1822  0.1456  0.2111
   64MOL0     C 8550   0.188  10.857  13.302 -0.8326 -0.8123 -0.6242
   64MOL0     C 8551   0.283  10.819  13.207  0.1797 -0.6340 -0.1196
   64MOL0     O 8552   0.544  10.605  13.126  0.0302 -1.2055  0.0125
   64MOL0     C 8553   0.618  10.596  12.857  0.6656 -0.3295 -0.1030
   64MOL0     C 8554   0.653  10.588  12.729  0.3161 -0.0014  0.9633
   64MOL0     N 8555   0.837  10.734  12.050  0.5701 -0.8456 -0.5693
   64MOL0     N 8556   0.910  10.755  11.944  0.8923  0.3681 -0.7258
   64MOL0     C 8557   0.857  10.349  11.002  0.4675  0.3523  0.2589
   64MOL0     C 8558   0.866  10.228  10.919 -0.6365 -1.0349  0.5416
   64MOL0     C 8559   0.906   9.899  10.636 -0.1717 -0.4138  0.0556
   64MOL0     C 8560   0.775   9.901  10.585  0.6333 -0.0786 -0.3253
   64MOL0     C 8561   0.724   9.813  10.497  1.5947  0.9260  0.1104
   64MOL0     C 8562   0.810   9.702  10.459 -0.0496 -0.1577 -0.3598
   64MOL0     O 8563   0.777   9.585  10.390 -0.2619  0.1238  0.5144
   64MOL0     C 8564   0.644   9.570  10.329  1.0108 -1.1774 -0.5970
   64MOL0     C 8565   0.627   9.484  10.207 -0.5431 -0.9037  0.5277
   64MOL0     C 8566   0.482   9.497  10.154  0.3367  0.1051  0.1645
   64MOL0     C 8567   0.481   9.571  10.014  0.4941 -0.3483  0.5593
   64MOL0     C 8568   0.540   9.701  10.029  0.4315 -0.6461  1.0215
   64MOL0     C 8569   0.573   9.819  10.039 -0.3998 -1.1264 -1.1863
   64MOL0     C 8570   0.943   9.706  10.504 -0.6335 -0.0007 -0.8048
   64MOL0     C 8571   0.994   9.795  10.597 -1.1486  0.6282 -0.4653
   64MOL0     C 8572   1.126   9.771  10.658  0.0574 -0.7967 -0.4204
   64MOL0     H 8573   0.879  10.377  10.623 -0.4366 -3.0420 -1.2692
   64MOL0     H 8574   0.871  10.569  10.753  1.6484 -0.3203 -0.0561
   64MOL0     H 8575   0.637  10.575  11.016 -0.4666  0.8982  0.4550
   64MOL0     H 8576   0.717  10.505  11.165  1.5693 -1.1138 -0.6684
   64MOL0     H 8577   0.601  10.732  11.197 -0.9685 -1.5637 -2.1175
   64MOL0     H 8578   0.711  10.804  11.090  0.9300 -2.2667 -2.1830
   64MOL0     H 8579   0.893  10.783  11.235 -0.4664  1.0519 -1.3773
   64MOL0     H 8580   0.820  10.656  11.337 -1.0076 -0.4109 -0.7569
   64MOL0     H 8581   0.726  10.949  11.316  0.1985 -2.2996 -4.2266
   64MOL0     H 8582   0.659  10.829  11.428 -0.4961  0.5440  1.3406
   64MOL0     H 8583   0.921  10.803  11.504 -1.1326 -0.1308  4.4312
   64MOL0     H 8584   0.914  10.976  11.441 -3.9388  1.7805 -3.2741
   64MOL0     H 8585   0.697  10.978  11.584  0.2322 -0.4574 -0.1994
   64MOL0     H 8586   0.755  10.837  11.671  3.8424 -1.8621  0.4376
   64MOL0     H 8587   0.822  11.089  11.743  1.0915  0.5934  0.8723
   64MOL0     H 8588   0.953  11.070  11.630  0.6328 -0.0922  1.3654
   64MOL0     H 8589   1.026  10.848  11.747 -1.7764  0.7334 -1.2377
   64MOL0     H 8590   1.061  10.995  11.825 -1.1389  0.6884 -0.0449
   64MOL0     H 8591   0.854  11.069  12.034 -0.8249 -0.1110 -3.1826
   64MOL0     H 8592   0.639  10.947  12.197 -0.4103 -1.1572  1.5619
   64MOL0     H 8593   0.673  10.786  12.257  0.9141  0.1468  3.4343
   64MOL0     H 8594   0.849  11.025  12.305 -1.7886  0.4871 -1.4974
   64MOL0     H 8595   0.714  10.993  12.416 -2.6670  2.0382 -3.8479
   64MOL0     H 8596   0.925  10.901  12.510 -1.0999  0.4764  0.3210
   64MOL0     H 8597   0.959  10.831  12.357 -1.3082 -0.9419 -0.3811
   64MOL0     H 8598   0.893  10.682  12.542  0.5263  3.1467  1.5281
   64MOL0     H 8599   0.813  10.659  12.377 -2.3380  1.2431  0.1928
   64MOL0     H 8600   0.697  10.912  12.683  1.5329  0.4321  0.3989
   64MOL0     H 8601   0.616  10.931  12.901  1.4970 -0.5076  1.2169
   64MOL0     H 8602   0.572  10.949  13.342  1.2889 -1.0215 -0.0500
   64MOL0     H 8603   0.405  11.000  13.529  0.1631  1.1532 -0.2841
   64MOL0     H 8604   0.216  11.054  13.691  2.0347  2.6134 -1.1525
   64MOL0     H 8605   0.197  11.163  13.557 -2.4964 -0.4964 -0.5413
   64MOL0     H 8606   0.018  11.213  13.670 -1.4293  1.1246  0.9778
   64MOL0     H 8607  -0.049  11.090  13.563 -2.2687  1.2269  2.5493
   64MOL0     H 8608  -0.005  10.916  13.748  0.8546 -1.0671  2.8086
   64MOL0     H 8609   0.054  11.048  13.852  0.7093 -0.0652 -1.2790
   64MOL0     H 8610  -0.237  11.032  13.739 -2.0352  1.7923  0.2196
   64MOL0     H 8611  -0.169  11.160  13.828  0.5944  0.7626 -2.9329
   64MOL0     H 8612  -0.117  10.970  14.019  1.2014 -3.6830 -0.9692
   64MOL0     H 8613  -0.221  10.873  13.913 -0.0082 -1.1514  1.3101
   64MOL0     H 8614  -0.258  11.130  14.061  2.5405  0.2170 -3.0156
   64MOL0     H 8615  -0.394  11.067  13.970 -0.0214  0.1517 -0.6640
   64MOL0     H 8616  -0.305  10.964  14.236 -0.3357  2.9832 -0.5735
   64MOL0     H 8617  -0.390  10.855  14.134 -0.0199  0.2349  0.5636
   64MOL0     H 8618  -0.517  11.112  14.245  1.4562  0.4397 -0.0841
   64MOL0     H 8619  -0.582  11.031  14.108 -1.3109 -1.7334  0.6654
   64MOL0     H 8620   0.080  10.845  13.295 -1.3315  1.8911  1.0636
   64MOL0     H 8621   0.255  10.758  13.121 -1.8962 -0.7516  0.5871
   64MOL0     H 8622   0.602  10.500  12.905 -2.8843  0.0719 -0.1943
   64MOL0     H 8623   0.671  10.489  12.687 -2.0076  0.4077 -1.2030
   64MOL0     H 8624   0.839  10.333  11.108  1.1315 -2.1233  0.0755
   64MOL0     H 8625   0.857  10.129  10.963 -1.7952 -0.8150  0.8624
   64MOL0     H 8626   0.709   9.985  10.603 -0.6836 -1.3789  1.3400
   64MOL0     H 8627   0.618   9.801  10.477  1.4235 -0.0466  1.5212
   64MOL0     H 8628   0.593   9.662  10.298  1.0373 -1.4717 -1.5685
   64MOL0     H 8629   0.586   9.529  10.412  1.2420 -0.4765 -0.0755
   64MOL0     H 8630   0.655   9.382  10.237  1.0867 -0.7755 -0.4580
   64MOL0     H 8631   0.701   9.509  10.131  0.4042 -0.8603  1.4383
   64MOL0     H 8632   0.406   9.535  10.223 -0.3210 -0.7120 -0.0999
   64MOL0     H 8633   0.446   9.396  10.135 -2.0139  1.2545 -2.3496
   64MOL0     H 8634   0.537   9.514   9.940 -0.4918  0.4942 -0.9169
   64MOL0     H 8635   0.376   9.588   9.985  0.2391  2.5279  2.7596
   64MOL0     H 8636   0.605   9.918  10.067  0.4436 -2.1338  1.8071
   64MOL0     H 8637   1.004   9.622  10.472 -1.8742 -1.1151 -0.3365
   64MOL0     H 8638   1.200   9.835  10.609  0.2565  0.9482  1.9943
   64MOL0     H 8639   1.129   9.785  10.767  1.3610 -1.0369 -0.4020
   64MOL0     H 8640   1.151   9.666  10.635 -1.3177 -1.0171 -0.9992
   65MOL0     O 8641   5.878   1.838   4.310 -0.8011  0.3203  0.1722
   65MOL0     C 8642   5.945   1.909   4.381 -0.1206  0.6275  0.3497
   65MOL0     O 8643   6.073   1.948   4.354  0.7970 -0.3467 -0.2478
   65MOL0     C 8644   6.140   1.872   4.261 -0.4651  0.6335 -1.0867
   65MOL0     C 8645   6.158   1.916   4.127  1.2283 -0.2912 -1.0884
   65MOL0     C 8646   6.251   1.847   4.042 -0.2064 -0.1638  0.8364
   65MOL0     C 8647   6.310   1.723   4.073  0.6600 -0.2762 -0.4705
   65MOL0     O 8648   6.393   1.666   3.981 -0.2534  0.3611 -0.2670
   65MOL0     C 8649   6.514   1.599   4.033  0.2149 -0.4941 -0.8914
   65MOL0     C 8650   6.621   1.615   3.921  0.5814  0.6147  0.7817
   65MOL0     C 8651   6.713   1.486   3.905 -0.8141  0.2053 -0.3802
   65MOL0     C 8652   6.781   1.484   3.768  0.4610  0.5863  0.4088
   65MOL0     C 8653   6.721   1.418   3.639  0.4606  0.2765 -0.2291
   65MOL0     C 8654   6.805   1.461   3.518  0.7359  0.4366  0.4016
   65MOL0     C 8655   6.940   1.383   3.489 -0.7717 -0.2461  0.4010
   65MOL0     C 8656   6.933   1.235   3.458  1.0670 -0.7167  0.7301
   65MOL0     N 8657   6.813   1.202   3.370 -0.2432 -0.6463  0.0876
   65MOL0     C 8658   6.694   1.168   3.423  0.1820  0.0241 -0.7910
   65MOL0     C 8659   6.611   1.159   3.323 -0.1227 -0.0398 -0.0881
   65MOL0     C 8660   6.469   1.118   3.334  0.8245 -0.5563  1.2584
   65MOL0     C 8661   6.398   1.217   3.439  0.8071  0.5231  0.4239
   65MOL0     C 8662   6.389   1.362   3.400 -0.0655  0.0925 -1.1211
   65MOL0     C 8663   6.274   1.389   3.294  0.6907  0.1005 -0.1533
   65MOL0     O 8664   6.262   1.526   3.259  1.0686 -0.8105  0.5649
   65MOL0     C 8665   6.197   1.621   3.338 -0.2406  0.2422 -0.2255
   65MOL0     C 8666   6.186   1.751   3.293 -0.3926 -0.1748  0.3878
   65MOL0     C 8667   6.123   1.846   3.374 -1.2169  0.2577  0.2910
   65MOL0     C 8668   6.084   1.821   3.508 -0.2351  0.2505 -0.7659
   65MOL0     C 8669   6.041   1.932   3.600 -0.2965  0.9018 -0.1233
   65MOL0     O 8670   5.951   1.905   3.695 -0.1037  0.3724 -0.3538
   65MOL0     C 8671   5.900   2.000   3.778  0.6237 -0.7488 -0.3341
   65MOL0     C 8672   5.868   1.944   3.902  0.0807 -0.9408 -0.8384
   65MOL0     C 8673   5.802   2.027   4.001  0.1599 -0.6539  0.6084
   65MOL0     C 8674   5.773   2.167   3.972 -0.8770 -0.5338 -0.2226
   65MOL0     O 8675   5.712   2.236   4.084  0.3057  0.9223  0.2993
   65MOL0     C 8676   5.737   2.366   4.123 -0.7819 -0.5105 -0.6229
   65MOL0     C 8677   5.773   2.359   4.274 -0.1953 -0.6307  0.5475
   65MOL0     C 8678   5.729   2.480   4.351  0.1792 -0.1296 -0.1442
   65MOL0     C 8679   5.824   2.500   4.469 -0.0039 -0.1740 -0.8663
   65MOL0     C 8680   5.826   2.385   4.560  0.0274  0.0342 -0.4450
   65MOL0     C 8681   5.912   2.401   4.684 -0.2691 -0.1298 -0.5008
   65MOL0     C 8682   6.067   2.431   4.642 -0.2002  1.1405 -0.2990
   65MOL0     C 8683   6.174   2.392   4.742  0.1182  0.6889  0.7902
   65MOL0    Cl 8684   6.120   2.448   4.903 -0.1146 -0.2995 -0.1245
   65MOL0     C 8685   5.824   2.229   3.856  0.5633 -0.1116 -0.4413
   65MOL0     C 8686   5.874   2.142   3.752  0.6660  0.1196 -0.7090
   65MOL0     O 8687   6.088   2.036   3.577 -0.0078 -0.4998 -0.2622
   65MOL0     C 8688   6.105   1.695   3.557 -0.2969 -0.8519 -0.6589
   65MOL0     C 8689   6.148   1.591   3.473 -0.2516 -0.8254  0.1196
   65MOL0     N 8690   6.681   1.194   3.210  0.1599  0.3430 -0.0911
   65MOL0     N 8691   6.794   1.228   3.242 -1.0960 -0.3742 -0.0786
   65MOL0     C 8692   6.296   1.684   4.209 -0.1328 -0.4878 -0.6491
   65MOL0     C 8693   6.211   1.756   4.295 -1.0498 -0.5227  0.7973
   65MOL0     C 8694   5.885   1.956   4.497 -0.1116  0.5828 -0.5889
   65MOL0     C 8695   5.759   2.017   4.471 -0.0495  0.2393  0.2927
   65MOL0     C 8696   5.704   2.083   4.571  0.3236 -0.3852  0.1251
   65MOL0     C 8697   5.747   2.065   4.700 -0.0131 -0.0877  0.0272
   65MOL0     O 8698   5.695   2.133   4.806  0.6526 -0.0419 -0.7275
   65MOL0     C 8699   5.552   2.143   4.800 -0.4799  1.2558 -0.8301
   65MOL0     C 8700   5.491   2.134   4.944  0.0974  0.6945 -0.8005
   65MOL0     C 8701   5.557   2.231   5.043  0.3051 -0.1646  0.0838
   65MOL0     C 8702   5.665   2.163   5.122 -0.2385  0.0416  0.4782
   65MOL0     C 8703   5.729   2.248   5.221 -0.4417 -0.6955 -0.2302
   65MOL0     C 8704   5.775   2.324   5.308 -0.7505 -0.0420 -0.1919
   65MOL0     C 8705   5.848   1.984   4.731 -1.0536 -1.0269  0.1440
   65MOL0     C 8706   5.932   1.943   4.633 -0.0030  0.0834  0.9118
   65MOL0     C 8707   6.065   1.887   4.651  0.1992 -0.6691  0.4561
   65MOL0     H 8708   6.110   2.006   4.088  2.8317  0.6969 -0.8808
   65MOL0     H 8709   6.265   1.889   3.943 -2.4560  1.1222  1.0004
   65MOL0     H 8710   6.550   1.634   4.130  1.4327 -1.6550 -0.8915
   65MOL0     H 8711   6.486   1.494   4.051  1.2303 -1.0393 -2.3219
   65MOL0     H 8712   6.688   1.699   3.941  4.0480 -1.4116 -1.1220
   65MOL0     H 8713   6.573   1.637   3.825 -0.4797  0.2204  1.2099
   65MOL0     H 8714   6.648   1.399   3.919 -1.5846  0.8930  0.4835
   65MOL0     H 8715   6.783   1.491   3.989 -0.9625 -2.2352 -0.0223
   65MOL0     H 8716   6.789   1.592   3.749 -0.5872  0.8962  1.6396
   65MOL0     H 8717   6.882   1.448   3.789  1.2637  2.7104  0.4555
   65MOL0     H 8718   6.708   1.311   3.661 -0.6871  0.3564 -0.4719
   65MOL0     H 8719   6.619   1.452   3.618 -1.4085 -3.6795  1.3865
   65MOL0     H 8720   6.745   1.448   3.428  1.7992 -0.9854 -0.1476
   65MOL0     H 8721   6.816   1.570   3.521 -2.1596  0.7594  2.1531
   65MOL0     H 8722   7.003   1.411   3.574 -0.8172 -0.5311  0.5302
   65MOL0     H 8723   6.984   1.441   3.408 -2.5324 -1.1198 -1.2526
   65MOL0     H 8724   7.029   1.205   3.416  1.6279 -1.9971  2.8050
   65MOL0     H 8725   6.927   1.175   3.549  1.8039 -3.8654 -1.1304
   65MOL0     H 8726   6.677   1.150   3.528  0.2695  6.0601  0.6686
   65MOL0     H 8727   6.416   1.120   3.238 -0.3998  0.5086  1.9223
   65MOL0     H 8728   6.457   1.013   3.363 -0.6997 -1.5844 -2.5138
   65MOL0     H 8729   6.297   1.182   3.460  0.9886  0.4482  1.2049
   65MOL0     H 8730   6.452   1.212   3.534  0.4847 -2.5767  0.5596
   65MOL0     H 8731   6.484   1.401   3.362  0.1987  1.3046  0.6477
   65MOL0     H 8732   6.363   1.410   3.495 -2.3303 -3.6817  0.3849
   65MOL0     H 8733   6.179   1.339   3.315  0.2497  0.6678 -0.7409
   65MOL0     H 8734   6.308   1.341   3.201  0.3928  0.5861 -0.5190
   65MOL0     H 8735   6.238   1.779   3.202 -1.8819  0.3214 -0.3425
   65MOL0     H 8736   6.113   1.950   3.342  0.6347 -0.1001 -1.7194
   65MOL0     H 8737   5.873   1.838   3.921 -2.1290 -0.6401  2.2579
   65MOL0     H 8738   5.755   1.989   4.091  1.8966  0.4013  2.0180
   65MOL0     H 8739   5.817   2.409   4.063 -1.0026  1.0305  0.1354
   65MOL0     H 8740   5.649   2.429   4.108  0.1325  0.3572 -2.8540
   65MOL0     H 8741   5.744   2.260   4.310 -2.6731 -0.6183 -1.1906
   65MOL0     H 8742   5.882   2.360   4.280 -0.1721  3.0644  4.8113
   65MOL0     H 8743   5.751   2.564   4.284  2.5486 -1.7633 -1.5803
   65MOL0     H 8744   5.621   2.491   4.360  0.4106  3.9357 -0.4964
   65MOL0     H 8745   5.808   2.595   4.521  2.8292  0.9514 -1.8605
   65MOL0     H 8746   5.922   2.510   4.422  0.6224 -0.2675  0.3838
   65MOL0     H 8747   5.860   2.308   4.490 -1.0103  4.7067 -7.0654
   65MOL0     H 8748   5.722   2.380   4.593  1.1096 -0.1637  3.3307
   65MOL0     H 8749   5.877   2.487   4.742 -0.3744 -1.0958  0.9189
   65MOL0     H 8750   5.895   2.316   4.750 -0.7899 -1.7454 -2.6182
   65MOL0     H 8751   6.075   2.534   4.608 -0.9759  0.5104 -2.5950
   65MOL0     H 8752   6.080   2.364   4.557 -0.3291  1.8251 -0.8645
   65MOL0     H 8753   6.202   2.286   4.746  0.4823  0.6213 -1.6965
   65MOL0     H 8754   6.268   2.436   4.709  0.7626 -1.8359 -1.0745
   65MOL0     H 8755   5.784   2.327   3.835 -0.9835  0.1963  3.2091
   65MOL0     H 8756   5.897   2.181   3.653  0.8552  1.2560 -0.2303
   65MOL0     H 8757   6.075   1.656   3.653  2.4081  1.3953  1.2286
   65MOL0     H 8758   6.145   1.489   3.509 -3.1073 -2.2223 -3.4446
   65MOL0     H 8759   6.347   1.602   4.259 -1.8049 -0.7682  0.7060
   65MOL0     H 8760   6.195   1.717   4.395 -2.1806 -1.2257  0.3561
   65MOL0     H 8761   5.724   2.048   4.373  3.5139  3.4191 -0.2404
   65MOL0     H 8762   5.616   2.144   4.555 -0.4303 -1.0695  1.4366
   65MOL0     H 8763   5.501   2.058   4.754  0.0073 -0.4017  1.4885
   65MOL0     H 8764   5.519   2.233   4.747 -1.0766  1.6483  0.1854
   65MOL0     H 8765   5.498   2.033   4.985 -0.6232  0.0294 -2.2463
   65MOL0     H 8766   5.382   2.145   4.938 -0.2678 -1.4197  0.7906
   65MOL0     H 8767   5.482   2.267   5.115  5.2912  2.7948  4.5146
   65MOL0     H 8768   5.617   2.311   4.998  1.3824  2.1730  4.9857
   65MOL0     H 8769   5.617   2.095   5.192  2.3971 -0.2146  2.1767
   65MOL0     H 8770   5.735   2.113   5.054 -0.4671 -1.2123  1.1481
   65MOL0     H 8771   5.826   2.383   5.382 -1.4126 -1.3577  1.3721
   65MOL0     H 8772   5.890   1.978   4.831  0.0076 -0.6910 -0.2692
   65MOL0     H 8773   6.075   1.843   4.750  0.8202 -1.9984 -0.1685
   65MOL0     H 8774   6.080   1.805   4.580 -0.5334 -1.4399  1.1638
   65MOL0     H 8775   6.140   1.964   4.630  1.8758 -2.0416  1.1795
   66MOL0     O 8776   9.504   3.208   3.625  0.5527 -0.1637 -0.6073
   66MOL0     C 8777   9.409   3.280   3.635  0.3749 -0.2830 -1.0633
   66MOL0     O 8778   9.311   3.294   3.543  0.4088  0.1956  0.0272
   66MOL0     C 8779   9.320   3.201   3.441 -0.2966  1.1394 -0.3028
   66MOL0     C 8780   9.437   3.206   3.365 -0.1782 -0.3685  0.9343
   66MOL0     C 8781   9.447   3.142   3.245  0.2572 -0.6607  0.2835
   66MOL0     C 8782   9.349   3.052   3.207  1.0497  0.6210  0.0092
   66MOL0     O 8783   9.377   2.975   3.098  0.7644  0.6524 -0.0548
   66MOL0     C 8784   9.428   2.846   3.137  0.1288 -0.4776  0.0904
   66MOL0     C 8785   9.361   2.743   3.057 -0.6123  0.9381  0.4598
   66MOL0     C 8786   9.210   2.734   3.077 -0.9341  0.6961 -0.2013
   66MOL0     C 8787   9.143   2.642   2.970  0.4053  0.0733 -0.1639
   66MOL0     C 8788   8.989   2.658   2.963  0.1118 -0.8902 -0.9509
   66MOL0     C 8789   8.946   2.794   2.902 -0.8405  0.2667  0.0862
   66MOL0     C 8790   8.793   2.775   2.878 -0.6959 -1.6283 -0.0990
   66MOL0     C 8791   8.725   2.907   2.893  0.5530  0.4869 -0.2991
   66MOL0     N 8792   8.751   2.979   3.026  0.4329 -0.0243  0.0749
   66MOL0     C 8793   8.829   3.093   3.045 -0.1617 -0.5252 -0.3080
   66MOL0     C 8794   8.826   3.109   3.178  0.2761  0.9693 -0.4567
   66MOL0     C 8795   8.889   3.216   3.265 -0.3093  0.3029  0.1857
   66MOL0     C 8796   8.842   3.349   3.205 -0.2168 -0.0677 -0.0969
   66MOL0     C 8797   8.894   3.468   3.284 -0.3461  0.1925 -0.7797
   66MOL0     C 8798   8.806   3.489   3.411  0.2916 -0.0639  1.1103
   66MOL0     O 8799   8.660   3.514   3.389  0.4286  0.4346  0.5679
   66MOL0     C 8800   8.579   3.544   3.495 -0.2285  0.3227 -0.0398
   66MOL0     C 8801   8.622   3.550   3.628 -0.6486 -0.2851  0.1455
   66MOL0     C 8802   8.538   3.588   3.728 -0.2988  0.5315  0.4506
   66MOL0     C 8803   8.410   3.642   3.705 -1.3456 -0.1876 -0.2539
   66MOL0     C 8804   8.344   3.689   3.824  0.2474  0.1836 -0.1611
   66MOL0     O 8805   8.308   3.814   3.847  0.1760  0.7658  0.1278
   66MOL0     C 8806   8.259   3.890   3.748 -0.6870  0.4399 -0.4592
   66MOL0     C 8807   8.334   4.001   3.706 -0.0355  0.4154 -0.7337
   66MOL0     C 8808   8.287   4.083   3.607  0.3920 -0.8880 -0.7192
   66MOL0     C 8809   8.173   4.039   3.540  0.4130 -0.9470  0.7250
   66MOL0     O 8810   8.157   4.104   3.422 -0.1244 -0.9486 -0.2776
   66MOL0     C 8811   8.056   4.063   3.321  0.9737 -0.3616 -0.5108
   66MOL0     C 8812   8.065   4.137   3.189  0.1490  0.2411  0.6995
   66MOL0     C 8813   8.209   4.140   3.138  0.2173 -0.2423  0.1565
   66MOL0     C 8814   8.210   4.195   3.000  0.2497 -0.7881 -0.5943
   66MOL0     C 8815   8.129   4.103   2.892  0.1678  0.2775  0.0370
   66MOL0     C 8816   8.176   4.129   2.748  0.8571  0.2983  0.2872
   66MOL0     C 8817   8.284   4.024   2.725  0.3105 -1.0476  0.3112
   66MOL0     C 8818   8.356   4.077   2.599 -0.7491  0.1066 -0.0656
   66MOL0    Cl 8819   8.440   4.238   2.631  0.6116 -0.2633  0.6933
   66MOL0     C 8820   8.084   3.941   3.583  0.3675  0.8935 -0.1512
   66MOL0     C 8821   8.133   3.869   3.702  0.0453  0.4629  0.9967
   66MOL0     O 8822   8.337   3.603   3.914  0.0157 -0.2014  0.2336
   66MOL0     C 8823   8.360   3.638   3.572 -0.1255  0.3762 -0.3974
   66MOL0     C 8824   8.449   3.583   3.473  0.3275 -0.5144  0.0398
   66MOL0     N 8825   8.753   3.008   3.235 -0.4569  0.4039  0.1435
   66MOL0     N 8826   8.727   2.921   3.149  0.0572  0.2140 -0.2787
   66MOL0     C 8827   9.231   3.038   3.281  0.2940 -0.1794 -0.3419
   66MOL0     C 8828   9.216   3.114   3.397 -0.7025  0.1811 -0.1445
   66MOL0     C 8829   9.402   3.380   3.748  0.5413 -0.3272  0.6438
   66MOL0     C 8830   9.522   3.449   3.784  0.0079  0.3924  0.3975
   66MOL0     C 8831   9.520   3.545   3.882  0.3571 -0.2429 -0.1652
   66MOL0     C 8832   9.407   3.566   3.960 -0.4888 -0.0970 -0.0418
   66MOL0     O 8833   9.420   3.669   4.051 -0.5103 -0.1312 -0.4210
   66MOL0     C 8834   9.326   3.660   4.155  0.4117 -0.2002 -0.6975
   66MOL0     C 8835   9.392   3.708   4.277  0.6415  0.5744  1.0974
   66MOL0     C 8836   9.338   3.619   4.394  0.1873  0.0441  0.5201
   66MOL0     C 8837   9.361   3.703   4.519 -0.6073 -0.2075  1.2271
   66MOL0     C 8838   9.360   3.614   4.641 -0.7196 -0.5550 -0.1274
   66MOL0     C 8839   9.372   3.541   4.740  0.8380 -0.1711 -0.2102
   66MOL0     C 8840   9.291   3.487   3.931  0.7665 -0.1683  0.5368
   66MOL0     C 8841   9.287   3.405   3.822 -0.5624  0.0627  0.0408
   66MOL0     C 8842   9.161   3.329   3.780  0.0962 -0.2554  0.1680
   66MOL0     H 8843   9.511   3.280   3.395 -0.4181  0.3190 -0.1085
   66MOL0     H 8844   9.521   3.160   3.167 -0.7425 -2.5986 -1.2016
   66MOL0     H 8845   9.534   2.844   3.107 -0.3361  2.1540 -2.0560
   66MOL0     H 8846   9.407   2.834   3.244 -2.9766  0.6826 -0.3004
   66MOL0     H 8847   9.400   2.643   3.077 -0.6245  0.6514 -0.8677
   66MOL0     H 8848   9.387   2.736   2.951  0.6944 -2.9924  0.8991
   66MOL0     H 8849   9.163   2.832   3.082 -0.3243  0.9524  0.7081
   66MOL0     H 8850   9.200   2.703   3.181  0.3019  2.9807  0.6783
   66MOL0     H 8851   9.190   2.673   2.876 -0.5108  3.1936  0.2997
   66MOL0     H 8852   9.170   2.538   2.990 -2.9639 -0.8963 -0.1326
   66MOL0     H 8853   8.960   2.574   2.900  1.3605  0.2908 -3.2494
   66MOL0     H 8854   8.952   2.648   3.065  1.5369 -0.0425 -0.3256
   66MOL0     H 8855   8.969   2.885   2.958  2.4374 -0.9224  0.8909
   66MOL0     H 8856   9.001   2.793   2.807  1.0399 -3.9827  0.9683
   66MOL0     H 8857   8.745   2.690   2.929 -4.9436  0.0559 -0.8936
   66MOL0     H 8858   8.780   2.750   2.772  0.3566 -0.1552 -0.6019
   66MOL0     H 8859   8.769   2.972   2.816  4.4187 -0.6075  0.7812
   66MOL0     H 8860   8.616   2.902   2.886  0.2445 -3.0031  3.3783
   66MOL0     H 8861   8.869   3.157   2.967  0.9014  0.8273  1.2835
   66MOL0     H 8862   8.860   3.196   3.368  1.3972  0.1360  0.6612
   66MOL0     H 8863   8.995   3.199   3.246 -0.5230 -0.4934 -0.3673
   66MOL0     H 8864   8.896   3.363   3.111 -0.7285  2.8402 -0.0591
   66MOL0     H 8865   8.735   3.358   3.183 -0.0189 -1.3596 -1.7495
   66MOL0     H 8866   8.896   3.557   3.221 -2.1430 -0.0393 -1.2267
   66MOL0     H 8867   8.996   3.443   3.316  0.2957  2.7400 -0.6008
   66MOL0     H 8868   8.836   3.578   3.466 -0.0137  1.4358 -1.0474
   66MOL0     H 8869   8.829   3.410   3.483 -0.2202  0.8121  2.2550
   66MOL0     H 8870   8.726   3.536   3.656 -0.2598  4.2116  1.7278
   66MOL0     H 8871   8.576   3.614   3.827  1.9943 -2.2106  0.4451
   66MOL0     H 8872   8.435   4.008   3.746  0.6231 -2.6404 -1.5780
   66MOL0     H 8873   8.346   4.160   3.559 -0.5736  0.5531  0.3257
   66MOL0     H 8874   8.069   3.956   3.303  2.7774  0.0222 -1.8066
   66MOL0     H 8875   7.959   4.079   3.369  1.1952  3.7160 -1.0229
   66MOL0     H 8876   8.001   4.081   3.120  2.4447 -1.6207 -0.0547
   66MOL0     H 8877   8.025   4.238   3.201 -0.4135  0.1204 -0.1407
   66MOL0     H 8878   8.248   4.223   3.197 -1.0304  0.7001 -0.3007
   66MOL0     H 8879   8.262   4.044   3.145  1.1580  0.2211 -0.5149
   66MOL0     H 8880   8.314   4.207   2.970 -0.1780  2.0542 -1.1569
   66MOL0     H 8881   8.167   4.295   3.006  0.3972 -0.7586  0.1122
   66MOL0     H 8882   8.020   4.105   2.896  0.1122 -0.6637  5.1212
   66MOL0     H 8883   8.133   3.995   2.911 -5.0462  0.3170  3.4101
   66MOL0     H 8884   8.097   4.111   2.674  0.8873 -0.2417  0.3870
   66MOL0     H 8885   8.216   4.231   2.742  1.2685  0.2062  1.3202
   66MOL0     H 8886   8.245   3.924   2.705  0.8489 -1.1538 -0.2248
   66MOL0     H 8887   8.352   4.025   2.810  0.2783  1.8999  0.4017
   66MOL0     H 8888   8.430   3.999   2.579 -0.4728  0.0119  1.2735
   66MOL0     H 8889   8.287   4.078   2.513  0.1260  2.4699 -0.8187
   66MOL0     H 8890   7.988   3.910   3.543  1.7145 -4.4615 -0.0176
   66MOL0     H 8891   8.055   3.797   3.726 -3.0705  3.3632  0.2741
   66MOL0     H 8892   8.262   3.678   3.548 -1.4836 -0.6214  2.8696
   66MOL0     H 8893   8.406   3.582   3.374  0.7330 -0.3514 -0.1382
   66MOL0     H 8894   9.148   2.978   3.245 -1.2462 -0.6672  3.6316
   66MOL0     H 8895   9.121   3.095   3.446 -0.7826  0.2883 -0.2570
   66MOL0     H 8896   9.620   3.417   3.747 -0.3731 -1.0645  0.5826
   66MOL0     H 8897   9.606   3.603   3.915  1.8277 -1.2065 -2.0720
   66MOL0     H 8898   9.277   3.564   4.176 -1.6352  0.4470 -2.2459
   66MOL0     H 8899   9.233   3.712   4.130 -0.0613 -0.5368  0.2760
   66MOL0     H 8900   9.367   3.813   4.294 -0.6466  0.2711  1.2101
   66MOL0     H 8901   9.499   3.687   4.272  0.8351  1.7860 -1.7452
   66MOL0     H 8902   9.384   3.520   4.390 -1.4435 -0.8794  2.6074
   66MOL0     H 8903   9.230   3.603   4.385  0.4608 -1.2106 -0.9678
   66MOL0     H 8904   9.459   3.753   4.517 -0.9065  0.4624  2.3276
   66MOL0     H 8905   9.289   3.785   4.528  0.1342  0.4339  1.4946
   66MOL0     H 8906   9.380   3.477   4.826  0.5930 -3.8618 -2.7026
   66MOL0     H 8907   9.208   3.500   4.000  3.1286  0.5758  3.4526
   66MOL0     H 8908   9.182   3.222   3.787  2.9221 -0.1328 -3.3148
   66MOL0     H 8909   9.079   3.347   3.850 -1.3088 -1.1952 -1.1673
   66MOL0     H 8910   9.120   3.349   3.681  1.0886 -0.9028 -0.3969
   67MOL0     O 8911   1.975   0.685   6.100  0.1557  0.3883  0.8171
   67MOL0     C 8912   2.044   0.678   6.196 -0.5061  0.5982  0.1672
   67MOL0     O 8913   2.067   0.780   6.281  0.2158 -0.7052 -0.5996
   67MOL0     C 8914   1.958   0.874   6.274  0.5042 -0.5320  0.3547
   67MOL0     C 8915   1.827   0.833   6.315  0.3524  0.4219  0.2819
   67MOL0     C 8916   1.714   0.917   6.282  1.2604  0.5354  0.6280
   67MOL0     C 8917   1.728   1.040   6.228  1.7147 -0.1352  0.2331
   67MOL0     O 8918   1.612   1.125   6.225 -0.9427 -0.2227 -0.2237
   67MOL0     C 8919   1.637   1.260   6.258  0.7586  0.5488  0.5201
   67MOL0     C 8920   1.509   1.345   6.216  0.7344  0.9942 -0.3784
   67MOL0     C 8921   1.508   1.351   6.067 -0.8385 -0.1634 -1.1618
   67MOL0     C 8922   1.429   1.473   6.014 -0.5130  0.5280  0.8689
   67MOL0     C 8923   1.461   1.492   5.857 -0.1103 -0.8067 -0.2390
   67MOL0     C 8924   1.598   1.557   5.854 -0.2238 -0.0751  0.0362
   67MOL0     C 8925   1.651   1.556   5.714  0.5241 -0.7421  0.9079
   67MOL0     C 8926   1.591   1.681   5.636 -0.1504  0.1648  0.9233
   67MOL0     N 8927   1.651   1.677   5.497 -0.3201  0.9105  0.2612
   67MOL0     C 8928   1.772   1.726   5.461 -0.1790  0.3729  0.3211
   67MOL0     C 8929   1.774   1.705   5.322  0.7582  0.5162 -0.3743
   67MOL0     C 8930   1.905   1.747   5.253 -0.9542  0.7393  0.1886
   67MOL0     C 8931   1.895   1.857   5.153 -0.6697 -0.0178  0.5203
   67MOL0     C 8932   1.846   1.793   5.020  0.3112 -0.5342 -0.4051
   67MOL0     C 8933   1.951   1.744   4.929 -0.2208  0.3658 -0.1323
   67MOL0     O 8934   1.994   1.609   4.967 -0.8544 -0.1783  0.3168
   67MOL0     C 8935   2.099   1.546   4.900  1.0457  0.6892  0.4353
   67MOL0     C 8936   2.165   1.432   4.953 -1.0759  0.5215 -1.5096
   67MOL0     C 8937   2.264   1.369   4.877  0.8249 -0.7749 -0.8549
   67MOL0     C 8938   2.315   1.405   4.764 -0.3851 -0.3049 -0.2415
   67MOL0     C 8939   2.442   1.351   4.697  0.1722  0.0097 -0.8554
   67MOL0     O 8940   2.508   1.253   4.759 -0.6320  0.7986  0.6393
   67MOL0     C 8941   2.630   1.199   4.724 -0.0531 -0.3383  1.2669
   67MOL0     C 8942   2.715   1.241   4.617  0.0584  1.5311  0.0725
   67MOL0     C 8943   2.836   1.171   4.582 -0.7260  0.5032 -0.5855
   67MOL0     C 8944   2.877   1.060   4.655  0.2043  0.8104 -0.1288
   67MOL0     O 8945   3.003   1.002   4.635 -0.2897  0.4027  0.0587
   67MOL0     C 8946   3.069   0.937   4.741  0.2395  0.3706 -0.8264
   67MOL0     C 8947   3.214   0.918   4.715  0.0351 -0.3671  0.2816
   67MOL0     C 8948   3.240   0.795   4.629 -0.4971  1.0117  1.0659
   67MOL0     C 8949   3.384   0.764   4.620 -0.3832 -0.7084  0.6374
   67MOL0     C 8950   3.417   0.660   4.511  0.0821 -0.5636 -0.3437
   67MOL0     C 8951   3.572   0.642   4.489 -0.7400 -0.6388 -0.6839
   67MOL0     C 8952   3.608   0.568   4.354 -0.8431 -0.5345 -0.6247
   67MOL0     C 8953   3.558   0.424   4.336  0.2417  0.5132 -0.0839
   67MOL0    Cl 8954   3.608   0.357   4.183  0.6672 -0.8046  0.6368
   67MOL0     C 8955   2.790   1.014   4.757  0.2241  0.5540 -1.1119
   67MOL0     C 8956   2.677   1.089   4.787 -0.7013  0.3897 -0.0697
   67MOL0     O 8957   2.463   1.394   4.585  0.8625  0.5700 -0.6890
   67MOL0     C 8958   2.259   1.522   4.710 -0.1443  0.0944  0.2135
   67MOL0     C 8959   2.155   1.590   4.779 -0.5231  0.6971  0.7096
   67MOL0     N 8960   1.667   1.632   5.280 -0.0742 -0.0556 -0.2963
   67MOL0     N 8961   1.592   1.629   5.387  0.5270 -0.4170  1.0487
   67MOL0     C 8962   1.854   1.089   6.199 -0.9460 -0.3545 -0.0326
   67MOL0     C 8963   1.963   1.007   6.224 -0.8864 -0.9625  1.0265
   67MOL0     C 8964   2.106   0.549   6.222  0.2504  0.5322 -0.3616
   67MOL0     C 8965   2.243   0.536   6.243 -0.4006 -0.5177 -0.3215
   67MOL0     C 8966   2.302   0.410   6.286 -0.6354 -1.3145  0.6949
   67MOL0     C 8967   2.216   0.302   6.314  0.1710 -0.2081  0.6404
   67MOL0     O 8968   2.257   0.177   6.341  0.7565 -0.0414 -0.1643
   67MOL0     C 8969   2.392   0.137   6.355 -0.2076  0.4104 -0.8288
   67MOL0     C 8970   2.422   0.039   6.250 -0.6181  0.2614 -0.1053
   67MOL0     C 8971   2.467   0.110   6.126  0.4106 -1.1267 -0.2533
   67MOL0     C 8972   2.525   0.021   6.030  0.2228  0.1701  0.6634
   67MOL0     C 8973   2.649  -0.017   6.083 -0.5371 -0.4360  0.1904
   67MOL0     C 8974   2.762  -0.037   6.112  0.4138  1.2050  0.5063
   67MOL0     C 8975   2.089   0.312   6.280  0.9298 -1.2277 -1.0938
   67MOL0     C 8976   2.033   0.433   6.234 -0.7134 -0.0947  0.3687
   67MOL0     C 8977   1.895   0.419   6.185  0.4863 -0.3507  0.4268
   67MOL0     H 8978   1.820   0.734   6.359  3.5716 -0.4445 -0.8770
   67MOL0     H 8979   1.615   0.881   6.305  0.7179 -0.0338 -2.1570
   67MOL0     H 8980   1.636   1.270   6.367 -4.0075  0.7534  0.6647
   67MOL0     H 8981   1.727   1.301   6.212  0.7229 -1.1337 -1.1478
   67MOL0     H 8982   1.535   1.434   6.273 -3.5968  1.4760  1.2093
   67MOL0     H 8983   1.417   1.312   6.265  1.2536  2.8699  2.0659
   67MOL0     H 8984   1.461   1.255   6.043  1.4213 -1.4499 -0.6914
   67MOL0     H 8985   1.608   1.354   6.024 -0.7564 -2.6595 -1.3113
   67MOL0     H 8986   1.325   1.440   6.012  0.2077 -1.9327  0.4617
   67MOL0     H 8987   1.444   1.566   6.071 -1.0449  1.7170 -0.8716
   67MOL0     H 8988   1.468   1.400   5.798  0.6239  0.5297 -2.3461
   67MOL0     H 8989   1.384   1.558   5.817  2.1731  0.2588 -3.2651
   67MOL0     H 8990   1.594   1.661   5.889  0.8837  0.1389 -0.4478
   67MOL0     H 8991   1.670   1.507   5.919  1.0561  0.2240 -1.0910
   67MOL0     H 8992   1.617   1.472   5.652 -2.0830  0.2060  0.9341
   67MOL0     H 8993   1.758   1.576   5.723  0.3517  4.5112 -3.7175
   67MOL0     H 8994   1.484   1.668   5.615  0.1810 -1.0693 -0.0880
   67MOL0     H 8995   1.611   1.779   5.680 -2.4965  1.0462  0.2346
   67MOL0     H 8996   1.836   1.781   5.529  1.5029 -0.8135 -0.2471
   67MOL0     H 8997   1.973   1.791   5.327 -2.6464  2.4529  0.8033
   67MOL0     H 8998   1.953   1.654   5.219  0.8950 -0.2682  4.6952
   67MOL0     H 8999   1.825   1.930   5.194 -2.1810 -0.2713 -1.4427
   67MOL0     H 9000   1.994   1.898   5.134 -0.5010 -0.2383  0.9048
   67MOL0     H 9001   1.808   1.880   4.964  2.8513  2.1536  1.7191
   67MOL0     H 9002   1.762   1.725   5.037  1.2450 -1.4787  0.5336
   67MOL0     H 9003   2.041   1.807   4.932  0.4931 -0.4698 -2.1992
   67MOL0     H 9004   1.917   1.731   4.826  2.0886 -4.6222 -0.5408
   67MOL0     H 9005   2.137   1.387   5.048  1.9080 -0.5289 -1.0117
   67MOL0     H 9006   2.301   1.283   4.933 -0.3428 -0.9561 -0.3275
   67MOL0     H 9007   2.692   1.330   4.559  0.6697  1.8731  0.3536
   67MOL0     H 9008   2.905   1.199   4.503  0.9418 -3.3921 -0.7366
   67MOL0     H 9009   3.060   1.010   4.822 -0.7374  0.5022 -1.0441
   67MOL0     H 9010   3.024   0.842   4.772  0.9494  0.2975  0.0261
   67MOL0     H 9011   3.236   1.016   4.671 -4.7422  1.7300  1.9560
   67MOL0     H 9012   3.264   0.904   4.811  2.1911 -0.9159 -0.8449
   67MOL0     H 9013   3.184   0.710   4.668 -1.9900  0.8215 -1.3330
   67MOL0     H 9014   3.206   0.816   4.528  2.2535 -1.7662 -0.6123
   67MOL0     H 9015   3.423   0.731   4.716 -1.9404  0.8034  1.8474
   67MOL0     H 9016   3.435   0.855   4.586  0.2452 -1.8931 -1.8060
   67MOL0     H 9017   3.380   0.706   4.419  3.6125  1.2004 -1.0636
   67MOL0     H 9018   3.361   0.574   4.550  0.9764 -0.0694  2.2274
   67MOL0     H 9019   3.613   0.743   4.477 -2.2825 -0.3227 -5.0163
   67MOL0     H 9020   3.627   0.594   4.570 -0.4328  1.5243  0.4877
   67MOL0     H 9021   3.716   0.559   4.342 -0.8001 -0.3998 -0.3455
   67MOL0     H 9022   3.574   0.625   4.267 -0.4290  1.4165  0.4445
   67MOL0     H 9023   3.601   0.367   4.419 -0.0521 -2.4248 -1.8382
   67MOL0     H 9024   3.450   0.421   4.354 -0.0373  0.5364 -1.6179
   67MOL0     H 9025   2.810   0.925   4.816 -0.0915 -0.1024 -1.9790
   67MOL0     H 9026   2.619   1.049   4.870  4.3685 -1.0660  3.2063
   67MOL0     H 9027   2.292   1.559   4.613 -1.5530 -0.8226 -0.6487
   67MOL0     H 9028   2.122   1.673   4.718  2.5204 -1.1760 -4.1077
   67MOL0     H 9029   1.874   1.189   6.163  1.8491 -0.5496  0.7052
   67MOL0     H 9030   2.064   1.033   6.194 -0.6092 -2.1606  0.8330
   67MOL0     H 9031   2.306   0.621   6.218  2.2579 -2.2794 -0.0042
   67MOL0     H 9032   2.409   0.392   6.294 -0.5393 -1.9431 -1.4001
   67MOL0     H 9033   2.390   0.084   6.451  0.5708  1.2389 -0.3343
   67MOL0     H 9034   2.474   0.208   6.366  2.5948 -2.7509  0.2584
   67MOL0     H 9035   2.335  -0.024   6.237  0.6406 -1.3161 -1.3017
   67MOL0     H 9036   2.503  -0.022   6.292 -2.6332 -0.8889  2.4069
   67MOL0     H 9037   2.531   0.193   6.156 -1.4499 -0.2596  1.5845
   67MOL0     H 9038   2.381   0.163   6.083 -0.1112 -0.9803  0.9357
   67MOL0     H 9039   2.458  -0.058   5.995 -0.6635  1.4224 -0.6577
   67MOL0     H 9040   2.547   0.088   5.946  2.6615  0.7173  1.6675
   67MOL0     H 9041   2.869  -0.036   6.127  0.8344 -2.5311 -1.1051
   67MOL0     H 9042   2.030   0.221   6.281 -0.4831 -0.4297  2.1714
   67MOL0     H 9043   1.836   0.336   6.222 -0.8498 -0.3297 -1.5287
   67MOL0     H 9044   1.846   0.516   6.196  5.1958  2.6738 -1.8039
   67MOL0     H 9045   1.910   0.400   6.079  4.3330  1.4572  0.4515
   68MOL0     O 9046   1.660   5.915   3.324 -0.2806 -0.0562 -0.7126
   68MOL0     C 9047   1.619   5.993   3.413 -0.6661  0.7598  0.4035
   68MOL0     O 9048   1.664   6.115   3.430  0.0989 -0.1207 -0.1494
   68MOL0     C 9049   1.767   6.160   3.358 -0.6593 -1.0414  0.2247
   68MOL0     C 9050   1.748   6.206   3.227  0.6636  0.4437  0.1689
   68MOL0     C 9051   1.848   6.277   3.155  0.7389 -0.2257 -0.4611
   68MOL0     C 9052   1.978   6.301   3.216 -0.4150 -0.2258  0.0843
   68MOL0     O 9053   2.086   6.374   3.169 -0.6178  0.8742  0.0148
   68MOL0     C 9054   2.091   6.385   3.031 -0.6908 -0.3301  0.3891
   68MOL0     C 9055   2.237   6.339   2.981 -0.0756 -0.2876  0.5785
   68MOL0     C 9056   2.244   6.364   2.834 -0.6252 -0.5186  0.6463
   68MOL0     C 9057   2.388   6.380   2.791  0.1856 -0.0047  0.6272
   68MOL0     C 9058   2.404   6.480   2.670  0.2608  1.1596  0.3602
   68MOL0     C 9059   2.542   6.491   2.604  0.7226 -0.3469  0.2040
   68MOL0     C 9060   2.542   6.565   2.464 -0.7401  0.8399 -0.1100
   68MOL0     C 9061   2.542   6.717   2.477  0.2724 -0.1720  0.4735
   68MOL0     N 9062   2.533   6.787   2.348  0.1503  0.5386  0.0872
   68MOL0     C 9063   2.579   6.916   2.322 -1.6718 -0.2812  0.6564
   68MOL0     C 9064   2.517   6.963   2.210  0.1980  0.8298 -0.0938
   68MOL0     C 9065   2.560   7.094   2.154 -0.0733  0.9513 -0.1955
   68MOL0     C 9066   2.609   7.082   2.006  0.1915 -0.2969 -0.2180
   68MOL0     C 9067   2.746   7.022   1.996 -0.1698 -0.1541 -0.1527
   68MOL0     C 9068   2.754   6.872   2.023  0.1624 -0.4258 -0.2704
   68MOL0     O 9069   2.887   6.839   2.052 -0.2879  1.0299  0.3657
   68MOL0     C 9070   2.951   6.875   2.175  0.4862 -0.2387  0.8410
   68MOL0     C 9071   2.919   6.801   2.292 -0.6863  0.6747 -0.0023
   68MOL0     C 9072   2.977   6.835   2.415 -0.0037 -0.2612 -0.3730
   68MOL0     C 9073   3.073   6.942   2.419  0.2802  0.9123 -0.1735
   68MOL0     C 9074   3.148   6.957   2.548  0.1475 -0.3434  0.8551
   68MOL0     O 9075   3.099   6.893   2.660  0.7118  0.5583  0.0008
   68MOL0     C 9076   3.171   6.905   2.778 -0.2440 -0.9183 -0.5607
   68MOL0     C 9077   3.299   6.865   2.794  0.9079  0.1376 -0.2645
   68MOL0     C 9078   3.366   6.884   2.914  0.1671  0.3263 -0.0373
   68MOL0     C 9079   3.293   6.950   3.024  0.5816  1.0047  0.3169
   68MOL0     O 9080   3.350   6.961   3.153 -0.9047 -0.1042  0.6363
   68MOL0     C 9081   3.485   6.921   3.174 -0.4688  0.1268 -0.2273
   68MOL0     C 9082   3.484   6.768   3.182 -0.1701 -0.2613  0.7316
   68MOL0     C 9083   3.628   6.713   3.204 -0.0424  0.0330  0.5024
   68MOL0     C 9084   3.629   6.563   3.180  0.0637 -0.3117  0.8242
   68MOL0     C 9085   3.761   6.487   3.173 -1.0396 -0.0512 -0.6013
   68MOL0     C 9086   3.889   6.545   3.097 -0.0174  1.4073 -0.3647
   68MOL0     C 9087   3.858   6.549   2.943  0.0900  0.4728  0.5245
   68MOL0     C 9088   3.982   6.582   2.857  0.0742  0.3850 -0.0344
   68MOL0    Cl 9089   3.945   6.620   2.680  0.0588  1.0087  0.2878
   68MOL0     C 9090   3.162   6.978   3.009  0.0804  0.0026 -0.3816
   68MOL0     C 9091   3.102   6.965   2.887  0.5724 -0.4564  0.4422
   68MOL0     O 9092   3.259   7.012   2.542 -0.0123  0.3472 -0.1752
   68MOL0     C 9093   3.111   7.005   2.300 -0.5567  0.7138  0.8404
   68MOL0     C 9094   3.046   6.984   2.180  0.9241 -0.1152  0.2635
   68MOL0     N 9095   2.423   6.862   2.175 -0.1984  0.3439  0.5740
   68MOL0     N 9096   2.438   6.761   2.252  0.0406  0.0366  0.2002
   68MOL0     C 9097   1.994   6.244   3.352 -0.2024 -0.1197 -0.5539
   68MOL0     C 9098   1.891   6.169   3.420  0.1775 -0.1424 -1.1002
   68MOL0     C 9099   1.495   5.958   3.491  0.0924  0.8675 -0.7478
   68MOL0     C 9100   1.387   6.051   3.496  0.4827  0.4467 -0.8205
   68MOL0     C 9101   1.272   6.006   3.557  0.1707 -0.5343 -0.9863
   68MOL0     C 9102   1.253   5.871   3.604  0.2814 -0.6072 -0.2273
   68MOL0     O 9103   1.124   5.832   3.644  0.0800 -0.0105  0.2006
   68MOL0     C 9104   1.094   5.704   3.700 -1.2665 -0.7092 -0.1400
   68MOL0     C 9105   1.090   5.708   3.852  1.3650 -0.0476  0.7725
   68MOL0     C 9106   1.062   5.567   3.916 -0.0539  0.2141  0.8242
   68MOL0     C 9107   1.087   5.545   4.059  0.1617 -0.2645  1.1165
   68MOL0     C 9108   1.224   5.586   4.091 -0.5468  0.1420 -0.0873
   68MOL0     C 9109   1.339   5.630   4.116  0.5635  0.3115  0.9629
   68MOL0     C 9110   1.361   5.787   3.603  0.2622 -0.0912  0.1912
   68MOL0     C 9111   1.482   5.829   3.549  0.4221 -0.5258 -0.6275
   68MOL0     C 9112   1.588   5.721   3.522 -0.2363 -0.2899 -0.3740
   68MOL0     H 9113   1.652   6.194   3.178  1.0237 -2.3815 -0.0085
   68MOL0     H 9114   1.814   6.313   3.059 -0.1396 -2.0914 -0.8924
   68MOL0     H 9115   2.023   6.317   2.980 -0.0833 -1.9004  1.5875
   68MOL0     H 9116   2.073   6.489   3.001 -2.6669 -1.3720 -2.3405
   68MOL0     H 9117   2.250   6.231   2.985  2.0482 -0.2567 -2.0545
   68MOL0     H 9118   2.317   6.385   3.041 -0.9579  0.0086  1.5488
   68MOL0     H 9119   2.188   6.456   2.812  0.0874  0.9104  4.1269
   68MOL0     H 9120   2.206   6.276   2.781 -3.9761 -0.1165  2.0835
   68MOL0     H 9121   2.449   6.412   2.876 -1.7211 -1.2937  2.5948
   68MOL0     H 9122   2.436   6.287   2.759 -2.5972 -0.4425 -2.8311
   68MOL0     H 9123   2.340   6.453   2.586 -0.5265 -0.6919  1.5068
   68MOL0     H 9124   2.365   6.577   2.703  0.3732  0.9357  1.1862
   68MOL0     H 9125   2.620   6.535   2.667 -0.4324  2.0127  0.0699
   68MOL0     H 9126   2.586   6.393   2.583  2.0106  0.7568 -2.9727
   68MOL0     H 9127   2.453   6.539   2.406 -2.9893  0.9443  3.0285
   68MOL0     H 9128   2.641   6.544   2.422 -1.0331  0.3677 -0.5748
   68MOL0     H 9129   2.453   6.750   2.531 -0.1508 -0.6354  0.0637
   68MOL0     H 9130   2.626   6.761   2.532  0.6681  1.2758 -1.1869
   68MOL0     H 9131   2.639   6.975   2.391 -1.3805  0.4566 -0.2207
   68MOL0     H 9132   2.465   7.146   2.139  0.0019  1.0301 -0.3964
   68MOL0     H 9133   2.633   7.141   2.221  1.1652 -1.3995  0.2007
   68MOL0     H 9134   2.534   7.042   1.937  1.0126  1.2238 -2.0743
   68MOL0     H 9135   2.623   7.188   1.982  1.5236 -0.5542 -0.6596
   68MOL0     H 9136   2.798   7.076   2.075 -4.6428  5.1367 -0.2086
   68MOL0     H 9137   2.778   7.063   1.900  0.1232  3.0439  1.2121
   68MOL0     H 9138   2.729   6.808   1.938  2.6214 -4.0973  1.4558
   68MOL0     H 9139   2.697   6.838   2.111 -0.4303  0.4752 -0.2983
   68MOL0     H 9140   2.841   6.725   2.294 -2.3903  2.3651  2.0157
   68MOL0     H 9141   2.954   6.784   2.508 -0.0553 -0.2049 -0.3550
   68MOL0     H 9142   3.364   6.824   2.717  1.5908  2.9561 -1.3242
   68MOL0     H 9143   3.467   6.849   2.933 -0.5015 -2.2636 -0.8298
   68MOL0     H 9144   3.552   6.952   3.092  0.4582 -1.8732 -0.2845
   68MOL0     H 9145   3.520   6.956   3.271 -1.3665 -0.9363  0.4985
   68MOL0     H 9146   3.419   6.741   3.266 -1.5364 -3.2783 -1.0966
   68MOL0     H 9147   3.431   6.715   3.103  1.1777  1.9498 -1.8212
   68MOL0     H 9148   3.696   6.760   3.133 -1.3870  0.1656 -0.7289
   68MOL0     H 9149   3.660   6.764   3.296  1.8869  3.3479 -1.7855
   68MOL0     H 9150   3.579   6.542   3.084 -0.4867 -0.4114  1.1294
   68MOL0     H 9151   3.558   6.509   3.243 -0.8502 -2.6893 -2.0146
   68MOL0     H 9152   3.758   6.382   3.145  0.7786 -0.8358  1.8264
   68MOL0     H 9153   3.787   6.474   3.278 -0.2673  3.9645 -0.1232
   68MOL0     H 9154   3.919   6.644   3.132  1.0831  0.9633  0.0190
   68MOL0     H 9155   3.972   6.480   3.126 -0.6501  0.3043 -0.9576
   68MOL0     H 9156   3.784   6.625   2.916 -1.0146 -1.3507 -1.9798
   68MOL0     H 9157   3.808   6.456   2.917 -1.6974  1.7055 -0.6952
   68MOL0     H 9158   4.024   6.674   2.898  1.2875  1.3497 -3.1635
   68MOL0     H 9159   4.053   6.500   2.869  2.1191  2.2903  1.7397
   68MOL0     H 9160   3.104   7.018   3.091  0.1101  0.7203 -0.7104
   68MOL0     H 9161   3.007   7.016   2.875  1.4148  2.4602  4.2339
   68MOL0     H 9162   3.178   7.089   2.310 -0.6651  1.1408 -1.3895
   68MOL0     H 9163   3.075   7.043   2.093 -4.4322 -0.7819 -2.3871
   68MOL0     H 9164   2.085   6.264   3.408  0.2192  1.7328 -1.8267
   68MOL0     H 9165   1.919   6.114   3.509  0.8083 -1.1991 -1.9189
   68MOL0     H 9166   1.399   6.148   3.448  0.8901  1.4619  1.1920
   68MOL0     H 9167   1.183   6.067   3.569  0.7918  0.2546 -0.2471
   68MOL0     H 9168   1.164   5.623   3.678 -2.1337 -2.2158  2.2084
   68MOL0     H 9169   0.993   5.679   3.668 -1.8520  1.7376 -0.4456
   68MOL0     H 9170   1.016   5.778   3.890  0.9549 -0.0109 -0.0724
   68MOL0     H 9171   1.190   5.744   3.879  1.3769  0.1118  0.5192
   68MOL0     H 9172   1.102   5.479   3.864  1.7712  1.0504  0.7362
   68MOL0     H 9173   0.953   5.567   3.906 -0.0933 -0.0944  1.2595
   68MOL0     H 9174   1.019   5.620   4.099  0.8827  1.5892 -0.9535
   68MOL0     H 9175   1.061   5.439   4.067  1.0666 -0.7993 -1.7787
   68MOL0     H 9176   1.435   5.673   4.129  0.6787  0.8635 -1.2809
   68MOL0     H 9177   1.350   5.684   3.635  0.3244  0.3448  1.6961
   68MOL0     H 9178   1.603   5.708   3.415  0.5122 -1.3335 -0.1609
   68MOL0     H 9179   1.686   5.753   3.559 -0.1142 -0.9832 -0.0651
   68MOL0     H 9180   1.564   5.619   3.557  0.3183 -0.3572 -0.1813
   69MOL0     O 9181  10.964   0.687   3.165  0.5230 -0.3764 -0.4282
   69MOL0     C 9182  11.002   0.600   3.239  0.2665  1.3200 -0.0427
   69MOL0     O 9183  11.119   0.596   3.320  0.2766  0.4760 -0.0637
   69MOL0     C 9184  11.196   0.705   3.339 -0.6815  0.3632 -0.3499
   69MOL0     C 9185  11.324   0.673   3.385 -0.1996 -0.4929 -1.1821
   69MOL0     C 9186  11.415   0.767   3.418  0.3596  0.8673 -0.0771
   69MOL0     C 9187  11.377   0.896   3.412 -0.2067 -1.2187  0.2288
   69MOL0     O 9188  11.485   0.977   3.447  0.3215 -0.6501 -0.2880
   69MOL0     C 9189  11.472   1.112   3.490  0.3009  0.4304 -0.0486
   69MOL0     C 9190  11.372   1.146   3.608  0.7035  0.0671  1.1066
   69MOL0     C 9191  11.380   1.053   3.733 -0.4217  0.0482 -0.0307
   69MOL0     C 9192  11.254   1.045   3.818  0.1067  0.2454  0.0657
   69MOL0     C 9193  11.278   0.936   3.913  0.3383  1.1416 -0.2382
   69MOL0     C 9194  11.170   0.934   4.017 -0.4493  0.7097 -0.6140
   69MOL0     C 9195  11.212   0.846   4.136  0.3341 -0.0688  0.1027
   69MOL0     C 9196  11.175   0.695   4.098 -0.5745  1.0946 -0.4605
   69MOL0     N 9197  11.036   0.661   4.100  0.3755 -0.4843  0.7933
   69MOL0     C 9198  10.984   0.564   4.021 -0.4374 -1.4539  0.7590
   69MOL0     C 9199  10.863   0.537   4.076  0.3549 -0.8081  1.0081
   69MOL0     C 9200  10.764   0.430   4.022  0.4232 -0.8131 -0.4318
   69MOL0     C 9201  10.774   0.285   4.092  0.8207  0.2397 -0.9605
   69MOL0     C 9202  10.908   0.218   4.058 -0.3361  0.9918  0.0530
   69MOL0     C 9203  10.921   0.080   4.108  0.4598 -0.4222  0.0887
   69MOL0     O 9204  10.901   0.074   4.249  0.1335 -0.2432  0.0047
   69MOL0     C 9205  10.886  -0.049   4.305 -0.7276 -0.9596 -0.0072
   69MOL0     C 9206  10.984  -0.149   4.290 -0.0078  0.3730  0.1575
   69MOL0     C 9207  10.966  -0.271   4.344 -0.3201  1.1618  0.6355
   69MOL0     C 9208  10.864  -0.297   4.440  0.3983 -0.2133  0.3794
   69MOL0     C 9209  10.870  -0.427   4.520 -0.2161 -0.4238  0.8853
   69MOL0     O 9210  10.993  -0.481   4.559 -0.2037  0.2867  0.0924
   69MOL0     C 9211  10.996  -0.608   4.610 -0.4515 -0.5666 -0.0480
   69MOL0     C 9212  10.919  -0.714   4.567 -0.7012  1.7784  1.1090
   69MOL0     C 9213  10.933  -0.839   4.621 -0.1237  0.5003  0.1857
   69MOL0     C 9214  11.022  -0.858   4.723  0.4254  0.2581 -0.1789
   69MOL0     O 9215  11.055  -0.976   4.765 -0.0199 -0.0035 -0.3509
   69MOL0     C 9216  11.185  -1.024   4.728 -0.2375 -0.0442  0.4416
   69MOL0     C 9217  11.201  -1.055   4.579 -0.6998  0.4740  0.4769
   69MOL0     C 9218  11.239  -1.203   4.544  0.8761 -0.4074 -0.2503
   69MOL0     C 9219  11.393  -1.217   4.571  0.1997 -0.9369  0.2073
   69MOL0     C 9220  11.447  -1.361   4.521 -0.0737  0.0631  0.2237
   69MOL0     C 9221  11.432  -1.397   4.376  0.1475  0.2390  0.2179
   69MOL0     C 9222  11.487  -1.285   4.285  0.7122  0.0495 -0.2196
   69MOL0     C 9223  11.481  -1.318   4.138  0.4883 -0.1993  0.8771
   69MOL0    Cl 9224  11.303  -1.293   4.085  0.1988 -0.0506 -0.2084
   69MOL0     C 9225  11.103  -0.752   4.773  0.0525  0.5461  0.3426
   69MOL0     C 9226  11.080  -0.629   4.718 -0.0100 -1.0887  0.1951
   69MOL0     O 9227  10.759  -0.465   4.559 -0.1467  0.0831 -0.0950
   69MOL0     C 9228  10.776  -0.193   4.463 -0.0418  0.0244 -0.4902
   69MOL0     C 9229  10.789  -0.067   4.404 -1.5823 -0.1230  0.1574
   69MOL0     N 9230  10.836   0.633   4.172 -0.8926 -0.2214 -0.2884
   69MOL0     N 9231  10.944   0.709   4.182  0.1163  0.4826 -0.4133
   69MOL0     C 9232  11.254   0.946   3.368  0.4153 -0.0026  1.2560
   69MOL0     C 9233  11.161   0.841   3.327  0.2746 -0.1376  0.9312
   69MOL0     C 9234  10.929   0.462   3.221  0.8157 -0.3791 -0.1035
   69MOL0     C 9235  11.006   0.348   3.251 -0.6862 -0.5759  0.2081
   69MOL0     C 9236  10.946   0.226   3.240 -1.1524 -0.0273 -0.3436
   69MOL0     C 9237  10.814   0.213   3.200 -0.1222  0.8891 -0.2751
   69MOL0     O 9238  10.761   0.087   3.180  0.2082 -0.4294  0.3968
   69MOL0     C 9239  10.692   0.047   3.298 -0.2045 -0.1164  0.5761
   69MOL0     C 9240  10.551   0.004   3.234 -0.4102 -0.8657  0.4666
   69MOL0     C 9241  10.445   0.010   3.347 -0.3008  0.1008  1.3312
   69MOL0     C 9242  10.325  -0.067   3.309 -0.9651  0.2063 -0.4947
   69MOL0     C 9243  10.366  -0.211   3.283 -0.5051 -0.2156 -0.2807
   69MOL0     C 9244  10.403  -0.323   3.274  0.7486  0.6951  0.6646
   69MOL0     C 9245  10.733   0.322   3.176 -0.0836  0.3961  0.1222
   69MOL0     C 9246  10.792   0.448   3.181  0.1621 -0.3245 -0.9206
   69MOL0     C 9247  10.704   0.562   3.140  0.3160 -0.7565 -0.1430
   69MOL0     H 9248  11.350   0.570   3.408  2.6601  0.2324 -0.7681
   69MOL0     H 9249  11.516   0.748   3.453  0.5872  0.5193 -0.9057
   69MOL0     H 9250  11.575   1.128   3.523  0.5447 -1.5681  0.2589
   69MOL0     H 9251  11.458   1.171   3.399  1.4059  1.5172  0.4643
   69MOL0     H 9252  11.271   1.141   3.566  1.1291 -0.8647  0.1506
   69MOL0     H 9253  11.396   1.249   3.634  2.0040  0.6057 -1.8766
   69MOL0     H 9254  11.461   1.083   3.800 -2.2899  1.7499  1.6348
   69MOL0     H 9255  11.411   0.956   3.694 -1.5965  0.3025 -1.6803
   69MOL0     H 9256  11.242   1.131   3.885  0.2439 -0.7795  1.4457
   69MOL0     H 9257  11.163   1.034   3.758  0.8327  1.6098 -1.3742
   69MOL0     H 9258  11.288   0.845   3.853 -0.9418  0.6331  0.2881
   69MOL0     H 9259  11.374   0.947   3.965 -0.2695 -2.1047  1.8497
   69MOL0     H 9260  11.152   1.039   4.044  2.1426  2.4638 -4.7341
   69MOL0     H 9261  11.074   0.893   3.985 -1.4415  1.0049  1.7795
   69MOL0     H 9262  11.156   0.887   4.219  3.7587 -0.8315  3.0599
   69MOL0     H 9263  11.318   0.859   4.158  0.8533  0.1609 -2.2057
   69MOL0     H 9264  11.235   0.671   4.010  4.8727 -2.3972  3.5209
   69MOL0     H 9265  11.225   0.622   4.163  0.1620  0.2748 -1.8877
   69MOL0     H 9266  11.042   0.511   3.946  1.0455  1.1287 -0.0345
   69MOL0     H 9267  10.668   0.477   4.043  0.4803 -1.0709  0.4340
   69MOL0     H 9268  10.771   0.411   3.914 -0.3061 -1.1452 -0.4224
   69MOL0     H 9269  10.765   0.289   4.201  2.5884 -1.4344 -0.6972
   69MOL0     H 9270  10.685   0.230   4.058 -0.5093  0.8628  1.3404
   69MOL0     H 9271  10.984   0.286   4.098  1.4816 -0.8884 -0.0983
   69MOL0     H 9272  10.919   0.204   3.950 -0.7022 -1.4412  0.2688
   69MOL0     H 9273  11.019   0.033   4.095  1.3501  1.4025 -0.0618
   69MOL0     H 9274  10.840   0.027   4.056  2.2243 -1.3531 -1.8422
   69MOL0     H 9275  11.057  -0.131   4.212 -3.0505  3.2136 -2.3342
   69MOL0     H 9276  11.042  -0.343   4.317 -0.1742  0.7165  2.1466
   69MOL0     H 9277  10.854  -0.700   4.481  0.2156 -2.7227 -0.6010
   69MOL0     H 9278  10.882  -0.923   4.575  1.5782 -0.7898  0.5633
   69MOL0     H 9279  11.265  -0.964   4.771 -1.2257  0.2674  1.9010
   69MOL0     H 9280  11.187  -1.120   4.781  0.6174 -0.5836 -0.5293
   69MOL0     H 9281  11.104  -1.052   4.528  0.5378 -0.4445 -2.0975
   69MOL0     H 9282  11.263  -0.978   4.533 -2.1512 -0.1144 -2.7633
   69MOL0     H 9283  11.182  -1.275   4.604  0.8521  1.1644  1.7526
   69MOL0     H 9284  11.211  -1.237   4.444  0.3402  0.0698 -0.2660
   69MOL0     H 9285  11.401  -1.207   4.680 -3.6982 -0.0073  0.5454
   69MOL0     H 9286  11.452  -1.137   4.526 -1.9413  0.7706  0.2805
   69MOL0     H 9287  11.391  -1.439   4.573 -1.0387  0.4479 -0.2094
   69MOL0     H 9288  11.552  -1.368   4.548  1.1636  0.8024 -3.7642
   69MOL0     H 9289  11.489  -1.486   4.351 -1.6828 -0.6911 -0.8820
   69MOL0     H 9290  11.328  -1.418   4.350 -0.0323  1.1173  0.1883
   69MOL0     H 9291  11.594  -1.276   4.307  0.5586  1.6420  0.0332
   69MOL0     H 9292  11.438  -1.188   4.302  1.7677  0.4135  0.9927
   69MOL0     H 9293  11.545  -1.249   4.082  0.8360 -0.2127  1.2483
   69MOL0     H 9294  11.517  -1.419   4.118 -1.2845 -0.5766 -0.6175
   69MOL0     H 9295  11.177  -0.759   4.852  0.5098 -0.1925 -0.1270
   69MOL0     H 9296  11.138  -0.546   4.759 -2.3556  0.4932  0.5510
   69MOL0     H 9297  10.700  -0.195   4.541  0.0466  1.6657 -0.3118
   69MOL0     H 9298  10.735   0.019   4.442 -0.6235  0.3291  0.5305
   69MOL0     H 9299  11.225   1.049   3.356 -1.0118 -0.4199  0.8620
   69MOL0     H 9300  11.058   0.865   3.300 -0.2901 -2.2491  1.0351
   69MOL0     H 9301  11.108   0.345   3.288 -0.6944  3.0657  0.8780
   69MOL0     H 9302  11.004   0.143   3.278 -1.1353  0.7485  1.4269
   69MOL0     H 9303  10.677   0.126   3.373  0.7340  0.2486  0.3910
   69MOL0     H 9304  10.740  -0.042   3.340  0.2331  0.5951  1.6314
   69MOL0     H 9305  10.569  -0.089   3.178  1.0927  0.1022 -0.7427
   69MOL0     H 9306  10.523   0.086   3.167  3.8398  0.0780 -0.4534
   69MOL0     H 9307  10.411   0.113   3.366 -4.4980 -0.5324 -1.2918
   69MOL0     H 9308  10.476  -0.037   3.441 -0.6060 -1.6182  0.6061
   69MOL0     H 9309  10.254  -0.068   3.393  2.3085  1.3565  2.5566
   69MOL0     H 9310  10.287  -0.022   3.217  0.3383  0.3809 -0.9700
   69MOL0     H 9311  10.437  -0.422   3.256 -0.5017  0.5359 -1.2209
   69MOL0     H 9312  10.630   0.308   3.144  0.3837  2.0666 -2.4733
   69MOL0     H 9313  10.695   0.612   3.237  0.5481 -0.5054 -0.2479
   69MOL0     H 9314  10.740   0.625   3.058  1.9364 -2.6181 -0.9423
   69MOL0     H 9315  10.610   0.525   3.100 -0.1658 -0.5502  0.7590
   70MOL0     O 9316   0.899  10.886   6.032  0.0439 -0.2893 -0.2111
   70MOL0     C 9317   0.929  10.768   6.003 -0.7920  0.8427 -0.6681
   70MOL0     O 9318   0.843  10.665   5.986 -0.3037  0.6448  0.1438
   70MOL0     C 9319   0.706  10.672   5.980 -1.3343  0.2257  0.5708
   70MOL0     C 9320   0.644  10.573   5.905 -0.4377 -0.5546  0.4623
   70MOL0     C 9321   0.507  10.585   5.879 -0.2050 -0.8877  0.3672
   70MOL0     C 9322   0.430  10.685   5.934 -0.1389 -0.9206 -1.2377
   70MOL0     O 9323   0.301  10.701   5.906  0.6406 -0.0108 -0.8469
   70MOL0     C 9324   0.216  10.666   6.013 -0.5309 -0.4967 -0.7560
   70MOL0     C 9325   0.089  10.587   5.948 -1.8897 -0.6705 -0.3646
   70MOL0     C 9326   0.043  10.630   5.804 -0.0195  0.4239  0.2247
   70MOL0     C 9327  -0.111  10.585   5.782 -0.8050 -1.1463 -0.6471
   70MOL0     C 9328  -0.212  10.699   5.792  0.3958 -0.2153 -0.3453
   70MOL0     C 9329  -0.357  10.657   5.774  0.5477 -0.2591 -0.3648
   70MOL0     C 9330  -0.373  10.613   5.625 -1.2891  0.4844  0.5397
   70MOL0     C 9331  -0.521  10.562   5.604 -0.4334 -0.8419 -0.3694
   70MOL0     N 9332  -0.529  10.545   5.463  0.1581  0.4137  0.5835
   70MOL0     C 9333  -0.546  10.642   5.370  0.2818 -0.0595  0.2653
   70MOL0     C 9334  -0.564  10.581   5.252 -0.2093  0.9719 -0.8660
   70MOL0     C 9335  -0.584  10.644   5.119 -0.1680  0.0365 -0.5501
   70MOL0     C 9336  -0.711  10.722   5.119 -0.7972  0.4165 -0.2077
   70MOL0     C 9337  -0.733  10.804   4.991 -0.5103 -0.1662 -0.5149
   70MOL0     C 9338  -0.645  10.932   4.981 -0.0899 -0.2653  0.2344
   70MOL0     O 9339  -0.677  11.021   5.085  0.1999 -0.3636  0.9327
   70MOL0     C 9340  -0.591  11.120   5.113 -0.6534  0.3382  0.8340
   70MOL0     C 9341  -0.627  11.199   5.233 -0.6508 -0.4864  0.7757
   70MOL0     C 9342  -0.530  11.296   5.273 -0.3794 -0.1593  0.3476
   70MOL0     C 9343  -0.427  11.349   5.196 -0.3273  1.1625 -0.4021
   70MOL0     C 9344  -0.337  11.453   5.244  0.1886  0.8409  0.1007
   70MOL0     O 9345  -0.378  11.517   5.358 -0.8310 -0.0500  0.1001
   70MOL0     C 9346  -0.303  11.614   5.407  0.3368 -0.3454 -0.6644
   70MOL0     C 9347  -0.296  11.745   5.352  0.0862 -1.2118 -0.2592
   70MOL0     C 9348  -0.214  11.839   5.394  0.1879 -0.8170 -0.7315
   70MOL0     C 9349  -0.126  11.808   5.496 -0.2331 -0.3659  0.1708
   70MOL0     O 9350  -0.060  11.920   5.551  0.1996 -0.9881 -0.0571
   70MOL0     C 9351  -0.084  11.967   5.684 -0.3735 -0.5866  0.1900
   70MOL0     C 9352   0.051  11.961   5.748 -0.4879 -1.6621 -0.2165
   70MOL0     C 9353   0.054  12.042   5.886  0.2108  0.1006  0.2298
   70MOL0     C 9354   0.203  12.040   5.947  1.0516 -0.2943 -0.9099
   70MOL0     C 9355   0.238  12.145   6.059 -0.1854 -0.0190  0.8632
   70MOL0     C 9356   0.231  12.081   6.196 -0.1816  0.9443  0.8278
   70MOL0     C 9357   0.293  12.172   6.293 -0.1707 -0.5366 -0.0220
   70MOL0     C 9358   0.293  12.105   6.422 -0.0149  0.2981 -0.5213
   70MOL0    Cl 9359   0.407  11.967   6.438  0.3520 -0.0921 -0.0535
   70MOL0     C 9360  -0.134  11.691   5.556 -0.6564  1.1723 -0.0822
   70MOL0     C 9361  -0.223  11.591   5.515  1.6888  0.1307 -0.7574
   70MOL0     O 9362  -0.239  11.477   5.179  0.2453  0.3745  1.1520
   70MOL0     C 9363  -0.404  11.275   5.079  1.1799 -0.2868  0.1937
   70MOL0     C 9364  -0.484  11.169   5.030 -0.6441  0.7781  0.2368
   70MOL0     N 9365  -0.545  10.446   5.278 -0.6431  0.0501  0.7636
   70MOL0     N 9366  -0.535  10.425   5.402  0.5316  0.7457  0.3496
   70MOL0     C 9367   0.486  10.773   6.028 -1.2033 -0.1272  0.3207
   70MOL0     C 9368   0.627  10.769   6.049  0.5623 -0.5866  0.6543
   70MOL0     C 9369   1.069  10.735   5.975  0.5746  0.9452 -0.4761
   70MOL0     C 9370   1.098  10.597   5.964 -0.5701 -0.1164 -0.3699
   70MOL0     C 9371   1.226  10.554   5.925 -0.2121 -0.3280  0.7340
   70MOL0     C 9372   1.320  10.646   5.889  0.4798  0.9242 -0.1390
   70MOL0     O 9373   1.440  10.594   5.854  0.2239 -0.2822 -0.0413
   70MOL0     C 9374   1.520  10.670   5.753 -0.2365  0.6999  0.8363
   70MOL0     C 9375   1.621  10.572   5.689  0.2787  0.6832 -0.2052
   70MOL0     C 9376   1.556  10.436   5.647 -0.3410  0.2777 -0.4898
   70MOL0     C 9377   1.634  10.367   5.525  0.1220  0.3864  0.0607
   70MOL0     C 9378   1.581  10.235   5.513  0.0860 -0.5895 -0.3467
   70MOL0     C 9379   1.531  10.131   5.486  0.7722  0.8829 -0.2853
   70MOL0     C 9380   1.298  10.775   5.889 -0.4143 -1.0981  0.4019
   70MOL0     C 9381   1.179  10.820   5.942 -0.1248 -0.5399 -0.1144
   70MOL0     C 9382   1.162  10.970   5.934 -0.4969 -0.8040  0.2578
   70MOL0     H 9383   0.704  10.497   5.857  0.9770  1.2290 -0.6949
   70MOL0     H 9384   0.456  10.521   5.808  2.3486  0.0131 -2.4906
   70MOL0     H 9385   0.260  10.603   6.091  0.9982  1.1090 -0.2570
   70MOL0     H 9386   0.176  10.755   6.063 -2.0779 -2.0011  0.8742
   70MOL0     H 9387   0.005  10.604   6.016 -1.3007  0.0932  0.2050
   70MOL0     H 9388   0.105  10.478   5.952 -1.8498 -0.6481  0.3023
   70MOL0     H 9389   0.109  10.582   5.731 -0.1911  1.0042 -0.3241
   70MOL0     H 9390   0.067  10.735   5.783  1.7891  0.0182  0.0913
   70MOL0     H 9391  -0.113  10.544   5.681  0.1878 -0.5036 -0.9432
   70MOL0     H 9392  -0.128  10.500   5.849 -0.3101 -1.2910 -0.6945
   70MOL0     H 9393  -0.199  10.746   5.890  0.8886 -2.6209  0.8274
   70MOL0     H 9394  -0.190  10.768   5.710 -2.2296 -0.8497 -1.7036
   70MOL0     H 9395  -0.380  10.583   5.852 -1.7770  1.2064  0.4350
   70MOL0     H 9396  -0.424  10.740   5.795  0.3686 -0.1379 -1.3750
   70MOL0     H 9397  -0.309  10.531   5.593 -0.8387  2.0069 -2.8995
   70MOL0     H 9398  -0.363  10.699   5.559  0.9352 -1.5068 -1.9214
   70MOL0     H 9399  -0.544  10.471   5.660 -2.7875 -0.7640 -1.1138
   70MOL0     H 9400  -0.592  10.641   5.630 -1.1462 -1.3497 -0.7491
   70MOL0     H 9401  -0.545  10.749   5.391  1.4708 -0.0782  0.3695
   70MOL0     H 9402  -0.495  10.703   5.095 -0.4095  2.4618  3.5273
   70MOL0     H 9403  -0.594  10.570   5.039  1.9081  1.8641 -2.6505
   70MOL0     H 9404  -0.783  10.640   5.116 -0.4886 -0.0475  2.4260
   70MOL0     H 9405  -0.727  10.757   5.222  1.8817 -1.6868  1.0519
   70MOL0     H 9406  -0.837  10.840   4.992 -1.0978 -1.7139  1.9484
   70MOL0     H 9407  -0.729  10.737   4.904 -4.3202 -3.3365  1.4106
   70MOL0     H 9408  -0.660  10.983   4.885  1.0560 -0.9629 -0.3408
   70MOL0     H 9409  -0.538  10.909   4.984 -0.2720 -1.0328  1.3677
   70MOL0     H 9410  -0.703  11.166   5.303  0.8153 -2.2270  1.6336
   70MOL0     H 9411  -0.547  11.347   5.367 -1.5600 -1.4589  0.8868
   70MOL0     H 9412  -0.358  11.761   5.265  0.7924  0.3451 -0.5145
   70MOL0     H 9413  -0.202  11.938   5.351  0.3478 -1.7205 -2.8746
   70MOL0     H 9414  -0.119  12.070   5.682 -1.4718 -0.9505 -1.7980
   70MOL0     H 9415  -0.156  11.903   5.735 -1.6602  0.1508 -0.6502
   70MOL0     H 9416   0.074  11.857   5.773 -0.6452 -1.3664  1.2470
   70MOL0     H 9417   0.107  12.011   5.668 -3.3546 -0.8976 -1.8872
   70MOL0     H 9418   0.014  12.142   5.869 -4.4473 -1.1873  2.1420
   70MOL0     H 9419  -0.021  11.999   5.954 -1.9574  0.7704 -1.6252
   70MOL0     H 9420   0.267  12.073   5.865  2.6146  2.9847  1.4074
   70MOL0     H 9421   0.223  11.937   5.978 -1.4589 -0.7494 -0.5969
   70MOL0     H 9422   0.177  12.236   6.060  0.3552  0.3721  2.3871
   70MOL0     H 9423   0.343  12.177   6.056 -0.1629  0.0467  1.8986
   70MOL0     H 9424   0.125  12.070   6.219 -0.7774 -0.8146 -2.2694
   70MOL0     H 9425   0.277  11.982   6.198 -1.8354  0.0994  3.9358
   70MOL0     H 9426   0.243  12.268   6.311 -1.4397 -1.5623  2.3472
   70MOL0     H 9427   0.392  12.198   6.253  0.4208 -1.4834  0.7788
   70MOL0     H 9428   0.328  12.185   6.488  0.9140 -0.6020  0.0964
   70MOL0     H 9429   0.198  12.077   6.468 -0.6909  3.3835  0.1688
   70MOL0     H 9430  -0.066  11.669   5.638 -0.2994  0.0416 -0.6533
   70MOL0     H 9431  -0.224  11.498   5.571  2.5141  0.9238  0.6311
   70MOL0     H 9432  -0.323  11.315   5.018  1.8965 -2.2512 -0.2173
   70MOL0     H 9433  -0.449  11.118   4.941  0.0314 -0.4540  1.1632
   70MOL0     H 9434   0.421  10.848   6.072  0.2193  1.5614 -0.3542
   70MOL0     H 9435   0.671  10.829   6.128  1.3403  1.6946 -1.3795
   70MOL0     H 9436   1.037  10.514   5.998  0.0168 -0.6330 -0.5572
   70MOL0     H 9437   1.256  10.450   5.929 -0.9339 -0.5323  1.0991
   70MOL0     H 9438   1.577  10.748   5.804  1.2308 -1.3141  2.4645
   70MOL0     H 9439   1.462  10.710   5.669 -0.9499 -0.5456  0.7159
   70MOL0     H 9440   1.698  10.555   5.765 -0.1996 -0.0083  0.1374
   70MOL0     H 9441   1.674  10.610   5.601 -2.6193  0.6712 -2.0934
   70MOL0     H 9442   1.452  10.462   5.625 -1.0241 -1.0984  0.8565
   70MOL0     H 9443   1.560  10.355   5.721  2.8063 -1.1398 -2.0230
   70MOL0     H 9444   1.622  10.422   5.431 -0.5230 -2.8468 -1.9140
   70MOL0     H 9445   1.742  10.360   5.539  0.1686 -0.7221 -0.7460
   70MOL0     H 9446   1.511  10.033   5.446  0.4176  0.8749 -0.0888
   70MOL0     H 9447   1.377  10.843   5.858  0.3743 -3.1598 -2.5647
   70MOL0     H 9448   1.142  11.006   6.035  0.0703  0.0765  0.0637
   70MOL0     H 9449   1.251  11.011   5.885 -2.5357 -0.0061 -3.0149
   70MOL0     H 9450   1.073  10.997   5.877 -1.4593  2.2784  2.9092
   71MOL0     O 9451   3.401   6.669   3.937  0.0093 -0.2457 -0.3494
   71MOL0     C 9452   3.355   6.712   4.038  0.6980 -0.3394 -0.5340
   71MOL0     O 9453   3.415   6.708   4.159 -0.9813 -0.0798 -0.2442
   71MOL0     C 9454   3.533   6.639   4.176  0.1335 -0.4646 -0.8634
   71MOL0     C 9455   3.660   6.700   4.171 -0.1401  0.4101 -0.9055
   71MOL0     C 9456   3.775   6.620   4.194 -0.8944  0.4209  0.3474
   71MOL0     C 9457   3.760   6.476   4.220 -0.6475  0.4660 -0.2129
   71MOL0     O 9458   3.867   6.384   4.253 -0.2425 -0.1461 -0.6931
   71MOL0     C 9459   3.992   6.405   4.188  0.7902  0.1578  0.9006
   71MOL0     C 9460   3.997   6.385   4.033  0.0762 -0.0584 -0.1413
   71MOL0     C 9461   4.141   6.425   3.966 -0.2873  0.3048  0.1709
   71MOL0     C 9462   4.263   6.336   3.992  0.7059  0.3661  0.1575
   71MOL0     C 9463   4.356   6.333   3.868 -0.1502  0.5295 -0.5274
   71MOL0     C 9464   4.468   6.228   3.889 -0.4029  0.4397  0.5533
   71MOL0     C 9465   4.561   6.228   3.771  0.2599 -0.4383  0.1821
   71MOL0     C 9466   4.635   6.363   3.761  0.1735 -0.1820 -0.6957
   71MOL0     N 9467   4.762   6.355   3.695 -0.1672 -0.6544  0.1563
   71MOL0     C 9468   4.784   6.303   3.570  0.2755 -0.1509  0.2900
   71MOL0     C 9469   4.897   6.357   3.516 -0.8615  0.3059  0.7442
   71MOL0     C 9470   4.964   6.326   3.380  0.1215 -0.5447 -0.1647
   71MOL0     C 9471   5.009   6.453   3.309 -0.0720  0.4681 -0.7669
   71MOL0     C 9472   4.890   6.544   3.275 -0.0223 -0.3120 -0.2805
   71MOL0     C 9473   4.930   6.670   3.200  0.0160 -0.7549 -0.8999
   71MOL0     O 9474   4.940   6.651   3.058  0.0429  0.0849  0.5784
   71MOL0     C 9475   5.002   6.739   2.974  0.1654  0.6567  0.7525
   71MOL0     C 9476   5.039   6.692   2.845 -0.6853  0.2733 -0.6050
   71MOL0     C 9477   5.109   6.770   2.754  0.1865  0.6753 -0.1080
   71MOL0     C 9478   5.147   6.901   2.787 -0.1162  0.5631 -0.2292
   71MOL0     C 9479   5.221   6.981   2.684  0.3064 -1.6942  0.5173
   71MOL0     O 9480   5.277   6.927   2.573 -0.4083 -0.5163 -0.6963
   71MOL0     C 9481   5.348   7.001   2.479  0.2442 -0.3281 -0.0401
   71MOL0     C 9482   5.288   7.051   2.362 -1.4174 -0.4959 -0.3946
   71MOL0     C 9483   5.361   7.122   2.262  1.2505  0.6163 -0.7875
   71MOL0     C 9484   5.493   7.158   2.285  0.5343  0.6081 -0.9506
   71MOL0     O 9485   5.565   7.202   2.180  0.1621  0.0903  0.0600
   71MOL0     C 9486   5.708   7.232   2.178  0.1028  0.9927  0.4660
   71MOL0     C 9487   5.774   7.188   2.042  0.4071 -1.0353  0.6031
   71MOL0     C 9488   5.806   7.031   2.039  0.1538 -0.6946 -0.2595
   71MOL0     C 9489   5.869   6.972   1.910  0.2296 -0.8564 -0.0288
   71MOL0     C 9490   5.980   7.047   1.838  0.2390 -0.5928 -0.9550
   71MOL0     C 9491   6.112   7.028   1.920 -0.6869 -0.2894 -0.9345
   71MOL0     C 9492   6.211   7.130   1.892  0.0424 -1.1624 -0.4161
   71MOL0     C 9493   6.344   7.071   1.952 -1.2508  0.3193  0.2047
   71MOL0    Cl 9494   6.471   7.190   1.964 -0.2044 -0.1814  0.1487
   71MOL0     C 9495   5.553   7.108   2.404 -0.0435  0.5269  0.0643
   71MOL0     C 9496   5.480   7.029   2.499  0.6179 -0.7954 -0.1717
   71MOL0     O 9497   5.212   7.104   2.697 -0.1779  0.0121 -0.4071
   71MOL0     C 9498   5.103   6.953   2.917  0.2238  0.1165  0.7863
   71MOL0     C 9499   5.029   6.877   3.008 -0.4990 -0.1054 -0.4592
   71MOL0     N 9500   4.952   6.437   3.615 -0.2531  0.0772  1.3019
   71MOL0     N 9501   4.873   6.435   3.718 -0.7337  0.4671  0.5716
   71MOL0     C 9502   3.630   6.418   4.221 -0.5022 -0.0201  0.4639
   71MOL0     C 9503   3.516   6.499   4.204  0.2903 -0.0416  0.0731
   71MOL0     C 9504   3.221   6.784   4.045 -0.3784  0.7142  1.0041
   71MOL0     C 9505   3.192   6.868   4.157 -0.8453  0.8583 -0.3552
   71MOL0     C 9506   3.067   6.927   4.163  0.5448  0.1407 -0.5229
   71MOL0     C 9507   2.964   6.908   4.072 -0.1280 -0.4762 -0.5310
   71MOL0     O 9508   2.839   6.966   4.064 -0.0136 -0.0362 -0.5334
   71MOL0     C 9509   2.792   7.046   4.179 -0.0415 -0.0039  0.5403
   71MOL0     C 9510   2.649   7.114   4.161 -0.3225  0.4125  0.3223
   71MOL0     C 9511   2.654   7.197   4.024  0.3656 -0.1543  0.4907
   71MOL0     C 9512   2.517   7.232   3.978 -0.3784  0.3379 -0.0996
   71MOL0     C 9513   2.436   7.135   3.914 -0.7666  1.7064 -0.2618
   71MOL0     C 9514   2.371   7.049   3.872  0.4616 -0.2431  0.0753
   71MOL0     C 9515   2.996   6.826   3.963 -0.5020 -1.2369  0.3963
   71MOL0     C 9516   3.121   6.769   3.943  0.5334  0.9817 -0.8599
   71MOL0     C 9517   3.131   6.692   3.814 -0.8071  1.1871 -0.3749
   71MOL0     H 9518   3.659   6.801   4.131 -1.8207  0.4260 -0.9195
   71MOL0     H 9519   3.877   6.658   4.191 -0.6869  0.2103  3.0211
   71MOL0     H 9520   4.022   6.508   4.212  1.3697 -0.0474  1.0707
   71MOL0     H 9521   4.053   6.329   4.237 -0.9677 -0.6216  1.9643
   71MOL0     H 9522   3.911   6.444   4.001  0.6844  0.7038 -0.3997
   71MOL0     H 9523   3.974   6.279   4.017 -2.6962  0.2994  1.0247
   71MOL0     H 9524   4.168   6.523   4.008 -2.9755 -0.0003  2.9626
   71MOL0     H 9525   4.132   6.426   3.857  0.2158 -0.5627  0.1148
   71MOL0     H 9526   4.319   6.369   4.080  0.6455 -1.2673  0.8508
   71MOL0     H 9527   4.223   6.235   4.007  0.5448  0.3534 -0.3655
   71MOL0     H 9528   4.302   6.302   3.778 -1.4117  1.4809 -0.1346
   71MOL0     H 9529   4.408   6.429   3.853 -0.8088  0.8269 -0.9662
   71MOL0     H 9530   4.518   6.230   3.986 -1.1429 -3.0076  1.1478
   71MOL0     H 9531   4.414   6.133   3.877  0.6185  0.0365 -1.3509
   71MOL0     H 9532   4.507   6.230   3.676  0.2782  2.6963  0.1115
   71MOL0     H 9533   4.634   6.148   3.758  1.7400  0.5660  1.7942
   71MOL0     H 9534   4.574   6.441   3.715 -0.5814 -0.8558 -0.8560
   71MOL0     H 9535   4.649   6.380   3.868 -2.9260 -1.2061 -0.0117
   71MOL0     H 9536   4.720   6.233   3.517  0.8367 -1.5587  1.4075
   71MOL0     H 9537   5.044   6.252   3.391  0.9272 -0.1708 -2.8988
   71MOL0     H 9538   4.894   6.279   3.311 -0.0369 -1.5605  0.6604
   71MOL0     H 9539   5.079   6.515   3.365  0.4749 -0.0598 -0.8552
   71MOL0     H 9540   5.056   6.413   3.218 -1.1957 -1.5031 -0.5450
   71MOL0     H 9541   4.826   6.574   3.358 -0.2503  1.9565 -1.1887
   71MOL0     H 9542   4.827   6.498   3.199 -1.0185 -0.7877  0.8072
   71MOL0     H 9543   5.021   6.714   3.239 -0.5459  1.1694 -1.6269
   71MOL0     H 9544   4.855   6.745   3.227 -1.0783 -2.7788  2.2095
   71MOL0     H 9545   5.016   6.594   2.806  2.5269 -0.2610 -1.4802
   71MOL0     H 9546   5.139   6.725   2.660 -1.0642 -1.4313  0.4466
   71MOL0     H 9547   5.181   7.050   2.347 -1.2403  1.8454 -2.5743
   71MOL0     H 9548   5.304   7.148   2.173  0.5411  1.7101 -0.0345
   71MOL0     H 9549   5.732   7.338   2.191 -1.3330  1.5046 -0.7838
   71MOL0     H 9550   5.749   7.173   2.260 -0.3234  0.3669  0.2395
   71MOL0     H 9551   5.714   7.223   1.957  0.7605 -0.9886  0.3727
   71MOL0     H 9552   5.871   7.239   2.041  1.7533 -3.4224  1.7978
   71MOL0     H 9553   5.879   7.024   2.120 -1.0487  2.5996  1.2908
   71MOL0     H 9554   5.710   6.981   2.056 -0.8457  1.1649 -0.1626
   71MOL0     H 9555   5.796   6.974   1.829  1.6003 -0.3863 -1.3060
   71MOL0     H 9556   5.907   6.870   1.918  2.8345 -0.0097 -0.7210
   71MOL0     H 9557   5.953   7.153   1.836  0.5987 -0.2330  3.1783
   71MOL0     H 9558   5.988   7.006   1.738  0.8787 -0.8059 -0.8194
   71MOL0     H 9559   6.097   7.027   2.028  0.8207  1.0428 -0.6755
   71MOL0     H 9560   6.157   6.931   1.899 -2.4664 -1.1524 -0.9834
   71MOL0     H 9561   6.176   7.225   1.932  0.9293 -1.1614  0.3845
   71MOL0     H 9562   6.217   7.148   1.784 -2.9326  1.5984 -0.2595
   71MOL0     H 9563   6.329   7.033   2.054 -3.6000  2.6224  0.8330
   71MOL0     H 9564   6.388   6.998   1.884  0.4128  1.4414 -0.0084
   71MOL0     H 9565   5.661   7.107   2.418 -0.3753 -1.5776  3.4749
   71MOL0     H 9566   5.534   7.002   2.589 -0.7558  2.1983  1.7186
   71MOL0     H 9567   5.124   7.057   2.940  0.7901  0.2514 -0.2666
   71MOL0     H 9568   4.995   6.930   3.097  2.4477  1.5905 -0.2307
   71MOL0     H 9569   3.612   6.312   4.236 -0.0654 -0.3011 -0.8134
   71MOL0     H 9570   3.423   6.443   4.206  0.6835 -0.7237 -0.2374
   71MOL0     H 9571   3.261   6.884   4.239 -0.6328  0.9677 -0.5534
   71MOL0     H 9572   3.042   6.976   4.257  1.2641 -1.1169  0.3590
   71MOL0     H 9573   2.858   7.130   4.203 -3.5214  2.5980  1.9593
   71MOL0     H 9574   2.787   6.986   4.270  1.7368  0.0841  0.7294
   71MOL0     H 9575   2.637   7.174   4.252  2.2568 -0.4737  1.3608
   71MOL0     H 9576   2.559   7.052   4.156  0.4787 -1.2363  3.3959
   71MOL0     H 9577   2.691   7.138   3.939 -2.4670 -1.4818  0.0863
   71MOL0     H 9578   2.717   7.283   4.048 -1.2711  1.5806 -1.0869
   71MOL0     H 9579   2.462   7.269   4.065  0.3261  1.4920 -0.1304
   71MOL0     H 9580   2.537   7.323   3.921  0.7574  0.2784  0.1881
   71MOL0     H 9581   2.309   6.968   3.840  0.1108 -0.3502  1.0021
   71MOL0     H 9582   2.914   6.803   3.895  0.0921 -0.3972 -0.6429
   71MOL0     H 9583   3.039   6.636   3.795  0.2878 -0.5948 -0.6101
   71MOL0     H 9584   3.146   6.760   3.729 -0.4751  1.7855  0.1534
   71MOL0     H 9585   3.214   6.621   3.822 -0.3404  1.8770  1.2372
   72MOL0     O 9586   2.735   4.334   1.336 -0.1363  0.7273 -0.9166
   72MOL0     C 9587   2.834   4.405   1.357  0.0463 -0.7681 -0.4038
   72MOL0     O 9588   2.956   4.369   1.411 -0.2973  0.3214  0.2247
   72MOL0     C 9589   2.975   4.243   1.455 -0.0792 -0.5178 -0.2920
   72MOL0     C 9590   3.087   4.172   1.407  0.5044 -0.0518 -0.6190
   72MOL0     C 9591   3.130   4.055   1.479 -0.2734  0.0849  0.0232
   72MOL0     C 9592   3.062   4.006   1.596  0.8400  0.7448 -0.5544
   72MOL0     O 9593   3.086   3.892   1.671 -0.2772 -0.1487 -0.6653
   72MOL0     C 9594   3.210   3.823   1.640  0.5662 -0.1349 -0.9123
   72MOL0     C 9595   3.197   3.689   1.712  0.0286  0.0391  0.4201
   72MOL0     C 9596   3.207   3.688   1.865 -0.3593 -0.5443 -1.0539
   72MOL0     C 9597   3.347   3.693   1.917  0.4200 -0.3127 -0.2013
   72MOL0     C 9598   3.359   3.686   2.067 -1.1085  0.6995  0.5069
   72MOL0     C 9599   3.505   3.705   2.122  0.0947  0.7363  0.2128
   72MOL0     C 9600   3.509   3.747   2.269  0.0236 -0.3274  0.4665
   72MOL0     C 9601   3.449   3.651   2.372  0.4215 -0.6519  0.3403
   72MOL0     N 9602   3.323   3.691   2.443 -0.4338 -0.6510 -0.1932
   72MOL0     C 9603   3.306   3.688   2.575  0.6063  0.0823  0.3018
   72MOL0     C 9604   3.177   3.730   2.592  0.7132  0.3112 -0.1167
   72MOL0     C 9605   3.120   3.749   2.726 -0.4912  0.5693 -0.4489
   72MOL0     C 9606   3.136   3.896   2.759 -0.3639 -1.1788  0.9770
   72MOL0     C 9607   3.109   3.928   2.903 -0.3882 -0.1414 -0.6934
   72MOL0     C 9608   2.969   3.901   2.942  0.6673  0.4250 -0.8243
   72MOL0     O 9609   2.936   3.976   3.061  0.0639  0.1150  0.4703
   72MOL0     C 9610   2.858   4.092   3.046  0.7639  0.1317 -0.2464
   72MOL0     C 9611   2.879   4.214   2.973 -0.7742  0.6192 -0.8445
   72MOL0     C 9612   2.794   4.328   2.985 -0.6227  0.1058  0.0759
   72MOL0     C 9613   2.685   4.324   3.068 -0.8237 -0.0327 -0.0100
   72MOL0     C 9614   2.574   4.423   3.069 -1.1518  0.8084  0.3233
   72MOL0     O 9615   2.604   4.548   3.026  1.0666  0.5567  1.5834
   72MOL0     C 9616   2.507   4.645   3.019  0.5113 -0.7739  0.5674
   72MOL0     C 9617   2.491   4.740   2.920 -0.1409 -1.1851  0.2996
   72MOL0     C 9618   2.391   4.834   2.931  0.0203  0.0407  0.1629
   72MOL0     C 9619   2.304   4.850   3.042  0.0927 -0.1467  0.6720
   72MOL0     O 9620   2.206   4.947   3.054  0.3104  1.0658  0.1026
   72MOL0     C 9621   2.195   5.057   2.958  1.4755  0.3166  0.1007
   72MOL0     C 9622   2.080   5.152   3.003  0.1606  0.5013 -0.5590
   72MOL0     C 9623   2.073   5.280   2.918  0.0223  1.0051 -0.5370
   72MOL0     C 9624   1.988   5.391   2.988 -0.8776  0.9255 -0.0144
   72MOL0     C 9625   1.833   5.362   2.966  0.0393 -0.1773  0.4604
   72MOL0     C 9626   1.755   5.489   2.995 -0.0649 -1.0443  1.3964
   72MOL0     C 9627   1.597   5.475   2.980  0.2342  0.9092 -0.1563
   72MOL0     C 9628   1.533   5.601   3.049 -0.3393  0.0308 -0.9882
   72MOL0    Cl 9629   1.349   5.603   3.066  0.2554  0.3233  0.2572
   72MOL0     C 9630   2.311   4.742   3.126 -0.0134  0.1211  0.4618
   72MOL0     C 9631   2.419   4.653   3.126 -1.1360  0.2355 -0.2033
   72MOL0     O 9632   2.472   4.378   3.102 -0.2521  0.1583  0.0206
   72MOL0     C 9633   2.681   4.214   3.154  0.0080 -0.3727 -0.6179
   72MOL0     C 9634   2.761   4.098   3.143  0.0186  0.1956  0.0619
   72MOL0     N 9635   3.119   3.741   2.461  0.7184  0.5000 -0.0173
   72MOL0     N 9636   3.208   3.720   2.373 -0.2560 -0.6750  0.7747
   72MOL0     C 9637   2.951   4.089   1.635  0.3293  0.3744 -1.2095
   72MOL0     C 9638   2.903   4.197   1.564 -0.2587  0.0310  0.6274
   72MOL0     C 9639   2.816   4.549   1.325 -1.2385  0.2870 -0.1836
   72MOL0     C 9640   2.689   4.610   1.347 -0.2481 -0.1237 -0.5699
   72MOL0     C 9641   2.669   4.741   1.308 -0.3252  0.8713 -0.3136
   72MOL0     C 9642   2.772   4.815   1.248  0.0439 -0.6611 -0.1483
   72MOL0     O 9643   2.761   4.947   1.213 -0.5764 -0.5576  0.1476
   72MOL0     C 9644   2.639   5.013   1.215 -0.2680  0.6460  1.2622
   72MOL0     C 9645   2.647   5.102   1.345 -1.1298  0.6476  0.1636
   72MOL0     C 9646   2.517   5.184   1.352  0.3871  0.5418 -0.2256
   72MOL0     C 9647   2.505   5.295   1.257 -0.1484 -0.0750  0.2464
   72MOL0     C 9648   2.386   5.369   1.276  1.0027  0.0581 -0.4268
   72MOL0     C 9649   2.279   5.414   1.320  0.0675 -0.0683  0.1751
   72MOL0     C 9650   2.892   4.756   1.236  0.1920  0.2831  0.6336
   72MOL0     C 9651   2.918   4.623   1.276 -0.1812 -0.3549  0.5140
   72MOL0     C 9652   3.056   4.564   1.245 -0.6830 -1.4328 -0.2221
   72MOL0     H 9653   3.149   4.198   1.322 -0.7754  1.7016 -1.0987
   72MOL0     H 9654   3.204   3.989   1.435 -0.0743 -1.2713  2.2310
   72MOL0     H 9655   3.212   3.810   1.532 -0.7004 -0.5425 -0.8985
   72MOL0     H 9656   3.306   3.869   1.666  0.3298 -1.1677  2.2488
   72MOL0     H 9657   3.266   3.621   1.660 -0.0372  1.7536 -2.0879
   72MOL0     H 9658   3.095   3.655   1.691  0.1611 -0.5401  0.6882
   72MOL0     H 9659   3.154   3.595   1.885 -0.6485 -0.7055 -2.4151
   72MOL0     H 9660   3.148   3.769   1.909 -0.0314 -1.9389  2.2145
   72MOL0     H 9661   3.401   3.606   1.879  1.1018  0.6221 -1.4420
   72MOL0     H 9662   3.397   3.788   1.895 -0.7467  0.7532  1.4824
   72MOL0     H 9663   3.293   3.766   2.101 -2.2149 -0.3067  0.7953
   72MOL0     H 9664   3.330   3.588   2.107 -1.2747  1.1805  1.6180
   72MOL0     H 9665   3.556   3.610   2.104  1.3137  1.5019 -0.5605
   72MOL0     H 9666   3.557   3.778   2.059  3.1992 -1.6224 -0.2216
   72MOL0     H 9667   3.455   3.843   2.269  0.1755 -0.0264 -4.1401
   72MOL0     H 9668   3.613   3.769   2.294 -0.0201 -0.6036  0.9016
   72MOL0     H 9669   3.436   3.559   2.315  2.0488 -0.2120 -0.8111
   72MOL0     H 9670   3.521   3.627   2.450 -1.4215 -0.7518  2.0963
   72MOL0     H 9671   3.374   3.670   2.657 -0.5546 -0.0129  1.2712
   72MOL0     H 9672   3.015   3.718   2.721 -0.0845 -0.6677 -1.8375
   72MOL0     H 9673   3.179   3.679   2.786  0.8807  2.7258  0.8567
   72MOL0     H 9674   3.238   3.929   2.741 -0.6278  0.1833  1.8336
   72MOL0     H 9675   3.068   3.957   2.700 -0.3407 -0.7578  1.3790
   72MOL0     H 9676   3.125   4.035   2.920 -0.2619 -0.5152  1.9025
   72MOL0     H 9677   3.180   3.868   2.960 -0.4174 -0.1018 -0.6156
   72MOL0     H 9678   2.955   3.795   2.966  0.2214  0.6169 -0.2130
   72MOL0     H 9679   2.891   3.931   2.872 -2.6212  0.5884  2.6196
   72MOL0     H 9680   2.953   4.215   2.893 -2.3193  0.0304 -2.3187
   72MOL0     H 9681   2.806   4.420   2.929 -0.7500 -1.3124 -2.4163
   72MOL0     H 9682   2.560   4.734   2.836 -0.4191  0.1855 -0.0383
   72MOL0     H 9683   2.393   4.905   2.849  1.7745 -1.2517 -0.9756
   72MOL0     H 9684   2.282   5.121   2.943  0.5585  1.4722 -0.4410
   72MOL0     H 9685   2.166   5.018   2.860 -1.0442  0.1040  0.8598
   72MOL0     H 9686   1.983   5.101   3.012 -0.6581  2.2192  0.8988
   72MOL0     H 9687   2.097   5.185   3.106  0.1390  2.9203 -1.2825
   72MOL0     H 9688   2.168   5.330   2.901 -0.1414  1.0168 -1.4256
   72MOL0     H 9689   2.031   5.264   2.818  2.9909  0.8712 -1.8605
   72MOL0     H 9690   2.023   5.477   2.930  0.7997 -1.4924 -2.8188
   72MOL0     H 9691   2.018   5.402   3.093  0.4422 -0.8442 -0.1570
   72MOL0     H 9692   1.790   5.276   3.017 -2.9914 -0.1120 -1.6880
   72MOL0     H 9693   1.818   5.335   2.861  2.7510 -5.6121  1.1593
   72MOL0     H 9694   1.785   5.526   3.093 -0.8970 -0.3258  1.3873
   72MOL0     H 9695   1.782   5.554   2.911  1.5756 -1.9975  1.1376
   72MOL0     H 9696   1.561   5.392   3.041  3.3874  0.2988  1.0826
   72MOL0     H 9697   1.567   5.457   2.877 -1.1604 -3.4088  0.7863
   72MOL0     H 9698   1.562   5.603   3.154 -0.6739 -3.8890 -0.6600
   72MOL0     H 9699   1.561   5.694   3.000  0.4227 -0.3242 -1.2311
   72MOL0     H 9700   2.246   4.744   3.213  1.4339 -0.2357  1.5920
   72MOL0     H 9701   2.428   4.577   3.202  2.7870 -1.4480 -2.0769
   72MOL0     H 9702   2.607   4.206   3.233  1.8767  2.6062  1.6546
   72MOL0     H 9703   2.727   4.018   3.209  2.3467  0.8999  2.2470
   72MOL0     H 9704   2.890   4.064   1.721  1.4160 -0.2007 -0.5913
   72MOL0     H 9705   2.832   4.249   1.627 -2.0223 -0.0363 -1.1893
   72MOL0     H 9706   2.611   4.554   1.397 -2.0578  1.4542 -1.5361
   72MOL0     H 9707   2.571   4.786   1.322 -0.6546  1.0487 -2.6773
   72MOL0     H 9708   2.547   4.953   1.210 -1.1624  2.0662 -0.5600
   72MOL0     H 9709   2.635   5.076   1.125 -0.3865 -1.5346 -0.3602
   72MOL0     H 9710   2.738   5.162   1.343  0.6648 -1.8481  0.8752
   72MOL0     H 9711   2.671   5.056   1.442  0.1756  1.9618  0.4972
   72MOL0     H 9712   2.528   5.215   1.456  1.3803 -0.3123 -0.0535
   72MOL0     H 9713   2.429   5.120   1.340 -1.4657  3.1409 -1.4863
   72MOL0     H 9714   2.589   5.364   1.262 -1.5400  1.7325 -0.2430
   72MOL0     H 9715   2.503   5.249   1.158  3.1430 -0.3646  0.1969
   72MOL0     H 9716   2.190   5.470   1.340  0.1759  0.2244 -0.1470
   72MOL0     H 9717   2.967   4.814   1.184 -0.8534  2.1145  1.0708
   72MOL0     H 9718   3.039   4.473   1.187 -0.6691 -0.0028 -2.6216
   72MOL0     H 9719   3.111   4.639   1.186 -1.9444  0.5793  1.0314
   72MOL0     H 9720   3.124   4.557   1.330 -0.6514  3.8176  0.5672
   73MOL0     O 9721   1.892   7.541   4.307  0.3870  0.4443  0.0550
   73MOL0     C 9722   1.983   7.551   4.388  0.3092  0.5753  0.0517
   73MOL0     O 9723   2.115   7.549   4.351  0.4649  0.2117 -1.1213
   73MOL0     C 9724   2.142   7.560   4.217 -1.4980  0.2439 -0.8436
   73MOL0     C 9725   2.171   7.438   4.153  1.2151  0.2582 -0.7383
   73MOL0     C 9726   2.188   7.436   4.017  0.2024  0.0882  0.1601
   73MOL0     C 9727   2.166   7.550   3.938 -0.2324  1.0144  0.2594
   73MOL0     O 9728   2.189   7.550   3.801  0.4294  0.1768 -0.3995
   73MOL0     C 9729   2.267   7.444   3.744  0.3474  0.5743 -0.1800
   73MOL0     C 9730   2.322   7.462   3.598  0.5500 -0.3245 -0.9309
   73MOL0     C 9731   2.206   7.501   3.508 -1.1571 -0.7320 -0.0815
   73MOL0     C 9732   2.112   7.373   3.480 -0.0965  0.1002 -0.1652
   73MOL0     C 9733   2.050   7.366   3.343  0.8574  0.4023  0.8814
   73MOL0     C 9734   1.963   7.227   3.335  0.6354  0.3157 -0.1813
   73MOL0     C 9735   1.919   7.204   3.183  0.2990  0.6980 -0.2435
   73MOL0     C 9736   1.824   7.086   3.162 -0.3525 -0.3631  0.1995
   73MOL0     N 9737   1.773   7.104   3.030  1.1687 -0.1268 -1.0472
   73MOL0     C 9738   1.817   7.050   2.912  0.1826  0.2472  1.1257
   73MOL0     C 9739   1.732   7.113   2.814  0.1794 -0.8879 -1.5138
   73MOL0     C 9740   1.708   7.092   2.670 -0.1720  0.2292 -0.5871
   73MOL0     C 9741   1.821   7.172   2.588 -0.6999  0.2990  0.1448
   73MOL0     C 9742   1.809   7.325   2.605  0.2744 -0.4702 -0.6526
   73MOL0     C 9743   1.909   7.408   2.532 -0.0828  0.0255 -0.2019
   73MOL0     O 9744   1.892   7.409   2.391  0.1913 -0.4864  0.2796
   73MOL0     C 9745   1.955   7.504   2.312  0.3644  0.3597  0.1552
   73MOL0     C 9746   1.912   7.503   2.180 -0.3871  1.1501 -0.3036
   73MOL0     C 9747   1.968   7.588   2.103 -0.1471 -0.5483 -0.1023
   73MOL0     C 9748   2.062   7.690   2.144 -0.0495 -0.3552  0.6073
   73MOL0     C 9749   2.120   7.780   2.039 -0.4897  0.4583  0.2716
   73MOL0     O 9750   2.128   7.731   1.911 -0.1533 -0.5420 -0.3117
   73MOL0     C 9751   2.191   7.812   1.815 -0.2274 -0.1746  0.3725
   73MOL0     C 9752   2.136   7.919   1.737  0.2465  1.2290 -0.6361
   73MOL0     C 9753   2.202   8.004   1.648 -0.4707 -0.0765  0.1002
   73MOL0     C 9754   2.339   7.973   1.632  0.1257  1.1581  0.2777
   73MOL0     O 9755   2.424   8.039   1.549 -0.9625 -0.5928  0.8615
   73MOL0     C 9756   2.381   8.156   1.479  0.4319  0.3313 -0.1123
   73MOL0     C 9757   2.470   8.187   1.356 -0.0441 -0.4772  0.3484
   73MOL0     C 9758   2.400   8.278   1.255  0.4642  1.0759  0.2953
   73MOL0     C 9759   2.491   8.335   1.146  0.2780 -1.0734  0.2645
   73MOL0     C 9760   2.520   8.241   1.033 -0.3562 -0.0745  0.6037
   73MOL0     C 9761   2.597   8.302   0.919  0.6000  0.3296  0.7426
   73MOL0     C 9762   2.571   8.220   0.783  0.6585  0.8182 -0.1042
   73MOL0     C 9763   2.597   8.069   0.794 -0.1856  0.5379  0.1039
   73MOL0    Cl 9764   2.562   7.964   0.655 -0.1923 -0.1588 -0.0256
   73MOL0     C 9765   2.397   7.863   1.705 -0.8791  0.6288  0.5302
   73MOL0     C 9766   2.323   7.787   1.793  0.1831  0.0037 -0.6737
   73MOL0     O 9767   2.178   7.877   2.083 -0.5295 -0.0454  0.1061
   73MOL0     C 9768   2.113   7.685   2.272  0.4663  0.5105  0.5676
   73MOL0     C 9769   2.054   7.586   2.356  0.0144  0.5839 -0.6029
   73MOL0     N 9770   1.647   7.202   2.884 -0.3693 -0.5966  0.0059
   73MOL0     N 9771   1.664   7.184   3.013  0.3346 -0.9655 -0.0683
   73MOL0     C 9772   2.147   7.675   4.006 -0.6909  0.4461  0.5370
   73MOL0     C 9773   2.140   7.676   4.142  0.1043 -0.2158 -0.2302
   73MOL0     C 9774   1.948   7.570   4.521 -0.6462 -0.1730  0.4071
   73MOL0     C 9775   1.809   7.549   4.561 -0.2334  0.5856  0.1456
   73MOL0     C 9776   1.761   7.594   4.688 -0.5605  0.5766 -0.2927
   73MOL0     C 9777   1.848   7.651   4.774  0.1916  0.7478  0.9377
   73MOL0     O 9778   1.800   7.690   4.889 -1.3977  0.8733  0.1251
   73MOL0     C 9779   1.835   7.820   4.940 -0.0526 -0.1442 -0.1268
   73MOL0     C 9780   1.741   7.887   5.032  0.4445 -0.2153  0.3985
   73MOL0     C 9781   1.624   7.958   4.964 -0.8821  0.8137  0.7328
   73MOL0     C 9782   1.510   7.977   5.061  0.5540 -0.7716  0.3680
   73MOL0     C 9783   1.545   8.064   5.170  0.0671 -0.5839 -0.8299
   73MOL0     C 9784   1.583   8.153   5.241 -0.1975 -0.3284  0.7859
   73MOL0     C 9785   1.974   7.681   4.733 -0.1919  0.0868 -0.3113
   73MOL0     C 9786   2.035   7.629   4.618 -0.3945 -0.1703 -0.9590
   73MOL0     C 9787   2.184   7.640   4.597  0.5106 -0.6461  0.1209
   73MOL0     H 9788   2.181   7.349   4.216  1.7910 -1.0356 -2.5621
   73MOL0     H 9789   2.196   7.341   3.964 -0.0224  0.5160 -0.6455
   73MOL0     H 9790   2.355   7.429   3.807  2.2698  2.3455 -2.2891
   73MOL0     H 9791   2.205   7.353   3.741  1.4817 -0.2217 -3.5498
   73MOL0     H 9792   2.362   7.368   3.560 -1.7757 -1.3234 -1.0624
   73MOL0     H 9793   2.399   7.539   3.598  0.7797 -0.5192 -2.3755
   73MOL0     H 9794   2.239   7.545   3.414  0.0900  3.5014  2.0862
   73MOL0     H 9795   2.139   7.577   3.550  2.5769  1.2168  2.9220
   73MOL0     H 9796   2.166   7.281   3.504 -1.5217 -0.2396  2.0225
   73MOL0     H 9797   2.033   7.393   3.552  1.4253  0.2131  1.5439
   73MOL0     H 9798   1.989   7.453   3.319 -0.7146 -1.4376 -2.6408
   73MOL0     H 9799   2.133   7.355   3.272  0.3653  1.7001  0.0753
   73MOL0     H 9800   2.031   7.144   3.355  2.9551  2.3158  0.6737
   73MOL0     H 9801   1.873   7.216   3.396  0.2545 -1.5009 -0.9784
   73MOL0     H 9802   2.003   7.165   3.127  0.5536 -4.8758  3.2412
   73MOL0     H 9803   1.874   7.297   3.146  0.1942  0.5943 -0.3769
   73MOL0     H 9804   1.892   7.001   3.175  0.7299  0.8462  3.4644
   73MOL0     H 9805   1.749   7.075   3.240  0.7627  1.1519  1.5780
   73MOL0     H 9806   1.895   6.976   2.897 -0.2807  0.1080 -0.8211
   73MOL0     H 9807   1.719   6.984   2.656 -0.9456 -0.4521  3.0160
   73MOL0     H 9808   1.609   7.132   2.644 -0.6909 -1.1305 -0.7775
   73MOL0     H 9809   1.916   7.134   2.626  0.7341  0.6672 -2.8529
   73MOL0     H 9810   1.823   7.149   2.481 -1.4917  1.4072 -0.1285
   73MOL0     H 9811   1.822   7.364   2.707 -2.7949  1.7669 -0.9822
   73MOL0     H 9812   1.706   7.355   2.584 -0.6243 -2.6748  0.3279
   73MOL0     H 9813   2.007   7.364   2.555 -0.0447  0.4341  0.4437
   73MOL0     H 9814   1.916   7.504   2.584  2.4219 -1.1983  1.9797
   73MOL0     H 9815   1.824   7.441   2.161 -1.1078  1.2627  2.2560
   73MOL0     H 9816   1.931   7.574   2.002  1.4960 -1.1956 -0.6600
   73MOL0     H 9817   2.034   7.933   1.769  0.2115 -0.9367  0.4010
   73MOL0     H 9818   2.148   8.071   1.581  1.3831  0.8665 -0.5269
   73MOL0     H 9819   2.279   8.142   1.445  0.3642 -0.4024  0.3793
   73MOL0     H 9820   2.395   8.244   1.544  1.7135  1.0454 -1.2923
   73MOL0     H 9821   2.566   8.232   1.381 -0.0036 -0.1951 -0.2812
   73MOL0     H 9822   2.494   8.094   1.304 -0.3204 -0.0239 -0.6148
   73MOL0     H 9823   2.307   8.232   1.219  0.5373  0.2759  1.0943
   73MOL0     H 9824   2.363   8.363   1.313 -0.5242  2.4729 -2.2225
   73MOL0     H 9825   2.588   8.376   1.175 -1.1665  0.9819  2.6379
   73MOL0     H 9826   2.432   8.425   1.127 -3.6400 -3.3774  0.4617
   73MOL0     H 9827   2.426   8.190   1.007  0.1678 -0.2554 -1.0536
   73MOL0     H 9828   2.579   8.170   1.091 -0.2171  1.0276  1.8481
   73MOL0     H 9829   2.569   8.404   0.891 -2.2961 -0.2393  1.2816
   73MOL0     H 9830   2.704   8.287   0.934  0.4784 -2.4254 -0.5989
   73MOL0     H 9831   2.646   8.263   0.716  0.1291  1.1744 -0.4746
   73MOL0     H 9832   2.471   8.247   0.748  0.8709  0.1566 -1.2629
   73MOL0     H 9833   2.705   8.070   0.811  0.0348  0.4537 -1.1826
   73MOL0     H 9834   2.532   8.023   0.869 -0.8108  0.6379 -0.3756
   73MOL0     H 9835   2.504   7.843   1.696 -1.1037 -0.4967  0.2782
   73MOL0     H 9836   2.372   7.708   1.848  3.5759  1.6919 -1.0114
   73MOL0     H 9837   2.197   7.746   2.305  0.3370  0.5331  0.8600
   73MOL0     H 9838   2.095   7.582   2.456  1.2459 -4.2454 -1.0454
   73MOL0     H 9839   2.142   7.771   3.954  2.1786  0.3898  0.0017
   73MOL0     H 9840   2.122   7.769   4.195  1.4945 -0.2510  0.3439
   73MOL0     H 9841   1.728   7.503   4.506 -2.3519  0.6120  3.0185
   73MOL0     H 9842   1.656   7.591   4.716 -0.8018  1.0265 -1.1222
   73MOL0     H 9843   1.873   7.888   4.863  1.4683  2.5246  2.7842
   73MOL0     H 9844   1.922   7.801   5.003  0.8306  2.4473 -0.4203
   73MOL0     H 9845   1.803   7.968   5.072  1.6533  0.6115 -2.8457
   73MOL0     H 9846   1.699   7.819   5.108 -1.6371 -0.1857 -0.6554
   73MOL0     H 9847   1.596   7.889   4.883  0.0201 -0.3523  1.3713
   73MOL0     H 9848   1.664   8.053   4.927  0.5723 -0.9417 -2.6296
   73MOL0     H 9849   1.427   8.029   5.013  1.7543  0.9778  0.0990
   73MOL0     H 9850   1.465   7.886   5.101  0.0372 -0.1403  1.2613
   73MOL0     H 9851   1.611   8.238   5.300  1.8952 -1.4363  1.4610
   73MOL0     H 9852   2.036   7.723   4.811 -2.7512  2.3087  0.6825
   73MOL0     H 9853   2.213   7.540   4.565  0.3662 -0.8373  0.5734
   73MOL0     H 9854   2.212   7.719   4.527 -0.3021 -1.2566 -0.9264
   73MOL0     H 9855   2.240   7.665   4.687 -1.3635 -0.0369  1.1869
   74MOL0     O 9856   2.636   6.718   3.058  0.3162  0.2011  0.5402
   74MOL0     C 9857   2.687   6.632   3.122 -0.3970  0.6659  0.2571
   74MOL0     O 9858   2.656   6.599   3.261  0.1609  0.6239 -0.6577
   74MOL0     C 9859   2.539   6.649   3.318  0.7646 -0.3378 -0.5779
   74MOL0     C 9860   2.547   6.725   3.440  0.4572  0.1386 -0.9459
   74MOL0     C 9861   2.424   6.772   3.499 -0.3296 -1.5682 -0.4417
   74MOL0     C 9862   2.302   6.742   3.448 -0.1617  0.4822  0.3500
   74MOL0     O 9863   2.176   6.759   3.508 -1.0912 -0.0163 -0.0747
   74MOL0     C 9864   2.169   6.883   3.578 -0.7730  0.0499 -0.0615
   74MOL0     C 9865   2.029   6.904   3.636  0.9391  0.0833  0.0156
   74MOL0     C 9866   2.016   7.037   3.716  0.9749 -0.4890  0.4171
   74MOL0     C 9867   1.875   7.097   3.738 -0.2001  0.7092  0.2705
   74MOL0     C 9868   1.888   7.235   3.791  0.7524 -0.7216 -0.0997
   74MOL0     C 9869   1.932   7.240   3.936  0.0658  0.1953  0.4156
   74MOL0     C 9870   1.824   7.210   4.031 -0.3127 -0.4994  0.9019
   74MOL0     C 9871   1.868   7.193   4.179  0.0693  0.1832  0.0117
   74MOL0     N 9872   1.927   7.060   4.185  0.0117 -0.3540  0.2687
   74MOL0     C 9873   1.863   6.937   4.180 -0.0284  0.1250  0.2920
   74MOL0     C 9874   1.966   6.851   4.168 -0.4867 -0.3387  0.3618
   74MOL0     C 9875   1.942   6.711   4.130  0.1150 -0.7994  1.1459
   74MOL0     C 9876   1.986   6.676   3.988 -0.5892  0.4412  0.1425
   74MOL0     C 9877   2.072   6.542   3.985 -0.1226  0.1616  0.5330
   74MOL0     C 9878   2.135   6.518   3.844 -0.8532 -0.0809 -0.4052
   74MOL0     O 9879   2.137   6.374   3.822 -0.6094  0.2735  0.1526
   74MOL0     C 9880   2.191   6.319   3.708  0.4774 -0.6854  0.2523
   74MOL0     C 9881   2.222   6.392   3.600 -1.0249  0.1825 -0.1804
   74MOL0     C 9882   2.303   6.338   3.506  0.5746  0.1252 -0.0511
   74MOL0     C 9883   2.339   6.208   3.514 -0.0419 -0.3740  0.4586
   74MOL0     C 9884   2.432   6.148   3.413 -0.2236 -0.0285  0.0503
   74MOL0     O 9885   2.449   6.232   3.299 -0.1168  0.1192  0.1231
   74MOL0     C 9886   2.507   6.180   3.192  0.1462  0.4393  0.7207
   74MOL0     C 9887   2.599   6.248   3.116 -0.5440  0.0271 -0.2195
   74MOL0     C 9888   2.646   6.201   2.998 -1.5122 -0.4185  0.7121
   74MOL0     C 9889   2.609   6.077   2.941  0.1292 -0.7492 -0.6852
   74MOL0     O 9890   2.642   6.037   2.813  0.2144  0.0878  0.1265
   74MOL0     C 9891   2.724   6.116   2.729  0.5242 -0.2923  0.4800
   74MOL0     C 9892   2.757   6.052   2.592 -0.5970  0.4810  0.0581
   74MOL0     C 9893   2.839   5.929   2.613 -0.5110 -0.5012 -0.2464
   74MOL0     C 9894   2.890   5.862   2.481  0.0199  0.6788  1.0808
   74MOL0     C 9895   2.814   5.731   2.430 -0.1564  0.1144  0.4249
   74MOL0     C 9896   2.820   5.622   2.530  0.3219  1.2941 -0.5327
   74MOL0     C 9897   2.733   5.504   2.495 -0.8879  0.6492 -0.9161
   74MOL0     C 9898   2.772   5.434   2.370  0.1965 -0.0360  0.8086
   74MOL0    Cl 9899   2.682   5.286   2.347  0.4603 -0.2393 -0.1537
   74MOL0     C 9900   2.518   6.002   3.018 -0.7251 -0.1475 -0.3286
   74MOL0     C 9901   2.474   6.051   3.144  0.0203  0.6853  0.4842
   74MOL0     O 9902   2.480   6.035   3.432  0.1855 -0.4773  0.8690
   74MOL0     C 9903   2.293   6.124   3.618  0.5692 -0.4714  0.0887
   74MOL0     C 9904   2.214   6.186   3.713 -1.1447  0.2182  0.2005
   74MOL0     N 9905   2.090   6.918   4.175 -0.1961 -0.2491  0.6087
   74MOL0     N 9906   2.065   7.042   4.194 -0.1431 -0.8597 -0.0746
   74MOL0     C 9907   2.299   6.675   3.324  0.2130  0.0834 -0.4419
   74MOL0     C 9908   2.415   6.639   3.256  0.0029 -0.2373  0.3571
   74MOL0     C 9909   2.811   6.561   3.059  0.8140 -0.0962 -0.1034
   74MOL0     C 9910   2.881   6.468   3.136 -0.1265  0.2280  0.4796
   74MOL0     C 9911   2.991   6.389   3.099 -0.3641  0.3563  0.5537
   74MOL0     C 9912   3.033   6.405   2.965 -0.0889  0.5868  1.1841
   74MOL0     O 9913   3.139   6.346   2.909  0.1174 -0.2654 -0.4596
   74MOL0     C 9914   3.149   6.205   2.947  0.2327 -0.4583  0.5014
   74MOL0     C 9915   3.284   6.192   3.016  0.0653 -0.0103  0.1142
   74MOL0     C 9916   3.394   6.131   2.922  0.3168 -0.8929 -0.5435
   74MOL0     C 9917   3.508   6.241   2.886  1.1087  0.6492  0.4130
   74MOL0     C 9918   3.618   6.174   2.819  1.3903  0.1411 -0.3776
   74MOL0     C 9919   3.710   6.119   2.750 -0.1973 -0.6629  0.0886
   74MOL0     C 9920   2.975   6.508   2.894 -0.3503 -0.0948 -0.2514
   74MOL0     C 9921   2.871   6.589   2.934 -0.8701 -0.0410 -1.0921
   74MOL0     C 9922   2.842   6.705   2.849  0.2290 -0.0952 -1.1548
   74MOL0     H 9923   2.643   6.736   3.489 -0.0693  2.6748 -0.3772
   74MOL0     H 9924   2.436   6.827   3.591  1.3276  1.0487 -2.0748
   74MOL0     H 9925   2.246   6.884   3.656  0.2808  2.4314 -1.0516
   74MOL0     H 9926   2.192   6.969   3.515  0.9693  0.0082  0.4580
   74MOL0     H 9927   1.992   6.820   3.696 -1.2047  0.7862 -0.2205
   74MOL0     H 9928   1.956   6.914   3.555 -2.1183 -0.2636  2.5260
   74MOL0     H 9929   2.073   7.112   3.661 -2.4207  1.0193 -1.3518
   74MOL0     H 9930   2.066   7.027   3.813 -0.0375  0.5730  1.0849
   74MOL0     H 9931   1.824   7.103   3.642 -2.2999 -0.9976  1.1841
   74MOL0     H 9932   1.813   7.027   3.794 -0.8725  1.0534 -0.0385
   74MOL0     H 9933   1.960   7.292   3.730 -0.4423 -1.3165 -2.1505
   74MOL0     H 9934   1.791   7.286   3.786  0.0966 -1.4859  2.6928
   74MOL0     H 9935   2.012   7.168   3.953 -1.4305 -0.9409  3.4924
   74MOL0     H 9936   1.971   7.339   3.960  0.4986 -0.3125  1.9446
   74MOL0     H 9937   1.790   7.113   3.993  0.3179  0.0327 -1.1914
   74MOL0     H 9938   1.763   7.301   4.032  1.5103  0.7969  0.4783
   74MOL0     H 9939   1.946   7.267   4.200 -0.8870  1.1572  0.2562
   74MOL0     H 9940   1.780   7.209   4.242  0.1001  2.6421 -0.4611
   74MOL0     H 9941   1.761   6.903   4.186 -0.1362  0.0789 -1.2234
   74MOL0     H 9942   1.996   6.642   4.196  1.5799  0.5344  1.4021
   74MOL0     H 9943   1.837   6.688   4.149 -0.3255 -0.1936 -0.4290
   74MOL0     H 9944   1.894   6.661   3.931 -0.0074  0.8735 -0.9475
   74MOL0     H 9945   2.047   6.760   3.954  3.0654 -1.8286  0.5495
   74MOL0     H 9946   1.993   6.469   4.006 -0.4382  0.2555 -0.2648
   74MOL0     H 9947   2.149   6.547   4.062 -0.1778 -1.2587  0.7096
   74MOL0     H 9948   2.240   6.548   3.853 -0.6544 -1.0867  0.8778
   74MOL0     H 9949   2.084   6.561   3.757  0.7548 -1.7082 -2.2447
   74MOL0     H 9950   2.188   6.494   3.584  0.7971  0.9633  0.6532
   74MOL0     H 9951   2.342   6.405   3.429 -5.6980  2.8381 -1.4513
   74MOL0     H 9952   2.616   6.349   3.150 -4.1820  0.2170  1.3704
   74MOL0     H 9953   2.715   6.268   2.948 -0.2195 -2.0174  0.2481
   74MOL0     H 9954   2.666   6.206   2.710  2.2103  1.4370  2.9628
   74MOL0     H 9955   2.816   6.138   2.784  2.1810 -1.3830 -1.6971
   74MOL0     H 9956   2.667   6.039   2.531  0.3248  0.5881 -1.3916
   74MOL0     H 9957   2.825   6.124   2.545  0.0556  0.6329  1.1891
   74MOL0     H 9958   2.930   5.959   2.666  2.2480 -2.5747 -3.4500
   74MOL0     H 9959   2.786   5.856   2.675 -0.4608 -0.1469  0.2217
   74MOL0     H 9960   2.994   5.831   2.497  0.8102  1.8766 -1.2425
   74MOL0     H 9961   2.887   5.926   2.393  0.0847 -0.1089  0.4933
   74MOL0     H 9962   2.855   5.704   2.333  0.8556  1.6800  0.3890
   74MOL0     H 9963   2.712   5.756   2.399  0.5714  2.0128 -0.5645
   74MOL0     H 9964   2.924   5.588   2.530  0.0260 -0.1538  3.0004
   74MOL0     H 9965   2.795   5.645   2.634  1.3124  1.0824 -0.2380
   74MOL0     H 9966   2.629   5.536   2.495 -1.5083 -1.2182 -0.5457
   74MOL0     H 9967   2.762   5.445   2.583 -2.6150  0.9434 -0.1147
   74MOL0     H 9968   2.766   5.504   2.286  0.3199  0.1109  0.9211
   74MOL0     H 9969   2.871   5.387   2.376 -0.9348 -2.7748 -0.2975
   74MOL0     H 9970   2.502   5.900   2.985  1.7252 -0.6653 -0.1266
   74MOL0     H 9971   2.418   5.985   3.209 -2.3354  0.5111 -1.6098
   74MOL0     H 9972   2.309   6.017   3.627 -1.2577 -0.6538  2.0872
   74MOL0     H 9973   2.178   6.123   3.794  1.3622 -0.5896  0.7747
   74MOL0     H 9974   2.205   6.645   3.280  0.1845 -1.0418  0.3374
   74MOL0     H 9975   2.403   6.597   3.157  0.0114 -1.4589  0.8529
   74MOL0     H 9976   2.864   6.458   3.243  0.1481  1.4930  0.6528
   74MOL0     H 9977   3.053   6.330   3.166  1.6817 -0.2141 -1.7042
   74MOL0     H 9978   3.152   6.150   2.852  0.2563  1.3376 -0.5898
   74MOL0     H 9979   3.074   6.164   3.015 -0.4856 -1.9870 -1.1207
   74MOL0     H 9980   3.284   6.138   3.112  0.5687  2.2702  1.4824
   74MOL0     H 9981   3.318   6.291   3.048  0.9023  0.2731 -1.5651
   74MOL0     H 9982   3.346   6.088   2.834 -1.2329  2.2642 -1.3887
   74MOL0     H 9983   3.438   6.048   2.978  0.4564  0.4781  1.4817
   74MOL0     H 9984   3.459   6.306   2.813  1.7827 -1.3170 -1.9342
   74MOL0     H 9985   3.527   6.289   2.982  1.8584  0.5549  0.3191
   74MOL0     H 9986   3.786   6.061   2.701  1.5346  0.8454  0.8706
   74MOL0     H 9987   3.034   6.548   2.812  1.3927 -1.5367  0.2217
   74MOL0     H 9988   2.872   6.799   2.896  2.8579 -0.0526 -2.7080
   74MOL0     H 9989   2.892   6.700   2.752  0.9841  0.4249 -0.8066
   74MOL0     H 9990   2.737   6.725   2.828  0.5634 -1.4456 -4.7969
   75MOL0     O 9991   2.253   8.775   7.713 -0.6287  1.3308  0.4175
   75MOL0     C 9992   2.330   8.682   7.685  0.1176  0.6836  0.2295
   75MOL0     O 9993   2.349   8.628   7.559 -0.2637  0.4500  0.0261
   75MOL0     C 9994   2.275   8.692   7.461 -0.6462 -0.0749  0.6968
   75MOL0     C 9995   2.332   8.798   7.392  0.2940 -0.0587  0.7016
   75MOL0     C 9996   2.264   8.839   7.278 -0.4401  0.3636 -0.1041
   75MOL0     C 9997   2.137   8.797   7.242  1.2116  0.8878  0.8811
   75MOL0     O 9998   2.060   8.834   7.129  1.4690 -0.4765 -0.6366
   75MOL0     C 9999   2.103   8.956   7.071 -0.3776 -0.2794  0.0832
   75MOL0     C10000   2.039   8.966   6.927 -0.7267  0.0515 -0.4763
   75MOL0     C10001   1.902   8.914   6.916 -0.0456 -0.1052  0.2248
   75MOL0     C10002   1.859   8.912   6.769 -0.0848 -0.4866  0.3699
   75MOL0     C10003   1.785   9.029   6.713 -0.6818  0.2962  0.7405
   75MOL0     C10004   1.796   9.049   6.558 -1.0234 -0.2273 -0.6754
   75MOL0     C10005   1.747   8.935   6.473  0.8798 -0.8222 -0.3497
   75MOL0     C10006   1.592   8.936   6.444  0.1365 -0.3981 -0.1439
   75MOL0     N10007   1.569   8.858   6.315  0.3445 -0.4582 -0.6345
   75MOL0     C10008   1.564   8.907   6.185  0.1950 -0.2921 -0.1166
   75MOL0     C10009   1.518   8.796   6.119  0.4865  0.6910 -0.2964
   75MOL0     C10010   1.460   8.788   5.979 -0.5360  0.1489 -0.3844
   75MOL0     C10011   1.313   8.847   5.979 -0.3640  0.8225 -0.5078
   75MOL0     C10012   1.236   8.832   5.850 -0.0150  0.9451  0.1140
   75MOL0     C10013   1.252   8.951   5.751  0.2848 -1.0435  0.2147
   75MOL0     O10014   1.132   8.942   5.668 -0.6052  0.1242  0.8331
   75MOL0     C10015   1.107   9.056   5.606 -0.0650 -0.3877  0.5318
   75MOL0     C10016   1.203   9.131   5.528 -0.5797  0.5283  0.3015
   75MOL0     C10017   1.168   9.237   5.441 -0.5189  0.5190 -0.7556
   75MOL0     C10018   1.040   9.281   5.447  0.3859  0.1871  0.4069
   75MOL0     C10019   1.001   9.408   5.374 -0.6726 -0.1100 -0.8418
   75MOL0     O10020   1.067   9.433   5.269 -0.2676  0.5424 -0.4725
   75MOL0     C10021   1.015   9.520   5.173 -0.4461 -0.6656  0.3914
   75MOL0     C10022   1.003   9.484   5.039 -0.4316  1.0497  0.1715
   75MOL0     C10023   0.974   9.577   4.939 -0.1040 -0.5944 -0.5287
   75MOL0     C10024   0.961   9.716   4.977 -1.0514 -0.0328  0.8988
   75MOL0     O10025   0.963   9.820   4.890  0.6876  0.0946  1.1187
   75MOL0     C10026   0.982   9.780   4.751 -0.2198 -0.8561  0.6675
   75MOL0     C10027   1.025   9.903   4.688 -0.0299 -0.4888  0.3728
   75MOL0     C10028   1.059   9.877   4.543  0.1170  0.0891  0.5010
   75MOL0     C10029   1.206   9.827   4.515  0.3544 -0.1401 -0.9769
   75MOL0     C10030   1.311   9.946   4.526  0.9019  0.0552  0.4280
   75MOL0     C10031   1.456   9.896   4.517 -0.4141 -0.4371 -0.0417
   75MOL0     C10032   1.498   9.792   4.622  0.2141 -0.5550  0.3072
   75MOL0     C10033   1.652   9.800   4.657 -1.0552 -0.4032  0.3645
   75MOL0    Cl10034   1.755   9.781   4.508  0.0540 -0.1733  0.6061
   75MOL0     C10035   0.967   9.755   5.110 -0.4347 -0.1328  0.2379
   75MOL0     C10036   1.007   9.654   5.206  0.2733 -1.6246 -1.5546
   75MOL0     O10037   0.915   9.475   5.429 -0.1651 -0.7576 -0.1657
   75MOL0     C10038   0.946   9.222   5.531 -0.4515  0.1659 -0.0327
   75MOL0     C10039   0.979   9.113   5.606  0.1585 -0.3474  0.4476
   75MOL0     N10040   1.519   8.686   6.197  1.2208 -0.0990 -0.4190
   75MOL0     N10041   1.536   8.727   6.318  0.4154  0.7482  0.1951
   75MOL0     C10042   2.074   8.707   7.324  0.0865 -0.0103 -0.5634
   75MOL0     C10043   2.141   8.649   7.430 -0.4426 -0.0035  0.1913
   75MOL0     C10044   2.405   8.629   7.800 -0.0266  0.5660 -0.7655
   75MOL0     C10045   2.404   8.491   7.845 -0.1924 -0.6760  0.1406
   75MOL0     C10046   2.466   8.438   7.952  0.9984  0.2610 -0.7535
   75MOL0     C10047   2.560   8.515   8.017 -0.1744 -0.0115 -0.1194
   75MOL0     O10048   2.634   8.447   8.111  0.1359 -0.2786  0.0476
   75MOL0     C10049   2.758   8.489   8.159  0.1487  0.0531  0.3393
   75MOL0     C10050   2.759   8.558   8.299 -0.1206 -0.3898 -0.3546
   75MOL0     C10051   2.638   8.646   8.323  0.2468  0.0395 -0.0089
   75MOL0     C10052   2.647   8.728   8.455 -1.0335 -0.2192 -0.0895
   75MOL0     C10053   2.747   8.844   8.471  0.2533 -0.7610 -0.6564
   75MOL0     C10054   2.839   8.925   8.494 -0.2883  0.7606 -0.2026
   75MOL0     C10055   2.582   8.644   7.978 -0.4200  0.2869  0.5028
   75MOL0     C10056   2.506   8.706   7.868  0.1613 -0.5157 -0.4401
   75MOL0     C10057   2.519   8.853   7.836 -0.2171  0.7157  0.1948
   75MOL0     H10058   2.432   8.836   7.410  1.7847 -2.6367 -1.2924
   75MOL0     H10059   2.315   8.916   7.220  0.0413 -1.3395 -2.0570
   75MOL0     H10060   2.066   9.044   7.126  1.5072  0.5625  0.0811
   75MOL0     H10061   2.209   8.983   7.072 -0.1776 -1.0128 -0.5878
   75MOL0     H10062   2.109   8.916   6.860  0.4630  2.5384 -1.2289
   75MOL0     H10063   2.046   9.070   6.892  0.0023  0.1817  0.0434
   75MOL0     H10064   1.831   8.975   6.973 -3.0467 -2.6674 -0.5040
   75MOL0     H10065   1.897   8.820   6.972 -0.2759  2.1237  4.3753
   75MOL0     H10066   1.942   8.894   6.700 -0.1342  0.6735 -0.0217
   75MOL0     H10067   1.783   8.833   6.766 -0.3515 -0.2191 -0.2350
   75MOL0     H10068   1.676   9.019   6.725 -1.0137 -1.2869 -2.4079
   75MOL0     H10069   1.817   9.122   6.760 -0.2653 -0.6802  2.4546
   75MOL0     H10070   1.758   9.146   6.526  1.5068  1.2570  0.5347
   75MOL0     H10071   1.902   9.059   6.536 -1.1584 -0.0286 -1.2536
   75MOL0     H10072   1.787   8.845   6.521  1.4270  1.3975  3.8128
   75MOL0     H10073   1.794   8.947   6.375 -1.3136  1.4793 -1.2059
   75MOL0     H10074   1.539   8.896   6.530 -1.0886 -0.4483 -0.9075
   75MOL0     H10075   1.547   9.033   6.420  1.6246  0.3454 -0.0590
   75MOL0     H10076   1.570   9.010   6.152 -1.4170 -0.1514 -0.0390
   75MOL0     H10077   1.520   8.840   5.904  4.3328 -2.0142  1.5836
   75MOL0     H10078   1.459   8.685   5.944 -0.9239  0.7762 -2.3075
   75MOL0     H10079   1.265   8.792   6.061  2.6033  1.0601  1.5235
   75MOL0     H10080   1.314   8.950   6.015  2.9573  0.9398 -0.6871
   75MOL0     H10081   1.132   8.835   5.886 -0.7903 -0.4735 -1.8029
   75MOL0     H10082   1.248   8.732   5.807 -0.9352  1.4117 -1.2921
   75MOL0     H10083   1.343   8.942   5.691 -0.3410 -0.3705 -0.8678
   75MOL0     H10084   1.261   9.044   5.808 -0.7113 -1.3949  0.9805
   75MOL0     H10085   1.307   9.102   5.531 -1.4664 -3.0865  3.6412
   75MOL0     H10086   1.242   9.282   5.375 -0.5508  0.0359 -1.1256
   75MOL0     H10087   1.017   9.380   5.012  0.0532  1.3201 -0.6401
   75MOL0     H10088   0.982   9.548   4.835 -0.7983  1.4771 -1.2202
   75MOL0     H10089   1.061   9.707   4.732 -0.0391 -0.5809  0.3394
   75MOL0     H10090   0.888   9.742   4.708 -0.0101 -3.4279  2.2973
   75MOL0     H10091   0.928   9.951   4.702 -0.9041 -2.8220  3.1653
   75MOL0     H10092   1.105   9.943   4.751 -0.9943 -0.3767  1.5550
   75MOL0     H10093   0.990   9.803   4.502 -1.2676  2.2102 -1.2327
   75MOL0     H10094   1.035   9.967   4.485 -0.8607 -0.5550 -0.1203
   75MOL0     H10095   1.219   9.784   4.415  2.2582  2.2513 -1.8482
   75MOL0     H10096   1.237   9.758   4.594  0.7724  0.4005 -0.6569
   75MOL0     H10097   1.302  10.002   4.619  0.7682 -3.4684  2.7311
   75MOL0     H10098   1.293  10.019   4.446  5.1113 -0.0524 -0.8997
   75MOL0     H10099   1.477   9.848   4.421 -2.3287  0.9972 -1.2397
   75MOL0     H10100   1.515   9.985   4.540 -1.5360  0.0435  1.1143
   75MOL0     H10101   1.464   9.691   4.596  1.8563 -1.0305 -0.1393
   75MOL0     H10102   1.450   9.821   4.716  1.8571 -0.3484  1.1308
   75MOL0     H10103   1.666   9.890   4.718 -1.7040 -0.3740  0.4784
   75MOL0     H10104   1.677   9.716   4.723  2.5230 -0.3435 -0.7019
   75MOL0     H10105   0.944   9.860   5.127  1.9841  0.7050 -1.0930
   75MOL0     H10106   1.015   9.682   5.310 -2.4242 -0.6309 -1.5200
   75MOL0     H10107   0.846   9.263   5.543  0.1886  2.2252 -1.2913
   75MOL0     H10108   0.907   9.076   5.678  1.3876 -0.1722  1.8288
   75MOL0     H10109   1.973   8.667   7.316 -0.6310  1.0826  1.9787
   75MOL0     H10110   2.095   8.578   7.499  1.3004 -0.2419  1.1515
   75MOL0     H10111   2.325   8.435   7.796 -0.3228  1.5410 -2.4499
   75MOL0     H10112   2.438   8.336   7.976 -4.4440  0.3318 -4.8358
   75MOL0     H10113   2.808   8.569   8.103  2.4203 -3.0370 -2.3957
   75MOL0     H10114   2.822   8.401   8.148 -1.5556 -0.8691 -4.3101
   75MOL0     H10115   2.854   8.606   8.323 -0.3886 -0.0111 -0.0259
   75MOL0     H10116   2.753   8.468   8.361  2.0990 -1.2355 -1.2855
   75MOL0     H10117   2.543   8.596   8.347  1.0382 -0.4815  2.1933
   75MOL0     H10118   2.639   8.715   8.238  2.2706 -1.1761 -1.0419
   75MOL0     H10119   2.545   8.767   8.471 -0.5831  0.6803  0.7471
   75MOL0     H10120   2.669   8.665   8.541 -3.8419 -1.0033  0.1528
   75MOL0     H10121   2.922   8.993   8.498 -2.9194  4.4161 -2.2359
   75MOL0     H10122   2.658   8.698   8.033  1.4567  0.5123 -2.1029
   75MOL0     H10123   2.595   8.895   7.903 -1.8491  1.5957  1.5633
   75MOL0     H10124   2.554   8.865   7.733  1.0337 -0.8177  0.3970
   75MOL0     H10125   2.419   8.896   7.839 -2.5818 -3.6182 -3.8227
   76MOL0     O10126   8.389   0.629   2.618  0.0101 -0.1670 -0.4880
   76MOL0     C10127   8.398   0.679   2.729 -0.4197  0.3516  0.1726
   76MOL0     O10128   8.328   0.639   2.835 -0.0476  0.3701 -0.4777
   76MOL0     C10129   8.276   0.513   2.832 -0.2727 -0.4138  0.0679
   76MOL0     C10130   8.153   0.481   2.795  0.1825 -0.3492  1.0040
   76MOL0     C10131   8.102   0.350   2.785  0.7775  0.3343 -0.2350
   76MOL0     C10132   8.190   0.240   2.825  1.9699  0.8811 -0.3228
   76MOL0     O10133   8.150   0.104   2.840 -0.0089 -0.2582  0.1633
   76MOL0     C10134   8.007   0.090   2.833 -0.0071  0.7506  0.3291
   76MOL0     C10135   7.993  -0.057   2.865  0.2690 -0.0950  1.0098
   76MOL0     C10136   7.854  -0.095   2.846 -0.1884  0.4018 -0.7099
   76MOL0     C10137   7.852  -0.249   2.830  0.7123  0.9666 -0.7210
   76MOL0     C10138   7.716  -0.314   2.799 -0.7531 -0.4957  0.3564
   76MOL0     C10139   7.610  -0.296   2.905  0.3132 -0.1184  0.2381
   76MOL0     C10140   7.464  -0.321   2.855 -0.5025  0.2942  0.4221
   76MOL0     C10141   7.366  -0.316   2.970  0.4408  0.0511  0.0855
   76MOL0     N10142   7.237  -0.359   2.926  0.6174 -0.3008  0.4206
   76MOL0     C10143   7.204  -0.487   2.915 -0.3620  0.3533  0.8273
   76MOL0     C10144   7.092  -0.497   2.847  0.9922  0.6044  0.4191
   76MOL0     C10145   7.016  -0.626   2.815  0.6351 -0.2568 -0.2761
   76MOL0     C10146   6.869  -0.599   2.865 -0.2063 -1.0327  0.0259
   76MOL0     C10147   6.865  -0.615   3.020  0.1501  0.5949 -0.1209
   76MOL0     C10148   6.730  -0.560   3.074  0.5542 -0.2327 -0.3164
   76MOL0     O10149   6.620  -0.641   3.018 -0.8079 -0.4234 -0.2785
   76MOL0     C10150   6.502  -0.581   3.020  0.5324 -0.1476  0.2814
   76MOL0     C10151   6.458  -0.464   3.083 -0.1195  0.5161  0.2602
   76MOL0     C10152   6.325  -0.427   3.078  0.3725 -1.0817  0.2697
   76MOL0     C10153   6.225  -0.505   3.016 -0.3865  0.7242  0.3895
   76MOL0     C10154   6.080  -0.457   3.026 -0.0123 -0.8511  0.7756
   76MOL0     O10155   5.988  -0.563   3.039  0.5717 -1.2107  0.1979
   76MOL0     C10156   5.848  -0.556   3.033 -1.2500 -0.0484  0.6910
   76MOL0     C10157   5.783  -0.673   3.037 -0.8064 -0.1885  0.5911
   76MOL0     C10158   5.644  -0.694   3.004 -1.1844 -0.4777  0.0669
   76MOL0     C10159   5.571  -0.571   2.972 -0.0864  1.0705 -1.2155
   76MOL0     O10160   5.435  -0.573   2.941 -0.2888 -0.0649  0.6432
   76MOL0     C10161   5.352  -0.682   2.987 -0.5856 -0.5589 -0.1459
   76MOL0     C10162   5.333  -0.695   3.129  0.3578 -0.1464 -1.1421
   76MOL0     C10163   5.206  -0.635   3.178 -0.1701 -0.4969  0.0085
   76MOL0     C10164   5.214  -0.626   3.330 -0.4684  0.5669 -0.3834
   76MOL0     C10165   5.100  -0.553   3.396 -1.0476  0.5733  0.1359
   76MOL0     C10166   4.956  -0.620   3.390  0.4328  0.7496 -0.7034
   76MOL0     C10167   4.841  -0.534   3.452  0.1082  0.3990  0.6309
   76MOL0     C10168   4.699  -0.568   3.405  0.5282  0.6977 -0.5836
   76MOL0    Cl10169   4.579  -0.472   3.496  0.3709 -0.4742  0.9015
   76MOL0     C10170   5.638  -0.443   2.978 -0.4258 -1.1375 -1.0167
   76MOL0     C10171   5.777  -0.440   3.005  0.3298 -0.6213  0.9170
   76MOL0     O10172   6.064  -0.335   3.046  0.8369 -0.2932  0.2253
   76MOL0     C10173   6.265  -0.625   2.955 -0.6032  0.3268 -0.7098
   76MOL0     C10174   6.399  -0.661   2.961  0.2299  0.2977  0.1232
   76MOL0     N10175   7.053  -0.370   2.805  0.3009  0.0127 -0.1070
   76MOL0     N10176   7.136  -0.289   2.855  0.1575  0.1159 -0.1793
   76MOL0     C10177   8.314   0.271   2.871  0.3550  0.0749 -0.8216
   76MOL0     C10178   8.364   0.408   2.871  0.3338  0.1033 -0.7124
   76MOL0     C10179   8.485   0.790   2.769 -0.1432 -0.1928 -0.7247
   76MOL0     C10180   8.526   0.794   2.898  0.1705  1.0953  0.8458
   76MOL0     C10181   8.597   0.900   2.946 -1.1197  0.8053 -0.2632
   76MOL0     C10182   8.650   1.009   2.863  0.0503 -0.3697  0.2731
   76MOL0     O10183   8.732   1.104   2.922  0.6395  1.1241 -0.6027
   76MOL0     C10184   8.808   1.205   2.843  0.4129 -0.5683  0.4512
   76MOL0     C10185   8.939   1.148   2.785  0.2562 -0.9814 -1.2328
   76MOL0     C10186   9.062   1.162   2.876  0.6543  0.2889 -0.6722
   76MOL0     C10187   9.045   1.099   3.019 -0.0409 -0.1524  0.4151
   76MOL0     C10188   9.168   1.125   3.107  0.5570 -0.2651  0.1540
   76MOL0     C10189   9.250   1.175   3.172  0.6215  0.4641 -0.1810
   76MOL0     C10190   8.609   0.999   2.730 -0.5330  0.1236 -0.2155
   76MOL0     C10191   8.522   0.892   2.685  0.2324 -0.4882 -0.1605
   76MOL0     C10192   8.460   0.912   2.556 -0.6029  0.0054  0.8386
   76MOL0     H10193   8.093   0.567   2.767  3.9968  1.7152 -1.7391
   76MOL0     H10194   8.000   0.342   2.749  1.3863 -0.8839 -1.7892
   76MOL0     H10195   7.965   0.156   2.909 -0.7829 -0.9466  1.4469
   76MOL0     H10196   7.978   0.111   2.729  1.9707  1.7572 -0.0736
   76MOL0     H10197   8.027  -0.090   2.964 -3.2534 -3.0818  1.4378
   76MOL0     H10198   8.053  -0.103   2.785 -1.5584  3.2799 -2.6523
   76MOL0     H10199   7.810  -0.056   2.753 -0.6843  0.2858 -0.5303
   76MOL0     H10200   7.802  -0.066   2.938 -2.6614 -0.8898 -1.6008
   76MOL0     H10201   7.929  -0.276   2.757  1.4561  2.0113 -0.3536
   76MOL0     H10202   7.888  -0.313   2.912 -0.5263 -1.3844 -1.9162
   76MOL0     H10203   7.697  -0.275   2.699  3.9220 -1.0424 -1.0011
   76MOL0     H10204   7.726  -0.423   2.796 -0.5256 -0.4600 -0.2056
   76MOL0     H10205   7.635  -0.354   2.994  2.7488  0.1819 -0.2068
   76MOL0     H10206   7.617  -0.193   2.942  2.8421 -0.1589  0.0156
   76MOL0     H10207   7.458  -0.416   2.802 -1.8722  0.1346  0.8359
   76MOL0     H10208   7.438  -0.242   2.784 -0.0882 -0.6136 -0.7694
   76MOL0     H10209   7.381  -0.368   3.065 -0.5443  3.5097  2.3508
   76MOL0     H10210   7.351  -0.215   3.010  0.2546 -0.2343  0.7435
   76MOL0     H10211   7.252  -0.567   2.970 -1.6597  0.2875  1.9214
   76MOL0     H10212   7.008  -0.635   2.706 -2.0880  2.9649 -0.4854
   76MOL0     H10213   7.065  -0.711   2.864  0.1811 -0.2185  0.2554
   76MOL0     H10214   6.831  -0.503   2.830  1.1031  0.0181  1.3495
   76MOL0     H10215   6.799  -0.664   2.812 -1.2783  0.8415 -0.9747
   76MOL0     H10216   6.946  -0.553   3.058 -0.3474  0.6905  0.8044
   76MOL0     H10217   6.877  -0.720   3.049  0.3259  0.6656  0.0591
   76MOL0     H10218   6.726  -0.454   3.046 -0.2362 -0.1696  0.0178
   76MOL0     H10219   6.723  -0.573   3.182 -3.8152 -0.8643 -0.5229
   76MOL0     H10220   6.531  -0.401   3.133  0.2454  3.9054 -3.9363
   76MOL0     H10221   6.287  -0.334   3.121  3.9936 -0.1931  1.9636
   76MOL0     H10222   5.843  -0.755   3.075  0.8145  0.5491 -0.2846
   76MOL0     H10223   5.600  -0.792   2.993 -1.5936 -0.2756 -0.1304
   76MOL0     H10224   5.259  -0.676   2.930 -1.1827 -2.0111  0.6243
   76MOL0     H10225   5.399  -0.770   2.942  2.5152  2.1089 -2.5816
   76MOL0     H10226   5.340  -0.801   3.154 -5.4780 -1.1693 -2.3179
   76MOL0     H10227   5.404  -0.631   3.182 -1.6611 -0.1768  1.8503
   76MOL0     H10228   5.195  -0.534   3.136  1.6411  0.1132  0.9143
   76MOL0     H10229   5.123  -0.703   3.156  0.3874 -1.1095 -0.2279
   76MOL0     H10230   5.304  -0.583   3.374 -0.9552  2.9582 -1.5976
   76MOL0     H10231   5.202  -0.726   3.374 -1.6968  0.5817 -0.6451
   76MOL0     H10232   5.101  -0.452   3.352 -3.8234 -0.4422 -2.6580
   76MOL0     H10233   5.131  -0.535   3.499  1.4894 -2.5905  0.0970
   76MOL0     H10234   4.923  -0.636   3.287 -0.2626 -0.8959 -0.2633
   76MOL0     H10235   4.959  -0.714   3.447 -1.4017  1.6454  1.0126
   76MOL0     H10236   4.859  -0.433   3.416 -0.3341 -0.1813 -1.3549
   76MOL0     H10237   4.848  -0.536   3.561  1.3297 -0.7559  0.5601
   76MOL0     H10238   4.684  -0.546   3.299  1.9864  1.1796 -0.7252
   76MOL0     H10239   4.695  -0.676   3.420  0.2675  0.8300  0.3980
   76MOL0     H10240   5.576  -0.355   2.967  1.0979  0.4787  1.9977
   76MOL0     H10241   5.824  -0.343   2.993 -1.6765  0.2510 -0.6211
   76MOL0     H10242   6.190  -0.696   2.921  1.1826 -2.3964  0.6649
   76MOL0     H10243   6.426  -0.761   2.928  0.5050  0.8787 -1.5156
   76MOL0     H10244   8.378   0.185   2.885 -0.0013  0.1801  1.8823
   76MOL0     H10245   8.468   0.436   2.875  0.7136 -0.9656 -2.2144
   76MOL0     H10246   8.525   0.712   2.968 -0.4585  2.2190  2.2170
   76MOL0     H10247   8.625   0.908   3.051  1.1466  2.2147 -0.8973
   76MOL0     H10248   8.839   1.293   2.901  2.9899 -1.5700  0.7517
   76MOL0     H10249   8.753   1.228   2.752  1.7145  2.0182  0.1955
   76MOL0     H10250   8.970   1.191   2.689  1.4063 -1.3980 -1.0716
   76MOL0     H10251   8.922   1.040   2.780 -0.4174 -0.9590  0.3157
   76MOL0     H10252   9.099   1.263   2.895  0.1888 -0.0847  2.8820
   76MOL0     H10253   9.144   1.117   2.818  2.2024  2.7247 -0.5401
   76MOL0     H10254   8.955   1.143   3.064 -1.2094 -0.8026 -1.2234
   76MOL0     H10255   9.020   0.994   3.003  0.3125 -0.3841  1.3151
   76MOL0     H10256   9.316   1.230   3.236  1.4223 -0.5941 -0.0637
   76MOL0     H10257   8.648   1.073   2.660 -1.5724 -1.4755 -2.6104
   76MOL0     H10258   8.485   0.823   2.497  0.8729  1.5741 -1.0108
   76MOL0     H10259   8.352   0.921   2.572 -0.2184  2.3079  2.5980
   76MOL0     H10260   8.486   1.006   2.507 -4.3433 -0.2044 -2.0640
   77MOL0     O10261   7.228   4.973   1.564  0.5225  0.6606  0.1100
   77MOL0     C10262   7.246   5.084   1.522  0.4294 -0.1346 -0.5349
   77MOL0     O10263   7.145   5.155   1.452  0.3440 -0.1706  0.0425
   77MOL0     C10264   7.063   5.089   1.365 -0.0669  0.5010  0.1585
   77MOL0     C10265   7.046   4.952   1.340  0.4909 -0.4101 -0.0144
   77MOL0     C10266   6.959   4.914   1.238 -0.3281  0.0698 -0.5607
   77MOL0     C10267   6.892   4.998   1.158  0.2514 -0.6310 -0.8582
   77MOL0     O10268   6.839   4.950   1.038 -0.1189  0.0292  0.2666
   77MOL0     C10269   6.705   4.993   1.007  0.4415 -0.0470 -0.2176
   77MOL0     C10270   6.601   4.927   1.101  0.6053  0.7950 -0.2706
   77MOL0     C10271   6.585   4.782   1.082 -0.0843  0.8260 -0.1727
   77MOL0     C10272   6.494   4.716   1.192  0.0017  0.0641 -0.3372
   77MOL0     C10273   6.345   4.763   1.199  0.1342 -0.3277  0.6450
   77MOL0     C10274   6.266   4.688   1.308  0.1355  0.2439 -0.5309
   77MOL0     C10275   6.274   4.748   1.454  0.6848 -0.3879 -0.2738
   77MOL0     C10276   6.214   4.652   1.550 -0.1896  0.6333 -1.1609
   77MOL0     N10277   6.300   4.535   1.574 -0.1818 -0.0583  0.2453
   77MOL0     C10278   6.412   4.541   1.657  0.4141  0.9149  0.4340
   77MOL0     C10279   6.461   4.413   1.646  0.8245  0.4207 -0.3548
   77MOL0     C10280   6.565   4.373   1.736  0.7425 -0.2660  0.4982
   77MOL0     C10281   6.655   4.262   1.679  0.0319  0.0248 -0.4518
   77MOL0     C10282   6.754   4.201   1.779 -0.1014  0.2707 -0.4870
   77MOL0     C10283   6.827   4.300   1.875  1.5388 -0.4281  0.8773
   77MOL0     O10284   6.864   4.425   1.821 -0.7625  0.0521  0.1476
   77MOL0     C10285   6.936   4.518   1.899  0.2542 -0.1102  0.0395
   77MOL0     C10286   6.942   4.522   2.046  1.0387 -0.6528  0.4299
   77MOL0     C10287   7.029   4.611   2.105  0.5066 -0.4266  0.3240
   77MOL0     C10288   7.122   4.691   2.038  0.0639 -0.0072  0.3868
   77MOL0     C10289   7.207   4.782   2.105  0.7328  0.5875 -1.0936
   77MOL0     O10290   7.310   4.837   2.036 -0.8947 -0.2939 -0.8334
   77MOL0     C10291   7.360   4.963   2.073  0.2866  1.3537  0.4973
   77MOL0     C10292   7.496   4.995   2.092  0.6567 -0.0920 -0.1027
   77MOL0     C10293   7.542   5.130   2.118  0.7323 -0.4215 -0.6661
   77MOL0     C10294   7.447   5.234   2.133 -0.7252  0.4516 -0.4297
   77MOL0     O10295   7.488   5.359   2.173 -0.1280  0.2300  0.7884
   77MOL0     C10296   7.597   5.362   2.268 -0.7666  0.2740 -0.4568
   77MOL0     C10297   7.609   5.487   2.369  0.5095  0.3983  0.7225
   77MOL0     C10298   7.493   5.479   2.476 -0.5479  0.6913 -0.6312
   77MOL0     C10299   7.532   5.562   2.601 -0.0501  0.1974  0.0223
   77MOL0     C10300   7.408   5.568   2.692 -0.1299 -0.7198 -0.1321
   77MOL0     C10301   7.434   5.634   2.827 -0.8039  0.6126  0.3510
   77MOL0     C10302   7.301   5.670   2.899 -0.0011 -0.7696  0.2753
   77MOL0     C10303   7.319   5.724   3.041 -0.6717  0.5416  0.5333
   77MOL0    Cl10304   7.404   5.612   3.157 -0.1022  0.1013  0.2080
   77MOL0     C10305   7.310   5.202   2.108  0.2241  0.4884  0.3733
   77MOL0     C10306   7.268   5.071   2.074 -0.5103  0.0677  0.5471
   77MOL0     O10307   7.191   4.799   2.225  0.0598 -0.1843  0.1332
   77MOL0     C10308   7.112   4.699   1.896 -0.3400  0.3312 -1.1458
   77MOL0     C10309   7.027   4.602   1.831 -0.4989  0.1452 -0.0838
   77MOL0     N10310   6.380   4.329   1.563 -0.1321 -0.0369  0.1053
   77MOL0     N10311   6.281   4.406   1.531  0.1085  0.7642 -0.5212
   77MOL0     C10312   6.917   5.138   1.176 -0.6173  0.4256  0.8554
   77MOL0     C10313   7.005   5.183   1.275  0.4978  0.6347  0.6154
   77MOL0     C10314   7.373   5.160   1.546  0.5080  0.5793 -0.8496
   77MOL0     C10315   7.380   5.284   1.483 -1.3072  0.5294 -0.6353
   77MOL0     C10316   7.494   5.373   1.515 -0.0997 -1.1059 -0.2253
   77MOL0     C10317   7.589   5.335   1.604 -0.0423  0.9789 -0.8421
   77MOL0     O10318   7.701   5.409   1.624  1.2380  0.1882 -0.4872
   77MOL0     C10319   7.681   5.545   1.665 -0.6962 -0.1034  0.4610
   77MOL0     C10320   7.670   5.535   1.817  0.0376 -0.0175 -0.2513
   77MOL0     C10321   7.806   5.486   1.866 -0.3202 -0.5870 -1.1058
   77MOL0     C10322   7.894   5.609   1.894 -0.7970  0.8034  0.0862
   77MOL0     C10323   7.849   5.673   2.020  1.1234 -0.4194  0.6969
   77MOL0     C10324   7.804   5.712   2.122  0.3563 -0.5722 -0.3782
   77MOL0     C10325   7.577   5.209   1.665 -0.4483 -0.5434  1.0637
   77MOL0     C10326   7.468   5.120   1.642  0.5949 -0.2948 -0.3423
   77MOL0     C10327   7.476   4.998   1.721 -0.0819  0.9380  0.2959
   77MOL0     H10328   7.089   4.876   1.404  0.9211 -1.1290 -1.1358
   77MOL0     H10329   6.943   4.808   1.224  0.8181 -0.0133 -1.3235
   77MOL0     H10330   6.702   5.102   1.012  2.6671  0.0586 -0.3352
   77MOL0     H10331   6.677   4.967   0.905  1.8186 -2.8673  0.0323
   77MOL0     H10332   6.506   4.974   1.075 -0.4855 -2.1192 -1.9981
   77MOL0     H10333   6.624   4.936   1.208 -2.7190 -2.7785  0.9840
   77MOL0     H10334   6.682   4.735   1.097  1.4231  4.2096  1.8184
   77MOL0     H10335   6.548   4.759   0.982 -0.9875  0.1924  0.2937
   77MOL0     H10336   6.500   4.607   1.187  0.2504  0.0306  0.5506
   77MOL0     H10337   6.543   4.732   1.288 -2.9517 -2.4045  1.7762
   77MOL0     H10338   6.349   4.869   1.225  1.3775 -0.3823  0.7248
   77MOL0     H10339   6.304   4.751   1.098  1.0762  2.3651 -0.1379
   77MOL0     H10340   6.159   4.675   1.293  0.2652 -0.0541 -1.2338
   77MOL0     H10341   6.310   4.590   1.326  1.2340  0.9216  0.6452
   77MOL0     H10342   6.207   4.835   1.460  0.8330 -0.3072  4.8531
   77MOL0     H10343   6.374   4.776   1.487  0.6218  1.9934 -1.8482
   77MOL0     H10344   6.200   4.697   1.649 -0.5695  0.1837 -1.0050
   77MOL0     H10345   6.115   4.629   1.509  0.1202 -1.1341 -0.9968
   77MOL0     H10346   6.454   4.628   1.706  0.6265  0.4299  1.1240
   77MOL0     H10347   6.620   4.465   1.753  0.4721  0.6179 -2.6973
   77MOL0     H10348   6.509   4.346   1.825 -0.1530 -5.8505 -1.3463
   77MOL0     H10349   6.599   4.182   1.629 -1.2355  0.3531  0.3758
   77MOL0     H10350   6.710   4.307   1.596  1.1372 -3.1478 -1.5780
   77MOL0     H10351   6.825   4.143   1.719  0.6510  1.3762 -0.6918
   77MOL0     H10352   6.689   4.138   1.841 -0.0050  0.5179 -0.1361
   77MOL0     H10353   6.918   4.250   1.910  2.7938 -0.2959 -1.9470
   77MOL0     H10354   6.759   4.328   1.956  2.2959  2.9063  0.5133
   77MOL0     H10355   6.877   4.455   2.102  0.8414 -0.5295  0.3472
   77MOL0     H10356   7.030   4.612   2.213  3.6528 -2.0421  0.4129
   77MOL0     H10357   7.562   4.909   2.085 -1.0472 -1.3226 -1.8989
   77MOL0     H10358   7.649   5.150   2.120  0.2535  2.5713 -0.3629
   77MOL0     H10359   7.591   5.272   2.329  1.1597 -1.3025 -2.4294
   77MOL0     H10360   7.691   5.360   2.212  0.7879  1.5978  1.9269
   77MOL0     H10361   7.704   5.485   2.423 -0.4312  0.6460  2.4444
   77MOL0     H10362   7.600   5.581   2.314 -1.8223 -0.5847 -0.7724
   77MOL0     H10363   7.407   5.523   2.424  1.6846  1.9560 -3.6135
   77MOL0     H10364   7.466   5.377   2.504 -1.6077  0.7480 -1.3722
   77MOL0     H10365   7.568   5.656   2.558  3.0408 -1.3370 -1.0224
   77MOL0     H10366   7.619   5.531   2.658 -0.6241 -0.4345  0.5707
   77MOL0     H10367   7.376   5.470   2.731 -0.0419  0.0482  2.0165
   77MOL0     H10368   7.327   5.616   2.637 -2.0448 -2.4073  1.0337
   77MOL0     H10369   7.488   5.579   2.905 -2.1873 -0.8248  0.3575
   77MOL0     H10370   7.485   5.727   2.805  1.1293 -0.5494 -0.2971
   77MOL0     H10371   7.239   5.582   2.921 -1.2649  0.0412  0.0122
   77MOL0     H10372   7.239   5.736   2.838  2.4043  2.3010  0.8798
   77MOL0     H10373   7.381   5.813   3.046  0.1301 -0.0522  1.4685
   77MOL0     H10374   7.231   5.747   3.101 -0.5590 -0.5446  1.1473
   77MOL0     H10375   7.242   5.286   2.117 -2.7889 -1.9431  2.6366
   77MOL0     H10376   7.163   5.054   2.052 -0.5834  0.5715  0.5140
   77MOL0     H10377   7.164   4.763   1.826 -0.6436  2.7036  0.6668
   77MOL0     H10378   7.035   4.569   1.728 -0.7099 -1.9084  0.4937
   77MOL0     H10379   6.877   5.205   1.100  0.7548 -1.5784 -1.7871
   77MOL0     H10380   7.017   5.290   1.267  0.5737  0.7466  1.8935
   77MOL0     H10381   7.302   5.323   1.418 -1.0672 -0.9626 -1.8652
   77MOL0     H10382   7.496   5.469   1.464  3.1523 -2.3079 -2.6425
   77MOL0     H10383   7.595   5.587   1.612  0.4288 -0.6470 -1.9282
   77MOL0     H10384   7.762   5.611   1.633 -2.4125  0.9114 -2.0839
   77MOL0     H10385   7.591   5.464   1.843  0.8026 -0.9706 -0.4876
   77MOL0     H10386   7.650   5.632   1.863  2.4262 -1.3302  4.0808
   77MOL0     H10387   7.859   5.425   1.792 -0.8540 -0.3842 -1.6579
   77MOL0     H10388   7.783   5.423   1.953 -1.2542  0.5852 -0.4805
   77MOL0     H10389   7.992   5.573   1.924 -1.5361 -2.4370 -0.9318
   77MOL0     H10390   7.909   5.667   1.802 -0.0888 -0.7554 -0.8137
   77MOL0     H10391   7.773   5.743   2.220  0.4463 -0.6935 -0.3111
   77MOL0     H10392   7.657   5.180   1.732  0.2624 -1.0056  0.0608
   77MOL0     H10393   7.386   4.941   1.747  2.3102 -2.6598  1.4391
   77MOL0     H10394   7.540   4.931   1.664 -0.0933  1.3373 -0.1958
   77MOL0     H10395   7.523   5.014   1.819 -0.8285  0.1562  0.7980
   78MOL0     O10396   3.283   7.120  10.042 -0.2949 -0.0272 -0.8560
   78MOL0     C10397   3.199   7.147  10.133 -0.3470  0.6774  0.4698
   78MOL0     O10398   3.098   7.231  10.127 -0.3895 -0.3301  0.3269
   78MOL0     C10399   3.100   7.342  10.032 -0.4011  0.3452 -0.3901
   78MOL0     C10400   3.177   7.361   9.913 -0.2443  1.3408 -0.1744
   78MOL0     C10401   3.147   7.465   9.829  0.6156  0.1110  0.6480
   78MOL0     C10402   3.045   7.555   9.852  0.0250 -0.0741  0.1447
   78MOL0     O10403   3.003   7.660   9.767 -0.0414  0.1095 -0.4936
   78MOL0     C10404   3.000   7.643   9.628  0.8941 -1.2690 -0.1802
   78MOL0     C10405   2.892   7.536   9.609 -0.2566  1.2319  0.5357
   78MOL0     C10406   2.846   7.537   9.463  0.4267 -0.2614  0.3408
   78MOL0     C10407   2.695   7.553   9.457 -0.2710  1.0111  0.7099
   78MOL0     C10408   2.634   7.530   9.309 -0.9870 -0.1790  0.0308
   78MOL0     C10409   2.674   7.395   9.243 -0.1117  1.2074  0.8614
   78MOL0     C10410   2.561   7.349   9.134 -1.0480 -0.7426  0.3734
   78MOL0     C10411   2.467   7.241   9.195  0.5716 -0.3837 -0.6197
   78MOL0     N10412   2.378   7.299   9.297  0.7937 -0.9607  0.1590
   78MOL0     C10413   2.270   7.377   9.273  1.0202  0.1297 -0.2754
   78MOL0     C10414   2.221   7.422   9.389 -0.0039  0.2995  0.3395
   78MOL0     C10415   2.084   7.488   9.421 -0.8024  0.8981  0.1560
   78MOL0     C10416   2.099   7.560   9.554 -0.3280 -0.6663 -0.7751
   78MOL0     C10417   2.201   7.672   9.559  0.1414 -0.3420  0.6253
   78MOL0     C10418   2.176   7.773   9.661 -0.1823 -0.0462 -0.7096
   78MOL0     O10419   2.295   7.855   9.686  0.3701  0.0967  0.0443
   78MOL0     C10420   2.294   7.967   9.773  0.1387 -0.0021  0.0088
   78MOL0     C10421   2.174   8.027   9.830 -0.5048  0.2100  1.3911
   78MOL0     C10422   2.191   8.148   9.904 -0.9697  0.4663  0.9618
   78MOL0     C10423   2.321   8.194   9.929 -0.3090 -0.0464  0.0599
   78MOL0     C10424   2.326   8.323  10.002  0.6842  0.3143  0.6393
   78MOL0     O10425   2.205   8.373  10.027  0.1017  0.5593 -0.7776
   78MOL0     C10426   2.181   8.458  10.138  0.4671 -0.0770  0.9099
   78MOL0     C10427   2.195   8.425  10.275 -0.1117 -0.5997  0.4174
   78MOL0     C10428   2.196   8.524  10.380 -0.0856  0.0247 -0.1161
   78MOL0     C10429   2.160   8.659  10.336 -0.1647  0.1589  1.0762
   78MOL0     O10430   2.159   8.758  10.423  0.4230  0.4463 -0.1776
   78MOL0     C10431   2.076   8.877  10.394  0.5862  0.3864 -0.3051
   78MOL0     C10432   2.062   8.964  10.520 -0.3747 -0.4190 -0.1853
   78MOL0     C10433   1.980   9.086  10.479  0.2139  0.2532  0.4039
   78MOL0     C10434   2.062   9.209  10.418  0.6682 -0.3409  0.7441
   78MOL0     C10435   2.140   9.286  10.523  0.2830  1.1045  0.0175
   78MOL0     C10436   2.242   9.372  10.454 -0.7291 -0.4822  0.1555
   78MOL0     C10437   2.307   9.490  10.532 -0.4700  1.4148 -0.6954
   78MOL0     C10438   2.229   9.628  10.525 -0.1699  0.1808  0.0857
   78MOL0    Cl10439   2.100   9.635  10.648 -0.0466 -0.1965  0.2185
   78MOL0     C10440   2.135   8.685  10.195 -0.0921  0.6536 -0.8089
   78MOL0     C10441   2.147   8.589  10.102  0.4722 -0.3070 -0.2641
   78MOL0     O10442   2.430   8.375  10.021 -0.2192  0.4903 -0.3621
   78MOL0     C10443   2.438   8.136   9.874  0.1584  0.7799  0.2801
   78MOL0     C10444   2.420   8.016   9.801 -0.6873  0.2621 -0.9793
   78MOL0     N10445   2.327   7.396   9.481 -0.1411  0.2651 -0.0302
   78MOL0     N10446   2.412   7.319   9.425 -0.2682 -0.3086  0.4095
   78MOL0     C10447   2.970   7.548   9.969  0.6524 -0.2241 -0.8334
   78MOL0     C10448   3.003   7.447  10.061 -0.0993  1.0606 -0.2515
   78MOL0     C10449   3.220   7.061  10.252  1.0309  0.1936 -0.4279
   78MOL0     C10450   3.340   6.986  10.269  0.5614 -0.4277  0.3686
   78MOL0     C10451   3.361   6.907  10.387 -1.2442 -0.7742 -0.4012
   78MOL0     C10452   3.268   6.913  10.497 -0.3278 -0.2072 -1.0303
   78MOL0     O10453   3.278   6.850  10.620  0.4799 -0.3681 -0.9753
   78MOL0     C10454   3.400   6.803  10.672 -0.4988  0.3727 -0.8190
   78MOL0     C10455   3.359   6.709  10.794  0.7115  0.4151  0.2515
   78MOL0     C10456   3.406   6.787  10.921 -0.0143 -0.2532 -0.2750
   78MOL0     C10457   3.347   6.731  11.048 -0.0063 -0.4313 -0.2797
   78MOL0     C10458   3.368   6.590  11.066  0.0042  0.5817  0.2187
   78MOL0     C10459   3.383   6.464  11.068  0.7202 -0.7251  0.4039
   78MOL0     C10460   3.155   7.001  10.478 -1.0532 -0.0865 -0.3837
   78MOL0     C10461   3.123   7.071  10.361  0.7301  0.8622  0.0194
   78MOL0     C10462   2.977   7.129  10.359  0.2156  0.9587 -0.3627
   78MOL0     H10463   3.256   7.299   9.872  0.8352  0.4317  2.9840
   78MOL0     H10464   3.199   7.472   9.734 -4.9841  1.8276 -2.7130
   78MOL0     H10465   2.986   7.741   9.581  3.2090 -0.7139  0.1946
   78MOL0     H10466   3.095   7.600   9.594  1.8154 -0.7304  1.6003
   78MOL0     H10467   2.802   7.563   9.665 -2.0447  0.7921 -1.9465
   78MOL0     H10468   2.937   7.440   9.637 -3.4552  0.3984  3.3482
   78MOL0     H10469   2.874   7.441   9.419 -1.1207 -0.2261 -0.7905
   78MOL0     H10470   2.897   7.615   9.405 -1.6899  1.4050  0.5884
   78MOL0     H10471   2.657   7.467   9.513 -1.7880  0.3946 -1.1500
   78MOL0     H10472   2.660   7.641   9.513 -3.2599  0.2758  0.1810
   78MOL0     H10473   2.525   7.539   9.316 -1.0214  2.2201 -2.2129
   78MOL0     H10474   2.672   7.614   9.251  0.2448 -3.9378 -5.4179
   78MOL0     H10475   2.773   7.396   9.196 -1.3375 -0.2006 -2.0018
   78MOL0     H10476   2.691   7.325   9.326  3.1496  2.4833  1.4023
   78MOL0     H10477   2.616   7.321   9.044  4.1363  0.7691  2.6566
   78MOL0     H10478   2.506   7.442   9.116  0.2586  0.1429  0.8388
   78MOL0     H10479   2.410   7.187   9.119  1.3241 -2.3092  0.0947
   78MOL0     H10480   2.520   7.165   9.253  3.2848  2.5514  1.0453
   78MOL0     H10481   2.211   7.397   9.184 -2.6124  0.9701  2.0914
   78MOL0     H10482   2.069   7.566   9.346  2.0620  2.4425  1.0177
   78MOL0     H10483   2.003   7.415   9.423  0.8641 -1.1235 -1.6036
   78MOL0     H10484   2.005   7.597   9.596  0.6071 -2.4592  3.4009
   78MOL0     H10485   2.129   7.494   9.636 -1.6994  1.3159  1.4479
   78MOL0     H10486   2.202   7.724   9.463 -2.3359  3.5996  2.5159
   78MOL0     H10487   2.301   7.631   9.575 -1.1797 -4.5658 -0.6592
   78MOL0     H10488   2.145   7.724   9.755  0.2020  2.5852  0.8838
   78MOL0     H10489   2.094   7.841   9.639  1.2727  1.9000 -0.4496
   78MOL0     H10490   2.080   7.986   9.794 -0.1966 -0.9083  1.8341
   78MOL0     H10491   2.091   8.186   9.924 -2.3477 -1.7455 -1.1196
   78MOL0     H10492   2.216   8.320  10.291  4.7177  0.2114  0.9627
   78MOL0     H10493   2.212   8.494  10.483  0.3681  0.5926 -0.0153
   78MOL0     H10494   2.136   8.933  10.322  2.5041 -2.1939 -0.8593
   78MOL0     H10495   1.975   8.860  10.356  0.0634 -1.0939  1.5718
   78MOL0     H10496   2.012   8.909  10.601 -1.1513  0.6279  0.0717
   78MOL0     H10497   2.164   8.991  10.549 -0.2628  0.8005 -1.6391
   78MOL0     H10498   1.904   9.059  10.405  0.3031 -1.8729  1.0141
   78MOL0     H10499   1.927   9.120  10.568 -0.6676  0.8138 -0.3099
   78MOL0     H10500   1.995   9.284  10.375  1.9927 -1.8888 -4.8637
   78MOL0     H10501   2.118   9.182  10.328 -0.4242  2.1558 -0.7980
   78MOL0     H10502   2.203   9.217  10.578 -0.6970 -0.6071 -0.9277
   78MOL0     H10503   2.076   9.327  10.602 -1.7152 -0.8943 -0.4378
   78MOL0     H10504   2.325   9.305  10.430  0.1958 -0.3563  2.6895
   78MOL0     H10505   2.213   9.406  10.355 -0.2301 -0.8147 -0.1112
   78MOL0     H10506   2.406   9.505  10.487  0.5733  1.2091  1.3745
   78MOL0     H10507   2.309   9.461  10.638 -3.5263 -1.7724 -1.3331
   78MOL0     H10508   2.309   9.700  10.542  0.8923 -1.0345  0.3494
   78MOL0     H10509   2.195   9.637  10.421  2.4172 -0.7843 -0.9129
   78MOL0     H10510   2.114   8.785  10.160  2.7112  1.2185 -1.1317
   78MOL0     H10511   2.119   8.611   9.999  2.1550  2.9371 -0.1496
   78MOL0     H10512   2.538   8.177   9.882 -0.5723  2.7413 -0.1323
   78MOL0     H10513   2.507   7.957   9.774 -1.0389  0.1005 -1.8033
   78MOL0     H10514   2.901   7.632   9.977 -0.0313 -0.9266  2.1873
   78MOL0     H10515   2.939   7.439  10.148  0.0862  1.3433 -0.0894
   78MOL0     H10516   3.413   6.983  10.189 -0.2977  2.8838 -0.6934
   78MOL0     H10517   3.453   6.849  10.398 -0.8021 -0.0867 -0.4141
   78MOL0     H10518   3.462   6.887  10.706 -3.8751  2.2208  1.4676
   78MOL0     H10519   3.456   6.745  10.599 -1.9028  0.2307 -1.8295
   78MOL0     H10520   3.414   6.616  10.784  2.9737  1.9293 -4.0168
   78MOL0     H10521   3.250   6.698  10.802  0.2913  3.0893 -0.7851
   78MOL0     H10522   3.377   6.892  10.929  1.5719  0.3428 -1.7449
   78MOL0     H10523   3.515   6.793  10.919 -0.0867  4.0435 -2.0181
   78MOL0     H10524   3.388   6.780  11.137 -0.7734  2.5307 -1.4270
   78MOL0     H10525   3.240   6.754  11.041  0.2895  0.7217 -1.2831
   78MOL0     H10526   3.391   6.357  11.066  0.7925 -0.7203 -2.1384
   78MOL0     H10527   3.107   7.017  10.574  1.4739 -5.3251  2.1843
   78MOL0     H10528   2.922   7.090  10.446  2.7754  1.0889  1.4089
   78MOL0     H10529   2.983   7.238  10.355  0.9551  0.9533  0.4654
   78MOL0     H10530   2.923   7.104  10.267  1.6348 -1.6052 -0.5897
   79MOL0     O10531   8.506   6.964   6.897  0.6673  0.1800  0.3381
   79MOL0     C10532   8.514   6.841   6.918  0.0431  0.1753 -0.8950
   79MOL0     O10533   8.414   6.746   6.952  0.0724  0.3041  0.1721
   79MOL0     C10534   8.284   6.773   6.995  0.1733  0.0349 -0.7006
   79MOL0     C10535   8.190   6.678   6.981  0.7242 -0.0880  0.3787
   79MOL0     C10536   8.068   6.697   7.039  0.7063 -0.0822 -0.5130
   79MOL0     C10537   8.027   6.817   7.093  0.6190 -1.3828  0.1037
   79MOL0     O10538   7.895   6.843   7.145 -0.5718  0.1918 -0.4987
   79MOL0     C10539   7.795   6.734   7.136 -0.2269 -0.2435  0.7729
   79MOL0     C10540   7.668   6.783   7.199 -0.5287  1.3815  0.5078
   79MOL0     C10541   7.573   6.667   7.182  0.7919  0.0643  0.5269
   79MOL0     C10542   7.434   6.684   7.265 -0.4103  0.4327  0.5145
   79MOL0     C10543   7.306   6.627   7.188  0.4695 -0.6770 -1.0332
   79MOL0     C10544   7.253   6.720   7.085  0.7951  0.4284  0.0302
   79MOL0     C10545   7.105   6.713   7.045 -0.5959  0.0565 -0.6845
   79MOL0     C10546   6.989   6.763   7.141  0.7928 -0.2841 -1.0258
   79MOL0     N10547   6.975   6.909   7.169  0.4476 -0.0774 -1.0397
   79MOL0     C10548   6.879   6.970   7.240 -0.1696 -0.0365 -0.0104
   79MOL0     C10549   6.918   7.098   7.231  0.0301  0.2292 -0.2096
   79MOL0     C10550   6.838   7.206   7.293 -0.4525 -0.8890  0.1183
   79MOL0     C10551   6.848   7.195   7.444  0.8292  0.4128  0.1508
   79MOL0     C10552   6.886   7.328   7.501  0.2479 -0.4946  0.7575
   79MOL0     C10553   6.858   7.348   7.649  0.0121 -0.4256  1.1930
   79MOL0     O10554   6.723   7.304   7.685 -0.5278 -0.0892 -0.6983
   79MOL0     C10555   6.669   7.355   7.809 -0.5758  1.2662  0.3647
   79MOL0     C10556   6.669   7.492   7.840 -0.6260  0.5341 -0.3561
   79MOL0     C10557   6.611   7.544   7.949 -0.5441  0.5358 -0.1388
   79MOL0     C10558   6.553   7.462   8.046  0.2765 -0.8605 -0.6503
   79MOL0     C10559   6.486   7.514   8.167  0.1938 -0.7906 -0.1279
   79MOL0     O10560   6.422   7.428   8.249 -0.2069 -0.2230  0.1618
   79MOL0     C10561   6.377   7.472   8.366 -0.8356  0.0700 -0.6732
   79MOL0     C10562   6.302   7.593   8.397 -0.4815  0.2896 -0.1538
   79MOL0     C10563   6.265   7.625   8.524 -0.1622 -1.2233 -0.1807
   79MOL0     C10564   6.293   7.542   8.631 -1.0050  0.0853  1.7683
   79MOL0     O10565   6.246   7.562   8.756  0.6707  0.8353  0.4266
   79MOL0     C10566   6.269   7.688   8.813 -0.1615 -0.5882  0.0759
   79MOL0     C10567   6.258   7.686   8.963 -0.0916 -0.0937 -0.0487
   79MOL0     C10568   6.302   7.546   9.014  0.3603 -0.1721  0.7063
   79MOL0     C10569   6.453   7.525   9.006  0.1047 -0.8297  0.6308
   79MOL0     C10570   6.490   7.371   9.029  0.0695  0.5730  0.3785
   79MOL0     C10571   6.624   7.360   9.093 -0.2726  0.3365 -0.8122
   79MOL0     C10572   6.638   7.403   9.244 -0.3788  0.2792  0.2678
   79MOL0     C10573   6.774   7.364   9.301 -0.3135 -0.1555  1.4662
   79MOL0    Cl10574   6.784   7.456   9.456  0.1172  0.1031  0.1091
   79MOL0     C10575   6.375   7.421   8.610  0.5782  0.7519 -0.5705
   79MOL0     C10576   6.406   7.392   8.477 -0.1039  0.8287 -0.1089
   79MOL0     O10577   6.522   7.623   8.207 -1.0624  0.3834  0.1416
   79MOL0     C10578   6.562   7.319   8.022 -0.3801 -0.5075 -0.2877
   79MOL0     C10579   6.615   7.268   7.901 -0.5292 -0.4850 -0.2794
   79MOL0     N10580   7.027   7.111   7.152  0.5551 -0.8218  0.1886
   79MOL0     N10581   7.057   6.995   7.109 -0.3248 -0.3077 -0.8254
   79MOL0     C10582   8.117   6.927   7.090  0.1827  0.4507 -1.7985
   79MOL0     C10583   8.243   6.901   7.038  0.0930 -0.0242 -0.1903
   79MOL0     C10584   8.648   6.778   6.898 -0.3066 -0.4721  0.3346
   79MOL0     C10585   8.649   6.641   6.911 -0.4788 -0.4260  0.0776
   79MOL0     C10586   8.762   6.567   6.896 -0.8016 -0.6559 -0.4207
   79MOL0     C10587   8.887   6.634   6.854  0.7889  0.0857 -0.5763
   79MOL0     O10588   8.998   6.558   6.835 -0.7722  1.0929 -0.2992
   79MOL0     C10589   9.128   6.611   6.858  0.2909 -1.6165  0.3994
   79MOL0     C10590   9.234   6.553   6.751  0.5094 -0.8021 -0.3213
   79MOL0     C10591   9.243   6.401   6.763  0.4713 -0.3127  0.4966
   79MOL0     C10592   9.350   6.330   6.679  1.0432 -0.5442  0.0819
   79MOL0     C10593   9.355   6.189   6.718  0.0714 -0.3036  0.7661
   79MOL0     C10594   9.349   6.073   6.742  0.3686  0.4314 -0.0305
   79MOL0     C10595   8.881   6.772   6.831  0.5352 -0.2470 -0.2370
   79MOL0     C10596   8.760   6.845   6.852 -0.8218 -0.5706  0.0193
   79MOL0     C10597   8.779   6.997   6.825  0.7346  0.2064  0.2731
   79MOL0     H10598   8.221   6.582   6.942 -1.7955 -1.4406  1.4631
   79MOL0     H10599   7.994   6.618   7.035 -0.2810  0.8667 -1.3903
   79MOL0     H10600   7.767   6.713   7.032  0.1822  0.6231  0.4802
   79MOL0     H10601   7.837   6.652   7.196  0.8630 -2.0150 -2.1924
   79MOL0     H10602   7.626   6.874   7.154 -0.4392  0.1261 -2.2947
   79MOL0     H10603   7.690   6.802   7.304  2.4350  1.1345  0.0174
   79MOL0     H10604   7.629   6.574   7.200  0.6560 -0.4622 -1.5888
   79MOL0     H10605   7.548   6.657   7.077  2.4194 -0.6492  0.1784
   79MOL0     H10606   7.449   6.641   7.364 -0.5479  1.1320  0.8465
   79MOL0     H10607   7.416   6.791   7.276  1.7714  1.3736 -3.2345
   79MOL0     H10608   7.323   6.530   7.140  1.1778 -0.5826 -0.9730
   79MOL0     H10609   7.226   6.610   7.261  0.2912  1.1209 -0.7654
   79MOL0     H10610   7.268   6.824   7.117 -3.7020  0.5494  2.5155
   79MOL0     H10611   7.319   6.697   7.000  1.4431  2.1900  0.0185
   79MOL0     H10612   7.093   6.605   7.030  1.4962 -0.1863 -0.8459
   79MOL0     H10613   7.080   6.767   6.953  0.3522  1.7461  0.0012
   79MOL0     H10614   6.894   6.722   7.108  1.2582 -1.6211 -0.7501
   79MOL0     H10615   6.999   6.715   7.239 -3.4952  1.3276  0.4575
   79MOL0     H10616   6.793   6.932   7.294  0.9069 -1.7870  0.5770
   79MOL0     H10617   6.867   7.302   7.250 -0.8319 -1.0406 -0.4846
   79MOL0     H10618   6.737   7.201   7.252 -0.2727  1.7427 -0.8098
   79MOL0     H10619   6.745   7.167   7.468  0.3560  0.6600 -1.4540
   79MOL0     H10620   6.920   7.119   7.476 -0.8241 -1.0354  0.6099
   79MOL0     H10621   6.822   7.405   7.455 -1.1384 -1.1691  1.4811
   79MOL0     H10622   6.990   7.353   7.480 -0.3598  1.5717 -0.0836
   79MOL0     H10623   6.874   7.452   7.680  1.0889 -0.4220  0.6588
   79MOL0     H10624   6.929   7.284   7.702  0.0623  0.0446  1.6995
   79MOL0     H10625   6.699   7.564   7.764 -3.9938  3.9941  1.2728
   79MOL0     H10626   6.613   7.650   7.969  3.1518  0.6665 -0.5712
   79MOL0     H10627   6.264   7.655   8.316 -1.3968  2.3528  1.7368
   79MOL0     H10628   6.196   7.709   8.529 -0.2916 -1.4054  2.6289
   79MOL0     H10629   6.366   7.728   8.781 -0.6822 -0.3538 -1.2620
   79MOL0     H10630   6.194   7.762   8.782  0.8838  0.1828 -0.7011
   79MOL0     H10631   6.334   7.757   9.000 -0.5110 -0.5857  1.8450
   79MOL0     H10632   6.164   7.717   9.008 -0.2612 -0.2452 -0.2995
   79MOL0     H10633   6.273   7.538   9.119 -1.8320 -1.5519  0.0648
   79MOL0     H10634   6.239   7.473   8.962 -4.0427  3.4157  0.4034
   79MOL0     H10635   6.499   7.603   9.068  0.9704  0.9105 -2.0156
   79MOL0     H10636   6.483   7.547   8.903  0.5583 -0.6273  0.8041
   79MOL0     H10637   6.481   7.320   8.932 -2.9179  0.3038  0.7121
   79MOL0     H10638   6.415   7.323   9.092 -1.0858  1.1864 -0.4846
   79MOL0     H10639   6.662   7.258   9.076  0.8762  0.5040  0.5624
   79MOL0     H10640   6.687   7.426   9.031  1.2168 -0.2084  0.0566
   79MOL0     H10641   6.562   7.358   9.309 -0.6181  2.9239  1.9658
   79MOL0     H10642   6.630   7.512   9.254  3.0059  0.5431  1.0310
   79MOL0     H10643   6.806   7.259   9.300  0.3381  0.0396  1.0705
   79MOL0     H10644   6.851   7.410   9.238 -4.3179  2.3270 -2.1215
   79MOL0     H10645   6.381   7.356   8.697 -1.0016 -0.7887 -1.5572
   79MOL0     H10646   6.457   7.301   8.448  4.3791  3.1206 -0.3399
   79MOL0     H10647   6.515   7.252   8.093 -3.4960  1.6194 -0.1324
   79MOL0     H10648   6.600   7.165   7.871  1.8466  0.0449 -3.9486
   79MOL0     H10649   8.095   7.021   7.139  2.2779  1.4367 -2.6204
   79MOL0     H10650   8.323   6.973   7.051 -1.1917  2.1835 -3.3291
   79MOL0     H10651   8.558   6.583   6.927 -0.8134 -0.3006 -1.1977
   79MOL0     H10652   8.761   6.458   6.889  0.1569 -0.6659 -0.6259
   79MOL0     H10653   9.154   6.592   6.962  1.2440  3.2490  1.2898
   79MOL0     H10654   9.128   6.721   6.862  1.6387 -1.6521  2.4794
   79MOL0     H10655   9.330   6.603   6.769  1.1261 -2.2198  0.4573
   79MOL0     H10656   9.208   6.569   6.646  0.6461  0.2864 -0.2037
   79MOL0     H10657   9.142   6.373   6.730 -0.5644  1.9338  1.5255
   79MOL0     H10658   9.242   6.378   6.870 -1.4371  0.0385  0.6043
   79MOL0     H10659   9.312   6.333   6.576 -0.1199  1.2834  0.5091
   79MOL0     H10660   9.446   6.381   6.692  1.9082 -1.8964 -0.8385
   79MOL0     H10661   9.373   5.971   6.765  2.1804  0.9386  0.4236
   79MOL0     H10662   8.958   6.834   6.787 -2.8977  2.7956 -2.6275
   79MOL0     H10663   8.885   7.024   6.815  2.1871 -2.3346  5.1381
   79MOL0     H10664   8.712   7.021   6.742 -1.0413  2.5805  2.2292
   79MOL0     H10665   8.749   7.065   6.905  0.6051  1.1252 -0.5381
   80MOL0     O10666   5.246   6.526  11.116  0.3806 -0.0350  0.4885
   80MOL0     C10667   5.196   6.496  11.222 -0.2015 -0.3952 -0.2348
   80MOL0     O10668   5.141   6.586  11.306 -0.8527  0.2743 -0.2392
   80MOL0     C10669   5.176   6.716  11.279 -0.3710 -0.1432 -0.1708
   80MOL0     C10670   5.269   6.783  11.363 -0.0856  0.0963 -0.6000
   80MOL0     C10671   5.291   6.916  11.340  0.3798 -0.7396 -0.6738
   80MOL0     C10672   5.235   6.991  11.234 -0.6514  0.6679  0.0442
   80MOL0     O10673   5.281   7.116  11.221  0.3218 -0.3894 -0.2665
   80MOL0     C10674   5.218   7.195  11.119 -0.8392  0.1709 -0.3847
   80MOL0     C10675   5.257   7.339  11.163 -0.3112 -0.0473  0.2154
   80MOL0     C10676   5.177   7.447  11.079  0.0174  0.2365 -0.8678
   80MOL0     C10677   5.133   7.567  11.168 -0.1938 -0.2043  1.0331
   80MOL0     C10678   5.253   7.663  11.195 -0.7696  0.5522 -1.1674
   80MOL0     C10679   5.277   7.749  11.072  0.5920 -0.2431  0.3214
   80MOL0     C10680   5.387   7.853  11.103  0.8621 -0.9852 -0.6660
   80MOL0     C10681   5.379   7.968  11.001  0.1713  0.1409 -1.2524
   80MOL0     N10682   5.478   8.068  11.026  0.0608 -0.0561 -0.0646
   80MOL0     C10683   5.451   8.201  10.977  0.3352 -0.2862  0.2116
   80MOL0     C10684   5.577   8.257  10.976  0.2302 -0.1572 -0.7201
   80MOL0     C10685   5.594   8.397  10.912  0.1102  0.5373 -0.6235
   80MOL0     C10686   5.697   8.490  10.980 -0.8583  0.8254  0.3474
   80MOL0     C10687   5.666   8.534  11.126 -0.4561  0.8657 -0.4112
   80MOL0     C10688   5.775   8.608  11.198  0.1988 -0.8130  0.1796
   80MOL0     O10689   5.751   8.607  11.338  0.5333  0.3582 -0.3284
   80MOL0     C10690   5.785   8.487  11.401  0.6070 -0.4966 -0.5704
   80MOL0     C10691   5.770   8.476  11.538  1.0584  0.3136 -0.3446
   80MOL0     C10692   5.821   8.372  11.614  0.2550 -0.0005 -0.6467
   80MOL0     C10693   5.876   8.267  11.547 -0.3533  0.7116 -0.4857
   80MOL0     C10694   5.937   8.144  11.609  0.3078 -0.0071  0.9596
   80MOL0     O10695   5.969   8.026  11.530 -0.5050 -0.1539  0.6800
   80MOL0     C10696   5.975   7.899  11.583 -0.7481 -0.7301  0.6789
   80MOL0     C10697   5.900   7.863  11.690  1.4906  1.2483  0.3508
   80MOL0     C10698   5.932   7.733  11.751 -0.2328 -0.3606 -0.4457
   80MOL0     C10699   6.019   7.635  11.696 -0.1122  0.4088  0.1799
   80MOL0     O10700   6.034   7.505  11.744  0.6330 -0.2100 -0.0066
   80MOL0     C10701   5.996   7.478  11.880 -0.0821  0.1216  0.7779
   80MOL0     C10702   5.847   7.445  11.903  0.4898  0.0748  0.3436
   80MOL0     C10703   5.813   7.410  12.053 -0.2739 -0.2142  0.1502
   80MOL0     C10704   5.826   7.533  12.149 -0.1302  0.7510  0.0054
   80MOL0     C10705   5.825   7.502  12.294 -0.2286 -0.2712  0.2466
   80MOL0     C10706   5.696   7.457  12.348 -0.2271  1.0092  0.3853
   80MOL0     C10707   5.699   7.453  12.495 -0.5993 -0.1543 -1.4726
   80MOL0     C10708   5.565   7.432  12.559  0.3427 -0.8315 -0.4150
   80MOL0    Cl10709   5.453   7.562  12.501 -0.6834  0.1415 -0.1729
   80MOL0     C10710   6.096   7.684  11.586  0.5170  0.2024  0.3424
   80MOL0     C10711   6.082   7.812  11.536 -0.1363 -0.1013  0.3119
   80MOL0     O10712   5.956   8.151  11.733  0.0270 -0.0038 -0.0755
   80MOL0     C10713   5.896   8.273  11.408 -0.6134  0.0326  0.6515
   80MOL0     C10714   5.849   8.377  11.341 -0.2349  0.0754  0.6293
   80MOL0     N10715   5.672   8.174  11.016 -0.1071 -0.1281  0.2437
   80MOL0     N10716   5.617   8.060  11.044  0.3118 -0.0980  0.5018
   80MOL0     C10717   5.152   6.922  11.142 -0.7163 -0.0534 -0.0964
   80MOL0     C10718   5.119   6.786  11.172 -0.9506 -0.0647  0.5838
   80MOL0     C10719   5.186   6.353  11.264  0.2821 -0.2873  0.0586
   80MOL0     C10720   5.112   6.309  11.372  0.6505 -0.3268  0.0788
   80MOL0     C10721   5.119   6.171  11.434  0.3458  0.6778  1.1600
   80MOL0     C10722   5.214   6.083  11.370  0.3974  1.7015 -0.5135
   80MOL0     O10723   5.210   5.950  11.414 -0.6508  0.2860 -0.3572
   80MOL0     C10724   5.308   5.913  11.513  1.2733  0.0617  0.1009
   80MOL0     C10725   5.443   5.897  11.444 -0.2555  0.0916 -0.3154
   80MOL0     C10726   5.529   5.771  11.472  0.3935 -0.1053  0.0370
   80MOL0     C10727   5.592   5.783  11.610 -0.3535  0.2897 -0.7289
   80MOL0     C10728   5.509   5.752  11.721 -0.2951 -0.0390  0.6257
   80MOL0     C10729   5.458   5.731  11.826  0.0405 -0.6601  0.2069
   80MOL0     C10730   5.274   6.121  11.258 -0.2142  1.0018  0.6454
   80MOL0     C10731   5.266   6.250  11.199 -0.8813 -0.3208 -0.1283
   80MOL0     C10732   5.342   6.266  11.072 -0.3186  0.2156  0.1412
   80MOL0     H10733   5.294   6.723  11.450 -0.5924  1.1114  0.2675
   80MOL0     H10734   5.365   6.973  11.394  0.9466 -1.2780 -0.8706
   80MOL0     H10735   5.264   7.166  11.025 -2.3205  0.6454 -1.2830
   80MOL0     H10736   5.110   7.179  11.117 -1.0676  1.6644 -2.6750
   80MOL0     H10737   5.365   7.357  11.157 -0.2273 -0.8380 -1.3931
   80MOL0     H10738   5.224   7.358  11.265 -1.8458  0.7972 -0.4023
   80MOL0     H10739   5.084   7.400  11.045  0.8300 -0.8043 -1.6863
   80MOL0     H10740   5.244   7.480  10.999  0.6444  2.2520  0.4132
   80MOL0     H10741   5.053   7.625  11.122  0.4639 -1.1828 -1.4804
   80MOL0     H10742   5.102   7.533  11.268 -5.0010  0.7585  0.0861
   80MOL0     H10743   5.235   7.734  11.276 -0.6239 -2.3923  1.6869
   80MOL0     H10744   5.334   7.595  11.222 -2.6435 -1.0447  0.8433
   80MOL0     H10745   5.305   7.677  10.995  0.2338 -1.0534  0.9359
   80MOL0     H10746   5.186   7.805  11.048 -2.5010 -5.2105 -1.1065
   80MOL0     H10747   5.488   7.812  11.097  1.2586  0.1621 -3.9991
   80MOL0     H10748   5.372   7.887  11.206 -0.7980 -0.3401 -1.0868
   80MOL0     H10749   5.389   7.920  10.904  1.5563 -2.2904 -0.0202
   80MOL0     H10750   5.277   8.010  10.999 -0.5496 -1.4834 -0.6933
   80MOL0     H10751   5.361   8.259  10.959  0.0306 -0.7820  0.1165
   80MOL0     H10752   5.618   8.375  10.807 -0.0822 -1.8741 -0.2125
   80MOL0     H10753   5.501   8.454  10.910  0.8165  1.7158 -0.6426
   80MOL0     H10754   5.792   8.435  10.980  0.4916  3.0551  0.4069
   80MOL0     H10755   5.707   8.583  10.925 -1.5576  0.9928  0.4864
   80MOL0     H10756   5.655   8.442  11.185 -3.3347 -0.1964 -2.3649
   80MOL0     H10757   5.574   8.589  11.151  0.3014  1.1454  2.0243
   80MOL0     H10758   5.771   8.715  11.175  2.1106 -0.5606  0.8477
   80MOL0     H10759   5.872   8.578  11.159 -0.9376  0.1803 -3.8384
   80MOL0     H10760   5.711   8.557  11.580 -0.0154 -0.9912  0.7384
   80MOL0     H10761   5.807   8.370  11.722  3.1280 -0.6084 -0.2129
   80MOL0     H10762   5.818   7.923  11.727 -1.0739 -0.7337 -1.6815
   80MOL0     H10763   5.869   7.716  11.838 -2.5997 -0.8567 -2.1574
   80MOL0     H10764   6.051   7.388  11.908  0.5124 -0.2919 -1.5020
   80MOL0     H10765   6.028   7.562  11.943 -3.8742  2.1175  0.3143
   80MOL0     H10766   5.780   7.528  11.875 -0.7654 -1.2766 -0.8314
   80MOL0     H10767   5.820   7.357  11.844  1.2405  0.6185 -0.8743
   80MOL0     H10768   5.708   7.379  12.053 -0.6832  0.6107 -4.1140
   80MOL0     H10769   5.878   7.326  12.079 -0.8458 -1.1029 -1.1755
   80MOL0     H10770   5.749   7.602  12.116  1.5487  2.1731 -1.1128
   80MOL0     H10771   5.920   7.584  12.125 -0.0103 -0.6221 -2.9214
   80MOL0     H10772   5.845   7.596  12.348 -1.4528  0.0774  0.1250
   80MOL0     H10773   5.901   7.427  12.318 -2.0938 -2.4144 -0.1964
   80MOL0     H10774   5.619   7.527  12.314 -1.1152  0.0381  0.3554
   80MOL0     H10775   5.672   7.356  12.314  2.6366  0.4444 -0.2257
   80MOL0     H10776   5.732   7.550  12.533 -0.8301 -1.6824  3.3188
   80MOL0     H10777   5.766   7.374  12.531  0.0856  1.1547  0.2355
   80MOL0     H10778   5.523   7.333  12.541 -2.0521  0.6400 -4.7617
   80MOL0     H10779   5.582   7.453  12.664 -1.3699  0.8616 -0.4089
   80MOL0     H10780   6.159   7.603  11.550  0.7149  1.6425 -2.8132
   80MOL0     H10781   6.137   7.846  11.449 -1.1552 -1.0875 -0.7505
   80MOL0     H10782   5.949   8.191  11.360 -1.0381  0.7252 -1.0829
   80MOL0     H10783   5.865   8.382  11.234 -1.1051  2.6408  0.5392
   80MOL0     H10784   5.095   6.968  11.063  1.5530  1.2079 -1.1135
   80MOL0     H10785   5.044   6.739  11.110 -1.8161  2.7778 -0.6654
   80MOL0     H10786   5.035   6.365  11.425 -1.0607 -1.1389 -1.4558
   80MOL0     H10787   5.041   6.144  11.504 -1.8431  1.3332 -0.9081
   80MOL0     H10788   5.272   5.821  11.559 -1.4550  1.6597  1.3904
   80MOL0     H10789   5.321   5.986  11.592 -0.7118  0.3970  0.1776
   80MOL0     H10790   5.493   5.990  11.474 -1.9741  1.2505 -0.8733
   80MOL0     H10791   5.442   5.906  11.335  2.8350  0.2857 -0.4186
   80MOL0     H10792   5.604   5.772  11.393  0.8446  2.5482  0.4153
   80MOL0     H10793   5.471   5.679  11.465  0.6467 -0.2004 -1.0324
   80MOL0     H10794   5.664   5.700  11.604  0.0218  0.5911 -0.4996
   80MOL0     H10795   5.642   5.878  11.631  3.1191 -1.8878  2.2535
   80MOL0     H10796   5.423   5.726  11.927 -0.5773 -0.9370 -0.0159
   80MOL0     H10797   5.330   6.045  11.204 -0.2480  1.3534  0.1010
   80MOL0     H10798   5.422   6.194  11.053 -1.2192 -0.8352  0.2212
   80MOL0     H10799   5.276   6.247  10.986 -2.1529 -4.2735  2.2602
   80MOL0     H10800   5.400   6.359  11.069  1.6892 -0.8915  1.6995
   81MOL0     O10801   9.319   2.942  10.050 -0.0479 -0.2272  0.0317
   81MOL0     C10802   9.211   2.914  10.101 -1.2572 -0.2255  0.1251
   81MOL0     O10803   9.164   2.978  10.215  0.3301 -0.0848 -0.1791
   81MOL0     C10804   9.244   3.074  10.277  0.2354  0.2352 -0.2078
   81MOL0     C10805   9.243   3.207  10.221  0.3871 -0.4104  0.3605
   81MOL0     C10806   9.339   3.299  10.281  0.7297 -0.5753  0.3809
   81MOL0     C10807   9.430   3.269  10.379  1.0207  0.4992  0.7342
   81MOL0     O10808   9.516   3.358  10.431  0.2535  0.5223 -0.6450
   81MOL0     C10809   9.646   3.318  10.482  0.2417  0.5424  0.0273
   81MOL0     C10810   9.662   3.408  10.602  0.0584 -0.6250  0.1771
   81MOL0     C10811   9.805   3.393  10.653  0.8429  0.1421 -0.0966
   81MOL0     C10812   9.821   3.428  10.801 -1.0072 -0.6846 -0.5954
   81MOL0     C10813   9.966   3.413  10.862 -0.1268 -0.8774 -0.0300
   81MOL0     C10814  10.072   3.485  10.780 -0.0116 -0.4182  0.4363
   81MOL0     C10815  10.189   3.543  10.858 -0.8931 -0.3079 -0.1292
   81MOL0     C10816  10.149   3.672  10.931  0.3480  0.7636 -0.7340
   81MOL0     N10817  10.256   3.710  11.017  0.7945  0.4720 -0.2605
   81MOL0     C10818  10.351   3.806  10.993  0.4381 -0.4002  0.4912
   81MOL0     C10819  10.453   3.780  11.072 -0.4430  0.2918 -1.1203
   81MOL0     C10820  10.578   3.876  11.071  0.0842  0.0743 -0.0554
   81MOL0     C10821  10.706   3.819  11.001  0.9239 -0.8451  0.7954
   81MOL0     C10822  10.745   3.674  11.037 -0.4556 -0.4000 -0.9172
   81MOL0     C10823  10.760   3.649  11.191 -0.4218 -0.2459  0.7802
   81MOL0     O10824  10.843   3.761  11.240 -0.6515  0.1183  0.3588
   81MOL0     C10825  10.789   3.846  11.335  0.1740 -0.6116  0.0800
   81MOL0     C10826  10.846   3.967  11.326  1.0193 -0.8520 -0.0285
   81MOL0     C10827  10.811   4.065  11.419  0.0553 -0.0913  0.1734
   81MOL0     C10828  10.719   4.040  11.520  0.7718  0.9992  0.4798
   81MOL0     C10829  10.682   4.145  11.613 -0.6657 -0.2981 -0.9486
   81MOL0     O10830  10.750   4.259  11.598  0.2854  0.1190  0.1917
   81MOL0     C10831  10.730   4.355  11.687 -0.0169  0.0514  0.3783
   81MOL0     C10832  10.602   4.410  11.715  0.2903 -0.4123  1.2816
   81MOL0     C10833  10.598   4.527  11.790  0.6345  0.7322  0.5759
   81MOL0     C10834  10.718   4.575  11.841 -0.0896 -0.5768  0.3239
   81MOL0     O10835  10.726   4.694  11.911  0.3908  0.0093  0.5716
   81MOL0     C10836  10.656   4.731  12.021  0.3258  0.6753  0.4634
   81MOL0     C10837  10.759   4.803  12.102 -0.1229 -1.2065  0.6475
   81MOL0     C10838  10.689   4.869  12.225 -0.0934 -0.2426 -0.3037
   81MOL0     C10839  10.790   4.938  12.310 -0.7359 -0.3067  0.4277
   81MOL0     C10840  10.730   5.021  12.420 -0.3244 -0.2596  1.8745
   81MOL0     C10841  10.826   5.097  12.498 -0.6537  0.7382 -0.0669
   81MOL0     C10842  10.748   5.173  12.602  0.0163 -0.4302 -0.3781
   81MOL0     C10843  10.830   5.257  12.700  0.5780 -0.3260 -0.2440
   81MOL0    Cl10844  10.895   5.157  12.832  0.2123 -0.4269 -0.0410
   81MOL0     C10845  10.840   4.526  11.815 -0.6529  0.1440  0.4347
   81MOL0     C10846  10.852   4.407  11.745  0.5015  0.3590  0.0400
   81MOL0     O10847  10.609   4.124  11.708 -0.1871  0.3675  0.0032
   81MOL0     C10848  10.642   3.921  11.514  0.2788 -0.2573 -0.5999
   81MOL0     C10849  10.695   3.821  11.432 -0.3466  0.0459 -0.1261
   81MOL0     N10850  10.423   3.675  11.155  0.2144 -0.8338  0.6181
   81MOL0     N10851  10.308   3.633  11.112  0.6661  0.7008  0.1188
   81MOL0     C10852   9.421   3.139  10.426  0.6049 -0.2509 -0.5906
   81MOL0     C10853   9.331   3.042  10.381 -0.6485 -0.8590  0.9991
   81MOL0     C10854   9.115   2.812  10.036 -1.0607 -0.3493  0.1718
   81MOL0     C10855   9.008   2.770  10.101  0.4047 -0.3186  0.1821
   81MOL0     C10856   8.922   2.673  10.057  0.2657  0.3047 -0.6901
   81MOL0     C10857   8.939   2.615   9.935  0.5970  0.6048  0.3284
   81MOL0     O10858   8.844   2.531   9.891  0.3278  0.0813 -0.4524
   81MOL0     C10859   8.860   2.457   9.763 -0.2703  0.7669  0.1100
   81MOL0     C10860   8.814   2.545   9.635 -0.5675  0.4655  0.4556
   81MOL0     C10861   8.821   2.475   9.500 -0.5343  0.3798 -0.3997
   81MOL0     C10862   8.964   2.419   9.479 -0.2001 -1.4923  0.8214
   81MOL0     C10863   9.067   2.528   9.487 -0.0141  0.2577  0.6346
   81MOL0     C10864   9.138   2.634   9.465 -0.5363  0.2926 -0.6090
   81MOL0     C10865   9.048   2.661   9.857 -0.2394 -0.9340 -0.6727
   81MOL0     C10866   9.140   2.763   9.908  0.3578 -0.2883  0.6761
   81MOL0     C10867   9.242   2.810   9.810 -0.5029 -1.0780  0.8504
   81MOL0     H10868   9.166   3.243  10.153  1.7269  4.5005  1.0603
   81MOL0     H10869   9.366   3.398  10.246  1.9240 -0.9682  0.1265
   81MOL0     H10870   9.659   3.219  10.527 -1.0309  0.9783  1.4511
   81MOL0     H10871   9.720   3.335  10.403 -1.0040 -0.8355 -1.4944
   81MOL0     H10872   9.594   3.372  10.680 -1.0818 -2.1620 -1.4310
   81MOL0     H10873   9.646   3.515  10.586  1.5944  0.3546  4.0675
   81MOL0     H10874   9.861   3.451  10.579 -1.3416  0.5244 -1.5378
   81MOL0     H10875   9.830   3.286  10.653 -0.6586 -0.2425  1.4471
   81MOL0     H10876   9.799   3.535  10.812  0.0607 -0.6051  1.0634
   81MOL0     H10877   9.739   3.380  10.856 -2.3399 -0.8190 -2.5826
   81MOL0     H10878   9.963   3.442  10.968  0.5785 -1.1535  0.0642
   81MOL0     H10879   9.979   3.304  10.861  1.8462 -0.8295  3.5398
   81MOL0     H10880  10.109   3.410  10.709 -0.8800 -0.6966  0.2682
   81MOL0     H10881  10.035   3.565  10.716 -1.7070 -1.7490 -0.3219
   81MOL0     H10882  10.272   3.572  10.793  0.5312  2.9583  2.7901
   81MOL0     H10883  10.218   3.472  10.936  0.1393 -0.0917 -0.3022
   81MOL0     H10884  10.124   3.750  10.858 -2.0125  1.3613  0.6346
   81MOL0     H10885  10.055   3.645  10.980  0.7424 -3.4706 -1.9039
   81MOL0     H10886  10.330   3.885  10.922 -0.7495 -2.1364 -1.1594
   81MOL0     H10887  10.557   3.979  11.038 -0.0055  1.5600  4.0311
   81MOL0     H10888  10.599   3.897  11.177 -1.5053 -0.5502  0.4107
   81MOL0     H10889  10.676   3.820  10.895 -0.1619  0.7053  1.0799
   81MOL0     H10890  10.793   3.884  11.011 -0.1701  0.7639  0.2810
   81MOL0     H10891  10.850   3.656  11.013  0.2507  0.8015  1.0039
   81MOL0     H10892  10.676   3.601  10.994  0.3328 -0.5391 -1.9775
   81MOL0     H10893  10.811   3.555  11.209  0.0343 -0.7620 -2.5302
   81MOL0     H10894  10.656   3.636  11.223 -1.4541  3.8322 -0.2885
   81MOL0     H10895  10.906   3.996  11.240 -0.3155  0.6283 -0.5263
   81MOL0     H10896  10.875   4.151  11.407  0.6637 -0.7257 -1.2670
   81MOL0     H10897  10.506   4.380  11.675  0.1631  2.7697 -1.2853
   81MOL0     H10898  10.503   4.579  11.794  0.1660  0.2674 -2.3062
   81MOL0     H10899  10.569   4.788  11.986 -0.4361  0.0557  1.2759
   81MOL0     H10900  10.639   4.638  12.076  2.6487 -1.4175 -2.0987
   81MOL0     H10901  10.836   4.729  12.124  1.2482  1.0264  4.3418
   81MOL0     H10902  10.818   4.875  12.045  1.4096 -0.9877  2.4011
   81MOL0     H10903  10.614   4.944  12.200 -0.4986 -0.1085  1.2593
   81MOL0     H10904  10.629   4.794  12.278 -1.7216  1.0008 -0.3201
   81MOL0     H10905  10.844   5.011  12.250  0.1291 -3.9285 -3.6950
   81MOL0     H10906  10.867   4.873  12.353  2.6600  2.9914 -0.1299
   81MOL0     H10907  10.661   4.959  12.479 -1.2587  1.4394  2.6427
   81MOL0     H10908  10.665   5.097  12.376  2.4667  2.8273  2.6805
   81MOL0     H10909  10.881   5.013  12.540 -1.2977  0.7037  0.7423
   81MOL0     H10910  10.909   5.144  12.444 -0.5986  0.6815 -0.0300
   81MOL0     H10911  10.680   5.108  12.657 -3.0383 -0.0507 -3.3812
   81MOL0     H10912  10.683   5.236  12.540 -0.0558 -1.4832 -1.4043
   81MOL0     H10913  10.912   5.296  12.639 -0.9720  1.7769 -1.0885
   81MOL0     H10914  10.771   5.338  12.743 -2.3139 -0.1001 -4.1328
   81MOL0     H10915  10.930   4.577  11.845  0.8784 -1.8553 -0.4804
   81MOL0     H10916  10.951   4.377  11.712  0.0938 -2.2513  0.9707
   81MOL0     H10917  10.545   3.898  11.558  0.8285 -0.8682  0.3299
   81MOL0     H10918  10.654   3.720  11.428  0.7681 -0.4463  0.5278
   81MOL0     H10919   9.502   3.108  10.491 -1.5335 -1.6800  1.5595
   81MOL0     H10920   9.331   2.936  10.403 -3.1845 -0.9944  0.6826
   81MOL0     H10921   8.982   2.798  10.202  1.1908 -0.1357  0.3377
   81MOL0     H10922   8.832   2.649  10.113 -0.4088  0.2962 -1.7563
   81MOL0     H10923   8.799   2.367   9.765 -2.3460  2.1002  2.5027
   81MOL0     H10924   8.964   2.427   9.747 -0.5093  0.7754 -1.6473
   81MOL0     H10925   8.875   2.634   9.616 -1.5732  0.5879 -2.6711
   81MOL0     H10926   8.715   2.586   9.657 -0.3947  1.6670 -0.8409
   81MOL0     H10927   8.801   2.546   9.419 -0.9466 -0.7117 -1.2819
   81MOL0     H10928   8.750   2.392   9.498  0.4983 -0.6629  1.8041
   81MOL0     H10929   8.989   2.347   9.557 -0.7687  1.4482  3.9550
   81MOL0     H10930   8.952   2.379   9.378 -1.1090  0.0368  0.2837
   81MOL0     H10931   9.201   2.721   9.454  0.6002 -0.1567  1.6606
   81MOL0     H10932   9.047   2.617   9.758 -4.1217  3.2245 -2.8490
   81MOL0     H10933   9.243   2.759   9.713  0.5625  4.6815 -2.6819
   81MOL0     H10934   9.217   2.913   9.782 -0.1354 -1.5723 -1.4628
   81MOL0     H10935   9.345   2.801   9.847 -0.1988 -0.4142  0.1942
   82MOL0     O10936   7.478   1.427   9.147 -0.4918 -0.0242  0.1762
   82MOL0     C10937   7.576   1.372   9.099  0.5690 -0.4135 -0.8053
   82MOL0     O10938   7.634   1.255   9.157  0.1760  0.8018  0.1790
   82MOL0     C10939   7.645   1.231   9.292  0.5746  0.8587 -0.6111
   82MOL0     C10940   7.736   1.127   9.329 -0.4336 -0.1272 -0.5851
   82MOL0     C10941   7.752   1.091   9.465 -0.2693 -0.0672  0.1478
   82MOL0     C10942   7.668   1.145   9.566 -0.4953 -0.4202  0.3817
   82MOL0     O10943   7.680   1.100   9.692  0.6036 -0.1210  0.1921
   82MOL0     C10944   7.689   0.967   9.715  0.1761  0.7230  0.6866
   82MOL0     C10945   7.643   0.963   9.868  0.4560 -0.3296 -0.1648
   82MOL0     C10946   7.646   0.822   9.919 -0.4664 -0.1671  0.1651
   82MOL0     C10947   7.782   0.752   9.923 -0.5167  0.0036  0.0831
   82MOL0     C10948   7.738   0.606   9.951  0.1613 -0.1301  0.3002
   82MOL0     C10949   7.728   0.575  10.101 -0.2412  0.2068 -0.3726
   82MOL0     C10950   7.804   0.447  10.156 -0.8095  0.2490 -0.0672
   82MOL0     C10951   7.765   0.412  10.300 -1.0038  0.0142 -0.7091
   82MOL0     N10952   7.838   0.490  10.404 -0.5274  0.0525 -0.3140
   82MOL0     C10953   7.775   0.587  10.475  0.6618  0.1611 -0.4404
   82MOL0     C10954   7.853   0.601  10.581 -0.0351 -0.0608 -0.4237
   82MOL0     C10955   7.839   0.692  10.707 -0.4080  1.3135  0.7077
   82MOL0     C10956   7.691   0.708  10.755 -0.7880 -0.5862  0.8858
   82MOL0     C10957   7.683   0.791  10.880 -0.5748  0.1399 -0.2629
   82MOL0     C10958   7.718   0.936  10.853  0.3725 -0.3376 -0.1332
   82MOL0     O10959   7.598   0.998  10.798 -0.1147 -0.6421 -0.3184
   82MOL0     C10960   7.588   1.125  10.750  0.2128  0.0047  0.7350
   82MOL0     C10961   7.700   1.218  10.768  0.3558  1.5186  0.5757
   82MOL0     C10962   7.689   1.340  10.712  0.3341 -0.6427  0.2126
   82MOL0     C10963   7.574   1.388  10.645  0.3853 -0.5591 -0.1207
   82MOL0     C10964   7.578   1.513  10.567 -0.1345  0.3126  0.5713
   82MOL0     O10965   7.690   1.591  10.569  0.9490  0.2528 -0.1038
   82MOL0     C10966   7.714   1.693  10.478 -0.1687  0.4947 -0.7065
   82MOL0     C10967   7.679   1.675  10.342  0.2436  0.4790 -0.6864
   82MOL0     C10968   7.678   1.789  10.256  0.2401  0.3555  0.4792
   82MOL0     C10969   7.698   1.918  10.301 -0.4513 -0.7202  0.7736
   82MOL0     O10970   7.652   2.016  10.214  0.4240 -0.0148  0.0473
   82MOL0     C10971   7.640   2.153  10.276  0.7005 -0.4386 -0.3596
   82MOL0     C10972   7.528   2.223  10.206 -0.1233 -0.9090 -0.2980
   82MOL0     C10973   7.530   2.231  10.057 -0.7928  0.1966 -0.7717
   82MOL0     C10974   7.395   2.267   9.991 -0.4650 -0.8762  0.4220
   82MOL0     C10975   7.349   2.408  10.043  0.3888  0.1039  0.9516
   82MOL0     C10976   7.234   2.459   9.951 -0.5161 -0.3919 -0.2603
   82MOL0     C10977   7.282   2.510   9.819  0.1701  0.5908 -0.0109
   82MOL0     C10978   7.163   2.518   9.730 -0.1095 -0.0541 -0.4778
   82MOL0    Cl10979   7.200   2.600   9.567 -0.0984  0.2799  0.2494
   82MOL0     C10980   7.750   1.933  10.429  0.1464  0.3358 -0.3484
   82MOL0     C10981   7.764   1.819  10.516 -0.7606 -0.1850  0.5891
   82MOL0     O10982   7.483   1.531  10.493 -0.7837 -0.3813 -0.0006
   82MOL0     C10983   7.462   1.304  10.645 -0.2834 -1.0764  0.4651
   82MOL0     C10984   7.471   1.178  10.694 -0.4916 -0.5368 -0.1338
   82MOL0     N10985   7.970   0.525  10.572  0.1629  0.9012  0.2389
   82MOL0     N10986   7.958   0.463  10.460 -0.1481 -0.0677  0.4984
   82MOL0     C10987   7.585   1.257   9.525  0.6585  0.5785 -0.3391
   82MOL0     C10988   7.575   1.296   9.393 -0.1337 -0.7736  0.0578
   82MOL0     C10989   7.644   1.422   8.973  0.5781 -0.2389 -0.0246
   82MOL0     C10990   7.747   1.344   8.922 -0.2626  0.5282 -0.4318
   82MOL0     C10991   7.805   1.377   8.799 -0.2697  0.0027 -0.6122
   82MOL0     C10992   7.762   1.491   8.724 -0.3391 -0.3846  0.3920
   82MOL0     O10993   7.822   1.522   8.603  0.3674 -0.3086 -1.0832
   82MOL0     C10994   7.827   1.416   8.509 -0.2776  0.1604  1.6183
   82MOL0     C10995   7.888   1.458   8.373  0.0446 -0.6736  0.7074
   82MOL0     C10996   8.043   1.464   8.378  1.0748 -0.4020 -0.2873
   82MOL0     C10997   8.110   1.534   8.266 -0.5026 -0.2005  0.9221
   82MOL0     C10998   8.085   1.480   8.134 -0.2439  0.3640  0.2428
   82MOL0     C10999   8.037   1.426   8.040  0.7300  0.4061  0.6706
   82MOL0     C11000   7.656   1.572   8.776  0.7319  0.2048 -0.2007
   82MOL0     C11001   7.593   1.541   8.901  0.3533 -0.0973  0.7421
   82MOL0     C11002   7.476   1.625   8.934  0.2564  0.5477 -0.5115
   82MOL0     H11003   7.791   1.077   9.251  1.5323 -1.7537  1.7070
   82MOL0     H11004   7.820   1.009   9.480 -0.7515 -0.3747  0.7140
   82MOL0     H11005   7.618   0.909   9.655  1.5984 -2.5297  1.9088
   82MOL0     H11006   7.791   0.936   9.694 -0.7088 -1.3912 -0.8500
   82MOL0     H11007   7.537   0.988   9.870  0.1251 -1.6683  1.4255
   82MOL0     H11008   7.703   1.034   9.927 -1.4241  0.4858  0.8679
   82MOL0     H11009   7.593   0.765   9.842  0.0781 -0.0212 -0.3270
   82MOL0     H11010   7.607   0.820  10.021 -1.6777  4.2487 -0.0078
   82MOL0     H11011   7.829   0.748   9.825  0.2298  0.7501  0.3995
   82MOL0     H11012   7.852   0.789   9.999  1.9298 -3.4060 -0.2615
   82MOL0     H11013   7.645   0.570   9.906  0.7562 -0.8577 -0.3875
   82MOL0     H11014   7.808   0.532   9.911 -0.5292 -1.1414  0.9135
   82MOL0     H11015   7.760   0.665  10.155 -0.8165 -0.7825  1.6755
   82MOL0     H11016   7.623   0.564  10.129 -0.8935 -1.4806 -3.0657
   82MOL0     H11017   7.913   0.460  10.153 -0.7036 -0.6564 -0.3774
   82MOL0     H11018   7.775   0.365  10.091 -0.9394 -0.3563  0.7312
   82MOL0     H11019   7.658   0.432  10.313 -0.7444  0.5138  0.9729
   82MOL0     H11020   7.797   0.308  10.315  5.8508  1.7153 -0.4083
   82MOL0     H11021   7.677   0.631  10.461 -0.4638 -1.7158  1.1085
   82MOL0     H11022   7.912   0.664  10.784  1.2018  4.3072  0.4472
   82MOL0     H11023   7.884   0.790  10.688 -1.5455  2.3584  3.0129
   82MOL0     H11024   7.642   0.775  10.682 -1.1357 -0.1028  1.5520
   82MOL0     H11025   7.646   0.609  10.767 -1.1450 -0.5585 -0.1029
   82MOL0     H11026   7.761   0.752  10.946  3.0104  5.5151 -0.6245
   82MOL0     H11027   7.592   0.783  10.940 -0.5472  1.3530 -0.0233
   82MOL0     H11028   7.811   0.941  10.794  0.2610  1.0185 -0.2181
   82MOL0     H11029   7.746   0.965  10.955 -0.9933 -2.8793  1.0638
   82MOL0     H11030   7.789   1.185  10.821  0.1319 -1.6700 -0.7750
   82MOL0     H11031   7.771   1.411  10.707 -0.8960  1.3529  4.1976
   82MOL0     H11032   7.651   1.577  10.306 -0.8403  0.5524 -0.0777
   82MOL0     H11033   7.648   1.778  10.152  1.2499  2.7379 -0.1371
   82MOL0     H11034   7.620   2.152  10.384 -0.2579  0.0132 -0.5189
   82MOL0     H11035   7.724   2.223  10.271  1.5046 -1.2530  1.1569
   82MOL0     H11036   7.441   2.160  10.229 -0.6299  0.3734  1.5527
   82MOL0     H11037   7.512   2.320  10.254 -1.4470 -1.1182 -0.2863
   82MOL0     H11038   7.612   2.297  10.026  1.4358 -0.1645  3.5814
   82MOL0     H11039   7.556   2.130  10.021 -1.4558 -0.7913  1.3442
   82MOL0     H11040   7.323   2.188  10.013 -0.1022 -0.9302  1.4593
   82MOL0     H11041   7.407   2.267   9.882 -0.3513  2.0638  0.3553
   82MOL0     H11042   7.428   2.482  10.042  0.8832 -0.3573 -1.8091
   82MOL0     H11043   7.296   2.386  10.137 -1.6795 -5.0009 -1.0203
   82MOL0     H11044   7.162   2.377   9.950  0.0042 -0.8576 -1.3492
   82MOL0     H11045   7.194   2.546  10.004  1.1316  2.4913 -3.3758
   82MOL0     H11046   7.358   2.437   9.789 -1.6967 -1.7818  0.7438
   82MOL0     H11047   7.331   2.608   9.817  0.5253  0.4048 -1.3136
   82MOL0     H11048   7.133   2.416   9.704  0.9957 -0.1676 -1.3994
   82MOL0     H11049   7.083   2.574   9.779 -0.3871 -1.9760  1.4149
   82MOL0     H11050   7.781   2.031  10.462 -0.6086  2.5396 -5.3598
   82MOL0     H11051   7.788   1.843  10.619  2.5515  0.7871 -0.2899
   82MOL0     H11052   7.370   1.338  10.598 -1.5650 -3.6484  0.9005
   82MOL0     H11053   7.389   1.109  10.708  0.4165 -1.3931  1.0891
   82MOL0     H11054   7.543   1.321   9.601  1.1422  0.1605  0.2867
   82MOL0     H11055   7.517   1.388   9.383  1.4217  0.1337 -1.0305
   82MOL0     H11056   7.778   1.258   8.981 -0.1388  0.0395 -1.1992
   82MOL0     H11057   7.881   1.306   8.767 -1.0384 -1.3792  0.5075
   82MOL0     H11058   7.723   1.383   8.497  0.0081 -0.1351 -0.2165
   82MOL0     H11059   7.897   1.339   8.542  0.4009  0.8459  1.8037
   82MOL0     H11060   7.849   1.553   8.336  0.3326 -1.1194 -0.8161
   82MOL0     H11061   7.859   1.389   8.293  0.8404  0.7600 -0.8967
   82MOL0     H11062   8.068   1.357   8.377  2.4460 -0.0925 -1.8468
   82MOL0     H11063   8.073   1.500   8.477 -2.3177 -1.9364  1.4777
   82MOL0     H11064   8.084   1.640   8.255  0.2564 -0.0210  0.7825
   82MOL0     H11065   8.218   1.529   8.281 -0.7954 -2.8552  2.7741
   82MOL0     H11066   7.974   1.385   7.965  0.2161  2.6850 -0.2321
   82MOL0     H11067   7.618   1.654   8.717 -0.6772  2.2455  3.2741
   82MOL0     H11068   7.395   1.574   8.987  1.7893  0.4108  1.8009
   82MOL0     H11069   7.516   1.692   9.011 -0.0057 -1.9868  1.9935
   82MOL0     H11070   7.428   1.678   8.851  0.4303  0.1571 -0.8659
   83MOL0     O11071   5.629   9.378   7.399 -0.6297  0.2215  0.1724
   83MOL0     C11072   5.530   9.442   7.417  0.1334 -0.8885 -1.2208
   83MOL0     O11073   5.507   9.500   7.546  0.3249 -0.2832  0.3349
   83MOL0     C11074   5.591   9.472   7.642  0.7996 -0.0717  0.8444
   83MOL0     C11075   5.595   9.339   7.698 -0.3643 -1.2297  0.0576
   83MOL0     C11076   5.696   9.315   7.797  0.0659  0.2595 -0.1670
   83MOL0     C11077   5.786   9.416   7.827 -0.6611  0.0454  1.7804
   83MOL0     O11078   5.889   9.374   7.913  0.1664 -0.2232  0.4126
   83MOL0     C11079   6.003   9.448   7.936  0.5960  0.5361 -0.3542
   83MOL0     C11080   6.091   9.367   8.031  0.0279  0.0834 -0.8145
   83MOL0     C11081   6.075   9.410   8.181 -0.5570 -0.1280  0.1813
   83MOL0     C11082   6.173   9.362   8.273 -0.6544  0.3280  0.2345
   83MOL0     C11083   6.114   9.321   8.399  0.6041  0.2428 -1.2420
   83MOL0     C11084   6.211   9.291   8.508  0.0312  0.1887 -0.5532
   83MOL0     C11085   6.145   9.254   8.642 -0.3884 -0.3502 -0.1185
   83MOL0     C11086   6.250   9.188   8.737 -0.4666 -0.2849 -0.3045
   83MOL0     N11087   6.311   9.072   8.682  0.2792 -0.0222 -0.3868
   83MOL0     C11088   6.246   8.958   8.660 -0.6908 -0.1008 -0.1698
   83MOL0     C11089   6.335   8.891   8.595  0.0214 -0.0182 -0.2629
   83MOL0     C11090   6.287   8.756   8.533  0.6363  0.4626 -0.1574
   83MOL0     C11091   6.316   8.746   8.380  0.2782 -0.1279 -0.3023
   83MOL0     C11092   6.280   8.602   8.330  0.5271 -0.2609  0.6188
   83MOL0     C11093   6.320   8.602   8.186  0.3811  0.2924  0.2223
   83MOL0     O11094   6.469   8.602   8.182  0.7213  0.0748 -0.0564
   83MOL0     C11095   6.523   8.586   8.058 -0.3493  0.6444 -0.4850
   83MOL0     C11096   6.453   8.595   7.944 -0.1015 -0.6922  0.3153
   83MOL0     C11097   6.526   8.614   7.819 -0.1791 -0.3083 -0.9041
   83MOL0     C11098   6.663   8.619   7.813 -0.0137  0.0211  0.5595
   83MOL0     C11099   6.744   8.641   7.688 -0.2029  0.1891  0.5076
   83MOL0     O11100   6.674   8.680   7.577  0.0622 -0.2328 -0.3462
   83MOL0     C11101   6.749   8.730   7.472 -0.5164  0.5133  0.4443
   83MOL0     C11102   6.718   8.858   7.421 -0.3533  0.3693 -0.3295
   83MOL0     C11103   6.807   8.909   7.327 -0.0254 -0.4323  0.9249
   83MOL0     C11104   6.915   8.838   7.280 -0.2979 -0.7144  0.3220
   83MOL0     O11105   6.988   8.909   7.190  0.1650  0.2921 -0.2943
   83MOL0     C11106   7.041   8.833   7.084  0.3562 -0.7575 -0.4868
   83MOL0     C11107   7.113   8.919   6.983 -0.2293 -1.0146 -0.1638
   83MOL0     C11108   7.028   9.032   6.926  0.7575  0.3672  0.5108
   83MOL0     C11109   6.973   8.986   6.783  0.7411  0.2887  0.5724
   83MOL0     C11110   6.945   9.104   6.690  0.2834 -0.0420  0.6125
   83MOL0     C11111   6.830   9.200   6.714 -0.2542 -0.6784  1.1488
   83MOL0     C11112   6.847   9.334   6.643  0.1707  0.1889  0.3926
   83MOL0     C11113   6.742   9.433   6.683  0.4473 -0.2173 -0.8002
   83MOL0    Cl11114   6.595   9.375   6.626 -0.9257  0.2849 -0.1580
   83MOL0     C11115   6.943   8.708   7.325 -0.4430  0.0059  1.2599
   83MOL0     C11116   6.852   8.649   7.417  0.2998  0.0709 -0.5859
   83MOL0     O11117   6.868   8.647   7.702  0.8028 -0.3735  0.2412
   83MOL0     C11118   6.730   8.589   7.932 -0.0183 -0.4247  0.3306
   83MOL0     C11119   6.659   8.581   8.051  0.1010  0.4684 -1.0262
   83MOL0     N11120   6.444   8.964   8.562  0.3583 -0.4488  0.6305
   83MOL0     N11121   6.434   9.077   8.622  0.0643  0.0039  1.0039
   83MOL0     C11122   5.774   9.542   7.770 -0.5045 -0.3025 -0.1609
   83MOL0     C11123   5.679   9.574   7.679  0.4766 -0.1175  0.5900
   83MOL0     C11124   5.454   9.489   7.309  0.3549  0.2173  0.7721
   83MOL0     C11125   5.323   9.548   7.337  0.2900  0.0055  0.4757
   83MOL0     C11126   5.232   9.595   7.235 -0.2466  0.1622 -0.7440
   83MOL0     C11127   5.279   9.592   7.101  0.2002  0.5894  0.3944
   83MOL0     O11128   5.202   9.620   6.991 -0.2030  0.4484 -0.2089
   83MOL0     C11129   5.068   9.658   7.014 -0.0300  0.4015 -0.4728
   83MOL0     C11130   4.991   9.682   6.889  0.7984  0.3055 -0.1013
   83MOL0     C11131   4.927   9.549   6.836  0.3399  0.2958 -0.4156
   83MOL0     C11132   4.874   9.558   6.689 -0.3688  0.8644  0.1252
   83MOL0     C11133   4.779   9.440   6.652 -0.3149 -0.8523 -0.2682
   83MOL0     C11134   4.698   9.366   6.607  0.4998  0.6365 -0.6468
   83MOL0     C11135   5.410   9.548   7.072 -0.4860  0.5270  0.2895
   83MOL0     C11136   5.496   9.499   7.171 -0.0373 -0.2977 -0.4208
   83MOL0     C11137   5.619   9.436   7.114  0.7461 -0.5008 -0.0820
   83MOL0     H11138   5.519   9.273   7.659 -1.8435  0.7473 -0.5478
   83MOL0     H11139   5.698   9.225   7.858 -1.4247  0.8026  0.7635
   83MOL0     H11140   6.054   9.437   7.840 -0.1713 -3.4547 -0.4964
   83MOL0     H11141   5.996   9.552   7.970  1.8981  0.0917  1.4457
   83MOL0     H11142   6.199   9.371   8.014  0.4646 -2.4757  0.7899
   83MOL0     H11143   6.054   9.265   8.017 -4.7660  0.9056  3.1356
   83MOL0     H11144   5.978   9.369   8.208 -1.2884  0.4712 -1.4269
   83MOL0     H11145   6.086   9.519   8.179  0.2752 -0.1772 -2.9880
   83MOL0     H11146   6.225   9.276   8.229  4.0043  3.1394 -0.3662
   83MOL0     H11147   6.254   9.433   8.289 -0.1659  0.4318 -2.2368
   83MOL0     H11148   6.056   9.402   8.442  1.1111  1.8499 -3.4125
   83MOL0     H11149   6.040   9.240   8.396 -0.8670  1.2657  2.2956
   83MOL0     H11150   6.275   9.212   8.467  0.1669 -0.2522  0.4767
   83MOL0     H11151   6.272   9.381   8.516  1.4603 -0.6035 -1.9407
   83MOL0     H11152   6.066   9.181   8.624 -0.6728  0.0825 -0.6258
   83MOL0     H11153   6.095   9.336   8.694 -0.5413 -0.8674  0.5652
   83MOL0     H11154   6.328   9.260   8.763 -1.3580  0.6892 -0.2102
   83MOL0     H11155   6.197   9.157   8.828  1.5721  1.1063  1.4681
   83MOL0     H11156   6.145   8.927   8.685 -1.1723  3.2456  2.8471
   83MOL0     H11157   6.344   8.679   8.586  1.6250  2.1233  1.3174
   83MOL0     H11158   6.179   8.750   8.553  0.8274  2.6634  1.9659
   83MOL0     H11159   6.247   8.810   8.324 -0.1989 -1.9421 -1.8664
   83MOL0     H11160   6.423   8.768   8.373  0.6803 -0.8034  2.4673
   83MOL0     H11161   6.171   8.596   8.323  0.1756  4.0205 -0.8925
   83MOL0     H11162   6.332   8.522   8.384  0.1188 -2.4147 -1.9747
   83MOL0     H11163   6.287   8.696   8.141 -0.1991  0.0853  0.2078
   83MOL0     H11164   6.277   8.518   8.130 -2.9982  1.1490  1.3071
   83MOL0     H11165   6.344   8.602   7.940 -0.0286  0.0684 -0.6846
   83MOL0     H11166   6.475   8.657   7.734  1.0282 -0.8808 -1.9590
   83MOL0     H11167   6.639   8.926   7.451 -1.4403 -1.3374  0.8684
   83MOL0     H11168   6.805   9.008   7.283 -0.3101 -0.0970  1.6682
   83MOL0     H11169   7.107   8.764   7.136 -0.6924 -0.1449  1.7577
   83MOL0     H11170   6.958   8.775   7.042 -0.5962 -0.3158  0.7309
   83MOL0     H11171   7.190   8.975   7.036 -0.9498  0.2501 -0.4119
   83MOL0     H11172   7.165   8.860   6.906 -0.7277  2.0434 -3.0998
   83MOL0     H11173   6.946   9.067   6.989 -0.8479 -0.8513 -0.8242
   83MOL0     H11174   7.092   9.120   6.910  3.6820 -1.8655 -1.0239
   83MOL0     H11175   6.890   8.914   6.785  0.3516  0.6045 -1.7024
   83MOL0     H11176   7.046   8.923   6.731  2.1452  0.9795  1.6464
   83MOL0     H11177   6.935   9.068   6.588  1.7122 -1.5294  0.9630
   83MOL0     H11178   7.041   9.156   6.695  1.7417 -2.4781 -0.4446
   83MOL0     H11179   6.732   9.155   6.696 -0.0259 -0.5251 -0.5541
   83MOL0     H11180   6.843   9.239   6.816  1.6066  1.0474  0.3022
   83MOL0     H11181   6.832   9.316   6.537 -3.6017 -1.5343  1.0519
   83MOL0     H11182   6.943   9.382   6.667 -0.7415  1.2914  2.0870
   83MOL0     H11183   6.738   9.465   6.787  0.1335  0.5981 -1.0584
   83MOL0     H11184   6.752   9.524   6.624  1.2468  0.4206  0.2921
   83MOL0     H11185   7.029   8.650   7.293 -1.2607 -0.5826  0.0319
   83MOL0     H11186   6.868   8.549   7.457  3.2918  1.7730  3.1572
   83MOL0     H11187   6.838   8.583   7.938  0.3521  0.2209 -3.1741
   83MOL0     H11188   6.708   8.566   8.147  1.0485 -2.4745 -1.8319
   83MOL0     H11189   5.849   9.617   7.793  0.9529 -0.7252 -3.0648
   83MOL0     H11190   5.693   9.668   7.625 -1.1185 -1.3814 -2.2579
   83MOL0     H11191   5.291   9.549   7.441 -1.4130  1.6003 -0.0264
   83MOL0     H11192   5.135   9.620   7.277 -1.3324 -1.5779 -2.0509
   83MOL0     H11193   5.085   9.746   7.077  0.1068 -1.2251  1.8709
   83MOL0     H11194   5.012   9.587   7.075  2.0359 -2.4005 -1.6240
   83MOL0     H11195   5.069   9.715   6.820  1.5950 -1.3710 -0.0566
   83MOL0     H11196   4.916   9.760   6.901  1.6982  0.9215  1.8507
   83MOL0     H11197   4.846   9.520   6.904  0.8593  2.7063  1.3731
   83MOL0     H11198   5.001   9.468   6.839  0.7018  0.6305  1.8785
   83MOL0     H11199   4.811   9.648   6.678 -1.3517  0.6290  2.8875
   83MOL0     H11200   4.958   9.558   6.619 -0.3160 -1.2566  0.1370
   83MOL0     H11201   4.624   9.293   6.580 -0.0797  0.3846  1.4467
   83MOL0     H11202   5.423   9.530   6.965 -0.9394  2.2214 -0.0723
   83MOL0     H11203   5.705   9.477   7.167  1.7247  2.2680 -3.4069
   83MOL0     H11204   5.625   9.327   7.124 -3.1837 -0.9596 -1.1427
   83MOL0     H11205   5.631   9.466   7.009  1.6557 -1.7702 -0.3782
   84MOL0     O11206   7.352   8.860  11.012  1.0908 -0.7101  0.4035
   84MOL0     C11207   7.235   8.901  11.018  0.1568  0.7673  0.3376
   84MOL0     O11208   7.139   8.882  10.918 -1.0398 -0.4924 -0.3266
   84MOL0     C11209   7.182   8.843  10.796  0.5535 -0.1414 -0.2689
   84MOL0     C11210   7.274   8.910  10.724 -0.0901  0.5733  0.4547
   84MOL0     C11211   7.312   8.875  10.594  0.2159  0.4223  0.5447
   84MOL0     C11212   7.273   8.750  10.543 -0.6125  0.6428 -0.0991
   84MOL0     O11213   7.324   8.709  10.421  0.1832  0.1021  0.2247
   84MOL0     C11214   7.275   8.591  10.350  0.2996  0.1453  0.1369
   84MOL0     C11215   7.376   8.565  10.239 -0.3149  0.5806  0.1024
   84MOL0     C11216   7.508   8.531  10.309 -0.1917  0.0735 -0.5116
   84MOL0     C11217   7.588   8.463  10.201  0.4952 -0.0042 -0.2475
   84MOL0     C11218   7.727   8.434  10.259  0.7342 -0.4883 -0.0427
   84MOL0     C11219   7.822   8.537  10.195 -0.4038  0.6376 -0.2017
   84MOL0     C11220   7.966   8.516  10.261 -0.4028 -0.6035 -0.7985
   84MOL0     C11221   8.078   8.598  10.185  1.4086  0.1102  0.2839
   84MOL0     N11222   8.203   8.588  10.267  0.3109 -0.1822  0.0012
   84MOL0     C11223   8.304   8.692  10.282 -0.1642 -0.8274  0.3685
   84MOL0     C11224   8.404   8.627  10.354  1.1204 -0.1854  0.9460
   84MOL0     C11225   8.544   8.688  10.379  0.3125  1.3784  0.7274
   84MOL0     C11226   8.555   8.805  10.470 -0.1615 -0.6030  0.3257
   84MOL0     C11227   8.480   8.772  10.604  0.2213 -0.4577  1.4397
   84MOL0     C11228   8.477   8.867  10.717 -0.2056  0.3091 -0.0227
   84MOL0     O11229   8.600   8.872  10.768 -0.5292 -0.1439 -0.1461
   84MOL0     C11230   8.636   8.960  10.874  0.1082 -0.1808  1.1690
   84MOL0     C11231   8.552   9.062  10.921  0.8255 -0.7961 -0.2694
   84MOL0     C11232   8.599   9.144  11.023 -0.4936 -0.2936 -1.0724
   84MOL0     C11233   8.731   9.140  11.072  0.2235 -0.1178  0.1607
   84MOL0     C11234   8.781   9.235  11.175 -0.5099  1.3330 -0.2527
   84MOL0     O11235   8.704   9.338  11.212  0.2557  0.0381 -0.3187
   84MOL0     C11236   8.755   9.445  11.285  0.0012  1.1448  0.3682
   84MOL0     C11237   8.783   9.571  11.222 -0.6828  0.9927 -0.0741
   84MOL0     C11238   8.811   9.681  11.311  0.7065  0.8686 -0.9211
   84MOL0     C11239   8.833   9.660  11.455  0.9467  0.1620 -0.7097
   84MOL0     O11240   8.862   9.766  11.539  0.0792  0.4298  0.1579
   84MOL0     C11241   8.988   9.744  11.600 -1.0852 -0.4051 -0.7198
   84MOL0     C11242   9.005   9.835  11.718  0.4795 -0.5169  0.0639
   84MOL0     C11243   9.019   9.764  11.857 -1.2899  0.4640  0.2822
   84MOL0     C11244   9.011   9.853  11.972  0.4355 -0.6183 -0.3847
   84MOL0     C11245   9.101   9.794  12.088  0.0048 -0.2668 -0.7497
   84MOL0     C11246   9.089   9.894  12.208 -0.4369  0.9618  0.3109
   84MOL0     C11247   9.139   9.806  12.334 -0.5644 -0.5790 -0.0059
   84MOL0     C11248   9.127   9.889  12.465  0.2881  1.2134 -0.3929
   84MOL0    Cl11249   8.950   9.909  12.521 -0.4297 -0.0929 -0.4491
   84MOL0     C11250   8.805   9.536  11.507 -0.5799  0.2482 -0.5107
   84MOL0     C11251   8.769   9.432  11.424  0.7581 -0.8809 -0.3158
   84MOL0     O11252   8.895   9.224  11.214 -0.6920  1.0230  0.0806
   84MOL0     C11253   8.810   9.045  11.022 -0.3862 -0.4571  0.6675
   84MOL0     C11254   8.769   8.963  10.924  1.2120  0.1137 -0.4181
   84MOL0     N11255   8.369   8.499  10.381  0.0527 -0.3299  0.1961
   84MOL0     N11256   8.247   8.483  10.337 -0.4736 -0.0201  0.3189
   84MOL0     C11257   7.174   8.685  10.619 -1.0195 -0.2625  0.3502
   84MOL0     C11258   7.126   8.728  10.741 -0.2578 -0.2254  0.0786
   84MOL0     C11259   7.181   8.923  11.166 -0.1525  0.2633  0.1379
   84MOL0     C11260   7.047   8.883  11.182 -0.0181 -0.6220  0.4064
   84MOL0     C11261   6.992   8.889  11.314 -0.0202  0.2665 -0.0022
   84MOL0     C11262   7.062   8.958  11.419 -0.9304  0.0755 -0.4784
   84MOL0     O11263   7.019   8.982  11.543  0.4572 -0.0470 -0.3562
   84MOL0     C11264   6.884   8.946  11.583 -0.0863 -0.2367  0.2288
   84MOL0     C11265   6.804   9.075  11.553  0.2652 -0.3746  0.0759
   84MOL0     C11266   6.654   9.048  11.578  0.4331 -0.6553  0.5659
   84MOL0     C11267   6.558   9.010  11.463 -0.4806 -0.7811 -0.0874
   84MOL0     C11268   6.601   8.902  11.376 -0.2161 -0.2423 -0.4455
   84MOL0     C11269   6.645   8.801  11.313  0.1337 -0.8284  0.6707
   84MOL0     C11270   7.188   9.004  11.397 -0.2294 -0.6933 -0.6718
   84MOL0     C11271   7.253   8.984  11.277 -0.2928  0.4250  0.3905
   84MOL0     C11272   7.386   9.040  11.264 -0.5394  0.3537 -0.0861
   84MOL0     H11273   7.310   9.010  10.743 -1.2294  1.0359  0.1886
   84MOL0     H11274   7.368   8.948  10.537 -2.1364  0.8982 -1.3562
   84MOL0     H11275   7.257   8.506  10.416 -0.0714 -1.1463 -1.5387
   84MOL0     H11276   7.184   8.621  10.297  2.1948 -0.1553 -3.6726
   84MOL0     H11277   7.389   8.658  10.184  1.4262 -0.1208 -0.7341
   84MOL0     H11278   7.334   8.486  10.176 -0.9535 -0.9362  2.2997
   84MOL0     H11279   7.491   8.456  10.387  1.3256 -1.7628 -1.8463
   84MOL0     H11280   7.564   8.623  10.331 -0.8291  0.9543 -2.3999
   84MOL0     H11281   7.538   8.371  10.167  0.7709  0.1839 -1.1943
   84MOL0     H11282   7.595   8.520  10.108 -0.0545  1.0285  0.3221
   84MOL0     H11283   7.726   8.447  10.367  0.6221  2.2887 -0.3003
   84MOL0     H11284   7.765   8.339  10.221  0.0462 -1.0840  0.7340
   84MOL0     H11285   7.829   8.507  10.089  1.1627 -3.3131  0.8260
   84MOL0     H11286   7.792   8.642  10.188 -2.0594  0.1961 -0.0808
   84MOL0     H11287   7.997   8.412  10.256 -0.9784 -0.8995  0.9540
   84MOL0     H11288   7.971   8.546  10.366  1.0520 -2.2902 -0.3479
   84MOL0     H11289   8.084   8.550  10.087 -0.6723  1.3930 -0.5316
   84MOL0     H11290   8.058   8.706  10.177  0.5441  0.1840  2.5751
   84MOL0     H11291   8.319   8.789  10.235  0.3880 -1.8740 -1.6999
   84MOL0     H11292   8.610   8.608  10.413  2.2286  2.4628 -0.2553
   84MOL0     H11293   8.589   8.700  10.280 -2.9573 -5.0105 -2.1293
   84MOL0     H11294   8.655   8.844  10.493 -1.0603  3.0645 -1.1286
   84MOL0     H11295   8.503   8.883  10.413 -3.2302 -2.5439  0.2782
   84MOL0     H11296   8.513   8.676  10.644 -3.1487 -2.2972  0.2304
   84MOL0     H11297   8.375   8.762  10.574 -0.6025 -2.5961  4.5191
   84MOL0     H11298   8.406   8.844  10.796 -0.3512  0.0073 -0.2415
   84MOL0     H11299   8.445   8.963  10.675  0.7367  1.7081  2.2264
   84MOL0     H11300   8.450   9.070  10.883  0.1533 -0.4819  1.4571
   84MOL0     H11301   8.520   9.211  11.058 -0.9227 -0.8208 -1.0103
   84MOL0     H11302   8.766   9.594  11.117  0.5912  0.3186 -0.4582
   84MOL0     H11303   8.827   9.783  11.275  2.1888  0.9597 -0.1032
   84MOL0     H11304   8.996   9.640  11.634  4.5326 -0.9338 -2.6313
   84MOL0     H11305   9.070   9.752  11.529  1.3696  0.2085  2.0177
   84MOL0     H11306   9.090   9.903  11.708  1.1651 -1.3866 -0.1055
   84MOL0     H11307   8.913   9.894  11.717 -0.0834 -1.3253  1.2660
   84MOL0     H11308   8.946   9.683  11.868  1.9563 -2.9500 -1.0548
   84MOL0     H11309   9.116   9.714  11.863 -2.1137 -1.1956  0.4004
   84MOL0     H11310   8.913   9.857  12.020  1.2333 -0.9129  1.3758
   84MOL0     H11311   9.048   9.953  11.946  1.2759 -0.7611  0.1938
   84MOL0     H11312   9.209   9.783  12.075  1.0389 -3.0133  5.9215
   84MOL0     H11313   9.062   9.696  12.117  2.2814 -0.8427  0.6076
   84MOL0     H11314   9.140   9.988  12.184 -0.9551  2.1104  3.2338
   84MOL0     H11315   8.984   9.923  12.223 -1.0477 -1.7192  2.0074
   84MOL0     H11316   9.240   9.768  12.323 -0.9527 -2.0170  1.0355
   84MOL0     H11317   9.075   9.718  12.344 -0.9826 -0.0010  4.0432
   84MOL0     H11318   9.201   9.857  12.539  2.2721  2.6550 -1.6492
   84MOL0     H11319   9.156   9.992  12.443 -3.6386  3.2804  2.6943
   84MOL0     H11320   8.809   9.511  11.612 -2.9552 -2.3529 -0.9376
   84MOL0     H11321   8.765   9.332  11.468 -1.5849 -0.2228  1.1119
   84MOL0     H11322   8.907   9.019  11.065  0.6233 -0.8754 -1.7043
   84MOL0     H11323   8.841   8.885  10.900  2.1026 -0.5568  3.7726
   84MOL0     H11324   7.142   8.587  10.585  1.0739 -0.0069 -2.7183
   84MOL0     H11325   7.054   8.667  10.793  2.4522 -3.3173  0.5205
   84MOL0     H11326   6.986   8.847  11.099  0.3726 -2.8607  1.0347
   84MOL0     H11327   6.888   8.865  11.329  0.4225 -3.1850 -1.5922
   84MOL0     H11328   6.892   8.933  11.692  1.7425  2.0268  0.4446
   84MOL0     H11329   6.839   8.857  11.538 -1.4968 -0.5526  2.1248
   84MOL0     H11330   6.815   9.102  11.447 -0.2645 -3.0655 -0.7572
   84MOL0     H11331   6.847   9.156  11.612  0.3970  0.2560 -0.8697
   84MOL0     H11332   6.621   9.140  11.627 -1.0141 -1.8531  1.9493
   84MOL0     H11333   6.651   8.969  11.654  0.4743  1.2496  2.6244
   84MOL0     H11334   6.470   8.997  11.527  1.1726  2.8969  3.4809
   84MOL0     H11335   6.527   9.092  11.398 -1.9046 -0.6036  0.7632
   84MOL0     H11336   6.684   8.719  11.257  0.5713 -1.1175  1.3908
   84MOL0     H11337   7.229   9.065  11.478 -2.7108 -1.3230  1.1732
   84MOL0     H11338   7.391   9.138  11.312 -2.9295 -0.1793  1.4546
   84MOL0     H11339   7.447   8.969  11.321 -2.2451 -2.0142 -1.0491
   84MOL0     H11340   7.417   9.044  11.159  2.5177  0.0553  0.7237
   85MOL0     O11341   6.767   4.901   8.937 -1.2613 -0.2662 -0.0772
   85MOL0     C11342   6.659   4.937   8.964 -0.2403 -0.4075  0.5020
   85MOL0     O11343   6.615   4.998   9.078 -0.3153 -0.2796  0.4320
   85MOL0     C11344   6.698   5.046   9.175  0.1001 -0.4581 -0.0812
   85MOL0     C11345   6.644   5.054   9.301  0.6357  0.3862 -0.2799
   85MOL0     C11346   6.700   5.108   9.412 -0.7231 -0.5556 -0.0814
   85MOL0     C11347   6.831   5.164   9.394  0.6797 -0.6729 -0.1901
   85MOL0     O11348   6.897   5.217   9.496 -0.8191  0.4209 -0.4714
   85MOL0     C11349   6.834   5.223   9.628  0.4297 -0.1120 -0.1757
   85MOL0     C11350   6.941   5.272   9.733  0.2249 -0.0990  0.0384
   85MOL0     C11351   7.061   5.183   9.718  0.3406 -0.6350 -0.0146
   85MOL0     C11352   7.165   5.207   9.834 -0.1716  0.5442 -0.6762
   85MOL0     C11353   7.307   5.140   9.796  0.0982 -0.2142  0.1770
   85MOL0     C11354   7.424   5.197   9.889  0.7358  0.2421 -0.1458
   85MOL0     C11355   7.449   5.346   9.865 -0.6115 -0.4835  0.7389
   85MOL0     C11356   7.595   5.391   9.894  0.4516  0.1683  0.0273
   85MOL0     N11357   7.602   5.401  10.044  0.4058  0.2625 -0.8300
   85MOL0     C11358   7.600   5.303  10.141 -1.2838 -0.5722 -0.4397
   85MOL0     C11359   7.658   5.364  10.249 -0.8577  0.6986  0.3580
   85MOL0     C11360   7.685   5.291  10.378 -0.0994 -0.2195  0.1227
   85MOL0     C11361   7.559   5.221  10.428 -0.5658 -0.3094 -1.0002
   85MOL0     C11362   7.446   5.315  10.465 -0.3625  0.3768  0.2241
   85MOL0     C11363   7.310   5.255  10.492  0.9906 -0.1263  0.7206
   85MOL0     O11364   7.264   5.184  10.372 -0.1899 -0.1357 -0.7959
   85MOL0     C11365   7.164   5.250  10.303  0.1444  0.2687  0.3458
   85MOL0     C11366   7.192   5.311  10.185 -1.1417  0.3355 -1.0106
   85MOL0     C11367   7.099   5.381  10.115 -0.0186  0.1799  0.0061
   85MOL0     C11368   6.963   5.385  10.162 -0.0552  1.0175  0.5990
   85MOL0     C11369   6.868   5.458  10.088 -0.8198 -0.2566  0.3675
   85MOL0     O11370   6.748   5.462  10.148  0.5765  0.1920 -1.3804
   85MOL0     C11371   6.647   5.519  10.084  0.0276 -0.1325  0.4680
   85MOL0     C11372   6.638   5.645  10.033  0.4037  0.2336 -0.0758
   85MOL0     C11373   6.518   5.680   9.966 -1.2553  0.0644 -0.0130
   85MOL0     C11374   6.417   5.591   9.949 -0.5757 -0.1315  0.7819
   85MOL0     O11375   6.319   5.620   9.857  0.2320  0.1488 -0.0364
   85MOL0     C11376   6.211   5.524   9.823 -0.2383 -0.3390 -0.0308
   85MOL0     C11377   6.089   5.559   9.918  0.3975 -0.4474  0.1372
   85MOL0     C11378   5.985   5.453   9.880 -0.7220  0.1207  0.3523
   85MOL0     C11379   5.844   5.494   9.948  1.0741 -0.8967 -0.2337
   85MOL0     C11380   5.735   5.392   9.890 -0.3878 -0.3017 -0.4196
   85MOL0     C11381   5.590   5.436   9.943 -0.4675 -0.5610  0.3111
   85MOL0     C11382   5.495   5.315   9.918 -0.6004 -0.3020  0.2957
   85MOL0     C11383   5.495   5.208  10.029 -0.2706  0.2622  0.3343
   85MOL0    Cl11384   5.341   5.115  10.012  0.2585  0.0143 -0.3964
   85MOL0     C11385   6.425   5.467  10.008  0.5178  1.0996 -0.0894
   85MOL0     C11386   6.545   5.432  10.065  1.0980 -0.0338 -1.6241
   85MOL0     O11387   6.900   5.515   9.986  0.0063 -0.7588  0.6748
   85MOL0     C11388   6.932   5.303  10.272  0.7796  0.1700 -0.2921
   85MOL0     C11389   7.034   5.238  10.346 -0.5832  0.2181 -0.5965
   85MOL0     N11390   7.693   5.495  10.217  0.0509 -0.1817 -0.8416
   85MOL0     N11391   7.661   5.514  10.095 -0.8389  0.0478 -0.1189
   85MOL0     C11392   6.894   5.152   9.268  0.9408 -0.2427  0.1375
   85MOL0     C11393   6.831   5.096   9.163  0.4549 -0.1191 -0.2238
   85MOL0     C11394   6.558   4.884   8.879 -1.2178 -0.2861 -0.5015
   85MOL0     C11395   6.440   4.841   8.939  0.2617  0.0467  0.2622
   85MOL0     C11396   6.340   4.775   8.857 -0.4345 -0.2148 -0.9976
   85MOL0     C11397   6.348   4.774   8.714 -0.7056  1.2266 -0.6584
   85MOL0     O11398   6.270   4.691   8.638 -0.0047  0.9942  0.6723
   85MOL0     C11399   6.230   4.715   8.498 -0.4439  0.4564  0.0572
   85MOL0     C11400   6.082   4.676   8.474  0.9894 -0.2458  0.1916
   85MOL0     C11401   6.016   4.706   8.337 -0.6181  0.1346  0.1033
   85MOL0     C11402   6.055   4.838   8.265 -0.8028  0.3894  0.7195
   85MOL0     C11403   5.988   4.833   8.131 -0.4643  0.7738  0.3663
   85MOL0     C11404   5.939   4.812   8.026 -0.0467 -1.9401 -0.4868
   85MOL0     C11405   6.456   4.829   8.663 -0.2429 -0.0376  1.1716
   85MOL0     C11406   6.558   4.889   8.736 -0.9174 -0.4861 -0.3688
   85MOL0     C11407   6.670   4.960   8.663  1.4063 -0.3267  0.3656
   85MOL0     H11408   6.541   5.024   9.314  0.8468  0.1342  0.8337
   85MOL0     H11409   6.634   5.125   9.496 -0.6262  2.5965 -0.5171
   85MOL0     H11410   6.752   5.295   9.622  0.5154  0.4698  3.4802
   85MOL0     H11411   6.783   5.133   9.664 -3.3603  1.7380 -0.3773
   85MOL0     H11412   6.912   5.251   9.837  0.9520 -0.6649  0.1318
   85MOL0     H11413   6.957   5.379   9.716 -1.2961 -0.2792 -3.0854
   85MOL0     H11414   7.101   5.199   9.618 -3.2602  1.5404 -1.3247
   85MOL0     H11415   7.022   5.080   9.718 -1.9973  0.1585 -1.6619
   85MOL0     H11416   7.174   5.316   9.835  0.5221  0.4985  0.0862
   85MOL0     H11417   7.132   5.179   9.935  3.9459  1.1655  1.0797
   85MOL0     H11418   7.309   5.031   9.808  2.8626 -0.4274 -1.3731
   85MOL0     H11419   7.333   5.168   9.694  0.9463  4.2574  1.3735
   85MOL0     H11420   7.377   5.193   9.988  0.1082  1.1111 -0.3912
   85MOL0     H11421   7.506   5.127   9.873 -1.1928 -2.7568  2.0318
   85MOL0     H11422   7.384   5.406   9.929  0.5519  1.7139 -0.0127
   85MOL0     H11423   7.420   5.368   9.762 -0.1300  0.7540  0.8507
   85MOL0     H11424   7.674   5.329   9.851 -0.3331 -2.0478  1.5760
   85MOL0     H11425   7.616   5.493   9.861 -0.7099  0.5314  0.3644
   85MOL0     H11426   7.568   5.200  10.151  0.4467 -0.9812  1.7065
   85MOL0     H11427   7.761   5.215  10.364 -1.2823 -1.5394  0.6300
   85MOL0     H11428   7.723   5.367  10.447 -1.7912  2.1068 -1.3261
   85MOL0     H11429   7.528   5.140  10.361  0.5144 -0.9482 -0.7467
   85MOL0     H11430   7.595   5.161  10.512 -2.7341 -1.6938 -0.9640
   85MOL0     H11431   7.426   5.387  10.386 -1.0977  2.0525  1.8478
   85MOL0     H11432   7.478   5.367  10.556  0.3269  1.6720 -0.7462
   85MOL0     H11433   7.242   5.341  10.501 -0.9576 -1.2361 -2.0385
   85MOL0     H11434   7.317   5.202  10.587  1.9940  0.3071  0.9025
   85MOL0     H11435   7.297   5.316  10.162 -0.7070  1.3146  0.9335
   85MOL0     H11436   7.124   5.432  10.023 -2.7947  2.5616  0.4208
   85MOL0     H11437   6.722   5.710  10.057  0.7193 -0.4385  0.6844
   85MOL0     H11438   6.505   5.775   9.916  2.6318 -0.0258 -1.5338
   85MOL0     H11439   6.196   5.544   9.716  2.1283 -0.9207 -0.5258
   85MOL0     H11440   6.237   5.417   9.829 -3.6078 -1.2191  1.2154
   85MOL0     H11441   6.113   5.547  10.024  0.5689 -1.4386 -0.0009
   85MOL0     H11442   6.049   5.659   9.902  0.2438 -0.4455  0.5396
   85MOL0     H11443   5.975   5.454   9.771 -2.5648  3.6040  0.4080
   85MOL0     H11444   6.024   5.361   9.924  2.1547  0.2283 -1.6989
   85MOL0     H11445   5.819   5.597   9.921  0.2419  0.1199  3.8057
   85MOL0     H11446   5.851   5.484  10.056 -1.3597 -1.8194 -0.0986
   85MOL0     H11447   5.761   5.294   9.931 -2.9351 -0.6281  0.6135
   85MOL0     H11448   5.740   5.383   9.781 -2.0257  0.9109 -0.6288
   85MOL0     H11449   5.585   5.462  10.049 -2.8884  2.2230 -0.3665
   85MOL0     H11450   5.546   5.521   9.891  0.1510 -1.0246 -1.0185
   85MOL0     H11451   5.527   5.271   9.823 -0.1802  1.9217 -0.6574
   85MOL0     H11452   5.394   5.356   9.912 -0.4320  0.0274 -0.4431
   85MOL0     H11453   5.585   5.151  10.006  2.3647  3.6137  1.4249
   85MOL0     H11454   5.502   5.258  10.126  1.3821  0.3051  0.2154
   85MOL0     H11455   6.343   5.396  10.005  2.1584 -0.9631  1.0767
   85MOL0     H11456   6.550   5.335  10.113 -1.4600  1.8023  2.9655
   85MOL0     H11457   6.829   5.278  10.299  1.4121 -1.8351  0.4585
   85MOL0     H11458   6.998   5.189  10.436 -1.6373 -2.9355 -2.6012
   85MOL0     H11459   6.996   5.189   9.257  0.8878 -0.1938 -0.1967
   85MOL0     H11460   6.884   5.080   9.070 -0.9687 -2.2910 -0.7391
   85MOL0     H11461   6.437   4.830   9.046  4.3990  0.5768  0.5915
   85MOL0     H11462   6.244   4.736   8.893 -0.1392 -1.3846 -1.4343
   85MOL0     H11463   6.286   4.655   8.425 -0.8099  1.1487 -0.8205
   85MOL0     H11464   6.250   4.820   8.471  0.5510  0.7687  1.8438
   85MOL0     H11465   6.018   4.729   8.545 -0.2314  2.3358 -2.6660
   85MOL0     H11466   6.073   4.569   8.495  3.3263 -0.2114  1.7077
   85MOL0     H11467   5.908   4.693   8.349 -0.4471  0.4395  2.5595
   85MOL0     H11468   6.050   4.625   8.272  2.0485  2.0624 -1.0941
   85MOL0     H11469   6.006   4.919   8.321 -3.3414  1.2685 -2.4725
   85MOL0     H11470   6.164   4.848   8.260 -0.7618  1.5953  2.6787
   85MOL0     H11471   5.897   4.791   7.930 -0.3414 -0.1801 -0.7764
   85MOL0     H11472   6.472   4.825   8.556 -0.9451  3.2271  0.8468
   85MOL0     H11473   6.702   5.045   8.725  0.3691 -0.6458  1.3828
   85MOL0     H11474   6.755   4.898   8.633  0.7035 -0.9694 -0.3141
   85MOL0     H11475   6.633   4.992   8.566 -0.7189 -0.3670  1.1188
   86MOL0     O11476   3.520   1.116   7.231 -0.2499  0.3819  0.1024
   86MOL0     C11477   3.628   1.052   7.251 -0.0026 -0.1544  0.1489
   86MOL0     O11478   3.642   0.952   7.343  0.3707  0.5174  0.1423
   86MOL0     C11479   3.534   0.888   7.406  0.4133 -0.6182  0.0949
   86MOL0     C11480   3.562   0.831   7.530 -0.8775  1.3952  0.4433
   86MOL0     C11481   3.466   0.762   7.607 -0.0656  0.4057 -0.3045
   86MOL0     C11482   3.333   0.747   7.550 -0.4935  0.3010  0.7329
   86MOL0     O11483   3.243   0.665   7.613  0.5709 -0.8010  1.1907
   86MOL0     C11484   3.259   0.653   7.756  0.7189 -0.1205  0.8036
   86MOL0     C11485   3.122   0.600   7.819 -0.4503  0.5129  0.2787
   86MOL0     C11486   3.129   0.559   7.968  0.4480 -0.6670  0.1176
   86MOL0     C11487   2.997   0.513   8.025 -0.2144 -0.0237  0.0683
   86MOL0     C11488   3.013   0.464   8.169  0.1885 -0.9414 -1.0141
   86MOL0     C11489   3.079   0.581   8.257  0.3840  0.4739 -0.7553
   86MOL0     C11490   3.032   0.578   8.400  0.1052 -0.4945 -0.7588
   86MOL0     C11491   3.029   0.450   8.492  0.2933  0.2206  1.3542
   86MOL0     N11492   3.162   0.408   8.529  0.8471  0.3340  0.1399
   86MOL0     C11493   3.270   0.401   8.454 -0.5614  0.2665  0.1563
   86MOL0     C11494   3.380   0.372   8.536 -0.7355  0.3290 -0.6818
   86MOL0     C11495   3.526   0.341   8.507  0.5356 -0.6850 -0.2228
   86MOL0     C11496   3.568   0.370   8.367 -0.1811 -0.2261  0.7508
   86MOL0     C11497   3.545   0.245   8.279  0.3823 -0.8171 -0.7775
   86MOL0     C11498   3.595   0.274   8.141  0.1804  0.6908  0.0875
   86MOL0     O11499   3.506   0.343   8.064 -0.5766 -0.4673 -0.0592
   86MOL0     C11500   3.538   0.355   7.933 -0.1653  0.3594  0.7773
   86MOL0     C11501   3.657   0.408   7.873 -0.0295  0.5016  0.0086
   86MOL0     C11502   3.660   0.439   7.737  0.0054 -0.3620  0.0771
   86MOL0     C11503   3.549   0.412   7.658 -0.4743  0.5202  0.1488
   86MOL0     C11504   3.549   0.429   7.511 -0.8914 -0.1694 -0.5126
   86MOL0     O11505   3.435   0.396   7.438 -0.9269  0.0312 -0.7449
   86MOL0     C11506   3.409   0.463   7.322 -0.0216 -0.3272  0.3146
   86MOL0     C11507   3.507   0.500   7.221  0.4236 -0.0111 -0.8146
   86MOL0     C11508   3.483   0.578   7.104  0.7295 -0.5636  0.5651
   86MOL0     C11509   3.356   0.630   7.092  1.0525  0.1837  0.7523
   86MOL0     O11510   3.330   0.711   6.987 -0.3103 -0.3259 -0.0109
   86MOL0     C11511   3.201   0.716   6.926 -0.3391  0.1086 -0.2015
   86MOL0     C11512   3.204   0.818   6.811 -0.0368 -0.0190  0.0415
   86MOL0     C11513   3.243   0.950   6.861 -0.2129  0.0202  0.4059
   86MOL0     C11514   3.147   1.020   6.951  0.6712  1.3274 -0.5841
   86MOL0     C11515   3.014   1.050   6.878  0.1275  0.6859 -0.5117
   86MOL0     C11516   2.904   1.115   6.970 -0.4123 -0.0781 -0.8468
   86MOL0     C11517   2.866   1.237   6.898 -0.4435 -0.6900  0.0948
   86MOL0     C11518   2.792   1.326   6.991 -0.3785  0.1320 -0.2651
   86MOL0    Cl11519   2.740   1.475   6.898 -0.2965  0.6573 -0.4473
   86MOL0     C11520   3.255   0.586   7.189  0.1080 -0.2103 -0.5297
   86MOL0     C11521   3.280   0.500   7.305  0.2958  0.1220  0.3593
   86MOL0     O11522   3.661   0.456   7.467  0.5657 -0.6234 -0.2010
   86MOL0     C11523   3.439   0.338   7.719 -0.6288 -0.9831 -0.3792
   86MOL0     C11524   3.441   0.302   7.850  0.3343 -0.2785  0.6529
   86MOL0     N11525   3.324   0.378   8.664  0.4703  0.1089  0.6685
   86MOL0     N11526   3.200   0.398   8.659  0.7941 -0.0138 -0.2970
   86MOL0     C11527   3.299   0.801   7.425 -0.1518 -0.2655 -0.0619
   86MOL0     C11528   3.399   0.882   7.360  0.5373 -0.6050 -0.3434
   86MOL0     C11529   3.734   1.089   7.159 -0.5786  0.1592  0.6444
   86MOL0     C11530   3.736   1.220   7.093 -0.0562  0.4208  0.7320
   86MOL0     C11531   3.838   1.248   7.000  0.4751  0.3524 -0.2196
   86MOL0     C11532   3.938   1.159   6.961  0.3493  0.3783 -0.6728
   86MOL0     O11533   4.033   1.188   6.872 -0.3566  0.1976 -0.2814
   86MOL0     C11534   4.088   1.094   6.779 -0.7231 -0.6713  0.3544
   86MOL0     C11535   4.232   1.136   6.720 -0.3943 -0.4994  0.3825
   86MOL0     C11536   4.209   1.244   6.612 -0.4807 -0.1773 -0.7341
   86MOL0     C11537   4.316   1.252   6.511 -0.2169 -0.5477  0.9441
   86MOL0     C11538   4.282   1.363   6.422 -0.1754  0.2436 -0.0657
   86MOL0     C11539   4.249   1.460   6.359 -0.2255  0.3565 -0.8192
   86MOL0     C11540   3.927   1.027   7.019  0.8597 -0.4525 -0.9946
   86MOL0     C11541   3.836   0.993   7.123 -0.3674  0.1103 -1.1756
   86MOL0     C11542   3.849   0.860   7.177  0.8412  0.3710 -0.1680
   86MOL0     H11543   3.665   0.834   7.564 -0.5264 -1.1772 -0.2111
   86MOL0     H11544   3.489   0.731   7.708  3.0486 -0.0247 -1.0326
   86MOL0     H11545   3.336   0.575   7.765  0.2143 -0.5160  1.7432
   86MOL0     H11546   3.296   0.746   7.798  1.5987 -0.2854  0.4327
   86MOL0     H11547   3.085   0.516   7.759 -0.7871  0.9121 -0.0735
   86MOL0     H11548   3.042   0.673   7.801 -2.1267 -1.4084 -0.5616
   86MOL0     H11549   3.168   0.641   8.029 -0.2410 -1.4880  1.7439
   86MOL0     H11550   3.196   0.474   7.984  2.1090  0.3815 -0.9352
   86MOL0     H11551   2.928   0.597   8.023 -1.4863 -0.9061  2.2297
   86MOL0     H11552   2.954   0.428   7.972 -0.1043 -0.2970  0.4093
   86MOL0     H11553   2.914   0.439   8.207  0.0146  3.4500  2.3628
   86MOL0     H11554   3.075   0.374   8.173  1.8272  0.1693 -0.4793
   86MOL0     H11555   3.187   0.580   8.243  0.8788  3.1647  1.9054
   86MOL0     H11556   3.052   0.678   8.215 -0.0626  1.0000  0.6754
   86MOL0     H11557   2.930   0.618   8.407  0.1144 -0.4812 -0.7004
   86MOL0     H11558   3.106   0.643   8.448  1.7847 -2.5085 -0.4935
   86MOL0     H11559   2.966   0.477   8.577 -0.6280  0.4485  0.6189
   86MOL0     H11560   2.980   0.365   8.443 -0.2528  1.6786 -0.7978
   86MOL0     H11561   3.286   0.392   8.347  0.3621  0.2411  0.2911
   86MOL0     H11562   3.585   0.411   8.568  1.1902 -0.8040 -0.7057
   86MOL0     H11563   3.553   0.240   8.538 -0.2284 -0.9298 -0.3386
   86MOL0     H11564   3.531   0.461   8.318  1.2255 -0.2663 -0.4688
   86MOL0     H11565   3.676   0.388   8.371 -0.1168 -0.5147  0.3884
   86MOL0     H11566   3.441   0.211   8.271  1.1259 -3.4247 -0.4082
   86MOL0     H11567   3.603   0.162   8.320 -1.4186 -1.8118 -0.1392
   86MOL0     H11568   3.631   0.184   8.091 -1.9771 -1.3819  1.9729
   86MOL0     H11569   3.686   0.330   8.164  0.7486  1.0143 -2.6572
   86MOL0     H11570   3.743   0.422   7.938 -2.5868 -2.0894  4.5050
   86MOL0     H11571   3.741   0.499   7.698  0.0918 -1.1320 -0.9702
   86MOL0     H11572   3.612   0.472   7.220  1.3654  3.0529  0.7855
   86MOL0     H11573   3.570   0.606   7.045  1.4325 -0.6187  1.5565
   86MOL0     H11574   3.171   0.620   6.885 -1.9747  0.4216  0.1583
   86MOL0     H11575   3.123   0.726   7.002  0.8898  1.5845  0.9338
   86MOL0     H11576   3.274   0.777   6.738 -1.7276 -2.7684 -0.2149
   86MOL0     H11577   3.105   0.830   6.765 -0.5391  1.5065  1.4082
   86MOL0     H11578   3.335   0.954   6.920  0.2573 -0.9723 -0.2166
   86MOL0     H11579   3.248   1.014   6.772  0.4009 -0.9217 -0.2681
   86MOL0     H11580   3.179   1.114   6.998 -2.5816  2.3390 -0.1519
   86MOL0     H11581   3.138   0.954   7.038  0.9016  1.3245 -0.5597
   86MOL0     H11582   2.972   0.952   6.852 -3.5239  1.6758  1.0140
   86MOL0     H11583   3.035   1.114   6.792  0.8346  1.0945 -0.0433
   86MOL0     H11584   2.816   1.051   6.972 -0.5046  0.0700 -0.0288
   86MOL0     H11585   2.947   1.128   7.070 -0.8964  0.5402 -0.7097
   86MOL0     H11586   2.810   1.213   6.807  0.6854  0.1941 -0.8651
   86MOL0     H11587   2.951   1.295   6.861  0.0934 -2.1563 -1.0728
   86MOL0     H11588   2.700   1.280   7.027 -0.0938 -0.3967 -0.2002
   86MOL0     H11589   2.856   1.359   7.073 -2.0395 -0.2532  1.2485
   86MOL0     H11590   3.154   0.624   7.179  0.2129 -0.1360 -1.3745
   86MOL0     H11591   3.202   0.462   7.370  1.0292 -2.0161  0.0592
   86MOL0     H11592   3.361   0.308   7.650 -1.1582  1.4440 -0.9196
   86MOL0     H11593   3.357   0.245   7.889  1.3746  0.8080  5.0106
   86MOL0     H11594   3.195   0.795   7.394 -1.0277 -1.4928  2.7002
   86MOL0     H11595   3.368   0.944   7.277 -0.4232 -0.5738  0.0266
   86MOL0     H11596   3.648   1.283   7.098 -2.1644 -1.7963 -3.2201
   86MOL0     H11597   3.840   1.337   6.938 -0.0938 -0.8480 -2.0620
   86MOL0     H11598   4.022   1.083   6.693  0.0176  0.6657 -0.4223
   86MOL0     H11599   4.119   1.002   6.830  1.4851  0.4285  1.1450
   86MOL0     H11600   4.271   1.043   6.677  3.6748  1.6648 -1.2032
   86MOL0     H11601   4.293   1.167   6.805  0.8197 -3.5749  0.7845
   86MOL0     H11602   4.197   1.339   6.665 -0.5052  0.1647 -1.3487
   86MOL0     H11603   4.113   1.220   6.567 -0.6276 -1.3044  0.1470
   86MOL0     H11604   4.418   1.269   6.546  0.4989  1.9260 -1.9165
   86MOL0     H11605   4.325   1.163   6.448  4.3701  0.9043 -0.8514
   86MOL0     H11606   4.199   1.537   6.303  0.8108  2.6060  1.1629
   86MOL0     H11607   4.012   0.963   6.995  3.7202  3.4422 -2.4904
   86MOL0     H11608   3.935   0.807   7.135  0.1696 -2.5540  1.7734
   86MOL0     H11609   3.850   0.859   7.287 -2.6996 -0.4404 -0.0300
   86MOL0     H11610   3.755   0.807   7.157  0.7702  0.1320  0.7202
   87MOL0     O11611   3.945   1.500   8.079  0.4675  0.1056  0.3916
   87MOL0     C11612   3.880   1.489   7.974 -0.0987 -0.4939 -0.2732
   87MOL0     O11613   3.760   1.432   7.969  0.1520 -0.1206  0.0177
   87MOL0     C11614   3.693   1.398   8.089 -0.0763 -0.0398 -0.7322
   87MOL0     C11615   3.751   1.340   8.206  0.6902  0.5407  0.1024
   87MOL0     C11616   3.676   1.323   8.323  0.9794 -0.3285 -0.2275
   87MOL0     C11617   3.547   1.333   8.332  0.6723  0.9551  0.4169
   87MOL0     O11618   3.483   1.298   8.444 -0.5062  0.3714  0.2705
   87MOL0     C11619   3.343   1.279   8.447  0.8946 -0.2066 -0.1193
   87MOL0     C11620   3.294   1.223   8.586 -0.0756 -0.4074 -0.1975
   87MOL0     C11621   3.366   1.092   8.616  0.5046 -0.3555  0.7475
   87MOL0     C11622   3.271   1.003   8.698  0.0186 -0.4896  0.1610
   87MOL0     C11623   3.337   0.872   8.748 -0.4044 -0.3948  0.4269
   87MOL0     C11624   3.275   0.800   8.868  0.6916 -0.7348  0.5020
   87MOL0     C11625   3.148   0.733   8.814  0.3507 -0.3599 -0.4538
   87MOL0     C11626   3.014   0.825   8.836 -0.3843 -0.0503  0.2605
   87MOL0     N11627   2.895   0.775   8.765 -0.0262  0.1609  0.1188
   87MOL0     C11628   2.788   0.841   8.712  0.0860 -0.1433  0.0523
   87MOL0     C11629   2.706   0.742   8.680 -0.3470 -1.5824  0.4010
   87MOL0     C11630   2.569   0.763   8.622 -0.3313 -0.4360  0.2144
   87MOL0     C11631   2.528   0.634   8.545  0.9020 -0.9046 -0.0630
   87MOL0     C11632   2.585   0.623   8.405 -0.7690  0.7215 -0.3148
   87MOL0     C11633   2.523   0.494   8.349 -0.3874 -0.5784 -0.1049
   87MOL0     O11634   2.498   0.497   8.205 -0.0385  0.0864 -0.1725
   87MOL0     C11635   2.401   0.423   8.143  0.1965 -0.4596  0.0575
   87MOL0     C11636   2.348   0.304   8.202 -0.0483 -0.0484  0.4275
   87MOL0     C11637   2.236   0.238   8.152 -0.0892 -0.1304  0.5966
   87MOL0     C11638   2.196   0.282   8.026 -0.4633  0.7699 -0.5077
   87MOL0     C11639   2.088   0.203   7.951 -0.5514 -0.1753  0.4044
   87MOL0     O11640   1.989   0.118   8.009  0.8860  0.2269 -0.1352
   87MOL0     C11641   1.883   0.064   7.938  0.0326  0.2393  0.0120
   87MOL0     C11642   1.790   0.153   7.888 -0.6298 -0.4125 -0.1362
   87MOL0     C11643   1.692   0.108   7.797 -1.3288  0.1308  0.4358
   87MOL0     C11644   1.687  -0.029   7.765  0.3064 -0.0628 -0.3092
   87MOL0     O11645   1.608  -0.086   7.671 -0.0597 -0.2561 -0.3039
   87MOL0     C11646   1.494   0.003   7.639 -1.1915 -0.5696 -0.8583
   87MOL0     C11647   1.390  -0.081   7.587  1.0355  0.4275  0.5249
   87MOL0     C11648   1.277  -0.118   7.695  0.4795  0.3803 -0.1957
   87MOL0     C11649   1.174  -0.011   7.720  0.5857 -0.4956 -0.0126
   87MOL0     C11650   1.037  -0.064   7.779  0.2609 -0.0492 -0.5769
   87MOL0     C11651   0.938   0.040   7.817 -0.2355 -0.1478 -0.7904
   87MOL0     C11652   0.814  -0.037   7.865  0.8002 -0.7396 -0.5835
   87MOL0     C11653   0.701   0.049   7.921 -0.5219  0.9555  0.7686
   87MOL0    Cl11654   0.629   0.148   7.791  0.1436  0.2610 -0.0224
   87MOL0     C11655   1.786  -0.116   7.807 -0.8496  0.8544  0.0211
   87MOL0     C11656   1.880  -0.071   7.902  0.6717  0.3588  1.7818
   87MOL0     O11657   2.104   0.220   7.830  0.4281 -0.1240 -0.0108
   87MOL0     C11658   2.253   0.396   7.968  0.1733 -0.1938  0.3225
   87MOL0     C11659   2.355   0.470   8.023 -0.9204  0.0087  1.0075
   87MOL0     N11660   2.772   0.617   8.695 -0.1794 -0.1178 -0.4859
   87MOL0     N11661   2.871   0.639   8.777  0.5138  1.1221 -0.3145
   87MOL0     C11662   3.484   1.372   8.212 -0.2205  0.0461  0.1572
   87MOL0     C11663   3.556   1.402   8.093  0.1087  0.1356  0.3592
   87MOL0     C11664   3.938   1.549   7.854  0.2736 -0.7738 -1.1210
   87MOL0     C11665   3.855   1.613   7.762  0.6268  0.2089  0.8014
   87MOL0     C11666   3.893   1.668   7.642 -0.5748 -0.3817  0.8231
   87MOL0     C11667   4.032   1.677   7.612 -0.1027  1.3495 -0.5505
   87MOL0     O11668   4.097   1.744   7.514  0.4401  0.2408  0.0356
   87MOL0     C11669   4.011   1.832   7.427 -0.2447 -0.3772  0.1121
   87MOL0     C11670   3.956   1.741   7.305 -0.5714 -0.1774 -0.5425
   87MOL0     C11671   4.064   1.706   7.199 -0.1516 -0.3810 -0.7651
   87MOL0     C11672   3.995   1.618   7.093  0.3983  0.5130 -0.4895
   87MOL0     C11673   4.093   1.570   6.997  0.1384  0.4377 -0.8079
   87MOL0     C11674   4.181   1.528   6.912  0.2009 -0.0278 -0.3555
   87MOL0     C11675   4.110   1.590   7.688  0.1943  0.4529  0.0432
   87MOL0     C11676   4.069   1.532   7.812  0.5354  0.7903  0.7491
   87MOL0     C11677   4.176   1.448   7.881 -0.4272 -1.3294  0.6089
   87MOL0     H11678   3.859   1.326   8.209  0.5211 -0.7988  0.5946
   87MOL0     H11679   3.710   1.272   8.413 -4.4775 -1.7239  1.4136
   87MOL0     H11680   3.292   1.374   8.430  1.9601  0.9711  2.6903
   87MOL0     H11681   3.312   1.201   8.377  1.6798 -1.1574  0.5596
   87MOL0     H11682   3.187   1.206   8.572 -0.3899 -0.1754  1.6775
   87MOL0     H11683   3.307   1.302   8.661  0.4335 -0.4734 -0.2158
   87MOL0     H11684   3.455   1.097   8.679 -0.0232 -0.3725  1.5112
   87MOL0     H11685   3.387   1.041   8.522 -1.9100  1.6646 -1.0188
   87MOL0     H11686   3.234   1.054   8.788 -1.7141 -2.1595  0.4532
   87MOL0     H11687   3.176   0.978   8.651 -0.8217  0.2915  1.3684
   87MOL0     H11688   3.371   0.799   8.674  1.9545  1.9673 -0.9946
   87MOL0     H11689   3.435   0.897   8.791  0.6542  1.3260 -2.6874
   87MOL0     H11690   3.348   0.728   8.904  4.0575 -0.1539 -4.2603
   87MOL0     H11691   3.262   0.881   8.941  4.6881  1.0729 -0.5086
   87MOL0     H11692   3.149   0.636   8.864  0.2598 -0.0744  0.1162
   87MOL0     H11693   3.149   0.711   8.707 -3.5302  0.1060 -0.7135
   87MOL0     H11694   3.000   0.820   8.945  0.3970 -0.4735  0.3517
   87MOL0     H11695   3.031   0.931   8.814  1.5873 -0.1835  0.9588
   87MOL0     H11696   2.756   0.944   8.719 -0.1192 -0.2533  0.7638
   87MOL0     H11697   2.502   0.770   8.709  1.2557  0.0525  1.4434
   87MOL0     H11698   2.578   0.850   8.556  4.4696  1.4136  2.7780
   87MOL0     H11699   2.530   0.540   8.602  2.1603 -1.9659 -1.7417
   87MOL0     H11700   2.426   0.654   8.514  0.3350 -4.3767 -0.8603
   87MOL0     H11701   2.693   0.603   8.407 -0.7252  0.8500 -1.0614
   87MOL0     H11702   2.566   0.711   8.344  0.7745  3.3072  2.6569
   87MOL0     H11703   2.426   0.479   8.397 -1.6439 -0.8857 -2.5864
   87MOL0     H11704   2.591   0.413   8.377 -1.1868 -0.7469  1.4861
   87MOL0     H11705   2.374   0.271   8.302 -1.4722  1.8250  1.4752
   87MOL0     H11706   2.177   0.167   8.209 -1.4485  1.6464  1.5082
   87MOL0     H11707   1.815   0.258   7.901  1.4326 -0.4972 -2.4877
   87MOL0     H11708   1.616   0.180   7.770 -0.1517  1.5623  0.8196
   87MOL0     H11709   1.445   0.054   7.721 -4.2502 -0.8502 -2.3765
   87MOL0     H11710   1.527   0.076   7.565 -1.6148  2.4121  1.7157
   87MOL0     H11711   1.331  -0.047   7.501 -0.5917 -4.1275 -0.4869
   87MOL0     H11712   1.441  -0.166   7.541 -0.3076  0.2743 -0.7693
   87MOL0     H11713   1.223  -0.199   7.646 -1.5538  3.2327 -3.0641
   87MOL0     H11714   1.309  -0.149   7.795 -2.3227  0.5179  0.8293
   87MOL0     H11715   1.137   0.044   7.633 -0.4578 -0.0659  0.6872
   87MOL0     H11716   1.227   0.066   7.776 -0.5627  1.2022 -1.1544
   87MOL0     H11717   1.041  -0.121   7.872 -6.2753  2.1005  1.5932
   87MOL0     H11718   1.008  -0.127   7.694  2.6067 -2.2766  0.1592
   87MOL0     H11719   0.980   0.101   7.897  0.5201  0.8117 -1.8845
   87MOL0     H11720   0.918   0.099   7.726 -0.7167  3.4079  1.4302
   87MOL0     H11721   0.847  -0.093   7.954  1.8016 -1.7129 -1.5287
   87MOL0     H11722   0.774  -0.099   7.784  0.6982  0.4118 -1.4413
   87MOL0     H11723   0.620  -0.012   7.964 -1.9544  3.5192  1.9549
   87MOL0     H11724   0.732   0.118   8.000  0.1921  1.2294  0.2538
   87MOL0     H11725   1.783  -0.221   7.781  0.5376  0.9064 -0.4202
   87MOL0     H11726   1.941  -0.154   7.937  0.6298 -0.6119 -0.2668
   87MOL0     H11727   2.218   0.423   7.869  0.1159 -2.7695 -0.4310
   87MOL0     H11728   2.399   0.557   7.975  0.1327 -1.1729 -0.2827
   87MOL0     H11729   3.376   1.388   8.209  0.1825  3.2135 -2.0313
   87MOL0     H11730   3.494   1.436   8.010  2.0352  4.4580  0.4526
   87MOL0     H11731   3.751   1.641   7.777  0.6115  0.0602  0.9758
   87MOL0     H11732   3.820   1.719   7.581  3.6301  1.6173 -3.2189
   87MOL0     H11733   4.058   1.919   7.380  1.4143 -1.2947 -0.0452
   87MOL0     H11734   3.921   1.873   7.473 -0.9116 -0.0433 -1.4116
   87MOL0     H11735   3.875   1.793   7.253 -1.2467 -2.2625 -1.6962
   87MOL0     H11736   3.901   1.656   7.346 -0.5381  0.9385  1.9564
   87MOL0     H11737   4.144   1.649   7.247  0.5836  0.0894 -1.4120
   87MOL0     H11738   4.096   1.793   7.141 -3.5949  0.2720 -1.9263
   87MOL0     H11739   3.944   1.536   7.143 -1.6636  0.0897 -3.0636
   87MOL0     H11740   3.916   1.676   7.043  0.5861  3.6200  2.4330
   87MOL0     H11741   4.236   1.468   6.843 -0.0324 -0.3670 -0.2493
   87MOL0     H11742   4.210   1.574   7.648 -0.3434 -2.1242 -0.4719
   87MOL0     H11743   4.259   1.440   7.810 -0.4708  2.0830 -0.0345
   87MOL0     H11744   4.210   1.504   7.969 -2.3393 -1.6748  1.6285
   87MOL0     H11745   4.143   1.352   7.920 -1.1209 -0.9444  1.0016
   88MOL0     O11746   5.630   9.368   4.117  0.4996  0.1912  0.7903
   88MOL0     C11747   5.731   9.387   4.051 -0.7871  0.2433 -0.1992
   88MOL0     O11748   5.819   9.501   4.073  0.0670  0.3552 -0.5220
   88MOL0     C11749   5.778   9.599   4.150  0.6984  0.6110  0.1275
   88MOL0     C11750   5.736   9.579   4.288  0.9050  0.5390  0.6757
   88MOL0     C11751   5.699   9.683   4.372 -0.5064 -0.0030  0.1865
   88MOL0     C11752   5.682   9.813   4.315  0.3265  0.0098  1.1128
   88MOL0     O11753   5.643   9.909   4.407  1.0029 -0.3169 -0.3602
   88MOL0     C11754   5.564  10.027   4.375  0.6800  0.9139  0.5265
   88MOL0     C11755   5.636  10.160   4.350  0.4908  0.3853 -0.3675
   88MOL0     C11756   5.537  10.251   4.289  0.4817 -0.1812 -0.0992
   88MOL0     C11757   5.575  10.400   4.293 -0.3695 -0.0019 -0.2055
   88MOL0     C11758   5.491  10.472   4.391 -0.1537 -0.3718  1.0468
   88MOL0     C11759   5.548  10.610   4.418 -0.7717 -0.3625  0.1032
   88MOL0     C11760   5.489  10.672   4.544 -0.1747  0.3649  0.7424
   88MOL0     C11761   5.346  10.694   4.565 -0.9873 -1.2535  0.4283
   88MOL0     N11762   5.296  10.756   4.443  1.0123 -1.5957  0.4970
   88MOL0     C11763   5.330  10.875   4.408  0.8241 -0.5590  1.4572
   88MOL0     C11764   5.250  10.905   4.304 -0.0244 -0.3870 -1.2609
   88MOL0     C11765   5.239  11.047   4.237  0.5584  0.4763 -0.8092
   88MOL0     C11766   5.092  11.085   4.266 -0.0953  0.3950 -0.0212
   88MOL0     C11767   5.043  11.216   4.196 -0.8763 -0.3024  0.0774
   88MOL0     C11768   5.123  11.343   4.255  0.1063  0.4514  1.6378
   88MOL0     O11769   5.083  11.353   4.396 -0.8629  0.4856 -0.1217
   88MOL0     C11770   5.158  11.439   4.478  0.2912 -0.4905  1.0699
   88MOL0     C11771   5.131  11.445   4.614  0.2149  1.0735  0.0647
   88MOL0     C11772   5.197  11.532   4.705  0.3878  0.4438 -0.2146
   88MOL0     C11773   5.283  11.625   4.646 -0.4187  0.3519 -0.4038
   88MOL0     C11774   5.347  11.728   4.738  0.5137  0.6286  1.0168
   88MOL0     O11775   5.321  11.738   4.869 -0.2343  0.6956 -1.2234
   88MOL0     C11776   5.397  11.820   4.954 -0.5243 -1.1381 -0.6078
   88MOL0     C11777   5.335  11.940   5.010  0.1782  1.0534 -0.1269
   88MOL0     C11778   5.380  12.030   5.097 -0.4418 -0.3921  0.0396
   88MOL0     C11779   5.516  12.008   5.147  1.1136 -0.3111 -0.2213
   88MOL0     O11780   5.585  12.084   5.235 -0.1796  0.2476 -0.3824
   88MOL0     C11781   5.551  12.226   5.259 -0.0204 -0.2149  0.1112
   88MOL0     C11782   5.656  12.276   5.349 -0.2941  0.0268  0.5988
   88MOL0     C11783   5.790  12.316   5.284 -0.0915  0.0537 -0.7713
   88MOL0     C11784   5.777  12.434   5.186 -1.1743  0.2758  0.1111
   88MOL0     C11785   5.917  12.467   5.131  0.2255 -0.5608 -0.2082
   88MOL0     C11786   5.909  12.563   5.021  0.1160  0.3010 -0.1473
   88MOL0     C11787   6.040  12.588   4.957  0.0131  0.1825 -0.1057
   88MOL0     C11788   6.032  12.590   4.812  0.2898  0.4399 -0.2249
   88MOL0    Cl11789   5.919  12.710   4.750  0.6467  0.5892  0.2560
   88MOL0     C11790   5.583  11.901   5.100 -0.2369  0.5037  0.1524
   88MOL0     C11791   5.532  11.815   5.000  0.0163  0.2873  0.6616
   88MOL0     O11792   5.439  11.788   4.683 -0.7946  0.0548  0.4393
   88MOL0     C11793   5.304  11.629   4.505 -0.3513  1.1957  0.2191
   88MOL0     C11794   5.246  11.531   4.425  0.5279  0.8592  0.4822
   88MOL0     N11795   5.169  10.793   4.281 -0.5115  0.2276  0.6008
   88MOL0     N11796   5.215  10.703   4.346  0.2061  0.1693  0.8340
   88MOL0     C11797   5.711   9.836   4.182 -0.2052  0.4998  0.1328
   88MOL0     C11798   5.765   9.733   4.101  1.2128  0.3566 -0.1879
   88MOL0     C11799   5.773   9.276   3.965  0.6508 -0.8382 -0.2683
   88MOL0     C11800   5.719   9.150   3.983  0.0730  0.1249 -0.3469
   88MOL0     C11801   5.727   9.048   3.890  0.4229 -0.1613 -0.5337
   88MOL0     C11802   5.811   9.065   3.779  0.3917  0.1889  0.2194
   88MOL0     O11803   5.847   8.965   3.684  0.2399  0.0687 -0.7482
   88MOL0     C11804   5.751   8.935   3.585 -0.8948 -0.8429  0.1968
   88MOL0     C11805   5.782   9.033   3.470 -0.0534 -0.4531  0.0293
   88MOL0     C11806   5.892   8.985   3.373 -0.5367  0.4999 -0.1579
   88MOL0     C11807   6.030   8.972   3.434 -0.3146 -0.5279 -0.1473
   88MOL0     C11808   6.113   9.091   3.415 -0.0080 -0.7606 -0.5248
   88MOL0     C11809   6.198   9.184   3.410 -0.2640  0.9867  0.1365
   88MOL0     C11810   5.876   9.192   3.764  0.3160  0.9964  0.0364
   88MOL0     C11811   5.855   9.298   3.858 -0.6837  0.7761  0.3783
   88MOL0     C11812   5.915   9.429   3.834  0.0712  0.0849 -0.2566
   88MOL0     H11813   5.728   9.481   4.335 -0.8363  0.2139 -0.2188
   88MOL0     H11814   5.666   9.648   4.469  0.7017 -2.6462 -0.2650
   88MOL0     H11815   5.509   9.995   4.286  0.7251 -2.6100  1.6489
   88MOL0     H11816   5.486  10.044   4.450  0.4331  5.2497 -0.4228
   88MOL0     H11817   5.705  10.128   4.272  0.7472  0.5462 -0.2063
   88MOL0     H11818   5.685  10.210   4.434  1.2648  2.0731 -1.7596
   88MOL0     H11819   5.432  10.241   4.318  0.5151 -2.8491 -0.6563
   88MOL0     H11820   5.539  10.234   4.181  0.8452  3.3736 -0.7868
   88MOL0     H11821   5.679  10.423   4.314  0.4361 -0.6292 -3.0150
   88MOL0     H11822   5.559  10.449   4.196  0.7696  2.4290  0.7707
   88MOL0     H11823   5.393  10.492   4.348  0.8909  1.6575 -0.5343
   88MOL0     H11824   5.480  10.410   4.481 -1.0108  1.3538  2.1882
   88MOL0     H11825   5.652  10.580   4.432 -1.0294 -1.3190  0.0649
   88MOL0     H11826   5.557  10.666   4.325  0.5194 -0.2317  0.2883
   88MOL0     H11827   5.534  10.768   4.571 -1.8081  1.3011  0.2944
   88MOL0     H11828   5.512  10.599   4.623  0.7967 -0.1369  0.0080
   88MOL0     H11829   5.289  10.601   4.569 -0.5464 -1.6023 -0.9696
   88MOL0     H11830   5.326  10.741   4.662 -0.5519  0.0348 -0.0865
   88MOL0     H11831   5.409  10.940   4.447 -0.0395  1.2606  0.3376
   88MOL0     H11832   5.308  11.118   4.283 -1.7425  1.7325  0.9984
   88MOL0     H11833   5.253  11.035   4.130 -3.3930  0.2709 -1.4846
   88MOL0     H11834   5.022  11.018   4.215  1.6912 -1.6192  0.0300
   88MOL0     H11835   5.065  11.092   4.372 -3.5764  1.4224 -0.8322
   88MOL0     H11836   4.940  11.220   4.234 -1.9330  0.3429 -2.6140
   88MOL0     H11837   5.040  11.215   4.087 -1.4664 -2.2607  0.0760
   88MOL0     H11838   5.079  11.427   4.201  2.4498  0.0481 -1.1540
   88MOL0     H11839   5.231  11.327   4.241 -0.1942 -0.1301 -0.3799
   88MOL0     H11840   5.055  11.380   4.656  1.7555 -1.2674 -0.5919
   88MOL0     H11841   5.163  11.553   4.806 -0.7007  0.0418 -0.4788
   88MOL0     H11842   5.228  11.942   4.989 -0.1086 -1.7973  0.6058
   88MOL0     H11843   5.321  12.113   5.135 -0.0289  0.5299 -1.2769
   88MOL0     H11844   5.550  12.281   5.165  3.0692  2.1294  1.2637
   88MOL0     H11845   5.457  12.242   5.312 -1.6846 -0.4477 -2.5664
   88MOL0     H11846   5.619  12.370   5.390 -3.0158 -0.1026 -1.3138
   88MOL0     H11847   5.666  12.192   5.418 -1.1235  1.0672  2.0535
   88MOL0     H11848   5.861  12.334   5.366  0.1640 -3.1454 -0.1474
   88MOL0     H11849   5.836  12.230   5.234  2.4849  1.6528 -1.3511
   88MOL0     H11850   5.739  12.518   5.246  1.1157  1.4667  0.0082
   88MOL0     H11851   5.707  12.410   5.106 -2.0467 -0.9759  1.2061
   88MOL0     H11852   5.956  12.376   5.083  2.0879  0.7748 -1.3615
   88MOL0     H11853   5.992  12.508   5.199  0.7438 -1.1241 -0.4329
   88MOL0     H11854   5.840  12.521   4.946 -0.1995 -0.0607  0.3385
   88MOL0     H11855   5.880  12.661   5.058  4.9671  1.4477  1.3126
   88MOL0     H11856   6.099  12.499   4.978 -2.0268 -1.2261 -0.0402
   88MOL0     H11857   6.081  12.684   4.990 -2.4094  0.9640  0.8681
   88MOL0     H11858   6.128  12.612   4.764  1.5640 -0.6635  1.6570
   88MOL0     H11859   6.008  12.488   4.782  0.7125  1.0196 -2.7488
   88MOL0     H11860   5.681  11.892   5.146  0.1771  1.3444 -0.5255
   88MOL0     H11861   5.605  11.743   4.965  1.7627  2.2666  0.0445
   88MOL0     H11862   5.366  11.701   4.453 -0.2038  2.1305  1.6301
   88MOL0     H11863   5.269  11.534   4.319  0.3519  0.2362  0.4213
   88MOL0     H11864   5.697   9.933   4.135  0.3969  0.5868  0.1164
   88MOL0     H11865   5.783   9.760   3.997 -2.7085  3.1341 -0.3977
   88MOL0     H11866   5.643   9.133   4.059 -2.5604  2.5763 -2.1987
   88MOL0     H11867   5.696   8.945   3.905  0.2009 -0.5729 -3.2295
   88MOL0     H11868   5.648   8.941   3.620 -1.4345 -1.3123 -1.2307
   88MOL0     H11869   5.774   8.830   3.562 -0.3894 -1.0057  1.4012
   88MOL0     H11870   5.802   9.132   3.513  2.4449  0.0512 -2.0761
   88MOL0     H11871   5.689   9.043   3.414 -0.2476 -0.4972  0.3427
   88MOL0     H11872   5.910   9.058   3.293  2.1578  0.4249  0.2643
   88MOL0     H11873   5.861   8.891   3.327 -0.1249  0.0394  0.4848
   88MOL0     H11874   6.029   8.949   3.542 -1.4306  1.6950  0.3686
   88MOL0     H11875   6.080   8.893   3.377 -0.1876  0.1689 -1.0154
   88MOL0     H11876   6.284   9.246   3.392 -0.1211  0.7585  0.0104
   88MOL0     H11877   5.956   9.198   3.691  1.3445  0.1243  1.0539
   88MOL0     H11878   5.842   9.510   3.834 -0.1330  0.0328  2.8906
   88MOL0     H11879   5.990   9.458   3.908 -0.5706 -0.0292  0.4539
   88MOL0     H11880   5.973   9.424   3.741 -2.2709 -1.1872 -1.7358
   89MOL0     O11881   0.296   6.556   0.385 -0.0173 -0.2110  0.6441
   89MOL0     C11882   0.265   6.661   0.432 -0.8262 -0.2643  0.1528
   89MOL0     O11883   0.147   6.732   0.395  0.1645 -0.1392  0.5801
   89MOL0     C11884   0.057   6.676   0.307  0.2941 -0.0828 -0.5095
   89MOL0     C11885  -0.074   6.682   0.353 -0.5345  0.4873  0.1745
   89MOL0     C11886  -0.172   6.611   0.294  0.3654  1.3683 -0.7700
   89MOL0     C11887  -0.142   6.513   0.193 -0.3984 -0.4301  0.6862
   89MOL0     O11888  -0.252   6.445   0.155  0.3217  0.1439  0.7838
   89MOL0     C11889  -0.234   6.333   0.063  0.4424  0.1148 -0.1100
   89MOL0     C11890  -0.368   6.244   0.053 -0.1388 -0.2359  0.2526
   89MOL0     C11891  -0.388   6.139   0.157 -0.0137 -0.3225  0.8081
   89MOL0     C11892  -0.536   6.091   0.175  0.4964 -1.2728  0.4269
   89MOL0     C11893  -0.548   5.996   0.291  0.3388  0.0435 -0.8351
   89MOL0     C11894  -0.696   5.971   0.300 -0.7954  0.0884  1.2735
   89MOL0     C11895  -0.766   6.042   0.415 -0.4315  0.5475 -0.4541
   89MOL0     C11896  -0.857   6.150   0.366  0.8492 -0.7578  0.1280
   89MOL0     N11897  -0.882   6.241   0.474  0.3444  0.2613  0.1671
   89MOL0     C11898  -0.811   6.348   0.497  0.3048  0.0408 -0.8283
   89MOL0     C11899  -0.844   6.376   0.629 -0.1441 -0.4546  0.7337
   89MOL0     C11900  -0.783   6.485   0.724  0.0688 -0.0307  0.0278
   89MOL0     C11901  -0.849   6.527   0.850 -0.3427  0.5686 -0.0914
   89MOL0     C11902  -0.978   6.591   0.808 -0.1868  0.0088  0.4754
   89MOL0     C11903  -1.047   6.644   0.928  1.0505 -0.6557 -0.2378
   89MOL0     O11904  -1.154   6.737   0.880  0.1377  0.6265  0.3613
   89MOL0     C11905  -1.118   6.864   0.842  0.2279  0.0585  0.1103
   89MOL0     C11906  -1.217   6.960   0.807 -0.0090  0.1222  0.3658
   89MOL0     C11907  -1.185   7.096   0.759  0.4822  0.5283 -0.8016
   89MOL0     C11908  -1.059   7.145   0.765  0.1938 -0.4039  0.1970
   89MOL0     C11909  -1.028   7.284   0.751 -0.4702  1.0824  0.9053
   89MOL0     O11910  -0.907   7.322   0.784 -0.0751 -0.0393 -0.1537
   89MOL0     C11911  -0.865   7.448   0.742  0.0875  0.3757  0.0428
   89MOL0     C11912  -0.832   7.536   0.846  0.7307 -0.6410 -0.5506
   89MOL0     C11913  -0.771   7.661   0.813  1.1558  0.3925 -0.0385
   89MOL0     C11914  -0.745   7.695   0.672 -0.1949 -0.1004  0.5648
   89MOL0     O11915  -0.686   7.810   0.637  0.0450  0.2765 -0.6277
   89MOL0     C11916  -0.760   7.901   0.549  0.5297  0.3594  0.0276
   89MOL0     C11917  -0.666   8.003   0.478  0.4408 -0.2690 -0.4421
   89MOL0     C11918  -0.589   8.072   0.595  1.1675  0.6967 -0.4847
   89MOL0     C11919  -0.490   8.177   0.557 -0.3643  0.0490  0.9073
   89MOL0     C11920  -0.556   8.294   0.490 -0.7378 -0.1589 -0.0064
   89MOL0     C11921  -0.671   8.374   0.555 -0.0266 -0.4740  0.3973
   89MOL0     C11922  -0.706   8.495   0.469  0.0935 -0.7027 -0.5632
   89MOL0     C11923  -0.849   8.539   0.498 -0.2204  0.3256  0.4504
   89MOL0    Cl11924  -0.840   8.643   0.640  0.0657 -0.4620 -0.1816
   89MOL0     C11925  -0.784   7.602   0.573 -0.7663  0.2960  1.7953
   89MOL0     C11926  -0.832   7.474   0.611  0.2157 -0.1918 -0.3409
   89MOL0     O11927  -1.127   7.356   0.717 -0.2178  0.9891 -0.5735
   89MOL0     C11928  -0.956   7.045   0.801  0.1542 -0.1016 -0.1107
   89MOL0     C11929  -0.990   6.913   0.834 -0.9903  0.1807 -1.2603
   89MOL0     N11930  -0.929   6.282   0.673  0.1972  0.2462  0.3520
   89MOL0     N11931  -0.953   6.200   0.575  0.4603  0.1049 -0.1530
   89MOL0     C11932  -0.011   6.510   0.137 -0.6237  0.0560  0.2184
   89MOL0     C11933   0.084   6.589   0.202 -0.7740  1.3148  0.4240
   89MOL0     C11934   0.365   6.735   0.504 -0.3523  0.5517 -0.0605
   89MOL0     C11935   0.479   6.765   0.427 -0.7276 -0.3475 -0.3775
   89MOL0     C11936   0.596   6.823   0.487 -0.9775 -0.1265  0.0887
   89MOL0     C11937   0.597   6.841   0.626 -0.0231 -0.4830 -0.1419
   89MOL0     O11938   0.717   6.880   0.686 -0.9483 -0.3088 -0.6234
   89MOL0     C11939   0.731   6.878   0.826  0.0477 -0.3235 -0.2325
   89MOL0     C11940   0.738   6.729   0.872 -0.6445  0.9335  0.3179
   89MOL0     C11941   0.750   6.714   1.026 -0.0020 -0.3521 -0.3439
   89MOL0     C11942   0.629   6.743   1.099 -0.3364  0.3833  0.8126
   89MOL0     C11943   0.528   6.647   1.074 -0.1309  0.5399 -0.4059
   89MOL0     C11944   0.427   6.581   1.051 -0.0396 -0.3885  0.3940
   89MOL0     C11945   0.480   6.806   0.705  0.2280 -0.5592  0.0733
   89MOL0     C11946   0.363   6.762   0.644  0.0491 -0.4205  0.5994
   89MOL0     C11947   0.234   6.740   0.733 -0.4211 -0.2345 -0.2748
   89MOL0     H11948  -0.091   6.743   0.442 -1.1011 -0.4502  0.7213
   89MOL0     H11949  -0.272   6.610   0.336  0.7320 -3.2131  0.5805
   89MOL0     H11950  -0.212   6.379  -0.034  0.4459  1.8098  0.6534
   89MOL0     H11951  -0.151   6.269   0.095 -0.3020  0.3287  2.4683
   89MOL0     H11952  -0.371   6.200  -0.048  1.0730 -2.4168  1.0938
   89MOL0     H11953  -0.456   6.309   0.054 -0.4780 -0.5099 -2.7246
   89MOL0     H11954  -0.338   6.184   0.244  1.0737  0.1518 -0.0319
   89MOL0     H11955  -0.324   6.054   0.131 -1.0053 -0.9953  0.5114
   89MOL0     H11956  -0.611   6.169   0.190 -0.3084 -1.8078 -0.7242
   89MOL0     H11957  -0.566   6.026   0.092  1.1140  1.0345 -1.7185
   89MOL0     H11958  -0.495   5.900   0.281  0.4489 -0.1536  1.2431
   89MOL0     H11959  -0.516   6.045   0.383 -4.9868  2.1810  0.2331
   89MOL0     H11960  -0.761   5.989   0.213 -1.2075  0.7365  1.7088
   89MOL0     H11961  -0.718   5.865   0.312 -2.2242 -0.1517 -2.1893
   89MOL0     H11962  -0.695   6.087   0.487 -0.5181  3.2244 -1.8930
   89MOL0     H11963  -0.827   5.968   0.467  3.1673 -1.5283  1.1682
   89MOL0     H11964  -0.824   6.202   0.276 -2.2922  0.9799 -0.1784
   89MOL0     H11965  -0.952   6.102   0.344  0.2357  1.8570 -3.8751
   89MOL0     H11966  -0.740   6.381   0.422 -3.0881 -0.5117 -4.6106
   89MOL0     H11967  -0.679   6.468   0.753  0.3800 -0.1539 -1.0848
   89MOL0     H11968  -0.776   6.573   0.660  1.4297 -0.6989 -0.8127
   89MOL0     H11969  -0.882   6.446   0.916  0.5701 -1.1666 -1.6648
   89MOL0     H11970  -0.782   6.591   0.908 -0.1322  0.2664  0.0038
   89MOL0     H11971  -1.042   6.517   0.758  2.8637 -4.4002  2.4643
   89MOL0     H11972  -0.951   6.677   0.746 -2.2605 -0.4284 -1.1425
   89MOL0     H11973  -0.980   6.692   0.999  0.9504 -0.6241 -0.1635
   89MOL0     H11974  -1.096   6.559   0.977 -1.1188  0.2287 -0.7240
   89MOL0     H11975  -1.314   6.912   0.799 -0.2611  0.4284  1.4304
   89MOL0     H11976  -1.273   7.147   0.719 -0.4773 -2.0230 -2.2321
   89MOL0     H11977  -0.840   7.497   0.947  2.6896 -1.9478 -0.8433
   89MOL0     H11978  -0.746   7.730   0.893  0.4735  1.0414 -0.3766
   89MOL0     H11979  -0.808   7.849   0.465  0.8931 -1.9718  1.1725
   89MOL0     H11980  -0.830   7.955   0.613  1.2158  0.2542  0.8773
   89MOL0     H11981  -0.600   7.946   0.413  0.5414  0.3066 -0.8534
   89MOL0     H11982  -0.726   8.080   0.428  2.4440  0.1909 -2.2854
   89MOL0     H11983  -0.649   8.112   0.677  1.3084  0.3612 -0.2152
   89MOL0     H11984  -0.537   7.995   0.652 -2.1655 -0.7196  0.8934
   89MOL0     H11985  -0.424   8.140   0.477 -0.5840  3.5981 -1.1419
   89MOL0     H11986  -0.421   8.210   0.636 -0.0466  3.2016 -0.5088
   89MOL0     H11987  -0.578   8.241   0.397 -1.3761  0.4218 -0.1942
   89MOL0     H11988  -0.476   8.366   0.470 -1.7309  0.4597 -2.0465
   89MOL0     H11989  -0.754   8.304   0.542 -1.3730  1.3556 -1.6985
   89MOL0     H11990  -0.651   8.405   0.659 -1.2078  0.8508  0.2734
   89MOL0     H11991  -0.691   8.465   0.365  1.6929  0.1996 -0.6362
   89MOL0     H11992  -0.631   8.574   0.479  1.9891 -2.1873 -2.0572
   89MOL0     H11993  -0.891   8.591   0.412  0.5127  2.7585  1.4819
   89MOL0     H11994  -0.911   8.450   0.514  2.4336 -1.8713 -0.5024
   89MOL0     H11995  -0.759   7.618   0.469 -0.4258 -0.8513  1.6871
   89MOL0     H11996  -0.855   7.397   0.538  0.3329 -1.3643  0.8291
   89MOL0     H11997  -0.851   7.073   0.797  0.2324 -0.4679 -1.0245
   89MOL0     H11998  -0.905   6.851   0.862 -1.7696 -1.4005 -2.2825
   89MOL0     H11999   0.026   6.444   0.061  1.0098  1.4613 -0.2683
   89MOL0     H12000   0.186   6.583   0.164 -1.5850  1.9171 -2.0381
   89MOL0     H12001   0.472   6.743   0.321  2.0391  1.7596 -1.1381
   89MOL0     H12002   0.689   6.820   0.431 -0.9802 -2.4897  0.1031
   89MOL0     H12003   0.639   6.924   0.862 -1.6674 -2.6747 -1.3306
   89MOL0     H12004   0.811   6.946   0.858  1.0819 -0.8272 -1.6400
   89MOL0     H12005   0.833   6.695   0.829 -2.7526 -2.3344 -2.1692
   89MOL0     H12006   0.663   6.657   0.839 -0.6116  0.8698  0.3818
   89MOL0     H12007   0.831   6.782   1.051  1.3034 -2.0061  0.0954
   89MOL0     H12008   0.782   6.614   1.056  0.8486  0.0025 -0.0320
   89MOL0     H12009   0.641   6.755   1.208 -1.2001 -3.3402  1.4297
   89MOL0     H12010   0.595   6.837   1.055 -0.8364 -0.9390 -1.7988
   89MOL0     H12011   0.332   6.533   1.050 -0.5043  0.4842 -2.0344
   89MOL0     H12012   0.477   6.811   0.814  0.4526  1.6775  0.0229
   89MOL0     H12013   0.202   6.822   0.798 -2.7635 -2.0028  0.9853
   89MOL0     H12014   0.150   6.721   0.666 -3.0206  0.4999  2.5514
   89MOL0     H12015   0.259   6.648   0.787  1.9402  0.0236 -0.8400
   90MOL0     O12016   7.449   8.053   6.692 -0.4386  0.9516 -0.4318
   90MOL0     C12017   7.470   7.931   6.692  0.0404 -0.1462 -0.7558
   90MOL0     O12018   7.593   7.870   6.665 -0.4296 -0.5156  1.2226
   90MOL0     C12019   7.705   7.932   6.609 -0.0151 -0.5764  0.5219
   90MOL0     C12020   7.827   7.887   6.659  0.3819  0.0978 -0.2909
   90MOL0     C12021   7.931   7.965   6.662 -0.4163 -0.7253 -0.1612
   90MOL0     C12022   7.950   8.090   6.597 -0.9244  1.1340  0.4554
   90MOL0     O12023   8.072   8.143   6.592  0.1013 -0.8105  0.3371
   90MOL0     C12024   8.069   8.264   6.512 -0.6329 -0.5063 -0.1758
   90MOL0     C12025   8.208   8.325   6.516 -0.7254 -0.1583  0.9478
   90MOL0     C12026   8.258   8.414   6.637  0.2830 -0.5993 -0.2367
   90MOL0     C12027   8.170   8.540   6.645  0.5529  0.1798 -0.0002
   90MOL0     C12028   8.176   8.633   6.522 -0.4888  0.0511 -0.7672
   90MOL0     C12029   8.286   8.743   6.520 -0.2048 -1.2508  0.0439
   90MOL0     C12030   8.271   8.854   6.643  0.4506 -1.0976 -0.4370
   90MOL0     C12031   8.165   8.957   6.604 -0.2741  0.3823  0.2184
   90MOL0     N12032   8.211   9.050   6.497 -0.6166 -0.2638 -0.4867
   90MOL0     C12033   8.304   9.145   6.508 -0.6629  0.2446 -0.7526
   90MOL0     C12034   8.329   9.192   6.386 -0.1173 -0.0470  0.7704
   90MOL0     C12035   8.411   9.312   6.352 -0.2002  0.1023 -0.7946
   90MOL0     C12036   8.329   9.428   6.295 -0.0972 -0.8046  0.0954
   90MOL0     C12037   8.221   9.471   6.414 -0.6416 -0.5787 -0.2973
   90MOL0     C12038   8.181   9.618   6.405 -1.2294 -0.7754 -0.2362
   90MOL0     O12039   8.292   9.698   6.442 -0.1036  0.5667 -0.1244
   90MOL0     C12040   8.293   9.807   6.521  0.4865  0.1489 -0.2585
   90MOL0     C12041   8.407   9.887   6.521  0.7520 -0.2921  1.1381
   90MOL0     C12042   8.428   9.990   6.615  0.2282  0.2351 -0.0876
   90MOL0     C12043   8.336  10.024   6.714 -1.0422  0.1898 -0.0659
   90MOL0     C12044   8.372  10.113   6.820  0.2113 -0.4698  0.5692
   90MOL0     O12045   8.490  10.176   6.812 -0.1617 -0.6202  0.0803
   90MOL0     C12046   8.523  10.278   6.907  0.1693  0.3927  0.8141
   90MOL0     C12047   8.500  10.259   7.036 -0.9197 -0.3788  0.3256
   90MOL0     C12048   8.552  10.360   7.133 -0.0042  0.1648  0.8217
   90MOL0     C12049   8.603  10.483   7.093  0.3125 -0.3871  0.2024
   90MOL0     O12050   8.649  10.567   7.184  0.2636  1.2360  0.1596
   90MOL0     C12051   8.680  10.697   7.146  0.8700 -0.5595  0.4025
   90MOL0     C12052   8.660  10.789   7.268 -0.4158  0.3786  0.4380
   90MOL0     C12053   8.511  10.829   7.283  0.0263 -0.3178 -0.4794
   90MOL0     C12054   8.435  10.908   7.163 -0.4922  0.3166 -0.5787
   90MOL0     C12055   8.498  11.035   7.110  0.0993  0.7585  0.0380
   90MOL0     C12056   8.486  11.158   7.196 -1.0799 -0.0292  0.3410
   90MOL0     C12057   8.340  11.176   7.245 -0.3244  0.2837  0.6153
   90MOL0     C12058   8.317  11.305   7.314  0.0270 -0.7275  0.6048
   90MOL0    Cl12059   8.344  11.434   7.199  0.0146  0.1112 -0.5033
   90MOL0     C12060   8.622  10.493   6.953  1.0444 -0.1042  0.1270
   90MOL0     C12061   8.582  10.389   6.869  1.5398  0.8174  0.9251
   90MOL0     O12062   8.268  10.141   6.888 -0.2304  0.1700  0.5728
   90MOL0     C12063   8.218   9.938   6.719 -0.3818 -0.5381  0.2092
   90MOL0     C12064   8.198   9.839   6.621  1.4064  0.8120 -0.8120
   90MOL0     N12065   8.244   9.125   6.300 -0.2917  0.5797 -0.3011
   90MOL0     N12066   8.184   9.034   6.366  0.8540 -0.6419 -0.2358
   90MOL0     C12067   7.829   8.131   6.544 -0.2803  0.3275  0.0826
   90MOL0     C12068   7.703   8.061   6.551 -1.1739 -0.4092 -0.2282
   90MOL0     C12069   7.350   7.849   6.717 -0.3126  1.2665  0.8578
   90MOL0     C12070   7.219   7.902   6.732 -0.5421  0.6926 -0.6656
   90MOL0     C12071   7.105   7.827   6.752 -0.8185 -0.0553  0.4340
   90MOL0     C12072   7.112   7.689   6.741 -1.1642  0.4146  1.0365
   90MOL0     O12073   6.999   7.616   6.746  0.3803  0.4494 -0.7694
   90MOL0     C12074   7.011   7.474   6.792 -0.6293  0.5071  0.3547
   90MOL0     C12075   6.863   7.439   6.825 -0.8526  0.4741 -0.7116
   90MOL0     C12076   6.857   7.292   6.864 -0.6331 -0.6428  0.6389
   90MOL0     C12077   6.718   7.230   6.869 -1.1157  0.4440  0.1937
   90MOL0     C12078   6.656   7.249   6.743 -0.2061  1.1556  0.0963
   90MOL0     C12079   6.607   7.275   6.641  0.0481  0.4604  0.2923
   90MOL0     C12080   7.241   7.630   6.718 -0.3789  0.5616 -0.0669
   90MOL0     C12081   7.363   7.707   6.704  0.8039  1.1638  0.0524
   90MOL0     C12082   7.497   7.626   6.686  0.1638 -0.4827  0.1184
   90MOL0     H12083   7.823   7.799   6.722 -1.2978  0.7234  0.5344
   90MOL0     H12084   8.011   7.918   6.719 -1.2990 -0.8148  1.0617
   90MOL0     H12085   8.047   8.240   6.408  1.3180  0.5676 -0.8908
   90MOL0     H12086   7.995   8.340   6.539  0.0436  0.8312 -1.8959
   90MOL0     H12087   8.220   8.383   6.424 -2.6507 -0.1263  0.6773
   90MOL0     H12088   8.272   8.236   6.520 -0.1694  0.1924  0.1137
   90MOL0     H12089   8.363   8.446   6.635 -0.7106  2.9927 -1.6554
   90MOL0     H12090   8.244   8.341   6.718 -2.7764 -1.0013 -1.0240
   90MOL0     H12091   8.063   8.517   6.649 -0.4629  3.4230 -2.9501
   90MOL0     H12092   8.184   8.593   6.740  1.8992 -1.4832  0.7657
   90MOL0     H12093   8.190   8.574   6.431 -1.6408  1.4639 -1.9256
   90MOL0     H12094   8.082   8.684   6.501 -0.7157 -0.8037 -1.9087
   90MOL0     H12095   8.384   8.697   6.533  2.0679  3.3685  1.5997
   90MOL0     H12096   8.278   8.788   6.420 -0.9113 -2.9307 -0.6911
   90MOL0     H12097   8.359   8.910   6.676 -1.5457  1.4015  0.9641
   90MOL0     H12098   8.252   8.803   6.737 -2.8680  0.4500 -0.1401
   90MOL0     H12099   8.073   8.911   6.566  0.5635  1.0974 -3.0077
   90MOL0     H12100   8.138   9.015   6.692 -2.7115  0.7397 -0.6903
   90MOL0     H12101   8.342   9.182   6.603 -0.8196  0.2604 -0.6969
   90MOL0     H12102   8.441   9.328   6.456 -4.5473 -1.7717  0.9704
   90MOL0     H12103   8.499   9.289   6.291  0.4391  1.3981 -0.3968
   90MOL0     H12104   8.397   9.508   6.265  0.2043 -2.0772 -2.9801
   90MOL0     H12105   8.290   9.395   6.198 -2.2970  2.6939 -0.3675
   90MOL0     H12106   8.259   9.460   6.516 -2.3217 -0.4845  0.3779
   90MOL0     H12107   8.122   9.425   6.406 -2.1029  1.8393  2.0978
   90MOL0     H12108   8.093   9.642   6.465  0.0575  2.8673  0.4173
   90MOL0     H12109   8.147   9.647   6.305  0.6700  0.2743 -0.6150
   90MOL0     H12110   8.484   9.878   6.445  0.0002 -0.0685  0.3226
   90MOL0     H12111   8.514  10.055   6.623 -2.8147  4.4300  2.8336
   90MOL0     H12112   8.449  10.173   7.076 -0.4054 -0.7028  0.2973
   90MOL0     H12113   8.546  10.333   7.238  1.1639  0.1706  0.9070
   90MOL0     H12114   8.782  10.699   7.107  0.5564  4.0387 -0.6765
   90MOL0     H12115   8.625  10.740   7.062  1.6172  1.1284  0.7364
   90MOL0     H12116   8.701  10.748   7.361  4.5677  1.3179 -1.0884
   90MOL0     H12117   8.720  10.877   7.248 -0.4391  0.4654  0.7466
   90MOL0     H12118   8.445  10.745   7.305 -2.8242  1.8057 -0.4044
   90MOL0     H12119   8.500  10.907   7.360 -0.2914 -1.1220  0.3023
   90MOL0     H12120   8.336  10.931   7.204 -0.6706 -4.6486  2.6784
   90MOL0     H12121   8.436  10.840   7.076  1.5993  1.9396 -1.9269
   90MOL0     H12122   8.452  11.057   7.013 -0.8824 -1.3132 -0.0211
   90MOL0     H12123   8.606  11.028   7.090 -0.3549 -0.3926 -2.4498
   90MOL0     H12124   8.549  11.155   7.285 -0.0685 -2.4360 -0.3592
   90MOL0     H12125   8.512  11.243   7.132 -2.9184  0.1850 -0.1808
   90MOL0     H12126   8.320  11.099   7.321 -0.1962 -1.9454 -1.4901
   90MOL0     H12127   8.270  11.150   7.165  0.7394 -4.6941  0.9372
   90MOL0     H12128   8.213  11.319   7.342  0.0513  0.7740  0.0829
   90MOL0     H12129   8.382  11.294   7.402  1.0558 -0.0625 -0.0386
   90MOL0     H12130   8.659  10.584   6.907  0.1982  1.9526  3.1847
   90MOL0     H12131   8.577  10.412   6.763 -0.0981 -0.3122  0.7107
   90MOL0     H12132   8.154   9.943   6.806 -1.1159  1.7276 -0.4012
   90MOL0     H12133   8.110   9.779   6.639  2.2195  0.0402  0.7385
   90MOL0     H12134   7.827   8.235   6.512 -1.3012 -0.0656 -1.2179
   90MOL0     H12135   7.607   8.105   6.526 -1.0409 -1.3441 -2.5262
   90MOL0     H12136   7.204   8.009   6.723 -0.6145  0.9167  1.4470
   90MOL0     H12137   7.009   7.875   6.765 -0.0876  1.2958  1.0968
   90MOL0     H12138   7.071   7.470   6.883 -0.8457  2.4665  0.6320
   90MOL0     H12139   7.054   7.413   6.712 -0.6543 -0.0916  0.7906
   90MOL0     H12140   6.804   7.454   6.734 -1.4999 -0.8240 -0.5244
   90MOL0     H12141   6.819   7.497   6.906 -1.4250 -1.2408  0.2514
   90MOL0     H12142   6.905   7.282   6.962  1.7645 -1.2687 -0.5315
   90MOL0     H12143   6.910   7.228   6.793 -1.9143 -0.1229 -0.8375
   90MOL0     H12144   6.708   7.124   6.896  0.6895 -0.6115 -2.7477
   90MOL0     H12145   6.662   7.289   6.941  0.1969  1.0276  0.7798
   90MOL0     H12146   6.559   7.253   6.547  2.4477  0.0357 -0.9364
   90MOL0     H12147   7.255   7.523   6.712 -1.8116  0.3865 -0.7727
   90MOL0     H12148   7.486   7.517   6.696 -1.7981 -0.1498  2.4150
   90MOL0     H12149   7.547   7.645   6.590 -1.3800  2.3803 -0.2290
   90MOL0     H12150   7.573   7.645   6.762 -0.5995 -4.9326  2.3488
   91MOL0     O12151   1.967  10.764   3.141  0.2794  0.5167  0.3680
   91MOL0     C12152   1.868  10.814   3.082 -0.0359  0.7874 -1.7796
   91MOL0     O12153   1.854  10.812   2.949 -0.7678 -0.0381  0.3115
   91MOL0     C12154   1.961  10.812   2.860 -0.8757 -0.4595  0.1006
   91MOL0     C12155   1.974  10.698   2.779  0.5585  0.1189 -0.2161
   91MOL0     C12156   2.088  10.670   2.707 -1.0736  0.3312 -0.5451
   91MOL0     C12157   2.193  10.769   2.710 -0.1372 -0.4319 -1.4376
   91MOL0     O12158   2.310  10.751   2.641 -1.2297  0.2040  0.5793
   91MOL0     C12159   2.409  10.656   2.684  0.1078  0.0850  0.5640
   91MOL0     C12160   2.450  10.656   2.827 -0.4197  0.5934  0.7432
   91MOL0     C12161   2.561  10.557   2.857 -0.0755  0.1222  0.3832
   91MOL0     C12162   2.681  10.578   2.771  0.6290 -0.3150  1.0895
   91MOL0     C12163   2.809  10.508   2.811 -0.1615  1.3400  0.0621
   91MOL0     C12164   2.934  10.540   2.727  0.2498 -0.9771  0.4846
   91MOL0     C12165   3.023  10.421   2.752 -0.8799 -0.8681 -0.7853
   91MOL0     C12166   3.046  10.371   2.898 -0.2039  0.0914 -0.5280
   91MOL0     N12167   3.145  10.259   2.892  0.2861  0.1782 -0.5461
   91MOL0     C12168   3.139  10.149   2.816 -0.5688  1.3712 -0.6038
   91MOL0     C12169   3.258  10.085   2.825  0.6662 -0.1647  0.6823
   91MOL0     C12170   3.264   9.937   2.779  1.0935 -0.1376  0.7851
   91MOL0     C12171   3.325   9.921   2.643  0.1787  0.1425  0.0553
   91MOL0     C12172   3.250   9.829   2.545  0.3054  0.3819 -0.3800
   91MOL0     C12173   3.251   9.681   2.588  0.0496 -0.3226 -0.4272
   91MOL0     O12174   3.148   9.602   2.527 -0.0075  0.4560  0.1373
   91MOL0     C12175   3.165   9.471   2.542  0.1323 -0.3239  0.3562
   91MOL0     C12176   3.285   9.396   2.549  0.0852 -0.9772 -0.7801
   91MOL0     C12177   3.287   9.255   2.548  0.4753 -0.4927  0.4034
   91MOL0     C12178   3.160   9.187   2.538  0.0599  0.0463 -0.7627
   91MOL0     C12179   3.148   9.041   2.547  1.0909  1.3239  0.5564
   91MOL0     O12180   3.264   8.965   2.561  0.8489  0.3895  0.4472
   91MOL0     C12181   3.278   8.832   2.575 -0.5063  0.2364  0.9167
   91MOL0     C12182   3.406   8.786   2.559 -0.5002  0.1172 -0.0042
   91MOL0     C12183   3.441   8.649   2.558 -0.1433 -0.8032  0.0345
   91MOL0     C12184   3.346   8.552   2.579 -0.8330 -0.6298  0.7358
   91MOL0     O12185   3.395   8.427   2.591 -0.3465 -0.0843 -0.3086
   91MOL0     C12186   3.306   8.316   2.615 -0.4116  1.4154 -0.2248
   91MOL0     C12187   3.391   8.186   2.618  0.0323 -0.3125  0.0334
   91MOL0     C12188   3.427   8.112   2.500 -0.8920  0.0808 -0.1981
   91MOL0     C12189   3.535   8.180   2.414 -0.2347  1.3314  0.3735
   91MOL0     C12190   3.564   8.088   2.293  0.9613  0.4806 -0.0443
   91MOL0     C12191   3.681   8.129   2.214  0.5710 -0.9074 -0.4747
   91MOL0     C12192   3.691   8.038   2.087 -0.5524  0.2148  0.3989
   91MOL0     C12193   3.800   8.075   2.000  0.1961 -0.2479  0.0449
   91MOL0    Cl12194   3.964   8.035   2.077  0.2235 -0.5377  0.1457
   91MOL0     C12195   3.218   8.591   2.610  0.3562 -0.0613  0.0372
   91MOL0     C12196   3.176   8.741   2.604 -0.1023  0.0386 -0.5768
   91MOL0     O12197   3.035   8.992   2.531  0.2681 -0.3817 -0.0143
   91MOL0     C12198   3.044   9.262   2.532 -0.0097  0.2334  0.9422
   91MOL0     C12199   3.049   9.403   2.526  0.2217 -0.0917 -0.4253
   91MOL0     N12200   3.343  10.164   2.904  0.0927 -0.2448 -0.1362
   91MOL0     N12201   3.272  10.262   2.949 -0.2444  0.4528  0.4533
   91MOL0     C12202   2.172  10.891   2.785  0.7226 -0.4529  0.4605
   91MOL0     C12203   2.062  10.908   2.864  0.1056  0.3606 -0.2501
   91MOL0     C12204   1.764  10.869   3.163 -0.3647 -0.1941  0.0362
   91MOL0     C12205   1.638  10.874   3.099  0.2432  0.3798  0.6067
   91MOL0     C12206   1.528  10.926   3.160  0.4052  0.0207 -0.4066
   91MOL0     C12207   1.538  10.980   3.286  0.2241  0.4388 -0.3254
   91MOL0     O12208   1.427  11.039   3.336 -1.0090 -1.3039 -0.3307
   91MOL0     C12209   1.434  11.157   3.436 -0.3430  0.5367  0.0380
   91MOL0     C12210   1.306  11.178   3.511  0.5496 -0.8596  0.2697
   91MOL0     C12211   1.255  11.056   3.597 -0.0126 -0.1232  0.1073
   91MOL0     C12212   1.124  11.082   3.669  0.6968  0.1470  0.0809
   91MOL0     C12213   1.078  10.973   3.766 -1.4634  0.0389  0.0031
   91MOL0     C12214   1.054  10.873   3.833  1.0364  1.1661  0.5423
   91MOL0     C12215   1.665  10.968   3.358  1.0243  0.3668  0.3587
   91MOL0     C12216   1.780  10.913   3.301  0.3150  0.3050  0.3078
   91MOL0     C12217   1.910  10.925   3.384  0.0026  0.3514  0.7771
   91MOL0     H12218   1.888  10.632   2.771 -1.1906  2.4042 -1.4869
   91MOL0     H12219   2.085  10.583   2.642  0.4673  0.9697 -1.5232
   91MOL0     H12220   2.381  10.554   2.656  2.3118 -0.9476  1.7969
   91MOL0     H12221   2.496  10.686   2.625 -0.1797 -0.8038 -0.3298
   91MOL0     H12222   2.356  10.637   2.880 -1.1908 -1.5479 -1.2227
   91MOL0     H12223   2.489  10.755   2.855  0.3417  0.1653  1.2280
   91MOL0     H12224   2.520  10.456   2.842 -3.4458  1.3088  0.7223
   91MOL0     H12225   2.586  10.577   2.961  0.9411 -0.4494  0.2639
   91MOL0     H12226   2.645  10.544   2.673 -0.4383  1.4524  0.8187
   91MOL0     H12227   2.706  10.683   2.758 -1.2571 -0.0977 -1.7691
   91MOL0     H12228   2.827  10.542   2.914 -2.6221 -2.2691  1.9105
   91MOL0     H12229   2.798  10.400   2.812  1.9584  1.0805  0.1019
   91MOL0     H12230   2.908  10.549   2.622 -1.1644  1.5452  0.9608
   91MOL0     H12231   2.972  10.634   2.768 -1.5042 -0.6707  1.5277
   91MOL0     H12232   3.120  10.446   2.708  1.4519 -2.6966  2.8256
   91MOL0     H12233   2.985  10.341   2.687  0.2592 -0.9604 -1.3733
   91MOL0     H12234   3.099  10.442   2.962  1.8459 -2.7240  1.1063
   91MOL0     H12235   2.962  10.320   2.945 -1.3272  1.5625 -0.8785
   91MOL0     H12236   3.052  10.107   2.765 -0.6668 -0.6798  1.1084
   91MOL0     H12237   3.322   9.875   2.848 -0.9359 -2.5980  0.4601
   91MOL0     H12238   3.164   9.893   2.781  0.9352  0.1236 -0.6094
   91MOL0     H12239   3.353  10.014   2.592 -1.2324  0.4895 -0.1167
   91MOL0     H12240   3.424   9.879   2.667 -0.3408  0.0861  2.3493
   91MOL0     H12241   3.290   9.843   2.445 -1.4967  2.1737 -0.9094
   91MOL0     H12242   3.149   9.860   2.519  0.9718  1.1075 -2.2424
   91MOL0     H12243   3.227   9.683   2.695 -2.7141  1.5088 -0.9688
   91MOL0     H12244   3.354   9.649   2.573  0.0641 -0.4269 -0.1191
   91MOL0     H12245   3.378   9.448   2.568 -0.9302 -0.0344  2.1352
   91MOL0     H12246   3.386   9.220   2.573  0.3453 -0.2396  1.3391
   91MOL0     H12247   3.473   8.869   2.539 -3.0526  2.1360 -0.8042
   91MOL0     H12248   3.545   8.618   2.554 -0.8595 -3.3880 -0.2184
   91MOL0     H12249   3.271   8.335   2.718 -0.3885 -0.5375  0.1814
   91MOL0     H12250   3.221   8.315   2.546 -1.9208  0.0887  1.5225
   91MOL0     H12251   3.487   8.218   2.659 -0.8823  1.3359  0.9832
   91MOL0     H12252   3.324   8.130   2.684 -0.9361  0.2943 -0.3971
   91MOL0     H12253   3.467   8.015   2.530 -0.4640  0.6133  1.0243
   91MOL0     H12254   3.336   8.109   2.439 -0.4082  1.6921 -1.0616
   91MOL0     H12255   3.630   8.190   2.468  0.3364  1.9215 -0.7098
   91MOL0     H12256   3.514   8.284   2.385  2.5029  1.4335 -1.5849
   91MOL0     H12257   3.469   8.074   2.240 -0.5692  0.2482  2.5863
   91MOL0     H12258   3.575   7.988   2.337 -1.8974  0.9389  2.0204
   91MOL0     H12259   3.659   8.224   2.164 -2.4822 -1.5098 -0.4870
   91MOL0     H12260   3.776   8.130   2.269 -0.6018 -1.1933  1.6541
   91MOL0     H12261   3.606   8.061   2.023 -0.3460 -0.6715 -0.2092
   91MOL0     H12262   3.693   7.932   2.112  1.0364  0.2817  0.6618
   91MOL0     H12263   3.794   8.022   1.905 -0.9661  0.7127 -0.4477
   91MOL0     H12264   3.780   8.179   1.972  1.2219  0.6003  2.1971
   91MOL0     H12265   3.146   8.513   2.629 -0.0609 -0.5182 -2.8941
   91MOL0     H12266   3.078   8.775   2.637 -0.5800 -0.0455 -1.8584
   91MOL0     H12267   2.947   9.213   2.525  1.0918 -1.8588 -1.1893
   91MOL0     H12268   2.958   9.454   2.495  0.5263  1.2300  0.7360
   91MOL0     H12269   2.242  10.974   2.781 -0.3877  0.5237 -4.0346
   91MOL0     H12270   2.052  10.992   2.932 -0.3618 -1.6226  2.3051
   91MOL0     H12271   1.620  10.822   3.005  2.2431 -0.3012  0.5573
   91MOL0     H12272   1.436  10.911   3.105 -0.2560 -1.9748  1.1089
   91MOL0     H12273   1.449  11.248   3.376 -2.8815 -0.8912 -3.0467
   91MOL0     H12274   1.513  11.154   3.512 -1.6489  0.5299  1.4239
   91MOL0     H12275   1.236  11.197   3.430  0.0543 -0.7877  0.7077
   91MOL0     H12276   1.303  11.264   3.579 -2.7655 -1.0245  0.5113
   91MOL0     H12277   1.332  11.038   3.673  0.7936  1.8067 -0.1873
   91MOL0     H12278   1.228  10.974   3.529 -0.3266  0.7786 -0.8832
   91MOL0     H12279   1.118  11.170   3.734 -0.3117 -0.4428  0.8382
   91MOL0     H12280   1.046  11.086   3.592  0.5823 -1.7469  0.0357
   91MOL0     H12281   1.042  10.774   3.873  2.7457  0.7957  0.1859
   91MOL0     H12282   1.673  11.014   3.456 -1.9728  2.5420 -0.2686
   91MOL0     H12283   1.969  10.836   3.406  4.1930  2.8326  0.5716
   91MOL0     H12284   1.977  10.980   3.318  0.0521  0.1637  0.6706
   91MOL0     H12285   1.882  10.975   3.477 -0.9398  2.0571 -0.3733
   92MOL0     O12286  11.119   6.257   7.158  0.1049  0.0316 -0.1765
   92MOL0     C12287  11.138   6.315   7.057  0.4460  0.6419  0.3218
   92MOL0     O12288  11.247   6.387   7.033  0.1269 -0.5021  0.7900
   92MOL0     C12289  11.361   6.350   7.093  0.3508  0.3085 -1.0811
   92MOL0     C12290  11.431   6.231   7.056  0.9404 -0.1375  0.0539
   92MOL0     C12291  11.548   6.202   7.119 -0.4086 -0.4359 -0.0595
   92MOL0     C12292  11.600   6.281   7.220 -0.1536 -0.3152 -0.3139
   92MOL0     O12293  11.714   6.256   7.296  0.1676  0.3406 -1.0132
   92MOL0     C12294  11.778   6.135   7.297 -0.4535 -0.4744 -0.4680
   92MOL0     C12295  11.878   6.134   7.407 -1.1130 -0.0736 -0.2964
   92MOL0     C12296  11.999   6.238   7.392  0.0768 -0.8348  0.2384
   92MOL0     C12297  12.086   6.202   7.281 -0.7134 -0.2639 -0.0488
   92MOL0     C12298  12.202   6.308   7.284  0.1360  0.0200  0.0548
   92MOL0     C12299  12.323   6.238   7.215 -0.2483 -1.0062  0.3802
   92MOL0     C12300  12.446   6.335   7.211  0.3345 -1.2285  0.2766
   92MOL0     C12301  12.561   6.260   7.138  0.3917 -0.9633  0.4851
   92MOL0     N12302  12.681   6.351   7.120 -0.0756  0.3958  1.0472
   92MOL0     C12303  12.705   6.431   7.009 -0.2683 -0.2377 -0.2739
   92MOL0     C12304  12.830   6.479   7.028 -0.2952 -0.1728 -0.2948
   92MOL0     C12305  12.897   6.573   6.934  0.1272 -0.2651  0.1444
   92MOL0     C12306  12.993   6.502   6.848  0.3991 -0.0881 -0.5068
   92MOL0     C12307  13.077   6.600   6.771  0.7823 -1.0879 -0.1346
   92MOL0     C12308  13.174   6.542   6.672  0.4136  0.0050  0.7331
   92MOL0     O12309  13.278   6.631   6.622  0.1821 -0.0340  0.3603
   92MOL0     C12310  13.233   6.747   6.561  0.2778  0.0897  0.4101
   92MOL0     C12311  13.113   6.759   6.490 -1.0115 -0.1169  1.1928
   92MOL0     C12312  13.087   6.883   6.425 -0.7885 -0.4231 -0.3202
   92MOL0     C12313  13.165   6.998   6.445  0.0239  0.1552 -0.5104
   92MOL0     C12314  13.122   7.123   6.392  0.4887  0.1477 -1.5234
   92MOL0     O12315  13.003   7.121   6.332 -0.2624 -0.7478 -0.7851
   92MOL0     C12316  12.931   7.230   6.298 -0.6125  0.3096 -1.1220
   92MOL0     C12317  12.855   7.209   6.187  0.4432 -0.1568  0.3950
   92MOL0     C12318  12.766   7.311   6.138  0.4638  1.1834  0.9919
   92MOL0     C12319  12.750   7.431   6.214 -0.5392  0.1379 -0.0188
   92MOL0     O12320  12.666   7.527   6.160 -0.2327  0.2796  1.0814
   92MOL0     C12321  12.661   7.653   6.223  0.5712  0.3103 -0.3826
   92MOL0     C12322  12.582   7.753   6.143 -0.6253 -0.2545 -0.6501
   92MOL0     C12323  12.584   7.894   6.210  0.7377 -0.2270  0.6599
   92MOL0     C12324  12.549   8.009   6.121  0.2172  0.4677 -0.7514
   92MOL0     C12325  12.537   8.129   6.210 -1.0867 -0.5122 -0.4438
   92MOL0     C12326  12.554   8.265   6.133 -0.1346 -0.3018  0.1096
   92MOL0     C12327  12.499   8.388   6.192 -0.6674 -0.1975 -0.2693
   92MOL0     C12328  12.591   8.514   6.196 -0.3098  1.3042  0.1099
   92MOL0    Cl12329  12.637   8.575   6.031 -0.1749  0.3668  0.6395
   92MOL0     C12330  12.825   7.447   6.335  0.8396  0.1654 -0.2363
   92MOL0     C12331  12.913   7.351   6.377  0.0160 -0.3471 -0.4119
   92MOL0     O12332  13.186   7.224   6.428 -0.4185  0.5557 -0.6997
   92MOL0     C12333  13.286   6.979   6.514  0.0060 -0.5971  0.3785
   92MOL0     C12334  13.314   6.861   6.572 -0.6387  0.0771  0.9636
   92MOL0     N12335  12.878   6.442   7.155 -0.7461  0.4291 -0.6680
   92MOL0     N12336  12.781   6.369   7.212 -0.4048 -0.6947  0.5050
   92MOL0     C12337  11.535   6.402   7.256 -0.3265 -0.4887 -0.8056
   92MOL0     C12338  11.418   6.435   7.191  0.4095 -0.1848 -1.2477
   92MOL0     C12339  11.014   6.358   6.984  0.4745  0.4851 -0.1694
   92MOL0     C12340  10.993   6.499   6.980  0.7104  1.0685  0.3328
   92MOL0     C12341  10.882   6.546   6.910  0.0549  0.0502  0.4205
   92MOL0     C12342  10.790   6.473   6.845 -0.5064 -0.7380  0.2667
   92MOL0     O12343  10.696   6.541   6.777  0.1455 -0.0185 -0.0876
   92MOL0     C12344  10.578   6.469   6.716 -0.3448  0.3829 -0.2462
   92MOL0     C12345  10.527   6.555   6.614 -0.0039  0.2424 -0.7062
   92MOL0     C12346  10.515   6.701   6.667  0.5492  0.6266  0.4050
   92MOL0     C12347  10.416   6.789   6.582  0.1462 -0.4774  0.4251
   92MOL0     C12348  10.447   6.806   6.434 -0.1710  0.2198 -0.9761
   92MOL0     C12349  10.477   6.828   6.328  0.4895  0.1093  0.9565
   92MOL0     C12350  10.800   6.335   6.861 -0.5430 -1.1783  0.3514
   92MOL0     C12351  10.911   6.278   6.931 -0.0999 -0.4292  0.1790
   92MOL0     C12352  10.933   6.135   6.921  0.4722  0.1274  0.0230
   92MOL0     H12353  11.387   6.163   6.984  2.4156  0.5982 -1.6093
   92MOL0     H12354  11.616   6.120   7.097 -0.2105 -0.0328 -0.9718
   92MOL0     H12355  11.705   6.055   7.315 -2.1941  0.0522 -4.2766
   92MOL0     H12356  11.821   6.105   7.201  0.2686  0.9691 -0.6113
   92MOL0     H12357  11.910   6.031   7.418 -0.0885  0.2126 -0.5422
   92MOL0     H12358  11.820   6.173   7.492 -0.7790  1.8552 -0.9028
   92MOL0     H12359  12.043   6.219   7.490 -0.6306 -2.5471  0.2580
   92MOL0     H12360  11.968   6.343   7.393  1.0291 -0.5396  1.6540
   92MOL0     H12361  12.126   6.101   7.291 -2.2164 -0.8798 -0.0623
   92MOL0     H12362  12.026   6.198   7.190 -1.0029 -2.1572  0.1809
   92MOL0     H12363  12.175   6.405   7.240 -1.5851  1.0875  3.1582
   92MOL0     H12364  12.227   6.326   7.389 -1.5419  0.6464  0.3860
   92MOL0     H12365  12.356   6.144   7.262  2.2704 -2.0008 -2.9482
   92MOL0     H12366  12.296   6.223   7.110 -0.4576  0.5670  0.1845
   92MOL0     H12367  12.468   6.364   7.314 -2.7826  0.1696  0.6707
   92MOL0     H12368  12.420   6.429   7.161  1.1789 -1.5919 -0.8921
   92MOL0     H12369  12.605   6.180   7.197  2.1273 -0.0989  0.4223
   92MOL0     H12370  12.531   6.219   7.041 -0.5897  0.3747  0.1843
   92MOL0     H12371  12.649   6.454   6.919  4.9533  1.3409 -3.5584
   92MOL0     H12372  12.827   6.634   6.875  2.0917  1.7098 -0.2998
   92MOL0     H12373  12.957   6.643   6.993  3.3626 -1.8374 -1.0645
   92MOL0     H12374  13.054   6.453   6.925 -0.0736  4.0079  2.8733
   92MOL0     H12375  12.940   6.432   6.783 -1.7905  0.6576  0.4018
   92MOL0     H12376  13.143   6.648   6.843 -0.2068  0.3210 -0.1139
   92MOL0     H12377  13.022   6.680   6.720 -1.4044 -1.4437  1.5156
   92MOL0     H12378  13.112   6.502   6.591 -3.5475 -0.6816  3.7300
   92MOL0     H12379  13.212   6.448   6.712 -0.5499 -0.4881  0.5232
   92MOL0     H12380  13.046   6.675   6.476  0.9921 -1.9529  1.9460
   92MOL0     H12381  12.988   6.878   6.380 -2.9479 -0.1823  3.9004
   92MOL0     H12382  12.865   7.113   6.138  0.7040 -0.2751  0.6816
   92MOL0     H12383  12.725   7.308   6.038 -1.0689  1.0772  1.5963
   92MOL0     H12384  12.616   7.645   6.322 -0.0653 -2.1646 -0.8102
   92MOL0     H12385  12.760   7.697   6.237  0.7613  0.2317 -1.4170
   92MOL0     H12386  12.627   7.758   6.044  2.5622 -2.2381  0.5685
   92MOL0     H12387  12.477   7.724   6.130 -1.2605  1.4662  0.2421
   92MOL0     H12388  12.514   7.888   6.294 -0.4706  0.5724 -0.2619
   92MOL0     H12389  12.681   7.925   6.250  0.2391  3.6852 -0.7412
   92MOL0     H12390  12.456   7.991   6.065  0.7948 -1.1521 -1.2420
   92MOL0     H12391  12.622   8.021   6.040  2.4021  1.0291  1.2113
   92MOL0     H12392  12.618   8.127   6.284  0.6204 -0.6963 -2.2492
   92MOL0     H12393  12.439   8.124   6.259 -2.1932  2.7193 -2.0653
   92MOL0     H12394  12.660   8.289   6.118 -0.6150  2.2230  0.4141
   92MOL0     H12395  12.497   8.258   6.040 -0.2476 -2.3962  0.2774
   92MOL0     H12396  12.476   8.366   6.297 -0.8388 -1.1989 -0.5032
   92MOL0     H12397  12.400   8.411   6.151 -0.9603  2.3563  1.6824
   92MOL0     H12398  12.536   8.595   6.243 -1.8152  0.7457 -0.6163
   92MOL0     H12399  12.681   8.484   6.251 -1.2269 -3.3904 -0.5006
   92MOL0     H12400  12.806   7.538   6.390 -2.9578  1.3374 -3.0111
   92MOL0     H12401  12.971   7.363   6.469  0.3041  3.3874 -0.9194
   92MOL0     H12402  13.353   7.062   6.493  1.3992 -2.1858 -1.8671
   92MOL0     H12403  13.409   6.861   6.624 -0.9323  1.0359  1.5211
   92MOL0     H12404  11.572   6.457   7.343 -3.2639  0.1338  0.1551
   92MOL0     H12405  11.357   6.512   7.239 -3.4614 -1.9661 -2.8782
   92MOL0     H12406  11.067   6.568   7.020  1.9113 -0.7963  1.4516
   92MOL0     H12407  10.860   6.652   6.895  0.3229 -0.1228 -1.5487
   92MOL0     H12408  10.499   6.447   6.789  1.3462 -0.5673  1.4062
   92MOL0     H12409  10.616   6.376   6.674  1.3488  0.5670  0.7701
   92MOL0     H12410  10.436   6.509   6.575  1.0781 -2.4972 -0.2247
   92MOL0     H12411  10.601   6.560   6.534  0.7864 -0.5344 -0.0474
   92MOL0     H12412  10.612   6.750   6.676  0.6094  0.9948 -1.7279
   92MOL0     H12413  10.466   6.692   6.765  0.6231 -0.6551  0.3448
   92MOL0     H12414  10.313   6.760   6.605  0.0524 -0.6058 -0.1339
   92MOL0     H12415  10.413   6.886   6.633  1.3756 -1.3666  2.2907
   92MOL0     H12416  10.504   6.853   6.227 -0.3811  0.7319  0.8794
   92MOL0     H12417  10.727   6.272   6.811 -2.4930  1.3588 -0.2493
   92MOL0     H12418  10.833   6.101   6.893  0.3213 -0.7925  1.5458
   92MOL0     H12419  11.010   6.112   6.847 -0.1981  0.5534 -0.8283
   92MOL0     H12420  10.969   6.099   7.018  1.2868  0.4714 -0.1359
   93MOL0     O12421   7.912   8.779   1.908  0.1762 -0.0301 -0.1339
   93MOL0     C12422   7.846   8.808   1.808 -0.7362  0.4580  0.4327
   93MOL0     O12423   7.895   8.820   1.680  0.7160 -0.3702  0.2960
   93MOL0     C12424   8.028   8.785   1.658 -0.2719 -0.4085 -0.8112
   93MOL0     C12425   8.067   8.650   1.640 -0.8444 -0.7084 -0.3755
   93MOL0     C12426   8.202   8.613   1.625  0.4502 -0.6690 -0.0514
   93MOL0     C12427   8.296   8.720   1.626  0.7089 -0.7742 -0.2120
   93MOL0     O12428   8.423   8.674   1.597  0.2369 -0.4000  0.2910
   93MOL0     C12429   8.522   8.776   1.553 -0.4579  0.0769 -0.6500
   93MOL0     C12430   8.655   8.722   1.510  0.0936  0.9222  0.3240
   93MOL0     C12431   8.730   8.638   1.613  0.1868 -0.0621 -0.5009
   93MOL0     C12432   8.848   8.562   1.556  0.3277 -0.6905  0.9984
   93MOL0     C12433   8.955   8.664   1.514 -0.3673  0.0871 -0.4098
   93MOL0     C12434   9.092   8.599   1.513  0.3808  0.0897  0.1706
   93MOL0     C12435   9.132   8.514   1.389 -0.5345  0.3652  0.5822
   93MOL0     C12436   9.277   8.471   1.404 -0.2206  0.6498 -0.1939
   93MOL0     N12437   9.306   8.377   1.297  0.7492  1.0698 -0.0278
   93MOL0     C12438   9.274   8.233   1.298  0.7845 -0.5122 -0.4761
   93MOL0     C12439   9.314   8.177   1.179  0.1297 -0.3540  0.4303
   93MOL0     C12440   9.317   8.033   1.136 -0.8396  0.5793 -1.0602
   93MOL0     C12441   9.462   7.975   1.148 -0.4976  0.4324 -1.5436
   93MOL0     C12442   9.502   7.960   1.296  0.5732  0.3126  0.5586
   93MOL0     C12443   9.636   7.895   1.284  0.1749  1.8740 -0.3835
   93MOL0     O12444   9.698   7.892   1.419 -0.0413  0.0410  0.4084
   93MOL0     C12445   9.815   7.807   1.434 -0.3261 -0.4939 -0.4952
   93MOL0     C12446   9.898   7.752   1.327  0.3228  0.4247  0.3504
   93MOL0     C12447  10.018   7.685   1.361  0.3671  0.0041  0.4350
   93MOL0     C12448  10.062   7.675   1.495  0.4431 -0.1155  0.6465
   93MOL0     C12449  10.188   7.604   1.528  0.6912  0.1201  0.8443
   93MOL0     O12450  10.235   7.618   1.657  0.0167  1.0935  0.0728
   93MOL0     C12451  10.363   7.569   1.689  0.5049  0.0272  0.1307
   93MOL0     C12452  10.469   7.651   1.677 -0.8867  0.6831 -0.0315
   93MOL0     C12453  10.587   7.595   1.725  0.1931  0.0627  0.5783
   93MOL0     C12454  10.607   7.466   1.772 -0.3224  0.8752 -1.4007
   93MOL0     O12455  10.727   7.430   1.832  0.3549 -0.0463 -0.2734
   93MOL0     C12456  10.847   7.482   1.772 -0.1605 -0.7084  0.3952
   93MOL0     C12457  10.967   7.389   1.789 -0.2595 -0.1698  0.0861
   93MOL0     C12458  11.092   7.453   1.761 -1.2640  0.2708  0.0390
   93MOL0     C12459  11.217   7.360   1.784  0.5192 -0.5722 -0.3977
   93MOL0     C12460  11.348   7.441   1.735 -0.0376 -0.3124  0.1758
   93MOL0     C12461  11.460   7.334   1.716 -0.4749 -1.0496  0.0368
   93MOL0     C12462  11.597   7.401   1.729  0.7653  0.2866  1.2933
   93MOL0     C12463  11.702   7.302   1.686  0.4523 -0.4708  0.2795
   93MOL0    Cl12464  11.669   7.236   1.523  0.2931 -0.1621 -0.1906
   93MOL0     C12465  10.499   7.389   1.762 -0.1885  0.9271  0.0658
   93MOL0     C12466  10.372   7.435   1.738 -1.0975 -0.7962  0.1088
   93MOL0     O12467  10.239   7.536   1.444  1.2048 -0.1127  0.1584
   93MOL0     C12468   9.981   7.737   1.598  0.8079  0.9679  0.4332
   93MOL0     C12469   9.864   7.796   1.564  0.5216  0.0506 -1.4894
   93MOL0     N12470   9.371   8.283   1.106  0.3137 -0.3961  0.2162
   93MOL0     N12471   9.358   8.395   1.173 -1.0783 -0.0257 -0.1127
   93MOL0     C12472   8.257   8.852   1.644 -0.3838 -0.0502  0.0298
   93MOL0     C12473   8.121   8.891   1.653 -0.1867  0.3223 -0.0393
   93MOL0     C12474   7.715   8.860   1.830  0.7722 -0.3079 -0.3572
   93MOL0     C12475   7.687   8.991   1.777  0.0599  0.4249  0.4955
   93MOL0     C12476   7.563   9.055   1.808 -0.6386 -0.5775  0.4498
   93MOL0     C12477   7.462   9.002   1.888  0.2333  0.7387 -0.2912
   93MOL0     O12478   7.349   9.066   1.897 -0.4168  0.4065 -0.5676
   93MOL0     C12479   7.318   9.129   2.021 -0.3216 -0.7606  0.5641
   93MOL0     C12480   7.227   9.250   1.982 -0.4119  0.2614 -0.0683
   93MOL0     C12481   7.199   9.352   2.096 -0.2012 -1.5732 -0.0668
   93MOL0     C12482   7.329   9.405   2.164  0.0379 -0.5589  0.8773
   93MOL0     C12483   7.310   9.541   2.219 -1.8225 -0.9046  0.6084
   93MOL0     C12484   7.305   9.654   2.260 -0.3054 -0.4143 -0.1562
   93MOL0     C12485   7.502   8.882   1.953 -0.2093 -0.2640 -0.4532
   93MOL0     C12486   7.618   8.808   1.921  0.0348 -0.3001 -0.3443
   93MOL0     C12487   7.652   8.687   1.998 -0.6974  0.2991 -0.1251
   93MOL0     H12488   7.989   8.577   1.624 -2.3728  0.8040 -0.1227
   93MOL0     H12489   8.213   8.512   1.588  2.5306 -0.4758 -0.0510
   93MOL0     H12490   8.486   8.828   1.464  1.6026  0.7783 -1.1187
   93MOL0     H12491   8.538   8.856   1.626 -1.2299  0.3134 -0.7249
   93MOL0     H12492   8.711   8.804   1.464 -0.3148  1.2683  0.4312
   93MOL0     H12493   8.641   8.656   1.424  0.8958 -0.2864  1.0899
   93MOL0     H12494   8.662   8.570   1.667 -1.5984  0.8678 -1.4957
   93MOL0     H12495   8.765   8.708   1.690 -2.1687 -0.2380  0.8383
   93MOL0     H12496   8.883   8.478   1.616 -0.1456 -0.4991  1.5555
   93MOL0     H12497   8.812   8.516   1.464 -1.0330 -0.8152  1.5819
   93MOL0     H12498   8.935   8.720   1.422  1.2829 -1.8878 -2.0698
   93MOL0     H12499   8.961   8.746   1.587 -1.1151 -0.0201 -0.2192
   93MOL0     H12500   9.173   8.672   1.522  1.0406 -0.7544  1.3655
   93MOL0     H12501   9.100   8.539   1.605 -1.9282 -0.1562  0.2881
   93MOL0     H12502   9.117   8.572   1.297 -4.2404  0.3842  1.0484
   93MOL0     H12503   9.067   8.426   1.380 -1.4586  1.1781 -1.3772
   93MOL0     H12504   9.337   8.558   1.375 -1.3519  0.1054 -4.9483
   93MOL0     H12505   9.308   8.432   1.502  2.1854  1.9987 -0.3299
   93MOL0     H12506   9.242   8.167   1.378 -0.1583 -1.9101 -1.9576
   93MOL0     H12507   9.247   7.989   1.208 -1.9005 -0.7570 -2.8357
   93MOL0     H12508   9.279   8.020   1.035  1.1172 -0.2950 -1.7214
   93MOL0     H12509   9.459   7.880   1.092 -3.3024 -0.2059 -0.4840
   93MOL0     H12510   9.529   8.042   1.093  1.0943  0.0545 -0.1277
   93MOL0     H12511   9.429   7.902   1.354  0.4648 -0.7068 -0.5540
   93MOL0     H12512   9.511   8.062   1.334 -0.5826  1.4715 -2.0431
   93MOL0     H12513   9.700   7.949   1.214  2.2809 -0.6759 -0.5539
   93MOL0     H12514   9.629   7.797   1.236  0.7818  2.0677 -0.8749
   93MOL0     H12515   9.860   7.770   1.227  1.0123  1.9659  0.3330
   93MOL0     H12516  10.074   7.638   1.281 -1.1094 -2.7383  0.9099
   93MOL0     H12517  10.463   7.753   1.640  1.6105  0.8199 -0.2356
   93MOL0     H12518  10.669   7.666   1.731  0.5870 -0.3273 -0.0620
   93MOL0     H12519  10.829   7.488   1.664  0.3225 -0.7761  0.3079
   93MOL0     H12520  10.886   7.576   1.812  1.8095 -1.4518  0.3748
   93MOL0     H12521  10.965   7.365   1.896  1.6522  3.1628  1.0368
   93MOL0     H12522  10.942   7.297   1.736  0.6215 -0.5827  0.3577
   93MOL0     H12523  11.077   7.493   1.660 -3.0923  1.5996  0.7754
   93MOL0     H12524  11.104   7.539   1.828  1.1926 -0.2052  0.3169
   93MOL0     H12525  11.188   7.270   1.728 -1.5367  1.4765 -2.8411
   93MOL0     H12526  11.226   7.336   1.890  2.5645  0.0313 -0.4043
   93MOL0     H12527  11.373   7.512   1.814  0.9400 -0.1113 -0.3016
   93MOL0     H12528  11.343   7.482   1.634  1.8083 -1.5543 -0.4830
   93MOL0     H12529  11.447   7.256   1.791 -3.5976 -1.5689 -0.8933
   93MOL0     H12530  11.439   7.294   1.616  1.4338 -1.1358 -0.3607
   93MOL0     H12531  11.605   7.431   1.833 -0.0634  4.2255  0.4018
   93MOL0     H12532  11.607   7.491   1.667 -5.9418 -0.8723 -2.5083
   93MOL0     H12533  11.794   7.362   1.684 -0.9038  1.6973 -1.4020
   93MOL0     H12534  11.703   7.215   1.752 -0.7791 -0.2168  0.6600
   93MOL0     H12535  10.522   7.287   1.791  1.4728  1.6914  1.6529
   93MOL0     H12536  10.290   7.364   1.734 -1.9166  0.0335  1.2621
   93MOL0     H12537  10.000   7.744   1.705 -0.0836 -0.2703  0.6836
   93MOL0     H12538   9.805   7.840   1.644  0.5078 -1.1081 -0.8353
   93MOL0     H12539   8.334   8.929   1.646  2.0754 -2.3811  1.2120
   93MOL0     H12540   8.094   8.996   1.662  0.1393  0.4365 -0.3690
   93MOL0     H12541   7.758   9.042   1.712  0.6524 -0.7496  0.1959
   93MOL0     H12542   7.556   9.157   1.771  1.2845 -0.2167  0.9607
   93MOL0     H12543   7.416   9.168   2.051  1.2961 -3.2328 -1.0764
   93MOL0     H12544   7.277   9.061   2.096  2.4526 -0.9758  2.0341
   93MOL0     H12545   7.133   9.215   1.939  0.4137  0.3492 -2.0525
   93MOL0     H12546   7.279   9.298   1.899  0.8500 -0.8703  0.0224
   93MOL0     H12547   7.135   9.307   2.172  1.3395  0.5497  2.6402
   93MOL0     H12548   7.134   9.432   2.060  1.7377 -0.9691 -2.5132
   93MOL0     H12549   7.361   9.330   2.236 -2.6523 -0.9102  1.8161
   93MOL0     H12550   7.414   9.406   2.095 -0.2856 -1.1359  0.4650
   93MOL0     H12551   7.314   9.754   2.299 -0.1033  0.8462 -3.1638
   93MOL0     H12552   7.444   8.846   2.037  1.2200 -0.2133  0.5846
   93MOL0     H12553   7.710   8.605   1.954  3.0370  1.4166  2.1808
   93MOL0     H12554   7.721   8.718   2.078  1.9351 -1.3229 -1.5989
   93MOL0     H12555   7.571   8.643   2.057  0.2631 -3.3686 -1.2645
   94MOL0     O12556   9.354   5.502   2.584  0.5003 -0.4455  0.0646
   94MOL0     C12557   9.370   5.622   2.590  1.0147  0.4807 -0.8152
   94MOL0     O12558   9.349   5.697   2.696  0.2077  0.0822  0.2328
   94MOL0     C12559   9.268   5.650   2.797 -0.8859  0.5750 -0.1564
   94MOL0     C12560   9.142   5.698   2.823 -0.7420 -0.3152 -0.5045
   94MOL0     C12561   9.071   5.659   2.936 -0.0817  0.1110  0.2775
   94MOL0     C12562   9.136   5.556   3.018  0.3537 -0.5532 -0.0841
   94MOL0     O12563   9.091   5.525   3.144  0.3693 -0.0517 -0.2564
   94MOL0     C12564   8.946   5.490   3.150 -0.1861  1.0308 -0.6737
   94MOL0     C12565   8.936   5.393   3.277  0.3117  0.0611  0.7846
   94MOL0     C12566   8.973   5.474   3.407  0.4522 -0.4799 -0.8564
   94MOL0     C12567   8.889   5.427   3.525  0.0480 -0.1413  0.3113
   94MOL0     C12568   8.934   5.290   3.565 -0.0926  0.1910 -0.4147
   94MOL0     C12569   8.862   5.244   3.698 -0.0959  0.1995 -0.4800
   94MOL0     C12570   8.911   5.106   3.752  0.2874  0.6570  0.1436
   94MOL0     C12571   9.055   5.086   3.797 -0.4674 -0.0109  0.0736
   94MOL0     N12572   9.066   4.974   3.894  0.8056  0.2804  0.1320
   94MOL0     C12573   9.156   4.865   3.876  0.1604  0.3175 -0.4127
   94MOL0     C12574   9.146   4.798   3.996 -0.2683  0.0019 -0.0587
   94MOL0     C12575   9.225   4.693   4.048 -0.3307 -0.2319 -0.5687
   94MOL0     C12576   9.149   4.555   4.063  0.2414  0.5900 -0.3869
   94MOL0     C12577   9.141   4.461   3.946  0.5977  0.5956  0.8383
   94MOL0     C12578   9.272   4.419   3.890  0.3527  0.3758  0.6810
   94MOL0     O12579   9.243   4.311   3.800  0.1095 -0.1437  0.5597
   94MOL0     C12580   9.335   4.217   3.778 -1.0308 -0.1031 -0.6448
   94MOL0     C12581   9.381   4.191   3.654 -0.1884 -0.2087  0.6137
   94MOL0     C12582   9.467   4.077   3.637 -1.4139 -0.6913  0.0958
   94MOL0     C12583   9.519   4.003   3.753  0.5395 -0.1704  0.2415
   94MOL0     C12584   9.614   3.890   3.735 -0.0058 -0.2748  0.3825
   94MOL0     O12585   9.595   3.810   3.629 -0.8632 -0.1379  0.0603
   94MOL0     C12586   9.686   3.706   3.611 -0.6363  0.3744 -0.9289
   94MOL0     C12587   9.646   3.589   3.544  0.3247 -0.9127  0.8662
   94MOL0     C12588   9.732   3.488   3.517 -1.1270  0.5860  0.8959
   94MOL0     C12589   9.864   3.488   3.556 -0.6028  0.6581 -0.6693
   94MOL0     O12590   9.956   3.382   3.528  0.0886  0.5745 -1.1652
   94MOL0     C12591   9.912   3.255   3.586  0.3119 -0.6647 -0.6137
   94MOL0     C12592   9.912   3.264   3.734  0.7442 -0.0011 -0.5166
   94MOL0     C12593   9.867   3.146   3.817  0.4414 -1.4889  0.1588
   94MOL0     C12594   9.859   3.173   3.963  1.1064 -0.2934 -0.3770
   94MOL0     C12595   9.751   3.074   4.025  0.7197 -0.5994  0.2652
   94MOL0     C12596   9.725   3.109   4.168 -0.4603  0.3634 -0.9995
   94MOL0     C12597   9.629   3.000   4.235 -0.1055  0.7591 -0.8683
   94MOL0     C12598   9.617   3.016   4.381 -0.0362 -0.8731 -0.1777
   94MOL0    Cl12599   9.505   2.899   4.440  0.3996 -0.1172 -0.1900
   94MOL0     C12600   9.914   3.601   3.621  0.0470 -0.3447  0.0364
   94MOL0     C12601   9.823   3.708   3.651 -0.5867 -0.7854  0.4817
   94MOL0     O12602   9.679   3.870   3.831  0.4977  0.4433 -1.3478
   94MOL0     C12603   9.476   4.044   3.879 -0.1433 -0.0036  0.4002
   94MOL0     C12604   9.384   4.145   3.885 -0.0716  0.0628 -0.6533
   94MOL0     N12605   9.067   4.875   4.085  0.1826 -0.2695  0.9708
   94MOL0     N12606   9.018   4.977   4.019 -0.3404  0.2481 -0.0964
   94MOL0     C12607   9.258   5.497   2.973  0.5572 -1.0410 -0.1221
   94MOL0     C12608   9.325   5.545   2.871  0.1244  0.0002 -0.2268
   94MOL0     C12609   9.450   5.681   2.480 -0.5144  0.2865 -0.1920
   94MOL0     C12610   9.545   5.785   2.505  0.0532 -0.3537 -0.1837
   94MOL0     C12611   9.631   5.824   2.407 -0.3996  0.7556 -0.0513
   94MOL0     C12612   9.640   5.760   2.286  0.7964 -0.3889 -0.2144
   94MOL0     O12613   9.745   5.795   2.201  0.3014  0.3463 -0.3486
   94MOL0     C12614   9.723   5.787   2.060 -0.1890  0.3314  0.1327
   94MOL0     C12615   9.796   5.903   1.990  0.3512  1.1555 -0.5116
   94MOL0     C12616   9.730   5.939   1.862 -0.1714  0.1940  0.4472
   94MOL0     C12617   9.746   5.839   1.747  0.3606 -0.3332  0.3074
   94MOL0     C12618   9.876   5.780   1.742 -0.3177  0.4766 -0.0804
   94MOL0     C12619   9.986   5.742   1.726  0.0730  0.1447 -1.0195
   94MOL0     C12620   9.551   5.657   2.260  0.6896  0.8702 -0.0592
   94MOL0     C12621   9.458   5.619   2.355 -0.8874 -1.3179  0.1497
   94MOL0     C12622   9.359   5.527   2.297  0.2004 -0.0197 -0.3281
   94MOL0     H12623   9.091   5.768   2.757 -3.1521 -1.0791  0.4294
   94MOL0     H12624   8.980   5.715   2.953  2.0113  3.8879  0.1315
   94MOL0     H12625   8.880   5.577   3.154  0.7127  1.6801  1.2637
   94MOL0     H12626   8.924   5.431   3.060 -1.5981  0.9846 -0.3092
   94MOL0     H12627   9.011   5.317   3.253 -0.4336 -1.0492  1.8919
   94MOL0     H12628   8.833   5.359   3.264 -0.4425  2.9172 -2.3068
   94MOL0     H12629   8.947   5.580   3.403 -0.1319 -0.4605  1.7656
   94MOL0     H12630   9.081   5.470   3.421  0.7714 -0.6946 -3.0006
   94MOL0     H12631   8.888   5.499   3.607 -2.6342  0.0234  0.2488
   94MOL0     H12632   8.782   5.420   3.502  0.3173 -0.7002 -0.8308
   94MOL0     H12633   8.913   5.212   3.492 -3.0356 -3.6126  3.9038
   94MOL0     H12634   9.042   5.288   3.578  0.1483  2.6514 -1.5972
   94MOL0     H12635   8.868   5.321   3.775  1.8242 -0.9968  0.6491
   94MOL0     H12636   8.757   5.233   3.668 -1.4554  0.0325  3.7319
   94MOL0     H12637   8.888   5.025   3.681 -2.5650 -1.2983  3.0269
   94MOL0     H12638   8.842   5.084   3.833  1.7994 -3.6354  0.5560
   94MOL0     H12639   9.106   5.059   3.704  0.9498 -1.5306  1.2434
   94MOL0     H12640   9.091   5.179   3.840 -1.2867 -0.6038  2.1624
   94MOL0     H12641   9.222   4.835   3.795  3.3665  0.7116  1.8981
   94MOL0     H12642   9.312   4.680   3.983  0.2713  1.2679 -0.0880
   94MOL0     H12643   9.264   4.728   4.144  2.4994 -4.1084 -0.0166
   94MOL0     H12644   9.194   4.487   4.136  0.1704 -0.6142 -1.4343
   94MOL0     H12645   9.054   4.582   4.112  1.5977  3.3157  0.9629
   94MOL0     H12646   9.072   4.503   3.872 -1.5359 -0.0232  2.3707
   94MOL0     H12647   9.102   4.372   3.995  1.9205 -0.3158  0.3148
   94MOL0     H12648   9.332   4.382   3.973  2.1889 -2.8744 -1.8232
   94MOL0     H12649   9.322   4.498   3.833 -0.0498  0.2733  0.1771
   94MOL0     H12650   9.345   4.246   3.568  0.0042  0.1346  0.7547
   94MOL0     H12651   9.491   4.057   3.533 -1.4147 -0.0338 -0.0377
   94MOL0     H12652   9.545   3.591   3.504  0.7230  1.9721 -0.2490
   94MOL0     H12653   9.691   3.401   3.467 -3.1534  1.6779  0.5493
   94MOL0     H12654   9.815   3.220   3.549 -0.9869 -0.3383  2.2530
   94MOL0     H12655   9.979   3.174   3.556  1.4672  0.0287  0.0584
   94MOL0     H12656  10.008   3.302   3.769 -1.0343  2.3470  2.2371
   94MOL0     H12657   9.841   3.345   3.751  3.0523  2.4737 -1.8899
   94MOL0     H12658   9.771   3.116   3.773 -1.2131  2.7162  0.5045
   94MOL0     H12659   9.949   3.077   3.796  2.7035  0.4355  2.1289
   94MOL0     H12660   9.823   3.277   3.969 -0.0288 -0.5887 -1.5007
   94MOL0     H12661   9.961   3.178   4.002  0.8810 -2.6951  0.6649
   94MOL0     H12662   9.787   2.971   4.009 -3.4014 -2.0494 -0.9340
   94MOL0     H12663   9.652   3.071   3.978  0.1741 -0.2112  1.3550
   94MOL0     H12664   9.820   3.110   4.222 -0.9646 -0.2733 -0.0740
   94MOL0     H12665   9.675   3.206   4.176  1.1121  1.1783 -0.5275
   94MOL0     H12666   9.666   2.900   4.214 -0.2974  0.7009 -0.9250
   94MOL0     H12667   9.528   3.004   4.193 -1.0236 -2.2387  0.7887
   94MOL0     H12668   9.718   3.013   4.422 -0.2740 -3.0143  0.4037
   94MOL0     H12669   9.582   3.117   4.402  3.1269  0.5813 -1.3996
   94MOL0     H12670  10.019   3.610   3.647 -0.4805 -1.4826  2.9038
   94MOL0     H12671   9.859   3.803   3.688 -1.6127 -0.3142  0.3120
   94MOL0     H12672   9.517   3.988   3.963  4.0940 -1.9592 -2.6130
   94MOL0     H12673   9.351   4.166   3.987  1.0010 -0.4493 -0.1787
   94MOL0     H12674   9.307   5.421   3.034 -0.1957  1.1898  3.5460
   94MOL0     H12675   9.421   5.498   2.855  0.6794  0.6387  1.0791
   94MOL0     H12676   9.544   5.842   2.598  0.2482  2.2458 -1.6793
   94MOL0     H12677   9.707   5.900   2.427  2.9744 -1.2500 -3.7532
   94MOL0     H12678   9.616   5.795   2.035 -1.0106  1.2039  3.4659
   94MOL0     H12679   9.744   5.691   2.011 -3.4171  0.2411 -1.3819
   94MOL0     H12680   9.900   5.880   1.965  0.0986  0.5284 -1.0276
   94MOL0     H12681   9.793   5.988   2.059 -0.2738  0.7503 -0.0324
   94MOL0     H12682   9.773   6.033   1.827  1.6227 -1.4502 -2.1350
   94MOL0     H12683   9.623   5.950   1.877 -0.2186 -1.4488  1.5560
   94MOL0     H12684   9.673   5.758   1.751  0.3468 -0.4417 -1.3036
   94MOL0     H12685   9.730   5.889   1.651 -1.0204  0.8346  1.1173
   94MOL0     H12686  10.074   5.688   1.699 -1.0840 -0.8984 -2.9653
   94MOL0     H12687   9.563   5.608   2.164 -0.0855  0.7890 -0.1197
   94MOL0     H12688   9.404   5.432   2.328  0.2801 -0.2483 -1.1334
   94MOL0     H12689   9.260   5.549   2.339  0.7768  2.0006  0.0326
   94MOL0     H12690   9.354   5.518   2.188 -1.2925  2.6657 -0.5676
   95MOL0     O12691   6.008  11.485   0.568 -0.2600  0.1261  0.1236
   95MOL0     C12692   5.973  11.535   0.463 -1.6750  0.6214  0.1799
   95MOL0     O12693   5.897  11.475   0.373  0.2149 -0.0349  0.2993
   95MOL0     C12694   5.871  11.341   0.368 -0.1046  0.6487 -0.4374
   95MOL0     C12695   5.744  11.307   0.331  0.3836 -0.4234  0.5846
   95MOL0     C12696   5.711  11.168   0.317  0.3271 -1.2638  0.3064
   95MOL0     C12697   5.804  11.066   0.350 -0.5164 -0.0280 -0.2429
   95MOL0     O12698   5.762  10.940   0.357 -0.9904  0.1189 -0.2857
   95MOL0     C12699   5.838  10.839   0.297 -0.2639 -0.0072  0.6499
   95MOL0     C12700   5.893  10.735   0.395  0.2370 -0.4386  0.7166
   95MOL0     C12701   5.959  10.616   0.314 -0.7462  0.2856  0.1264
   95MOL0     C12702   6.086  10.552   0.382 -0.0909  1.1218 -0.1271
   95MOL0     C12703   6.103  10.423   0.314 -0.5369  0.8043  0.3826
   95MOL0     C12704   6.174  10.452   0.178  0.0633  0.0864 -0.4136
   95MOL0     C12705   6.195  10.336   0.080 -0.2181  0.0311 -0.1994
   95MOL0     C12706   6.070  10.262   0.053  1.2155 -0.1099  0.4777
   95MOL0     N12707   5.952  10.343   0.008 -0.2012  0.5502 -0.0011
   95MOL0     C12708   5.933  10.438  -0.089  0.3378  0.1338  0.2377
   95MOL0     C12709   5.822  10.509  -0.049 -1.0948 -0.0002 -0.3700
   95MOL0     C12710   5.749  10.607  -0.128  0.3883 -0.1607  0.4405
   95MOL0     C12711   5.805  10.750  -0.130  0.5785 -0.3866 -0.1710
   95MOL0     C12712   5.941  10.771  -0.201  1.1486  0.5184 -0.3069
   95MOL0     C12713   5.977  10.921  -0.201  0.2993  0.6213  1.2447
   95MOL0     O12714   6.001  10.978  -0.075  0.1325 -0.4578  0.9157
   95MOL0     C12715   5.959  11.112  -0.072  0.7466  0.0247 -0.1208
   95MOL0     C12716   6.048  11.214  -0.088 -0.4586  0.4454  0.0373
   95MOL0     C12717   6.007  11.350  -0.071  0.6363 -0.1927  0.2469
   95MOL0     C12718   5.875  11.386  -0.060  0.4032  0.7405  0.1499
   95MOL0     C12719   5.827  11.522  -0.059  0.0557 -1.0413  0.7390
   95MOL0     O12720   5.698  11.541  -0.027 -0.2283 -0.3223  0.2882
   95MOL0     C12721   5.660  11.673  -0.008  0.1147 -0.3538 -0.2449
   95MOL0     C12722   5.656  11.712   0.126  0.2061  0.3883  0.6034
   95MOL0     C12723   5.600  11.829   0.171 -0.4851  0.0963 -1.2790
   95MOL0     C12724   5.546  11.914   0.073  0.2981  0.5098 -0.6453
   95MOL0     O12725   5.472  12.019   0.102  0.2286 -0.2490  0.9454
   95MOL0     C12726   5.429  12.051   0.241  0.1501  0.7739  0.7631
   95MOL0     C12727   5.290  12.002   0.272  0.8850 -0.2841 -0.2347
   95MOL0     C12728   5.253  11.965   0.414  0.3954 -0.7869 -0.1350
   95MOL0     C12729   5.102  11.930   0.429 -0.8431  0.0356 -0.5548
   95MOL0     C12730   5.064  11.788   0.388  0.4403  0.9225 -0.4463
   95MOL0     C12731   5.078  11.680   0.495 -0.4555 -0.7704  0.5458
   95MOL0     C12732   5.222  11.620   0.489  0.5027  0.3576  0.0593
   95MOL0     C12733   5.252  11.519   0.373  0.7956 -0.7124  0.5943
   95MOL0    Cl12734   5.326  11.370   0.415 -0.0835  0.0128 -0.2711
   95MOL0     C12735   5.568  11.883  -0.067 -0.3105  1.5369  0.2529
   95MOL0     C12736   5.614  11.760  -0.100  0.4108 -0.2486  0.0738
   95MOL0     O12737   5.906  11.612  -0.089  0.4009  0.1343 -0.5465
   95MOL0     C12738   5.782  11.283  -0.048  0.6059  0.1908  0.7270
   95MOL0     C12739   5.825  11.145  -0.044  0.8117  0.2420  0.7901
   95MOL0     N12740   5.789  10.461   0.076 -0.1698  0.1325 -0.6037
   95MOL0     N12741   5.863  10.359   0.103  1.0420 -0.1128 -0.0172
   95MOL0     C12742   5.932  11.100   0.395  0.4382 -0.0533  0.1802
   95MOL0     C12743   5.965  11.235   0.397 -0.5005 -0.9516 -0.1736
   95MOL0     C12744   6.003  11.675   0.442 -0.4919 -0.6330  0.1112
   95MOL0     C12745   5.949  11.740   0.333 -0.0535  1.0847  0.0154
   95MOL0     C12746   5.951  11.882   0.314 -0.0429  1.4523  0.4595
   95MOL0     C12747   6.024  11.961   0.399  0.3116 -0.7891  0.6661
   95MOL0     O12748   6.015  12.100   0.376  0.3583 -0.4846 -0.4677
   95MOL0     C12749   6.061  12.181   0.483 -0.0639 -0.1000 -0.8046
   95MOL0     C12750   6.034  12.317   0.435 -0.1939  0.5946  0.1087
   95MOL0     C12751   6.121  12.377   0.329 -0.8784 -0.6172  0.0714
   95MOL0     C12752   6.256  12.420   0.383  0.2804 -0.3070 -0.1592
   95MOL0     C12753   6.358  12.462   0.293 -0.0051 -1.0115  0.0361
   95MOL0     C12754   6.439  12.523   0.232 -0.2344 -0.7617  0.6803
   95MOL0     C12755   6.091  11.893   0.505  0.5263 -0.0579 -0.3156
   95MOL0     C12756   6.084  11.748   0.526 -0.5104  0.1851 -0.1216
   95MOL0     C12757   6.156  11.706   0.652  0.1456  0.1318 -0.6960
   95MOL0     H12758   5.655  11.368   0.315 -0.4646 -1.7221  0.1106
   95MOL0     H12759   5.612  11.136   0.286  0.5999 -1.1962 -0.6655
   95MOL0     H12760   5.764  10.791   0.233 -2.5109  1.7152  1.8154
   95MOL0     H12761   5.926  10.867   0.238 -2.4117 -1.6045 -3.7415
   95MOL0     H12762   5.821  10.693   0.466 -1.2079 -0.4151 -0.6842
   95MOL0     H12763   5.976  10.777   0.453  1.7466 -1.2712 -0.7609
   95MOL0     H12764   5.980  10.649   0.211  0.1294 -0.7992 -0.0628
   95MOL0     H12765   5.882  10.540   0.312 -1.4854  0.9580 -3.2067
   95MOL0     H12766   6.177  10.614   0.380  0.8776 -0.2666 -0.5168
   95MOL0     H12767   6.063  10.540   0.488  2.2114  1.5899  0.4771
   95MOL0     H12768   6.177  10.366   0.372 -0.7951 -2.7214 -2.3748
   95MOL0     H12769   6.012  10.366   0.296  1.4527 -1.9383 -1.9650
   95MOL0     H12770   6.120  10.521   0.113  1.9165  0.4829 -1.6413
   95MOL0     H12771   6.272  10.497   0.195  0.6071 -0.8297 -1.0068
   95MOL0     H12772   6.268  10.268   0.125  1.1398  2.4394  1.4878
   95MOL0     H12773   6.235  10.377  -0.013 -0.4575  1.6689  0.3870
   95MOL0     H12774   6.092  10.186  -0.022  1.5951 -0.6524  1.1264
   95MOL0     H12775   6.044  10.197   0.137  2.1762 -2.5808 -1.0593
   95MOL0     H12776   5.976  10.450  -0.188 -1.8477  0.8524 -0.6919
   95MOL0     H12777   5.753  10.574  -0.232  0.1048  2.3209 -0.4100
   95MOL0     H12778   5.641  10.600  -0.108 -0.3952  1.9427 -2.5001
   95MOL0     H12779   5.734  10.814  -0.183  3.2336  1.7221 -1.4111
   95MOL0     H12780   5.809  10.784  -0.026  0.0172  1.8358 -0.8076
   95MOL0     H12781   5.940  10.729  -0.302 -0.7960  0.9432 -0.4960
   95MOL0     H12782   6.021  10.712  -0.155  0.0998 -2.4811 -2.0539
   95MOL0     H12783   5.898  10.978  -0.250 -0.4223  0.2332  1.9351
   95MOL0     H12784   6.076  10.926  -0.247  0.2135 -5.5475 -0.6190
   95MOL0     H12785   6.151  11.185  -0.107 -0.5693  0.4090 -0.5068
   95MOL0     H12786   6.070  11.437  -0.086 -1.2208  1.2206  0.2156
   95MOL0     H12787   5.666  11.635   0.202 -1.1042  1.5042  1.9479
   95MOL0     H12788   5.596  11.844   0.279 -3.0499  0.4487 -1.3554
   95MOL0     H12789   5.506  12.014   0.309 -0.0749 -2.9692 -0.8217
   95MOL0     H12790   5.428  12.160   0.254 -3.2187  0.9925 -0.3995
   95MOL0     H12791   5.232  12.088   0.238  2.5102  0.8937 -0.1219
   95MOL0     H12792   5.274  11.911   0.213  3.7351 -2.8021  2.5259
   95MOL0     H12793   5.321  11.885   0.444  3.2759  1.2128 -0.8529
   95MOL0     H12794   5.271  12.048   0.482  0.0231 -2.7688  2.5221
   95MOL0     H12795   5.040  11.999   0.371  1.2893  0.8513 -1.9636
   95MOL0     H12796   5.086  11.950   0.536  4.4087  3.2778 -0.0146
   95MOL0     H12797   5.125  11.766   0.300 -1.3906  1.0216 -1.7868
   95MOL0     H12798   4.959  11.794   0.359 -0.6550 -1.0815  2.6247
   95MOL0     H12799   5.075  11.717   0.598  2.9492  0.7700  0.2497
   95MOL0     H12800   5.012  11.600   0.463 -0.2711 -0.4126 -0.7643
   95MOL0     H12801   5.222  11.562   0.582  0.3918  0.5320  0.1678
   95MOL0     H12802   5.298  11.699   0.485  0.0762  0.7490 -0.4835
   95MOL0     H12803   5.151  11.490   0.340  1.0180 -2.9826  1.7287
   95MOL0     H12804   5.299  11.573   0.290 -1.4413  1.3509  0.5447
   95MOL0     H12805   5.538  11.950  -0.147  0.1441  1.8529  0.3414
   95MOL0     H12806   5.620  11.726  -0.202  2.1481  1.2989 -0.3833
   95MOL0     H12807   5.680  11.304  -0.020  0.0880 -1.1172 -0.0594
   95MOL0     H12808   5.761  11.061  -0.018 -1.1131  2.3079  3.3920
   95MOL0     H12809   6.012  11.029   0.417  1.1678  0.0443 -1.8883
   95MOL0     H12810   6.068  11.256   0.425 -1.5442  1.3682  2.3801
   95MOL0     H12811   5.904  11.688   0.249  0.7378 -2.9814  1.8698
   95MOL0     H12812   5.902  11.942   0.238  0.5777 -0.4696 -1.5746
   95MOL0     H12813   6.168  12.161   0.490  0.1599  0.5439 -2.0755
   95MOL0     H12814   6.005  12.158   0.574 -0.3022 -0.4220 -1.0262
   95MOL0     H12815   6.043  12.383   0.522  3.0746 -2.4645  2.3690
   95MOL0     H12816   5.931  12.329   0.401 -0.1400  1.6009  0.2693
   95MOL0     H12817   6.070  12.458   0.276 -0.4999  0.1248  0.8159
   95MOL0     H12818   6.142  12.300   0.254  0.5615 -1.3309  1.1611
   95MOL0     H12819   6.228  12.508   0.441  1.3788  1.3144 -1.9651
   95MOL0     H12820   6.294  12.334   0.438  0.2497  0.0934  0.5061
   95MOL0     H12821   6.508  12.577   0.170 -3.0049 -1.3027 -3.2228
   95MOL0     H12822   6.145  11.956   0.576  1.7499 -1.5753  0.1668
   95MOL0     H12823   6.179  11.600   0.665 -0.6891 -0.0711 -0.8202
   95MOL0     H12824   6.244  11.770   0.665  1.6139 -1.9985  0.6515
   95MOL0     H12825   6.091  11.720   0.739 -0.4864 -1.9183 -0.7862
   96MOL0     O12826  10.604   0.382  10.679  0.2234 -0.4277 -0.5278
   96MOL0     C12827  10.683   0.468  10.712  0.6597  0.3819  0.0643
   96MOL0     O12828  10.648   0.601  10.708 -0.3774 -0.2174 -0.4849
   96MOL0     C12829  10.509   0.623  10.720  0.0992  0.8587  2.0276
   96MOL0     C12830  10.457   0.726  10.640  0.1900 -1.0167  0.0293
   96MOL0     C12831  10.320   0.760  10.635  0.1463 -0.2088  0.1150
   96MOL0     C12832  10.227   0.680  10.701  0.1802  0.4393 -0.9697
   96MOL0     O12833  10.089   0.716  10.688 -1.0024  0.5336 -0.6356
   96MOL0     C12834   9.989   0.613  10.676 -0.7003  0.1911 -0.3333
   96MOL0     C12835   9.859   0.677  10.650 -0.4696 -0.8742 -0.2114
   96MOL0     C12836   9.746   0.585  10.690  0.4812 -0.4857 -0.0602
   96MOL0     C12837   9.609   0.649  10.642  0.1565  0.1241 -0.5049
   96MOL0     C12838   9.569   0.624  10.499 -0.0601 -0.0647 -0.8548
   96MOL0     C12839   9.436   0.683  10.478 -0.1382  0.3938 -0.2051
   96MOL0     C12840   9.378   0.606  10.355  0.0723  0.1599  0.0896
   96MOL0     C12841   9.234   0.660  10.334  0.3009 -0.6739  0.0591
   96MOL0     N12842   9.153   0.624  10.212  0.1891  0.3875 -0.4663
   96MOL0     C12843   9.201   0.591  10.090  0.3549 -0.3443  0.9838
   96MOL0     C12844   9.104   0.507  10.038  0.3477  0.1815  0.5634
   96MOL0     C12845   9.101   0.437   9.898  0.6065 -0.4251 -1.0709
   96MOL0     C12846   9.093   0.541   9.782 -0.6958 -0.2263 -0.1906
   96MOL0     C12847   8.958   0.570   9.734  0.8430 -0.5998 -0.0352
   96MOL0     C12848   8.862   0.622   9.846 -0.2464  0.4348  0.5020
   96MOL0     O12849   8.738   0.674   9.791 -0.6347 -0.0551 -0.2974
   96MOL0     C12850   8.648   0.722   9.887  0.1421  0.5514  0.7840
   96MOL0     C12851   8.516   0.758   9.852 -0.5276 -0.2153  0.3801
   96MOL0     C12852   8.430   0.810   9.941  0.4032 -0.0836 -0.2648
   96MOL0     C12853   8.464   0.830  10.073 -0.2865  0.2779 -0.0955
   96MOL0     C12854   8.358   0.885  10.152 -0.1179  0.3505 -0.6664
   96MOL0     O12855   8.235   0.871  10.100 -0.1046  0.5989 -0.9988
   96MOL0     C12856   8.127   0.905  10.179  0.2900  0.4270  0.6523
   96MOL0     C12857   8.101   0.843  10.304 -0.1691  0.0403 -1.1935
   96MOL0     C12858   7.977   0.870  10.369 -0.6566 -1.4108 -0.7584
   96MOL0     C12859   7.874   0.945  10.319 -0.6175  0.3767  1.0638
   96MOL0     O12860   7.752   0.972  10.380 -0.8664  0.4683  0.6313
   96MOL0     C12861   7.640   1.012  10.294  0.2480  0.5605 -0.4015
   96MOL0     C12862   7.518   0.988  10.380  0.9532 -0.3694 -0.0807
   96MOL0     C12863   7.390   1.019  10.297  1.2021 -0.4118 -0.3694
   96MOL0     C12864   7.263   1.047  10.388 -0.7077  0.5317 -0.0674
   96MOL0     C12865   7.139   1.000  10.309  0.5085 -0.4117  0.1909
   96MOL0     C12866   7.135   0.846  10.297  0.4855 -0.0588  0.0354
   96MOL0     C12867   7.049   0.790  10.177  0.7335 -0.3934 -0.3112
   96MOL0     C12868   7.105   0.820  10.030 -0.7778 -0.4623 -0.0117
   96MOL0    Cl12869   7.265   0.740  10.012 -0.0210 -0.0960 -0.2767
   96MOL0     C12870   7.909   0.992  10.191  0.6102 -0.6654 -0.0332
   96MOL0     C12871   8.025   0.970  10.114 -0.3315  0.1760 -0.5706
   96MOL0     O12872   8.391   0.932  10.264 -0.1176 -0.6006 -0.0033
   96MOL0     C12873   8.579   0.776  10.125 -0.4903 -0.0186  0.0209
   96MOL0     C12874   8.675   0.731  10.030 -1.0356  0.6576  0.2076
   96MOL0     N12875   9.005   0.490  10.135  0.4493 -0.0550 -0.4731
   96MOL0     N12876   9.035   0.563  10.232  0.0049  0.3314 -0.6139
   96MOL0     C12877  10.280   0.582  10.793 -0.7192  0.9085 -0.4837
   96MOL0     C12878  10.412   0.558  10.798  0.5215  0.7002  0.5846
   96MOL0     C12879  10.827   0.443  10.730 -0.2741 -0.2016 -0.0815
   96MOL0     C12880  10.904   0.541  10.795  0.9564 -1.2686 -0.4946
   96MOL0     C12881  11.041   0.536  10.822 -0.2253  0.5522  0.3313
   96MOL0     C12882  11.105   0.420  10.797 -0.2932  0.6919  0.9537
   96MOL0     O12883  11.234   0.394  10.838  0.4736  0.7948  0.5371
   96MOL0     C12884  11.283   0.420  10.973 -0.1021 -0.3091  0.6269
   96MOL0     C12885  11.388   0.318  11.010  0.3478 -0.4238 -0.5618
   96MOL0     C12886  11.484   0.378  11.108 -0.5440 -0.3791  0.3262
   96MOL0     C12887  11.530   0.288  11.213  0.7365 -0.9294  0.0487
   96MOL0     C12888  11.653   0.345  11.269 -0.1605 -1.0903  0.5265
   96MOL0     C12889  11.751   0.396  11.321  0.1735 -0.5188 -0.6268
   96MOL0     C12890  11.035   0.321  10.736  0.2532  0.2725 -0.5173
   96MOL0     C12891  10.901   0.331  10.693  0.8060  0.8385  0.4859
   96MOL0     C12892  10.837   0.232  10.596  0.1370  0.4084 -0.5145
   96MOL0     H12893  10.530   0.786  10.586  0.4744 -0.1514  1.3322
   96MOL0     H12894  10.296   0.842  10.567 -2.7825 -1.4547 -0.4968
   96MOL0     H12895  10.023   0.543  10.598  1.5523  1.1374 -0.2851
   96MOL0     H12896   9.981   0.554  10.768 -1.1719 -0.8822 -1.0368
   96MOL0     H12897   9.848   0.715  10.547 -0.1105  1.3359  0.5100
   96MOL0     H12898   9.857   0.770  10.708  0.4863  1.6093 -3.7716
   96MOL0     H12899   9.737   0.558  10.795  0.4598 -0.1287  0.0305
   96MOL0     H12900   9.754   0.488  10.638 -2.3285  0.2835 -2.1904
   96MOL0     H12901   9.536   0.606  10.711 -0.0909  3.0746  1.2251
   96MOL0     H12902   9.608   0.758  10.652 -1.4485  0.1026 -0.2405
   96MOL0     H12903   9.637   0.654  10.419 -1.1869  4.5959 -0.3264
   96MOL0     H12904   9.568   0.514  10.497  1.7137 -0.1374  0.3526
   96MOL0     H12905   9.379   0.678  10.571  2.9457  0.2876  1.8297
   96MOL0     H12906   9.456   0.787  10.450 -2.7716  0.1194 -3.9664
   96MOL0     H12907   9.373   0.497  10.366  0.9524  0.2516  1.5842
   96MOL0     H12908   9.436   0.622  10.263 -0.4069  1.9863  0.0652
   96MOL0     H12909   9.171   0.631  10.419 -1.8384  0.9297 -0.9025
   96MOL0     H12910   9.239   0.769  10.330 -0.5044 -0.3209  3.9669
   96MOL0     H12911   9.287   0.618  10.029 -2.2513  3.0924 -1.5702
   96MOL0     H12912   9.190   0.377   9.875 -0.5621 -1.6259 -2.7268
   96MOL0     H12913   9.016   0.369   9.898 -0.6811  0.9845 -4.1427
   96MOL0     H12914   9.145   0.627   9.826 -0.4512 -0.0278 -0.8575
   96MOL0     H12915   9.157   0.516   9.698  2.5676  1.5259  1.5720
   96MOL0     H12916   8.917   0.482   9.684 -0.7378 -1.1377  2.0733
   96MOL0     H12917   8.972   0.645   9.656  1.6327 -0.1826  0.4920
   96MOL0     H12918   8.921   0.706   9.884 -1.2900  1.5467 -0.2604
   96MOL0     H12919   8.841   0.552   9.927  1.8898  0.6782  1.3318
   96MOL0     H12920   8.491   0.739   9.748  0.8285 -1.4308  0.2432
   96MOL0     H12921   8.329   0.831   9.907  0.0413 -0.4715  0.5383
   96MOL0     H12922   8.164   0.758  10.329 -0.9225 -1.5767 -4.3292
   96MOL0     H12923   7.969   0.815  10.462  2.9983 -0.2433  0.4145
   96MOL0     H12924   7.647   1.116  10.261 -1.2461  0.0987 -2.3936
   96MOL0     H12925   7.617   0.954  10.204  0.6907  1.6306 -1.2361
   96MOL0     H12926   7.497   0.889  10.421 -1.6982 -0.7593 -2.0673
   96MOL0     H12927   7.506   1.056  10.465 -0.1348 -1.0213  0.3113
   96MOL0     H12928   7.402   1.117  10.249  2.3371  0.7117  2.0256
   96MOL0     H12929   7.369   0.941  10.224  1.3183 -1.2150  0.4470
   96MOL0     H12930   7.242   1.152  10.411 -2.3434 -0.0454  1.2261
   96MOL0     H12931   7.275   1.000  10.486 -2.9335  0.7067  0.3514
   96MOL0     H12932   7.133   1.045  10.209 -1.5662 -0.2877  0.3292
   96MOL0     H12933   7.051   1.032  10.365  0.1938 -0.5570 -0.2110
   96MOL0     H12934   7.233   0.797  10.306  1.0347  0.7316 -1.4547
   96MOL0     H12935   7.087   0.820  10.392 -4.1010  2.3556 -1.3037
   96MOL0     H12936   6.951   0.838  10.185  0.8337 -0.1237 -0.6628
   96MOL0     H12937   7.039   0.682  10.193 -2.0581  0.0516  1.7353
   96MOL0     H12938   7.043   0.769   9.955 -0.1563  2.6028 -2.8103
   96MOL0     H12939   7.105   0.927  10.008 -3.6489 -0.6575 -1.4347
   96MOL0     H12940   7.827   1.044  10.144 -0.9334 -1.6918  1.4152
   96MOL0     H12941   8.036   0.990  10.008  2.8577 -2.6741 -0.9733
   96MOL0     H12942   8.610   0.776  10.228 -1.1207 -2.0968  0.2694
   96MOL0     H12943   8.779   0.718  10.057  0.3200 -0.1428 -4.5025
   96MOL0     H12944  10.210   0.536  10.862  0.3944  2.5511  1.8883
   96MOL0     H12945  10.448   0.479  10.863 -0.9840 -1.2708 -0.8664
   96MOL0     H12946  10.864   0.629  10.845  1.0064  0.3062 -3.0520
   96MOL0     H12947  11.092   0.616  10.874  2.8897 -2.0149  1.5462
   96MOL0     H12948  11.209   0.418  11.053 -1.1828  3.0528 -0.1228
   96MOL0     H12949  11.325   0.520  10.960 -0.7335 -0.2290 -1.0732
   96MOL0     H12950  11.436   0.286  10.917 -1.2248  1.3097 -2.0618
   96MOL0     H12951  11.327   0.234  11.045  2.0516 -2.8046 -2.9732
   96MOL0     H12952  11.470   0.472  11.163  2.2245  0.5088 -0.3269
   96MOL0     H12953  11.564   0.407  11.039 -1.0316  0.0720 -0.0553
   96MOL0     H12954  11.456   0.278  11.293  1.1320  3.5442  1.2207
   96MOL0     H12955  11.552   0.188  11.172 -1.3759 -2.5182  2.4679
   96MOL0     H12956  11.832   0.426  11.384 -1.3866  2.0882  0.2792
   96MOL0     H12957  11.082   0.228  10.705 -4.7064 -3.6313  2.1414
   96MOL0     H12958  10.790   0.163  10.667  4.1449 -1.4023  0.6652
   96MOL0     H12959  10.762   0.271  10.526  0.4378 -1.3659 -1.8896
   96MOL0     H12960  10.916   0.176  10.546  1.7667 -0.5823  2.8710
   97MOL0     O12961  11.378   8.505   5.350 -0.2789 -0.2490 -0.2084
   97MOL0     C12962  11.339   8.612   5.308  0.3120  0.3148 -0.2225
   97MOL0     O12963  11.309   8.721   5.386  0.1072  0.1950 -0.4520
   97MOL0     C12964  11.280   8.699   5.520 -0.2596 -0.8582  1.0084
   97MOL0     C12965  11.334   8.792   5.610 -0.1993  0.7052 -0.6731
   97MOL0     C12966  11.305   8.779   5.740  0.8228  0.4739 -0.2303
   97MOL0     C12967  11.226   8.671   5.799  0.0301 -0.6928 -0.0564
   97MOL0     O12968  11.209   8.672   5.936  0.2602  0.0484  0.0975
   97MOL0     C12969  11.121   8.570   5.998 -0.1092 -0.6999  0.4829
   97MOL0     C12970  11.214   8.450   6.026  0.4463  0.2145  0.1651
   97MOL0     C12971  11.126   8.326   6.048  0.2132  0.0183  0.0166
   97MOL0     C12972  11.165   8.252   6.179 -0.0777 -0.8914  0.5527
   97MOL0     C12973  11.073   8.130   6.210 -0.6041 -0.4718  0.5370
   97MOL0     C12974  11.103   8.031   6.320 -0.7625  0.6419 -0.3813
   97MOL0     C12975  11.169   8.106   6.444 -0.5927  0.4800  0.1769
   97MOL0     C12976  11.060   8.181   6.524 -0.1784  0.2382 -0.1177
   97MOL0     N12977  11.131   8.247   6.631  0.2548  0.5261 -0.9800
   97MOL0     C12978  11.194   8.370   6.637 -0.8770 -1.1776 -0.8489
   97MOL0     C12979  11.223   8.393   6.760 -1.1278 -0.4563 -0.0876
   97MOL0     C12980  11.297   8.512   6.817 -0.4075 -1.4244  1.1067
   97MOL0     C12981  11.445   8.476   6.856 -0.2107  0.3860 -0.1569
   97MOL0     C12982  11.537   8.469   6.731  0.2325  0.3106  0.3616
   97MOL0     C12983  11.678   8.439   6.771  0.1081  0.1022  0.3124
   97MOL0     O12984  11.684   8.300   6.770 -0.6129 -0.1892 -0.0374
   97MOL0     C12985  11.793   8.250   6.829  0.1570  0.8499 -0.4111
   97MOL0     C12986  11.907   8.313   6.859 -0.5461 -0.8875  0.1801
   97MOL0     C12987  12.021   8.248   6.907  0.4149 -0.0525 -0.4709
   97MOL0     C12988  12.024   8.110   6.915  0.0158 -0.7439  0.6626
   97MOL0     C12989  12.125   8.015   6.970 -1.2582 -0.1281 -0.3567
   97MOL0     O12990  12.103   7.881   6.963  0.8692  0.2157  0.4907
   97MOL0     C12991  12.179   7.788   7.028  0.0713  0.5564 -0.2189
   97MOL0     C12992  12.196   7.785   7.163 -0.3550  0.7721 -0.0338
   97MOL0     C12993  12.272   7.680   7.227  0.0471 -0.0239  0.6021
   97MOL0     C12994  12.338   7.598   7.137 -0.2307 -0.5879  0.3592
   97MOL0     O12995  12.417   7.507   7.201 -0.2595  0.0129  0.0473
   97MOL0     C12996  12.495   7.415   7.127  0.1578  0.9614 -0.1523
   97MOL0     C12997  12.595   7.349   7.225  0.3590  1.2021 -0.2509
   97MOL0     C12998  12.547   7.269   7.355  0.1303 -0.6967 -0.8337
   97MOL0     C12999  12.473   7.144   7.333 -0.6250 -0.0598  0.4524
   97MOL0     C13000  12.450   7.055   7.461 -0.5718  0.0795  0.5957
   97MOL0     C13001  12.360   6.942   7.426  0.5230  0.5853  0.7670
   97MOL0     C13002  12.345   6.844   7.543 -1.4921  0.4011  0.7972
   97MOL0     C13003  12.231   6.733   7.515  0.9687 -0.4989  0.1172
   97MOL0    Cl13004  12.260   6.617   7.374 -0.2004 -0.3593 -0.4138
   97MOL0     C13005  12.309   7.585   7.005  0.7397  0.8293 -0.5355
   97MOL0     C13006  12.235   7.690   6.948  0.1926 -0.2941  0.3871
   97MOL0     O13007  12.221   8.075   7.017  0.0585  0.5914  0.1144
   97MOL0     C13008  11.910   8.044   6.870  0.5223 -0.4882 -0.0127
   97MOL0     C13009  11.794   8.109   6.830  0.3963 -0.5256  0.0822
   97MOL0     N13010  11.184   8.285   6.843 -0.5623 -0.5643 -0.5236
   97MOL0     N13011  11.136   8.198   6.760  0.2539 -0.6878  0.5389
   97MOL0     C13012  11.181   8.573   5.705  0.0384 -0.1420  0.4129
   97MOL0     C13013  11.203   8.593   5.570  0.0393 -0.2292  0.7049
   97MOL0     C13014  11.322   8.632   5.165  0.5477  0.4518  0.5448
   97MOL0     C13015  11.367   8.755   5.114 -0.6052 -0.1751  0.6547
   97MOL0     C13016  11.348   8.789   4.984 -0.3627  0.4766 -0.0746
   97MOL0     C13017  11.288   8.700   4.896 -0.8206  0.6928 -0.3203
   97MOL0     O13018  11.263   8.724   4.759  0.7042  0.0947  0.2187
   97MOL0     C13019  11.299   8.838   4.684  0.6909  0.8117 -0.0390
   97MOL0     C13020  11.445   8.839   4.666 -0.5439  0.1641  0.1900
   97MOL0     C13021  11.493   8.729   4.566 -0.6427 -1.1231  0.0310
   97MOL0     C13022  11.474   8.578   4.613 -0.1877 -0.1376 -0.5964
   97MOL0     C13023  11.533   8.470   4.533  0.0092  1.2905 -0.3442
   97MOL0     C13024  11.547   8.361   4.472  0.4864 -0.8306  0.8157
   97MOL0     C13025  11.247   8.577   4.941  0.5733 -0.8162 -0.5954
   97MOL0     C13026  11.261   8.543   5.079  0.6946 -1.2923  0.5745
   97MOL0     C13027  11.198   8.415   5.121 -0.5368  0.6498  0.2407
   97MOL0     H13028  11.403   8.874   5.593  1.4801  0.2282  2.8689
   97MOL0     H13029  11.355   8.859   5.795  2.3120  2.9183 -4.6701
   97MOL0     H13030  11.086   8.612   6.093  4.6169  0.1840  2.1138
   97MOL0     H13031  11.038   8.533   5.938 -0.7444  0.5281  0.5851
   97MOL0     H13032  11.274   8.464   6.116 -0.1469 -3.2329  1.2648
   97MOL0     H13033  11.273   8.418   5.939 -2.2273 -2.8260 -0.7406
   97MOL0     H13034  11.139   8.265   5.958 -2.5343  0.1348 -0.5481
   97MOL0     H13035  11.023   8.362   6.058  0.7670  1.1143  2.6862
   97MOL0     H13036  11.268   8.217   6.169 -0.0269 -0.9635  1.2903
   97MOL0     H13037  11.149   8.319   6.264  0.4514  0.7678 -0.5976
   97MOL0     H13038  10.978   8.180   6.233 -1.9603 -1.4218 -2.4049
   97MOL0     H13039  11.046   8.079   6.116 -0.9973  0.2310  0.2600
   97MOL0     H13040  11.011   7.982   6.354 -1.4508  2.3994  0.4746
   97MOL0     H13041  11.171   7.957   6.279  0.2859  2.4042 -2.0033
   97MOL0     H13042  11.250   8.172   6.412 -1.7888  2.9936  2.0090
   97MOL0     H13043  11.215   8.035   6.514  0.3464  0.5019 -0.3843
   97MOL0     H13044  10.996   8.246   6.464 -1.9039 -0.3045  1.0515
   97MOL0     H13045  10.986   8.113   6.567 -2.9504  0.3684 -4.1198
   97MOL0     H13046  11.224   8.438   6.557  1.5947 -2.1895 -0.8763
   97MOL0     H13047  11.290   8.588   6.739  4.1396 -4.3760 -2.6971
   97MOL0     H13048  11.244   8.540   6.909 -5.4085 -1.1198 -1.5232
   97MOL0     H13049  11.482   8.564   6.910  1.5631  0.4524 -1.3723
   97MOL0     H13050  11.455   8.386   6.917 -1.0712 -0.8278 -1.7283
   97MOL0     H13051  11.535   8.566   6.680  2.9402  0.4811  0.4406
   97MOL0     H13052  11.496   8.391   6.666 -1.0364 -0.9181  2.5114
   97MOL0     H13053  11.715   8.481   6.865  1.7647 -0.8861  0.1525
   97MOL0     H13054  11.741   8.469   6.687 -0.5783  1.1469  0.1589
   97MOL0     H13055  11.921   8.417   6.834  1.5441 -1.6570 -2.3014
   97MOL0     H13056  12.102   8.303   6.954  0.2096 -0.6518  0.6412
   97MOL0     H13057  12.150   7.869   7.215  1.0423  0.8267  1.1440
   97MOL0     H13058  12.294   7.668   7.332  1.3075  1.2558  0.5187
   97MOL0     H13059  12.429   7.347   7.073 -0.5976  1.2758  0.3645
   97MOL0     H13060  12.542   7.472   7.047  1.1130 -1.4630 -1.4395
   97MOL0     H13061  12.642   7.280   7.155  0.6682  1.8030 -0.6534
   97MOL0     H13062  12.660   7.431   7.256  0.7220  0.4156  1.1171
   97MOL0     H13063  12.633   7.240   7.416  1.9157  1.2547 -2.3099
   97MOL0     H13064  12.483   7.341   7.407  0.3473 -2.6931  2.5512
   97MOL0     H13065  12.527   7.089   7.255 -0.6542  1.2928 -0.5657
   97MOL0     H13066  12.383   7.183   7.285  0.4341  1.2139 -0.5698
   97MOL0     H13067  12.394   7.094   7.547 -2.7517 -2.0100  0.2096
   97MOL0     H13068  12.543   7.020   7.506 -0.5206  0.4781  0.8061
   97MOL0     H13069  12.263   6.977   7.389  0.3786  0.8985  1.4253
   97MOL0     H13070  12.412   6.892   7.344 -1.2060  0.9304 -0.5969
   97MOL0     H13071  12.321   6.907   7.630  1.2149  1.5136  0.8254
   97MOL0     H13072  12.439   6.791   7.557 -2.1068 -1.0107 -0.1497
   97MOL0     H13073  12.223   6.658   7.594 -2.8586 -1.8439 -1.2713
   97MOL0     H13074  12.131   6.779   7.516  0.7642 -0.7433 -2.2346
   97MOL0     H13075  12.346   7.503   6.944  0.6165  1.8549 -2.0515
   97MOL0     H13076  12.221   7.689   6.841 -1.9114 -1.7599  0.6239
   97MOL0     H13077  11.892   7.937   6.867  0.6180 -0.5110  0.1912
   97MOL0     H13078  11.711   8.050   6.794 -1.5271 -0.0879  3.4188
   97MOL0     H13079  11.122   8.487   5.735 -4.3755  2.2026 -0.6340
   97MOL0     H13080  11.160   8.518   5.504 -2.2474  0.8688  0.8565
   97MOL0     H13081  11.422   8.829   5.171  0.7080  2.9315 -3.9954
   97MOL0     H13082  11.379   8.879   4.933 -0.4174  0.2553 -0.5045
   97MOL0     H13083  11.265   8.927   4.738  0.8919  0.8473  0.0312
   97MOL0     H13084  11.256   8.841   4.584  2.6098  2.0830 -0.8966
   97MOL0     H13085  11.504   8.834   4.758  3.7043  1.2887 -2.2180
   97MOL0     H13086  11.472   8.937   4.627  2.7560  0.0333  1.8154
   97MOL0     H13087  11.601   8.747   4.559 -0.7052 -0.1518  1.2180
   97MOL0     H13088  11.447   8.735   4.467 -3.8230 -0.1376  1.4694
   97MOL0     H13089  11.505   8.578   4.718  0.3443 -1.5699 -0.7323
   97MOL0     H13090  11.369   8.547   4.620  0.4712 -2.1647  1.9587
   97MOL0     H13091  11.558   8.265   4.426  6.0464  0.1668 -0.6430
   97MOL0     H13092  11.191   8.521   4.866 -0.0354  0.1548 -0.8838
   97MOL0     H13093  11.093   8.411   5.091 -0.3021 -1.2962 -0.4299
   97MOL0     H13094  11.244   8.336   5.062 -1.8715  0.5017 -0.6533
   97MOL0     H13095  11.218   8.386   5.224  0.0190  1.4431  0.3680
   98MOL0     O13096   4.125   1.587   3.403 -0.1026  0.7174  0.1627
   98MOL0     C13097   4.161   1.576   3.519  1.5723  0.1364 -0.4184
   98MOL0     O13098   4.076   1.526   3.618  0.2160 -0.2378 -0.9425
   98MOL0     C13099   3.973   1.441   3.582  0.1288  0.2648 -0.2337
   98MOL0     C13100   3.842   1.475   3.610 -0.5953 -0.1423 -0.7114
   98MOL0     C13101   3.731   1.395   3.563 -0.0848 -0.6304  0.1019
   98MOL0     C13102   3.751   1.290   3.476  0.3356  1.3533  0.1399
   98MOL0     O13103   3.638   1.234   3.416  0.8283 -0.1239  0.7177
   98MOL0     C13104   3.648   1.119   3.347 -0.0762  0.2995 -0.4573
   98MOL0     C13105   3.508   1.040   3.357 -0.2271 -0.6096 -0.7345
   98MOL0     C13106   3.516   0.912   3.278 -0.7969  0.5982  0.3261
   98MOL0     C13107   3.378   0.860   3.247 -0.3487 -0.2356  0.6147
   98MOL0     C13108   3.374   0.729   3.161  0.2313  0.0953  0.9556
   98MOL0     C13109   3.369   0.592   3.237  0.7851 -0.6963  0.6306
   98MOL0     C13110   3.373   0.468   3.143  0.1019  0.2592 -0.8064
   98MOL0     C13111   3.233   0.442   3.067 -1.1642 -0.5248 -0.5378
   98MOL0     N13112   3.118   0.412   3.155 -0.2677 -0.5841  0.5061
   98MOL0     C13113   3.121   0.328   3.260  0.2736  1.0597 -0.9088
   98MOL0     C13114   2.997   0.321   3.297 -0.4587 -0.3426 -0.4824
   98MOL0     C13115   2.942   0.247   3.421  0.4067 -0.6966  0.1535
   98MOL0     C13116   2.984   0.324   3.548 -0.1863  0.1620  0.0956
   98MOL0     C13117   2.913   0.273   3.670 -0.8986 -0.3496  0.1200
   98MOL0     C13118   2.950   0.340   3.799  0.0931  0.2692 -0.0788
   98MOL0     O13119   2.905   0.270   3.923  1.0141  0.0076 -1.1970
   98MOL0     C13120   2.937   0.311   4.047 -0.8279 -0.2544 -0.2076
   98MOL0     C13121   2.940   0.217   4.149  1.1582 -0.2202  0.1301
   98MOL0     C13122   2.983   0.253   4.272  0.3315  0.8726  0.7388
   98MOL0     C13123   3.008   0.390   4.303 -0.1391  0.4675 -0.7453
   98MOL0     C13124   3.019   0.431   4.445 -0.6560  1.1354 -0.3143
   98MOL0     O13125   2.958   0.349   4.537  1.1460 -0.1224  0.0573
   98MOL0     C13126   2.938   0.372   4.669  0.1303  0.0674  0.3752
   98MOL0     C13127   2.938   0.494   4.732  0.5271 -0.4795  0.3106
   98MOL0     C13128   2.938   0.492   4.872 -1.6362 -0.7222 -1.4536
   98MOL0     C13129   2.920   0.377   4.955 -0.3505  0.7661 -0.8282
   98MOL0     O13130   2.933   0.389   5.089 -0.3243  0.6230 -1.3340
   98MOL0     C13131   2.882   0.283   5.166 -0.1831  0.8613 -0.0407
   98MOL0     C13132   2.871   0.353   5.303  0.4757  0.5098 -0.6837
   98MOL0     C13133   2.785   0.483   5.288 -0.1452 -0.3831 -0.2212
   98MOL0     C13134   2.780   0.537   5.430  0.0107 -0.7694  0.0844
   98MOL0     C13135   2.692   0.660   5.460 -0.5041 -0.4306  0.4124
   98MOL0     C13136   2.695   0.695   5.615 -0.4046 -0.0480  0.0537
   98MOL0     C13137   2.613   0.823   5.632  0.2948  0.1612  0.3342
   98MOL0     C13138   2.605   0.875   5.774 -0.0162  0.1288  0.1048
   98MOL0    Cl13139   2.508   1.034   5.787  0.4510 -0.1693  0.1885
   98MOL0     C13140   2.916   0.256   4.883 -0.8011 -0.2969 -0.5074
   98MOL0     C13141   2.923   0.254   4.742 -0.4461 -0.7548 -0.8200
   98MOL0     O13142   3.085   0.530   4.468 -0.3075  0.0872  0.1730
   98MOL0     C13143   2.996   0.487   4.202  0.2728 -0.7185 -0.2979
   98MOL0     C13144   2.950   0.448   4.076 -0.6369  0.1228 -1.4045
   98MOL0     N13145   2.923   0.421   3.234 -0.7345 -0.7436 -0.4744
   98MOL0     N13146   3.000   0.473   3.142  1.2229 -0.5181 -0.3857
   98MOL0     C13147   3.882   1.257   3.438  0.4062  0.3780  1.0557
   98MOL0     C13148   3.985   1.339   3.489 -0.7928  0.2114  0.1930
   98MOL0     C13149   4.281   1.651   3.566 -0.2345  0.2326 -0.6903
   98MOL0     C13150   4.402   1.635   3.490 -0.3377 -0.1461  0.1915
   98MOL0     C13151   4.515   1.719   3.505 -0.3834 -0.3245 -0.9151
   98MOL0     C13152   4.521   1.820   3.610 -0.4909  0.9571 -0.6132
   98MOL0     O13153   4.631   1.901   3.627  0.5452  0.6075 -0.1419
   98MOL0     C13154   4.748   1.889   3.555  0.4309  0.5000  0.2704
   98MOL0     C13155   4.876   1.956   3.615 -0.6476 -0.9217  0.1268
   98MOL0     C13156   4.895   1.913   3.758 -0.5212  0.6093  0.6033
   98MOL0     C13157   5.021   1.973   3.815 -0.7736  0.0720 -0.5166
   98MOL0     C13158   5.039   1.920   3.949 -0.9237  0.3362  0.6787
   98MOL0     C13159   5.040   1.874   4.066  0.5845 -0.1044 -0.2098
   98MOL0     C13160   4.411   1.813   3.691  0.2708 -1.4525 -0.5285
   98MOL0     C13161   4.295   1.742   3.674 -0.8194 -0.1931 -0.0192
   98MOL0     C13162   4.186   1.782   3.769 -0.0375  0.1789  0.3448
   98MOL0     H13163   3.822   1.568   3.663  1.0100  0.2719 -0.8053
   98MOL0     H13164   3.630   1.421   3.590  0.2559  1.9216 -0.7773
   98MOL0     H13165   3.676   1.126   3.242  0.1669 -1.3524 -0.5267
   98MOL0     H13166   3.708   1.049   3.406 -3.1108 -1.6115  0.6260
   98MOL0     H13167   3.431   1.111   3.327 -0.5734 -0.6175  0.1043
   98MOL0     H13168   3.478   1.009   3.458 -1.5205  1.3014 -0.4841
   98MOL0     H13169   3.567   0.843   3.346 -0.2163  2.7039  2.1427
   98MOL0     H13170   3.578   0.938   3.192  2.8280 -0.6634  2.3542
   98MOL0     H13171   3.328   0.849   3.344 -0.9412 -0.7466  0.2597
   98MOL0     H13172   3.331   0.927   3.174 -4.9336 -4.4478 -0.8789
   98MOL0     H13173   3.295   0.739   3.086  1.7963  2.4211 -0.5010
   98MOL0     H13174   3.468   0.722   3.105 -1.0215  1.0461 -1.3833
   98MOL0     H13175   3.450   0.586   3.310  0.6074 -1.9034  0.7491
   98MOL0     H13176   3.274   0.595   3.292 -0.1205 -0.8725 -0.8703
   98MOL0     H13177   3.394   0.380   3.205 -1.7311  1.4716  1.6827
   98MOL0     H13178   3.461   0.476   3.079  1.3342 -0.3838  0.7519
   98MOL0     H13179   3.222   0.532   3.005 -2.4072 -2.1129 -2.7645
   98MOL0     H13180   3.242   0.354   3.002 -1.7828 -1.3821  0.5229
   98MOL0     H13181   3.210   0.288   3.307 -1.4280  0.9683  2.5273
   98MOL0     H13182   2.834   0.256   3.406  0.4141  0.7887  0.8094
   98MOL0     H13183   2.964   0.140   3.428 -1.5113 -1.2806 -1.5611
   98MOL0     H13184   3.093   0.315   3.557 -0.0267 -2.2660 -2.7215
   98MOL0     H13185   2.957   0.429   3.535 -2.3338 -0.1804  1.2819
   98MOL0     H13186   2.923   0.164   3.680 -2.0645 -0.3605  1.4112
   98MOL0     H13187   2.806   0.287   3.650 -1.1333 -1.5413  0.4746
   98MOL0     H13188   2.927   0.446   3.807 -2.3498 -0.2061  0.1918
   98MOL0     H13189   3.058   0.324   3.808  0.1407  0.5094 -0.2079
   98MOL0     H13190   2.915   0.114   4.125  1.2990 -0.8128  2.3211
   98MOL0     H13191   2.988   0.182   4.355 -1.5463  1.0393  1.0176
   98MOL0     H13192   2.963   0.581   4.672  1.4258 -1.4649 -0.8123
   98MOL0     H13193   2.944   0.587   4.924 -1.0120  0.1081 -2.9815
   98MOL0     H13194   2.788   0.239   5.131 -0.0120  1.3973 -1.1970
   98MOL0     H13195   2.960   0.208   5.179  1.4345  2.4095 -0.3650
   98MOL0     H13196   2.809   0.287   5.364 -0.1788 -0.0909 -1.9439
   98MOL0     H13197   2.970   0.372   5.345  0.1559  3.2229 -0.9773
   98MOL0     H13198   2.834   0.559   5.227 -1.4337  1.2213  0.6787
   98MOL0     H13199   2.681   0.479   5.252 -0.7481  0.5315  1.3447
   98MOL0     H13200   2.879   0.559   5.471 -1.3591  2.1830  2.2080
   98MOL0     H13201   2.745   0.455   5.494  0.1864 -0.7898  0.1572
   98MOL0     H13202   2.588   0.640   5.431 -0.6598 -0.7069  1.1207
   98MOL0     H13203   2.740   0.736   5.399 -2.5887  0.4632 -0.2008
   98MOL0     H13204   2.659   0.613   5.677  0.9282  1.8149  3.5783
   98MOL0     H13205   2.801   0.712   5.636  0.5020 -1.0030 -3.2216
   98MOL0     H13206   2.514   0.790   5.603 -0.7355  1.4769  2.1059
   98MOL0     H13207   2.640   0.911   5.572 -1.1603  0.3322 -0.1021
   98MOL0     H13208   2.564   0.796   5.838 -2.0141  0.9664 -0.0877
   98MOL0     H13209   2.708   0.900   5.802  0.6612  0.5139 -2.4556
   98MOL0     H13210   2.904   0.165   4.942 -1.2637  1.4946  2.3485
   98MOL0     H13211   2.895   0.160   4.696 -4.1383  0.0195 -0.4766
   98MOL0     H13212   3.005   0.595   4.212 -0.4542 -0.7557  0.9134
   98MOL0     H13213   2.921   0.522   4.001 -1.0045  0.0628 -1.3249
   98MOL0     H13214   3.904   1.179   3.366 -2.2845  0.3039  0.2063
   98MOL0     H13215   4.086   1.317   3.457 -0.1887  1.5631  1.0674
   98MOL0     H13216   4.408   1.571   3.403  2.9854  0.4845 -0.1616
   98MOL0     H13217   4.596   1.703   3.434 -0.3210 -1.5117 -0.5863
   98MOL0     H13218   4.734   1.926   3.453 -1.7081  2.1883  1.0937
   98MOL0     H13219   4.784   1.786   3.550 -0.0172  0.3954 -1.7635
   98MOL0     H13220   4.865   2.064   3.604 -0.6369 -1.0241 -0.9561
   98MOL0     H13221   4.958   1.923   3.551  0.2105  0.3997  0.5290
   98MOL0     H13222   4.905   1.804   3.758  0.5575  0.6683  2.2753
   98MOL0     H13223   4.808   1.947   3.815 -1.5065 -1.7358  0.6014
   98MOL0     H13224   5.114   1.940   3.767 -0.4202 -1.7135  1.2386
   98MOL0     H13225   5.018   2.082   3.815  0.6429  0.2593 -4.1058
   98MOL0     H13226   5.039   1.847   4.170 -1.8231  0.4915 -0.0181
   98MOL0     H13227   4.411   1.894   3.764 -3.4281 -2.2369  0.5659
   98MOL0     H13228   4.126   1.696   3.800 -0.1143 -0.2316 -0.9002
   98MOL0     H13229   4.220   1.845   3.852  0.5891 -0.5074  0.6147
   98MOL0     H13230   4.127   1.854   3.711  2.9825  2.0784 -0.6137
   99MOL0     O13231   8.464   4.080   0.696 -0.5744  0.3721  0.2495
   99MOL0     C13232   8.543   4.018   0.765  0.0264  0.2374  0.1783
   99MOL0     O13233   8.636   3.932   0.714  0.7388 -0.1834 -0.4092
   99MOL0     C13234   8.651   3.892   0.586 -0.2322  0.1244 -0.5044
   99MOL0     C13235   8.768   3.815   0.564  0.4000  0.4555 -0.4785
   99MOL0     C13236   8.796   3.770   0.437 -0.0776  0.4835 -0.5277
   99MOL0     C13237   8.711   3.796   0.326  0.7983 -0.5091 -0.2463
   99MOL0     O13238   8.734   3.737   0.201  0.1279 -0.1342 -0.2621
   99MOL0     C13239   8.869   3.761   0.149 -0.7700  0.8987 -0.0791
   99MOL0     C13240   8.872   3.799   0.002 -0.1507 -0.8098 -0.3424
   99MOL0     C13241   8.822   3.696  -0.097 -0.6670  0.6375 -0.2328
   99MOL0     C13242   8.932   3.592  -0.117 -0.6757  0.0649  0.4082
   99MOL0     C13243   8.874   3.470  -0.191  0.4683  0.4494 -0.9249
   99MOL0     C13244   8.989   3.364  -0.215 -0.0918  0.7522  0.8230
   99MOL0     C13245   8.944   3.218  -0.208  0.4472  1.1547  1.0355
   99MOL0     C13246   8.923   3.163  -0.065 -0.0829  0.1891  0.5180
   99MOL0     N13247   8.841   3.035  -0.056 -1.0967 -0.5502  0.0698
   99MOL0     C13248   8.902   2.908  -0.031  0.4055 -0.4523  0.1143
   99MOL0     C13249   8.795   2.822  -0.005  0.3645 -0.6270  0.6098
   99MOL0     C13250   8.789   2.682   0.051  0.0802  0.2537  0.0710
   99MOL0     C13251   8.918   2.619   0.080  0.7526  0.4278  0.3465
   99MOL0     C13252   8.980   2.693   0.210  0.3910  0.5094  0.1474
   99MOL0     C13253   9.101   2.611   0.260 -0.0024 -0.8193 -1.0107
   99MOL0     O13254   9.197   2.587   0.153  0.0011  0.7088 -0.9014
   99MOL0     C13255   9.332   2.602   0.170  0.6456 -0.9676 -0.7794
   99MOL0     C13256   9.405   2.575   0.288  0.5787  0.7420  0.1487
   99MOL0     C13257   9.546   2.577   0.272 -0.3877  1.1274  0.4701
   99MOL0     C13258   9.613   2.616   0.147 -0.2559  0.3479 -0.4862
   99MOL0     C13259   9.759   2.597   0.126 -1.5293  0.0400  0.0157
   99MOL0     O13260   9.819   2.656   0.015 -0.3860  0.1932  0.1272
   99MOL0     C13261   9.958   2.668   0.019  0.4163  0.0837  0.2821
   99MOL0     C13262   9.998   2.793   0.057 -0.1534  0.9049 -0.7402
   99MOL0     C13263  10.141   2.823   0.059  0.9164 -0.0050  1.4556
   99MOL0     C13264  10.235   2.734   0.016 -0.5620 -0.4289  1.2099
   99MOL0     O13265  10.371   2.771   0.025 -0.1479 -0.5951  0.1248
   99MOL0     C13266  10.462   2.717  -0.069 -0.2285  0.0214 -0.3719
   99MOL0     C13267  10.474   2.816  -0.177  0.3999 -0.6462  0.9415
   99MOL0     C13268  10.576   2.787  -0.286  0.1331  0.6565 -0.5086
   99MOL0     C13269  10.632   2.918  -0.346 -0.6252 -0.0189 -0.2541
   99MOL0     C13270  10.712   2.885  -0.472 -0.3072  0.7845  0.3179
   99MOL0     C13271  10.620   2.872  -0.600 -0.0582  0.2992  0.0190
   99MOL0     C13272  10.588   3.008  -0.650  1.6376  0.2861  0.5300
   99MOL0     C13273  10.490   2.999  -0.770  0.0591 -0.2846 -0.6809
   99MOL0    Cl13274  10.332   2.938  -0.710 -0.2211  0.7295  0.1320
   99MOL0     C13275  10.196   2.609  -0.019  0.2073 -0.0373  0.6208
   99MOL0     C13276  10.056   2.574  -0.024  0.6565 -0.6828 -0.3921
   99MOL0     O13277   9.818   2.553   0.220  1.1361  0.0804 -0.9929
   99MOL0     C13278   9.531   2.648   0.040 -0.5865 -0.2041 -0.0000
   99MOL0     C13279   9.395   2.640   0.054 -0.0274  0.5485 -0.0504
   99MOL0     N13280   8.683   2.892  -0.037 -0.2223  1.1195 -1.1684
   99MOL0     N13281   8.703   3.015  -0.060 -0.5646 -0.0597 -0.6483
   99MOL0     C13282   8.585   3.853   0.345 -0.2404  0.1122  0.4104
   99MOL0     C13283   8.562   3.906   0.473  1.2964 -0.0406 -0.6760
   99MOL0     C13284   8.540   4.047   0.913  0.1252  0.9355  0.5910
   99MOL0     C13285   8.660   4.028   0.985  0.9013  1.2653 -0.8914
   99MOL0     C13286   8.686   4.084   1.112  0.9052 -0.2576  0.5730
   99MOL0     C13287   8.585   4.161   1.167  0.5116 -0.3203 -1.2519
   99MOL0     O13288   8.621   4.194   1.297 -0.5085  0.3209  0.5389
   99MOL0     C13289   8.552   4.299   1.356  0.2174 -0.5049 -0.3927
   99MOL0     C13290   8.636   4.351   1.481 -0.1460  0.0403  0.9165
   99MOL0     C13291   8.543   4.440   1.566  0.4205 -0.2247  0.2717
   99MOL0     C13292   8.582   4.427   1.717 -0.2499 -0.0306 -0.1599
   99MOL0     C13293   8.724   4.411   1.745  0.0450 -0.8088  0.5309
   99MOL0     C13294   8.832   4.391   1.779  0.5353 -1.3656 -0.2088
   99MOL0     C13295   8.458   4.165   1.104 -0.1429 -0.8790  0.9846
   99MOL0     C13296   8.433   4.110   0.975  0.5407 -0.0959 -0.4416
   99MOL0     C13297   8.286   4.124   0.939 -0.5477  0.4641  0.2879
   99MOL0     H13298   8.830   3.806   0.653  1.3731  1.1348 -1.0667
   99MOL0     H13299   8.889   3.715   0.431  1.4136  2.5828  1.6256
   99MOL0     H13300   8.922   3.835   0.210 -1.5715  0.7857  0.7793
   99MOL0     H13301   8.929   3.670   0.155  3.9404  3.6258 -0.5986
   99MOL0     H13302   8.971   3.831  -0.031  0.5594 -0.8375  1.6166
   99MOL0     H13303   8.801   3.881  -0.013  1.1940  0.3408 -0.6466
   99MOL0     H13304   8.789   3.730  -0.195  0.4251  2.0585 -0.1504
   99MOL0     H13305   8.737   3.646  -0.051  0.2164 -0.0750  0.6877
   99MOL0     H13306   9.022   3.635  -0.162  0.4901 -1.3879  1.2670
   99MOL0     H13307   8.960   3.546  -0.022  1.1307 -1.7939 -0.9290
   99MOL0     H13308   8.793   3.429  -0.130  0.6173  2.8799  1.0571
   99MOL0     H13309   8.838   3.488  -0.292  2.1061 -2.5668 -2.1947
   99MOL0     H13310   9.028   3.382  -0.315 -0.8094 -0.3893  0.3173
   99MOL0     H13311   9.076   3.368  -0.149  2.5075 -0.5809 -2.2422
   99MOL0     H13312   9.017   3.159  -0.265  1.8293  0.8253  3.0241
   99MOL0     H13313   8.849   3.214  -0.261  0.6855  3.9195  0.2116
   99MOL0     H13314   9.025   3.159  -0.025  1.0289  4.0916 -1.4418
   99MOL0     H13315   8.868   3.235  -0.005 -0.9830 -0.0875  0.0420
   99MOL0     H13316   9.005   2.896   0.000 -0.1517 -4.0325  0.9747
   99MOL0     H13317   8.721   2.682   0.137  0.5116  2.0955  0.4525
   99MOL0     H13318   8.736   2.609  -0.011 -2.1189 -0.8620  2.9872
   99MOL0     H13319   8.911   2.512   0.105 -2.0069  0.7295  1.2348
   99MOL0     H13320   8.989   2.628  -0.003  2.2535  1.6448  1.6828
   99MOL0     H13321   8.900   2.699   0.284 -0.7663 -1.6619 -0.8074
   99MOL0     H13322   9.022   2.791   0.186  1.6756 -0.8201 -3.8245
   99MOL0     H13323   9.063   2.521   0.310  3.3693 -2.3424 -0.9337
   99MOL0     H13324   9.147   2.671   0.339 -1.2891 -0.5002 -0.4683
   99MOL0     H13325   9.381   2.543   0.389  1.7449 -1.6161 -0.2621
   99MOL0     H13326   9.611   2.546   0.354 -0.0273 -1.7307 -0.7984
   99MOL0     H13327   9.925   2.860   0.102 -1.2049  0.5008 -1.8113
   99MOL0     H13328  10.172   2.918   0.102  1.0420 -0.8014  3.2001
   99MOL0     H13329  10.560   2.702  -0.022  0.7885 -1.4271 -2.7665
   99MOL0     H13330  10.452   2.614  -0.102 -1.3083  0.5935 -1.9354
   99MOL0     H13331  10.378   2.819  -0.229  0.5894 -2.5182  0.4257
   99MOL0     H13332  10.499   2.911  -0.129 -1.1367 -0.2533  1.0084
   99MOL0     H13333  10.664   2.734  -0.247  0.4343  1.0300 -0.6673
   99MOL0     H13334  10.539   2.730  -0.372 -1.2683 -0.4752  0.7949
   99MOL0     H13335  10.698   2.964  -0.272 -0.9683  0.6394 -0.3482
   99MOL0     H13336  10.545   2.982  -0.367 -0.8327 -0.3695 -0.4722
   99MOL0     H13337  10.775   2.797  -0.455  1.1784  1.6586 -0.3908
   99MOL0     H13338  10.778   2.972  -0.486  0.2354  0.2220 -0.7690
   99MOL0     H13339  10.665   2.811  -0.679 -1.0940 -4.0205  2.4255
   99MOL0     H13340  10.529   2.822  -0.566  0.4055 -1.6269 -1.4104
   99MOL0     H13341  10.675   3.061  -0.691 -0.2677  3.7991  0.6479
   99MOL0     H13342  10.545   3.064  -0.567  3.2671  0.7451  1.1158
   99MOL0     H13343  10.461   3.104  -0.780 -4.5848 -1.4893 -3.0840
   99MOL0     H13344  10.526   2.936  -0.852  2.0573 -1.4527  1.0248
   99MOL0     H13345  10.274   2.539  -0.048  1.3638 -0.3569  4.0714
   99MOL0     H13346  10.027   2.482  -0.074  0.6128 -0.4259 -0.8479
   99MOL0     H13347   9.584   2.673  -0.052 -2.3324 -1.4628 -1.4338
   99MOL0     H13348   9.326   2.675  -0.022 -2.5885  1.2804  2.4608
   99MOL0     H13349   8.514   3.870   0.264  0.1399 -1.6240 -0.3208
   99MOL0     H13350   8.473   3.968   0.474 -0.5201 -2.4369 -2.2206
   99MOL0     H13351   8.744   3.969   0.950  1.3024 -0.6797  2.7769
   99MOL0     H13352   8.781   4.089   1.163 -0.1915 -0.0280  2.6954
   99MOL0     H13353   8.456   4.260   1.393  0.5439 -1.0374 -0.0863
   99MOL0     H13354   8.521   4.375   1.284 -0.8724 -1.0553 -0.5276
   99MOL0     H13355   8.735   4.392   1.457 -0.8788  1.3039 -0.1260
   99MOL0     H13356   8.666   4.256   1.526 -1.4188 -2.9464 -3.7535
   99MOL0     H13357   8.441   4.404   1.555  0.2875  0.1266  0.3437
   99MOL0     H13358   8.548   4.544   1.534 -0.4508 -0.0212  0.7902
   99MOL0     H13359   8.552   4.507   1.785  2.2314  0.3513  0.5954
   99MOL0     H13360   8.524   4.341   1.751 -1.3636  0.3270 -1.1122
   99MOL0     H13361   8.930   4.395   1.822  0.4856 -0.8342 -0.1366
   99MOL0     H13362   8.377   4.211   1.158 -1.1091 -0.9413 -0.3478
   99MOL0     H13363   8.217   4.098   1.020 -0.9871  0.5079 -0.0667
   99MOL0     H13364   8.268   4.223   0.897 -0.0459  1.9055  3.2083
   99MOL0     H13365   8.262   4.052   0.860  1.1065  0.7730 -0.5403
  100MOL0     O13366   5.429   8.598   6.630  0.2124  0.2913  0.2383
  100MOL0     C13367   5.378   8.694   6.572  0.3774 -0.2846  0.4471
  100MOL0     O13368   5.409   8.832   6.586 -0.7324 -0.3905 -0.3061
  100MOL0     C13369   5.505   8.858   6.683  0.0139  0.9834 -0.0948
  100MOL0     C13370   5.642   8.835   6.675 -0.8121  0.0382 -0.0127
  100MOL0     C13371   5.738   8.875   6.763 -0.8458 -0.2375  0.0233
  100MOL0     C13372   5.684   8.949   6.875 -0.6885 -0.4218 -0.6134
  100MOL0     O13373   5.776   8.986   6.971  0.3157 -0.2947 -0.1949
  100MOL0     C13374   5.749   9.110   7.051  1.3506  0.8247  0.2598
  100MOL0     C13375   5.870   9.186   7.088 -0.9100 -0.0527 -0.8623
  100MOL0     C13376   5.925   9.272   6.973 -0.2062  0.3860 -0.4378
  100MOL0     C13377   5.981   9.184   6.855  0.2040 -0.2301 -0.4884
  100MOL0     C13378   6.087   9.275   6.792  0.2974 -0.3120 -1.0198
  100MOL0     C13379   6.127   9.232   6.644  0.4544  0.1924 -0.4815
  100MOL0     C13380   6.245   9.315   6.584 -0.1928  0.2198 -0.9033
  100MOL0     C13381   6.223   9.461   6.592  0.7391  0.2781  0.1933
  100MOL0     N13382   6.109   9.508   6.504  0.5790  1.0694  0.2163
  100MOL0     C13383   5.984   9.540   6.544  0.5580  0.0992 -0.3361
  100MOL0     C13384   5.908   9.548   6.433 -0.1103  0.0613 -0.1534
  100MOL0     C13385   5.764   9.598   6.443 -0.2157  0.2678  0.7207
  100MOL0     C13386   5.710   9.614   6.592 -0.2614  0.2782  0.4862
  100MOL0     C13387   5.565   9.657   6.600  0.6803 -0.3810  0.1146
  100MOL0     C13388   5.538   9.810   6.590  0.6595  0.0391 -1.0398
  100MOL0     O13389   5.410   9.832   6.634  0.2207  0.0486 -0.1655
  100MOL0     C13390   5.372   9.952   6.682  0.6076 -0.0240 -0.0464
  100MOL0     C13391   5.238   9.972   6.716  0.7264  0.1758 -0.2218
  100MOL0     C13392   5.190  10.098   6.758 -0.2046  0.1638  0.0581
  100MOL0     C13393   5.276  10.209   6.782 -0.2433  0.4928  0.3720
  100MOL0     C13394   5.231  10.340   6.840 -1.5946 -0.2321 -0.1290
  100MOL0     O13395   5.327  10.411   6.912  0.8041  0.5622 -0.2847
  100MOL0     C13396   5.291  10.520   6.990  0.3398  0.0548  0.4040
  100MOL0     C13397   5.356  10.647   6.979  0.5667 -0.1189 -0.3452
  100MOL0     C13398   5.310  10.754   7.060 -0.7139  0.0096  0.5441
  100MOL0     C13399   5.199  10.742   7.141  0.8105 -0.7590  0.6160
  100MOL0     O13400   5.169  10.848   7.215 -0.4617 -0.1078  0.3395
  100MOL0     C13401   5.025  10.876   7.230  0.4546 -0.2543  0.0365
  100MOL0     C13402   4.991  10.918   7.368 -0.0408 -0.4450  0.5788
  100MOL0     C13403   5.019  11.067   7.411 -0.0617  0.0873 -0.2330
  100MOL0     C13404   4.985  11.085   7.565 -0.7379 -0.5130 -0.0025
  100MOL0     C13405   4.974  11.233   7.605  0.6643 -0.1655  0.3249
  100MOL0     C13406   4.831  11.228   7.683  0.8194 -0.1842 -0.0116
  100MOL0     C13407   4.798  11.371   7.719 -0.9014  0.3429 -0.5265
  100MOL0     C13408   4.718  11.459   7.623  0.0986  0.3729  0.1044
  100MOL0    Cl13409   4.840  11.528   7.505 -0.2700  0.1211  0.4204
  100MOL0     C13410   5.138  10.613   7.154  0.8986  0.3407 -0.7997
  100MOL0     C13411   5.185  10.505   7.075  0.8844 -0.8086  0.3570
  100MOL0     O13412   5.115  10.370   6.824  0.4956  0.1030 -0.2084
  100MOL0     C13413   5.411  10.185   6.738  0.6413 -0.7627 -0.2107
  100MOL0     C13414   5.458  10.059   6.696  0.8247  0.2686 -0.1102
  100MOL0     N13415   5.985   9.515   6.321  0.1441  0.4554 -0.1818
  100MOL0     N13416   6.100   9.483   6.370  0.4992  0.4758  0.2820
  100MOL0     C13417   5.552   8.970   6.891  0.3494  0.6995  0.3141
  100MOL0     C13418   5.467   8.936   6.795  0.9127  0.4380 -0.3170
  100MOL0     C13419   5.282   8.670   6.463 -0.8345  0.4078  0.0519
  100MOL0     C13420   5.200   8.774   6.415 -0.8636  0.8048  0.2388
  100MOL0     C13421   5.094   8.765   6.317  0.2041  0.6126  0.1953
  100MOL0     C13422   5.088   8.639   6.253 -0.4308  0.1176  0.0035
  100MOL0     O13423   4.991   8.611   6.161  0.6184 -1.1202  0.1153
  100MOL0     C13424   4.873   8.686   6.179  1.1218  0.2858 -0.8998
  100MOL0     C13425   4.764   8.616   6.110  0.4911 -0.2087 -0.4701
  100MOL0     C13426   4.640   8.691   6.087 -0.3463  0.6105 -0.7744
  100MOL0     C13427   4.543   8.638   5.996 -1.6409  0.3207 -0.9253
  100MOL0     C13428   4.578   8.642   5.848  0.1689 -0.3536  0.1831
  100MOL0     C13429   4.607   8.652   5.734 -0.7682 -0.4880 -0.1370
  100MOL0     C13430   5.173   8.542   6.292  0.2676  0.6217 -0.6105
  100MOL0     C13431   5.261   8.548   6.397  0.1186 -0.4488 -0.4333
  100MOL0     C13432   5.330   8.419   6.430 -0.3863  0.8320  0.2481
  100MOL0     H13433   5.660   8.767   6.591 -0.7939 -2.5364  1.9509
  100MOL0     H13434   5.842   8.847   6.751 -0.7699 -0.6636  1.4014
  100MOL0     H13435   5.686   9.185   7.004  0.0543  0.7808  1.8364
  100MOL0     H13436   5.700   9.071   7.141  3.8983 -1.7344  0.7047
  100MOL0     H13437   5.940   9.105   7.110 -0.9194 -0.9043 -3.5556
  100MOL0     H13438   5.838   9.246   7.173  0.4959  1.3035 -1.2372
  100MOL0     H13439   6.004   9.336   7.014  0.9841 -1.1770 -0.2151
  100MOL0     H13440   5.841   9.330   6.932 -1.0106 -0.4387  0.0043
  100MOL0     H13441   6.020   9.089   6.894 -3.0323 -1.9439 -1.0749
  100MOL0     H13442   5.907   9.168   6.776  0.7739 -1.5713 -0.7753
  100MOL0     H13443   6.051   9.378   6.793  3.2411  0.8190 -1.1777
  100MOL0     H13444   6.170   9.277   6.863 -2.1076 -3.3178  2.2266
  100MOL0     H13445   6.158   9.127   6.645  1.2473  0.4273  0.3885
  100MOL0     H13446   6.043   9.259   6.580 -0.4574 -0.7046  0.3097
  100MOL0     H13447   6.255   9.286   6.479 -0.8032 -0.1677 -0.8633
  100MOL0     H13448   6.338   9.294   6.638 -0.4872  0.6808 -0.2035
  100MOL0     H13449   6.205   9.497   6.694  1.9354 -2.1618  1.3228
  100MOL0     H13450   6.314   9.516   6.568  0.5374 -0.0211 -1.3704
  100MOL0     H13451   5.943   9.571   6.640 -2.3521  3.0141 -2.3200
  100MOL0     H13452   5.751   9.698   6.400 -0.5209 -0.1484 -0.1724
  100MOL0     H13453   5.698   9.528   6.391  1.6409 -0.0714 -1.3128
  100MOL0     H13454   5.714   9.519   6.647 -6.4085  0.2611  1.5984
  100MOL0     H13455   5.768   9.683   6.655 -0.9569  0.9068  0.4474
  100MOL0     H13456   5.515   9.635   6.695 -3.0487 -0.3384 -1.6601
  100MOL0     H13457   5.514   9.603   6.520 -1.8531  2.6004 -0.4855
  100MOL0     H13458   5.536   9.834   6.483  0.9268  0.0137 -1.0513
  100MOL0     H13459   5.615   9.866   6.644 -2.0774  2.9004  0.1686
  100MOL0     H13460   5.156   9.902   6.700 -1.4581  2.3690  0.8452
  100MOL0     H13461   5.085  10.106   6.781 -0.3235 -1.3979  0.1742
  100MOL0     H13462   5.428  10.662   6.899  1.0023 -2.1458 -0.3935
  100MOL0     H13463   5.364  10.848   7.047  1.5071 -1.4115 -1.2628
  100MOL0     H13464   5.012  10.953   7.153 -0.0748  0.2342  0.6017
  100MOL0     H13465   4.960  10.791   7.209  2.8744 -2.6944  1.7183
  100MOL0     H13466   4.885  10.903   7.387  0.0361  0.0312  1.4161
  100MOL0     H13467   5.044  10.845   7.429 -0.4894 -1.5575 -0.3129
  100MOL0     H13468   5.123  11.092   7.389 -0.6592  0.1615 -3.4928
  100MOL0     H13469   4.968  11.141   7.349 -0.2703 -0.6989 -1.0247
  100MOL0     H13470   5.068  11.052   7.628 -2.1127  0.1719  2.3199
  100MOL0     H13471   4.906  11.019   7.602  0.5722 -2.6007 -0.7654
  100MOL0     H13472   4.972  11.292   7.513  0.9786 -0.5432  0.0711
  100MOL0     H13473   5.055  11.264   7.672  0.7200  0.5667 -0.0701
  100MOL0     H13474   4.757  11.176   7.622  0.0074 -2.3956  2.6724
  100MOL0     H13475   4.858  11.174   7.774  3.9531 -0.1366 -0.7790
  100MOL0     H13476   4.898  11.415   7.730 -0.1476 -1.1050 -1.2166
  100MOL0     H13477   4.750  11.376   7.817 -0.3843  2.5734 -0.3416
  100MOL0     H13478   4.628  11.410   7.583  1.2769 -1.1217 -0.8583
  100MOL0     H13479   4.688  11.538   7.692  0.0882  1.2885 -0.9169
  100MOL0     H13480   5.072  10.591   7.238 -1.7068  1.8188 -2.3338
  100MOL0     H13481   5.137  10.410   7.097 -3.4480  0.9907 -0.1036
  100MOL0     H13482   5.491  10.256   6.756 -0.8558  0.6572  1.1132
  100MOL0     H13483   5.564  10.042   6.682  0.9390 -0.0750  1.0655
  100MOL0     H13484   5.501   9.010   6.978 -0.9058 -0.9288  0.3803
  100MOL0     H13485   5.372   8.989   6.798  1.0885  0.7165  1.7823
  100MOL0     H13486   5.218   8.872   6.459  0.7739 -0.8717  3.7696
  100MOL0     H13487   5.033   8.852   6.294 -0.1407  0.3998  0.3034
  100MOL0     H13488   4.887   8.780   6.125  1.5824 -0.8468 -2.8524
  100MOL0     H13489   4.848   8.701   6.284 -3.0227  0.7407 -1.8067
  100MOL0     H13490   4.740   8.529   6.171  0.6651  0.1459  0.1124
  100MOL0     H13491   4.807   8.566   6.022  0.6521 -1.1523  0.1303
  100MOL0     H13492   4.671   8.784   6.038 -0.2311 -0.2951 -2.4509
  100MOL0     H13493   4.590   8.720   6.180  1.2102  3.7922 -0.7880
  100MOL0     H13494   4.518   8.535   6.023  4.2014 -0.5963  2.7565
  100MOL0     H13495   4.457   8.704   6.012 -1.4496 -0.1508  2.8587
  100MOL0     H13496   4.632   8.666   5.631  0.0181 -0.2796  0.0741
  100MOL0     H13497   5.150   8.456   6.230 -1.7327  1.0613 -0.5497
  100MOL0     H13498   5.424   8.414   6.375 -0.4856  1.6934 -0.0071
  100MOL0     H13499   5.342   8.412   6.539  5.1530  1.3999 -0.0403
  100MOL0     H13500   5.270   8.333   6.399 -0.7166  1.3853 -0.6908
  101MOL0     O13501   0.606   6.003   5.982 -0.1981 -0.0989  0.3941
  101MOL0     C13502   0.681   6.043   6.067  0.5705 -0.1910  0.4016
  101MOL0     O13503   0.785   5.984   6.118 -0.0167 -0.6999 -0.1243
  101MOL0     C13504   0.846   5.874   6.071  0.0543 -0.4131  0.7886
  101MOL0     C13505   0.839   5.818   5.942 -0.4866 -0.2733 -0.6822
  101MOL0     C13506   0.921   5.717   5.899  0.6357  0.4503  0.4719
  101MOL0     C13507   1.012   5.654   5.987  1.1486  0.0257 -0.7303
  101MOL0     O13508   1.094   5.559   5.947  0.4678  0.4372 -0.2006
  101MOL0     C13509   1.176   5.600   5.842  0.3054  0.2488  0.4917
  101MOL0     C13510   1.269   5.719   5.881  0.1708  0.5231  0.3656
  101MOL0     C13511   1.315   5.777   5.749 -0.3019  0.2842  0.5893
  101MOL0     C13512   1.402   5.914   5.764  0.7577  1.1839 -0.7191
  101MOL0     C13513   1.458   5.974   5.644  0.4483 -0.1828 -0.2245
  101MOL0     C13514   1.550   5.878   5.560  0.4039  0.4908  0.9077
  101MOL0     C13515   1.522   5.884   5.409 -0.0626  1.2575  0.1213
  101MOL0     C13516   1.635   5.813   5.334 -0.0180 -0.0999  1.2177
  101MOL0     N13517   1.590   5.796   5.191 -0.1345  0.4160  0.2234
  101MOL0     C13518   1.574   5.668   5.132  0.9184 -1.4011 -0.6768
  101MOL0     C13519   1.521   5.704   5.009  0.8871 -0.0899  0.3984
  101MOL0     C13520   1.514   5.603   4.898  0.3734  0.3910  0.1932
  101MOL0     C13521   1.649   5.606   4.813  0.0310 -0.2945 -0.0169
  101MOL0     C13522   1.638   5.532   4.682 -0.0819 -0.1314 -0.1389
  101MOL0     C13523   1.765   5.570   4.593  0.4433  0.3904 -0.4787
  101MOL0     O13524   1.875   5.592   4.687 -0.4274 -0.1025 -0.6501
  101MOL0     C13525   1.982   5.506   4.674 -0.2487  0.8658 -0.0339
  101MOL0     C13526   2.079   5.510   4.567 -0.3393 -0.5713  0.1484
  101MOL0     C13527   2.196   5.434   4.562 -0.3074  0.7775 -0.6715
  101MOL0     C13528   2.233   5.354   4.671  0.7158 -0.3326  0.2685
  101MOL0     C13529   2.337   5.260   4.664  0.1689 -0.7139 -0.3248
  101MOL0     O13530   2.444   5.290   4.582 -0.1755 -0.6661  0.1078
  101MOL0     C13531   2.552   5.202   4.574  0.0816  0.4598  0.0290
  101MOL0     C13532   2.609   5.186   4.449  0.1156  1.1365  0.8936
  101MOL0     C13533   2.714   5.101   4.426 -0.5507 -0.3192 -0.0958
  101MOL0     C13534   2.769   5.030   4.535  0.8920  0.5850  0.3566
  101MOL0     O13535   2.873   4.942   4.538 -0.3857 -0.4097 -0.4464
  101MOL0     C13536   2.962   4.959   4.425 -0.4645  0.0705  0.5478
  101MOL0     C13537   3.110   4.908   4.456 -0.7730 -0.3815 -1.1168
  101MOL0     C13538   3.201   5.030   4.469  0.2073 -0.3722  0.0158
  101MOL0     C13539   3.343   5.003   4.457  0.2809 -0.0861 -0.1700
  101MOL0     C13540   3.428   5.134   4.465  0.8025  0.4285  0.6222
  101MOL0     C13541   3.574   5.103   4.519  0.3581  0.2060  0.3271
  101MOL0     C13542   3.670   5.218   4.497  0.3209  0.4727 -0.2267
  101MOL0     C13543   3.807   5.159   4.504 -0.0566 -0.4586 -0.1867
  101MOL0    Cl13544   3.827   5.125   4.673 -0.3039  0.2482  0.4437
  101MOL0     C13545   2.724   5.049   4.665  0.7686 -0.5010 -0.6007
  101MOL0     C13546   2.614   5.139   4.684 -0.1187  1.1729 -0.7530
  101MOL0     O13547   2.323   5.161   4.727 -0.2796  0.9138  0.0310
  101MOL0     C13548   2.137   5.348   4.776  0.3020 -0.4905  0.4665
  101MOL0     C13549   2.015   5.414   4.779 -0.2918 -0.7565 -0.0650
  101MOL0     N13550   1.506   5.838   4.998  0.4740 -0.0362  0.6073
  101MOL0     N13551   1.542   5.892   5.111  0.1731 -0.4677 -0.9002
  101MOL0     C13552   1.017   5.694   6.122 -0.5918 -0.7011  0.5500
  101MOL0     C13553   0.937   5.809   6.163  0.6093  0.0730 -0.3443
  101MOL0     C13554   0.648   6.176   6.119 -0.0879  0.1952  0.0123
  101MOL0     C13555   0.533   6.179   6.198 -0.4651 -0.0158  0.1890
  101MOL0     C13556   0.495   6.298   6.264  0.9576 -1.3418 -0.9340
  101MOL0     C13557   0.581   6.407   6.258  0.2881 -0.0211  0.6040
  101MOL0     O13558   0.552   6.516   6.337  0.0235  0.3104 -0.2818
  101MOL0     C13559   0.636   6.643   6.339  0.7901 -0.2745 -0.3326
  101MOL0     C13560   0.562   6.769   6.392  0.6599  0.4273 -0.3285
  101MOL0     C13561   0.419   6.775   6.358 -0.9556 -0.7195 -0.2403
  101MOL0     C13562   0.357   6.911   6.408 -0.5008  0.4388 -0.0258
  101MOL0     C13563   0.240   6.879   6.499 -1.3214 -0.5377 -0.0936
  101MOL0     C13564   0.155   6.872   6.586  0.0305  0.3503  0.4502
  101MOL0     C13565   0.694   6.401   6.174  0.0287 -0.1337 -1.4939
  101MOL0     C13566   0.736   6.284   6.112  0.2950  0.1063  0.9689
  101MOL0     C13567   0.878   6.276   6.051 -0.5315 -1.2814  1.1779
  101MOL0     H13568   0.760   5.853   5.876  0.1461  0.2837 -1.1466
  101MOL0     H13569   0.907   5.677   5.799  0.9382  2.0757 -0.2492
  101MOL0     H13570   1.243   5.518   5.813  0.2924  0.3603  0.1488
  101MOL0     H13571   1.108   5.597   5.757 -3.7719 -2.8031  3.4688
  101MOL0     H13572   1.353   5.670   5.931 -3.2857 -3.5245  2.9723
  101MOL0     H13573   1.221   5.797   5.941  0.0846 -0.7911  2.1028
  101MOL0     H13574   1.232   5.789   5.679 -0.4139 -0.4620  0.5791
  101MOL0     H13575   1.373   5.698   5.699  0.0860 -0.9973  2.8998
  101MOL0     H13576   1.339   5.997   5.799 -0.3564  0.1973 -0.3171
  101MOL0     H13577   1.489   5.894   5.827  0.3878  2.3197  0.1922
  101MOL0     H13578   1.381   6.011   5.576  0.9754 -1.0351 -1.3147
  101MOL0     H13579   1.520   6.055   5.683 -1.6165  0.7904  1.1939
  101MOL0     H13580   1.653   5.913   5.576 -0.4607  4.1982 -0.5895
  101MOL0     H13581   1.537   5.774   5.588 -3.7304  0.4555 -0.4946
  101MOL0     H13582   1.536   5.989   5.383  2.5899  0.9092 -0.1088
  101MOL0     H13583   1.423   5.846   5.382  1.1971  1.0010 -5.3244
  101MOL0     H13584   1.720   5.882   5.328 -0.0348 -0.2076 -0.9963
  101MOL0     H13585   1.661   5.715   5.374 -2.2909 -1.2025  0.1465
  101MOL0     H13586   1.613   5.575   5.170  2.6186  0.2881  1.9795
  101MOL0     H13587   1.499   5.506   4.945  2.3758  0.3456  0.8081
  101MOL0     H13588   1.426   5.628   4.838 -0.4322 -2.3979  0.0682
  101MOL0     H13589   1.662   5.714   4.799 -2.0964  0.7395  4.0929
  101MOL0     H13590   1.730   5.565   4.873  1.0734  1.0824 -0.4442
  101MOL0     H13591   1.547   5.573   4.639 -1.2206 -2.5341 -0.1752
  101MOL0     H13592   1.627   5.425   4.702 -2.4440 -0.2681 -1.8051
  101MOL0     H13593   1.740   5.652   4.525 -2.1248  1.1756  1.2555
  101MOL0     H13594   1.789   5.482   4.533 -0.8085 -2.2219  2.5386
  101MOL0     H13595   2.064   5.576   4.482  0.7947  0.7486  0.9464
  101MOL0     H13596   2.243   5.429   4.464 -2.1907  3.8682 -1.8731
  101MOL0     H13597   2.584   5.247   4.363 -0.0800 -1.9689 -1.4461
  101MOL0     H13598   2.753   5.091   4.325  1.6400 -0.0214  0.6595
  101MOL0     H13599   2.921   4.909   4.337  1.0361 -2.7613  1.3259
  101MOL0     H13600   2.965   5.068   4.416  3.9560  0.2021  1.2071
  101MOL0     H13601   3.123   4.858   4.552  3.4887  0.8172 -0.8624
  101MOL0     H13602   3.139   4.835   4.379  1.6184 -0.6908 -0.0148
  101MOL0     H13603   3.174   5.100   4.389 -0.4488 -1.8926 -1.1278
  101MOL0     H13604   3.175   5.080   4.563  1.8649  0.8964 -0.1512
  101MOL0     H13605   3.377   4.960   4.362  3.3982  0.3206  0.6674
  101MOL0     H13606   3.380   4.934   4.533  1.7378  0.1569 -0.6324
  101MOL0     H13607   3.374   5.203   4.531 -1.7401 -2.6113  2.0082
  101MOL0     H13608   3.441   5.171   4.362 -2.7594 -1.7207 -0.7768
  101MOL0     H13609   3.581   5.069   4.623  1.9248 -2.1345 -0.4593
  101MOL0     H13610   3.616   5.025   4.455  3.2485  1.4226  0.5454
  101MOL0     H13611   3.658   5.295   4.574 -2.2905 -1.4603  1.4386
  101MOL0     H13612   3.640   5.262   4.401  0.7654  2.3306  0.4426
  101MOL0     H13613   3.832   5.081   4.432  0.7191 -0.9133  0.5521
  101MOL0     H13614   3.869   5.244   4.473  0.8990 -0.7088  0.9439
  101MOL0     H13615   2.759   4.990   4.749  1.3148 -1.6667 -1.6109
  101MOL0     H13616   2.575   5.155   4.784  3.9582  1.6125  0.9605
  101MOL0     H13617   2.153   5.279   4.859 -1.2140 -0.4416  0.8382
  101MOL0     H13618   1.953   5.391   4.866 -1.9199 -0.2439 -1.0605
  101MOL0     H13619   1.087   5.650   6.193 -0.5572 -1.0707  0.2896
  101MOL0     H13620   0.938   5.844   6.266  2.2233  0.1474 -0.3618
  101MOL0     H13621   0.470   6.091   6.196  1.8613 -1.8046  0.9023
  101MOL0     H13622   0.409   6.292   6.329 -0.7352 -3.4157 -3.2105
  101MOL0     H13623   0.684   6.658   6.242  0.2286 -0.5473 -0.6597
  101MOL0     H13624   0.716   6.636   6.414  1.1703  2.3619 -0.3889
  101MOL0     H13625   0.606   6.859   6.347  3.4884 -0.8961 -0.3891
  101MOL0     H13626   0.565   6.778   6.501  1.4070  2.5721 -0.4826
  101MOL0     H13627   0.351   6.700   6.398 -2.2817  0.3758 -0.3438
  101MOL0     H13628   0.420   6.764   6.249 -0.4403  0.8335 -0.4193
  101MOL0     H13629   0.430   6.972   6.461  0.9756 -1.2118 -0.0418
  101MOL0     H13630   0.326   6.971   6.322  1.7863  1.7824  0.0161
  101MOL0     H13631   0.085   6.880   6.666  0.5385  0.1091  0.9299
  101MOL0     H13632   0.775   6.472   6.179  0.5493 -0.7425 -1.0683
  101MOL0     H13633   0.892   6.208   5.967  0.1177 -0.0127  0.2168
  101MOL0     H13634   0.924   6.373   6.030  0.8666 -2.2630 -0.5096
  101MOL0     H13635   0.939   6.231   6.130 -1.2963 -0.8675  2.0220
  102MOL0     O13636   9.592   6.445   4.253  0.7882  0.2146  0.1457
  102MOL0     C13637   9.659   6.535   4.307  0.4060  0.0325 -0.0751
  102MOL0     O13638   9.744   6.511   4.414 -0.2810  0.5745  0.9438
  102MOL0     C13639   9.734   6.391   4.472 -1.2747  0.6323  0.3020
  102MOL0     C13640   9.858   6.327   4.502  0.4845 -0.0754 -0.7204
  102MOL0     C13641   9.866   6.209   4.562 -0.3957  0.3428  0.0461
  102MOL0     C13642   9.747   6.133   4.595 -0.1963 -0.1322  0.3920
  102MOL0     O13643   9.742   6.009   4.650  0.3241 -0.1295 -0.8012
  102MOL0     C13644   9.864   5.959   4.701  0.3743 -0.2443  0.8980
  102MOL0     C13645   9.840   5.825   4.770  0.3403 -0.6055  0.0423
  102MOL0     C13646   9.756   5.855   4.903 -0.3645  1.3237 -0.5056
  102MOL0     C13647   9.736   5.722   4.984 -0.4117 -0.2640 -0.0158
  102MOL0     C13648   9.669   5.772   5.101 -0.0684 -0.1352  0.1540
  102MOL0     C13649   9.635   5.650   5.188  0.2416  0.5431 -0.5724
  102MOL0     C13650   9.557   5.695   5.317  0.8409  0.0427  0.1606
  102MOL0     C13651   9.542   5.585   5.418  0.6720 -0.0004 -0.3290
  102MOL0     N13652   9.461   5.626   5.531 -0.8413  0.0012 -0.0834
  102MOL0     C13653   9.325   5.623   5.544  0.4080  0.3538 -0.1270
  102MOL0     C13654   9.292   5.700   5.655 -0.2267 -0.4810  0.5542
  102MOL0     C13655   9.163   5.754   5.705  1.1945 -0.4989 -0.9264
  102MOL0     C13656   9.183   5.858   5.816  0.2845 -0.6855  0.2218
  102MOL0     C13657   9.054   5.943   5.838 -0.0615 -0.6130  0.5647
  102MOL0     C13658   8.934   5.851   5.884 -0.4363 -0.3357  0.5798
  102MOL0     O13659   8.843   5.948   5.952  0.4364  1.2153  0.6947
  102MOL0     C13660   8.726   5.894   5.991  0.2385 -0.1404 -1.6408
  102MOL0     C13661   8.706   5.765   6.031  1.0057 -0.0543  0.5770
  102MOL0     C13662   8.582   5.725   6.084  0.1523  0.1434  0.0909
  102MOL0     C13663   8.475   5.822   6.080  0.7531 -0.2231 -0.8431
  102MOL0     C13664   8.344   5.790   6.123 -0.0499 -0.0981  0.2681
  102MOL0     O13665   8.238   5.848   6.051 -0.2067  0.2029 -0.4137
  102MOL0     C13666   8.108   5.811   6.085 -0.2782 -0.4433  0.0911
  102MOL0     C13667   8.051   5.705   6.014  0.2134  0.2033  0.7911
  102MOL0     C13668   7.931   5.648   6.055 -0.7030  0.9079 -0.0468
  102MOL0     C13669   7.855   5.706   6.159 -0.6769  0.0601  0.1031
  102MOL0     O13670   7.730   5.670   6.184  0.0794  0.9435 -0.8449
  102MOL0     C13671   7.639   5.635   6.079  0.9636  0.7783  0.5838
  102MOL0     C13672   7.492   5.636   6.127 -0.0233  0.0527  0.0220
  102MOL0     C13673   7.464   5.516   6.226 -0.9677  0.3663 -0.0898
  102MOL0     C13674   7.313   5.511   6.246  0.6111 -0.2826 -0.2722
  102MOL0     C13675   7.263   5.371   6.277 -0.7370 -0.5501 -0.0194
  102MOL0     C13676   7.117   5.361   6.274  0.0444 -0.1579 -0.7054
  102MOL0     C13677   7.079   5.210   6.317 -0.2757 -0.3601  0.2615
  102MOL0     C13678   6.924   5.198   6.316 -0.4084 -0.1885  0.4731
  102MOL0    Cl13679   6.843   5.229   6.154  0.0005  0.0919  0.4869
  102MOL0     C13680   7.916   5.805   6.237  0.1131 -0.7006 -1.0855
  102MOL0     C13681   8.032   5.866   6.195 -0.4882 -0.4872 -0.4154
  102MOL0     O13682   8.336   5.694   6.201  0.1701 -0.1190  0.0908
  102MOL0     C13683   8.495   5.960   6.040 -0.1761  0.1913 -0.3804
  102MOL0     C13684   8.626   5.987   5.999  0.4334  0.3215  0.3117
  102MOL0     N13685   9.414   5.742   5.715  0.4709  0.8812 -1.2050
  102MOL0     N13686   9.510   5.694   5.647 -0.6354  1.0501 -0.3292
  102MOL0     C13687   9.627   6.191   4.574  1.2827  0.6232  1.2957
  102MOL0     C13688   9.620   6.322   4.513  0.1272  0.5127  0.9078
  102MOL0     C13689   9.629   6.675   4.275 -0.7273 -0.0991  0.1222
  102MOL0     C13690   9.679   6.773   4.367  0.1772  0.6237 -1.2410
  102MOL0     C13691   9.672   6.907   4.344 -0.4660 -0.2814  1.2806
  102MOL0     C13692   9.629   6.950   4.222  0.5748 -0.0757  0.3649
  102MOL0     O13693   9.638   7.082   4.192  0.2606 -0.4961  0.3052
  102MOL0     C13694   9.776   7.124   4.162  0.5321  0.4656  0.1887
  102MOL0     C13695   9.796   7.085   4.009 -0.4408 -1.0576 -0.2637
  102MOL0     C13696   9.942   7.121   3.961  0.3920  0.5791 -0.4834
  102MOL0     C13697   9.946   7.168   3.822 -0.2979 -0.9134  0.8074
  102MOL0     C13698   9.879   7.300   3.822  0.3988  0.5611 -0.2318
  102MOL0     C13699   9.806   7.399   3.832  0.9144  0.5450 -0.1435
  102MOL0     C13700   9.576   6.859   4.129 -0.5754 -0.1350  0.4028
  102MOL0     C13701   9.570   6.718   4.157 -0.0949  0.2792 -0.4670
  102MOL0     C13702   9.502   6.636   4.048  0.4536 -0.4143 -0.2625
  102MOL0     H13703   9.948   6.381   4.477  3.0357 -1.7489  3.7652
  102MOL0     H13704   9.962   6.168   4.591 -1.4929 -0.8107  2.3993
  102MOL0     H13705   9.937   5.953   4.620  4.1141  2.1001  3.7704
  102MOL0     H13706   9.910   6.021   4.778  2.5522  1.9349 -1.9691
  102MOL0     H13707   9.937   5.790   4.807  1.0838  2.1263  0.8765
  102MOL0     H13708   9.797   5.747   4.706 -1.0634  0.7397 -0.7009
  102MOL0     H13709   9.665   5.910   4.879  0.6951  3.5741  0.3361
  102MOL0     H13710   9.822   5.915   4.967 -0.6142 -1.6809  2.9169
  102MOL0     H13711   9.678   5.645   4.931 -1.4848  0.6873 -0.2593
  102MOL0     H13712   9.839   5.692   5.005 -0.5633 -0.1735  0.9096
  102MOL0     H13713   9.724   5.841   5.166  0.1756 -0.0799 -0.1135
  102MOL0     H13714   9.575   5.820   5.072  0.4187 -0.2364 -1.6908
  102MOL0     H13715   9.567   5.583   5.134 -1.5605  2.3997 -0.7295
  102MOL0     H13716   9.728   5.601   5.217  0.9411  1.6885 -0.8204
  102MOL0     H13717   9.455   5.735   5.306  1.3206  2.1742  2.6062
  102MOL0     H13718   9.602   5.785   5.359 -2.8660  1.6201  1.1919
  102MOL0     H13719   9.504   5.489   5.381  1.7906  0.0941 -1.8274
  102MOL0     H13720   9.645   5.568   5.451  0.6097 -0.6925 -0.4638
  102MOL0     H13721   9.267   5.571   5.469  2.4329 -0.9469 -0.8902
  102MOL0     H13722   9.113   5.801   5.619  2.0156  3.7778  0.6971
  102MOL0     H13723   9.088   5.678   5.730 -3.1395  4.2109  2.4381
  102MOL0     H13724   9.211   5.805   5.908 -0.4108 -1.8230 -0.1980
  102MOL0     H13725   9.270   5.919   5.790 -0.0372 -1.2720 -2.6204
  102MOL0     H13726   9.033   5.985   5.740  0.1916  0.5121  0.9722
  102MOL0     H13727   9.078   6.022   5.910  1.1927  0.7162 -1.2200
  102MOL0     H13728   8.975   5.773   5.949  1.4272  1.6351  1.9482
  102MOL0     H13729   8.883   5.810   5.797  1.9426  1.4239 -1.8132
  102MOL0     H13730   8.780   5.686   6.027 -0.3281 -1.4407  1.8735
  102MOL0     H13731   8.566   5.620   6.106 -0.0263  0.2481  0.4599
  102MOL0     H13732   8.112   5.665   5.933 -2.9231  0.1034 -1.7367
  102MOL0     H13733   7.900   5.554   6.010  1.3628  1.7607 -3.6315
  102MOL0     H13734   7.653   5.700   5.993  3.0233  1.0930  1.1058
  102MOL0     H13735   7.660   5.533   6.046 -0.7004  0.5280  0.2045
  102MOL0     H13736   7.472   5.725   6.187 -1.0435 -0.0944 -0.0820
  102MOL0     H13737   7.425   5.644   6.041  0.5263  2.4711 -0.2606
  102MOL0     H13738   7.491   5.427   6.169 -0.7576  0.3449  0.0433
  102MOL0     H13739   7.519   5.518   6.320 -0.8109 -0.7034 -0.1536
  102MOL0     H13740   7.258   5.541   6.156  0.9313 -2.0599 -1.0962
  102MOL0     H13741   7.294   5.577   6.331  2.9109  1.0110 -0.6543
  102MOL0     H13742   7.301   5.346   6.376 -1.2073  1.5422  0.7389
  102MOL0     H13743   7.302   5.300   6.203 -1.3311 -1.7190  0.7652
  102MOL0     H13744   7.068   5.436   6.337 -0.1996  2.8981 -4.2095
  102MOL0     H13745   7.090   5.384   6.171 -2.5157  0.4481  0.0297
  102MOL0     H13746   7.126   5.180   6.411 -0.0245  1.9763  0.9425
  102MOL0     H13747   7.105   5.133   6.244 -1.4656 -0.9537  0.4445
  102MOL0     H13748   6.901   5.094   6.341  2.5415 -0.5164  2.4620
  102MOL0     H13749   6.888   5.282   6.376 -0.5976 -1.0597  1.6211
  102MOL0     H13750   7.851   5.833   6.319 -1.4317 -1.1543 -2.1283
  102MOL0     H13751   8.083   5.947   6.246  2.1459 -0.7178 -2.4704
  102MOL0     H13752   8.421   6.038   6.054 -0.4939 -0.4807  2.4765
  102MOL0     H13753   8.653   6.090   5.979 -0.2973  1.0098  2.5743
  102MOL0     H13754   9.538   6.144   4.616  1.1107 -0.0957  0.1526
  102MOL0     H13755   9.532   6.386   4.514  1.7788  2.9159  1.8330
  102MOL0     H13756   9.700   6.737   4.467  0.4167 -0.7410 -1.7507
  102MOL0     H13757   9.715   6.979   4.414  2.0101 -0.3770 -0.0196
  102MOL0     H13758   9.848   7.080   4.232 -0.6088 -0.2417  0.9431
  102MOL0     H13759   9.784   7.233   4.157  0.6073  0.4160 -1.0959
  102MOL0     H13760   9.722   7.126   3.940 -2.7786 -3.8499  0.3787
  102MOL0     H13761   9.797   6.976   4.000  1.1157 -0.9847 -1.3068
  102MOL0     H13762  10.009   7.036   3.971  1.1351  1.0849 -1.0425
  102MOL0     H13763   9.966   7.212   4.018 -5.9704 -0.0913  4.3497
  102MOL0     H13764  10.047   7.171   3.780 -0.2060 -3.6161  0.6288
  102MOL0     H13765   9.878   7.114   3.755 -1.1443  2.0009 -0.8660
  102MOL0     H13766   9.776   7.501   3.844 -0.5130  0.4125 -2.0752
  102MOL0     H13767   9.536   6.902   4.038  1.2658  0.3282 -0.2268
  102MOL0     H13768   9.404   6.680   4.029 -0.0341 -0.5974  1.6572
  102MOL0     H13769   9.569   6.644   3.962  0.9044  0.1278  0.1319
  102MOL0     H13770   9.489   6.529   4.065  1.2302 -0.1745  2.2917
  103MOL0     O13771   2.287   2.941   1.641  0.2687  0.2789  1.0288
  103MOL0     C13772   2.251   2.953   1.755  0.1814  0.0158 -0.4880
  103MOL0     O13773   2.179   3.058   1.804  0.6342 -0.2063 -0.3507
  103MOL0     C13774   2.124   3.145   1.709  0.2766 -0.7219  0.5851
  103MOL0     C13775   2.207   3.239   1.649  0.6739  0.9980 -0.1121
  103MOL0     C13776   2.149   3.350   1.583 -0.2498  0.2865  0.7986
  103MOL0     C13777   2.014   3.360   1.554  0.2158  1.2099  0.2156
  103MOL0     O13778   1.954   3.468   1.490 -0.3245  0.4194 -0.1648
  103MOL0     C13779   1.877   3.430   1.369 -0.9618 -0.1664 -0.2722
  103MOL0     C13780   1.867   3.554   1.290  0.3496 -0.4198 -1.4433
  103MOL0     C13781   2.017   3.580   1.226 -0.5499 -0.7012 -0.0830
  103MOL0     C13782   2.029   3.511   1.089  0.6455  0.2541 -0.0012
  103MOL0     C13783   2.154   3.546   1.016 -0.8575 -1.3641  0.9676
  103MOL0     C13784   2.126   3.677   0.938 -0.3497  0.7907  0.0533
  103MOL0     C13785   2.223   3.717   0.828  0.3037 -0.4151 -0.0555
  103MOL0     C13786   2.328   3.609   0.783  1.0462 -0.2949 -0.0253
  103MOL0     N13787   2.385   3.644   0.655  0.3065 -0.1338 -0.5305
  103MOL0     C13788   2.334   3.607   0.540 -0.0479  0.5204  0.0743
  103MOL0     C13789   2.391   3.678   0.446 -0.3187 -0.3375  0.0774
  103MOL0     C13790   2.368   3.657   0.299 -0.4499 -0.2965  0.0575
  103MOL0     C13791   2.519   3.643   0.245  0.8109 -0.1499 -0.6615
  103MOL0     C13792   2.537   3.738   0.120 -1.0144  0.2093 -1.1566
  103MOL0     C13793   2.545   3.897   0.149 -0.2129  0.9794 -0.1692
  103MOL0     O13794   2.591   3.952   0.022 -0.7183  0.4212  0.8409
  103MOL0     C13795   2.727   3.963  -0.007  0.4751  0.2227  0.4473
  103MOL0     C13796   2.824   3.982   0.093  0.7871  1.2288 -0.1123
  103MOL0     C13797   2.965   3.986   0.058 -0.2968 -0.5777 -0.8819
  103MOL0     C13798   3.002   3.973  -0.077  0.0757 -0.1109 -0.3208
  103MOL0     C13799   3.145   3.985  -0.109  0.0561  1.3373 -0.9475
  103MOL0     O13800   3.189   3.955  -0.237  0.3477 -0.3932 -0.4136
  103MOL0     C13801   3.318   3.979  -0.261 -0.1643  0.1857 -1.0521
  103MOL0     C13802   3.363   4.103  -0.316  0.1282 -0.7672 -0.0745
  103MOL0     C13803   3.502   4.115  -0.350  0.4765 -0.1488  0.1866
  103MOL0     C13804   3.595   4.004  -0.331 -0.4158 -0.5928  0.2316
  103MOL0     O13805   3.724   4.018  -0.369 -0.4758 -0.9295 -0.2566
  103MOL0     C13806   3.811   3.907  -0.393  0.6880  1.1893 -0.5479
  103MOL0     C13807   3.883   3.878  -0.265 -0.0463 -0.3662 -0.1920
  103MOL0     C13808   3.997   3.978  -0.226  0.3180 -0.3498 -0.1110
  103MOL0     C13809   4.066   3.909  -0.102  0.2852  0.1706 -0.2863
  103MOL0     C13810   4.183   3.985  -0.062 -0.5204  0.4847  0.5096
  103MOL0     C13811   4.311   3.925  -0.149  0.4363 -0.3633 -0.6430
  103MOL0     C13812   4.427   4.027  -0.179  0.7435  0.3756 -0.8647
  103MOL0     C13813   4.536   3.930  -0.234  0.0978 -0.4477 -0.2146
  103MOL0    Cl13814   4.491   3.884  -0.399  0.0390 -0.1006  0.6186
  103MOL0     C13815   3.543   3.890  -0.265  0.0641  1.7213 -0.2753
  103MOL0     C13816   3.406   3.877  -0.233 -0.7159  0.1307  0.1289
  103MOL0     O13817   3.213   4.018  -0.015  0.4411 -0.0478  0.2292
  103MOL0     C13818   2.901   3.958  -0.176 -0.6676  0.7215 -0.8767
  103MOL0     C13819   2.765   3.963  -0.142 -0.5168  0.4584 -0.2170
  103MOL0     N13820   2.482   3.770   0.504  0.1440 -0.5699  0.1818
  103MOL0     N13821   2.478   3.743   0.626 -0.0764 -0.6284 -0.0236
  103MOL0     C13822   1.928   3.257   1.607 -0.6399 -0.3520 -0.0988
  103MOL0     C13823   1.989   3.152   1.684  0.0024  0.0508  0.1875
  103MOL0     C13824   2.317   2.870   1.858 -0.6322  0.5390 -0.0213
  103MOL0     C13825   2.310   2.730   1.838  0.2776 -0.0326 -0.9049
  103MOL0     C13826   2.353   2.651   1.944  0.8203 -1.8954  0.0931
  103MOL0     C13827   2.412   2.698   2.066 -0.4621 -0.0428  1.4197
  103MOL0     O13828   2.444   2.614   2.167  0.3935 -0.0002  0.0595
  103MOL0     C13829   2.443   2.470   2.147 -0.7015  0.7727  0.2567
  103MOL0     C13830   2.523   2.399   2.259  0.5900 -0.2950  0.1944
  103MOL0     C13831   2.482   2.447   2.396  0.7919  0.2790 -0.1824
  103MOL0     C13832   2.581   2.560   2.447  0.2704 -0.1736  0.2908
  103MOL0     C13833   2.711   2.497   2.482  0.0308 -0.3845 -0.1385
  103MOL0     C13834   2.813   2.429   2.502 -0.0238  1.3837  0.1725
  103MOL0     C13835   2.426   2.833   2.077 -0.5132  0.5632  0.3485
  103MOL0     C13836   2.389   2.917   1.975  0.2988 -0.6231  0.2262
  103MOL0     C13837   2.406   3.060   1.998  0.0074 -1.2752 -0.5100
  103MOL0     H13838   2.315   3.247   1.662  1.0955 -1.5553 -1.4211
  103MOL0     H13839   2.196   3.441   1.547 -1.6736  0.9819  0.6334
  103MOL0     H13840   1.940   3.356   1.320  0.8394  0.6720  0.7003
  103MOL0     H13841   1.775   3.394   1.387 -1.3717  1.5061  1.0599
  103MOL0     H13842   1.830   3.630   1.360 -1.4673 -3.1374  0.7720
  103MOL0     H13843   1.791   3.545   1.213 -0.3496  0.5274 -0.8863
  103MOL0     H13844   2.084   3.536   1.300 -0.3163 -0.2987 -0.0546
  103MOL0     H13845   2.045   3.682   1.200  0.8640 -1.4537 -1.7616
  103MOL0     H13846   2.017   3.402   1.096  3.9853 -0.2579 -0.3534
  103MOL0     H13847   1.943   3.543   1.030  0.9211 -0.9767 -1.1294
  103MOL0     H13848   2.243   3.557   1.079  0.5001  0.6874 -1.1250
  103MOL0     H13849   2.164   3.463   0.945 -0.2701 -1.3392  1.0154
  103MOL0     H13850   2.040   3.666   0.871 -0.6738  0.1838  0.5554
  103MOL0     H13851   2.112   3.759   1.009  1.0761 -1.5571  3.3193
  103MOL0     H13852   2.288   3.792   0.875  1.2076 -1.4109  0.3263
  103MOL0     H13853   2.180   3.753   0.735 -1.6228 -3.6695 -0.5638
  103MOL0     H13854   2.408   3.598   0.858 -0.2723  2.4342  1.9546
  103MOL0     H13855   2.271   3.517   0.773 -0.0135  0.1454  1.5136
  103MOL0     H13856   2.253   3.534   0.543 -0.9793  1.5003  3.4330
  103MOL0     H13857   2.324   3.560   0.278  2.2743 -1.2173 -1.9532
  103MOL0     H13858   2.324   3.741   0.244 -0.3481  0.8022  1.5890
  103MOL0     H13859   2.603   3.644   0.315  0.9695 -0.6181 -0.8434
  103MOL0     H13860   2.512   3.538   0.215 -3.4126 -0.0900 -0.6012
  103MOL0     H13861   2.454   3.710   0.054 -0.7305 -1.5700 -0.7864
  103MOL0     H13862   2.638   3.722   0.080  0.3807  1.8708  1.4621
  103MOL0     H13863   2.612   3.902   0.236 -1.3421  1.8555  0.6688
  103MOL0     H13864   2.450   3.935   0.188 -2.1736 -2.4492 -1.1972
  103MOL0     H13865   2.793   3.994   0.196 -1.8333  1.2502 -0.8277
  103MOL0     H13866   3.031   4.003   0.142  0.9147  0.5233 -2.0126
  103MOL0     H13867   3.301   4.192  -0.324  0.5851 -0.4012  0.3435
  103MOL0     H13868   3.531   4.213  -0.386  0.6799  0.6856  2.4370
  103MOL0     H13869   3.748   3.826  -0.430  2.0568 -0.6037  0.8687
  103MOL0     H13870   3.884   3.929  -0.471  2.1292 -0.0077  0.4101
  103MOL0     H13871   3.825   3.881  -0.172 -1.0480 -0.7951 -0.7867
  103MOL0     H13872   3.922   3.776  -0.276 -0.0219 -0.2179 -1.6198
  103MOL0     H13873   4.065   3.985  -0.312 -1.9657  0.5288 -1.9405
  103MOL0     H13874   3.965   4.076  -0.191 -2.4750 -1.9277  2.2451
  103MOL0     H13875   4.083   3.804  -0.125 -0.2064  0.5414 -2.5585
  103MOL0     H13876   3.992   3.911  -0.021  1.0932  0.9486  0.4517
  103MOL0     H13877   4.211   3.974   0.043 -0.1279  0.4945  0.4079
  103MOL0     H13878   4.175   4.092  -0.084 -0.9459  0.9957  2.8923
  103MOL0     H13879   4.344   3.844  -0.084 -1.0906  0.4109  1.1959
  103MOL0     H13880   4.283   3.895  -0.251 -0.1598  1.9150 -1.1994
  103MOL0     H13881   4.449   4.075  -0.083  0.0746 -1.0842  0.0484
  103MOL0     H13882   4.389   4.094  -0.257 -0.4182  1.9514  0.9518
  103MOL0     H13883   4.627   3.990  -0.234 -0.6138  0.6950  1.1004
  103MOL0     H13884   4.561   3.838  -0.182  1.0580 -0.8947 -1.4040
  103MOL0     H13885   3.600   3.806  -0.226 -2.5854  0.9439  2.2433
  103MOL0     H13886   3.360   3.786  -0.197 -0.0875 -0.7843 -1.2816
  103MOL0     H13887   2.916   3.921  -0.278 -2.7337 -3.1911  0.0496
  103MOL0     H13888   2.701   3.961  -0.229  0.7826  0.9956 -1.2210
  103MOL0     H13889   1.826   3.241   1.575 -0.1235 -0.3575 -1.8741
  103MOL0     H13890   1.920   3.079   1.724 -0.8043  0.2969 -0.7243
  103MOL0     H13891   2.252   2.689   1.755 -1.2660  2.9214 -1.4272
  103MOL0     H13892   2.349   2.544   1.928  3.1010 -1.7701 -1.7363
  103MOL0     H13893   2.488   2.439   2.053  2.0927 -1.6673  2.2113
  103MOL0     H13894   2.339   2.436   2.149  0.4039 -3.6781 -3.0717
  103MOL0     H13895   2.628   2.402   2.230  0.6988  0.0875  0.6264
  103MOL0     H13896   2.496   2.294   2.243  0.0929  0.1802 -2.7603
  103MOL0     H13897   2.484   2.365   2.468  5.1601 -0.7590 -1.1868
  103MOL0     H13898   2.385   2.497   2.394  1.2444  1.2226  0.6373
  103MOL0     H13899   2.583   2.646   2.380  3.7727  0.0820  0.5687
  103MOL0     H13900   2.537   2.603   2.538  2.3826 -2.3030  2.4828
  103MOL0     H13901   2.910   2.389   2.523 -1.0528 -1.7888 -0.5649
  103MOL0     H13902   2.468   2.868   2.171  1.4564  0.4271 -0.4471
  103MOL0     H13903   2.497   3.073   2.057 -1.2748 -3.6565  2.2428
  103MOL0     H13904   2.412   3.110   1.901 -1.4027 -2.7548 -1.4050
  103MOL0     H13905   2.333   3.109   2.064  2.6038  1.8207  0.3482
  104MOL0     O13906   2.886   5.109   7.796  1.3301  0.1046 -1.2224
  104MOL0     C13907   2.925   5.182   7.892 -0.1910  0.9364 -0.8879
  104MOL0     O13908   2.843   5.239   7.984 -0.1809 -0.0248 -0.0093
  104MOL0     C13909   2.706   5.253   7.970  0.6556  0.3328  0.2809
  104MOL0     C13910   2.637   5.214   8.081  0.5545 -0.6989  0.3088
  104MOL0     C13911   2.500   5.226   8.086 -0.1254 -0.0493  0.2929
  104MOL0     C13912   2.433   5.270   7.972  1.0699  0.2515  0.1301
  104MOL0     O13913   2.290   5.270   7.974  0.1777 -0.2497 -0.3297
  104MOL0     C13914   2.216   5.155   8.011 -0.3999  0.2631 -0.1785
  104MOL0     C13915   2.071   5.163   7.967  0.3476 -0.6442 -0.2580
  104MOL0     C13916   1.998   5.282   8.043 -1.0170  0.0219 -0.1292
  104MOL0     C13917   1.853   5.257   7.999 -0.1276  0.5680  0.7930
  104MOL0     C13918   1.750   5.343   8.071 -1.7879 -1.1543  0.5488
  104MOL0     C13919   1.764   5.500   8.045  0.5070  0.8224  0.1777
  104MOL0     C13920   1.698   5.524   7.901  0.6336  0.0991  0.1983
  104MOL0     C13921   1.681   5.673   7.863 -0.3596  1.1455  0.0647
  104MOL0     N13922   1.653   5.669   7.719 -0.5475 -0.5207 -0.4138
  104MOL0     C13923   1.541   5.628   7.649 -0.0524  0.2376  0.5502
  104MOL0     C13924   1.573   5.636   7.518 -0.9138 -0.3613 -0.2029
  104MOL0     C13925   1.480   5.602   7.402 -1.4022 -0.5127 -0.2758
  104MOL0     C13926   1.447   5.728   7.319 -0.0103 -0.1208  0.2237
  104MOL0     C13927   1.377   5.836   7.394 -0.6166  0.9596  0.3284
  104MOL0     C13928   1.371   5.971   7.316 -0.5996 -0.1401  0.7586
  104MOL0     O13929   1.299   5.949   7.202  0.3780 -0.6648  0.2324
  104MOL0     C13930   1.338   6.014   7.091  0.4359 -0.7389  0.5851
  104MOL0     C13931   1.452   6.107   7.085 -0.7594  1.0384  0.1351
  104MOL0     C13932   1.478   6.172   6.964 -0.0858 -1.5178 -0.5082
  104MOL0     C13933   1.408   6.134   6.843  0.3589 -0.5548 -0.2272
  104MOL0     C13934   1.456   6.176   6.711  1.4519  0.0530  0.7962
  104MOL0     O13935   1.581   6.200   6.703 -0.0421 -0.5561  0.2030
  104MOL0     C13936   1.656   6.228   6.586  0.1624 -0.2660  0.0164
  104MOL0     C13937   1.794   6.229   6.602  0.1832  0.1798  0.1961
  104MOL0     C13938   1.870   6.263   6.489  0.3885  0.8456  0.1419
  104MOL0     C13939   1.831   6.279   6.358 -0.3183  0.2024  1.1653
  104MOL0     O13940   1.907   6.307   6.243 -0.6941  0.1077  0.7254
  104MOL0     C13941   2.027   6.392   6.274  0.2385  0.4245 -0.5934
  104MOL0     C13942   2.001   6.529   6.227 -0.1293 -0.5181 -0.1257
  104MOL0     C13943   1.865   6.591   6.280  0.6911  0.2538 -0.7329
  104MOL0     C13944   1.863   6.745   6.249  0.1060  0.1088  0.3553
  104MOL0     C13945   1.888   6.790   6.102  0.4873 -0.4710 -0.5024
  104MOL0     C13946   1.806   6.724   5.993 -0.0428 -0.0421 -0.5152
  104MOL0     C13947   1.846   6.796   5.857  0.1967  0.0311  0.6868
  104MOL0     C13948   1.812   6.705   5.740  0.1251  1.0470 -0.1808
  104MOL0    Cl13949   1.634   6.694   5.729  0.0561  0.2863  0.0799
  104MOL0     C13950   1.697   6.267   6.348  0.4278 -0.7509 -0.8625
  104MOL0     C13951   1.610   6.239   6.455 -0.2010  0.9622 -0.5810
  104MOL0     O13952   1.378   6.184   6.619 -0.0776  0.6563 -0.3513
  104MOL0     C13953   1.282   6.067   6.858  0.1935 -0.2222 -0.5243
  104MOL0     C13954   1.256   6.002   6.979  0.6878 -0.8847  0.7183
  104MOL0     N13955   1.692   5.700   7.505 -0.9574  0.5413  0.2743
  104MOL0     N13956   1.741   5.721   7.622  0.3211 -0.6237  0.2154
  104MOL0     C13957   2.500   5.317   7.863  0.0873 -0.2628 -0.2784
  104MOL0     C13958   2.640   5.317   7.868  0.5330 -0.5790  0.5300
  104MOL0     C13959   3.067   5.208   7.899 -0.2543  1.2948 -0.0585
  104MOL0     C13960   3.122   5.243   8.029  0.7083 -0.4354 -0.1086
  104MOL0     C13961   3.255   5.253   8.056 -0.6628 -1.0644 -0.1527
  104MOL0     C13962   3.353   5.226   7.955 -0.3118  1.3617 -0.4832
  104MOL0     O13963   3.491   5.224   7.991  0.0033 -0.0210  0.3873
  104MOL0     C13964   3.532   5.110   8.064 -0.6138  0.4190 -0.2106
  104MOL0     C13965   3.594   4.992   7.977 -0.7283  0.4756  0.2949
  104MOL0     C13966   3.749   4.996   8.003 -0.6206  0.1743 -0.8054
  104MOL0     C13967   3.801   4.896   8.110  0.1655  0.5573  1.3983
  104MOL0     C13968   3.941   4.926   8.133  0.2728 -0.5840  0.0203
  104MOL0     C13969   4.063   4.947   8.148  0.5331  0.0574  0.0745
  104MOL0     C13970   3.309   5.194   7.825 -0.2962  0.4045 -0.2499
  104MOL0     C13971   3.168   5.196   7.789 -0.3502 -0.7904  0.3927
  104MOL0     C13972   3.131   5.166   7.645  0.1516  0.0554  0.0617
  104MOL0     H13973   2.683   5.172   8.170  1.0553  0.6722  0.7194
  104MOL0     H13974   2.449   5.199   8.178  0.0126 -0.7510  0.1688
  104MOL0     H13975   2.249   5.070   7.951  2.6791  0.0830  1.5183
  104MOL0     H13976   2.213   5.118   8.114 -1.9567 -0.4139 -0.4539
  104MOL0     H13977   2.023   5.068   7.990 -1.0277  0.3177  1.0063
  104MOL0     H13978   2.060   5.182   7.860 -2.2373  1.3792  0.2462
  104MOL0     H13979   2.029   5.376   7.997 -0.7249 -0.3016 -0.5991
  104MOL0     H13980   2.020   5.287   8.150 -1.1127  2.1600 -0.1755
  104MOL0     H13981   1.844   5.282   7.893  1.6202  0.4422  0.5871
  104MOL0     H13982   1.824   5.152   8.007 -0.3693  0.7306  2.4479
  104MOL0     H13983   1.649   5.321   8.036 -1.4386 -2.7427  0.4631
  104MOL0     H13984   1.779   5.315   8.173  2.7392 -0.4923 -0.3272
  104MOL0     H13985   1.708   5.554   8.121 -1.3665  0.1009 -0.6294
  104MOL0     H13986   1.866   5.539   8.055  1.5165 -1.7514  0.6880
  104MOL0     H13987   1.603   5.472   7.884 -0.0462  2.2467 -3.6216
  104MOL0     H13988   1.769   5.498   7.822  1.9549 -0.7001  1.5921
  104MOL0     H13989   1.602   5.726   7.916  0.6334  0.3816  2.4714
  104MOL0     H13990   1.768   5.737   7.875 -0.8345  1.6175  1.1141
  104MOL0     H13991   1.450   5.576   7.680 -0.2396 -0.3281 -0.8732
  104MOL0     H13992   1.539   5.536   7.337 -0.0032 -0.0208  0.4616
  104MOL0     H13993   1.389   5.553   7.438 -0.0382 -2.4372  0.7139
  104MOL0     H13994   1.535   5.769   7.268 -0.2636 -1.3889 -1.3036
  104MOL0     H13995   1.378   5.709   7.236  2.1622  1.3560 -2.0822
  104MOL0     H13996   1.429   5.859   7.487 -0.4661  1.0975  0.2132
  104MOL0     H13997   1.275   5.801   7.407 -0.6421  0.5313 -0.9080
  104MOL0     H13998   1.478   5.976   7.294 -0.6236 -3.4866 -0.6644
  104MOL0     H13999   1.345   6.050   7.387  0.7320 -1.4499  2.8424
  104MOL0     H14000   1.510   6.138   7.171 -2.0040 -1.3713  2.0027
  104MOL0     H14001   1.562   6.239   6.970 -1.4736  0.1742  2.6650
  104MOL0     H14002   1.825   6.228   6.706 -2.6261  1.4275  1.1309
  104MOL0     H14003   1.978   6.263   6.502  0.5548  3.4746 -0.7397
  104MOL0     H14004   2.048   6.405   6.380  1.9782 -0.1294 -0.8392
  104MOL0     H14005   2.119   6.346   6.236  1.8999  2.5972  0.5976
  104MOL0     H14006   2.072   6.605   6.262  0.0172  0.1904 -1.8869
  104MOL0     H14007   2.000   6.537   6.118  1.1893 -0.1939 -0.1371
  104MOL0     H14008   1.788   6.540   6.221  2.6108 -0.8023 -2.4598
  104MOL0     H14009   1.844   6.575   6.386  2.3066 -0.1655 -0.4565
  104MOL0     H14010   1.923   6.788   6.330 -1.0700 -1.1906  1.9808
  104MOL0     H14011   1.759   6.776   6.259 -0.2039 -0.6663 -0.3531
  104MOL0     H14012   1.994   6.771   6.085  0.8231  0.2298  0.7345
  104MOL0     H14013   1.875   6.899   6.107 -1.3244 -0.6527 -0.3811
  104MOL0     H14014   1.831   6.618   5.995  3.1341  0.6021  0.2426
  104MOL0     H14015   1.699   6.729   6.017  0.2854  1.5168  0.8218
  104MOL0     H14016   1.953   6.800   5.839 -0.4303  2.0730 -4.0665
  104MOL0     H14017   1.815   6.901   5.847 -3.7530 -0.9915  0.2729
  104MOL0     H14018   1.844   6.742   5.642  0.0599 -2.3746 -1.6552
  104MOL0     H14019   1.859   6.606   5.753 -0.2387  0.6792 -1.5288
  104MOL0     H14020   1.657   6.278   6.248  0.5099 -0.4071 -0.8589
  104MOL0     H14021   1.503   6.238   6.436 -0.9442 -4.5828  2.1230
  104MOL0     H14022   1.222   6.057   6.769 -0.1731  2.7261 -0.6741
  104MOL0     H14023   1.165   5.943   6.980 -0.0214  0.0664 -1.7728
  104MOL0     H14024   2.457   5.351   7.770 -0.1732 -1.0074 -0.4303
  104MOL0     H14025   2.693   5.338   7.775  0.6209 -2.1475  0.1993
  104MOL0     H14026   3.062   5.275   8.113 -0.6946  0.0121 -1.2486
  104MOL0     H14027   3.293   5.283   8.153 -0.7791  1.3150 -0.7960
  104MOL0     H14028   3.456   5.076   8.135  0.0697  0.1128  0.3897
  104MOL0     H14029   3.597   5.141   8.146  0.3841 -1.5245 -0.2055
  104MOL0     H14030   3.574   5.017   7.873 -0.4968 -0.1160  0.1019
  104MOL0     H14031   3.547   4.896   8.001 -1.4845  1.0076  0.9891
  104MOL0     H14032   3.779   5.095   8.036 -0.9371 -0.3621  1.2124
  104MOL0     H14033   3.803   4.973   7.910  3.6585  2.4567  0.8100
  104MOL0     H14034   3.732   4.897   8.195 -1.0879  3.3049  0.4600
  104MOL0     H14035   3.794   4.795   8.068 -1.7796 -0.4639  3.8871
  104MOL0     H14036   4.169   4.955   8.159  0.6816 -0.5752 -0.8070
  104MOL0     H14037   3.379   5.183   7.743  0.4433 -0.8141  0.5274
  104MOL0     H14038   3.046   5.230   7.617  1.1383  0.7265 -1.5887
  104MOL0     H14039   3.213   5.184   7.575  0.1601 -0.2123  0.0013
  104MOL0     H14040   3.094   5.063   7.638 -1.4104  0.5174  1.0013
  105MOL0     O14041   2.287   3.367   5.142 -0.2410 -0.1304 -0.1178
  105MOL0     C14042   2.214   3.281   5.180 -0.3192  0.5258 -0.0531
  105MOL0     O14043   2.185   3.258   5.311  1.0093 -0.3199  0.0882
  105MOL0     C14044   2.227   3.352   5.404  1.3121  0.1066  1.2034
  105MOL0     C14045   2.345   3.339   5.473  0.2371 -0.7769 -0.2469
  105MOL0     C14046   2.372   3.433   5.584 -1.1373 -0.0576  0.4059
  105MOL0     C14047   2.284   3.539   5.610 -0.8523  0.1342  0.3132
  105MOL0     O14048   2.320   3.629   5.707 -0.6236  0.9140 -1.1845
  105MOL0     C14049   2.237   3.740   5.737  0.5552 -0.5882  0.1193
  105MOL0     C14050   2.319   3.838   5.817 -0.1929 -1.1975  0.1523
  105MOL0     C14051   2.450   3.882   5.749 -0.6371  0.1658  0.4478
  105MOL0     C14052   2.562   3.926   5.843 -0.0161  0.5482 -0.2235
  105MOL0     C14053   2.700   3.911   5.783  0.6958  0.0181 -0.6759
  105MOL0     C14054   2.723   4.020   5.685  0.9048 -0.2640  0.5123
  105MOL0     C14055   2.869   4.029   5.640 -0.0182 -0.5904  0.5881
  105MOL0     C14056   2.955   4.098   5.736  0.3257 -0.0240 -0.3930
  105MOL0     N14057   2.911   4.231   5.769  0.2359  0.2571  0.0898
  105MOL0     C14058   2.867   4.284   5.895  0.6619  0.5036  0.8029
  105MOL0     C14059   2.849   4.417   5.870  0.5272  0.4677  0.2375
  105MOL0     C14060   2.812   4.521   5.972  0.5339  0.3373 -0.2002
  105MOL0     C14061   2.907   4.536   6.084 -0.3270 -0.1828 -0.9051
  105MOL0     C14062   2.854   4.602   6.218  0.4102 -0.4715 -0.1403
  105MOL0     C14063   2.954   4.647   6.327  0.3541 -0.5626  0.2047
  105MOL0     O14064   3.050   4.737   6.257  0.2411  0.6832 -0.3189
  105MOL0     C14065   3.043   4.876   6.267  0.1029  0.3607 -0.2045
  105MOL0     C14066   2.927   4.960   6.264  0.4879  1.4430 -0.7033
  105MOL0     C14067   2.938   5.100   6.271 -0.4963  0.4447  0.1129
  105MOL0     C14068   3.063   5.158   6.295  1.1431  0.2778 -0.5102
  105MOL0     C14069   3.075   5.301   6.342  0.3469 -0.3056  1.0075
  105MOL0     O14070   2.970   5.360   6.401 -0.3347 -0.0392  1.5239
  105MOL0     C14071   3.005   5.471   6.464  0.9787  0.6380  0.3604
  105MOL0     C14072   2.970   5.584   6.389  0.0096 -0.5147 -0.0071
  105MOL0     C14073   2.992   5.710   6.445 -1.2295 -0.0386 -0.3375
  105MOL0     C14074   3.053   5.725   6.569  0.0342  0.2150 -0.7630
  105MOL0     O14075   3.079   5.843   6.634 -0.9864  1.0699  0.3273
  105MOL0     C14076   3.021   5.961   6.575  0.0414  0.7680  0.3854
  105MOL0     C14077   2.989   6.062   6.681 -0.4685  1.3992  0.2602
  105MOL0     C14078   2.905   6.014   6.807  0.0693 -0.0036 -1.4985
  105MOL0     C14079   2.888   6.132   6.903  0.9025 -0.3159  0.1734
  105MOL0     C14080   2.843   6.081   7.044  0.4840  0.2370 -0.6999
  105MOL0     C14081   2.962   6.077   7.148  0.5115  0.0709 -0.8955
  105MOL0     C14082   2.925   6.038   7.303 -0.0083  0.0894 -0.2300
  105MOL0     C14083   3.058   6.004   7.364  0.7297  1.3069 -0.4963
  105MOL0    Cl14084   3.036   5.973   7.546 -0.3393 -0.2179  0.0738
  105MOL0     C14085   3.091   5.607   6.637 -0.1685  0.0189 -0.9996
  105MOL0     C14086   3.068   5.481   6.581  0.1115  0.0192 -0.8630
  105MOL0     O14087   3.194   5.341   6.346  0.2413  0.0159  0.0163
  105MOL0     C14088   3.175   5.074   6.291 -1.0599  0.3937 -0.6577
  105MOL0     C14089   3.164   4.938   6.269  0.3341 -0.0729 -0.3095
  105MOL0     N14090   2.869   4.441   5.737 -0.1387  0.3096 -0.8473
  105MOL0     N14091   2.901   4.331   5.678 -0.3677  0.6173  0.0998
  105MOL0     C14092   2.181   3.556   5.515  0.1319 -0.0705 -0.7073
  105MOL0     C14093   2.148   3.457   5.435 -0.8175  0.8077  0.2013
  105MOL0     C14094   2.160   3.187   5.069 -0.8788 -0.5144  0.2379
  105MOL0     C14095   2.245   3.170   4.960  0.4934  0.7754  0.2319
  105MOL0     C14096   2.208   3.083   4.857 -0.2174 -0.8756  0.6798
  105MOL0     C14097   2.092   3.017   4.850  0.4211  0.5739 -0.4103
  105MOL0     O14098   2.062   2.919   4.752  0.7912 -0.4284 -0.5080
  105MOL0     C14099   2.112   2.953   4.622  0.1457  0.7361  0.2587
  105MOL0     C14100   2.039   3.079   4.564 -0.0062 -0.5480  0.7240
  105MOL0     C14101   1.890   3.054   4.532  0.0644 -0.4544  1.0920
  105MOL0     C14102   1.858   2.968   4.399  0.2331  0.0094  0.2054
  105MOL0     C14103   1.880   3.040   4.276  0.5333  0.2066 -0.0428
  105MOL0     C14104   1.903   3.106   4.172 -0.8758 -0.5395 -0.2342
  105MOL0     C14105   2.008   3.034   4.959 -0.3965  0.1568 -0.4490
  105MOL0     C14106   2.044   3.115   5.070 -0.0890 -0.1843  0.8563
  105MOL0     C14107   1.929   3.140   5.161 -0.9214  0.5812  0.4362
  105MOL0     H14108   2.411   3.253   5.466  4.8381  2.1067  2.2712
  105MOL0     H14109   2.463   3.428   5.642  0.0445  0.4769 -1.3260
  105MOL0     H14110   2.202   3.791   5.646  1.8389  1.4348  0.6923
  105MOL0     H14111   2.147   3.706   5.789 -2.0262  3.9721 -0.8048
  105MOL0     H14112   2.330   3.790   5.914 -1.1741 -0.5378  0.6065
  105MOL0     H14113   2.267   3.932   5.836  0.3321 -0.9226  0.2473
  105MOL0     H14114   2.432   3.965   5.681  1.4469  3.7551  3.8359
  105MOL0     H14115   2.487   3.801   5.685 -0.4331 -0.1188  0.9176
  105MOL0     H14116   2.540   4.027   5.877 -0.3276  1.0198 -1.7632
  105MOL0     H14117   2.562   3.857   5.928  0.7740 -1.4483 -1.7632
  105MOL0     H14118   2.776   3.916   5.862 -0.1628 -1.9231  0.3361
  105MOL0     H14119   2.700   3.810   5.742 -0.3282 -0.5915  0.7397
  105MOL0     H14120   2.662   3.995   5.597  0.1082  2.2960  0.2529
  105MOL0     H14121   2.688   4.116   5.724 -2.3570 -1.2228  0.2756
  105MOL0     H14122   2.880   4.080   5.544  0.4722  2.6158  2.1884
  105MOL0     H14123   2.906   3.926   5.632  1.9072 -0.0094  1.4032
  105MOL0     H14124   2.964   4.048   5.832 -2.3362 -0.2198 -0.1661
  105MOL0     H14125   3.052   4.104   5.686 -0.0621  2.7437 -0.9721
  105MOL0     H14126   2.871   4.238   5.993 -2.6536 -0.8540  0.4056
  105MOL0     H14127   2.799   4.615   5.918  0.8645  0.0394 -0.8073
  105MOL0     H14128   2.718   4.496   6.021  0.2948  0.5187 -0.5639
  105MOL0     H14129   2.934   4.434   6.111 -1.2353  0.6102  4.0437
  105MOL0     H14130   2.992   4.598   6.053 -2.2456  3.2655  0.2024
  105MOL0     H14131   2.783   4.531   6.262  2.0504 -2.7453 -0.9745
  105MOL0     H14132   2.802   4.697   6.203  1.9645  0.9332  2.5653
  105MOL0     H14133   3.017   4.566   6.364 -1.1350 -1.3797  1.0639
  105MOL0     H14134   2.897   4.699   6.405 -1.4107 -0.4211 -1.1190
  105MOL0     H14135   2.825   4.924   6.264  0.5114  1.3592 -1.3745
  105MOL0     H14136   2.849   5.162   6.263 -2.4710 -2.3662 -2.0202
  105MOL0     H14137   2.922   5.573   6.292 -1.6249  0.6340  0.6207
  105MOL0     H14138   2.972   5.791   6.376  0.3067 -1.6568 -2.8324
  105MOL0     H14139   3.085   6.002   6.496  0.1993 -0.3679 -0.0920
  105MOL0     H14140   2.923   5.943   6.530  1.8552  1.2961 -4.4226
  105MOL0     H14141   3.092   6.093   6.702 -0.1953  0.8397 -0.2231
  105MOL0     H14142   2.941   6.147   6.633 -0.0755  0.4226 -2.0096
  105MOL0     H14143   2.804   5.986   6.777 -0.2351 -0.4739 -0.1257
  105MOL0     H14144   2.951   5.923   6.847  1.0195 -0.0607 -2.6843
  105MOL0     H14145   2.798   6.188   6.877  1.1345  0.7961  1.5962
  105MOL0     H14146   2.979   6.193   6.914  0.0911  1.3858 -1.9674
  105MOL0     H14147   2.798   5.983   7.026  2.5955 -0.7630 -0.8444
  105MOL0     H14148   2.773   6.155   7.086  2.0937 -0.0606  2.8697
  105MOL0     H14149   3.034   6.004   7.109  2.6390  2.5063 -1.8392
  105MOL0     H14150   3.014   6.173   7.142 -1.4202  1.2405  0.0877
  105MOL0     H14151   2.853   5.957   7.316  0.2394  0.1165  1.6689
  105MOL0     H14152   2.887   6.130   7.348  0.5150  1.4803 -2.4894
  105MOL0     H14153   3.092   5.913   7.313 -1.2095  0.7003 -0.8105
  105MOL0     H14154   3.123   6.090   7.351 -2.6300  4.1042 -0.3763
  105MOL0     H14155   3.129   5.627   6.737 -1.4867  0.3656 -0.5419
  105MOL0     H14156   3.094   5.391   6.635  1.8814  0.8136 -0.3154
  105MOL0     H14157   3.275   5.115   6.302  0.3593 -1.6231 -4.3829
  105MOL0     H14158   3.258   4.884   6.264  0.1593 -0.3903 -0.1577
  105MOL0     H14159   2.108   3.629   5.550 -0.3840 -0.1358 -1.6274
  105MOL0     H14160   2.051   3.463   5.387 -0.0571 -1.3273 -1.7673
  105MOL0     H14161   2.336   3.230   4.956 -0.7371  2.6668 -1.2332
  105MOL0     H14162   2.278   3.078   4.774  0.5153 -2.0589  1.3398
  105MOL0     H14163   2.106   2.860   4.563  3.2559 -0.0835  1.0797
  105MOL0     H14164   2.220   2.967   4.625  0.7665 -2.9457  0.5247
  105MOL0     H14165   2.084   3.097   4.466  1.9327 -2.3289  1.2086
  105MOL0     H14166   2.044   3.162   4.636 -2.8851 -0.5593  1.0206
  105MOL0     H14167   1.850   3.155   4.521  0.9804 -0.2915 -1.7641
  105MOL0     H14168   1.832   3.013   4.615 -1.4169  1.0148  0.8438
  105MOL0     H14169   1.914   2.874   4.400 -1.3778 -0.9896 -0.3321
  105MOL0     H14170   1.755   2.931   4.392  1.2976 -3.0849 -1.1077
  105MOL0     H14171   1.918   3.172   4.089  0.1621 -1.5149 -0.8458
  105MOL0     H14172   1.907   2.996   4.950 -0.4733  0.0779  0.6385
  105MOL0     H14173   1.943   3.204   5.248 -0.4611  0.1887  0.6532
  105MOL0     H14174   1.844   3.178   5.103 -0.3285 -0.4424 -1.1771
  105MOL0     H14175   1.894   3.048   5.209 -2.4230  1.1762  0.5361
  106MOL0     O14176   8.597   9.306   2.939  0.0905 -0.7240 -0.4717
  106MOL0     C14177   8.653   9.297   3.049  0.1751 -1.0020  0.0551
  106MOL0     O14178   8.617   9.365   3.162  0.2946 -0.1222 -1.1010
  106MOL0     C14179   8.501   9.438   3.166  0.1787  0.9968  0.5620
  106MOL0     C14180   8.380   9.379   3.200  0.0960 -1.0256 -0.2002
  106MOL0     C14181   8.266   9.454   3.198  0.8529  0.8043  0.2014
  106MOL0     C14182   8.262   9.597   3.170  0.2623  0.1124 -0.1340
  106MOL0     O14183   8.142   9.657   3.190 -0.2217 -0.2305  0.2799
  106MOL0     C14184   8.113   9.763   3.101 -0.2454  1.1397 -0.1122
  106MOL0     C14185   8.099   9.712   2.953 -0.2249 -0.5461  1.0104
  106MOL0     C14186   7.965   9.754   2.897 -0.7746  0.1793 -0.3921
  106MOL0     C14187   7.942   9.677   2.763  0.2270 -0.7732  0.2216
  106MOL0     C14188   7.806   9.729   2.710  0.8188 -0.2412 -0.3484
  106MOL0     C14189   7.794   9.677   2.566 -1.2625  0.8946 -0.6297
  106MOL0     C14190   7.670   9.731   2.497  0.2644 -0.8373  0.0590
  106MOL0     C14191   7.644   9.695   2.343 -0.6259 -0.0985  1.6194
  106MOL0     N14192   7.774   9.686   2.261 -0.0778  0.3390  0.4342
  106MOL0     C14193   7.871   9.589   2.258  0.5276  0.2392 -0.0749
  106MOL0     C14194   7.968   9.620   2.173 -0.7818 -0.8567 -0.2501
  106MOL0     C14195   8.096   9.526   2.148 -0.0916 -0.0034 -1.0436
  106MOL0     C14196   8.226   9.608   2.127 -0.3003 -0.2863 -1.0584
  106MOL0     C14197   8.344   9.529   2.077  0.6598  0.8837  0.3743
  106MOL0     C14198   8.452   9.504   2.175  0.0491  0.0490 -0.5084
  106MOL0     O14199   8.544   9.421   2.111  0.1880  0.7538 -0.3240
  106MOL0     C14200   8.656   9.394   2.179 -0.0297  1.1860  0.8214
  106MOL0     C14201   8.757   9.311   2.124  0.0032 -0.6933  0.7286
  106MOL0     C14202   8.880   9.287   2.185  0.2143  0.6388  0.7992
  106MOL0     C14203   8.904   9.326   2.310 -0.1991 -0.3615 -0.2911
  106MOL0     C14204   9.025   9.290   2.381  0.4676 -0.1033  0.2053
  106MOL0     O14205   9.039   9.328   2.509 -0.0571 -0.4119 -0.4808
  106MOL0     C14206   9.161   9.343   2.565  0.2571  0.1172  1.1207
  106MOL0     C14207   9.184   9.471   2.629  0.5592 -1.2771 -1.0269
  106MOL0     C14208   9.309   9.502   2.685 -0.2610 -0.0464 -0.7378
  106MOL0     C14209   9.409   9.410   2.685 -0.9477 -0.0653 -0.3727
  106MOL0     O14210   9.530   9.448   2.742  0.6901 -0.5093 -0.3978
  106MOL0     C14211   9.615   9.508   2.649 -0.2965  0.1576  0.0250
  106MOL0     C14212   9.757   9.504   2.705  0.6841  1.0676 -0.2105
  106MOL0     C14213   9.830   9.623   2.652 -0.7524 -1.1245  1.0159
  106MOL0     C14214   9.979   9.613   2.674 -0.8446 -1.3256 -0.5043
  106MOL0     C14215  10.025   9.582   2.814  0.0604 -0.0107  0.0868
  106MOL0     C14216  10.179   9.591   2.819 -0.4817 -0.5589 -0.2207
  106MOL0     C14217  10.254   9.477   2.731  0.6129 -0.2254 -0.3542
  106MOL0     C14218  10.401   9.474   2.736 -0.5359  0.0123  0.0784
  106MOL0    Cl14219  10.460   9.618   2.648  0.0877  0.3086 -0.0011
  106MOL0     C14220   9.375   9.286   2.631 -0.7906 -0.3334  0.7848
  106MOL0     C14221   9.259   9.252   2.572 -0.3150 -0.4735  0.3032
  106MOL0     O14222   9.120   9.248   2.311  0.7197  0.3228 -0.4219
  106MOL0     C14223   8.799   9.392   2.374 -0.5557 -0.6400  0.4901
  106MOL0     C14224   8.684   9.424   2.310  0.2259 -0.0404 -0.5341
  106MOL0     N14225   7.940   9.749   2.123 -0.2078  0.6872 -0.5142
  106MOL0     N14226   7.827   9.783   2.176  0.0881 -0.0832 -0.9694
  106MOL0     C14227   8.382   9.644   3.112  0.0631 -0.0568  0.5297
  106MOL0     C14228   8.502   9.568   3.120 -0.0179 -0.1151  0.4207
  106MOL0     C14229   8.789   9.233   3.050  0.8618  0.0781  0.3748
  106MOL0     C14230   8.841   9.193   2.922  0.0947 -0.6665 -0.1815
  106MOL0     C14231   8.965   9.122   2.915 -0.4697  0.3796  0.3362
  106MOL0     C14232   9.048   9.090   3.032  0.2187  0.0280  0.5719
  106MOL0     O14233   9.173   9.036   2.996 -0.2504  0.3884 -0.1816
  106MOL0     C14234   9.234   8.956   3.100 -0.1346 -0.8571  1.1000
  106MOL0     C14235   9.328   8.858   3.024  0.1836  0.9566  0.0955
  106MOL0     C14236   9.440   8.939   2.951  1.0675  0.1007 -0.5391
  106MOL0     C14237   9.494   8.868   2.822 -0.0497  1.0707 -0.5702
  106MOL0     C14238   9.556   8.747   2.878 -0.4277  0.3520  0.5297
  106MOL0     C14239   9.592   8.646   2.936 -0.6130  1.4853 -1.0254
  106MOL0     C14240   8.995   9.126   3.149  0.1031 -0.1924 -1.1972
  106MOL0     C14241   8.869   9.197   3.166  0.1978  0.3230 -0.4710
  106MOL0     C14242   8.819   9.233   3.302 -0.0621  0.3058  1.1842
  106MOL0     H14243   8.385   9.274   3.227  1.5598 -0.2372  3.0108
  106MOL0     H14244   8.181   9.407   3.245  2.6694 -0.3556  2.5542
  106MOL0     H14245   8.012   9.795   3.131 -0.7667  1.6008 -2.2177
  106MOL0     H14246   8.174   9.850   3.126  1.8648 -0.9695  2.6958
  106MOL0     H14247   8.113   9.604   2.946  4.9687 -0.0641 -1.0338
  106MOL0     H14248   8.182   9.755   2.895  0.4650  1.2388  3.1780
  106MOL0     H14249   7.971   9.863   2.901 -0.8103  0.2606 -1.9003
  106MOL0     H14250   7.888   9.729   2.971 -0.3939 -0.9348 -0.3563
  106MOL0     H14251   8.016   9.704   2.687  0.1008 -1.4250 -0.1383
  106MOL0     H14252   7.933   9.570   2.785  2.9741 -0.5716  3.0394
  106MOL0     H14253   7.725   9.694   2.774  0.6380  2.2391  0.8789
  106MOL0     H14254   7.797   9.838   2.710  1.7182 -0.1286 -2.0737
  106MOL0     H14255   7.877   9.718   2.508 -0.7175  0.8066  0.0840
  106MOL0     H14256   7.805   9.568   2.571  2.8544  1.1214  5.1944
  106MOL0     H14257   7.666   9.840   2.501  1.2347 -0.8396  2.5820
  106MOL0     H14258   7.591   9.706   2.569  2.0673  0.7516  2.7729
  106MOL0     H14259   7.592   9.598   2.343 -0.9646  0.0149  4.2325
  106MOL0     H14260   7.573   9.768   2.304 -0.7904 -1.5691 -1.0956
  106MOL0     H14261   7.865   9.495   2.312 -1.6776 -0.7642 -1.9100
  106MOL0     H14262   8.118   9.459   2.232  1.4357  0.0038 -1.4047
  106MOL0     H14263   8.077   9.464   2.061 -3.8523  0.9828 -1.1053
  106MOL0     H14264   8.191   9.681   2.053  0.1732  0.6257 -0.4007
  106MOL0     H14265   8.240   9.657   2.224 -1.8489 -1.8941  0.0467
  106MOL0     H14266   8.389   9.577   1.989  0.8898  2.0549  1.1166
  106MOL0     H14267   8.308   9.431   2.044  0.8739  0.4752  1.3239
  106MOL0     H14268   8.411   9.460   2.267 -3.0341 -0.0213 -1.8189
  106MOL0     H14269   8.490   9.605   2.187 -1.4277  0.5806 -0.1134
  106MOL0     H14270   8.728   9.275   2.026 -2.6016  0.0549  1.1510
  106MOL0     H14271   8.952   9.243   2.118 -0.2070  0.1326  0.6738
  106MOL0     H14272   9.115   9.555   2.620 -0.3082 -2.0205 -1.4726
  106MOL0     H14273   9.320   9.605   2.718  0.2600  0.7269 -3.0766
  106MOL0     H14274   9.618   9.452   2.555  0.4487 -1.1352  0.7946
  106MOL0     H14275   9.587   9.611   2.623  2.7809  0.6605 -1.8315
  106MOL0     H14276   9.765   9.512   2.814  2.6813  0.7573 -0.2886
  106MOL0     H14277   9.795   9.407   2.670 -3.7683 -1.4853  1.3216
  106MOL0     H14278   9.823   9.617   2.543  2.1615 -0.9058  0.7210
  106MOL0     H14279   9.789   9.716   2.693  2.2100  0.5700  0.4363
  106MOL0     H14280  10.038   9.701   2.647  2.7241 -2.9229  1.3640
  106MOL0     H14281  10.018   9.534   2.609 -0.0600 -1.7332  0.4349
  106MOL0     H14282   9.991   9.479   2.833  2.1529 -1.2587 -2.3867
  106MOL0     H14283   9.974   9.651   2.882  0.4999  2.0715 -1.6121
  106MOL0     H14284  10.211   9.693   2.796 -0.0181 -0.0539  2.3743
  106MOL0     H14285  10.202   9.576   2.925 -2.8972  0.6938  0.5741
  106MOL0     H14286  10.220   9.494   2.628  3.2533  0.6441 -1.1602
  106MOL0     H14287  10.224   9.381   2.775  2.1783 -0.1536  0.9458
  106MOL0     H14288  10.439   9.479   2.838  0.2690  1.0654 -0.2533
  106MOL0     H14289  10.425   9.384   2.680 -0.0654  0.1200  0.1085
  106MOL0     H14290   9.449   9.206   2.622  0.0044  0.1938  2.2011
  106MOL0     H14291   9.257   9.155   2.523 -1.0207 -1.2290  1.7672
  106MOL0     H14292   8.819   9.432   2.473  1.8879  0.4458 -0.3706
  106MOL0     H14293   8.618   9.470   2.382  1.1774 -1.1877  1.1485
  106MOL0     H14294   8.383   9.746   3.076 -1.9692 -0.0473  0.3812
  106MOL0     H14295   8.586   9.605   3.062 -1.0394 -3.5289 -3.7641
  106MOL0     H14296   8.787   9.202   2.829 -2.4828  0.9266  1.3474
  106MOL0     H14297   9.009   9.102   2.818  1.1760  5.0304 -0.1552
  106MOL0     H14298   9.160   8.905   3.163 -1.0586  0.4430  1.1069
  106MOL0     H14299   9.293   9.019   3.167  0.8584 -2.1701  1.5246
  106MOL0     H14300   9.281   8.795   2.948  2.4865  0.5720 -1.1031
  106MOL0     H14301   9.361   8.778   3.092 -1.4501 -2.1084 -2.4233
  106MOL0     H14302   9.520   8.960   3.022  1.3471 -3.1282  0.2305
  106MOL0     H14303   9.393   9.030   2.912 -0.1613 -0.1325  0.3411
  106MOL0     H14304   9.421   8.830   2.750  0.8335 -0.0274 -0.9196
  106MOL0     H14305   9.566   8.927   2.765 -1.3909  3.2308 -0.1437
  106MOL0     H14306   9.627   8.552   2.975 -1.4603  0.4812 -2.5780
  106MOL0     H14307   9.045   9.115   3.245 -1.5472  2.3369  0.0571
  106MOL0     H14308   8.886   9.188   3.376  0.7089 -3.7934 -1.6401
  106MOL0     H14309   8.834   9.341   3.301 -1.8703  0.6323 -1.3231
  106MOL0     H14310   8.713   9.209   3.319  0.4524 -2.5764  0.9023
  107MOL0     O14311  10.537   1.452   3.574 -0.2524 -0.1937 -0.4751
  107MOL0     C14312  10.528   1.333   3.555 -0.1138 -0.1863  1.4020
  107MOL0     O14313  10.635   1.250   3.531 -0.0685 -0.6462  0.3765
  107MOL0     C14314  10.762   1.278   3.582  0.4041 -0.2088  0.4175
  107MOL0     C14315  10.866   1.197   3.528 -0.7015  0.5773 -0.2583
  107MOL0     C14316  10.997   1.217   3.558 -0.6838 -1.3403  0.3192
  107MOL0     C14317  11.038   1.338   3.627  1.1135  0.5647  0.3844
  107MOL0     O14318  11.162   1.379   3.645 -0.7573  0.0257  0.6765
  107MOL0     C14319  11.189   1.510   3.708  0.3512 -0.5236  0.1160
  107MOL0     C14320  11.331   1.545   3.668  0.4227  0.2010 -0.6429
  107MOL0     C14321  11.438   1.482   3.779 -0.4039 -0.5710  0.8442
  107MOL0     C14322  11.569   1.443   3.691  0.8549 -0.8416 -0.5393
  107MOL0     C14323  11.695   1.415   3.782 -0.1327 -0.2099  0.7855
  107MOL0     C14324  11.824   1.391   3.700 -0.3339  0.1192  0.0359
  107MOL0     C14325  11.945   1.436   3.782  0.8902  0.5209  0.4229
  107MOL0     C14326  12.084   1.424   3.710 -0.4276 -1.0860 -0.2177
  107MOL0     N14327  12.176   1.537   3.735 -0.2122  0.2293 -0.0920
  107MOL0     C14328  12.252   1.566   3.846  0.3189  0.3839  0.0248
  107MOL0     C14329  12.309   1.681   3.822 -0.5815 -0.3357 -0.9106
  107MOL0     C14330  12.413   1.743   3.919 -0.2631  0.5381 -0.0336
  107MOL0     C14331  12.517   1.829   3.849  0.3020  0.0081  0.4023
  107MOL0     C14332  12.646   1.756   3.805  0.3414 -0.1808  0.3957
  107MOL0     C14333  12.709   1.821   3.688 -0.4440 -0.5213  0.6525
  107MOL0     O14334  12.747   1.956   3.725 -0.3753  0.0433 -0.2562
  107MOL0     C14335  12.875   1.998   3.728 -0.2135  0.8439  0.0950
  107MOL0     C14336  12.937   2.027   3.853 -1.1357  0.7764  0.2294
  107MOL0     C14337  13.059   2.089   3.858  0.6932  0.1530 -0.4859
  107MOL0     C14338  13.132   2.113   3.745 -0.4442  0.6256  0.2960
  107MOL0     C14339  13.257   2.177   3.752 -0.6928 -0.4118  0.6086
  107MOL0     O14340  13.346   2.148   3.854 -0.2914 -0.6996  0.3028
  107MOL0     C14341  13.471   2.208   3.846 -0.6747 -0.0862  0.0756
  107MOL0     C14342  13.472   2.344   3.879  0.3137 -0.2859 -0.4331
  107MOL0     C14343  13.591   2.420   3.874 -0.2564  0.0350  0.3835
  107MOL0     C14344  13.710   2.348   3.854 -0.6479  0.3390 -0.8508
  107MOL0     O14345  13.831   2.410   3.855  0.8197  0.2678  0.8820
  107MOL0     C14346  13.855   2.521   3.942 -0.4124 -0.2904  0.0410
  107MOL0     C14347  14.002   2.546   3.965 -0.7475 -0.6430 -0.9233
  107MOL0     C14348  14.036   2.666   4.050 -0.7726 -0.2353  0.9842
  107MOL0     C14349  14.010   2.800   3.965  0.2530 -0.0770 -1.0338
  107MOL0     C14350  14.010   2.923   4.059 -0.3089  0.8792 -0.0071
  107MOL0     C14351  13.924   3.038   4.017 -0.3384  0.5828 -0.3365
  107MOL0     C14352  13.965   3.124   3.891  0.1378 -1.0661 -0.6637
  107MOL0     C14353  13.930   3.265   3.916 -0.4947 -0.1787 -0.2948
  107MOL0    Cl14354  13.752   3.283   3.962 -0.1581  0.4259 -0.2672
  107MOL0     C14355  13.706   2.214   3.825 -0.5193 -0.1786  0.5518
  107MOL0     C14356  13.589   2.142   3.821 -0.5067 -0.7951 -0.1508
  107MOL0     O14357  13.274   2.267   3.669 -0.2630  0.5157 -0.2698
  107MOL0     C14358  13.081   2.072   3.623  0.0823 -0.9792 -0.5754
  107MOL0     C14359  12.949   2.018   3.606  0.1706  1.0904 -0.0712
  107MOL0     N14360  12.275   1.724   3.688  0.0342  1.1673 -0.1069
  107MOL0     N14361  12.188   1.634   3.639 -0.4956  0.5744 -0.5524
  107MOL0     C14362  10.930   1.401   3.692  0.6511 -0.0407 -0.6195
  107MOL0     C14363  10.799   1.369   3.682  0.1535 -0.2887 -0.3768
  107MOL0     C14364  10.397   1.271   3.536 -0.3767 -0.0508  0.5049
  107MOL0     C14365  10.400   1.127   3.530 -0.5787 -0.1577 -0.0824
  107MOL0     C14366  10.275   1.062   3.543 -0.6355 -0.0268 -0.4172
  107MOL0     C14367  10.151   1.132   3.545 -0.5467 -0.4941 -0.5083
  107MOL0     O14368  10.027   1.079   3.528  0.5297 -0.3639  0.2992
  107MOL0     C14369  10.011   0.938   3.558  0.2053 -0.3004 -0.4641
  107MOL0     C14370  10.049   0.908   3.709 -0.2240  0.2432 -0.5817
  107MOL0     C14371   9.973   0.998   3.807 -0.5198 -0.7594  0.9210
  107MOL0     C14372   9.826   0.953   3.822  0.4644  0.2903 -0.8770
  107MOL0     C14373   9.804   0.815   3.861 -0.7135 -1.3151  0.2405
  107MOL0     C14374   9.773   0.695   3.888  0.0816 -0.9756  0.4964
  107MOL0     C14375  10.153   1.266   3.531 -0.1998  0.3465  0.6941
  107MOL0     C14376  10.273   1.342   3.532  0.5302  0.5805  0.0354
  107MOL0     C14377  10.259   1.498   3.524  0.5913 -1.0300  0.0481
  107MOL0     H14378  10.840   1.100   3.486 -0.9335  0.4069  0.2806
  107MOL0     H14379  11.065   1.141   3.521 -1.1553 -1.5616 -0.1039
  107MOL0     H14380  11.114   1.580   3.670  0.5649  0.5021  1.5148
  107MOL0     H14381  11.186   1.503   3.817 -1.6927 -1.4903  0.0484
  107MOL0     H14382  11.330   1.654   3.666 -1.7616  0.2335 -2.4792
  107MOL0     H14383  11.342   1.496   3.571  0.0831 -2.0992  0.4054
  107MOL0     H14384  11.410   1.385   3.823 -0.5018 -2.1583 -2.4361
  107MOL0     H14385  11.457   1.562   3.851 -2.1059  3.0664 -2.3794
  107MOL0     H14386  11.550   1.346   3.643 -4.2339 -1.3142  1.7490
  107MOL0     H14387  11.595   1.519   3.617  0.8964 -1.7941 -1.5359
  107MOL0     H14388  11.696   1.496   3.855 -3.4026 -0.9773  1.8702
  107MOL0     H14389  11.678   1.328   3.847 -5.0468 -1.0484 -1.1895
  107MOL0     H14390  11.849   1.285   3.690  1.5719  0.0809  3.6258
  107MOL0     H14391  11.805   1.438   3.603 -4.5908  0.4515  0.8520
  107MOL0     H14392  11.949   1.387   3.880 -0.2383  4.1606  2.4618
  107MOL0     H14393  11.928   1.542   3.803  3.3737  0.5799  2.6636
  107MOL0     H14394  12.137   1.333   3.738  1.1419 -1.2353 -3.2704
  107MOL0     H14395  12.071   1.416   3.602 -0.5897 -3.2911 -0.0726
  107MOL0     H14396  12.261   1.506   3.936  0.6357  0.8295  0.2925
  107MOL0     H14397  12.345   1.802   3.980 -0.1966 -0.8580  1.4283
  107MOL0     H14398  12.458   1.672   3.989 -2.1995 -1.3291 -0.6039
  107MOL0     H14399  12.477   1.885   3.765 -1.7426 -3.1682 -0.9290
  107MOL0     H14400  12.537   1.903   3.927 -1.2419 -2.5850  3.5027
  107MOL0     H14401  12.615   1.656   3.776  0.0231 -0.1925  0.7668
  107MOL0     H14402  12.717   1.742   3.887 -0.3036 -1.8235  0.7207
  107MOL0     H14403  12.633   1.811   3.610 -0.6216 -1.3517  0.9181
  107MOL0     H14404  12.790   1.759   3.648  0.1214  1.5317 -1.6232
  107MOL0     H14405  12.892   2.014   3.951  4.8148 -3.1823  3.0106
  107MOL0     H14406  13.108   2.128   3.947 -1.2811  3.0810 -0.5323
  107MOL0     H14407  13.379   2.398   3.892 -0.1952 -1.1542 -0.4495
  107MOL0     H14408  13.578   2.527   3.885  1.6326  0.1192  3.1447
  107MOL0     H14409  13.807   2.599   3.882 -2.3832 -1.9211 -0.6185
  107MOL0     H14410  13.805   2.496   4.035  2.4832 -0.9045  1.5320
  107MOL0     H14411  14.029   2.459   4.024  0.3021  0.4247  0.2379
  107MOL0     H14412  14.060   2.533   3.874 -1.8410 -1.0234 -1.5900
  107MOL0     H14413  13.973   2.661   4.140 -0.9223 -1.6347  0.8211
  107MOL0     H14414  14.141   2.672   4.080 -0.1555  1.5716 -1.2655
  107MOL0     H14415  13.919   2.791   3.905 -0.1262 -2.2689 -0.2101
  107MOL0     H14416  14.096   2.817   3.899  0.7987  0.6690 -0.1714
  107MOL0     H14417  14.111   2.963   4.054 -0.3409  0.7965 -3.4504
  107MOL0     H14418  13.981   2.906   4.163 -2.1295  2.1282 -0.2548
  107MOL0     H14419  13.821   3.002   4.018 -0.1082 -0.0911  0.8714
  107MOL0     H14420  13.941   3.101   4.104  2.2454 -1.8416  1.0834
  107MOL0     H14421  13.914   3.094   3.798  1.0349 -1.4933 -1.0306
  107MOL0     H14422  14.072   3.126   3.866 -0.1015  0.1443 -1.7000
  107MOL0     H14423  13.984   3.313   3.998 -2.4772  0.4807  0.6758
  107MOL0     H14424  13.937   3.323   3.823 -1.6039 -0.3956 -0.5247
  107MOL0     H14425  13.804   2.172   3.806 -0.7102 -0.3654 -0.0453
  107MOL0     H14426  13.598   2.035   3.801  2.0816 -0.8565  0.9796
  107MOL0     H14427  13.148   2.100   3.543 -0.0546 -1.0931 -0.7294
  107MOL0     H14428  12.891   1.989   3.519  1.2314 -2.4419  0.2359
  107MOL0     H14429  10.950   1.473   3.772 -0.4715  0.3819 -0.6950
  107MOL0     H14430  10.718   1.411   3.741 -1.4951 -1.0481 -1.9885
  107MOL0     H14431  10.493   1.073   3.537 -2.3183 -3.2682  1.1938
  107MOL0     H14432  10.268   0.954   3.544 -1.0540 -0.0354  2.0608
  107MOL0     H14433  10.076   0.891   3.485 -2.2880  1.5861 -4.2205
  107MOL0     H14434   9.908   0.913   3.531 -0.9305  3.5708 -0.3185
  107MOL0     H14435  10.156   0.911   3.729  0.1471 -0.1095 -2.3359
  107MOL0     H14436  10.040   0.799   3.719  0.8764  0.3436  2.7408
  107MOL0     H14437   9.990   1.100   3.770  1.1950 -0.5889  2.0750
  107MOL0     H14438  10.028   0.980   3.899 -3.0223  0.4607  2.7692
  107MOL0     H14439   9.790   1.018   3.902 -1.8264 -1.4472 -0.4008
  107MOL0     H14440   9.784   0.986   3.726  1.8885  2.5096 -0.7997
  107MOL0     H14441   9.744   0.598   3.924 -0.2195 -1.4212 -0.8773
  107MOL0     H14442  10.054   1.310   3.522 -0.1084  0.3120 -0.7852
  107MOL0     H14443  10.333   1.551   3.463  0.6445  0.9783  1.7329
  107MOL0     H14444  10.163   1.515   3.475  0.6323 -0.8344  0.0325
  107MOL0     H14445  10.254   1.541   3.625 -3.0533 -0.2184 -0.3452
  108MOL0     O14446  10.745   6.263   2.745  0.1233 -0.0361 -0.2721
  108MOL0     C14447  10.708   6.237   2.861  0.7439  0.1459  0.6650
  108MOL0     O14448  10.782   6.212   2.964 -0.5525 -0.1261 -0.2330
  108MOL0     C14449  10.918   6.239   2.958 -0.4965  0.3138  0.0919
  108MOL0     C14450  10.960   6.352   3.027 -0.0167 -0.5568 -0.5821
  108MOL0     C14451  11.097   6.390   3.029  0.0860 -0.4903  0.0772
  108MOL0     C14452  11.190   6.312   2.955  0.3249  0.3169 -0.2513
  108MOL0     O14453  11.326   6.349   2.970  1.2663  0.0664 -0.0416
  108MOL0     C14454  11.417   6.281   2.891  0.1098  1.1598 -0.1465
  108MOL0     C14455  11.541   6.356   2.875 -0.8738  1.2584 -0.3260
  108MOL0     C14456  11.635   6.335   2.997 -0.2100  0.7465 -0.5243
  108MOL0     C14457  11.760   6.426   3.001  0.2365  0.2475  0.5225
  108MOL0     C14458  11.889   6.355   2.980  0.4504  0.2169 -0.0457
  108MOL0     C14459  12.012   6.453   3.006  0.6369  0.0251  0.1788
  108MOL0     C14460  12.141   6.368   2.983  0.0570 -0.2329  0.3783
  108MOL0     C14461  12.169   6.305   3.114  0.8514 -0.1481  0.7511
  108MOL0     N14462  12.290   6.224   3.092  0.5787  0.5272 -0.4067
  108MOL0     C14463  12.366   6.172   3.196  0.3789 -0.5357  0.1496
  108MOL0     C14464  12.453   6.085   3.134 -0.4480 -0.2512 -0.3181
  108MOL0     C14465  12.550   5.995   3.204 -0.4035 -1.0690 -0.4608
  108MOL0     C14466  12.480   5.909   3.310  0.2179  0.5605 -0.1663
  108MOL0     C14467  12.399   5.787   3.245  0.0746  0.0364  1.3754
  108MOL0     C14468  12.246   5.799   3.252 -0.4430 -1.0791  0.2207
  108MOL0     O14469  12.191   5.903   3.169 -0.3301  0.4075 -0.0655
  108MOL0     C14470  12.055   5.907   3.167 -0.8198  0.3460 -0.8508
  108MOL0     C14471  11.974   5.833   3.251 -0.0493 -0.1218 -0.4334
  108MOL0     C14472  11.835   5.820   3.219  0.5954  1.4218  0.0607
  108MOL0     C14473  11.779   5.890   3.116 -0.0608  0.0470  0.4337
  108MOL0     C14474  11.650   5.845   3.068 -0.2437 -1.0286 -0.1834
  108MOL0     O14475  11.585   5.745   3.152  0.7752  0.4667 -0.4142
  108MOL0     C14476  11.480   5.670   3.105  0.0822 -0.2135 -0.5525
  108MOL0     C14477  11.470   5.632   2.975  0.4834 -0.1125  0.3351
  108MOL0     C14478  11.363   5.548   2.936  0.4591 -0.5702  0.1825
  108MOL0     C14479  11.264   5.516   3.022  0.3958  0.3218 -1.1465
  108MOL0     O14480  11.189   5.407   2.987 -0.5092 -0.2274 -0.4403
  108MOL0     C14481  11.052   5.414   2.963  0.3800  0.0724  0.1873
  108MOL0     C14482  11.029   5.513   2.854 -0.2987 -1.2640 -0.0685
  108MOL0     C14483  11.084   5.451   2.718  0.1398  0.3192 -0.0965
  108MOL0     C14484  11.024   5.518   2.591  0.2209  0.2480 -0.6023
  108MOL0     C14485  11.108   5.476   2.476  0.4274  0.1169 -0.0204
  108MOL0     C14486  11.082   5.558   2.343 -0.1324  0.4467  0.1256
  108MOL0     C14487  10.936   5.526   2.280 -0.6041 -0.3925 -0.5835
  108MOL0     C14488  10.880   5.617   2.175  0.0519  0.0126  0.7347
  108MOL0    Cl14489  10.713   5.577   2.151 -0.0297  0.4639  0.0981
  108MOL0     C14490  11.271   5.565   3.154  0.0164 -0.4231 -0.1276
  108MOL0     C14491  11.385   5.631   3.197 -0.5014  0.2751  0.1683
  108MOL0     O14492  11.600   5.906   2.976  0.4667  0.0823 -0.0741
  108MOL0     C14493  11.855   5.983   3.049  0.4739  0.5319  0.2793
  108MOL0     C14494  11.989   5.993   3.077 -0.4362  0.3859 -1.4254
  108MOL0     N14495  12.423   6.089   2.994  0.4606 -0.4920 -0.1238
  108MOL0     N14496  12.331   6.173   2.972  0.7859  0.1727  0.3763
  108MOL0     C14497  11.145   6.193   2.892  1.4165 -0.0894 -0.7225
  108MOL0     C14498  11.007   6.151   2.901 -0.3451  0.3757 -0.2473
  108MOL0     C14499  10.551   6.228   2.871 -0.1798  0.0263 -0.1788
  108MOL0     C14500  10.483   6.255   2.751  0.5929 -0.3861  0.2895
  108MOL0     C14501  10.338   6.245   2.734 -0.4611 -0.0099 -0.2145
  108MOL0     C14502  10.267   6.201   2.848  0.6037  0.1027  0.2994
  108MOL0     O14503  10.130   6.193   2.837  0.7395 -0.8493 -1.0978
  108MOL0     C14504  10.046   6.138   2.937 -0.2413  0.3542 -0.5971
  108MOL0     C14505  10.011   6.252   3.040 -1.1321  0.3875  0.3434
  108MOL0     C14506   9.891   6.348   3.009 -0.6531 -0.3621  0.0333
  108MOL0     C14507   9.759   6.294   3.045 -0.5239  0.3699 -0.0785
  108MOL0     C14508   9.643   6.379   3.019  0.0754 -0.0321  1.0776
  108MOL0     C14509   9.557   6.474   3.001  0.7713  0.6526  0.1166
  108MOL0     C14510  10.335   6.179   2.968  0.0865 -1.4778 -0.1919
  108MOL0     C14511  10.473   6.200   2.983  0.5744  0.0413  0.1602
  108MOL0     C14512  10.537   6.188   3.114  0.2437  1.0566 -0.7262
  108MOL0     H14513  10.883   6.399   3.088  0.2357 -5.3370  4.0902
  108MOL0     H14514  11.136   6.477   3.081  2.5185 -1.6091  0.2588
  108MOL0     H14515  11.432   6.176   2.920 -2.4302  1.1850  1.5463
  108MOL0     H14516  11.370   6.274   2.793  1.8468  2.5618 -1.1346
  108MOL0     H14517  11.522   6.464   2.870 -1.4333  1.1132 -3.1342
  108MOL0     H14518  11.593   6.320   2.786 -1.4920  1.7212 -0.8851
  108MOL0     H14519  11.668   6.232   2.985  2.3199  1.4700 -0.5256
  108MOL0     H14520  11.590   6.338   3.096  3.1035 -0.8257  1.1802
  108MOL0     H14521  11.746   6.491   2.914 -0.0893 -1.7549 -0.9884
  108MOL0     H14522  11.764   6.476   3.098  0.3802  0.8104  0.2341
  108MOL0     H14523  11.902   6.285   3.063 -0.3644 -1.3470 -1.1802
  108MOL0     H14524  11.882   6.302   2.885 -2.1019 -1.8034  1.1630
  108MOL0     H14525  12.008   6.532   2.931  2.4837 -0.5491 -0.6015
  108MOL0     H14526  12.004   6.493   3.107 -0.9344 -1.6900  0.7998
  108MOL0     H14527  12.224   6.436   2.961 -1.4630  1.2067 -1.2839
  108MOL0     H14528  12.130   6.306   2.893  2.3621  3.4779 -2.7863
  108MOL0     H14529  12.193   6.382   3.188  5.0468  0.4415 -0.9488
  108MOL0     H14530  12.092   6.246   3.163  2.3840 -0.9838  2.2827
  108MOL0     H14531  12.358   6.195   3.301  0.9364 -1.9028  0.5178
  108MOL0     H14532  12.602   5.928   3.134  3.1940  0.9683  0.0165
  108MOL0     H14533  12.624   6.061   3.251 -0.9303 -0.2231 -0.8089
  108MOL0     H14534  12.551   5.860   3.377  1.3326  2.1757 -0.1004
  108MOL0     H14535  12.416   5.968   3.376 -0.8514  1.3189 -1.8218
  108MOL0     H14536  12.437   5.695   3.289  2.1373  0.9187  1.5844
  108MOL0     H14537  12.420   5.781   3.138  0.6654 -3.5911  1.5983
  108MOL0     H14538  12.221   5.816   3.357 -2.8571 -1.2002 -0.2686
  108MOL0     H14539  12.201   5.703   3.225  0.1828 -1.3494  0.1447
  108MOL0     H14540  12.010   5.779   3.338 -0.3001 -2.8771 -1.9153
  108MOL0     H14541  11.791   5.735   3.271  1.5984 -0.9598 -2.7358
  108MOL0     H14542  11.547   5.663   2.905  0.9286 -1.4464  0.2059
  108MOL0     H14543  11.364   5.506   2.836  1.8183 -1.2348  0.4580
  108MOL0     H14544  10.999   5.323   2.936 -0.3482  0.7374 -0.6791
  108MOL0     H14545  11.005   5.453   3.053  0.0752 -1.1736  0.5886
  108MOL0     H14546  10.922   5.529   2.837 -0.0937  1.0364  0.5786
  108MOL0     H14547  11.072   5.611   2.873 -2.1735 -0.8529  2.5672
  108MOL0     H14548  11.193   5.466   2.718  0.0310  1.3812  1.6119
  108MOL0     H14549  11.061   5.345   2.705 -0.0973  0.5245 -1.5985
  108MOL0     H14550  11.033   5.627   2.597 -1.1028  0.3209  3.1190
  108MOL0     H14551  10.920   5.485   2.578  0.7699 -1.7390 -0.3259
  108MOL0     H14552  11.103   5.369   2.459  1.7519 -0.3481  2.1257
  108MOL0     H14553  11.213   5.501   2.498  1.0271 -0.3688 -2.0928
  108MOL0     H14554  11.095   5.664   2.368  1.3249  0.0633  1.1308
  108MOL0     H14555  11.162   5.521   2.278  0.0238  0.0758  0.5267
  108MOL0     H14556  10.871   5.528   2.368 -1.8761 -1.0362 -1.4758
  108MOL0     H14557  10.938   5.422   2.246  0.3992 -1.0705  1.4138
  108MOL0     H14558  10.892   5.721   2.206 -1.2758 -0.3091  2.4902
  108MOL0     H14559  10.943   5.591   2.090  1.4572  0.5519  1.5813
  108MOL0     H14560  11.191   5.545   3.224 -0.6129  0.2016 -0.6676
  108MOL0     H14561  11.388   5.664   3.300  4.1807  0.6722  0.1256
  108MOL0     H14562  11.805   6.042   2.973 -2.7965 -3.1852 -0.7805
  108MOL0     H14563  12.043   6.068   3.020 -1.3934  0.5964 -2.0749
  108MOL0     H14564  11.210   6.120   2.845 -0.1385 -1.1366 -1.3611
  108MOL0     H14565  10.985   6.052   2.862 -0.2824 -0.4818  1.7491
  108MOL0     H14566  10.530   6.264   2.654 -3.4191  1.4595 -1.7387
  108MOL0     H14567  10.291   6.264   2.638  0.4387 -2.2260 -1.1508
  108MOL0     H14568  10.091   6.048   2.979  1.7178  0.8173 -1.5559
  108MOL0     H14569   9.952   6.108   2.891  0.6371  0.1881 -2.3876
  108MOL0     H14570  10.105   6.306   3.053 -1.1804  0.7329 -0.6399
  108MOL0     H14571   9.988   6.206   3.137  0.2630 -4.0298 -1.1390
  108MOL0     H14572   9.894   6.374   2.903 -0.7323  2.4631  0.6368
  108MOL0     H14573   9.909   6.442   3.062 -0.4720  0.5043 -1.5258
  108MOL0     H14574   9.751   6.192   3.006  0.6559 -0.8008  2.5372
  108MOL0     H14575   9.763   6.288   3.154 -1.9917 -1.0717 -0.0525
  108MOL0     H14576   9.488   6.552   2.977 -1.3137 -1.3447 -0.8024
  108MOL0     H14577  10.284   6.155   3.060  0.8814  3.2169  1.7879
  108MOL0     H14578  10.557   6.083   3.139  0.8759  1.4129  0.3509
  108MOL0     H14579  10.628   6.244   3.137 -0.0554  0.1757  3.4033
  108MOL0     H14580  10.466   6.222   3.189  0.7115  1.5951 -0.5180
  109MOL0     O14581  10.913   9.599   9.055 -0.3058 -0.0967 -0.1830
  109MOL0     C14582  10.844   9.644   8.966  1.5246 -0.8184 -0.6595
  109MOL0     O14583  10.804   9.576   8.862  0.2347 -0.3190 -0.0924
  109MOL0     C14584  10.727   9.461   8.870  0.1832 -0.2600  0.1266
  109MOL0     C14585  10.726   9.397   8.741 -0.0588  0.0855 -0.7703
  109MOL0     C14586  10.676   9.271   8.715 -0.5387 -0.6730 -0.3888
  109MOL0     C14587  10.601   9.201   8.815 -0.1609  0.2760  0.4608
  109MOL0     O14588  10.527   9.091   8.782 -0.5630 -0.3353 -0.5164
  109MOL0     C14589  10.541   8.985   8.875 -0.8454 -0.2760  0.3738
  109MOL0     C14590  10.460   8.866   8.833  0.2208 -0.4509  0.3430
  109MOL0     C14591  10.544   8.756   8.757 -0.9246  0.8202 -1.2597
  109MOL0     C14592  10.439   8.652   8.698  0.1339 -0.2133 -0.9928
  109MOL0     C14593  10.504   8.528   8.641 -0.3541 -1.1035 -0.3362
  109MOL0     C14594  10.514   8.421   8.756 -0.9110 -0.5822  0.1277
  109MOL0     C14595  10.617   8.319   8.698 -0.4016 -0.8335  0.2242
  109MOL0     C14596  10.644   8.192   8.782 -0.3981  0.5993  0.8536
  109MOL0     N14597  10.516   8.129   8.833 -0.4364 -0.0131 -0.8172
  109MOL0     C14598  10.449   8.158   8.951 -0.5476 -0.8329  0.4340
  109MOL0     C14599  10.329   8.099   8.940  0.7851  0.9213 -0.5025
  109MOL0     C14600  10.233   8.101   9.049  0.0504  0.2105  0.2293
  109MOL0     C14601  10.103   8.033   8.993 -0.5509  0.1627 -0.3488
  109MOL0     C14602   9.992   8.025   9.091 -0.1587  0.4063  0.0437
  109MOL0     C14603   9.916   8.152   9.134 -0.3347 -0.1766  0.0389
  109MOL0     O14604   9.889   8.254   9.037 -0.5705  0.1281  0.7046
  109MOL0     C14605   9.811   8.359   9.072 -0.7748 -0.4268  0.7595
  109MOL0     C14606   9.772   8.392   9.205  0.2721  0.2148 -0.3666
  109MOL0     C14607   9.688   8.498   9.232  1.1549  0.4141  0.5716
  109MOL0     C14608   9.633   8.578   9.125  0.0844 -0.0839  0.1087
  109MOL0     C14609   9.538   8.691   9.147  0.3207  0.3291  0.1283
  109MOL0     O14610   9.511   8.776   9.038 -0.0763  0.1065  0.1208
  109MOL0     C14611   9.443   8.899   9.060  0.0656  0.6525 -0.6012
  109MOL0     C14612   9.486   9.002   9.136 -0.0227 -0.4173 -0.6980
  109MOL0     C14613   9.413   9.117   9.155 -0.1202 -0.8543 -0.2039
  109MOL0     C14614   9.292   9.123   9.094  0.1763 -0.5572  0.3439
  109MOL0     O14615   9.215   9.238   9.127 -0.2901 -0.1433  0.3888
  109MOL0     C14616   9.077   9.238   9.078 -0.1355 -0.0009 -0.3465
  109MOL0     C14617   8.974   9.325   9.154  0.6336 -0.2473 -0.7484
  109MOL0     C14618   8.974   9.304   9.302  0.1183 -0.3270  0.1245
  109MOL0     C14619   8.890   9.409   9.385 -0.0555  0.6763 -0.4712
  109MOL0     C14620   8.895   9.372   9.530  0.0927 -0.3945 -0.1848
  109MOL0     C14621   8.783   9.451   9.603 -0.2455 -0.1464  0.6136
  109MOL0     C14622   8.805   9.463   9.746  1.0257 -0.5444  0.1124
  109MOL0     C14623   8.676   9.519   9.806 -0.3636  0.4176 -0.6015
  109MOL0    Cl14624   8.524   9.426   9.795  0.2744 -0.7680  0.1180
  109MOL0     C14625   9.243   9.030   9.002 -0.2414  0.0176  0.0180
  109MOL0     C14626   9.327   8.919   8.986 -0.5991 -0.7380  0.1379
  109MOL0     O14627   9.499   8.718   9.260 -0.3446 -0.0188  0.0092
  109MOL0     C14628   9.675   8.547   8.993  0.3417  0.5573 -0.5316
  109MOL0     C14629   9.757   8.441   8.971  0.3370  1.2814 -0.0779
  109MOL0     N14630  10.330   8.022   8.828  0.0624  0.8415  1.1316
  109MOL0     N14631  10.437   8.044   8.757 -0.1307  0.5870  0.3126
  109MOL0     C14632  10.595   9.273   8.944  0.3472  0.9940 -0.6454
  109MOL0     C14633  10.671   9.394   8.971  0.4383 -0.0939 -0.7653
  109MOL0     C14634  10.811   9.788   8.963 -0.1027  0.2503 -0.5235
  109MOL0     C14635  10.732   9.834   8.860 -0.3456  0.0481 -1.2256
  109MOL0     C14636  10.710   9.969   8.844  0.4856  0.4069 -0.1081
  109MOL0     C14637  10.780  10.064   8.917 -0.3106  0.0023  0.1101
  109MOL0     O14638  10.770  10.198   8.895 -0.0210 -0.5077 -0.7716
  109MOL0     C14639  10.878  10.259   8.834  0.3092 -0.5927 -0.1262
  109MOL0     C14640  10.834  10.339   8.711  0.2989  0.6571 -0.1622
  109MOL0     C14641  10.950  10.410   8.639 -0.2209 -0.5511  0.0405
  109MOL0     C14642  11.045  10.500   8.735  0.4246 -0.7670 -0.6227
  109MOL0     C14643  11.051  10.639   8.695 -0.0582 -0.4081 -0.3515
  109MOL0     C14644  11.067  10.761   8.675  0.0938  0.5031 -0.0276
  109MOL0     C14645  10.833  10.017   9.038 -0.7648 -0.8436 -0.0914
  109MOL0     C14646  10.852   9.883   9.061  0.1820 -0.1550  0.3617
  109MOL0     C14647  10.930   9.844   9.181  0.0904 -0.3343  0.8591
  109MOL0     H14648  10.786   9.448   8.666  3.2416  0.3244  1.7397
  109MOL0     H14649  10.697   9.228   8.617  0.7296  1.8794 -1.3078
  109MOL0     H14650  10.650   8.972   8.884 -0.8935 -2.8874 -1.6382
  109MOL0     H14651  10.505   9.020   8.972 -2.4416  1.1786 -0.6937
  109MOL0     H14652  10.378   8.908   8.774  1.1092 -1.5326 -1.7646
  109MOL0     H14653  10.428   8.828   8.930 -1.2162  1.2902  0.6020
  109MOL0     H14654  10.606   8.713   8.837 -0.5662  3.4294 -0.0314
  109MOL0     H14655  10.609   8.791   8.677 -1.6501 -2.2170 -3.3161
  109MOL0     H14656  10.375   8.632   8.785  3.4955  1.0283  2.0007
  109MOL0     H14657  10.374   8.697   8.622 -1.4388  1.8313  1.3810
  109MOL0     H14658  10.427   8.482   8.579 -2.9996  1.7077  0.6265
  109MOL0     H14659  10.597   8.557   8.591  0.2223 -0.5756  0.9824
  109MOL0     H14660  10.541   8.456   8.856  0.3844  3.3165 -1.3851
  109MOL0     H14661  10.415   8.380   8.774 -0.3295 -0.9495  2.9433
  109MOL0     H14662  10.712   8.362   8.666 -0.7231 -0.6990 -0.5749
  109MOL0     H14663  10.568   8.289   8.605 -0.0051  1.0189 -0.6154
  109MOL0     H14664  10.692   8.115   8.720  0.3348 -0.9796  3.2315
  109MOL0     H14665  10.711   8.218   8.865  2.1870  0.2910 -1.0260
  109MOL0     H14666  10.495   8.228   9.020 -1.4345  1.2239 -0.9791
  109MOL0     H14667  10.264   8.047   9.139 -1.2252 -1.8841 -0.5160
  109MOL0     H14668  10.212   8.206   9.073 -3.9902 -0.6960  1.5178
  109MOL0     H14669  10.078   8.073   8.894  1.4451  2.3037 -0.0639
  109MOL0     H14670  10.111   7.925   8.980 -2.3508  0.1090 -1.3794
  109MOL0     H14671  10.024   7.974   9.182  0.0320 -1.8087 -1.1853
  109MOL0     H14672   9.920   7.955   9.047  0.7517 -1.2394  1.0912
  109MOL0     H14673   9.979   8.197   9.211  0.3745 -1.2396  0.0961
  109MOL0     H14674   9.826   8.121   9.188  1.2087 -0.0921  2.8725
  109MOL0     H14675   9.821   8.347   9.291  0.8223  0.8880 -0.3243
  109MOL0     H14676   9.655   8.532   9.330 -1.9316 -2.7347  0.8356
  109MOL0     H14677   9.578   8.974   9.188 -0.2967 -1.1740 -0.6062
  109MOL0     H14678   9.445   9.195   9.223 -0.6783 -0.4873 -0.3553
  109MOL0     H14679   9.056   9.263   8.974 -1.2064  2.4340  0.3967
  109MOL0     H14680   9.043   9.136   9.099 -0.1742  0.1969  0.6013
  109MOL0     H14681   8.991   9.430   9.129  0.0449 -0.0272 -0.2525
  109MOL0     H14682   8.886   9.291   9.099  0.0349  2.5132 -1.6958
  109MOL0     H14683   8.929   9.207   9.327  1.7468 -1.8673 -2.4697
  109MOL0     H14684   9.078   9.314   9.336 -0.0026  1.3741  0.0987
  109MOL0     H14685   8.787   9.404   9.349  0.4187  1.9418 -2.1338
  109MOL0     H14686   8.931   9.509   9.366 -0.2772  1.5266  2.8163
  109MOL0     H14687   8.994   9.411   9.556  0.7585 -0.2593 -2.7180
  109MOL0     H14688   8.891   9.264   9.548 -0.7712 -0.0098  2.3588
  109MOL0     H14689   8.778   9.554   9.565  1.1270 -0.6001 -0.8844
  109MOL0     H14690   8.685   9.403   9.597 -0.6090  0.5861  0.4303
  109MOL0     H14691   8.894   9.517   9.780  1.7809 -0.7654 -1.4123
  109MOL0     H14692   8.827   9.359   9.773  1.8441 -0.1806  0.8652
  109MOL0     H14693   8.688   9.536   9.913 -1.0077  2.0003 -0.7640
  109MOL0     H14694   8.646   9.612   9.758 -1.2224  0.3183 -0.2654
  109MOL0     H14695   9.158   9.031   8.935  0.8628  0.9427 -1.4477
  109MOL0     H14696   9.308   8.843   8.911  0.8051  0.5669 -1.6248
  109MOL0     H14697   9.647   8.599   8.902 -0.4500 -0.2795 -0.7886
  109MOL0     H14698   9.764   8.410   8.867  0.5009 -1.0318  0.5498
  109MOL0     H14699  10.528   9.245   9.025 -0.1111 -0.9195 -1.6272
  109MOL0     H14700  10.663   9.444   9.067 -1.9629  4.1054 -2.8776
  109MOL0     H14701  10.675   9.768   8.797 -0.0554 -0.3332 -1.0928
  109MOL0     H14702  10.647  10.012   8.766 -2.3759 -0.2512  1.6752
  109MOL0     H14703  10.950  10.183   8.802  0.4416 -0.3146 -0.5036
  109MOL0     H14704  10.932  10.334   8.894  4.8370 -1.8062 -2.2496
  109MOL0     H14705  10.759  10.416   8.729 -0.8519 -0.5447  0.4034
  109MOL0     H14706  10.788  10.265   8.646  1.3044 -1.0026  0.9298
  109MOL0     H14707  10.914  10.475   8.559 -1.0246 -0.0081  0.8219
  109MOL0     H14708  11.011  10.335   8.588  3.6540  2.1699  0.3239
  109MOL0     H14709  11.010  10.507   8.839 -1.1480  0.5715 -1.2035
  109MOL0     H14710  11.147  10.460   8.741  0.2262 -1.1209  0.7887
  109MOL0     H14711  11.086  10.866   8.675 -1.6443  0.9142  2.5396
  109MOL0     H14712  10.880  10.088   9.105 -0.3945 -2.9077  1.9626
  109MOL0     H14713  10.954   9.928   9.249  1.2347 -0.4401  0.6147
  109MOL0     H14714  10.903   9.762   9.248  0.9816 -1.3923 -0.0377
  109MOL0     H14715  11.021   9.817   9.126 -2.1199 -4.1011 -1.3079
  110MOL0     O14716   6.697   2.510   2.867  0.0406  0.5135 -0.1717
  110MOL0     C14717   6.809   2.543   2.829 -0.0799 -1.0604 -1.7168
  110MOL0     O14718   6.846   2.556   2.706 -0.4379  0.1843  0.6759
  110MOL0     C14719   6.762   2.540   2.598 -0.5626  0.6092 -0.0358
  110MOL0     C14720   6.808   2.470   2.487 -0.4167  0.5560 -0.3313
  110MOL0     C14721   6.741   2.447   2.375 -0.0779 -0.6548  0.0679
  110MOL0     C14722   6.617   2.506   2.362  0.5801 -0.1707 -0.5968
  110MOL0     O14723   6.544   2.490   2.244  0.3341 -0.8092 -0.6171
  110MOL0     C14724   6.419   2.575   2.228 -0.1264  0.2041 -0.3370
  110MOL0     C14725   6.374   2.554   2.083  0.1033  0.0522 -1.4233
  110MOL0     C14726   6.335   2.415   2.044  0.6361 -0.3772 -0.1552
  110MOL0     C14727   6.346   2.403   1.888 -0.0099  0.9936  0.2456
  110MOL0     C14728   6.243   2.493   1.820 -0.9164 -0.3606 -0.2392
  110MOL0     C14729   6.097   2.472   1.837  0.5952  1.3148 -1.1064
  110MOL0     C14730   6.061   2.326   1.804  0.6252  0.8709  1.5352
  110MOL0     C14731   5.914   2.310   1.796  0.4589  0.0151  1.1255
  110MOL0     N14732   5.841   2.411   1.707 -0.8903  0.2635 -0.3471
  110MOL0     C14733   5.840   2.397   1.580  0.7460  0.1517  0.5450
  110MOL0     C14734   5.737   2.476   1.553  0.2481 -0.4250 -0.1842
  110MOL0     C14735   5.668   2.503   1.414  0.0560  0.6381  0.3884
  110MOL0     C14736   5.658   2.655   1.391  0.9932 -0.5482  0.6305
  110MOL0     C14737   5.571   2.677   1.266  0.0654 -0.0972 -0.2740
  110MOL0     C14738   5.516   2.819   1.275  0.4894 -0.6269 -0.1225
  110MOL0     O14739   5.613   2.926   1.273  0.5711  0.1829  0.4651
  110MOL0     C14740   5.557   3.055   1.277 -0.1985 -1.0318 -1.2241
  110MOL0     C14741   5.646   3.153   1.257 -0.3940 -0.3730 -0.8051
  110MOL0     C14742   5.609   3.285   1.250 -0.0837  0.4720 -0.6953
  110MOL0     C14743   5.478   3.325   1.277  0.5297  0.5001 -0.8803
  110MOL0     C14744   5.426   3.457   1.254 -0.2105 -0.8838  0.8304
  110MOL0     O14745   5.308   3.500   1.318 -1.0565 -0.4177 -1.1161
  110MOL0     C14746   5.267   3.637   1.320 -0.3529  0.1528  0.5620
  110MOL0     C14747   5.348   3.748   1.320  0.2484  0.0906  0.5432
  110MOL0     C14748   5.303   3.874   1.339  0.0104  0.0127 -0.5807
  110MOL0     C14749   5.171   3.904   1.380 -0.1524  0.5403 -0.0645
  110MOL0     O14750   5.144   4.035   1.413 -0.3495  0.6696  0.1171
  110MOL0     C14751   5.019   4.067   1.473  1.0436  0.6643 -0.2390
  110MOL0     C14752   5.033   4.215   1.522 -0.3095  0.2670 -0.9486
  110MOL0     C14753   4.898   4.297   1.531 -0.4750  0.4598 -0.5845
  110MOL0     C14754   4.846   4.300   1.676 -1.0083 -0.6367  0.1216
  110MOL0     C14755   4.707   4.357   1.680  0.4829  0.3422  0.7954
  110MOL0     C14756   4.693   4.496   1.609 -1.4628 -0.3929 -0.2459
  110MOL0     C14757   4.570   4.566   1.680 -0.5522  0.2472  0.2659
  110MOL0     C14758   4.533   4.691   1.617 -0.0445  0.7231  0.5529
  110MOL0    Cl14759   4.657   4.814   1.617 -0.7052 -0.1689 -0.1208
  110MOL0     C14760   5.084   3.791   1.386 -0.0806 -0.1130 -0.2059
  110MOL0     C14761   5.126   3.663   1.340 -0.8501 -0.1108  0.1150
  110MOL0     O14762   5.495   3.530   1.180 -0.1542 -1.3500 -0.3411
  110MOL0     C14763   5.384   3.231   1.314  0.1968  0.4701 -0.8343
  110MOL0     C14764   5.425   3.092   1.311 -0.4834  0.0880  0.1676
  110MOL0     N14765   5.689   2.547   1.662 -0.3245 -0.5807  0.1562
  110MOL0     N14766   5.742   2.493   1.765  0.3910  0.2662 -0.1282
  110MOL0     C14767   6.557   2.571   2.471  0.6036  0.0912  0.5819
  110MOL0     C14768   6.633   2.590   2.589 -0.3451  0.6477  0.2194
  110MOL0     C14769   6.902   2.586   2.942 -0.2137 -0.3821  1.2242
  110MOL0     C14770   7.007   2.685   2.916 -0.4071  0.5350 -0.4472
  110MOL0     C14771   7.088   2.736   3.015 -0.2398  0.3344  0.0604
  110MOL0     C14772   7.057   2.721   3.156 -0.7116 -0.1914  0.5078
  110MOL0     O14773   7.113   2.781   3.267 -0.3101  0.3563 -0.1705
  110MOL0     C14774   7.186   2.906   3.251 -0.3814 -0.1759 -0.0778
  110MOL0     C14775   7.337   2.870   3.227 -1.2267 -0.6285  0.0764
  110MOL0     C14776   7.385   2.970   3.121  0.3704 -0.2428  0.0970
  110MOL0     C14777   7.510   2.925   3.050 -0.5464  0.0034 -0.2410
  110MOL0     C14778   7.491   2.805   2.966 -0.6637 -0.3546  0.5769
  110MOL0     C14779   7.458   2.708   2.897  0.0923 -0.6619 -0.8243
  110MOL0     C14780   6.952   2.622   3.175 -0.8392 -0.0839 -0.4411
  110MOL0     C14781   6.882   2.549   3.077  0.3232 -0.6324  0.0642
  110MOL0     C14782   6.779   2.445   3.127  0.6106  0.5975 -0.4425
  110MOL0     H14783   6.898   2.413   2.510 -0.0766  1.4499  0.6275
  110MOL0     H14784   6.783   2.386   2.295 -0.0423  0.3860 -0.7210
  110MOL0     H14785   6.334   2.546   2.290  0.3668 -0.5567 -0.0049
  110MOL0     H14786   6.436   2.681   2.249 -0.7795 -0.1697  2.5059
  110MOL0     H14787   6.449   2.604   2.021 -0.8469  0.5247 -2.2170
  110MOL0     H14788   6.279   2.607   2.074 -0.2543  0.2013  1.8489
  110MOL0     H14789   6.231   2.382   2.052  0.8693 -0.9106  0.7172
  110MOL0     H14790   6.392   2.336   2.094  2.7605  0.2377 -1.4640
  110MOL0     H14791   6.440   2.443   1.851 -1.3220  3.5218 -0.5948
  110MOL0     H14792   6.322   2.297   1.881 -1.5543  1.3309  0.0349
  110MOL0     H14793   6.267   2.599   1.834  1.7118 -1.1197  1.6995
  110MOL0     H14794   6.254   2.459   1.717 -1.3244 -0.4476 -0.2549
  110MOL0     H14795   6.079   2.495   1.942 -1.8139 -0.2245 -1.1003
  110MOL0     H14796   6.054   2.557   1.783  1.2917  3.7061  1.8549
  110MOL0     H14797   6.082   2.258   1.886  2.7226  0.8608  1.0340
  110MOL0     H14798   6.102   2.307   1.704  0.7837  3.6351  0.9907
  110MOL0     H14799   5.884   2.216   1.748  0.8068  1.5513 -2.3831
  110MOL0     H14800   5.864   2.315   1.893 -0.2113  0.4569  0.7679
  110MOL0     H14801   5.898   2.328   1.520  0.4506 -0.3248  0.8000
  110MOL0     H14802   5.737   2.466   1.338 -1.7560  0.9557 -1.4982
  110MOL0     H14803   5.574   2.448   1.409  0.1521  0.0942  3.0311
  110MOL0     H14804   5.609   2.698   1.479  2.1225 -2.6684  2.3983
  110MOL0     H14805   5.753   2.708   1.389 -0.5193  2.6913  3.7490
  110MOL0     H14806   5.484   2.611   1.264 -0.6958  0.8939 -1.1322
  110MOL0     H14807   5.645   2.667   1.187  2.1160 -1.6357  1.7163
  110MOL0     H14808   5.466   2.838   1.371 -1.3538  1.7179 -1.4315
  110MOL0     H14809   5.443   2.841   1.196 -0.0702  0.4282  0.6564
  110MOL0     H14810   5.752   3.134   1.243  0.1104  0.2549  1.6262
  110MOL0     H14811   5.680   3.354   1.203  0.8257 -1.4011 -2.2090
  110MOL0     H14812   5.455   3.734   1.317  0.4605  0.5322  3.4008
  110MOL0     H14813   5.371   3.959   1.333  1.2603 -1.0226 -1.8550
  110MOL0     H14814   4.946   4.055   1.392 -2.5683 -4.5094  3.1370
  110MOL0     H14815   4.979   4.004   1.554  0.2579 -1.0508 -1.8907
  110MOL0     H14816   5.083   4.224   1.619  1.8361  0.0737 -1.9733
  110MOL0     H14817   5.089   4.271   1.447  1.4300  1.1234  0.9113
  110MOL0     H14818   4.942   4.392   1.499 -0.0435 -0.4353 -2.8408
  110MOL0     H14819   4.818   4.272   1.461 -1.5262  0.6299  0.5082
  110MOL0     H14820   4.912   4.362   1.738 -1.3799  2.2688 -2.1834
  110MOL0     H14821   4.843   4.201   1.723  2.5984 -0.9089  0.0449
  110MOL0     H14822   4.688   4.375   1.787  0.0231  2.2912  0.4215
  110MOL0     H14823   4.636   4.283   1.643 -0.0001  0.6993  0.9956
  110MOL0     H14824   4.782   4.554   1.633 -1.1457 -1.3468  1.0442
  110MOL0     H14825   4.688   4.487   1.500  0.3268 -0.6019 -0.3377
  110MOL0     H14826   4.594   4.586   1.785 -1.6696 -0.0590  0.5874
  110MOL0     H14827   4.479   4.506   1.677  1.3973 -2.9668 -0.0003
  110MOL0     H14828   4.510   4.679   1.511  4.0263 -1.5994 -0.2614
  110MOL0     H14829   4.439   4.725   1.661 -0.6115  1.7059 -1.3033
  110MOL0     H14830   4.983   3.804   1.424 -0.4213  2.0931 -1.7028
  110MOL0     H14831   5.050   3.587   1.328 -0.0717 -0.6403 -1.9699
  110MOL0     H14832   5.286   3.267   1.342  1.4380  3.6453 -0.1600
  110MOL0     H14833   5.351   3.015   1.326 -1.6771  1.1580 -0.0610
  110MOL0     H14834   6.457   2.611   2.468  0.1327 -1.1038 -0.4881
  110MOL0     H14835   6.590   2.649   2.670 -0.1084  0.5375  0.4250
  110MOL0     H14836   7.043   2.707   2.816 -1.1241  0.9276 -0.6265
  110MOL0     H14837   7.162   2.809   2.985  0.6717 -0.4905  0.2725
  110MOL0     H14838   7.170   2.951   3.349 -1.3615 -0.7153  0.0182
  110MOL0     H14839   7.136   2.964   3.173 -2.6095  0.8521  1.9953
  110MOL0     H14840   7.354   2.768   3.194  1.3635 -0.6258  1.1650
  110MOL0     H14841   7.383   2.884   3.325  0.7850 -2.3966 -0.5502
  110MOL0     H14842   7.410   3.061   3.177  4.9579 -1.0622 -0.2229
  110MOL0     H14843   7.318   3.016   3.049  1.4714 -1.7175 -1.9731
  110MOL0     H14844   7.541   3.009   2.987  1.1586  0.3434  0.9687
  110MOL0     H14845   7.590   2.915   3.125  0.2522  2.6419 -0.6486
  110MOL0     H14846   7.417   2.624   2.844 -1.1460 -1.4578  1.2799
  110MOL0     H14847   6.926   2.602   3.278 -1.4844 -0.9041 -0.7536
  110MOL0     H14848   6.781   2.354   3.065 -1.4527 -0.7670  1.3383
  110MOL0     H14849   6.800   2.417   3.231 -0.7776 -0.9521 -0.5333
  110MOL0     H14850   6.675   2.480   3.126  1.2815  2.7543  0.4400
  111MOL0     O14851   1.512  10.156   1.457  0.5416 -0.7501 -0.4972
  111MOL0     C14852   1.398  10.168   1.417  0.6869  0.2567 -0.1249
  111MOL0     O14853   1.357  10.184   1.294 -0.7553  0.5850  0.7784
  111MOL0     C14854   1.449  10.189   1.193 -0.0920 -0.3345  0.4789
  111MOL0     C14855   1.552  10.284   1.195 -0.6006 -1.0939  0.1225
  111MOL0     C14856   1.614  10.310   1.070 -0.7479  0.4465 -0.2421
  111MOL0     C14857   1.577  10.243   0.952  1.3480  0.6105 -0.0209
  111MOL0     O14858   1.618  10.260   0.823  0.4182 -0.1139  0.8184
  111MOL0     C14859   1.656  10.396   0.791 -0.3244 -0.1265  0.5319
  111MOL0     C14860   1.643  10.433   0.638 -0.4402 -0.0676 -1.2249
  111MOL0     C14861   1.644  10.581   0.627  1.1014 -0.6190 -0.1255
  111MOL0     C14862   1.692  10.626   0.483  0.1222  0.0404  0.2938
  111MOL0     C14863   1.730  10.778   0.476  0.2244  0.7820 -0.7355
  111MOL0     C14864   1.781  10.810   0.335 -0.3350 -0.3309 -1.2253
  111MOL0     C14865   1.703  10.749   0.224 -0.2840 -0.1518 -0.6615
  111MOL0     C14866   1.738  10.821   0.090 -0.0830 -0.1623 -0.7728
  111MOL0     N14867   1.708  10.738  -0.023 -0.4812 -0.0962 -0.1468
  111MOL0     C14868   1.577  10.694  -0.047 -0.3149  1.1031 -0.0802
  111MOL0     C14869   1.597  10.593  -0.140 -0.1250 -0.1831 -0.9039
  111MOL0     C14870   1.484  10.527  -0.207  0.2828 -0.8595 -0.3756
  111MOL0     C14871   1.429  10.410  -0.128 -0.0524 -0.4840 -0.1345
  111MOL0     C14872   1.350  10.438  -0.003  0.4469  0.1076  0.2212
  111MOL0     C14873   1.226  10.537  -0.036 -0.2344  0.6297 -0.0613
  111MOL0     O14874   1.259  10.663   0.019 -0.1399 -0.2188 -0.6370
  111MOL0     C14875   1.269  10.677   0.154  0.5010 -0.0718 -0.7271
  111MOL0     C14876   1.238  10.574   0.247  0.1820  0.3054  0.1415
  111MOL0     C14877   1.247  10.587   0.385  0.3189 -0.3019  0.7844
  111MOL0     C14878   1.285  10.718   0.444  0.0547  0.8289  0.4444
  111MOL0     C14879   1.307  10.748   0.590  0.4096 -0.1249  0.2958
  111MOL0     O14880   1.265  10.648   0.671 -0.0992 -0.3605  0.3983
  111MOL0     C14881   1.284  10.660   0.805 -0.0093  0.2405 -0.0486
  111MOL0     C14882   1.330  10.557   0.874 -0.5059 -0.0052 -1.0674
  111MOL0     C14883   1.335  10.560   1.018  0.5761 -0.1149 -0.7210
  111MOL0     C14884   1.285  10.668   1.097  0.3732  0.6931 -0.1112
  111MOL0     O14885   1.284  10.690   1.233 -0.6228 -0.1651 -0.4314
  111MOL0     C14886   1.337  10.590   1.319 -0.5883  0.5638  0.2721
  111MOL0     C14887   1.319  10.622   1.468  0.5111  0.3627  0.1908
  111MOL0     C14888   1.168  10.647   1.483  0.1009 -0.3590 -0.3602
  111MOL0     C14889   1.125  10.673   1.633  0.1078  0.7572 -0.3839
  111MOL0     C14890   0.972  10.711   1.630 -0.0931 -0.6120  0.5107
  111MOL0     C14891   0.918  10.758   1.771 -0.9397  0.1040  0.7587
  111MOL0     C14892   0.914  10.652   1.887  0.3983  0.1002 -0.6889
  111MOL0     C14893   0.824  10.537   1.864  0.1070 -0.4074 -0.1713
  111MOL0    Cl14894   0.817  10.451   2.020 -0.1245 -0.1165  0.2338
  111MOL0     C14895   1.242  10.779   1.027 -0.2695  1.3390  0.5687
  111MOL0     C14896   1.245  10.773   0.887 -0.4577  0.0832  0.7116
  111MOL0     O14897   1.357  10.857   0.624  0.4955  0.0540  1.2878
  111MOL0     C14898   1.309  10.816   0.349 -0.7290 -0.3076  0.6138
  111MOL0     C14899   1.320  10.795   0.216  0.1829  0.4849  0.6646
  111MOL0     N14900   1.731  10.575  -0.160 -0.7554  0.7067 -0.2475
  111MOL0     N14901   1.799  10.658  -0.085 -0.2529  0.5875  0.1139
  111MOL0     C14902   1.467  10.154   0.955  1.6767  0.1774  0.5386
  111MOL0     C14903   1.409  10.126   1.073 -0.9681 -0.1107  0.0881
  111MOL0     C14904   1.295  10.179   1.524  0.1929 -0.8698  0.3676
  111MOL0     C14905   1.166  10.158   1.480  0.5276 -0.7407  0.2413
  111MOL0     C14906   1.056  10.172   1.562 -0.5566  0.1671 -0.1128
  111MOL0     C14907   1.072  10.186   1.699  0.0724 -0.4216  1.0032
  111MOL0     O14908   0.960  10.179   1.766  0.1208  0.1525 -0.1743
  111MOL0     C14909   0.968  10.118   1.893 -0.3555  0.3939 -0.8620
  111MOL0     C14910   0.824  10.063   1.939 -0.0643  0.9540 -0.4853
  111MOL0     C14911   0.777   9.954   1.841 -0.1789  0.1208 -0.1375
  111MOL0     C14912   0.861   9.821   1.856  0.2537  0.2192  0.7608
  111MOL0     C14913   0.775   9.737   1.930 -0.6695  0.0589  0.0356
  111MOL0     C14914   0.682   9.688   1.992 -0.5364 -0.3397 -1.3394
  111MOL0     C14915   1.197  10.204   1.752 -0.2237 -0.0506 -0.1805
  111MOL0     C14916   1.312  10.203   1.669 -0.6181 -0.1595 -0.1275
  111MOL0     C14917   1.447  10.219   1.740  0.3542 -0.0347  0.1707
  111MOL0     H14918   1.579  10.331   1.290  2.6694  1.2975 -1.7603
  111MOL0     H14919   1.697  10.380   1.069 -1.5366  1.4766  1.3338
  111MOL0     H14920   1.616  10.478   0.851  2.2583  0.5135  1.5021
  111MOL0     H14921   1.763  10.405   0.812  0.6386  0.3232 -3.6877
  111MOL0     H14922   1.548  10.389   0.607  1.5796 -3.8207 -2.7899
  111MOL0     H14923   1.726  10.389   0.581  0.3893  0.9554 -0.8400
  111MOL0     H14924   1.714  10.614   0.704 -1.4919  1.8041  1.3981
  111MOL0     H14925   1.546  10.624   0.649  0.2383 -1.8554 -1.3696
  111MOL0     H14926   1.773  10.555   0.466 -0.5900 -1.9192  3.9845
  111MOL0     H14927   1.606  10.618   0.416 -0.9648  1.6744  1.3765
  111MOL0     H14928   1.646  10.843   0.505 -0.8663 -0.2456 -1.4979
  111MOL0     H14929   1.810  10.786   0.550 -1.9801 -1.9679  2.2442
  111MOL0     H14930   1.763  10.917   0.320  0.6493 -0.1003 -0.7893
  111MOL0     H14931   1.887  10.785   0.331 -0.3472 -1.3505  1.8227
  111MOL0     H14932   1.596  10.755   0.245  0.0429  1.0946  0.8752
  111MOL0     H14933   1.720  10.641   0.224 -1.7702 -0.5496  3.2702
  111MOL0     H14934   1.679  10.912   0.083 -2.7650 -1.8977 -2.9855
  111MOL0     H14935   1.846  10.841   0.094  0.2889 -2.1747  1.6803
  111MOL0     H14936   1.482  10.735  -0.015 -0.9151  0.3516 -0.8392
  111MOL0     H14937   1.405  10.595  -0.236  3.3911  2.4933 -1.7774
  111MOL0     H14938   1.518  10.500  -0.307  4.1411  0.1822  0.4791
  111MOL0     H14939   1.368  10.340  -0.186 -2.0627  0.0822  1.2126
  111MOL0     H14940   1.518  10.350  -0.104  1.9741  1.9712 -1.0618
  111MOL0     H14941   1.421  10.490   0.062  0.8061  0.3655 -0.3672
  111MOL0     H14942   1.325  10.341   0.040 -0.6077  0.2525 -0.0261
  111MOL0     H14943   1.128  10.502  -0.000  0.3802 -2.0180 -0.7114
  111MOL0     H14944   1.206  10.552  -0.142 -3.4011 -1.8001  0.0190
  111MOL0     H14945   1.196  10.479   0.217  3.5879 -1.3599  0.1574
  111MOL0     H14946   1.216  10.503   0.446 -2.3497  0.3295  0.3886
  111MOL0     H14947   1.357  10.468   0.818 -0.7716 -1.2334  0.7002
  111MOL0     H14948   1.373  10.471   1.066  1.9703  0.9493  0.2151
  111MOL0     H14949   1.302  10.487   1.306  0.6590  0.1971 -0.3425
  111MOL0     H14950   1.442  10.576   1.291 -0.5329 -0.7423  1.0579
  111MOL0     H14951   1.340  10.531   1.524 -1.7259 -0.2621  0.1226
  111MOL0     H14952   1.376  10.711   1.497  0.5373  0.4333 -0.0691
  111MOL0     H14953   1.137  10.734   1.425 -0.8860  1.6412  2.9118
  111MOL0     H14954   1.114  10.556   1.453 -1.0009 -1.7123  4.6859
  111MOL0     H14955   1.193  10.748   1.675  0.8801 -0.8805  1.4219
  111MOL0     H14956   1.141  10.576   1.680 -0.2592  0.3562 -1.0708
  111MOL0     H14957   0.915  10.621   1.605 -1.6301  0.1406  1.1420
  111MOL0     H14958   0.954  10.780   1.548  0.5892  1.8824  2.3472
  111MOL0     H14959   0.988  10.840   1.791  1.5862 -1.3666 -1.3905
  111MOL0     H14960   0.817  10.794   1.747 -0.5629  0.7738  0.1323
  111MOL0     H14961   0.877  10.718   1.967  2.4987 -0.5304  0.8896
  111MOL0     H14962   1.018  10.624   1.904  0.7715 -0.9877 -4.0763
  111MOL0     H14963   0.723  10.573   1.842  0.0973  0.2764  0.9094
  111MOL0     H14964   0.874  10.485   1.782  0.6827 -0.0948 -0.0219
  111MOL0     H14965   1.209  10.863   1.088  1.0459  3.3435 -1.3352
  111MOL0     H14966   1.227  10.869   0.839  1.9203  0.4837  0.4764
  111MOL0     H14967   1.337  10.906   0.402 -3.6127  1.1157 -0.0483
  111MOL0     H14968   1.335  10.875   0.145  2.6859  1.8539  2.5600
  111MOL0     H14969   1.417  10.109   0.870  1.2248 -1.1574  1.4671
  111MOL0     H14970   1.321  10.062   1.083  0.7249 -2.6301 -0.3203
  111MOL0     H14971   1.147  10.137   1.375  1.1691 -2.6700  0.4720
  111MOL0     H14972   0.955  10.159   1.525 -0.6834 -2.2770  0.8679
  111MOL0     H14973   1.011  10.188   1.965  1.6908 -1.7264  0.1199
  111MOL0     H14974   1.038  10.034   1.895  1.5323  1.8953  0.5958
  111MOL0     H14975   0.748  10.141   1.926 -2.1649 -0.8235  0.4455
  111MOL0     H14976   0.824  10.020   2.040 -0.8139 -0.1302 -0.9413
  111MOL0     H14977   0.798   9.986   1.739 -0.8263 -3.0696 -1.3915
  111MOL0     H14978   0.670   9.933   1.838  0.0866 -1.7515  1.3334
  111MOL0     H14979   0.898   9.778   1.763 -0.8988  1.4618 -0.3131
  111MOL0     H14980   0.952   9.825   1.917  1.3320 -2.0653 -0.5747
  111MOL0     H14981   0.601   9.646   2.048 -1.6173  1.5168 -1.3931
  111MOL0     H14982   1.207  10.223   1.858  2.1639 -0.9043 -0.1995
  111MOL0     H14983   1.512  10.131   1.730 -1.3402 -1.3528  0.3537
  111MOL0     H14984   1.498  10.308   1.703 -1.2890  1.2782  0.9683
  111MOL0     H14985   1.432  10.247   1.845  3.0462 -0.9407  0.8907
  112MOL0     O14986   9.561  10.574   1.550  0.3316  0.8865  0.6593
  112MOL0     C14987   9.599  10.674   1.606 -0.4011  0.1061  0.1606
  112MOL0     O14988   9.665  10.772   1.547 -0.2620 -0.0755 -0.3020
  112MOL0     C14989   9.699  10.760   1.414 -0.1402  0.5941 -0.7818
  112MOL0     C14990   9.598  10.787   1.315 -0.0144  0.7005 -0.8787
  112MOL0     C14991   9.626  10.768   1.182  1.0076  0.0223  0.0428
  112MOL0     C14992   9.749  10.731   1.142 -0.5722 -0.5677 -0.7502
  112MOL0     O14993   9.786  10.713   1.010 -0.1901  0.3584  0.5542
  112MOL0     C14994   9.694  10.681   0.905 -0.6415 -0.4071 -0.2344
  112MOL0     C14995   9.769  10.669   0.779 -0.0992  0.4914  0.3428
  112MOL0     C14996   9.869  10.551   0.780 -0.2266 -0.5767  0.6119
  112MOL0     C14997   9.799  10.420   0.819  0.1493  0.2434  0.2130
  112MOL0     C14998   9.893  10.308   0.799  0.1284 -1.0637  0.1145
  112MOL0     C14999   9.897  10.259   0.655 -1.1166 -0.3343  0.3214
  112MOL0     C15000   9.939  10.110   0.645  0.0974 -0.0028 -0.1806
  112MOL0     C15001  10.084  10.098   0.707  0.2263  0.5699  0.2985
  112MOL0     N15002  10.179  10.174   0.626  1.0982 -1.2511 -0.1664
  112MOL0     C15003  10.236  10.292   0.654  0.7234  0.3996 -0.1053
  112MOL0     C15004  10.302  10.339   0.546  0.4705  0.0594 -0.3115
  112MOL0     C15005  10.369  10.474   0.522 -0.4637  0.0193 -0.4519
  112MOL0     C15006  10.284  10.587   0.462 -0.4182 -0.5588  0.5595
  112MOL0     C15007  10.190  10.661   0.560 -0.8221  0.4147  0.3228
  112MOL0     C15008  10.131  10.784   0.504 -0.7897  1.2214 -0.2183
  112MOL0     O15009  10.065  10.756   0.380  0.0694 -0.0529 -0.5695
  112MOL0     C15010   9.936  10.725   0.390 -0.3847  0.3835 -0.3336
  112MOL0     C15011   9.838  10.814   0.412  0.0117  1.1287 -0.4266
  112MOL0     C15012   9.704  10.777   0.429 -0.6264  0.6018  0.0839
  112MOL0     C15013   9.667  10.638   0.439  0.0181  0.1293  0.4693
  112MOL0     C15014   9.535  10.598   0.481  0.4176  0.6653  0.4089
  112MOL0     O15015   9.517  10.459   0.495 -0.2800 -0.2491  0.8698
  112MOL0     C15016   9.390  10.412   0.489  0.1687 -0.3984  0.2994
  112MOL0     C15017   9.263  10.473   0.505 -0.1229  0.3237 -0.4920
  112MOL0     C15018   9.154  10.409   0.525  1.2195 -0.2331  0.4215
  112MOL0     C15019   9.152  10.271   0.508  0.1939  0.1115  0.0751
  112MOL0     O15020   9.041  10.194   0.504  0.7773  0.5268 -0.1687
  112MOL0     C15021   8.923  10.234   0.433 -0.6446 -0.8066  0.5673
  112MOL0     C15022   8.957  10.228   0.286 -0.1846  0.3399  0.6115
  112MOL0     C15023   8.820  10.209   0.208 -0.9083 -0.2046  0.5877
  112MOL0     C15024   8.868  10.205   0.058  0.7085  0.0393 -1.3529
  112MOL0     C15025   8.758  10.238  -0.040  0.7149 -0.8207  1.0015
  112MOL0     C15026   8.689  10.098  -0.068 -0.7059  0.1132  0.1140
  112MOL0     C15027   8.546  10.124  -0.117  0.9149  0.0438  1.2688
  112MOL0     C15028   8.461  10.001  -0.149 -0.3672  0.1469 -0.7153
  112MOL0    Cl15029   8.539   9.928  -0.286 -0.0533  0.4039  0.3753
  112MOL0     C15030   9.270  10.205   0.491 -0.7074  0.2329  0.2309
  112MOL0     C15031   9.391  10.276   0.478 -0.3454 -0.3483 -0.7883
  112MOL0     O15032   9.445  10.681   0.493 -1.5106 -0.3287 -0.0812
  112MOL0     C15033   9.770  10.544   0.409  0.9746 -0.7733 -0.1666
  112MOL0     C15034   9.902  10.584   0.397  0.5425 -0.2468  0.9800
  112MOL0     N15035  10.289  10.241   0.455  0.0706  0.5824  0.2250
  112MOL0     N15036  10.221  10.144   0.500  0.4634  0.1669 -0.5306
  112MOL0     C15037   9.848  10.701   1.238  0.8428  0.2793 -0.7632
  112MOL0     C15038   9.823  10.723   1.372 -0.7852 -0.9660 -0.5613
  112MOL0     C15039   9.575  10.693   1.749 -0.0778  0.0909  1.1616
  112MOL0     C15040   9.669  10.770   1.829  0.3747 -0.2255 -0.3825
  112MOL0     C15041   9.644  10.783   1.973  0.7790 -0.4733 -0.4706
  112MOL0     C15042   9.523  10.742   2.033  1.2262 -0.7111  0.7316
  112MOL0     O15043   9.503  10.753   2.168 -0.0778 -0.4814  0.1662
  112MOL0     C15044   9.491  10.627   2.234  0.2879  0.0316 -0.8333
  112MOL0     C15045   9.625  10.547   2.240  1.1896 -0.1189 -1.5012
  112MOL0     C15046   9.599  10.407   2.318  0.2395 -0.4861 -0.3031
  112MOL0     C15047   9.595  10.410   2.472  0.3716  0.4858 -1.0613
  112MOL0     C15048   9.712  10.481   2.521  0.2299  0.4401 -0.7624
  112MOL0     C15049   9.792  10.541   2.593  0.0341 -0.3366  0.6073
  112MOL0     C15050   9.437  10.671   1.954  0.1968  0.4513 -0.1564
  112MOL0     C15051   9.451  10.657   1.811 -0.2063 -0.8107  0.5514
  112MOL0     C15052   9.326  10.615   1.736 -0.0871  0.3744 -0.1958
  112MOL0     H15053   9.494  10.803   1.341 -0.2832 -2.6809  0.8382
  112MOL0     H15054   9.544  10.791   1.114  0.1939 -0.8262  0.7177
  112MOL0     H15055   9.647  10.586   0.931  0.1508 -0.5666  0.6866
  112MOL0     H15056   9.621  10.761   0.893 -0.1994  0.3721  1.7490
  112MOL0     H15057   9.810  10.768   0.756 -2.5703  2.1065  2.3010
  112MOL0     H15058   9.693  10.648   0.704 -1.1273 -1.1301  1.7631
  112MOL0     H15059   9.951  10.575   0.847 -0.1973 -2.0697  1.1510
  112MOL0     H15060   9.906  10.544   0.677  2.1959 -2.1485  1.5151
  112MOL0     H15061   9.755  10.420   0.919  1.6374 -0.8466  0.9129
  112MOL0     H15062   9.710  10.405   0.758  0.2192  1.3429 -0.1948
  112MOL0     H15063   9.988  10.337   0.843 -1.1242 -2.1740  3.9142
  112MOL0     H15064   9.875  10.226   0.868 -0.5817 -0.2476  0.9290
  112MOL0     H15065   9.796  10.273   0.615 -1.4497  1.3886  1.6236
  112MOL0     H15066   9.963  10.334   0.611 -1.4805  0.7258  1.5054
  112MOL0     H15067   9.942  10.067   0.545 -1.0966  0.3706 -0.3940
  112MOL0     H15068   9.859  10.053   0.694 -1.2201 -0.9397 -3.1662
  112MOL0     H15069  10.083  10.119   0.814 -1.0800 -0.7318  0.5722
  112MOL0     H15070  10.117   9.994   0.699  0.2123  0.4493  1.5695
  112MOL0     H15071  10.223  10.345   0.748  0.6425 -0.4649  0.3867
  112MOL0     H15072  10.411  10.516   0.615 -0.3304  0.6020 -0.7726
  112MOL0     H15073  10.454  10.441   0.461 -0.4458 -0.2805 -0.2706
  112MOL0     H15074  10.355  10.662   0.426  0.6037 -1.1078  1.3631
  112MOL0     H15075  10.226  10.553   0.376  1.8591  2.3063 -2.3797
  112MOL0     H15076  10.234  10.681   0.659 -1.5866  1.7035  0.4327
  112MOL0     H15077  10.106  10.593   0.576 -0.7555  0.0724 -0.7218
  112MOL0     H15078  10.219  10.844   0.476  0.5955 -0.0357  1.2509
  112MOL0     H15079  10.074  10.836   0.581  0.2353 -0.1479  1.5615
  112MOL0     H15080   9.866  10.918   0.428  2.4279  0.6286 -0.8956
  112MOL0     H15081   9.653  10.866   0.465  0.9108  2.1198 -1.2857
  112MOL0     H15082   9.242  10.579   0.496 -1.7846  0.0466 -0.2448
  112MOL0     H15083   9.054  10.449   0.534 -0.0426 -2.0148 -3.3941
  112MOL0     H15084   8.840  10.165   0.454 -2.6242  1.3170  0.0763
  112MOL0     H15085   8.891  10.326   0.483 -0.7220 -1.3246  1.5036
  112MOL0     H15086   9.016  10.316   0.259  0.7309 -0.7961 -1.2608
  112MOL0     H15087   9.029  10.147   0.272 -0.4286  0.4804 -1.8190
  112MOL0     H15088   8.763  10.117   0.224 -4.3086  1.4396 -0.9641
  112MOL0     H15089   8.743  10.282   0.235 -1.5108 -0.2730 -0.8423
  112MOL0     H15090   8.885  10.098   0.044 -3.7129 -0.9518 -0.8121
  112MOL0     H15091   8.958  10.266   0.045 -0.9572  2.8027 -0.8106
  112MOL0     H15092   8.776  10.285  -0.137 -0.8579 -0.1609  0.9887
  112MOL0     H15093   8.689  10.309   0.006  0.9145  1.9860 -2.5817
  112MOL0     H15094   8.745  10.049  -0.147 -3.9725 -1.6291 -1.3339
  112MOL0     H15095   8.679  10.035   0.021 -0.9013 -0.2381 -0.1553
  112MOL0     H15096   8.550  10.183  -0.209 -3.3135  0.4912  1.1994
  112MOL0     H15097   8.482  10.179  -0.048 -0.7191  1.2717 -1.0995
  112MOL0     H15098   8.445   9.931  -0.067  1.3229 -0.4018 -0.8246
  112MOL0     H15099   8.364  10.033  -0.189  1.2088  5.2823 -1.1499
  112MOL0     H15100   9.276  10.097   0.489  1.3170  0.2939 -2.4417
  112MOL0     H15101   9.482  10.218   0.469 -0.4959 -0.7461  0.1001
  112MOL0     H15102   9.742  10.439   0.409  0.9126 -0.7656  1.3375
  112MOL0     H15103   9.968  10.498   0.400 -2.0387 -2.3193  2.6973
  112MOL0     H15104   9.949  10.700   1.197  0.7381  0.7006 -1.0331
  112MOL0     H15105   9.903  10.691   1.438  0.0640 -0.5123 -1.3368
  112MOL0     H15106   9.761  10.813   1.791  0.1678  2.8067  2.1353
  112MOL0     H15107   9.723  10.831   2.031 -1.5825  2.4496  0.6093
  112MOL0     H15108   9.421  10.560   2.184 -1.4857  1.9449 -1.0208
  112MOL0     H15109   9.442  10.656   2.328 -0.7226 -0.3537 -1.2279
  112MOL0     H15110   9.694  10.609   2.299  1.6643 -1.0415 -1.0604
  112MOL0     H15111   9.645  10.527   2.135  2.0254 -0.6697 -1.2392
  112MOL0     H15112   9.687  10.344   2.309  1.7807  1.6372 -0.9765
  112MOL0     H15113   9.509  10.354   2.287  1.5605 -2.9986 -0.0550
  112MOL0     H15114   9.503  10.451   2.516  2.2495  0.9412  2.8989
  112MOL0     H15115   9.604  10.307   2.508  0.6448  0.7221 -0.4443
  112MOL0     H15116   9.872  10.575   2.656  0.1692  4.1879 -1.6008
  112MOL0     H15117   9.344  10.630   1.992 -0.4172  0.8969 -1.1319
  112MOL0     H15118   9.233  10.653   1.779 -0.5964 -0.5620 -0.4515
  112MOL0     H15119   9.331  10.643   1.630 -0.5752  0.2910 -0.2434
  112MOL0     H15120   9.298  10.510   1.744 -0.2951  0.5065  1.0268
  113MOL0     O15121   8.222   3.003   9.962  0.0332  0.2896 -0.3721
  113MOL0     C15122   8.283   2.977  10.065 -0.4153  0.1115  0.6499
  113MOL0     O15123   8.221   2.960  10.192 -0.4273  0.4244  0.5051
  113MOL0     C15124   8.086   2.945  10.208 -0.1875  0.4170  0.2118
  113MOL0     C15125   7.989   3.016  10.142  0.4026  0.2779  0.2799
  113MOL0     C15126   7.855   2.980  10.161  1.0796 -0.6971  0.4402
  113MOL0     C15127   7.819   2.865  10.240 -0.3730 -1.0290  0.5408
  113MOL0     O15128   7.688   2.831  10.270 -0.1270 -0.0606 -0.3602
  113MOL0     C15129   7.575   2.897  10.206  0.0544 -0.8225 -0.8326
  113MOL0     C15130   7.442   2.826  10.251 -0.1030  0.8711  0.8487
  113MOL0     C15131   7.406   2.855  10.398 -0.2064 -0.2501 -0.7462
  113MOL0     C15132   7.277   2.776  10.436  0.2186 -0.7924 -0.1017
  113MOL0     C15133   7.296   2.623  10.430 -0.3700  0.0089  0.1117
  113MOL0     C15134   7.384   2.586  10.549 -0.1839  1.1115 -0.0087
  113MOL0     C15135   7.406   2.428  10.552 -0.7892  0.0872 -0.2848
  113MOL0     C15136   7.290   2.350  10.611 -0.3242 -0.4938 -0.2893
  113MOL0     N15137   7.310   2.208  10.568  0.0645 -0.4061 -0.0366
  113MOL0     C15138   7.241   2.140  10.474 -0.1166 -0.3691  0.2364
  113MOL0     C15139   7.301   2.010  10.487  0.9041 -0.3529  0.6772
  113MOL0     C15140   7.302   1.895  10.393  0.2589 -0.0778 -0.1026
  113MOL0     C15141   7.161   1.814  10.391 -0.0573 -0.4799  0.4627
  113MOL0     C15142   7.108   1.769  10.531 -0.6610 -0.4734 -1.0062
  113MOL0     C15143   7.200   1.661  10.590 -0.2795  0.1298  0.5204
  113MOL0     O15144   7.154   1.587  10.707  0.3812 -0.8496  0.8259
  113MOL0     C15145   7.118   1.454  10.693  0.2192  0.6289 -0.9614
  113MOL0     C15146   7.035   1.407  10.587  0.5598 -0.8398 -0.1448
  113MOL0     C15147   6.988   1.274  10.592 -0.4047  0.6095 -0.3261
  113MOL0     C15148   7.047   1.172  10.685 -0.0408  0.2943 -0.2171
  113MOL0     C15149   7.001   1.025  10.687 -0.3715  0.3537  0.1744
  113MOL0     O15150   6.882   1.004  10.632 -0.7809 -0.0284  0.3418
  113MOL0     C15151   6.837   0.877  10.620  0.5635 -0.3885  0.1157
  113MOL0     C15152   6.816   0.829  10.486  0.2925  0.1532  0.2552
  113MOL0     C15153   6.748   0.709  10.473  0.5170  0.4424  1.0924
  113MOL0     C15154   6.721   0.618  10.576  0.1702  0.4152 -0.6080
  113MOL0     O15155   6.641   0.507  10.578 -0.1769  0.2018  0.5579
  113MOL0     C15156   6.558   0.487  10.462  1.3277  0.0983 -0.8009
  113MOL0     C15157   6.453   0.365  10.472 -0.4250  0.5096 -0.8703
  113MOL0     C15158   6.308   0.429  10.480 -1.1820 -0.5357  0.7138
  113MOL0     C15159   6.282   0.495  10.610 -0.1177  0.5203  0.7078
  113MOL0     C15160   6.166   0.590  10.612 -0.4057  0.3998  0.3830
  113MOL0     C15161   6.037   0.509  10.577 -0.9740 -0.6937 -0.0150
  113MOL0     C15162   5.904   0.580  10.638 -0.0211 -0.2820  0.3801
  113MOL0     C15163   5.789   0.551  10.544  0.3178  0.9798  1.6222
  113MOL0    Cl15164   5.769   0.675  10.410 -0.3956  0.0577  0.0233
  113MOL0     C15165   6.744   0.670  10.701  0.4049 -0.3556 -0.0835
  113MOL0     C15166   6.795   0.787  10.724 -0.3643 -0.4245 -0.3446
  113MOL0     O15167   7.080   0.934  10.724  0.3084  0.0650  0.8268
  113MOL0     C15168   7.129   1.223  10.785 -0.6104  0.0794  0.0153
  113MOL0     C15169   7.158   1.358  10.793  0.1544 -1.3915  0.0582
  113MOL0     N15170   7.388   2.011  10.592 -0.4371 -0.6826 -0.1733
  113MOL0     N15171   7.390   2.128  10.642 -0.1114  0.0408  0.5007
  113MOL0     C15172   7.922   2.808  10.315 -0.3201 -0.4752 -0.8113
  113MOL0     C15173   8.057   2.841  10.303  1.4877  0.0369 -0.4551
  113MOL0     C15174   8.431   2.993  10.050  0.0351 -0.0906 -0.1051
  113MOL0     C15175   8.490   3.011   9.925 -0.9511  0.4858  0.8064
  113MOL0     C15176   8.627   3.016   9.897  0.0223 -1.1531  0.2169
  113MOL0     C15177   8.719   3.013  10.003 -0.0599 -0.1459  0.1696
  113MOL0     O15178   8.854   3.039   9.971  0.5740  0.4834 -0.3751
  113MOL0     C15179   8.913   3.158  10.028 -0.2725  0.2317 -0.1898
  113MOL0     C15180   9.011   3.213   9.925 -0.2183  0.1191  0.3876
  113MOL0     C15181   8.936   3.275   9.802 -0.0956 -0.4413 -0.9691
  113MOL0     C15182   9.014   3.391   9.731  0.3260  0.3664 -0.8394
  113MOL0     C15183   9.146   3.338   9.690  0.2889  0.3380  0.9836
  113MOL0     C15184   9.260   3.298   9.654 -0.0423  0.3610 -0.2178
  113MOL0     C15185   8.665   2.995  10.127 -0.0326  0.3699 -0.3145
  113MOL0     C15186   8.525   2.979  10.155  0.0777 -0.6727  0.1112
  113MOL0     C15187   8.481   2.982  10.296 -0.5861  1.1740 -0.1571
  113MOL0     H15188   8.009   3.089  10.064  2.5765 -1.0103 -0.4609
  113MOL0     H15189   7.784   3.028  10.095  1.6414 -0.0339  0.3018
  113MOL0     H15190   7.582   3.004  10.226  0.8736 -1.3145  1.7885
  113MOL0     H15191   7.586   2.880  10.098 -3.5119  3.0076 -2.0741
  113MOL0     H15192   7.456   2.720  10.226 -3.3898  0.9721 -2.1998
  113MOL0     H15193   7.359   2.857  10.187 -0.2415 -5.5654 -2.9574
  113MOL0     H15194   7.380   2.961  10.411 -0.1258 -0.5299  3.0175
  113MOL0     H15195   7.488   2.831  10.467 -2.1347 -0.1468  1.7339
  113MOL0     H15196   7.243   2.810  10.534  1.0941 -1.2443  0.3712
  113MOL0     H15197   7.197   2.822  10.378  1.0268  1.4238  0.4350
  113MOL0     H15198   7.200   2.574  10.443 -1.8329  2.4340 -0.9531
  113MOL0     H15199   7.337   2.582  10.337  0.8084  0.5302  0.3843
  113MOL0     H15200   7.478   2.641  10.545 -0.4612  1.6996  1.1584
  113MOL0     H15201   7.338   2.622  10.641  0.4091 -0.4804  0.9497
  113MOL0     H15202   7.493   2.394  10.610 -0.8582 -0.2259 -0.3637
  113MOL0     H15203   7.419   2.400  10.447 -1.5650  4.3225 -1.7310
  113MOL0     H15204   7.285   2.361  10.719 -1.9639 -2.8283 -0.0564
  113MOL0     H15205   7.198   2.397  10.575 -0.2450 -1.0135 -1.2189
  113MOL0     H15206   7.174   2.181  10.400  0.6077 -1.7601 -1.2554
  113MOL0     H15207   7.329   1.934  10.295  0.0558 -2.3725 -1.1430
  113MOL0     H15208   7.383   1.829  10.424 -1.6399 -1.5232  2.1524
  113MOL0     H15209   7.094   1.888  10.346  1.0352  1.6958  2.2032
  113MOL0     H15210   7.175   1.727  10.327  4.6415  0.6927 -0.4202
  113MOL0     H15211   7.010   1.720  10.531 -0.2456 -1.3391  0.0791
  113MOL0     H15212   7.087   1.844  10.607  1.0632 -1.6894  0.7849
  113MOL0     H15213   7.295   1.708  10.619 -0.8220  1.6882 -0.1276
  113MOL0     H15214   7.229   1.589  10.513 -0.2593  0.9131 -0.2179
  113MOL0     H15215   7.009   1.471  10.502 -0.5651  0.0256  0.8139
  113MOL0     H15216   6.915   1.235  10.522 -1.6324  2.4870 -0.1771
  113MOL0     H15217   6.823   0.900  10.404 -4.0014  1.5554  0.8357
  113MOL0     H15218   6.701   0.698  10.376 -0.0794  3.7203  0.8859
  113MOL0     H15219   6.500   0.574  10.429  0.4071 -1.0697 -2.4319
  113MOL0     H15220   6.622   0.473  10.374 -1.8431 -1.4797 -3.0841
  113MOL0     H15221   6.463   0.302  10.383  1.0615  0.8147 -0.9460
  113MOL0     H15222   6.473   0.311  10.565  2.0895  2.2874 -0.2924
  113MOL0     H15223   6.297   0.492  10.392  0.8699 -3.2874 -1.6956
  113MOL0     H15224   6.246   0.341  10.459  0.1973 -1.1928 -0.7515
  113MOL0     H15225   6.377   0.545  10.633 -0.3184  2.8220 -2.6863
  113MOL0     H15226   6.267   0.405  10.670  0.7876 -1.3453 -1.6914
  113MOL0     H15227   6.176   0.677  10.546 -0.2042 -2.2094 -3.2931
  113MOL0     H15228   6.152   0.618  10.717 -2.5025 -0.0417  0.2783
  113MOL0     H15229   6.028   0.511  10.468  1.7344  0.5160 -0.3102
  113MOL0     H15230   6.044   0.407  10.617 -2.5014 -0.2827  1.4011
  113MOL0     H15231   5.913   0.689  10.638 -3.8901  0.1927  0.3335
  113MOL0     H15232   5.878   0.547  10.739 -1.2971 -1.9897 -0.4534
  113MOL0     H15233   5.809   0.451  10.506 -2.3104  0.8229  0.4640
  113MOL0     H15234   5.702   0.554  10.609  0.1038  0.5730  1.3535
  113MOL0     H15235   6.701   0.613  10.782 -2.0638 -0.5875 -1.4735
  113MOL0     H15236   6.785   0.831  10.823 -0.3448 -0.4732 -0.3207
  113MOL0     H15237   7.181   1.164  10.860 -0.9243  1.3568  1.2742
  113MOL0     H15238   7.221   1.366  10.882 -1.3266 -0.7698  1.0976
  113MOL0     H15239   7.887   2.729  10.380  2.7613 -2.2083 -1.0996
  113MOL0     H15240   8.132   2.797  10.369 -1.2256 -3.0451  0.8451
  113MOL0     H15241   8.423   3.019   9.840 -1.7637  3.2043  1.6334
  113MOL0     H15242   8.666   3.026   9.796 -0.2443 -1.6426  0.0619
  113MOL0     H15243   8.963   3.134  10.123 -2.4275  1.0582  1.2301
  113MOL0     H15244   8.837   3.233  10.052  0.8828  0.7434  2.2185
  113MOL0     H15245   9.075   3.133   9.887 -1.0690 -1.6943  2.5715
  113MOL0     H15246   9.062   3.293   9.981  0.7532 -0.0271 -0.2697
  113MOL0     H15247   8.841   3.319   9.834  1.4534  0.6930  2.5622
  113MOL0     H15248   8.908   3.193   9.736  1.5895 -2.8165  1.0953
  113MOL0     H15249   8.952   3.423   9.646  0.8583  3.4862 -0.1923
  113MOL0     H15250   9.026   3.483   9.790 -2.8850 -0.0367  0.6513
  113MOL0     H15251   9.358   3.255   9.653 -0.3299 -0.3015 -0.0861
  113MOL0     H15252   8.729   2.989  10.215 -1.2141  1.6399  0.6743
  113MOL0     H15253   8.427   2.889  10.318  0.9073 -0.3729 -2.4990
  113MOL0     H15254   8.567   2.966  10.361  0.8509  1.6564 -1.8433
  113MOL0     H15255   8.419   3.072  10.308 -1.6972  0.2636  1.3215
  114MOL0     O15256  10.903   9.330   1.540  1.0257  0.5220 -0.1876
  114MOL0     C15257  10.943   9.296   1.650  0.0452  1.4444  0.3358
  114MOL0     O15258  10.878   9.301   1.770 -0.6773 -0.2278 -0.3248
  114MOL0     C15259  10.748   9.353   1.774 -0.6055  0.0651  0.4696
  114MOL0     C15260  10.710   9.440   1.885 -0.6112 -0.2353  0.5163
  114MOL0     C15261  10.587   9.482   1.892 -0.0404  0.7357 -0.0089
  114MOL0     C15262  10.490   9.449   1.790  0.3527  0.4567 -0.1168
  114MOL0     O15263  10.360   9.491   1.829  0.1432  0.5770  0.8773
  114MOL0     C15264  10.304   9.583   1.722 -0.1762  0.4547 -0.5551
  114MOL0     C15265  10.173   9.638   1.775  0.0460 -0.0763 -1.0261
  114MOL0     C15266  10.114   9.754   1.685  0.5416  0.3282  0.1045
  114MOL0     C15267  10.203   9.880   1.682  0.7926 -0.9579 -1.4229
  114MOL0     C15268  10.120  10.004   1.643  0.8557 -0.5887  0.0550
  114MOL0     C15269  10.209  10.131   1.667  0.7796  1.0416  0.1413
  114MOL0     C15270  10.348  10.151   1.598  0.8041 -0.0704  0.6257
  114MOL0     C15271  10.462  10.193   1.696 -0.5409  0.2033 -0.7436
  114MOL0     N15272  10.444  10.332   1.751 -0.3772 -0.3698 -0.3956
  114MOL0     C15273  10.335  10.383   1.821 -0.7831 -0.0314  0.0472
  114MOL0     C15274  10.366  10.513   1.849 -0.5847  0.4083 -0.2507
  114MOL0     C15275  10.276  10.612   1.915 -0.1376  0.4538 -0.8371
  114MOL0     C15276  10.174  10.668   1.820  0.1302  0.3112  0.0766
  114MOL0     C15277  10.246  10.745   1.702 -0.3553  0.0244 -0.4871
  114MOL0     C15278  10.270  10.670   1.569  0.1366 -0.1175  0.6324
  114MOL0     O15279  10.145  10.610   1.530 -0.9774  0.4050 -0.4078
  114MOL0     C15280  10.143  10.515   1.429 -1.2314 -0.0539 -0.1765
  114MOL0     C15281  10.045  10.421   1.434 -0.0687  0.4495  0.4363
  114MOL0     C15282  10.037  10.319   1.338  0.2686  0.7832  0.1364
  114MOL0     C15283  10.134  10.306   1.229 -0.1251  0.3309 -0.9413
  114MOL0     C15284  10.116  10.198   1.130 -0.4392 -1.0364 -0.7031
  114MOL0     O15285  10.046  10.087   1.169 -0.3783 -0.2511 -0.4163
  114MOL0     C15286  10.015   9.991   1.076 -0.0265 -0.2070 -0.1854
  114MOL0     C15287  10.096   9.887   1.033  0.3106 -0.8212 -0.1591
  114MOL0     C15288  10.046   9.787   0.952  0.4259 -0.5761  1.2012
  114MOL0     C15289   9.917   9.794   0.906  0.2238  0.6493  0.8916
  114MOL0     O15290   9.871   9.702   0.806 -0.1483 -0.7440 -0.9001
  114MOL0     C15291   9.885   9.560   0.832  0.6628  0.6394 -0.0143
  114MOL0     C15292   9.804   9.485   0.733 -0.3014 -0.5191 -0.3154
  114MOL0     C15293   9.669   9.541   0.688  0.2746 -0.6557  0.4083
  114MOL0     C15294   9.568   9.527   0.801  0.3712 -0.0057  0.0046
  114MOL0     C15295   9.425   9.558   0.766 -0.5950  0.6783 -0.0434
  114MOL0     C15296   9.364   9.436   0.690 -0.2141 -1.0099  0.4802
  114MOL0     C15297   9.228   9.469   0.618 -0.3003  0.2803  0.3323
  114MOL0     C15298   9.164   9.375   0.515 -0.1624 -0.0857 -0.4603
  114MOL0    Cl15299   8.984   9.397   0.509 -0.5532 -0.1855 -0.0439
  114MOL0     C15300   9.839   9.914   0.935 -1.5083  1.2112  0.2368
  114MOL0     C15301   9.888  10.004   1.024  0.1776  0.3192  0.0797
  114MOL0     O15302  10.168  10.214   1.023 -0.2171 -0.2376 -0.7918
  114MOL0     C15303  10.227  10.413   1.219  0.0182 -0.4498 -0.2641
  114MOL0     C15304  10.232  10.507   1.316 -0.4604 -0.3587 -0.6818
  114MOL0     N15305  10.483  10.545   1.790  0.1835  0.1457 -0.9874
  114MOL0     N15306  10.528  10.435   1.730 -0.0261 -0.4804  0.3754
  114MOL0     C15307  10.515   9.356   1.688  0.0786 -0.3113  0.0547
  114MOL0     C15308  10.653   9.315   1.678  0.6947  0.4228  0.6598
  114MOL0     C15309  11.076   9.229   1.648  0.0266  0.8753 -0.5361
  114MOL0     C15310  11.099   9.120   1.553  0.0857 -0.6307  0.9262
  114MOL0     C15311  11.216   9.044   1.555 -0.6818 -0.4933 -0.0880
  114MOL0     C15312  11.328   9.081   1.636  0.1679 -0.1659 -0.0530
  114MOL0     O15313  11.448   9.012   1.642  0.2630 -0.5568 -0.5026
  114MOL0     C15314  11.556   9.069   1.721  0.1890 -0.3615  0.0158
  114MOL0     C15315  11.684   8.979   1.688  0.3694 -0.3228  0.9453
  114MOL0     C15316  11.665   8.824   1.704  0.0512 -0.0248 -0.1088
  114MOL0     C15317  11.799   8.748   1.698 -0.1361 -0.6389  0.2631
  114MOL0     C15318  11.872   8.760   1.560  1.5074 -0.6340 -0.2726
  114MOL0     C15319  11.898   8.790   1.445 -0.1268 -0.3437  0.1835
  114MOL0     C15320  11.304   9.207   1.711 -0.2319  1.5281 -0.5096
  114MOL0     C15321  11.181   9.275   1.730 -0.6472  0.0312  0.0196
  114MOL0     C15322  11.176   9.395   1.821  0.6110 -0.3950 -0.6128
  114MOL0     H15323  10.783   9.453   1.965  2.3175 -1.5924 -1.7248
  114MOL0     H15324  10.550   9.546   1.973 -3.6122 -2.3215  1.0558
  114MOL0     H15325  10.380   9.656   1.693 -0.4138  1.0274  0.2257
  114MOL0     H15326  10.269   9.523   1.637 -3.3011  1.1727  0.1075
  114MOL0     H15327  10.195   9.674   1.876  1.2131 -0.3289 -1.1722
  114MOL0     H15328  10.092   9.565   1.785  0.4981 -0.3281  1.2422
  114MOL0     H15329  10.011   9.773   1.718 -0.3758 -0.5481 -2.0560
  114MOL0     H15330  10.102   9.708   1.586 -0.6192 -1.1333  0.8752
  114MOL0     H15331  10.241   9.896   1.783  0.8620  3.2619 -1.9488
  114MOL0     H15332  10.300   9.878   1.632  0.7604 -0.1429 -1.5398
  114MOL0     H15333  10.089   9.982   1.541  1.4372 -1.4735  0.0492
  114MOL0     H15334  10.030  10.002   1.706  0.3121 -0.0181 -0.6947
  114MOL0     H15335  10.141  10.217   1.661 -1.8901 -0.8934  0.8590
  114MOL0     H15336  10.229  10.124   1.774  4.5135  0.0415 -0.5007
  114MOL0     H15337  10.349  10.222   1.515 -2.6479  0.3345  0.8166
  114MOL0     H15338  10.365  10.056   1.546  0.7680  0.0601  0.3778
  114MOL0     H15339  10.473  10.126   1.782 -3.7854  0.3843 -0.0903
  114MOL0     H15340  10.557  10.183   1.642 -0.5699 -1.6084 -0.5241
  114MOL0     H15341  10.250  10.320   1.841 -1.1464 -0.0724 -1.5032
  114MOL0     H15342  10.215  10.558   1.988  0.6375 -1.2047 -1.3662
  114MOL0     H15343  10.328  10.693   1.967 -0.2258 -0.5942  0.9767
  114MOL0     H15344  10.104  10.591   1.786 -0.0316  1.9764 -3.8774
  114MOL0     H15345  10.120  10.744   1.877  0.8573 -0.9602  2.6748
  114MOL0     H15346  10.347  10.780   1.727 -0.3514  0.1714 -0.6955
  114MOL0     H15347  10.217  10.850   1.686  1.5362  0.8145  0.7815
  114MOL0     H15348  10.352  10.598   1.573  2.1367  1.9065 -1.1375
  114MOL0     H15349  10.304  10.741   1.493 -0.7020  2.3278  2.4387
  114MOL0     H15350   9.971  10.407   1.513 -2.1437 -2.2540 -1.8085
  114MOL0     H15351   9.960  10.242   1.343 -0.3529  1.4303  0.9511
  114MOL0     H15352  10.193   9.874   1.079  0.0376  0.4390  0.8146
  114MOL0     H15353  10.103   9.705   0.911  0.6063  0.8851 -1.7490
  114MOL0     H15354   9.991   9.536   0.846 -0.0915 -1.1344  4.0131
  114MOL0     H15355   9.844   9.536   0.931  1.5848 -2.4668 -0.3027
  114MOL0     H15356   9.871   9.485   0.647 -0.7409  0.0839 -0.6722
  114MOL0     H15357   9.775   9.388   0.774 -1.4118  0.8775  2.5101
  114MOL0     H15358   9.668   9.649   0.670  0.6765 -0.9007 -1.1878
  114MOL0     H15359   9.647   9.477   0.603  0.8009 -2.9523  1.9095
  114MOL0     H15360   9.598   9.601   0.875 -0.1825  1.0603 -0.7970
  114MOL0     H15361   9.573   9.428   0.846 -3.9476  0.2913  1.5903
  114MOL0     H15362   9.410   9.651   0.710 -1.3421  0.6384  0.0752
  114MOL0     H15363   9.364   9.574   0.855  1.0985  0.4516  1.1981
  114MOL0     H15364   9.431   9.406   0.608 -2.3910 -0.0801 -1.7652
  114MOL0     H15365   9.366   9.358   0.766  3.3404 -0.2513  1.3726
  114MOL0     H15366   9.243   9.561   0.561  1.4702  0.1719  0.5479
  114MOL0     H15367   9.160   9.487   0.702  2.6543  3.7039  2.3395
  114MOL0     H15368   9.206   9.381   0.414  1.6872 -0.0463  0.2614
  114MOL0     H15369   9.191   9.271   0.538 -1.8847  0.0858  2.9489
  114MOL0     H15370   9.750   9.918   0.873 -1.7976  2.8985  0.7063
  114MOL0     H15371   9.837  10.094   1.056 -0.8949 -0.6973  1.3170
  114MOL0     H15372  10.297  10.433   1.138  3.2517 -0.8329  2.2269
  114MOL0     H15373  10.317  10.574   1.310 -0.3501 -0.4341  0.0130
  114MOL0     H15374  10.439   9.310   1.626 -0.9603 -0.2938  1.2859
  114MOL0     H15375  10.673   9.249   1.594  0.4932  3.8051 -2.2964
  114MOL0     H15376  11.024   9.090   1.481  0.6202 -0.3993  0.2650
  114MOL0     H15377  11.231   8.953   1.498 -2.5375 -0.7485 -0.2480
  114MOL0     H15378  11.536   9.073   1.829  3.7017  0.3921  0.7698
  114MOL0     H15379  11.573   9.173   1.690  1.8675 -0.9316 -1.0745
  114MOL0     H15380  11.762   9.028   1.747 -0.1514  0.6426  0.8646
  114MOL0     H15381  11.719   9.012   1.589  0.8603  1.3457  1.6420
  114MOL0     H15382  11.588   8.785   1.638  1.2495 -2.8074  0.0131
  114MOL0     H15383  11.625   8.808   1.804  0.1304 -0.9717 -0.2254
  114MOL0     H15384  11.866   8.771   1.782  4.0356 -4.9413 -1.4365
  114MOL0     H15385  11.771   8.642   1.709  0.4301 -0.5417  4.1065
  114MOL0     H15386  11.926   8.823   1.348 -2.9320  1.8746 -0.0206
  114MOL0     H15387  11.385   9.266   1.751 -2.2086  4.7546 -0.8776
  114MOL0     H15388  11.094   9.386   1.893  0.8210 -0.5892 -0.4015
  114MOL0     H15389  11.275   9.402   1.866  1.4926  2.8971 -2.6469
  114MOL0     H15390  11.162   9.484   1.758  0.4875  1.1073  1.4596
  115MOL0     O15391   7.559   4.951   9.569 -0.1889  0.3578 -1.0445
  115MOL0     C15392   7.475   4.995   9.497 -0.7814  0.3060  0.3395
  115MOL0     O15393   7.489   5.111   9.435  0.6987 -0.0275  0.3780
  115MOL0     C15394   7.615   5.165   9.438  0.6457 -1.1977 -0.2805
  115MOL0     C15395   7.720   5.150   9.349  0.0897  0.9301 -0.4081
  115MOL0     C15396   7.831   5.229   9.358  0.6183 -0.7899 -0.3941
  115MOL0     C15397   7.843   5.330   9.454 -0.8435  0.9671 -0.2997
  115MOL0     O15398   7.972   5.403   9.475 -0.1456  0.5387  0.3201
  115MOL0     C15399   8.081   5.418   9.380  0.8636 -0.1131 -0.8214
  115MOL0     C15400   8.032   5.503   9.258  0.2695 -0.1850  0.5547
  115MOL0     C15401   8.042   5.662   9.276  0.3367  0.0230  1.1386
  115MOL0     C15402   7.907   5.708   9.335 -0.4864  0.4121  0.8725
  115MOL0     C15403   7.876   5.858   9.319  0.0122 -0.0638 -1.5925
  115MOL0     C15404   7.735   5.891   9.373 -0.2943 -0.3120 -0.0853
  115MOL0     C15405   7.717   6.046   9.355  0.3060  0.5988 -1.0849
  115MOL0     C15406   7.576   6.087   9.413  0.7813 -0.5968 -0.0138
  115MOL0     N15407   7.500   6.201   9.345 -0.8006 -0.2156  0.3943
  115MOL0     C15408   7.489   6.235   9.215  1.0455  0.5139  0.2646
  115MOL0     C15409   7.390   6.330   9.219  0.0145 -0.1149  0.4232
  115MOL0     C15410   7.329   6.396   9.104  0.4599 -0.1181  0.3316
  115MOL0     C15411   7.398   6.526   9.072  0.1935 -0.5806  1.1465
  115MOL0     C15412   7.335   6.636   9.165 -0.5256  0.4574 -0.2320
  115MOL0     C15413   7.418   6.768   9.146 -0.2140  0.0003  1.8573
  115MOL0     O15414   7.516   6.763   9.250  0.3762 -0.3445 -0.6091
  115MOL0     C15415   7.609   6.866   9.246 -1.4516 -0.1361  0.2610
  115MOL0     C15416   7.687   6.866   9.358 -0.0658  0.3160  0.5370
  115MOL0     C15417   7.785   6.964   9.373  0.0911  0.3562  1.2717
  115MOL0     C15418   7.797   7.075   9.283  0.2980  0.2638  0.2833
  115MOL0     C15419   7.889   7.188   9.314  0.5470  0.5443  0.1083
  115MOL0     O15420   7.977   7.164   9.404  1.3691  0.6390 -0.4422
  115MOL0     C15421   8.089   7.242   9.402  0.3660  0.1024 -0.0403
  115MOL0     C15422   8.134   7.279   9.529  0.3375  0.0401  1.0766
  115MOL0     C15423   8.247   7.354   9.551 -0.0485  0.1889  0.1655
  115MOL0     C15424   8.345   7.362   9.448 -0.1518  0.6067 -0.4629
  115MOL0     O15425   8.461   7.420   9.500  0.0838 -0.9011  0.5011
  115MOL0     C15426   8.567   7.461   9.410  0.2379 -0.4552 -0.0375
  115MOL0     C15427   8.692   7.473   9.501 -0.7608  0.3481  0.5428
  115MOL0     C15428   8.751   7.616   9.468  0.1081  0.6390  0.1359
  115MOL0     C15429   8.890   7.637   9.534 -0.8492 -0.4231 -0.1920
  115MOL0     C15430   8.941   7.777   9.497  0.4122 -0.9045 -0.2396
  115MOL0     C15431   9.089   7.806   9.543  0.3317 -1.0806 -0.1473
  115MOL0     C15432   9.128   7.952   9.494  0.3775  1.4270  0.0068
  115MOL0     C15433   9.174   7.967   9.353 -0.4959 -0.7730  0.5501
  115MOL0    Cl15434   9.044   8.058   9.251  0.2821  0.4748 -0.0948
  115MOL0     C15435   8.317   7.316   9.317 -0.0354  0.2093 -0.6207
  115MOL0     C15436   8.186   7.258   9.294 -0.2245 -0.9605  0.1196
  115MOL0     O15437   7.876   7.290   9.251  0.2094 -0.0356 -0.1705
  115MOL0     C15438   7.721   7.064   9.154  1.1870 -0.3533  0.0713
  115MOL0     C15439   7.626   6.963   9.140  0.6677  0.0570  0.4436
  115MOL0     N15440   7.357   6.372   9.349  0.9834  0.1206 -0.0239
  115MOL0     N15441   7.423   6.292   9.427  0.0219 -1.2124  0.5572
  115MOL0     C15442   7.741   5.343   9.544  1.0417  1.4483  0.1353
  115MOL0     C15443   7.629   5.265   9.536 -0.1031 -0.2551 -0.3940
  115MOL0     C15444   7.362   4.909   9.464  0.2971  0.3628  0.3156
  115MOL0     C15445   7.269   4.964   9.382  1.4473 -0.0440  0.3748
  115MOL0     C15446   7.164   4.888   9.330  0.9986 -0.1581 -0.4918
  115MOL0     C15447   7.148   4.753   9.373 -0.4851  0.1858  0.0783
  115MOL0     O15448   7.051   4.665   9.332  0.0193 -0.4848  0.2015
  115MOL0     C15449   6.971   4.691   9.219  0.3650  1.0180 -0.0916
  115MOL0     C15450   6.843   4.628   9.259  0.7493 -0.0165  0.4486
  115MOL0     C15451   6.732   4.649   9.155  0.5715  0.6719 -0.7963
  115MOL0     C15452   6.658   4.516   9.131  0.4984 -0.1328  0.0482
  115MOL0     C15453   6.594   4.515   8.999  0.6037 -0.0588  0.5436
  115MOL0     C15454   6.538   4.518   8.894  0.2176 -0.3902 -0.5189
  115MOL0     C15455   7.241   4.704   9.465  0.4258 -0.3442 -0.2844
  115MOL0     C15456   7.353   4.770   9.511  0.3856 -0.8854  0.0399
  115MOL0     C15457   7.450   4.699   9.591 -0.8979  0.7522 -0.9086
  115MOL0     H15458   7.702   5.079   9.269 -1.4902 -0.3197  0.9734
  115MOL0     H15459   7.917   5.221   9.293 -0.3315 -1.7193 -1.6033
  115MOL0     H15460   8.170   5.465   9.423  0.6820 -1.6625  1.4181
  115MOL0     H15461   8.111   5.319   9.347  1.7701  0.3818 -1.5268
  115MOL0     H15462   7.936   5.466   9.222  0.2354 -2.5442  2.7964
  115MOL0     H15463   8.090   5.478   9.168 -1.8577  2.1100 -1.6209
  115MOL0     H15464   8.044   5.705   9.175 -4.9188 -0.2166  0.6329
  115MOL0     H15465   8.127   5.703   9.330  0.6695  1.2375 -0.2332
  115MOL0     H15466   7.830   5.652   9.282  2.7116 -1.2772 -2.4790
  115MOL0     H15467   7.898   5.682   9.441 -0.8495 -0.5723  0.6103
  115MOL0     H15468   7.949   5.915   9.377 -1.0006  1.1381 -1.4602
  115MOL0     H15469   7.881   5.880   9.212 -2.1569  2.3618 -1.2797
  115MOL0     H15470   7.666   5.839   9.306 -1.4622 -1.0213  1.5816
  115MOL0     H15471   7.724   5.852   9.475  5.2295 -1.2796  0.4879
  115MOL0     H15472   7.729   6.079   9.251  3.1902  1.2309 -0.6333
  115MOL0     H15473   7.793   6.105   9.406  0.6076 -0.4108 -0.3477
  115MOL0     H15474   7.514   5.997   9.412  0.6465 -0.7005  3.7170
  115MOL0     H15475   7.582   6.126   9.515 -1.8038  0.8567 -0.3368
  115MOL0     H15476   7.530   6.191   9.124  1.2376 -3.8229  2.1918
  115MOL0     H15477   7.341   6.324   9.022 -1.1335  1.1960 -1.1423
  115MOL0     H15478   7.224   6.420   9.123  1.0149  2.2560  0.7204
  115MOL0     H15479   7.503   6.502   9.092  0.1868 -0.9376  0.7520
  115MOL0     H15480   7.394   6.558   8.968  0.2257 -1.1357  0.9728
  115MOL0     H15481   7.331   6.613   9.271 -1.8247 -0.1514 -0.4010
  115MOL0     H15482   7.228   6.645   9.148 -0.3532  1.4114 -0.9366
  115MOL0     H15483   7.361   6.861   9.157  0.3279  0.5495  0.3243
  115MOL0     H15484   7.445   6.770   9.040 -1.2985  0.3612  1.5752
  115MOL0     H15485   7.677   6.791   9.436  1.9631 -0.1629  0.4033
  115MOL0     H15486   7.847   6.960   9.462  1.7336 -1.5779  0.1124
  115MOL0     H15487   8.058   7.259   9.604  0.0508  0.7401  0.9814
  115MOL0     H15488   8.284   7.396   9.643  1.7093 -1.3079  0.2061
  115MOL0     H15489   8.594   7.395   9.327 -3.1938 -0.8095 -1.0361
  115MOL0     H15490   8.536   7.556   9.365  1.9248  0.7059  1.1487
  115MOL0     H15491   8.675   7.470   9.609 -3.9554  1.7926  0.1961
  115MOL0     H15492   8.768   7.404   9.463 -1.4765  0.9052 -2.1209
  115MOL0     H15493   8.770   7.610   9.360  0.0104 -0.2618  0.1579
  115MOL0     H15494   8.678   7.696   9.480 -0.7434  0.1978 -1.6679
  115MOL0     H15495   8.960   7.565   9.490  0.1449  1.8944 -2.7403
  115MOL0     H15496   8.868   7.619   9.639 -4.6532  1.2185 -0.5328
  115MOL0     H15497   8.878   7.852   9.544 -1.6449 -0.7792 -2.9372
  115MOL0     H15498   8.944   7.796   9.389  1.2824  2.7467  0.3177
  115MOL0     H15499   9.077   7.807   9.652 -1.1493 -0.0219 -0.2849
  115MOL0     H15500   9.158   7.728   9.509 -0.0364  0.0372 -3.8605
  115MOL0     H15501   9.217   7.972   9.553  0.1953  2.5048 -0.0672
  115MOL0     H15502   9.058   8.030   9.524 -1.2776 -0.1101  0.3374
  115MOL0     H15503   9.258   8.036   9.366 -4.0175  3.7219  2.3284
  115MOL0     H15504   9.208   7.872   9.311 -0.7788  0.0118 -1.5920
  115MOL0     H15505   8.401   7.323   9.248  3.4587 -1.1559  3.0914
  115MOL0     H15506   8.160   7.228   9.193  0.5138 -4.4977  0.8150
  115MOL0     H15507   7.727   7.147   9.085 -0.0060  1.2678  1.7982
  115MOL0     H15508   7.559   6.959   9.055  0.3223  0.5603  0.6825
  115MOL0     H15509   7.739   5.406   9.632  1.1073 -0.1340  1.2986
  115MOL0     H15510   7.550   5.291   9.605 -0.6567 -1.6116 -0.4794
  115MOL0     H15511   7.271   5.068   9.351 -0.9434  0.1354  0.6743
  115MOL0     H15512   7.092   4.950   9.277 -2.5361  0.7954  4.6522
  115MOL0     H15513   7.012   4.653   9.125  0.8900  4.5805 -1.4649
  115MOL0     H15514   6.957   4.796   9.191  0.0018 -0.1166 -5.1208
  115MOL0     H15515   6.819   4.678   9.353  1.2349 -0.7429  0.9726
  115MOL0     H15516   6.856   4.524   9.289 -1.0132 -0.3574  0.1377
  115MOL0     H15517   6.774   4.694   9.065  0.4275 -1.6885 -2.1377
  115MOL0     H15518   6.663   4.724   9.194  0.3165  0.9710 -1.7839
  115MOL0     H15519   6.726   4.432   9.142  0.4302 -0.3943 -1.3368
  115MOL0     H15520   6.573   4.519   9.200  0.3289 -0.0965 -0.1611
  115MOL0     H15521   6.493   4.544   8.800 -0.8461  1.8591  0.5469
  115MOL0     H15522   7.219   4.608   9.511  1.2192  0.1117  1.1213
  115MOL0     H15523   7.467   4.733   9.694  2.5440 -0.0419 -1.0877
  115MOL0     H15524   7.427   4.593   9.601 -1.9872  1.2144  3.8766
  115MOL0     H15525   7.552   4.705   9.552 -0.3369  2.7105  0.6454
  116MOL0     O15526  10.349   7.596   3.934  0.0137  0.5878 -0.3938
  116MOL0     C15527  10.438   7.683   3.926 -0.5547  0.6461  0.5379
  116MOL0     O15528  10.494   7.759   4.027  0.1206  0.8975 -0.5610
  116MOL0     C15529  10.460   7.709   4.152  0.2788  0.4918 -0.0474
  116MOL0     C15530  10.362   7.759   4.233 -0.7791 -0.0718 -0.0392
  116MOL0     C15531  10.330   7.707   4.364 -0.0718 -0.8964  0.2764
  116MOL0     C15532  10.408   7.598   4.414  0.8915 -0.2949 -0.7405
  116MOL0     O15533  10.380   7.520   4.526 -0.0917 -0.0135 -0.5476
  116MOL0     C15534  10.245   7.505   4.565 -0.8099 -0.1358 -0.3429
  116MOL0     C15535  10.271   7.414   4.685 -0.6684 -0.6260  0.5310
  116MOL0     C15536  10.138   7.399   4.760  0.4917 -1.4487  0.2936
  116MOL0     C15537  10.024   7.323   4.694  1.1495 -0.5588 -0.1213
  116MOL0     C15538   9.909   7.410   4.650 -0.1855  0.6545  0.0228
  116MOL0     C15539   9.791   7.317   4.611 -0.5305  0.4592 -0.2050
  116MOL0     C15540   9.674   7.391   4.554 -0.1464 -0.8861  0.7318
  116MOL0     C15541   9.563   7.311   4.505 -0.1499 -0.6154  0.6351
  116MOL0     N15542   9.462   7.395   4.428 -0.0252 -0.6929 -0.5069
  116MOL0     C15543   9.484   7.455   4.308  0.0273 -0.3053  0.3064
  116MOL0     C15544   9.371   7.482   4.258 -0.2354 -0.0314  0.0101
  116MOL0     C15545   9.355   7.552   4.132 -0.7220  0.7224  0.3749
  116MOL0     C15546   9.308   7.688   4.124 -0.7141 -0.0257  0.3445
  116MOL0     C15547   9.377   7.792   4.202 -0.0474 -0.0154 -0.5759
  116MOL0     C15548   9.331   7.803   4.353 -0.8647 -0.4322 -0.5612
  116MOL0     O15549   9.402   7.901   4.419  0.5833  0.0019 -0.8097
  116MOL0     C15550   9.442   7.880   4.554  0.3821  0.2345 -0.3847
  116MOL0     C15551   9.446   7.764   4.632  0.1851  0.5873  1.1866
  116MOL0     C15552   9.513   7.762   4.757 -0.1855  0.5612  0.6412
  116MOL0     C15553   9.542   7.882   4.826  0.0948  0.2811  0.1297
  116MOL0     C15554   9.576   7.879   4.969  0.2188  0.3255  0.4045
  116MOL0     O15555   9.616   7.760   5.005 -0.4775  0.0632  0.0104
  116MOL0     C15556   9.672   7.755   5.130  0.4977 -0.2606  0.2727
  116MOL0     C15557   9.763   7.843   5.189 -0.1405 -0.3363 -0.1658
  116MOL0     C15558   9.835   7.821   5.306  0.0536  0.4413  0.2352
  116MOL0     C15559   9.824   7.689   5.358  0.2706 -0.2173 -0.8151
  116MOL0     O15560   9.887   7.659   5.477  0.0920  0.0315 -0.6000
  116MOL0     C15561   9.968   7.739   5.572 -0.3077  0.4993  0.2416
  116MOL0     C15562  10.004   7.643   5.684  0.0916 -0.4963  0.1747
  116MOL0     C15563  10.078   7.716   5.798  0.3137  0.8146  0.8031
  116MOL0     C15564  10.230   7.729   5.762 -0.0845  0.0311 -0.8123
  116MOL0     C15565  10.279   7.845   5.846  0.1803  0.0282 -0.0262
  116MOL0     C15566  10.429   7.880   5.812  0.0541  0.2405 -0.2499
  116MOL0     C15567  10.504   7.975   5.916 -1.0193  0.0371 -0.1968
  116MOL0     C15568  10.638   8.029   5.867  0.0775  0.5415 -0.2778
  116MOL0    Cl15569  10.737   7.894   5.854 -0.2191 -0.2369 -0.3080
  116MOL0     C15570   9.741   7.592   5.303  0.5963  0.0401  0.2385
  116MOL0     C15571   9.663   7.625   5.190  0.2008 -0.3252 -0.8649
  116MOL0     O15572   9.545   7.975   5.041 -0.0908 -0.2946  0.4650
  116MOL0     C15573   9.537   8.000   4.759  1.2507 -0.3772  0.4896
  116MOL0     C15574   9.493   7.998   4.625 -1.0070  0.3750  0.1404
  116MOL0     N15575   9.272   7.449   4.347  0.1267  1.0359 -1.1881
  116MOL0     N15576   9.327   7.402   4.457 -0.8154  0.5169  0.4664
  116MOL0     C15577  10.514   7.548   4.330 -0.1189  0.4240  0.7016
  116MOL0     C15578  10.534   7.603   4.208  1.1194 -0.2339 -0.3611
  116MOL0     C15579  10.472   7.718   3.788  0.1691 -0.8026 -0.2373
  116MOL0     C15580  10.456   7.623   3.692  0.0609  1.1206  0.7606
  116MOL0     C15581  10.489   7.641   3.565  0.2303  0.1906 -0.2516
  116MOL0     C15582  10.554   7.755   3.515 -0.5939  0.8543 -0.3732
  116MOL0     O15583  10.595   7.785   3.384  0.2238 -0.6106  0.1739
  116MOL0     C15584  10.559   7.683   3.297  0.7231  0.3837  0.3046
  116MOL0     C15585  10.632   7.694   3.168 -0.1114  0.2675  0.1572
  116MOL0     C15586  10.633   7.575   3.074  0.8876 -0.2610  0.4188
  116MOL0     C15587  10.748   7.567   2.978  0.1252  0.2386 -0.3040
  116MOL0     C15588  10.887   7.560   3.031 -0.2227  1.2548 -0.1285
  116MOL0     C15589  10.995   7.532   3.083  0.3615  0.0628  0.4265
  116MOL0     C15590  10.578   7.847   3.617 -0.1712 -0.6865  0.4138
  116MOL0     C15591  10.535   7.835   3.754  0.0087  0.3731 -0.3185
  116MOL0     C15592  10.559   7.957   3.839 -0.6128  0.0881 -0.2239
  116MOL0     H15593  10.307   7.846   4.200 -1.9044 -0.6712  0.2057
  116MOL0     H15594  10.250   7.739   4.430  1.3877 -1.1143  2.2319
  116MOL0     H15595  10.200   7.594   4.609 -1.0464 -1.2301  1.7378
  116MOL0     H15596  10.174   7.467   4.491 -2.7919  1.2130  0.7678
  116MOL0     H15597  10.354   7.458   4.742 -0.8181  0.8013 -0.2978
  116MOL0     H15598  10.312   7.317   4.654  1.2588 -0.4198  2.2076
  116MOL0     H15599  10.103   7.498   4.789  1.3074 -1.0938  0.1128
  116MOL0     H15600  10.158   7.356   4.859  0.3584  1.5003  1.7134
  116MOL0     H15601  10.059   7.258   4.614 -1.7000  0.4183 -2.3264
  116MOL0     H15602   9.987   7.246   4.763 -0.2789  0.9624  0.8998
  116MOL0     H15603   9.885   7.486   4.725  1.4818  1.2916 -0.0401
  116MOL0     H15604   9.941   7.474   4.567 -0.6107  0.2271 -0.4801
  116MOL0     H15605   9.830   7.230   4.557 -3.8129 -0.7074 -0.9454
  116MOL0     H15606   9.750   7.272   4.702  2.4655  0.6707  1.3924
  116MOL0     H15607   9.718   7.449   4.473 -0.3563  1.2971  2.1023
  116MOL0     H15608   9.636   7.473   4.615  0.4665  0.9188 -1.2094
  116MOL0     H15609   9.602   7.228   4.445  2.1820  0.6327  0.3218
  116MOL0     H15610   9.509   7.264   4.588 -0.5210  0.0769  0.7965
  116MOL0     H15611   9.584   7.474   4.271  0.2775  0.8497  1.5274
  116MOL0     H15612   9.452   7.555   4.083 -0.3075  1.4863  1.2185
  116MOL0     H15613   9.290   7.499   4.062 -0.0932  1.8816 -1.1328
  116MOL0     H15614   9.295   7.718   4.020  0.0303 -1.3713 -0.1574
  116MOL0     H15615   9.210   7.684   4.172  0.3099 -0.6084  2.5036
  116MOL0     H15616   9.365   7.887   4.149 -3.2972 -0.9413 -1.6967
  116MOL0     H15617   9.481   7.758   4.214 -0.8649 -2.7812 -0.6750
  116MOL0     H15618   9.323   7.710   4.410 -0.0992 -0.9249 -1.2321
  116MOL0     H15619   9.227   7.834   4.356 -0.8714 -0.5471  0.7290
  116MOL0     H15620   9.402   7.672   4.594  1.4456 -0.3584  1.9368
  116MOL0     H15621   9.536   7.664   4.796  3.3066  1.5521  1.3941
  116MOL0     H15622   9.778   7.942   5.147 -0.3876  1.3444  3.3390
  116MOL0     H15623   9.891   7.905   5.346 -1.1742  0.3879  2.2058
  116MOL0     H15624  10.060   7.773   5.524  1.5409 -2.3511  1.5544
  116MOL0     H15625   9.917   7.823   5.621  0.0302 -0.4974  2.3810
  116MOL0     H15626   9.916   7.584   5.716  0.1448 -0.2240  0.8393
  116MOL0     H15627  10.063   7.565   5.635 -1.4968 -0.9697 -1.1040
  116MOL0     H15628  10.026   7.810   5.821 -0.7975  0.5037 -0.3085
  116MOL0     H15629  10.057   7.658   5.888 -0.1263  5.1053  3.7417
  116MOL0     H15630  10.255   7.727   5.656  1.8029 -5.7387 -0.6171
  116MOL0     H15631  10.287   7.640   5.791  0.2805  1.6146  4.2906
  116MOL0     H15632  10.247   7.817   5.947 -2.2133  1.0227 -0.4423
  116MOL0     H15633  10.226   7.936   5.817  3.3238  1.3029 -2.3017
  116MOL0     H15634  10.471   7.779   5.800 -3.7115 -1.6001  0.5497
  116MOL0     H15635  10.430   7.921   5.711  0.1410 -1.9306 -1.1906
  116MOL0     H15636  10.528   7.902   5.994 -0.1726 -1.2358 -1.6039
  116MOL0     H15637  10.444   8.052   5.965  2.2838  0.3940  3.8562
  116MOL0     H15638  10.623   8.087   5.776  1.8153  0.8317 -0.4055
  116MOL0     H15639  10.675   8.102   5.940 -1.2714  0.8242  0.1679
  116MOL0     H15640   9.736   7.493   5.346  1.2401  0.0582  0.3620
  116MOL0     H15641   9.582   7.560   5.159  0.6816 -0.7614 -1.2199
  116MOL0     H15642   9.568   8.097   4.796 -2.0673 -0.4140  3.9382
  116MOL0     H15643   9.527   8.084   4.568 -1.6812  0.7373  0.2691
  116MOL0     H15644  10.576   7.463   4.356 -1.0341  0.0053  1.6142
  116MOL0     H15645  10.617   7.563   4.149  2.7636  3.0788 -0.5434
  116MOL0     H15646  10.415   7.526   3.720 -0.2765  0.5064 -1.6198
  116MOL0     H15647  10.467   7.567   3.489  0.0655  1.2966 -1.3207
  116MOL0     H15648  10.453   7.666   3.277  0.3612 -1.5024  3.2135
  116MOL0     H15649  10.589   7.586   3.338  0.7519 -1.8791 -4.3730
  116MOL0     H15650  10.736   7.713   3.195 -0.2452 -1.0325  1.7268
  116MOL0     H15651  10.588   7.777   3.112 -1.1744 -2.2912 -3.1655
  116MOL0     H15652  10.537   7.582   3.021  1.9685  0.1911 -1.5461
  116MOL0     H15653  10.644   7.492   3.145  1.9424 -0.1862  0.3521
  116MOL0     H15654  10.732   7.484   2.909  0.6248 -3.0617  3.2338
  116MOL0     H15655  10.739   7.666   2.931  1.4226  0.2106 -0.6556
  116MOL0     H15656  11.090   7.506   3.127 -0.0042  1.4240  2.1229
  116MOL0     H15657  10.634   7.933   3.579 -2.8439  0.6918 -0.6681
  116MOL0     H15658  10.615   8.035   3.787  0.7395  0.4799  1.7003
  116MOL0     H15659  10.464   7.987   3.883  0.5453  0.2676  2.3985
  116MOL0     H15660  10.625   7.940   3.925  0.6352 -0.3940 -1.2362
  117MOL0     O15661   1.486   0.962   9.183  0.0322 -0.8105 -0.4127
  117MOL0     C15662   1.411   0.899   9.252 -0.0621 -1.0917  0.7958
  117MOL0     O15663   1.328   0.949   9.346 -0.3912  0.3411 -0.0186
  117MOL0     C15664   1.339   1.078   9.354 -0.1953 -0.6863 -0.6194
  117MOL0     C15665   1.388   1.145   9.462  0.0417 -0.0473  0.2555
  117MOL0     C15666   1.384   1.288   9.464 -0.5968 -0.1319 -0.2002
  117MOL0     C15667   1.319   1.371   9.361  0.3170 -0.5576  0.6800
  117MOL0     O15668   1.304   1.507   9.385  0.5486  0.8003  0.0391
  117MOL0     C15669   1.226   1.589   9.299  0.3024 -0.2639  0.1579
  117MOL0     C15670   1.098   1.624   9.373  0.3921 -0.1448  0.0951
  117MOL0     C15671   0.995   1.718   9.299 -0.2309 -0.2020 -0.9742
  117MOL0     C15672   0.873   1.745   9.392 -1.3373  0.3435 -0.8186
  117MOL0     C15673   0.768   1.842   9.348 -0.5551  0.3114 -0.8082
  117MOL0     C15674   0.665   1.882   9.463  0.3794 -0.0957 -0.1339
  117MOL0     C15675   0.706   1.953   9.593  0.0129 -0.5511 -0.2514
  117MOL0     C15676   0.610   1.926   9.713 -0.3320  1.0757 -0.1962
  117MOL0     N15677   0.509   2.024   9.730 -0.5784 -0.4282 -0.5907
  117MOL0     C15678   0.515   2.144   9.810 -0.0271  0.6904  0.5983
  117MOL0     C15679   0.400   2.208   9.792 -0.8129  0.0312  0.4623
  117MOL0     C15680   0.352   2.321   9.876 -0.3038  0.5036  0.0696
  117MOL0     C15681   0.267   2.415   9.793  0.9779  0.5770 -0.5509
  117MOL0     C15682   0.206   2.515   9.894 -0.8089  0.1014  0.2930
  117MOL0     C15683   0.086   2.584   9.832  0.1198  0.2266  0.2704
  117MOL0     O15684   0.021   2.677   9.916 -0.3058  0.1021 -0.4163
  117MOL0     C15685  -0.059   2.770   9.865  1.5842  0.2141 -0.0654
  117MOL0     C15686  -0.015   2.861   9.758  0.2344 -0.0728 -0.6296
  117MOL0     C15687  -0.111   2.943   9.698  0.5275 -0.7525 -0.0618
  117MOL0     C15688  -0.247   2.953   9.737  0.1709 -0.6533  1.6215
  117MOL0     C15689  -0.349   3.018   9.646 -0.3045 -1.0622 -0.4097
  117MOL0     O15690  -0.471   3.024   9.698  0.0396 -0.2521  0.3185
  117MOL0     C15691  -0.567   3.081   9.618  0.6914 -0.0511 -0.9872
  117MOL0     C15692  -0.579   3.224   9.616 -0.6760  0.2943 -0.3030
  117MOL0     C15693  -0.696   3.276   9.552 -0.4688 -0.0793  0.6435
  117MOL0     C15694  -0.789   3.191   9.494 -0.1569  0.9368 -0.2308
  117MOL0     O15695  -0.884   3.267   9.435  1.1808  0.1810 -0.0152
  117MOL0     C15696  -0.984   3.219   9.348  0.4952 -0.1316  0.5142
  117MOL0     C15697  -1.033   3.337   9.268  0.7432 -0.5115 -0.8850
  117MOL0     C15698  -0.962   3.363   9.138 -0.7006  0.0261  0.3219
  117MOL0     C15699  -0.963   3.503   9.073 -1.0329 -0.2501  0.1863
  117MOL0     C15700  -0.856   3.505   8.959 -0.1450 -0.0109 -0.6499
  117MOL0     C15701  -0.865   3.631   8.885  0.6797 -0.3233  0.6290
  117MOL0     C15702  -0.757   3.648   8.784  0.0004 -0.6516 -0.3501
  117MOL0     C15703  -0.775   3.548   8.673 -0.6849 -0.0055  1.1866
  117MOL0    Cl15704  -0.646   3.422   8.694 -0.1769  0.6643 -0.4954
  117MOL0     C15705  -0.776   3.052   9.500  0.6433 -0.0232 -0.8787
  117MOL0     C15706  -0.663   2.995   9.564 -0.3873 -1.2289  0.2401
  117MOL0     O15707  -0.316   3.062   9.540 -0.0166 -0.2849 -0.1567
  117MOL0     C15708  -0.280   2.876   9.848  0.0371  0.4217 -0.8882
  117MOL0     C15709  -0.190   2.785   9.904 -0.2416  0.1452  1.0790
  117MOL0     N15710   0.332   2.130   9.695 -1.0759  0.1100 -0.2728
  117MOL0     N15711   0.401   2.032   9.662  1.2621 -0.2639 -0.2450
  117MOL0     C15712   1.270   1.301   9.250  0.0068 -0.0548 -0.4321
  117MOL0     C15713   1.283   1.161   9.250 -0.2279  0.2518 -0.6940
  117MOL0     C15714   1.419   0.747   9.238 -0.1763 -0.6862 -1.0287
  117MOL0     C15715   1.538   0.692   9.179  0.2621  0.4735 -0.0188
  117MOL0     C15716   1.544   0.565   9.137 -0.4753  0.1223 -0.3282
  117MOL0     C15717   1.444   0.476   9.165  1.0357 -0.8099  0.3783
  117MOL0     O15718   1.432   0.344   9.118  1.1923  0.1507  0.5565
  117MOL0     C15719   1.526   0.280   9.019 -0.0729  0.1194 -0.2448
  117MOL0     C15720   1.651   0.220   9.083 -1.2012  0.1344 -0.2130
  117MOL0     C15721   1.750   0.165   8.962  0.1116 -0.3340  1.0368
  117MOL0     C15722   1.885   0.107   8.991  0.3578 -0.5627  0.5254
  117MOL0     C15723   1.866  -0.016   9.061 -0.0998 -0.0174 -1.4511
  117MOL0     C15724   1.841  -0.129   9.094 -0.0576  0.3315 -0.2730
  117MOL0     C15725   1.341   0.516   9.244  0.2786 -0.1861  0.6669
  117MOL0     C15726   1.323   0.649   9.280  0.4494  0.2664  0.8370
  117MOL0     C15727   1.190   0.687   9.341  0.2756 -0.1220  0.2964
  117MOL0     H15728   1.444   1.093   9.539  2.4873  2.0406  0.0181
  117MOL0     H15729   1.433   1.334   9.550  1.0003 -1.3986 -0.3941
  117MOL0     H15730   1.289   1.678   9.301  2.3616 -1.6071  3.4248
  117MOL0     H15731   1.196   1.540   9.206  0.3662 -2.1718  1.0951
  117MOL0     H15732   1.117   1.659   9.475 -2.4327 -0.8062  0.9284
  117MOL0     H15733   1.045   1.530   9.389  1.2889 -1.1201 -2.1924
  117MOL0     H15734   0.963   1.679   9.202  0.8318 -2.5566 -0.4564
  117MOL0     H15735   1.040   1.816   9.286  0.5260  0.0348  2.4131
  117MOL0     H15736   0.825   1.648   9.409  0.0179 -0.0107  1.3983
  117MOL0     H15737   0.908   1.774   9.492  0.1033  1.0464 -1.5005
  117MOL0     H15738   0.812   1.934   9.309 -0.9150  1.8820  2.2009
  117MOL0     H15739   0.711   1.795   9.268 -1.7862  0.4615 -0.0581
  117MOL0     H15740   0.607   1.956   9.406  1.2516  0.3442 -0.4752
  117MOL0     H15741   0.614   1.788   9.486 -2.3360  1.2164 -0.4622
  117MOL0     H15742   0.713   2.061   9.577  3.3959 -0.7103 -0.5069
  117MOL0     H15743   0.808   1.928   9.622 -0.3360 -0.9399  0.6893
  117MOL0     H15744   0.557   1.830   9.711 -0.0849  0.7690  3.0084
  117MOL0     H15745   0.672   1.917   9.802 -1.5579  2.4570  0.8447
  117MOL0     H15746   0.588   2.171   9.885  0.3470 -0.3403  0.6300
  117MOL0     H15747   0.300   2.286   9.966  0.0566 -0.1059  0.0480
  117MOL0     H15748   0.441   2.376   9.909  0.6565 -0.9697  0.0156
  117MOL0     H15749   0.329   2.465   9.718  3.0940 -3.0213 -1.4743
  117MOL0     H15750   0.186   2.363   9.741 -0.3078  2.7293 -0.8394
  117MOL0     H15751   0.282   2.590   9.920  1.4793 -2.0342  0.1853
  117MOL0     H15752   0.181   2.468   9.989 -0.5412  1.5053  1.0790
  117MOL0     H15753   0.019   2.506   9.797  0.7909 -2.1382  3.7234
  117MOL0     H15754   0.108   2.637   9.739  1.2017  2.5531  1.7430
  117MOL0     H15755   0.083   2.851   9.710  0.4777  0.7507 -0.3123
  117MOL0     H15756  -0.085   2.976   9.597  2.1108  1.0657  0.8741
  117MOL0     H15757  -0.502   3.288   9.657 -0.2146  0.8530 -1.9624
  117MOL0     H15758  -0.721   3.381   9.548 -2.8273 -0.6387 -1.1223
  117MOL0     H15759  -0.932   3.148   9.283  3.4459  1.1696  1.2680
  117MOL0     H15760  -1.074   3.191   9.405 -1.8847  2.2863 -1.7904
  117MOL0     H15761  -1.141   3.332   9.250  0.5031 -0.2487  0.3396
  117MOL0     H15762  -1.019   3.420   9.339 -1.4689 -1.1401  0.4227
  117MOL0     H15763  -0.859   3.339   9.163 -0.9589  0.2537  1.6748
  117MOL0     H15764  -0.999   3.288   9.066  3.6608 -1.5518 -0.5630
  117MOL0     H15765  -0.943   3.588   9.139  0.3427 -0.5639  0.2046
  117MOL0     H15766  -1.060   3.513   9.025 -1.4664  0.8504  1.2325
  117MOL0     H15767  -0.875   3.422   8.889 -0.8359  0.9278 -1.6081
  117MOL0     H15768  -0.760   3.508   9.012 -1.5305  1.2838  1.9793
  117MOL0     H15769  -0.967   3.641   8.847  0.7073 -2.7228 -0.2312
  117MOL0     H15770  -0.837   3.712   8.954 -0.0921  1.5381 -1.1202
  117MOL0     H15771  -0.656   3.650   8.826 -0.5565  0.1559  1.0034
  117MOL0     H15772  -0.779   3.744   8.738 -3.3360 -1.9284 -1.7212
  117MOL0     H15773  -0.877   3.511   8.657 -0.8947  0.9299  0.2713
  117MOL0     H15774  -0.757   3.604   8.581  0.9819  1.2481  2.2218
  117MOL0     H15775  -0.849   2.990   9.449  0.4404 -2.0698  1.6928
  117MOL0     H15776  -0.645   2.888   9.568  0.6993 -1.0709 -0.0303
  117MOL0     H15777  -0.384   2.871   9.880  0.3034  0.3548 -0.0127
  117MOL0     H15778  -0.221   2.706   9.971  1.4115 -2.1827 -0.7451
  117MOL0     H15779   1.224   1.349   9.164 -0.1164 -2.4397 -1.7972
  117MOL0     H15780   1.242   1.123   9.156 -0.1877  1.7384 -1.3388
  117MOL0     H15781   1.627   0.751   9.157  1.0654  0.0275  1.8616
  117MOL0     H15782   1.631   0.517   9.092 -3.1798 -2.3537 -3.3703
  117MOL0     H15783   1.559   0.348   8.941 -0.5254 -1.4524 -1.8606
  117MOL0     H15784   1.473   0.200   8.967 -1.7854  1.7019 -1.0377
  117MOL0     H15785   1.629   0.141   9.155  1.4597  0.4531  1.0540
  117MOL0     H15786   1.715   0.291   9.136  0.0468 -1.4785  0.5050
  117MOL0     H15787   1.760   0.237   8.880  1.0840  1.3392  2.5582
  117MOL0     H15788   1.688   0.083   8.925  1.9030 -1.3485  0.1761
  117MOL0     H15789   1.936   0.069   8.902 -0.7749 -0.3126 -0.2475
  117MOL0     H15790   1.955   0.174   9.042 -0.9087  0.7301  0.6321
  117MOL0     H15791   1.835  -0.234   9.112  2.1286  0.2817  0.5045
  117MOL0     H15792   1.257   0.453   9.271 -0.2443 -0.9975 -2.4047
  117MOL0     H15793   1.158   0.605   9.406 -1.1665  0.1881  0.0085
  117MOL0     H15794   1.193   0.781   9.397  0.7004 -0.9947  1.7945
  117MOL0     H15795   1.110   0.697   9.266  0.9784  1.4038 -0.3019
  118MOL0     O15796  10.836  11.445   0.189 -0.3437 -0.5344 -0.4348
  118MOL0     C15797  10.765  11.389   0.111  0.1580  0.0313 -0.0398
  118MOL0     O15798  10.800  11.281   0.037  0.3090  0.3099 -0.5997
  118MOL0     C15799  10.907  11.203   0.059  0.5360 -0.2850 -0.8756
  118MOL0     C15800  10.978  11.199   0.176 -0.1329  0.0286 -1.1627
  118MOL0     C15801  11.087  11.117   0.203 -0.1236  0.8901 -0.2484
  118MOL0     C15802  11.144  11.044   0.093 -0.8319  0.0287 -0.4370
  118MOL0     O15803  11.259  10.963   0.113  0.5242 -0.1204 -0.2506
  118MOL0     C15804  11.281  10.861   0.019 -0.4608  0.2718  0.3378
  118MOL0     C15805  11.385  10.754   0.065  1.1161  0.4620 -0.8862
  118MOL0     C15806  11.315  10.643   0.155 -0.5889  0.4570  0.5722
  118MOL0     C15807  11.418  10.589   0.257  0.6693 -0.8278 -0.1191
  118MOL0     C15808  11.535  10.523   0.204  0.7958 -0.0731 -0.1546
  118MOL0     C15809  11.507  10.384   0.135 -0.2438  0.8428 -0.3097
  118MOL0     C15810  11.635  10.313   0.083 -0.3396  0.3799 -0.0004
  118MOL0     C15811  11.605  10.179   0.023 -0.7651 -0.9669  0.7871
  118MOL0     N15812  11.539  10.171  -0.114 -1.1652 -0.8423 -0.2353
  118MOL0     C15813  11.407  10.190  -0.146 -0.4734  0.0343 -0.0706
  118MOL0     C15814  11.394  10.220  -0.277  0.0096 -0.4848 -0.6453
  118MOL0     C15815  11.269  10.254  -0.343  0.3684  0.3014  0.7982
  118MOL0     C15816  11.235  10.395  -0.319 -0.4886 -1.0098 -0.3428
  118MOL0     C15817  11.180  10.430  -0.178  1.3685  0.0884  0.3498
  118MOL0     C15818  11.101  10.557  -0.183  0.3846 -0.0507 -0.0131
  118MOL0     O15819  11.038  10.583  -0.049 -0.3579 -0.1745 -0.2751
  118MOL0     C15820  10.937  10.676  -0.030  0.1318 -0.1988 -0.4429
  118MOL0     C15821  10.938  10.750   0.094 -0.6326  1.0577  0.2457
  118MOL0     C15822  10.839  10.849   0.125 -0.5695 -1.1007  1.1279
  118MOL0     C15823  10.760  10.892   0.023  0.0772 -0.6515  0.1773
  118MOL0     C15824  10.630  10.969   0.055 -0.1437  0.2573 -0.5721
  118MOL0     O15825  10.611  11.002   0.190 -0.7149 -0.1239 -0.0614
  118MOL0     C15826  10.499  11.069   0.243  0.8412  0.5436 -0.1305
  118MOL0     C15827  10.480  11.072   0.382  0.4035  1.2103 -0.1111
  118MOL0     C15828  10.369  11.115   0.452  0.9832 -0.7432 -0.5260
  118MOL0     C15829  10.254  11.146   0.378 -0.4662 -0.9073 -0.3453
  118MOL0     O15830  10.138  11.189   0.446 -0.1219  0.0568  0.3367
  118MOL0     C15831  10.155  11.286   0.547 -0.3499 -1.0645  0.0192
  118MOL0     C15832  10.010  11.331   0.565  0.4182  0.6834 -0.4610
  118MOL0     C15833   9.916  11.224   0.604 -0.6076  0.1284 -0.3111
  118MOL0     C15834   9.883  11.207   0.759  0.4114  0.5696  0.8884
  118MOL0     C15835   9.812  11.073   0.788 -0.4209  0.6942  1.0108
  118MOL0     C15836   9.681  11.049   0.717 -1.1592 -0.0272 -0.2653
  118MOL0     C15837   9.563  11.094   0.802  0.1253  0.0669  0.2035
  118MOL0     C15838   9.423  11.060   0.735 -1.0085  0.9798  0.3351
  118MOL0    Cl15839   9.417  11.053   0.554  0.0436  0.0579 -0.0922
  118MOL0     C15840  10.257  11.145   0.241 -0.4357  0.0231  0.7889
  118MOL0     C15841  10.377  11.103   0.179  1.1358  0.2059  1.0167
  118MOL0     O15842  10.552  10.987  -0.037 -0.1832  0.3533  1.0809
  118MOL0     C15843  10.766  10.836  -0.105 -0.4784  0.0542  0.7706
  118MOL0     C15844  10.852  10.723  -0.125  0.1975 -0.0738  0.4341
  118MOL0     N15845  11.523  10.217  -0.321 -0.5875 -0.2365  0.8328
  118MOL0     N15846  11.607  10.196  -0.227 -0.5520  0.0437  0.0490
  118MOL0     C15847  11.087  11.063  -0.035 -0.4154  0.4560  0.1084
  118MOL0     C15848  10.962  11.131  -0.046 -0.2049  0.0323 -0.1800
  118MOL0     C15849  10.619  11.446   0.097  0.2706  0.9067 -0.4345
  118MOL0     C15850  10.551  11.402  -0.020 -0.3726 -0.1342 -0.8602
  118MOL0     C15851  10.420  11.448  -0.047 -1.1712  0.6613  0.5254
  118MOL0     C15852  10.357  11.537   0.031 -0.4402 -0.4193 -0.0011
  118MOL0     O15853  10.230  11.564  -0.016  0.3982 -0.0249 -0.5789
  118MOL0     C15854  10.131  11.580   0.088  0.4787  0.7774  0.3696
  118MOL0     C15855   9.994  11.554   0.039  0.1633 -0.1924 -0.5324
  118MOL0     C15856   9.971  11.615  -0.102  0.0752  0.8792  0.3767
  118MOL0     C15857   9.827  11.614  -0.163 -0.0786 -0.5491 -0.7620
  118MOL0     C15858   9.748  11.486  -0.163  0.0451  0.2016  0.5068
  118MOL0     C15859   9.680  11.387  -0.157  0.6639  0.6067 -0.8980
  118MOL0     C15860  10.415  11.576   0.152 -0.3748 -0.2113  0.7505
  118MOL0     C15861  10.546  11.539   0.179  0.9539 -0.1795 -1.0550
  118MOL0     C15862  10.606  11.610   0.301 -0.0545 -1.1017  0.1806
  118MOL0     H15863  10.941  11.261   0.257 -1.9421  1.4145 -2.9557
  118MOL0     H15864  11.110  11.114   0.309 -1.5011 -1.2320  0.0521
  118MOL0     H15865  11.188  10.806  -0.002  0.2186 -1.3710  1.4439
  118MOL0     H15866  11.307  10.905  -0.078 -2.6475 -2.0090 -1.4436
  118MOL0     H15867  11.466  10.801   0.121  0.1753  2.8607 -1.4185
  118MOL0     H15868  11.429  10.697  -0.017 -1.0803 -1.4526 -0.8249
  118MOL0     H15869  11.281  10.554   0.101  3.2559 -0.3314 -0.8541
  118MOL0     H15870  11.233  10.697   0.204  0.9345  0.5411  3.2221
  118MOL0     H15871  11.443  10.671   0.324 -0.5435 -0.9402  0.5025
  118MOL0     H15872  11.377  10.518   0.330  3.8413 -2.3081  0.4034
  118MOL0     H15873  11.592  10.581   0.131  1.6217 -1.7747 -0.9295
  118MOL0     H15874  11.600  10.497   0.288 -0.3331 -1.0016  0.4567
  118MOL0     H15875  11.450  10.319   0.201 -0.9801  1.8625  0.0843
  118MOL0     H15876  11.444  10.402   0.048  1.4631 -1.6224 -2.2247
  118MOL0     H15877  11.713  10.301   0.159  1.8791 -0.1916 -2.2384
  118MOL0     H15878  11.686  10.366   0.002  0.8500 -0.2171  0.3318
  118MOL0     H15879  11.702  10.129   0.013 -0.2664  0.3694 -1.8030
  118MOL0     H15880  11.544  10.126   0.097 -1.4012  1.3192  1.9773
  118MOL0     H15881  11.332  10.173  -0.069  1.0415 -1.8371  1.0875
  118MOL0     H15882  11.270  10.234  -0.451  1.5324 -2.1293  1.2069
  118MOL0     H15883  11.192  10.182  -0.317 -0.2734  0.6835  0.0056
  118MOL0     H15884  11.322  10.462  -0.317 -2.4703  1.8020  2.9472
  118MOL0     H15885  11.160  10.427  -0.391 -0.1117 -2.2181 -1.3104
  118MOL0     H15886  11.262  10.444  -0.108 -0.0497  2.1999  1.7186
  118MOL0     H15887  11.111  10.355  -0.138  0.4082  0.5899 -0.3306
  118MOL0     H15888  11.023  10.529  -0.253  0.4436 -1.2789  0.3972
  118MOL0     H15889  11.165  10.638  -0.220 -1.5108  1.1598 -0.7932
  118MOL0     H15890  11.007  10.729   0.175 -2.1799 -0.4382  1.2637
  118MOL0     H15891  10.833  10.889   0.226 -0.0412 -1.4195  1.2898
  118MOL0     H15892  10.572  11.041   0.431  3.6270  3.5522 -4.0954
  118MOL0     H15893  10.368  11.136   0.558 -2.5174 -2.0794 -0.1704
  118MOL0     H15894  10.194  11.246   0.642  0.0493 -2.4045 -0.6834
  118MOL0     H15895  10.212  11.372   0.512 -0.0095 -1.7810 -1.2453
  118MOL0     H15896   9.993  11.405   0.644  1.5347 -0.1708  0.6112
  118MOL0     H15897   9.971  11.372   0.471 -0.0274 -4.0746 -2.6490
  118MOL0     H15898   9.821  11.262   0.566 -1.9143 -2.7086 -0.1376
  118MOL0     H15899   9.938  11.133   0.548  1.0570 -1.3017  2.4745
  118MOL0     H15900   9.815  11.287   0.793 -1.2754  0.6146 -2.2051
  118MOL0     H15901   9.975  11.212   0.817  0.9326  0.3482  0.0880
  118MOL0     H15902   9.781  11.038   0.887 -2.4891 -4.4195 -1.0465
  118MOL0     H15903   9.880  10.996   0.750 -0.0059  0.7325  1.6667
  118MOL0     H15904   9.675  11.115   0.630  0.0817  0.9841  0.3866
  118MOL0     H15905   9.671  10.940   0.711  2.1601 -0.6111  2.1412
  118MOL0     H15906   9.585  11.196   0.835 -2.2127  1.1156 -1.2185
  118MOL0     H15907   9.553  11.029   0.890  0.7986 -1.5167 -0.8367
  118MOL0     H15908   9.403  10.956   0.763 -1.0475  0.9453  0.1807
  118MOL0     H15909   9.358  11.131   0.787 -0.3135  4.2621 -2.8526
  118MOL0     H15910  10.171  11.163   0.178  1.2664 -2.5670 -2.5785
  118MOL0     H15911  10.380  11.100   0.071  1.3558 -3.1759  0.9907
  118MOL0     H15912  10.701  10.870  -0.185  3.0530  3.1970 -1.0966
  118MOL0     H15913  10.857  10.690  -0.228 -0.0209 -0.4177  0.5328
  118MOL0     H15914  11.127  11.010  -0.121 -0.6776  1.3936 -0.6137
  118MOL0     H15915  10.903  11.148  -0.136  1.2454  1.2509 -0.9593
  118MOL0     H15916  10.591  11.333  -0.093 -1.6881  0.4489 -2.1993
  118MOL0     H15917  10.374  11.408  -0.137  2.8895  1.3866 -2.1101
  118MOL0     H15918  10.143  11.678   0.135  3.5519  1.0651 -0.8200
  118MOL0     H15919  10.136  11.501   0.163  0.0975 -2.1089 -2.4595
  118MOL0     H15920   9.913  11.604   0.094 -1.9505 -1.2139 -2.5388
  118MOL0     H15921   9.968  11.448   0.031 -1.0994  0.2218 -2.8534
  118MOL0     H15922  10.029  11.560  -0.176  2.0051  0.2781  2.2162
  118MOL0     H15923  10.018  11.714  -0.099  1.1116  0.4160 -0.0135
  118MOL0     H15924   9.783  11.704  -0.119  4.2980  1.4670  0.0289
  118MOL0     H15925   9.833  11.624  -0.272  0.3071 -4.9612 -1.3240
  118MOL0     H15926   9.626  11.295  -0.163  1.7138 -0.4141  2.7580
  118MOL0     H15927  10.362  11.643   0.219  1.8607  0.7846  1.6085
  118MOL0     H15928  10.623  11.540   0.384 -0.5251 -4.7952 -2.5876
  118MOL0     H15929  10.706  11.639   0.267 -0.4987 -3.4605 -3.7981
  118MOL0     H15930  10.555  11.702   0.332 -1.1640 -2.2901  2.0704
  119MOL0     O15931   8.347   0.115   1.111 -0.3165 -0.3107  0.5406
  119MOL0     C15932   8.409   0.093   1.215  0.9824 -0.6871 -0.0219
  119MOL0     O15933   8.477   0.177   1.286  1.1104 -0.1813  0.1590
  119MOL0     C15934   8.461   0.305   1.266  0.2061 -0.4528 -0.2808
  119MOL0     C15935   8.563   0.376   1.216 -0.0330 -0.1712  0.0061
  119MOL0     C15936   8.548   0.510   1.186  0.6017 -0.4530 -0.0377
  119MOL0     C15937   8.426   0.576   1.206 -0.0182  0.4111 -0.3136
  119MOL0     O15938   8.425   0.704   1.174  0.2906  0.2919 -0.2753
  119MOL0     C15939   8.312   0.799   1.200 -0.7029 -0.6619 -0.0990
  119MOL0     C15940   8.324   0.903   1.088 -0.9925  0.2308 -0.8386
  119MOL0     C15941   8.226   1.021   1.109 -0.1970  0.3291 -0.0958
  119MOL0     C15942   8.226   1.139   1.002 -0.1328 -0.2740 -0.4200
  119MOL0     C15943   8.097   1.233   1.023 -0.0499  0.8497  0.7497
  119MOL0     C15944   8.130   1.378   1.058 -0.5989  0.1504  0.4260
  119MOL0     C15945   8.162   1.477   0.940  0.3261  0.3293  0.3292
  119MOL0     C15946   8.246   1.414   0.834  1.0286  0.0106  0.0904
  119MOL0     N15947   8.283   1.520   0.740  0.0381  0.5609  0.6231
  119MOL0     C15948   8.386   1.610   0.746 -0.4975  1.0520  0.9412
  119MOL0     C15949   8.399   1.663   0.618 -0.0677  0.2997 -0.0578
  119MOL0     C15950   8.511   1.752   0.581 -0.4130 -0.0808  0.6055
  119MOL0     C15951   8.578   1.742   0.444  0.5258 -0.5219  0.1289
  119MOL0     C15952   8.658   1.875   0.413 -0.3566 -0.1392 -1.3962
  119MOL0     C15953   8.679   1.908   0.270  0.2215  0.6637  0.2337
  119MOL0     O15954   8.716   2.049   0.251  0.5643  0.0298  0.1175
  119MOL0     C15955   8.729   2.092   0.121  0.7791 -0.7309 -0.1108
  119MOL0     C15956   8.731   2.010   0.008 -0.3863 -0.3676  0.3458
  119MOL0     C15957   8.725   2.060  -0.126 -1.4081 -0.0751 -0.6201
  119MOL0     C15958   8.723   2.197  -0.146 -0.1573 -1.1591 -1.4000
  119MOL0     C15959   8.738   2.253  -0.277 -0.0053 -0.1308  0.5797
  119MOL0     O15960   8.738   2.168  -0.385 -0.0877 -0.4461 -0.0444
  119MOL0     C15961   8.721   2.214  -0.511  0.6453 -0.8947 -0.2670
  119MOL0     C15962   8.599   2.201  -0.565  0.2659  0.4022 -0.4044
  119MOL0     C15963   8.576   2.246  -0.699 -1.0522  0.3406  0.2331
  119MOL0     C15964   8.684   2.282  -0.778  0.0830  0.9703 -0.2669
  119MOL0     O15965   8.665   2.309  -0.909 -0.3023 -0.0659 -0.4292
  119MOL0     C15966   8.619   2.201  -0.990  0.7164  0.2279 -0.3197
  119MOL0     C15967   8.589   2.242  -1.132  0.3405 -0.4503  0.3828
  119MOL0     C15968   8.703   2.327  -1.193  0.7297 -0.0601  0.6249
  119MOL0     C15969   8.840   2.257  -1.189  0.2379 -0.1261  0.3641
  119MOL0     C15970   8.943   2.349  -1.249 -0.0965  0.0119  0.0463
  119MOL0     C15971   9.088   2.284  -1.233 -0.2476 -0.1991 -1.0744
  119MOL0     C15972   9.197   2.382  -1.290  0.7302 -0.0760  0.0003
  119MOL0     C15973   9.202   2.511  -1.225  0.6695 -0.6456  0.7051
  119MOL0    Cl15974   9.365   2.574  -1.216 -0.1881  0.1769  0.4474
  119MOL0     C15975   8.815   2.288  -0.725  0.0704  0.3171 -0.1459
  119MOL0     C15976   8.831   2.253  -0.589 -0.1988  0.4633  0.3700
  119MOL0     O15977   8.741   2.376  -0.287 -1.2117  0.3237  0.3094
  119MOL0     C15978   8.708   2.282  -0.032  0.1091  0.4961 -0.4535
  119MOL0     C15979   8.708   2.231   0.100  0.0809  0.5245  0.3985
  119MOL0     N15980   8.290   1.616   0.544 -0.7080  0.4702  0.7274
  119MOL0     N15981   8.221   1.533   0.611  0.0122  0.3989 -0.6163
  119MOL0     C15982   8.327   0.504   1.256  0.9734 -0.0618  0.6953
  119MOL0     C15983   8.343   0.370   1.297 -0.6259 -0.0715  0.8306
  119MOL0     C15984   8.403  -0.040   1.261 -0.1030  1.1654  0.6815
  119MOL0     C15985   8.506  -0.102   1.334 -0.2881 -0.2798  0.6401
  119MOL0     C15986   8.505  -0.236   1.365 -0.3297  0.1163  1.1679
  119MOL0     C15987   8.396  -0.315   1.347 -0.2815 -0.1975  0.4030
  119MOL0     O15988   8.409  -0.445   1.373  0.4980  1.1044  0.2290
  119MOL0     C15989   8.320  -0.541   1.326 -0.6044 -0.3053  1.0588
  119MOL0     C15990   8.362  -0.606   1.192  0.3674  0.2299 -0.3524
  119MOL0     C15991   8.351  -0.514   1.072  0.8726  0.6124  0.1525
  119MOL0     C15992   8.369  -0.581   0.933  0.0709 -0.9740  0.0025
  119MOL0     C15993   8.255  -0.681   0.914 -0.1517  0.5096 -0.2484
  119MOL0     C15994   8.172  -0.764   0.906  0.2602 -0.2055 -0.0121
  119MOL0     C15995   8.287  -0.259   1.290  0.5160  0.6332  0.5507
  119MOL0     C15996   8.286  -0.120   1.236  0.1585  0.2187 -0.4974
  119MOL0     C15997   8.161  -0.079   1.168  0.6520 -0.8004 -0.9745
  119MOL0     H15998   8.649   0.314   1.193 -0.2006 -0.6056  0.5445
  119MOL0     H15999   8.618   0.564   1.123 -0.6268 -2.4652 -3.4550
  119MOL0     H16000   8.220   0.739   1.199 -0.2670 -1.3371 -1.1655
  119MOL0     H16001   8.333   0.840   1.299 -2.1258 -0.8722  0.3086
  119MOL0     H16002   8.301   0.845   0.998  2.0688 -3.9736  0.7682
  119MOL0     H16003   8.424   0.948   1.090 -0.6238 -0.5540 -1.1062
  119MOL0     H16004   8.252   1.059   1.208  2.8246 -2.5957  0.4188
  119MOL0     H16005   8.121   0.992   1.109 -0.9277  2.7156 -0.3541
  119MOL0     H16006   8.324   1.187   1.012  0.8442 -2.0192 -1.1054
  119MOL0     H16007   8.227   1.098   0.900  0.0270 -1.4820  0.0509
  119MOL0     H16008   8.037   1.235   0.932  1.0562  0.4489  0.0034
  119MOL0     H16009   8.030   1.198   1.103 -1.1205 -0.1223 -0.5403
  119MOL0     H16010   8.060   1.432   1.123 -1.0374 -1.2630  1.1762
  119MOL0     H16011   8.214   1.371   1.129 -2.1903  2.9802  2.7892
  119MOL0     H16012   8.214   1.559   0.990 -2.5815  1.6142  1.4558
  119MOL0     H16013   8.063   1.499   0.899 -1.0771 -2.1638  2.1063
  119MOL0     H16014   8.339   1.377   0.879  2.6949  2.2881 -1.2950
  119MOL0     H16015   8.197   1.325   0.792  3.6402 -1.3625 -0.2599
  119MOL0     H16016   8.454   1.632   0.828  0.9982 -0.1454  0.0839
  119MOL0     H16017   8.471   1.854   0.575  1.8677  0.8838  0.4760
  119MOL0     H16018   8.590   1.747   0.657 -0.1162  0.3515  0.3299
  119MOL0     H16019   8.643   1.655   0.449  2.0944  0.6477  0.7846
  119MOL0     H16020   8.499   1.723   0.370 -0.7417  0.0751  1.2845
  119MOL0     H16021   8.748   1.880   0.476  0.5420 -2.8285 -2.3237
  119MOL0     H16022   8.589   1.954   0.444 -1.4080 -0.8798 -1.7850
  119MOL0     H16023   8.580   1.893   0.227  0.5537 -0.0331 -0.3262
  119MOL0     H16024   8.731   1.827   0.217 -2.5173 -1.3455  0.4232
  119MOL0     H16025   8.754   1.905   0.024 -0.9186 -0.6755 -0.8222
  119MOL0     H16026   8.747   1.990  -0.206 -0.2860  0.0986 -0.4747
  119MOL0     H16027   8.516   2.149  -0.517 -0.5203  2.3925  0.5237
  119MOL0     H16028   8.481   2.236  -0.752 -0.4309 -0.5982 -0.7496
  119MOL0     H16029   8.704   2.133  -0.982  0.6266  0.3395  2.6643
  119MOL0     H16030   8.542   2.140  -0.943 -0.0977  0.9463 -0.6997
  119MOL0     H16031   8.579   2.148  -1.186 -1.1929 -1.4328  2.2443
  119MOL0     H16032   8.500   2.305  -1.139 -0.3906 -1.4651  0.4897
  119MOL0     H16033   8.674   2.343  -1.297 -0.3578  1.8398  1.1754
  119MOL0     H16034   8.720   2.426  -1.151 -1.1719 -0.0292  1.4016
  119MOL0     H16035   8.833   2.168  -1.251 -0.5081  1.4125 -1.9020
  119MOL0     H16036   8.864   2.232  -1.085 -1.7397 -0.0286  0.8901
  119MOL0     H16037   8.936   2.447  -1.201  0.2822  0.4040 -0.6931
  119MOL0     H16038   8.909   2.363  -1.352 -1.7775 -0.3516  0.5161
  119MOL0     H16039   9.117   2.271  -1.128 -2.3625  2.2449 -0.0721
  119MOL0     H16040   9.085   2.186  -1.281 -0.9885 -0.0850 -1.2733
  119MOL0     H16041   9.186   2.396  -1.398 -2.4777 -2.2523 -0.0927
  119MOL0     H16042   9.297   2.340  -1.277 -0.0005 -1.6251  0.8838
  119MOL0     H16043   9.144   2.584  -1.284  1.3762 -1.1903 -0.7067
  119MOL0     H16044   9.167   2.497  -1.122 -2.0844 -5.7797 -0.6148
  119MOL0     H16045   8.890   2.321  -0.796 -0.1302 -3.7260 -2.4943
  119MOL0     H16046   8.927   2.239  -0.540 -1.0663 -2.6956  1.3864
  119MOL0     H16047   8.698   2.390  -0.038  2.4742  1.0563  2.7041
  119MOL0     H16048   8.697   2.303   0.180 -2.7220  1.3962 -0.6638
  119MOL0     H16049   8.231   0.547   1.283  1.3925  2.0482 -0.9030
  119MOL0     H16050   8.266   0.316   1.351  0.2251 -0.7981  1.3474
  119MOL0     H16051   8.594  -0.046   1.365  0.1468  0.5685 -1.8689
  119MOL0     H16052   8.597  -0.280   1.401  1.8231  4.3546  1.4089
  119MOL0     H16053   8.218  -0.509   1.306  0.6551  1.8452 -2.9008
  119MOL0     H16054   8.328  -0.630   1.391  0.1654 -1.5788 -0.6997
  119MOL0     H16055   8.305  -0.697   1.172  2.6336 -0.8478 -2.3521
  119MOL0     H16056   8.465  -0.641   1.203 -0.3135 -1.5913  0.6076
  119MOL0     H16057   8.436  -0.446   1.076  0.7880  0.7116  0.2615
  119MOL0     H16058   8.252  -0.467   1.078 -1.0131 -2.5414 -2.6643
  119MOL0     H16059   8.376  -0.502   0.858 -0.0521 -1.0895 -0.1321
  119MOL0     H16060   8.465  -0.634   0.935 -0.4825 -2.1156 -1.3521
  119MOL0     H16061   8.083  -0.821   0.890  2.0822 -2.9270 -1.2530
  119MOL0     H16062   8.194  -0.314   1.279  1.0729 -1.0697  3.4694
  119MOL0     H16063   8.131   0.021   1.201 -2.2136 -2.0517  0.5222
  119MOL0     H16064   8.170  -0.085   1.059 -1.9671  1.0628 -1.4012
  119MOL0     H16065   8.075  -0.140   1.195 -0.9609  2.6017  2.4889
  120MOL0     O16066  10.609   0.963   8.233  0.0284  0.4464 -0.2407
  120MOL0     C16067  10.704   1.021   8.279 -0.6731 -0.0850  0.1804
  120MOL0     O16068  10.750   1.143   8.237 -0.3620 -0.1064  0.0006
  120MOL0     C16069  10.667   1.227   8.162  0.1595 -1.1550  0.0437
  120MOL0     C16070  10.715   1.356   8.124  0.5087 -0.1080  0.7853
  120MOL0     C16071  10.647   1.450   8.058 -0.2757 -0.4276  0.0812
  120MOL0     C16072  10.511   1.429   8.031  0.3095  0.4819 -0.1988
  120MOL0     O16073  10.429   1.524   7.970 -0.0181  0.3767  0.1021
  120MOL0     C16074  10.487   1.630   7.880  0.4591  0.6562 -0.3992
  120MOL0     C16075  10.565   1.563   7.763 -0.6320  1.1858  0.3436
  120MOL0     C16076  10.481   1.496   7.649 -0.7755 -0.1015 -0.5631
  120MOL0     C16077  10.391   1.598   7.578 -0.9933 -0.2843 -0.2306
  120MOL0     C16078  10.343   1.553   7.443  0.2479 -0.2233  0.5131
  120MOL0     C16079  10.258   1.672   7.381  1.1684 -0.5473  0.6073
  120MOL0     C16080  10.166   1.613   7.270 -0.5943 -0.8012 -0.3689
  120MOL0     C16081  10.098   1.720   7.194 -0.3397 -0.2807  0.4977
  120MOL0     N16082  10.036   1.650   7.078 -0.1658  0.1699 -0.6233
  120MOL0     C16083  10.087   1.593   6.969  0.1898  0.4941  0.0876
  120MOL0     C16084   9.979   1.545   6.896 -0.0838  0.2242 -0.7491
  120MOL0     C16085   9.971   1.459   6.771 -0.4668 -0.4222  0.4124
  120MOL0     C16086   9.916   1.546   6.652 -0.0559  0.2118 -0.6084
  120MOL0     C16087  10.006   1.665   6.613  0.3674  0.3803 -0.0302
  120MOL0     C16088   9.912   1.763   6.532 -0.9129  0.6191  0.1619
  120MOL0     O16089   9.971   1.875   6.472  0.4652  0.4278  0.2179
  120MOL0     C16090  10.012   1.852   6.351  0.4873 -0.7180  0.2559
  120MOL0     C16091  10.140   1.829   6.312 -0.9993 -0.6334  0.5859
  120MOL0     C16092  10.169   1.804   6.180  0.1593 -0.3236  1.2926
  120MOL0     C16093  10.074   1.814   6.083  1.0948 -0.4704 -0.0902
  120MOL0     C16094  10.089   1.794   5.939 -0.1074 -0.2458  1.0716
  120MOL0     O16095   9.988   1.783   5.843 -0.2495  0.1745 -0.1372
  120MOL0     C16096  10.008   1.736   5.721  0.0071  0.6278 -0.5382
  120MOL0     C16097  10.117   1.786   5.638 -0.3529 -0.6018 -0.2467
  120MOL0     C16098  10.127   1.751   5.507 -0.9389 -0.5712 -0.0909
  120MOL0     C16099  10.047   1.655   5.448 -0.0062  0.2953 -0.7029
  120MOL0     O16100  10.079   1.604   5.324  0.0082 -0.4018 -0.7859
  120MOL0     C16101   9.983   1.534   5.247  0.3940 -0.3023  0.9815
  120MOL0     C16102  10.038   1.459   5.119 -0.1329  0.4244  0.3687
  120MOL0     C16103  10.160   1.359   5.136  0.6005  1.0951 -0.4336
  120MOL0     C16104  10.187   1.314   4.992  0.6678  0.5273  0.1837
  120MOL0     C16105  10.311   1.217   4.975  0.9397  0.1011 -1.0199
  120MOL0     C16106  10.373   1.240   4.834  0.0648 -0.4602 -0.0664
  120MOL0     C16107  10.454   1.128   4.787  0.1380  0.0127 -0.5836
  120MOL0     C16108  10.592   1.164   4.718 -0.5687  0.7458  0.0978
  120MOL0    Cl16109  10.591   1.286   4.589 -0.3535  0.0678 -0.2504
  120MOL0     C16110   9.952   1.596   5.532  0.5117 -1.1020  0.5411
  120MOL0     C16111   9.933   1.631   5.667  0.0329  0.5654  0.7087
  120MOL0     O16112  10.209   1.771   5.916 -0.1740  0.3939  0.3611
  120MOL0     C16113   9.939   1.841   6.120 -0.5785  0.4516  0.3980
  120MOL0     C16114   9.912   1.864   6.251  0.1940  0.8610  0.3978
  120MOL0     N16115   9.861   1.566   6.975 -0.3349 -0.4559 -0.6408
  120MOL0     N16116   9.898   1.632   7.080  0.1417  0.7022 -0.0287
  120MOL0     C16117  10.448   1.310   8.081  0.0875  0.3190 -0.4755
  120MOL0     C16118  10.530   1.207   8.139 -0.0552 -0.4424  0.1661
  120MOL0     C16119  10.786   0.965   8.386  0.2394  0.1453 -0.6558
  120MOL0     C16120  10.731   0.848   8.447  0.3724 -0.2832 -0.2340
  120MOL0     C16121  10.789   0.792   8.564  0.2867 -0.0628  0.5431
  120MOL0     C16122  10.915   0.840   8.611 -0.0687  1.4375  0.1025
  120MOL0     O16123  10.976   0.794   8.730 -0.5052  0.2339  0.1491
  120MOL0     C16124  11.123   0.799   8.733  0.0156  0.1715  0.1561
  120MOL0     C16125  11.157   0.683   8.836  0.0325 -0.4140 -0.7510
  120MOL0     C16126  11.305   0.678   8.883  0.7074 -0.3873  0.0878
  120MOL0     C16127  11.349   0.533   8.886 -0.7078  0.1219  0.7478
  120MOL0     C16128  11.496   0.516   8.909  0.7260 -0.3363  0.3151
  120MOL0     C16129  11.611   0.504   8.955  0.8429 -0.5086  0.5990
  120MOL0     C16130  10.963   0.950   8.552 -0.1454 -0.1849  0.3687
  120MOL0     C16131  10.909   1.013   8.437  0.8841 -0.6776  0.1045
  120MOL0     C16132  10.970   1.146   8.385  1.5352  0.9297 -0.3501
  120MOL0     H16133  10.821   1.375   8.139  0.6777  0.1087 -0.5560
  120MOL0     H16134  10.707   1.533   8.023 -0.5995  0.5918  1.8195
  120MOL0     H16135  10.403   1.689   7.843  1.0200  3.3538  2.2514
  120MOL0     H16136  10.547   1.698   7.940  0.3197  0.3817  0.0613
  120MOL0     H16137  10.627   1.486   7.809 -2.2767 -0.3744  0.0541
  120MOL0     H16138  10.620   1.639   7.707  0.4201  0.4035  0.2799
  120MOL0     H16139  10.427   1.409   7.688  3.0762 -1.7809  1.5862
  120MOL0     H16140  10.569   1.469   7.588  2.1789  2.4380  2.2016
  120MOL0     H16141  10.295   1.610   7.630 -1.3994 -0.2023 -0.9886
  120MOL0     H16142  10.442   1.692   7.555  0.9320 -1.5964 -1.6330
  120MOL0     H16143  10.410   1.516   7.366  1.5641  0.6289  1.2164
  120MOL0     H16144  10.279   1.466   7.458  0.7869 -0.3931  1.9402
  120MOL0     H16145  10.184   1.716   7.449  0.8322  1.4234 -0.9299
  120MOL0     H16146  10.337   1.744   7.356  2.7517 -2.4710 -0.1604
  120MOL0     H16147  10.091   1.542   7.307 -0.5851 -0.2755  0.6972
  120MOL0     H16148  10.240   1.560   7.209 -1.0020  0.1335 -1.7041
  120MOL0     H16149  10.030   1.787   7.247  0.9864  2.6158 -1.2064
  120MOL0     H16150  10.180   1.775   7.146 -0.6480  0.5240  0.8949
  120MOL0     H16151  10.185   1.608   6.925  0.9660  0.9004  1.8606
  120MOL0     H16152  10.071   1.419   6.753  1.2224  1.6756  4.0528
  120MOL0     H16153   9.906   1.374   6.792 -2.8229  1.2653  0.4146
  120MOL0     H16154   9.894   1.486   6.563 -1.3025  1.2107 -0.9976
  120MOL0     H16155   9.824   1.589   6.690  0.9348  1.2340  0.7211
  120MOL0     H16156  10.095   1.630   6.559  1.1062 -0.3639  1.5756
  120MOL0     H16157  10.030   1.716   6.707  2.2232  2.3558 -1.4851
  120MOL0     H16158   9.836   1.788   6.608  2.3832  1.1144  3.6005
  120MOL0     H16159   9.855   1.699   6.464 -3.0765  3.1320 -0.5537
  120MOL0     H16160  10.215   1.836   6.390 -0.2132  4.0436 -0.2946
  120MOL0     H16161  10.271   1.775   6.156 -0.0562 -2.2437  2.4805
  120MOL0     H16162  10.180   1.867   5.672 -0.0040 -1.2606  0.6964
  120MOL0     H16163  10.195   1.796   5.435 -0.9222  0.7065  0.6855
  120MOL0     H16164   9.930   1.465   5.313 -0.5777 -0.3559  0.1794
  120MOL0     H16165   9.909   1.601   5.202 -0.2776 -1.3615  0.4748
  120MOL0     H16166   9.961   1.400   5.069 -0.7368  2.4420 -1.1965
  120MOL0     H16167  10.066   1.536   5.047 -2.0322  1.8364  1.0475
  120MOL0     H16168  10.244   1.411   5.182 -0.0782  1.8261 -0.0023
  120MOL0     H16169  10.128   1.276   5.200  0.2209 -1.1181 -3.2606
  120MOL0     H16170  10.201   1.400   4.926 -1.3301 -1.1096 -2.5269
  120MOL0     H16171  10.095   1.273   4.949 -0.7253  3.2103  0.4250
  120MOL0     H16172  10.278   1.113   4.989 -1.5514  0.9841  0.3372
  120MOL0     H16173  10.380   1.238   5.058 -2.9383  3.1606  1.8222
  120MOL0     H16174  10.298   1.261   4.758  1.4644  0.3677 -1.2715
  120MOL0     H16175  10.428   1.335   4.842  2.0748 -1.6482  0.9109
  120MOL0     H16176  10.405   1.069   4.709 -1.5923 -0.6551  0.9386
  120MOL0     H16177  10.469   1.058   4.869 -1.9014 -3.2987 -2.8172
  120MOL0     H16178  10.669   1.184   4.793  1.9486  4.4355 -3.0728
  120MOL0     H16179  10.629   1.074   4.667 -3.6305 -0.7626  0.3075
  120MOL0     H16180   9.873   1.528   5.500 -2.2339  1.0507  2.2829
  120MOL0     H16181   9.871   1.583   5.742 -0.8598  2.4433  1.2440
  120MOL0     H16182   9.855   1.839   6.052  0.0554  1.0002 -0.4129
  120MOL0     H16183   9.810   1.891   6.279  1.2984  3.1428  2.5617
  120MOL0     H16184  10.341   1.294   8.086  0.5478 -3.2827  0.8724
  120MOL0     H16185  10.466   1.135   8.189 -1.7019  0.5091 -0.4920
  120MOL0     H16186  10.642   0.815   8.393  1.1280 -0.1925 -1.5762
  120MOL0     H16187  10.717   0.720   8.601 -3.9611  2.5526 -1.9056
  120MOL0     H16188  11.165   0.898   8.754  0.5677  0.9962 -3.9967
  120MOL0     H16189  11.159   0.776   8.632  1.1264 -0.3213  0.6523
  120MOL0     H16190  11.135   0.580   8.804  4.5516 -1.4285 -1.2927
  120MOL0     H16191  11.091   0.706   8.920 -0.1204 -2.4934 -0.2485
  120MOL0     H16192  11.318   0.743   8.970 -0.7775  3.4266 -2.3075
  120MOL0     H16193  11.360   0.730   8.804  0.7165 -2.8355 -1.6443
  120MOL0     H16194  11.303   0.480   8.970  0.7000  0.6409  1.8909
  120MOL0     H16195  11.328   0.487   8.789  2.6163  0.0674 -0.0501
  120MOL0     H16196  11.714   0.498   8.982  1.1673  0.7273 -0.2688
  120MOL0     H16197  11.059   0.989   8.585  1.3552 -2.3598 -1.1001
  120MOL0     H16198  10.994   1.158   8.278 -1.6345  0.0393 -1.2597
  120MOL0     H16199  10.913   1.234   8.417 -0.1328 -0.5698  1.0293
  120MOL0     H16200  11.064   1.168   8.437  0.8612  2.9439  0.0717
  121MOL0     O16201   4.531   2.289   1.373 -0.1700  0.4005  0.8374
  121MOL0     C16202   4.439   2.227   1.434 -0.6582  0.6564 -0.4179
  121MOL0     O16203   4.463   2.164   1.562  0.0216 -0.8892  0.4660
  121MOL0     C16204   4.584   2.186   1.602 -0.3968 -0.1490 -1.1374
  121MOL0     C16205   4.682   2.095   1.579  1.0502 -0.4383  0.9043
  121MOL0     C16206   4.815   2.109   1.624 -0.7392  0.0566  0.3960
  121MOL0     C16207   4.850   2.213   1.710 -0.8380  0.2760  0.4363
  121MOL0     O16208   4.985   2.212   1.746  0.6517 -0.5357 -0.4170
  121MOL0     C16209   5.022   2.323   1.823  0.0292 -0.1247  0.1196
  121MOL0     C16210   5.162   2.295   1.876  0.9748 -0.0243  0.5686
  121MOL0     C16211   5.217   2.426   1.948 -0.2650  0.2693 -0.5686
  121MOL0     C16212   5.369   2.400   1.986  0.5460  0.3712  0.1156
  121MOL0     C16213   5.411   2.515   2.075 -0.2198  0.6364  0.8862
  121MOL0     C16214   5.568   2.505   2.107 -0.0728 -0.0905 -0.3134
  121MOL0     C16215   5.615   2.382   2.189  0.3641  0.2355  0.0864
  121MOL0     C16216   5.767   2.385   2.206 -0.2037 -0.0994  0.8612
  121MOL0     N16217   5.824   2.495   2.284  0.2869 -0.1831  0.2589
  121MOL0     C16218   5.825   2.493   2.418  0.5205  0.2575 -0.5635
  121MOL0     C16219   5.943   2.556   2.460  1.1410  0.3217 -0.5052
  121MOL0     C16220   6.006   2.570   2.594 -0.2352  0.3326 -0.5831
  121MOL0     C16221   6.127   2.665   2.615 -0.4671  0.2434  0.1410
  121MOL0     C16222   6.151   2.678   2.763  0.1190  0.1074 -0.2216
  121MOL0     C16223   6.270   2.782   2.797  0.8799 -0.9366  0.3114
  121MOL0     O16224   6.251   2.824   2.941  0.3345 -0.8956  0.4000
  121MOL0     C16225   6.295   2.727   3.032 -0.2811  0.3701 -0.0131
  121MOL0     C16226   6.306   2.765   3.167  0.2130 -0.9337  0.3824
  121MOL0     C16227   6.351   2.681   3.265  0.7606 -0.2575 -0.1342
  121MOL0     C16228   6.397   2.550   3.231  0.0791  0.0889  0.3617
  121MOL0     C16229   6.450   2.466   3.336 -0.7053  0.7906  0.8533
  121MOL0     O16230   6.500   2.533   3.433 -0.3036  0.4790  0.0690
  121MOL0     C16231   6.599   2.492   3.524 -0.2809 -0.0482  1.1066
  121MOL0     C16232   6.684   2.382   3.504  0.5971 -0.7232  0.1977
  121MOL0     C16233   6.771   2.338   3.598  0.0650 -0.4646  0.1370
  121MOL0     C16234   6.791   2.415   3.720 -0.3137 -0.5551 -0.1019
  121MOL0     O16235   6.883   2.387   3.816 -0.5534 -0.0317  0.3757
  121MOL0     C16236   6.906   2.242   3.852  0.5254 -0.0785  0.0592
  121MOL0     C16237   6.862   2.227   4.000 -0.0489 -0.5255  0.0297
  121MOL0     C16238   6.940   2.326   4.084 -0.4539  0.4857 -0.8665
  121MOL0     C16239   6.862   2.333   4.212  0.7086 -0.4489 -0.2911
  121MOL0     C16240   6.946   2.390   4.327  0.3878  0.0051  0.8963
  121MOL0     C16241   6.997   2.540   4.316  0.1778  0.1748 -0.9721
  121MOL0     C16242   6.881   2.646   4.337  0.0572  0.3608  0.2174
  121MOL0     C16243   6.827   2.694   4.204 -0.1820  0.9112 -1.3312
  121MOL0    Cl16244   6.741   2.848   4.215  0.3641 -0.0163  0.1974
  121MOL0     C16245   6.717   2.540   3.733 -0.4316  0.3333  0.2744
  121MOL0     C16246   6.625   2.567   3.636  0.4678 -0.9176 -0.0485
  121MOL0     O16247   6.459   2.343   3.319  0.4518 -0.0964  0.7464
  121MOL0     C16248   6.416   2.523   3.097 -0.4272  0.1974 -0.5703
  121MOL0     C16249   6.368   2.608   3.001 -0.3981 -1.1283  0.9922
  121MOL0     N16250   5.993   2.604   2.345  0.6780 -0.3223  0.4897
  121MOL0     N16251   5.922   2.569   2.237  0.8463  0.7126  0.8253
  121MOL0     C16252   4.744   2.310   1.750 -0.0655 -0.3185  0.0700
  121MOL0     C16253   4.614   2.296   1.689 -0.3077  0.7187  0.9469
  121MOL0     C16254   4.301   2.218   1.374  1.2133 -0.0022 -0.1226
  121MOL0     C16255   4.199   2.137   1.435 -0.6393  0.1537  0.3995
  121MOL0     C16256   4.073   2.109   1.369 -0.6730 -0.2105  0.8383
  121MOL0     C16257   4.033   2.178   1.258 -0.9703 -0.4043 -0.6313
  121MOL0     O16258   3.914   2.160   1.207  0.1741  0.0003 -0.0230
  121MOL0     C16259   3.806   2.238   1.266 -0.8047 -0.3899  0.3402
  121MOL0     C16260   3.722   2.327   1.174 -0.8623  0.5330  0.1983
  121MOL0     C16261   3.794   2.464   1.158 -0.4540 -1.0137  0.0320
  121MOL0     C16262   3.743   2.528   1.023  0.1977 -0.3141  0.2267
  121MOL0     C16263   3.806   2.662   1.003 -0.6568  1.4564 -0.2691
  121MOL0     C16264   3.868   2.766   0.985 -0.4521  0.6364 -0.4150
  121MOL0     C16265   4.126   2.266   1.199  1.3198 -0.2634 -0.1108
  121MOL0     C16266   4.260   2.286   1.253  1.1558 -0.5979  0.5566
  121MOL0     C16267   4.347   2.381   1.163 -1.0341 -0.6743 -0.1489
  121MOL0     H16268   4.665   2.002   1.524  3.5719 -0.0887 -0.6422
  121MOL0     H16269   4.884   2.030   1.596 -1.6363 -1.8746  3.2030
  121MOL0     H16270   5.018   2.413   1.761  0.5774 -1.1840 -1.5243
  121MOL0     H16271   4.947   2.320   1.903 -2.8325  0.0580 -2.3822
  121MOL0     H16272   5.232   2.258   1.801  0.8714  0.3585  0.2790
  121MOL0     H16273   5.145   2.219   1.953  4.1621 -0.9020  0.5344
  121MOL0     H16274   5.175   2.446   2.047  0.3546 -2.7057  0.4008
  121MOL0     H16275   5.204   2.520   1.894 -2.0508  0.8746  0.8325
  121MOL0     H16276   5.379   2.304   2.036  2.0630  1.4995  2.0990
  121MOL0     H16277   5.434   2.406   1.898 -1.1528  0.0378 -1.2297
  121MOL0     H16278   5.388   2.616   2.038 -0.2119  1.0185  1.8825
  121MOL0     H16279   5.360   2.509   2.172  0.8051  2.6049  1.6040
  121MOL0     H16280   5.621   2.510   2.012  3.1171  0.0786  1.3236
  121MOL0     H16281   5.603   2.592   2.163  3.5892 -2.8401  2.1804
  121MOL0     H16282   5.569   2.292   2.145 -4.3319  2.3109  0.1343
  121MOL0     H16283   5.564   2.390   2.285 -0.1175 -2.4854  0.1607
  121MOL0     H16284   5.793   2.294   2.261  0.5434 -0.2263  0.3143
  121MOL0     H16285   5.816   2.390   2.108  1.2736  1.0782  1.6281
  121MOL0     H16286   5.755   2.438   2.479 -2.0926  1.1188 -2.6266
  121MOL0     H16287   5.927   2.611   2.657  0.5029  0.1573  0.4824
  121MOL0     H16288   6.031   2.465   2.614 -1.4438 -0.1679 -1.5434
  121MOL0     H16289   6.225   2.629   2.583  0.0240  2.5880 -1.1441
  121MOL0     H16290   6.110   2.763   2.570 -0.1099  0.5108  0.5769
  121MOL0     H16291   6.162   2.582   2.815 -1.7229 -0.0283 -0.0311
  121MOL0     H16292   6.069   2.731   2.811  0.9732  1.9295 -0.6810
  121MOL0     H16293   6.268   2.874   2.738  1.4411 -0.8192  0.4676
  121MOL0     H16294   6.370   2.745   2.775  1.1858  0.2411 -0.3385
  121MOL0     H16295   6.257   2.857   3.196  1.2852  0.0673 -0.8637
  121MOL0     H16296   6.349   2.708   3.370  0.5593  2.1851 -0.7079
  121MOL0     H16297   6.678   2.320   3.415 -1.6962 -2.5499  1.4933
  121MOL0     H16298   6.820   2.245   3.575  2.7496  1.7555 -4.6830
  121MOL0     H16299   6.855   2.174   3.784  1.2460 -1.5390  0.9220
  121MOL0     H16300   7.012   2.214   3.850  0.9806  1.4072  1.1048
  121MOL0     H16301   6.754   2.245   4.004  0.1102  0.2899  2.1649
  121MOL0     H16302   6.886   2.126   4.034 -0.7227 -0.8453 -0.4159
  121MOL0     H16303   7.039   2.283   4.097 -1.3312 -1.3912 -0.0080
  121MOL0     H16304   6.949   2.430   4.050  0.7405  0.6666 -0.0436
  121MOL0     H16305   6.822   2.241   4.256  4.2897 -0.2985  4.0238
  121MOL0     H16306   6.775   2.397   4.191 -0.0990 -2.0456 -2.0225
  121MOL0     H16307   7.030   2.321   4.341 -1.3940 -3.2145 -2.3625
  121MOL0     H16308   6.883   2.392   4.416 -0.8236 -2.7676  0.2371
  121MOL0     H16309   7.059   2.563   4.402 -0.1832 -1.1438 -0.3314
  121MOL0     H16310   7.056   2.576   4.231 -2.0069 -0.0920 -2.7219
  121MOL0     H16311   6.915   2.730   4.399 -2.1195 -0.5227  2.7710
  121MOL0     H16312   6.794   2.598   4.382  1.0025 -0.4918  1.2130
  121MOL0     H16313   6.911   2.712   4.136  1.3579 -0.6343  0.0727
  121MOL0     H16314   6.760   2.624   4.153  1.4118  0.4305 -2.9021
  121MOL0     H16315   6.736   2.611   3.813  1.1373  0.7202 -0.4108
  121MOL0     H16316   6.570   2.656   3.666  1.3182 -1.1282  2.3973
  121MOL0     H16317   6.461   2.426   3.077 -1.9871 -0.1740 -2.6181
  121MOL0     H16318   6.401   2.580   2.901  1.7433  0.5695  1.1561
  121MOL0     H16319   4.768   2.397   1.810  5.8772 -0.4625 -1.4425
  121MOL0     H16320   4.541   2.374   1.711 -0.0897  1.4697 -0.8562
  121MOL0     H16321   4.232   2.095   1.530  0.1415 -0.1361  0.0018
  121MOL0     H16322   3.994   2.048   1.410 -2.9726  2.7155  1.1111
  121MOL0     H16323   3.848   2.303   1.344  0.2717  2.0386 -2.1184
  121MOL0     H16324   3.752   2.156   1.315 -0.0448 -0.5705  0.8873
  121MOL0     H16325   3.625   2.352   1.218 -1.6573  1.8246 -2.1189
  121MOL0     H16326   3.686   2.280   1.081 -5.4917  2.2898  0.8374
  121MOL0     H16327   3.902   2.455   1.145 -0.3390  1.5882 -1.4629
  121MOL0     H16328   3.766   2.540   1.231  1.1492 -1.7991  1.5392
  121MOL0     H16329   3.772   2.465   0.938  0.3724 -1.5740  1.2027
  121MOL0     H16330   3.635   2.539   1.027  0.3791  1.6316  2.8379
  121MOL0     H16331   3.895   2.866   0.958 -0.5660  0.3733 -1.5409
  121MOL0     H16332   4.111   2.320   1.106 -0.1295 -2.5166 -1.2683
  121MOL0     H16333   4.394   2.470   1.207  2.6592 -1.5481 -1.9221
  121MOL0     H16334   4.440   2.336   1.126  0.8857  2.9010 -0.1013
  121MOL0     H16335   4.287   2.415   1.079 -0.7641 -1.9112 -0.8739
  122MOL0     O16336  10.727   7.596  10.798  0.4868 -0.0883  0.0592
  122MOL0     C16337  10.665   7.692  10.834 -1.1918 -0.0119  0.6573
  122MOL0     O16338  10.701   7.766  10.943  0.4033 -0.2883  1.0819
  122MOL0     C16339  10.825   7.756  10.996 -0.2237  1.3232  0.5790
  122MOL0     C16340  10.939   7.795  10.926  0.5152  0.3029  0.1671
  122MOL0     C16341  11.059   7.800  10.994  0.6104 -1.5490  0.5315
  122MOL0     C16342  11.065   7.760  11.129 -0.4020 -0.1877 -0.8665
  122MOL0     O16343  11.184   7.771  11.191  0.1418  0.9365  0.7876
  122MOL0     C16344  11.203   7.799  11.325 -0.0466  0.3252 -0.1931
  122MOL0     C16345  11.339   7.868  11.339  0.2696  0.2115 -1.0765
  122MOL0     C16346  11.374   7.910  11.484  0.2446 -0.0964  0.1746
  122MOL0     C16347  11.514   7.989  11.509 -0.2264  0.4201 -0.8692
  122MOL0     C16348  11.551   7.989  11.660  0.9986  0.7392 -0.2040
  122MOL0     C16349  11.443   8.042  11.750  0.6880 -0.7287  0.0223
  122MOL0     C16350  11.412   8.190  11.696  1.1874  0.5774 -0.4013
  122MOL0     C16351  11.314   8.259  11.794 -0.3927  0.2162 -0.0296
  122MOL0     N16352  11.256   8.383  11.738 -0.0386 -0.2709 -0.4662
  122MOL0     C16353  11.332   8.497  11.751 -0.6579 -0.1912  0.0150
  122MOL0     C16354  11.254   8.589  11.705  0.2728 -0.7548 -0.1779
  122MOL0     C16355  11.291   8.736  11.708 -0.3590  0.4947  0.0688
  122MOL0     C16356  11.318   8.796  11.568 -0.7698 -0.0830  0.1074
  122MOL0     C16357  11.200   8.838  11.477 -0.6284 -0.5292 -0.5838
  122MOL0     C16358  11.145   8.709  11.406 -1.0503  0.5494 -0.2464
  122MOL0     O16359  11.085   8.748  11.285 -0.3421  0.3957  0.3488
  122MOL0     C16360  10.959   8.819  11.281  0.0934  0.1679  0.2621
  122MOL0     C16361  10.893   8.851  11.396  0.2748 -0.2721  0.5301
  122MOL0     C16362  10.762   8.907  11.378  0.1643  0.2835 -0.2767
  122MOL0     C16363  10.708   8.948  11.250  0.1176  0.4723  0.6841
  122MOL0     C16364  10.582   9.023  11.241 -0.5428  0.1509 -0.0271
  122MOL0     O16365  10.511   9.037  11.353  0.3110  0.3047 -0.9231
  122MOL0     C16366  10.377   9.087  11.360  0.3790  0.2179  0.5848
  122MOL0     C16367  10.278   9.070  11.253  0.0574 -0.3363 -1.0176
  122MOL0     C16368  10.149   9.135  11.259 -0.1135 -0.1123  0.3163
  122MOL0     C16369  10.120   9.207  11.378  0.4027  1.4228 -0.1473
  122MOL0     O16370   9.997   9.272  11.391 -0.1825  0.8152  0.6396
  122MOL0     C16371   9.967   9.362  11.279  0.7374  0.6904  0.4821
  122MOL0     C16372   9.839   9.310  11.212 -0.0568 -0.7119  0.2009
  122MOL0     C16373   9.709   9.338  11.298 -0.0234  0.7906 -0.0580
  122MOL0     C16374   9.586   9.363  11.205 -0.0457 -0.3085  0.7828
  122MOL0     C16375   9.457   9.334  11.276 -0.1029  0.0458  0.0388
  122MOL0     C16376   9.336   9.333  11.180 -0.2101  0.4070 -0.4351
  122MOL0     C16377   9.324   9.212  11.090  0.0836  0.5357  0.3782
  122MOL0     C16378   9.186   9.210  11.020 -0.5914 -0.3103  0.3733
  122MOL0    Cl16379   9.168   9.043  10.946  0.5044  0.2309  0.0009
  122MOL0     C16380  10.214   9.230  11.467 -0.2887  0.4899 -0.6497
  122MOL0     C16381  10.341   9.165  11.463  0.5728  0.0767 -0.2261
  122MOL0     O16382  10.548   9.068  11.128  0.3027  0.0331 -0.8283
  122MOL0     C16383  10.778   8.900  11.143 -0.0894  0.3049 -0.3777
  122MOL0     C16384  10.900   8.835  11.152 -0.5370 -0.1816  0.0768
  122MOL0     N16385  11.133   8.534  11.667 -0.4734  0.3186 -0.3383
  122MOL0     N16386  11.133   8.404  11.689  0.7063 -0.0935  1.0455
  122MOL0     C16387  10.952   7.711  11.195  0.4162  0.7153 -0.2758
  122MOL0     C16388  10.835   7.716  11.126 -0.2765  0.4194  1.0958
  122MOL0     C16389  10.541   7.748  10.753 -0.9613  0.6528  0.2394
  122MOL0     C16390  10.442   7.815  10.819  0.1831 -0.3889 -0.7147
  122MOL0     C16391  10.322   7.855  10.761 -0.4864  0.2084  0.2910
  122MOL0     C16392  10.317   7.865  10.626  0.5988  0.1444 -0.5529
  122MOL0     O16393  10.217   7.940  10.571 -0.5876 -0.7506  0.6870
  122MOL0     C16394  10.094   7.881  10.538 -0.3934 -0.4972 -0.1447
  122MOL0     C16395  10.027   7.941  10.411  0.1378 -0.1103 -0.1084
  122MOL0     C16396  10.093   7.897  10.289  0.7252 -0.2007  0.2747
  122MOL0     C16397  10.058   7.975  10.165 -0.3547 -0.3063 -0.0918
  122MOL0     C16398  10.101   7.907  10.043 -0.3031  0.3075 -0.4545
  122MOL0     C16399  10.146   7.838   9.956 -0.0536  0.4800 -0.2126
  122MOL0     C16400  10.418   7.797  10.552  0.9028  0.8331 -0.0302
  122MOL0     C16401  10.527   7.741  10.615 -0.1378  0.5019 -0.0203
  122MOL0     C16402  10.631   7.671  10.527  0.4109  0.3317  0.9091
  122MOL0     H16403  10.956   7.828  10.824  2.1590  3.3942  1.3032
  122MOL0     H16404  11.139   7.841  10.934 -1.0302 -1.8362 -2.0641
  122MOL0     H16405  11.124   7.859  11.371  0.6384 -1.1403  3.1667
  122MOL0     H16406  11.205   7.702  11.376  0.8497  0.7731  0.6407
  122MOL0     H16407  11.328   7.958  11.277 -1.8287  0.9089  0.1820
  122MOL0     H16408  11.420   7.804  11.303 -0.0615 -0.8056 -0.0612
  122MOL0     H16409  11.371   7.823  11.550 -1.3566  0.1247  0.4508
  122MOL0     H16410  11.295   7.971  11.530  2.9226  2.1788  2.0571
  122MOL0     H16411  11.592   7.943  11.447  1.1422 -1.0002  1.7555
  122MOL0     H16412  11.505   8.094  11.478  3.7310  1.4674  0.9057
  122MOL0     H16413  11.561   7.887  11.698  3.1635  0.9377 -0.0830
  122MOL0     H16414  11.649   8.028  11.691  1.4517 -2.0724  2.3378
  122MOL0     H16415  11.347   7.991  11.748  0.0259  0.4577 -2.3835
  122MOL0     H16416  11.485   8.058  11.850 -0.5730  1.6300  0.2619
  122MOL0     H16417  11.353   8.196  11.604 -1.4968  0.9508  1.2441
  122MOL0     H16418  11.499   8.252  11.672  0.2983  1.7448 -0.6910
  122MOL0     H16419  11.226   8.200  11.820 -1.4684  1.3846 -0.8995
  122MOL0     H16420  11.372   8.265  11.886  0.1355  0.3158 -0.3592
  122MOL0     H16421  11.428   8.508  11.801 -1.2990  1.7078  0.9071
  122MOL0     H16422  11.216   8.789  11.768  1.0918  2.3436  0.3429
  122MOL0     H16423  11.382   8.747  11.769  0.8331  2.7796 -1.9602
  122MOL0     H16424  11.374   8.885  11.596  0.2369 -1.1107  1.4843
  122MOL0     H16425  11.384   8.725  11.518 -0.3756  1.1037 -1.1418
  122MOL0     H16426  11.245   8.902  11.401 -1.4869  3.8731  2.2080
  122MOL0     H16427  11.122   8.898  11.526 -0.9063 -0.3550 -1.2285
  122MOL0     H16428  11.074   8.655  11.469  2.1199  0.0031  3.1825
  122MOL0     H16429  11.225   8.639  11.381  0.6481  2.6750 -1.0284
  122MOL0     H16430  10.935   8.838  11.495  2.0609  0.4436 -0.0968
  122MOL0     H16431  10.704   8.933  11.465 -0.8140  1.4090 -1.2223
  122MOL0     H16432  10.310   9.016  11.164 -2.2416 -1.0785 -1.4711
  122MOL0     H16433  10.073   9.114  11.184  1.7199 -2.9588 -0.9157
  122MOL0     H16434   9.960   9.460  11.327  0.0810  1.2512 -0.7401
  122MOL0     H16435  10.046   9.362  11.204 -0.7275  2.0369 -1.1285
  122MOL0     H16436   9.834   9.367  11.119  3.6540  0.0745  0.3151
  122MOL0     H16437   9.846   9.205  11.182 -1.9903 -0.4601 -1.2865
  122MOL0     H16438   9.696   9.246  11.355 -2.8645  0.7863 -0.5923
  122MOL0     H16439   9.724   9.423  11.365  0.5510 -0.2544  1.1773
  122MOL0     H16440   9.573   9.301  11.117  0.5919  1.1094 -0.3529
  122MOL0     H16441   9.588   9.468  11.172 -0.4698 -0.4487  0.3016
  122MOL0     H16442   9.443   9.411  11.352  1.1335 -0.1892  0.5182
  122MOL0     H16443   9.456   9.233  11.319  0.1367 -0.5409 -1.2911
  122MOL0     H16444   9.257   9.328  11.257  2.8095  0.0200  2.9108
  122MOL0     H16445   9.324   9.423  11.120  1.1415 -0.8257 -2.6818
  122MOL0     H16446   9.325   9.119  11.148  0.6429  2.6892  4.0789
  122MOL0     H16447   9.404   9.214  11.015 -0.0706  0.9434  0.2204
  122MOL0     H16448   9.110   9.225  11.097 -2.6372  1.3697 -1.8426
  122MOL0     H16449   9.178   9.288  10.944  3.2414 -1.2744 -1.2659
  122MOL0     H16450  10.189   9.305  11.542  0.6483  2.2606 -2.0437
  122MOL0     H16451  10.415   9.179  11.541 -0.5258  1.3402  0.6510
  122MOL0     H16452  10.727   8.897  11.047  2.4939  0.0585 -1.8401
  122MOL0     H16453  10.943   8.809  11.056  1.6781  3.4890 -0.1079
  122MOL0     H16454  10.958   7.675  11.297 -0.2748 -2.9129 -1.3571
  122MOL0     H16455  10.747   7.679  11.178  0.5396  0.3191  2.4622
  122MOL0     H16456  10.457   7.826  10.926  2.0718  3.3536 -1.2006
  122MOL0     H16457  10.234   7.889  10.814  0.0523  1.4330  0.4479
  122MOL0     H16458  10.033   7.896  10.628 -0.9337 -1.2857 -0.3671
  122MOL0     H16459  10.114   7.774  10.546 -4.6688 -1.3426  1.7821
  122MOL0     H16460  10.053   8.046  10.428  4.7293 -1.4095  2.2793
  122MOL0     H16461   9.919   7.926  10.400 -0.1646  0.9330  1.1322
  122MOL0     H16462  10.070   7.790  10.287  1.5191 -0.3761 -1.6744
  122MOL0     H16463  10.199   7.898  10.318 -0.1296  2.3860  4.0297
  122MOL0     H16464   9.949   7.985  10.167 -0.4393 -0.7704 -1.6879
  122MOL0     H16465  10.109   8.072  10.167  1.9490 -1.4445 -0.4068
  122MOL0     H16466  10.185   7.753   9.904 -0.0902 -1.9587  3.3230
  122MOL0     H16467  10.415   7.792  10.444  3.3802 -1.5006 -0.1148
  122MOL0     H16468  10.626   7.563  10.545 -0.0317  0.1848 -0.0309
  122MOL0     H16469  10.627   7.686  10.419  1.3179  0.2979  0.8637
  122MOL0     H16470  10.719   7.717  10.574  0.0631 -0.9208  2.9037
  123MOL0     O16471   4.000   5.809   9.861  0.0802 -0.1124  1.1357
  123MOL0     C16472   4.030   5.924   9.856 -0.2743  0.1322  0.2964
  123MOL0     O16473   4.005   6.030   9.950 -0.2533  0.6118  0.8856
  123MOL0     C16474   3.911   6.025  10.049 -0.4090 -0.3416 -0.0810
  123MOL0     C16475   3.828   5.914  10.065 -1.0438 -1.1359  0.3554
  123MOL0     C16476   3.752   5.898  10.177 -0.2455 -0.2644 -0.1647
  123MOL0     C16477   3.761   5.986  10.282  0.3314 -0.2687 -0.1614
  123MOL0     O16478   3.676   5.973  10.389 -0.3067 -1.0255  0.4268
  123MOL0     C16479   3.635   5.846  10.442  0.4182  0.5389  0.2219
  123MOL0     C16480   3.479   5.859  10.429  1.1557  0.3946 -0.2135
  123MOL0     C16481   3.431   5.983  10.520  0.4287 -0.8885  0.4843
  123MOL0     C16482   3.277   5.996  10.510  1.7118  0.6825  0.3097
  123MOL0     C16483   3.227   6.113  10.597  0.6417  0.0754  0.4593
  123MOL0     C16484   3.205   6.082  10.741  0.5571 -1.2165  0.2736
  123MOL0     C16485   3.162   6.202  10.818 -0.1952 -0.6710 -0.0605
  123MOL0     C16486   3.144   6.161  10.967  0.7997 -0.7431 -0.6721
  123MOL0     N16487   3.014   6.100  10.993 -0.4623  0.3195  0.3158
  123MOL0     C16488   3.011   5.975  11.056 -0.8925  0.5116 -0.9648
  123MOL0     C16489   2.885   5.955  11.066  0.2112 -0.2518  0.1533
  123MOL0     C16490   2.809   5.826  11.103 -0.0897 -0.1243 -0.4819
  123MOL0     C16491   2.763   5.839  11.250 -0.2061 -0.0519 -0.1771
  123MOL0     C16492   2.875   5.768  11.329 -0.2363  0.8009  0.7233
  123MOL0     C16493   2.865   5.808  11.478 -0.1840 -0.2639  0.8220
  123MOL0     O16494   2.998   5.836  11.526  0.4302 -0.1343 -0.1227
  123MOL0     C16495   3.013   5.846  11.659  0.6004 -0.0037 -0.4238
  123MOL0     C16496   2.965   5.752  11.747 -0.1477 -0.3085 -0.1494
  123MOL0     C16497   2.965   5.784  11.884 -0.5601  0.1971 -0.0347
  123MOL0     C16498   3.020   5.904  11.934 -0.5016 -0.4460  0.6326
  123MOL0     C16499   3.041   5.941  12.076  0.7158  1.4568  0.9002
  123MOL0     O16500   3.067   6.064  12.125  0.2050 -0.0449  0.3024
  123MOL0     C16501   3.038   6.090  12.251 -0.5937  0.0324 -0.3705
  123MOL0     C16502   2.901   6.124  12.285 -1.6484  0.6050 -0.5828
  123MOL0     C16503   2.884   6.148  12.424  0.7618  0.3219 -0.9103
  123MOL0     C16504   2.989   6.134  12.519  0.0029 -0.1102 -0.1008
  123MOL0     O16505   2.957   6.163  12.651  1.2569  0.8113  0.6418
  123MOL0     C16506   2.920   6.042  12.720  0.3692 -0.7899 -0.5608
  123MOL0     C16507   2.912   6.062  12.871 -0.7653  0.6861 -0.0918
  123MOL0     C16508   2.854   5.934  12.954  0.0777 -1.0993  0.6792
  123MOL0     C16509   2.805   5.961  13.102 -0.4871 -0.6216  0.4259
  123MOL0     C16510   2.925   5.978  13.197  0.2244 -0.4612 -0.1542
  123MOL0     C16511   2.893   5.932  13.346  0.0062  0.7443  0.1876
  123MOL0     C16512   3.001   5.959  13.447  0.7274  0.8618  1.0166
  123MOL0     C16513   3.013   5.860  13.561  0.2312  0.9142 -0.2787
  123MOL0    Cl16514   3.034   5.700  13.494  0.2808 -0.1224 -0.4239
  123MOL0     C16515   3.121   6.102  12.479 -0.5135 -1.0453  0.1020
  123MOL0     C16516   3.149   6.089  12.338  0.4341 -1.2396  0.3203
  123MOL0     O16517   3.005   5.842  12.140 -0.2333 -0.0084 -0.7215
  123MOL0     C16518   3.064   5.993  11.848  0.4301 -0.5088 -0.3579
  123MOL0     C16519   3.066   5.967  11.711 -0.1176  1.5109 -0.9667
  123MOL0     N16520   2.813   6.067  11.026 -0.7152 -0.2273 -0.6388
  123MOL0     N16521   2.892   6.145  10.966 -0.6260 -0.0035 -0.2295
  123MOL0     C16522   3.832   6.107  10.263  0.2680 -0.0301  0.2003
  123MOL0     C16523   3.916   6.117  10.150 -0.2263 -0.7167 -0.0427
  123MOL0     C16524   4.106   5.964   9.736 -0.0026 -0.2720 -0.4786
  123MOL0     C16525   4.103   6.099   9.697  0.4384 -0.3635  0.7897
  123MOL0     C16526   4.157   6.135   9.573 -0.0283 -0.0978  0.2183
  123MOL0     C16527   4.213   6.045   9.482  0.7256  0.7460  0.4273
  123MOL0     O16528   4.264   6.073   9.356 -0.8668 -0.4169  0.7773
  123MOL0     C16529   4.260   6.199   9.289  0.7389  0.1154 -0.6958
  123MOL0     C16530   4.340   6.198   9.163 -0.1569  0.0787  0.2035
  123MOL0     C16531   4.494   6.237   9.184 -0.4554  0.3731  0.0443
  123MOL0     C16532   4.543   6.271   9.041  0.2889 -0.1761 -0.6351
  123MOL0     C16533   4.690   6.247   9.018  0.4746 -0.3982  0.2923
  123MOL0     C16534   4.810   6.238   8.993 -0.4300 -0.4035 -0.1846
  123MOL0     C16535   4.220   5.910   9.519 -0.1148 -0.3122  0.0102
  123MOL0     C16536   4.180   5.872   9.649  0.1346  0.6100  0.7230
  123MOL0     C16537   4.206   5.722   9.677  0.2872 -0.5052 -0.6993
  123MOL0     H16538   3.815   5.834   9.993  1.0708 -0.6689 -0.5935
  123MOL0     H16539   3.679   5.819  10.190 -0.2675 -0.0119  1.4216
  123MOL0     H16540   3.672   5.760  10.385  1.3055  1.9182 -1.4078
  123MOL0     H16541   3.669   5.832  10.545  4.5650 -1.2152 -1.1259
  123MOL0     H16542   3.438   5.761  10.454 -0.3354 -0.1984 -4.2351
  123MOL0     H16543   3.462   5.874  10.322  0.0159 -2.0657 -0.4478
  123MOL0     H16544   3.484   6.075  10.493  0.2319 -0.4803  1.4308
  123MOL0     H16545   3.464   5.952  10.620  2.1294  1.0983  0.6148
  123MOL0     H16546   3.243   6.021  10.409 -1.5974  1.1354  1.4205
  123MOL0     H16547   3.226   5.902  10.530 -5.5298  3.0616 -3.3337
  123MOL0     H16548   3.285   6.203  10.577  0.6322  0.2025  0.9871
  123MOL0     H16549   3.130   6.133  10.549  1.7489  1.8123 -1.1780
  123MOL0     H16550   3.123   6.010  10.748  0.1584 -1.0100 -1.6698
  123MOL0     H16551   3.292   6.035  10.789  0.0061 -1.1355  1.3811
  123MOL0     H16552   3.068   6.246  10.783  0.0272  2.2889  2.6246
  123MOL0     H16553   3.238   6.281  10.816 -0.0526 -0.6536  2.7667
  123MOL0     H16554   3.228   6.106  11.011  0.7814  0.6195  1.2018
  123MOL0     H16555   3.140   6.255  11.023  2.7673 -1.0188 -0.0072
  123MOL0     H16556   3.101   5.918  11.077 -0.9496  0.9341  0.4591
  123MOL0     H16557   2.717   5.808  11.048  0.7350 -2.4710 -1.2253
  123MOL0     H16558   2.871   5.739  11.077 -2.0441 -2.2415  1.4391
  123MOL0     H16559   2.750   5.943  11.283  1.2061 -0.8281  3.2773
  123MOL0     H16560   2.669   5.786  11.267  0.8658 -1.7012  0.7857
  123MOL0     H16561   2.971   5.789  11.282 -0.3708 -1.8378 -0.9092
  123MOL0     H16562   2.872   5.659  11.320  0.4030  0.7048  1.6016
  123MOL0     H16563   2.795   5.747  11.537 -1.0059 -2.4151 -2.1014
  123MOL0     H16564   2.826   5.910  11.473 -0.6082 -0.4374 -4.0639
  123MOL0     H16565   2.920   5.657  11.718  0.7398 -0.6039 -0.6279
  123MOL0     H16566   2.920   5.725  11.963  0.4047 -1.0125 -0.3614
  123MOL0     H16567   2.822   6.124  12.211 -0.4082 -2.2609 -2.0869
  123MOL0     H16568   2.782   6.159  12.460  0.8827 -3.3980  1.0487
  123MOL0     H16569   2.822   6.001  12.693  0.9362 -3.4060  0.9718
  123MOL0     H16570   2.986   5.963  12.684 -0.5627 -1.2834 -1.2168
  123MOL0     H16571   3.010   6.084  12.916 -1.7246  0.8023  2.0947
  123MOL0     H16572   2.841   6.144  12.885  1.6751  3.3240 -1.9746
  123MOL0     H16573   2.765   5.895  12.905  0.7506  1.9289 -3.3964
  123MOL0     H16574   2.925   5.851  12.959  1.8778 -0.1106 -3.6948
  123MOL0     H16575   2.747   5.873  13.130  0.1860 -0.3723  2.8607
  123MOL0     H16576   2.754   6.057  13.111  2.5202  1.2826 -1.2718
  123MOL0     H16577   2.958   6.082  13.210 -1.7111 -0.0812  2.5296
  123MOL0     H16578   3.017   5.924  13.173  0.3037 -0.9147  1.0987
  123MOL0     H16579   2.800   5.978  13.380 -0.4304  1.4422 -1.7573
  123MOL0     H16580   2.863   5.828  13.341 -2.6277  1.4773 -1.1601
  123MOL0     H16581   2.976   6.051  13.502 -1.0076 -0.0833  1.8607
  123MOL0     H16582   3.088   5.966  13.380 -1.2638  2.0607 -1.6375
  123MOL0     H16583   3.100   5.889  13.622 -1.2010  1.8780  1.4138
  123MOL0     H16584   2.918   5.861  13.616  0.9004 -1.9868  1.1319
  123MOL0     H16585   3.192   6.105  12.561 -0.7501 -1.6426  0.3321
  123MOL0     H16586   3.253   6.078  12.309  0.3757 -2.2933  0.4844
  123MOL0     H16587   3.103   6.086  11.888 -0.1289 -1.2009  1.9551
  123MOL0     H16588   3.093   6.039  11.635 -0.2395  1.6464 -0.8826
  123MOL0     H16589   3.811   6.184  10.336 -0.4860  0.0109 -0.0516
  123MOL0     H16590   3.986   6.200  10.146  0.0264 -0.9548 -0.9668
  123MOL0     H16591   4.039   6.171   9.746  1.0007 -1.2532  2.9498
  123MOL0     H16592   4.137   6.237   9.539 -4.7957 -0.7646  0.2732
  123MOL0     H16593   4.293   6.281   9.354 -1.9127  0.3083  0.5525
  123MOL0     H16594   4.157   6.218   9.259  0.4833 -1.2988 -0.7558
  123MOL0     H16595   4.301   6.275   9.095  0.2124 -1.3423 -1.7009
  123MOL0     H16596   4.321   6.101   9.118 -1.5833 -0.4346  1.8330
  123MOL0     H16597   4.550   6.151   9.220  0.1813  1.7056  2.4601
  123MOL0     H16598   4.507   6.316   9.259  4.8331 -1.2533  1.2372
  123MOL0     H16599   4.492   6.199   8.977  1.3823 -1.2504 -0.3385
  123MOL0     H16600   4.518   6.372   9.009 -3.7522 -0.1004  2.0393
  123MOL0     H16601   4.916   6.222   8.995 -0.4278 -0.8845  3.6767
  123MOL0     H16602   4.278   5.848   9.452  2.3848 -1.4090  2.9323
  123MOL0     H16603   4.255   5.718   9.774  0.5084  2.8619 -0.5427
  123MOL0     H16604   4.115   5.662   9.683 -1.6651  2.3292 -0.0204
  123MOL0     H16605   4.268   5.685   9.594 -2.0012  2.1615 -3.8770
  124MOL0     O16606   1.499   8.366   8.586 -0.7799 -0.2252 -0.5447
  124MOL0     C16607   1.486   8.362   8.711  0.0085  0.5017 -0.6473
  124MOL0     O16608   1.595   8.330   8.795 -0.0559  1.0809  0.1857
  124MOL0     C16609   1.684   8.248   8.746 -1.0094  0.1018  0.1753
  124MOL0     C16610   1.705   8.138   8.823  0.0002  0.3433  0.1020
  124MOL0     C16611   1.813   8.050   8.802  0.0542 -0.1576 -0.0803
  124MOL0     C16612   1.911   8.088   8.706 -1.0458 -0.4931  0.2939
  124MOL0     O16613   2.022   8.022   8.660  0.4157 -0.5611  1.4990
  124MOL0     C16614   2.025   7.877   8.676  0.9876  0.2458 -0.1545
  124MOL0     C16615   1.922   7.817   8.575 -0.5351 -0.2948  1.4204
  124MOL0     C16616   1.953   7.854   8.431  0.8546  1.0910 -0.0951
  124MOL0     C16617   1.868   7.758   8.336 -0.8880 -1.1678 -0.6190
  124MOL0     C16618   1.733   7.815   8.301  0.2056 -0.5762  0.4240
  124MOL0     C16619   1.632   7.713   8.237  0.8759 -0.6947  0.2585
  124MOL0     C16620   1.501   7.785   8.188  0.6871 -0.1098 -0.0237
  124MOL0     C16621   1.401   7.682   8.128  0.0672 -0.3587  0.0242
  124MOL0     N16622   1.355   7.584   8.218 -0.0148  0.3601 -0.2586
  124MOL0     C16623   1.394   7.448   8.225  0.1041 -0.0640 -0.0074
  124MOL0     C16624   1.337   7.403   8.345  0.4562 -0.5061 -0.2227
  124MOL0     C16625   1.356   7.287   8.429 -0.1905 -0.7159 -0.4976
  124MOL0     C16626   1.361   7.158   8.346 -0.4914  0.0474 -0.0329
  124MOL0     C16627   1.376   7.025   8.433  0.1924  0.1436  0.3174
  124MOL0     C16628   1.377   6.898   8.358  0.2422  0.9663 -0.3660
  124MOL0     O16629   1.393   6.785   8.446  0.1171 -0.3106  0.1031
  124MOL0     C16630   1.475   6.678   8.400 -0.6248 -0.2948  0.3812
  124MOL0     C16631   1.478   6.626   8.270  0.4151  1.0070 -0.5717
  124MOL0     C16632   1.565   6.514   8.241  0.3245 -1.0371  0.3278
  124MOL0     C16633   1.657   6.481   8.337  0.2694  1.0759  0.2013
  124MOL0     C16634   1.746   6.362   8.320  1.3959  0.3212 -0.0940
  124MOL0     O16635   1.722   6.286   8.210  0.0966  0.0511  0.5324
  124MOL0     C16636   1.793   6.174   8.185 -0.2516  0.3123  0.7310
  124MOL0     C16637   1.734   6.048   8.208 -0.0623  0.0433 -0.4002
  124MOL0     C16638   1.784   5.924   8.168 -0.6483  0.7896  0.9280
  124MOL0     C16639   1.911   5.929   8.098  0.4536  0.2383  0.0974
  124MOL0     O16640   1.959   5.804   8.060  0.4770  1.3285 -0.0544
  124MOL0     C16641   2.063   5.810   7.961  0.5717 -0.0414  0.0284
  124MOL0     C16642   2.067   5.669   7.903  0.3009  0.5574 -0.9193
  124MOL0     C16643   2.196   5.633   7.816  0.3189  0.5137 -0.4065
  124MOL0     C16644   2.169   5.669   7.669 -0.4027 -0.0614 -0.3356
  124MOL0     C16645   2.097   5.555   7.605 -0.0199 -0.1077  0.1971
  124MOL0     C16646   2.169   5.421   7.598 -0.1605  0.5428 -0.9591
  124MOL0     C16647   2.274   5.426   7.485  0.5326  0.3254  0.4651
  124MOL0     C16648   2.332   5.304   7.428 -0.7880  0.5794 -0.3329
  124MOL0    Cl16649   2.216   5.161   7.395  0.1744 -0.2745 -0.5820
  124MOL0     C16650   1.978   6.050   8.088  0.6612  0.3590  0.1649
  124MOL0     C16651   1.917   6.179   8.122 -0.4737  0.4036  0.3412
  124MOL0     O16652   1.812   6.326   8.413  0.1691  0.1345  0.3257
  124MOL0     C16653   1.651   6.533   8.468 -0.7358 -0.9878  0.8523
  124MOL0     C16654   1.566   6.629   8.495  0.6658  0.3718 -0.1140
  124MOL0     N16655   1.270   7.511   8.404  0.2123 -0.3681  0.1637
  124MOL0     N16656   1.281   7.619   8.328 -0.2899  0.5269  0.3109
  124MOL0     C16657   1.893   8.213   8.641  0.4735  0.6353  0.5852
  124MOL0     C16658   1.783   8.291   8.660  0.5254 -0.2985 -0.1820
  124MOL0     C16659   1.363   8.414   8.777 -0.1223 -0.5829  0.9523
  124MOL0     C16660   1.362   8.413   8.916  0.2305  0.2119 -0.5631
  124MOL0     C16661   1.266   8.464   9.001  0.0674 -0.1021 -0.3928
  124MOL0     C16662   1.153   8.521   8.943 -0.2334 -0.7813 -0.1161
  124MOL0     O16663   1.071   8.584   9.026 -0.3098  0.0107  0.2443
  124MOL0     C16664   0.948   8.627   8.970 -1.1749 -0.2444 -0.5956
  124MOL0     C16665   0.860   8.680   9.080  0.0295 -0.6406  0.8471
  124MOL0     C16666   0.720   8.713   9.034 -0.0719  0.9335 -0.3716
  124MOL0     C16667   0.707   8.825   8.933 -0.0180 -0.0058  0.1712
  124MOL0     C16668   0.567   8.862   8.920  0.1565  0.8760  0.4032
  124MOL0     C16669   0.452   8.887   8.937  0.6620  0.1551 -0.7704
  124MOL0     C16670   1.145   8.519   8.802  0.4330  0.5283 -0.4330
  124MOL0     C16671   1.248   8.473   8.720 -0.0357 -0.0475  0.0128
  124MOL0     C16672   1.228   8.483   8.571 -1.0109 -0.1724 -0.0920
  124MOL0     H16673   1.624   8.098   8.883 -0.4643 -1.6955 -1.7983
  124MOL0     H16674   1.826   7.951   8.846 -2.8820  0.5058  2.7004
  124MOL0     H16675   2.122   7.838   8.645  0.9360  1.6369 -2.2861
  124MOL0     H16676   2.012   7.841   8.778 -1.6646 -2.8988 -1.4183
  124MOL0     H16677   1.820   7.848   8.601 -1.2057 -0.0499 -1.1911
  124MOL0     H16678   1.925   7.707   8.582  0.7579 -0.2197  2.3372
  124MOL0     H16679   2.052   7.818   8.400 -0.2798 -2.4537 -0.0392
  124MOL0     H16680   1.940   7.960   8.410  1.9094  1.1976 -0.2514
  124MOL0     H16681   1.926   7.746   8.244  3.9318 -2.8282  2.3102
  124MOL0     H16682   1.870   7.654   8.372  6.2945 -1.7500 -1.2401
  124MOL0     H16683   1.688   7.840   8.398  2.9573 -1.4745  2.0455
  124MOL0     H16684   1.749   7.902   8.238  0.8708 -0.8753  0.1697
  124MOL0     H16685   1.684   7.671   8.151 -2.1601 -0.0775 -2.0450
  124MOL0     H16686   1.602   7.646   8.318  1.5470  0.1677  1.2626
  124MOL0     H16687   1.511   7.866   8.115 -1.0887  0.9173  0.7966
  124MOL0     H16688   1.471   7.829   8.284  4.3453  2.1450  0.3068
  124MOL0     H16689   1.312   7.725   8.082  0.0717 -0.0146  0.3250
  124MOL0     H16690   1.453   7.616   8.058  0.9658 -0.1205  0.4480
  124MOL0     H16691   1.472   7.397   8.168  3.6717  4.0266  0.7104
  124MOL0     H16692   1.445   7.294   8.492  0.5461 -1.0176 -1.4884
  124MOL0     H16693   1.271   7.284   8.498  0.1612  2.0515  0.1616
  124MOL0     H16694   1.268   7.153   8.288  1.2345 -1.1619 -2.9271
  124MOL0     H16695   1.438   7.171   8.269  0.7488 -0.7384  1.0357
  124MOL0     H16696   1.284   7.023   8.494 -0.8061 -3.9663 -1.0234
  124MOL0     H16697   1.462   7.032   8.500 -0.0346 -0.2003  0.6484
  124MOL0     H16698   1.446   6.902   8.274  0.8997 -0.1493  0.1082
  124MOL0     H16699   1.277   6.898   8.314  1.2441  0.6172 -2.7723
  124MOL0     H16700   1.412   6.671   8.196  0.1504  2.6156  0.5851
  124MOL0     H16701   1.546   6.462   8.148 -1.7813  0.7459 -0.3263
  124MOL0     H16702   1.636   6.050   8.256  0.0988  2.2546 -0.0274
  124MOL0     H16703   1.734   5.828   8.173  0.3402  0.0050 -2.3442
  124MOL0     H16704   2.058   5.877   7.875  2.4815 -1.7394 -1.5035
  124MOL0     H16705   2.154   5.825   8.019  0.4289  2.6682 -0.3499
  124MOL0     H16706   2.064   5.598   7.987  0.1087  3.7969  2.0759
  124MOL0     H16707   1.977   5.676   7.841 -1.8670 -2.1950  1.5969
  124MOL0     H16708   2.277   5.696   7.853  0.3741  0.6368 -0.7298
  124MOL0     H16709   2.225   5.531   7.841  2.2157  0.7270 -1.5553
  124MOL0     H16710   2.260   5.702   7.618  1.4356 -0.8892  2.1495
  124MOL0     H16711   2.110   5.761   7.666  0.9580  0.8553 -3.4746
  124MOL0     H16712   2.072   5.574   7.500  2.2696 -0.4030 -0.4594
  124MOL0     H16713   2.005   5.540   7.662  2.0127  1.1676  4.1421
  124MOL0     H16714   2.222   5.400   7.691 -1.2414 -0.1897 -0.4890
  124MOL0     H16715   2.103   5.336   7.584  3.2187 -2.0105 -2.8204
  124MOL0     H16716   2.350   5.498   7.518  0.0487  1.1334 -0.1363
  124MOL0     H16717   2.226   5.465   7.395 -2.9388 -1.8582  1.1855
  124MOL0     H16718   2.392   5.320   7.338  0.6885 -0.2039  0.4722
  124MOL0     H16719   2.406   5.265   7.499  0.4319 -0.9548 -2.3275
  124MOL0     H16720   2.077   6.052   8.046  0.0287  2.6204 -1.4016
  124MOL0     H16721   1.951   6.278   8.095 -2.6932  0.5708 -2.2857
  124MOL0     H16722   1.707   6.491   8.551  1.3112 -1.5108 -0.7143
  124MOL0     H16723   1.571   6.679   8.591 -4.1223  1.1884 -0.0327
  124MOL0     H16724   1.970   8.260   8.581  1.7396 -2.6515 -0.5875
  124MOL0     H16725   1.770   8.379   8.598  1.5536  1.5453  2.0597
  124MOL0     H16726   1.449   8.377   8.970  1.1754 -1.3836 -2.9897
  124MOL0     H16727   1.274   8.460   9.110 -0.6464  0.2722 -0.3241
  124MOL0     H16728   0.901   8.548   8.911 -0.8997 -0.0621 -1.0678
  124MOL0     H16729   0.982   8.707   8.904 -0.9871  1.5393  1.5251
  124MOL0     H16730   0.908   8.769   9.120  0.4972  1.1813 -3.2798
  124MOL0     H16731   0.853   8.607   9.161  1.8536 -0.0309  1.5877
  124MOL0     H16732   0.677   8.742   9.130  4.0118  0.5043  1.8432
  124MOL0     H16733   0.669   8.624   8.996  1.2688  0.4449 -1.0977
  124MOL0     H16734   0.760   8.909   8.978 -0.1969 -0.6602  1.6603
  124MOL0     H16735   0.749   8.792   8.837 -0.9146 -0.1817 -0.1654
  124MOL0     H16736   0.352   8.924   8.939  0.7973  0.5859 -1.6131
  124MOL0     H16737   1.056   8.555   8.751  0.8102  1.0416 -0.7399
  124MOL0     H16738   1.180   8.576   8.538 -1.7382 -0.7046 -0.5764
  124MOL0     H16739   1.322   8.487   8.515 -0.7104 -1.1522  0.3208
  124MOL0     H16740   1.189   8.387   8.534  0.8136 -0.1483 -2.2973
  125MOL0     O16741   5.483  10.354   4.988  0.0748  0.1268 -0.6878
  125MOL0     C16742   5.464  10.352   5.107 -0.8363 -1.2507 -0.8569
  125MOL0     O16743   5.471  10.243   5.185  0.0731  0.5931 -0.2002
  125MOL0     C16744   5.535  10.124   5.146 -0.4926 -0.6494 -0.3571
  125MOL0     C16745   5.656  10.117   5.077 -0.3542 -0.4065 -0.3994
  125MOL0     C16746   5.724   9.989   5.052 -0.8366 -0.2009  0.6687
  125MOL0     C16747   5.675   9.868   5.093 -0.5509 -0.2828  0.3530
  125MOL0     O16748   5.746   9.754   5.062  1.2631  0.3723 -0.2668
  125MOL0     C16749   5.702   9.640   5.138 -0.9123  0.5273  0.2746
  125MOL0     C16750   5.808   9.527   5.114  0.1678  0.5587 -0.6753
  125MOL0     C16751   5.801   9.473   4.973  0.3276 -0.6709  0.2732
  125MOL0     C16752   5.721   9.340   4.975 -0.1282 -0.6829  0.5598
  125MOL0     C16753   5.691   9.301   4.829  1.0079  0.1815 -0.0117
  125MOL0     C16754   5.815   9.235   4.777  0.5506  0.2590  0.4851
  125MOL0     C16755   5.810   9.204   4.622  0.0303 -1.0866 -0.0808
  125MOL0     C16756   5.678   9.138   4.577  0.3356  0.4064 -0.4607
  125MOL0     N16757   5.685   9.061   4.446 -0.7809 -0.1339 -0.5962
  125MOL0     C16758   5.585   8.975   4.403  0.9180 -0.5003 -0.9472
  125MOL0     C16759   5.631   8.915   4.297  0.3412 -0.2589 -0.0186
  125MOL0     C16760   5.569   8.812   4.208 -0.7077 -0.5376 -0.1936
  125MOL0     C16761   5.467   8.718   4.272  0.3366  0.8106 -0.7908
  125MOL0     C16762   5.432   8.595   4.180  0.3853 -0.0537 -0.4719
  125MOL0     C16763   5.314   8.624   4.082  0.2869 -0.9110 -0.2695
  125MOL0     O16764   5.197   8.677   4.155 -0.1918 -0.2618  0.1428
  125MOL0     C16765   5.068   8.667   4.112 -0.2933  0.0967  0.1112
  125MOL0     C16766   5.022   8.616   3.990 -0.0125  1.1993 -0.4245
  125MOL0     C16767   4.886   8.618   3.960 -0.1180  0.1241 -0.0135
  125MOL0     C16768   4.791   8.670   4.048 -0.2986  0.0494  0.5946
  125MOL0     C16769   4.654   8.689   4.004  0.5133  0.1300 -1.0712
  125MOL0     O16770   4.632   8.664   3.878 -0.0469 -0.6285  0.5715
  125MOL0     C16771   4.501   8.665   3.836  0.2119  0.6268 -1.3437
  125MOL0     C16772   4.419   8.555   3.850 -0.5038  0.0859 -0.8260
  125MOL0     C16773   4.296   8.559   3.783  0.6373  1.0865  0.3806
  125MOL0     C16774   4.244   8.675   3.728 -0.1392 -0.7842  0.7207
  125MOL0     O16775   4.133   8.698   3.652 -0.6861 -0.5970  0.2144
  125MOL0     C16776   4.017   8.653   3.724 -0.4213 -0.8397  0.1040
  125MOL0     C16777   3.974   8.745   3.844 -0.1254  0.8170 -0.1663
  125MOL0     C16778   3.817   8.737   3.857 -0.1915  0.0148  0.1822
  125MOL0     C16779   3.765   8.787   4.002  0.6064 -0.4905  1.0363
  125MOL0     C16780   3.623   8.835   4.000 -0.7343 -0.0304 -0.0409
  125MOL0     C16781   3.543   8.698   3.983 -1.5795  0.2504 -0.4834
  125MOL0     C16782   3.406   8.722   4.035  1.6945  0.4611 -0.5886
  125MOL0     C16783   3.389   8.694   4.184 -0.7890 -0.8013 -0.2899
  125MOL0    Cl16784   3.231   8.756   4.240 -0.0023  0.0250  0.0953
  125MOL0     C16785   4.321   8.790   3.727 -0.5220 -0.2266 -0.8081
  125MOL0     C16786   4.453   8.781   3.783 -0.1267  0.1202 -0.2357
  125MOL0     O16787   4.572   8.712   4.090  0.8660 -0.1306  0.1610
  125MOL0     C16788   4.840   8.724   4.167 -0.6438 -0.4126 -0.5239
  125MOL0     C16789   4.974   8.726   4.202 -0.7556 -0.4655  0.1333
  125MOL0     N16790   5.759   8.955   4.272 -0.6014 -0.5008  1.3777
  125MOL0     N16791   5.792   9.044   4.358  1.2968 -0.0315 -0.7475
  125MOL0     C16792   5.544   9.874   5.155  0.2264  0.0539  0.8892
  125MOL0     C16793   5.484  10.001   5.184  0.1735 -0.3548 -0.2893
  125MOL0     C16794   5.429  10.474   5.173  0.8341  0.0904 -1.0880
  125MOL0     C16795   5.344  10.476   5.284 -0.0683 -0.4470 -0.6691
  125MOL0     C16796   5.318  10.592   5.365 -0.2922  0.9698  0.9961
  125MOL0     C16797   5.375  10.709   5.337 -1.1834  1.0330  0.8585
  125MOL0     O16798   5.338  10.814   5.410 -0.7026  0.3503 -0.3093
  125MOL0     C16799   5.433  10.927   5.403 -0.0349  0.6686  0.5549
  125MOL0     C16800   5.396  11.021   5.506 -0.8921 -0.4500 -0.0596
  125MOL0     C16801   5.512  11.124   5.525  0.7794  0.4090  1.0889
  125MOL0     C16802   5.491  11.231   5.633  1.0928 -0.4923 -1.0488
  125MOL0     C16803   5.481  11.166   5.762  0.1460  0.1849 -0.2584
  125MOL0     C16804   5.486  11.104   5.863 -0.6568  0.4114 -0.0656
  125MOL0     C16805   5.456  10.721   5.219 -0.4221 -0.0860 -0.3863
  125MOL0     C16806   5.478  10.603   5.143  0.4019 -0.1032  1.1614
  125MOL0     C16807   5.569  10.624   5.019  0.3190 -0.0359  0.0626
  125MOL0     H16808   5.717  10.198   5.038 -0.6412  0.7702  1.4478
  125MOL0     H16809   5.816   9.990   4.995 -2.7384  1.4177 -2.6386
  125MOL0     H16810   5.691   9.654   5.245 -2.6706 -0.9235  0.3309
  125MOL0     H16811   5.605   9.607   5.100  0.1291 -2.2243 -0.1830
  125MOL0     H16812   5.789   9.445   5.184 -1.5085  1.9380  0.6012
  125MOL0     H16813   5.904   9.574   5.133  0.8101 -1.5478  1.8330
  125MOL0     H16814   5.903   9.459   4.937  0.1484  1.4513 -1.2654
  125MOL0     H16815   5.752   9.545   4.907  1.2431  0.4430  0.7674
  125MOL0     H16816   5.771   9.258   5.028  1.3230 -1.0864 -1.3211
  125MOL0     H16817   5.625   9.350   5.027 -1.8653  1.8046 -2.8057
  125MOL0     H16818   5.609   9.229   4.837 -1.1591  2.2360 -2.0715
  125MOL0     H16819   5.666   9.386   4.765  1.5843 -0.6026 -1.3049
  125MOL0     H16820   5.912   9.284   4.792  0.9360 -0.5413  0.6695
  125MOL0     H16821   5.831   9.134   4.815  0.1702  0.3431  0.8756
  125MOL0     H16822   5.893   9.137   4.598  0.4056 -0.9972  0.9252
  125MOL0     H16823   5.816   9.301   4.572 -0.8643 -0.1305  1.5925
  125MOL0     H16824   5.642   9.058   4.643  1.0088 -0.6150 -1.2929
  125MOL0     H16825   5.604   9.217   4.559 -3.1877 -2.6122 -0.3856
  125MOL0     H16826   5.492   8.966   4.458  0.2999  0.9466 -1.6900
  125MOL0     H16827   5.519   8.866   4.127  1.4174 -1.6126 -2.3251
  125MOL0     H16828   5.655   8.758   4.168 -0.1756  0.7491 -0.8386
  125MOL0     H16829   5.512   8.668   4.358 -0.9665  0.6734 -0.1682
  125MOL0     H16830   5.378   8.762   4.317  3.3561  1.9521  5.0271
  125MOL0     H16831   5.411   8.511   4.247  1.6478 -1.2144 -1.4689
  125MOL0     H16832   5.521   8.561   4.125  2.9945 -0.4297  3.5868
  125MOL0     H16833   5.286   8.547   4.010 -0.4799  1.7767 -3.0666
  125MOL0     H16834   5.343   8.710   4.021  0.3075  0.3880  1.5027
  125MOL0     H16835   5.099   8.576   3.925  1.2797  1.3399  0.9404
  125MOL0     H16836   4.856   8.585   3.862 -1.5990 -2.2200  1.1374
  125MOL0     H16837   4.453   8.457   3.883  0.5011 -0.4762 -3.3393
  125MOL0     H16838   4.253   8.459   3.787 -3.2508  2.4063 -2.2128
  125MOL0     H16839   3.926   8.642   3.665  0.5753 -0.6870 -1.5002
  125MOL0     H16840   4.040   8.553   3.762 -0.8652 -0.7566  0.5986
  125MOL0     H16841   4.022   8.702   3.933 -1.7160  3.6871  2.2596
  125MOL0     H16842   4.021   8.843   3.835  3.7125 -0.9152 -1.6630
  125MOL0     H16843   3.777   8.809   3.785  3.7257  2.5591  0.2396
  125MOL0     H16844   3.785   8.634   3.842 -0.5101  0.3746 -1.9949
  125MOL0     H16845   3.815   8.875   4.043  2.6192 -0.9814 -0.2508
  125MOL0     H16846   3.782   8.709   4.077  1.5236 -1.3648 -0.0462
  125MOL0     H16847   3.600   8.905   3.919 -0.4594 -1.6512 -1.5806
  125MOL0     H16848   3.612   8.885   4.097  1.8663  3.5325 -1.3762
  125MOL0     H16849   3.535   8.684   3.875 -1.7075  2.5354 -0.8201
  125MOL0     H16850   3.591   8.607   4.019 -1.8516 -0.5222 -2.0199
  125MOL0     H16851   3.321   8.679   3.981 -0.0284 -1.3407  3.1613
  125MOL0     H16852   3.394   8.831   4.030 -0.2006  0.3728  1.0728
  125MOL0     H16853   3.400   8.586   4.202  2.1981 -0.4697  0.4849
  125MOL0     H16854   3.468   8.737   4.247 -1.7727 -0.5367  0.7782
  125MOL0     H16855   4.278   8.885   3.695  0.3335  1.1822  1.9154
  125MOL0     H16856   4.518   8.869   3.780  0.5551 -0.3954 -1.1725
  125MOL0     H16857   4.778   8.778   4.239  1.0972  0.8967  0.0547
  125MOL0     H16858   5.010   8.750   4.302 -1.1455  2.0400 -0.2653
  125MOL0     H16859   5.503   9.780   5.189  0.1404 -1.6182 -3.3160
  125MOL0     H16860   5.393  10.009   5.242  0.5591  1.4740  0.1333
  125MOL0     H16861   5.295  10.383   5.309 -1.0536 -0.6725 -3.1512
  125MOL0     H16862   5.251  10.588   5.450  1.8090  4.1722  3.0623
  125MOL0     H16863   5.434  10.975   5.305 -2.9692  2.2599  1.1831
  125MOL0     H16864   5.532  10.881   5.412  0.3044  1.0144 -1.0851
  125MOL0     H16865   5.389  10.966   5.601 -0.5643 -0.5896 -0.1144
  125MOL0     H16866   5.296  11.061   5.490 -0.0462  1.6382 -0.4367
  125MOL0     H16867   5.529  11.183   5.435 -0.4386 -0.1110  0.4962
  125MOL0     H16868   5.605  11.070   5.544  1.4007  1.1918  0.3241
  125MOL0     H16869   5.580  11.295   5.629  1.9456 -1.6556 -1.4324
  125MOL0     H16870   5.408  11.298   5.612  2.6577  1.4114 -1.4738
  125MOL0     H16871   5.495  11.039   5.947 -1.0318 -1.3255 -1.3172
  125MOL0     H16872   5.476  10.814   5.167 -2.2828  0.5284 -0.0900
  125MOL0     H16873   5.653  10.555   5.032  3.5739  3.1878 -2.0479
  125MOL0     H16874   5.523  10.603   4.922 -0.8547 -0.1237  0.6111
  125MOL0     H16875   5.607  10.726   5.015 -3.0539  1.4160  1.4384
  126MOL0     O16876   2.144   2.728   3.679 -0.0450 -0.1229  0.3586
  126MOL0     C16877   2.121   2.758   3.559 -0.0972 -0.9213  0.1586
  126MOL0     O16878   2.107   2.885   3.519 -0.6549  0.0008  0.6161
  126MOL0     C16879   2.018   2.968   3.584 -0.0374 -0.0607 -0.2383
  126MOL0     C16880   1.902   3.014   3.512 -0.5075  0.3881  0.9151
  126MOL0     C16881   1.813   3.103   3.558 -0.2005 -0.4971 -0.0430
  126MOL0     C16882   1.836   3.165   3.679 -0.5578 -0.0214 -0.2160
  126MOL0     O16883   1.749   3.260   3.728  0.9372  0.9249  0.3843
  126MOL0     C16884   1.775   3.326   3.855  0.9367 -0.1151 -0.4806
  126MOL0     C16885   1.673   3.440   3.871  0.4436  0.7564 -0.1186
  126MOL0     C16886   1.707   3.552   3.769  0.3089 -0.6562  0.4598
  126MOL0     C16887   1.608   3.666   3.776  0.7528  0.3853 -0.8608
  126MOL0     C16888   1.617   3.737   3.910  0.0540  0.4690  0.4373
  126MOL0     C16889   1.543   3.872   3.915 -0.3673 -0.3183 -0.1513
  126MOL0     C16890   1.541   3.941   4.056  0.7138 -0.0440 -0.3566
  126MOL0     C16891   1.424   4.038   4.068  0.3874 -0.3574  0.9767
  126MOL0     N16892   1.412   4.147   3.972  0.2686  0.4332 -1.0201
  126MOL0     C16893   1.346   4.133   3.850  0.0921  0.8495  0.2311
  126MOL0     C16894   1.351   4.259   3.804 -0.0631 -0.3683  0.2160
  126MOL0     C16895   1.284   4.304   3.681 -0.0023 -0.4584 -0.5505
  126MOL0     C16896   1.133   4.278   3.672  0.3207  0.2350  0.6001
  126MOL0     C16897   1.072   4.345   3.542 -0.8566 -0.0582 -0.9089
  126MOL0     C16898   0.919   4.310   3.530  0.3271 -0.0190  0.4523
  126MOL0     O16899   0.874   4.380   3.417 -0.7219  0.2303  0.2606
  126MOL0     C16900   0.760   4.343   3.354  0.2362  1.0756  0.4870
  126MOL0     C16901   0.670   4.237   3.383  0.4201  0.1962  0.8175
  126MOL0     C16902   0.556   4.213   3.300 -0.3980 -0.0718  0.2636
  126MOL0     C16903   0.527   4.287   3.185 -0.9250 -0.2304 -0.2613
  126MOL0     C16904   0.407   4.271   3.101 -0.8101  0.3986  0.4078
  126MOL0     O16905   0.379   4.387   3.023  0.2881 -0.1956 -0.6239
  126MOL0     C16906   0.262   4.414   2.967 -0.7218  0.1637  0.9169
  126MOL0     C16907   0.275   4.522   2.878  0.6877  0.9203  0.0975
  126MOL0     C16908   0.158   4.563   2.814 -0.1002  0.5628  0.0772
  126MOL0     C16909   0.041   4.501   2.824  0.8491  0.2246  0.2319
  126MOL0     O16910  -0.055   4.578   2.764  0.4780  0.5462 -0.6470
  126MOL0     C16911  -0.168   4.507   2.702 -0.2566 -0.0371 -0.4034
  126MOL0     C16912  -0.279   4.597   2.677  1.0476  0.6473  0.4784
  126MOL0     C16913  -0.261   4.687   2.551  0.5636  0.9071 -0.6848
  126MOL0     C16914  -0.378   4.778   2.524  0.4180 -0.0442  0.3129
  126MOL0     C16915  -0.342   4.934   2.507  0.4819 -0.3536 -0.2661
  126MOL0     C16916  -0.283   4.962   2.358  0.4168 -0.1089 -0.1203
  126MOL0     C16917  -0.245   5.100   2.316 -0.3224  0.5201  0.8576
  126MOL0     C16918  -0.197   5.109   2.174 -0.5396  0.0754 -0.6827
  126MOL0    Cl16919  -0.177   5.276   2.114 -0.1751  0.2436  0.7358
  126MOL0     C16920   0.023   4.391   2.915  0.8655  0.2141 -0.2821
  126MOL0     C16921   0.139   4.351   2.992 -0.4154  0.3751 -0.0627
  126MOL0     O16922   0.342   4.165   3.104 -0.3045 -0.4725 -0.2654
  126MOL0     C16923   0.615   4.395   3.157  0.1567  1.0254  0.4374
  126MOL0     C16924   0.720   4.421   3.243 -0.4906 -0.3065  0.2209
  126MOL0     N16925   1.431   4.333   3.873  0.4261  0.3308 -0.9502
  126MOL0     N16926   1.468   4.265   3.984 -0.4956 -0.5058  0.5329
  126MOL0     C16927   1.948   3.121   3.758  0.6725  0.1393  0.1854
  126MOL0     C16928   2.040   3.027   3.711  0.3088 -0.9886 -0.0508
  126MOL0     C16929   2.109   2.637   3.466  0.6880 -0.6114 -0.0883
  126MOL0     C16930   2.073   2.511   3.521 -1.4124 -1.2717 -0.0207
  126MOL0     C16931   2.072   2.404   3.437 -0.4436  1.4783  0.7715
  126MOL0     C16932   2.108   2.408   3.301 -0.4883 -0.4374  0.2511
  126MOL0     O16933   2.110   2.300   3.219 -0.3727  0.5538  0.4300
  126MOL0     C16934   2.025   2.316   3.107 -0.1916  0.8019  0.0487
  126MOL0     C16935   2.110   2.290   2.982  0.2409  0.5040  0.6724
  126MOL0     C16936   2.025   2.277   2.855  0.1664 -0.0742 -0.0053
  126MOL0     C16937   2.096   2.260   2.724 -1.3579  0.6445 -0.5109
  126MOL0     C16938   2.179   2.377   2.702 -0.1687  0.3552  0.0833
  126MOL0     C16939   2.258   2.468   2.688 -0.8652  1.2229 -0.5074
  126MOL0     C16940   2.149   2.532   3.244  0.3033 -0.3359  0.0958
  126MOL0     C16941   2.141   2.646   3.325 -0.2270 -0.9748  1.1239
  126MOL0     C16942   2.185   2.775   3.270 -0.0057  1.2309 -0.2108
  126MOL0     H16943   1.893   2.962   3.418  0.4376 -1.1660  1.6327
  126MOL0     H16944   1.735   3.147   3.496  1.2143  3.5049  0.7198
  126MOL0     H16945   1.773   3.250   3.933  1.6854 -0.4025 -0.7389
  126MOL0     H16946   1.877   3.366   3.851  1.8874 -2.2337  0.8019
  126MOL0     H16947   1.692   3.480   3.971 -0.6404 -0.4474  0.6064
  126MOL0     H16948   1.569   3.408   3.860  0.7270 -0.1013 -0.4231
  126MOL0     H16949   1.694   3.509   3.670 -3.6176  1.3328 -0.0549
  126MOL0     H16950   1.813   3.577   3.785 -0.0616  0.1586  1.8521
  126MOL0     H16951   1.616   3.755   3.714 -2.0755  1.5773  0.3228
  126MOL0     H16952   1.515   3.612   3.759  0.6541  0.4009 -0.3853
  126MOL0     H16953   1.585   3.667   3.987 -0.9230  0.2576 -0.1457
  126MOL0     H16954   1.725   3.752   3.923  0.2193  1.4869 -1.7090
  126MOL0     H16955   1.582   3.945   3.844 -3.1177  0.6037 -0.8281
  126MOL0     H16956   1.440   3.857   3.882 -0.1867 -0.9876 -0.4436
  126MOL0     H16957   1.628   4.002   4.081 -0.2157  0.1526  2.9465
  126MOL0     H16958   1.523   3.870   4.138 -0.8432  1.2270  0.4687
  126MOL0     H16959   1.330   3.982   4.061 -1.2633  2.4235 -0.7516
  126MOL0     H16960   1.422   4.075   4.170 -3.6081  1.5646  0.3603
  126MOL0     H16961   1.291   4.046   3.818  1.5785  0.1998 -0.6309
  126MOL0     H16962   1.296   4.413   3.682 -1.7110 -0.2217 -1.7661
  126MOL0     H16963   1.343   4.269   3.596 -1.2756 -2.5040 -0.6666
  126MOL0     H16964   1.127   4.170   3.654 -0.0671  0.1737  1.0526
  126MOL0     H16965   1.092   4.317   3.766  1.4956  2.9152  0.1010
  126MOL0     H16966   1.130   4.313   3.455  1.6127  0.6313  0.3572
  126MOL0     H16967   1.081   4.454   3.549 -1.2500 -0.1086  1.0807
  126MOL0     H16968   0.862   4.324   3.622 -2.1514 -2.4625 -0.5601
  126MOL0     H16969   0.914   4.201   3.520 -2.8252 -0.0786  1.6219
  126MOL0     H16970   0.677   4.174   3.470  0.5830 -0.5258  0.2927
  126MOL0     H16971   0.482   4.139   3.331  1.9700 -2.2181  1.1302
  126MOL0     H16972   0.371   4.562   2.845  0.6644 -0.2731 -1.5181
  126MOL0     H16973   0.182   4.650   2.754  2.0633 -0.7802 -1.1430
  126MOL0     H16974  -0.134   4.457   2.611  1.1374  0.3180 -0.0987
  126MOL0     H16975  -0.211   4.440   2.777 -0.0380  1.8392  1.4886
  126MOL0     H16976  -0.367   4.541   2.643  1.6022  0.9425 -1.5874
  126MOL0     H16977  -0.303   4.670   2.755  0.8488 -0.6391  1.6506
  126MOL0     H16978  -0.182   4.758   2.577 -1.7240  3.3260  0.0401
  126MOL0     H16979  -0.236   4.628   2.462 -0.1209 -0.5445  0.0411
  126MOL0     H16980  -0.445   4.769   2.610  1.1001  0.9984  0.9887
  126MOL0     H16981  -0.435   4.748   2.436 -4.2695  2.2894  2.2295
  126MOL0     H16982  -0.272   4.960   2.587 -0.2548 -0.0574  0.2915
  126MOL0     H16983  -0.430   4.995   2.532 -0.3439 -1.0221 -1.4335
  126MOL0     H16984  -0.202   4.890   2.342 -0.1956 -1.7947  3.4918
  126MOL0     H16985  -0.365   4.930   2.293  0.3460 -0.6014  0.2076
  126MOL0     H16986  -0.164   5.152   2.367 -0.3615  2.6010 -1.0725
  126MOL0     H16987  -0.331   5.168   2.323 -1.3543 -0.4354 -1.4498
  126MOL0     H16988  -0.100   5.057   2.171  1.4265  3.3748  0.4809
  126MOL0     H16989  -0.268   5.067   2.102 -3.6279  0.9792  1.6039
  126MOL0     H16990  -0.067   4.331   2.921 -0.1941  1.7427 -0.2405
  126MOL0     H16991   0.142   4.269   3.062  1.0203 -0.4564 -1.0518
  126MOL0     H16992   0.618   4.449   3.063  1.2904 -0.9732 -0.7469
  126MOL0     H16993   0.783   4.502   3.208  0.4948  1.3506  5.0552
  126MOL0     H16994   1.954   3.163   3.857  0.1835 -2.3536  1.3453
  126MOL0     H16995   2.113   2.985   3.780  0.6643 -0.0924  0.1317
  126MOL0     H16996   2.050   2.507   3.628 -0.0231  0.2602  0.3731
  126MOL0     H16997   2.026   2.310   3.468  0.5772  1.0271  0.9683
  126MOL0     H16998   1.979   2.415   3.107  0.6045  1.1889  0.8350
  126MOL0     H16999   1.943   2.244   3.108 -0.0854  0.6420 -1.3973
  126MOL0     H17000   2.169   2.200   3.002 -1.8889 -0.2994  4.3324
  126MOL0     H17001   2.178   2.376   2.975 -2.4468  2.9175  2.1758
  126MOL0     H17002   1.955   2.360   2.847 -1.0300 -0.9581  0.9289
  126MOL0     H17003   1.958   2.191   2.862 -1.0100  0.9390  3.6443
  126MOL0     H17004   2.166   2.176   2.728  0.5401  2.1772  0.7668
  126MOL0     H17005   2.020   2.257   2.646 -2.5438  3.0039  0.4467
  126MOL0     H17006   2.318   2.556   2.685 -1.3212  1.5874  0.5864
  126MOL0     H17007   2.179   2.549   3.141  0.6609  0.6331  0.3454
  126MOL0     H17008   2.229   2.757   3.172 -0.7640 -1.4759 -0.1341
  126MOL0     H17009   2.108   2.852   3.255  0.0590  1.1991 -0.7131
  126MOL0     H17010   2.262   2.806   3.341 -1.0799  2.1055  0.6303
  127MOL0     O17011   7.960   1.527   9.457 -0.5799 -0.0600  0.1040
  127MOL0     C17012   7.965   1.480   9.343 -1.1573  0.4164  0.5517
  127MOL0     O17013   7.905   1.526   9.230  0.8942 -0.4415 -0.4329
  127MOL0     C17014   7.830   1.637   9.252  0.3951  0.2969 -0.4412
  127MOL0     C17015   7.725   1.636   9.344 -0.6474  0.5631  0.7263
  127MOL0     C17016   7.640   1.751   9.362  0.8956  0.7231  0.2153
  127MOL0     C17017   7.673   1.870   9.290  0.6314  1.3714 -0.4149
  127MOL0     O17018   7.595   1.973   9.323  0.3855  0.2079 -0.3024
  127MOL0     C17019   7.628   2.102   9.288  0.4985  0.5581 -0.1548
  127MOL0     C17020   7.515   2.202   9.303  0.0864 -0.0352  0.4805
  127MOL0     C17021   7.547   2.311   9.417  0.2624 -0.1727 -0.3846
  127MOL0     C17022   7.550   2.456   9.368  0.9332 -0.0141 -0.7689
  127MOL0     C17023   7.625   2.555   9.453  0.6559  0.3290 -0.5658
  127MOL0     C17024   7.569   2.698   9.441  0.6871  0.6476 -0.2026
  127MOL0     C17025   7.672   2.783   9.519 -0.0161  0.0623 -0.1392
  127MOL0     C17026   7.642   2.938   9.508 -0.1228  0.7010 -0.5783
  127MOL0     N17027   7.698   3.022   9.615  0.1528 -0.9180  0.2441
  127MOL0     C17028   7.618   3.086   9.701 -1.3116  0.4963  0.7260
  127MOL0     C17029   7.700   3.169   9.776  0.0312 -1.2882 -0.6573
  127MOL0     C17030   7.647   3.270   9.883 -0.5656 -0.7006  0.0532
  127MOL0     C17031   7.539   3.370   9.826 -0.9927 -0.1706  0.1383
  127MOL0     C17032   7.459   3.426   9.936  0.8803 -0.4262 -0.1276
  127MOL0     C17033   7.391   3.340  10.043  0.3257  0.0327 -0.1800
  127MOL0     O17034   7.339   3.223   9.974 -0.5678 -1.4706  0.0215
  127MOL0     C17035   7.250   3.152  10.045 -0.8574  0.8009  0.6213
  127MOL0     C17036   7.190   3.040   9.978  0.6496 -0.0906 -0.1119
  127MOL0     C17037   7.100   2.948  10.031 -0.9309 -0.7151  1.0363
  127MOL0     C17038   7.069   2.963  10.166  0.1489  0.1376  0.7996
  127MOL0     C17039   6.969   2.870  10.227 -1.3284 -0.2490 -0.4943
  127MOL0     O17040   6.995   2.737  10.226 -0.0329  0.7350  0.0057
  127MOL0     C17041   6.933   2.636  10.306 -0.3189  0.8585  0.3972
  127MOL0     C17042   6.872   2.642  10.432  0.0328 -1.0182 -0.7308
  127MOL0     C17043   6.824   2.524  10.502 -0.4088 -0.4892  0.6043
  127MOL0     C17044   6.855   2.398  10.460 -0.3507 -0.0089  0.5324
  127MOL0     O17045   6.822   2.284  10.529 -0.1514  0.1007 -0.4585
  127MOL0     C17046   6.825   2.156  10.453  0.1817 -0.5339 -0.5484
  127MOL0     C17047   6.731   2.047  10.497 -0.2232 -0.3656 -0.0799
  127MOL0     C17048   6.780   1.991  10.636  0.2293 -1.0216 -0.8626
  127MOL0     C17049   6.677   1.891  10.688  0.7609 -1.0850 -0.3616
  127MOL0     C17050   6.571   1.950  10.791  0.5035  0.4479 -0.0647
  127MOL0     C17051   6.449   1.865  10.804 -0.6164 -0.3582  0.3388
  127MOL0     C17052   6.331   1.929  10.879  0.7273  0.8367 -0.4082
  127MOL0     C17053   6.210   1.840  10.849  0.4590 -0.6659  0.0813
  127MOL0    Cl17054   6.067   1.911  10.935  0.5703 -0.0320  0.4093
  127MOL0     C17055   6.936   2.385  10.339 -0.2854  0.8676  0.6268
  127MOL0     C17056   6.977   2.501  10.268 -0.7367  0.2958  0.1867
  127MOL0     O17057   6.883   2.917  10.297 -0.4681 -0.1793 -0.1571
  127MOL0     C17058   7.123   3.073  10.242  0.4862 -0.1604 -0.8001
  127MOL0     C17059   7.213   3.165  10.181 -0.3334 -0.0889 -0.5232
  127MOL0     N17060   7.825   3.150   9.737  0.8686  0.0277  0.2033
  127MOL0     N17061   7.821   3.064   9.637  0.8443 -0.3858  0.9391
  127MOL0     C17062   7.772   1.867   9.192  0.3670  0.1618  0.9223
  127MOL0     C17063   7.843   1.744   9.171 -0.1119 -0.6915 -0.9622
  127MOL0     C17064   8.031   1.337   9.319  0.0987  0.7880 -0.3971
  127MOL0     C17065   8.045   1.298   9.184  0.3632  0.1786  0.8476
  127MOL0     C17066   8.090   1.165   9.154 -0.0397  0.1055 -0.2491
  127MOL0     C17067   8.125   1.078   9.256  0.3362 -0.1087 -0.1461
  127MOL0     O17068   8.163   0.957   9.217  0.3688  0.2669 -0.5442
  127MOL0     C17069   8.229   0.861   9.305 -0.0146  0.8894 -0.3392
  127MOL0     C17070   8.376   0.823   9.256 -0.8907 -1.0547 -0.8118
  127MOL0     C17071   8.412   0.674   9.237  0.2386 -0.9083  0.2457
  127MOL0     C17072   8.542   0.664   9.149 -0.4354 -0.3617  0.4790
  127MOL0     C17073   8.647   0.689   9.254 -0.4503  0.9253 -0.6293
  127MOL0     C17074   8.728   0.710   9.342 -0.1735  0.1162 -0.2522
  127MOL0     C17075   8.131   1.125   9.386 -0.0022 -0.4823 -0.8546
  127MOL0     C17076   8.077   1.252   9.428 -0.4253  0.4232 -0.8278
  127MOL0     C17077   8.047   1.277   9.573 -0.2369  0.2122 -0.3257
  127MOL0     H17078   7.715   1.545   9.403 -1.1043  0.6371  0.7680
  127MOL0     H17079   7.557   1.753   9.432 -0.9705 -0.8471 -1.7786
  127MOL0     H17080   7.707   2.124   9.361 -0.1735  0.6289  0.5652
  127MOL0     H17081   7.674   2.106   9.189  1.3149  0.5473  0.2137
  127MOL0     H17082   7.418   2.152   9.315  0.5384 -1.8873 -2.3806
  127MOL0     H17083   7.509   2.249   9.204  1.2013  1.3367  1.0346
  127MOL0     H17084   7.637   2.285   9.474 -0.2977  0.3135  0.7460
  127MOL0     H17085   7.471   2.309   9.494  0.8566  0.2440  0.2247
  127MOL0     H17086   7.603   2.454   9.272  0.4377 -0.6716 -1.0384
  127MOL0     H17087   7.448   2.490   9.347  1.8970  2.0015 -2.5431
  127MOL0     H17088   7.627   2.510   9.553  2.7750  1.2728 -0.1168
  127MOL0     H17089   7.731   2.561   9.424  0.6138 -1.3713 -1.1611
  127MOL0     H17090   7.574   2.719   9.334  0.3848  1.1484 -0.1237
  127MOL0     H17091   7.464   2.709   9.471  0.0196 -1.6160 -1.5587
  127MOL0     H17092   7.770   2.771   9.472 -0.5048 -1.1881 -0.8875
  127MOL0     H17093   7.670   2.748   9.623 -1.2394 -1.7228 -0.7124
  127MOL0     H17094   7.688   2.974   9.415 -0.0045 -1.2983 -1.3285
  127MOL0     H17095   7.538   2.972   9.500 -0.8774 -1.1691  0.6933
  127MOL0     H17096   7.511   3.068   9.707 -2.1354  4.0927 -0.3772
  127MOL0     H17097   7.607   3.220   9.972 -1.1323 -0.9710 -0.3442
  127MOL0     H17098   7.732   3.325   9.923 -0.9797 -0.0689  0.0772
  127MOL0     H17099   7.584   3.449   9.766 -3.0864  1.3971  0.5016
  127MOL0     H17100   7.467   3.325   9.757 -0.5077 -1.3017  0.3467
  127MOL0     H17101   7.381   3.492   9.898  1.1109  0.7546  1.3199
  127MOL0     H17102   7.523   3.493   9.994  1.7352  0.2190 -1.7668
  127MOL0     H17103   7.305   3.392  10.085  0.0085 -2.1260  2.1237
  127MOL0     H17104   7.459   3.316  10.126 -1.0826  0.6423  1.2012
  127MOL0     H17105   7.223   3.038   9.875 -0.1995  2.1557 -0.4675
  127MOL0     H17106   7.058   2.877   9.961  0.7263 -0.7637  0.0353
  127MOL0     H17107   6.856   2.743  10.470  1.8209 -1.5538  1.6716
  127MOL0     H17108   6.772   2.541  10.596  0.1728 -2.0227  1.2328
  127MOL0     H17109   6.791   2.173  10.350 -3.5147  1.7764  0.8545
  127MOL0     H17110   6.928   2.120  10.444  1.3610  2.3233  0.2549
  127MOL0     H17111   6.635   2.098  10.512  0.6299  1.3726 -0.2408
  127MOL0     H17112   6.746   1.971  10.420 -0.9411  0.6903 -1.3003
  127MOL0     H17113   6.882   1.952  10.625  0.9960 -0.2541  2.3718
  127MOL0     H17114   6.783   2.064  10.718  1.9077 -1.5664 -0.3829
  127MOL0     H17115   6.733   1.814  10.742 -1.2380 -1.3708  1.4269
  127MOL0     H17116   6.640   1.841  10.599 -0.1104  1.7984 -1.7576
  127MOL0     H17117   6.544   2.051  10.761 -1.9646  0.9945  3.5158
  127MOL0     H17118   6.607   1.936  10.893 -2.4597  0.2363  1.0233
  127MOL0     H17119   6.418   1.837  10.703  1.8529 -1.6310 -0.1227
  127MOL0     H17120   6.479   1.773  10.854  3.2943 -0.2910 -1.5216
  127MOL0     H17121   6.306   2.026  10.835 -1.9172  0.5491  0.2842
  127MOL0     H17122   6.360   1.939  10.984  1.0315  0.5709 -0.4667
  127MOL0     H17123   6.191   1.830  10.742  0.0356 -1.1671  0.1999
  127MOL0     H17124   6.238   1.741  10.886 -0.0837 -1.4150 -1.4317
  127MOL0     H17125   6.991   2.297  10.308 -0.5720  0.8946  0.0254
  127MOL0     H17126   7.052   2.504  10.189  2.9549  0.0077  3.3433
  127MOL0     H17127   7.100   3.098  10.345  0.2374 -0.6009 -0.7461
  127MOL0     H17128   7.246   3.243  10.249 -1.9901  0.4242 -0.2701
  127MOL0     H17129   7.787   1.955   9.131 -1.2557  0.8907  1.5265
  127MOL0     H17130   7.923   1.752   9.099 -1.7391  1.3136 -2.6942
  127MOL0     H17131   8.033   1.360   9.095  0.6170 -0.2901  0.4781
  127MOL0     H17132   8.104   1.126   9.054  3.5149 -1.9949  0.8673
  127MOL0     H17133   8.175   0.766   9.295  0.3118  0.2400  3.0441
  127MOL0     H17134   8.215   0.873   9.413 -3.0366  0.3518 -0.5734
  127MOL0     H17135   8.421   0.855   9.350 -4.4576  0.7247  0.4661
  127MOL0     H17136   8.400   0.898   9.180 -1.4830 -0.4141 -0.3680
  127MOL0     H17137   8.336   0.632   9.169  0.8694  0.7466 -1.5762
  127MOL0     H17138   8.410   0.618   9.331 -2.2182 -0.4789  0.5185
  127MOL0     H17139   8.559   0.562   9.114  1.1257  0.1449 -0.3137
  127MOL0     H17140   8.528   0.731   9.063  2.4967 -2.0880 -1.5112
  127MOL0     H17141   8.799   0.745   9.413 -0.3183  0.9020 -0.4872
  127MOL0     H17142   8.170   1.055   9.460 -0.9198 -1.2840 -1.0990
  127MOL0     H17143   7.954   1.330   9.593 -1.3890 -1.4192 -1.1170
  127MOL0     H17144   8.039   1.186   9.633 -2.4104  2.1435  2.5357
  127MOL0     H17145   8.131   1.335   9.613  1.2882 -2.0261 -0.0368
  128MOL0     O17146   5.713   6.296   4.292  0.2142  0.1095 -0.0986
  128MOL0     C17147   5.629   6.367   4.238  0.0730 -0.2159 -0.9027
  128MOL0     O17148   5.648   6.443   4.127 -0.6531 -0.3439  0.7987
  128MOL0     C17149   5.777   6.451   4.068 -1.1023  0.0612  0.6763
  128MOL0     C17150   5.881   6.523   4.133  1.1479  0.0927  1.4840
  128MOL0     C17151   6.018   6.520   4.086  0.5586  0.0377  1.2136
  128MOL0     C17152   6.039   6.438   3.968  0.2919  1.2098  1.2408
  128MOL0     O17153   6.166   6.413   3.928  0.2032  0.3920  0.4318
  128MOL0     C17154   6.277   6.397   4.026 -0.1023 -0.0954  0.1806
  128MOL0     C17155   6.400   6.334   3.964 -0.0803  0.0900  0.4633
  128MOL0     C17156   6.397   6.192   3.924 -0.0384  0.3128  0.4634
  128MOL0     C17157   6.533   6.142   3.867 -1.1246 -0.1281  0.1063
  128MOL0     C17158   6.526   5.994   3.835  0.0670 -0.9902  0.7628
  128MOL0     C17159   6.633   5.939   3.744 -0.3646  0.1411 -0.2947
  128MOL0     C17160   6.681   6.037   3.625 -0.5914  0.3817 -0.3347
  128MOL0     C17161   6.775   5.966   3.532 -0.7522  0.0723  1.1071
  128MOL0     N17162   6.704   5.853   3.471  0.0269 -0.2228 -0.7860
  128MOL0     C17163   6.714   5.717   3.496 -0.9769 -0.8919  0.5527
  128MOL0     C17164   6.614   5.666   3.429 -0.0666 -0.0119  0.3296
  128MOL0     C17165   6.573   5.521   3.438 -0.1523 -0.3509  0.7445
  128MOL0     C17166   6.678   5.413   3.480  0.1163 -0.3929 -0.7762
  128MOL0     C17167   6.612   5.280   3.493  0.2718 -0.1940 -0.2504
  128MOL0     C17168   6.690   5.159   3.553 -0.9025 -0.7738  0.1842
  128MOL0     O17169   6.814   5.132   3.488 -0.5932  0.4691  0.5030
  128MOL0     C17170   6.924   5.150   3.563  0.2284  0.3740  1.1213
  128MOL0     C17171   7.045   5.089   3.509 -0.2320 -0.4799  0.3973
  128MOL0     C17172   7.172   5.115   3.560 -0.3556  0.6555 -0.0618
  128MOL0     C17173   7.188   5.203   3.670 -0.0756 -0.2736  0.9925
  128MOL0     C17174   7.331   5.238   3.716  0.2668 -1.0384  0.3322
  128MOL0     O17175   7.435   5.187   3.639 -0.2843  0.1166 -0.0638
  128MOL0     C17176   7.557   5.245   3.653  0.0471  0.5544  0.1603
  128MOL0     C17177   7.620   5.227   3.780 -0.4190 -0.3241 -0.3276
  128MOL0     C17178   7.742   5.289   3.804 -0.3887 -0.3266  0.0792
  128MOL0     C17179   7.798   5.364   3.705 -0.7341  0.2248  0.1330
  128MOL0     O17180   7.918   5.440   3.738 -0.2567  0.4067 -0.2331
  128MOL0     C17181   8.015   5.460   3.640  0.2065  0.4999 -0.1811
  128MOL0     C17182   8.039   5.601   3.609 -0.1870  0.2321 -0.0288
  128MOL0     C17183   8.134   5.614   3.493 -0.6116 -0.8830  0.7323
  128MOL0     C17184   8.175   5.758   3.453  0.3405  0.1535  0.2700
  128MOL0     C17185   8.049   5.833   3.410  0.0101  0.3675 -0.4989
  128MOL0     C17186   8.097   5.952   3.324  0.4329  0.2032 -0.0037
  128MOL0     C17187   7.975   6.043   3.322  0.1462 -1.1773  0.2287
  128MOL0     C17188   7.981   6.147   3.203  0.1566  0.0810  0.5004
  128MOL0    Cl17189   7.969   6.070   3.044 -0.2732 -0.3947 -0.1555
  128MOL0     C17190   7.733   5.385   3.586 -0.9017 -0.2039 -0.5553
  128MOL0     C17191   7.617   5.326   3.559  0.1590 -0.2120 -0.4284
  128MOL0     O17192   7.340   5.313   3.814 -1.4539  0.9776 -1.0901
  128MOL0     C17193   7.070   5.261   3.726  0.4958 -0.2059 -0.1525
  128MOL0     C17194   6.937   5.234   3.671 -0.7641 -0.2914  1.4293
  128MOL0     N17195   6.541   5.762   3.362  0.2884  0.5127  0.5524
  128MOL0     N17196   6.602   5.872   3.384  0.3588 -0.0677  0.6623
  128MOL0     C17197   5.937   6.386   3.899  0.0234  0.3423  0.4128
  128MOL0     C17198   5.809   6.388   3.948  0.0671  0.2699  0.6888
  128MOL0     C17199   5.499   6.392   4.297 -0.3841 -1.2772 -0.7664
  128MOL0     C17200   5.407   6.294   4.310 -0.0674  0.6339  0.8478
  128MOL0     C17201   5.280   6.307   4.355 -0.0590 -1.4317 -0.4164
  128MOL0     C17202   5.250   6.437   4.395  1.1460 -0.7895 -0.1925
  128MOL0     O17203   5.125   6.456   4.436  0.1889 -0.4980  0.3405
  128MOL0     C17204   5.044   6.554   4.376  0.0629  0.1550  0.0381
  128MOL0     C17205   4.961   6.618   4.482  0.9558 -0.6444 -0.1412
  128MOL0     C17206   4.840   6.693   4.426  0.4525  0.2006  0.0571
  128MOL0     C17207   4.760   6.763   4.536  0.1877  0.6584 -0.7443
  128MOL0     C17208   4.643   6.825   4.485 -1.2507  0.0940 -0.1489
  128MOL0     C17209   4.546   6.879   4.434 -0.3423 -1.1429 -1.0938
  128MOL0     C17210   5.340   6.542   4.393 -0.1044 -0.5052  0.8284
  128MOL0     C17211   5.467   6.526   4.340 -0.5244  0.4828 -0.3275
  128MOL0     C17212   5.566   6.638   4.333  0.2809 -0.5299 -0.1647
  128MOL0     H17213   5.866   6.573   4.228  2.3370 -0.5871  2.0514
  128MOL0     H17214   6.109   6.560   4.130  1.8812 -0.3995 -0.9896
  128MOL0     H17215   6.322   6.490   4.063  1.2099 -0.0496 -1.4059
  128MOL0     H17216   6.247   6.337   4.113  0.5995  0.2620  0.6756
  128MOL0     H17217   6.484   6.332   4.034 -1.0864 -3.0862  1.7633
  128MOL0     H17218   6.422   6.400   3.879  1.1840  0.0252  0.7222
  128MOL0     H17219   6.324   6.178   3.845 -1.4754 -1.1606  1.9982
  128MOL0     H17220   6.358   6.124   4.000 -1.1446 -1.8773 -1.9387
  128MOL0     H17221   6.565   6.201   3.781  1.4475 -0.9607  0.4003
  128MOL0     H17222   6.618   6.157   3.935  0.3550 -0.4217 -1.6051
  128MOL0     H17223   6.539   5.932   3.924  1.1643 -0.4948  0.9623
  128MOL0     H17224   6.434   5.975   3.779  0.8941  0.4625 -1.2042
  128MOL0     H17225   6.721   5.928   3.808  1.3787 -0.8072 -2.6820
  128MOL0     H17226   6.602   5.841   3.706 -1.4729  0.7579 -1.0326
  128MOL0     H17227   6.742   6.112   3.676  0.1073 -1.9289  2.4736
  128MOL0     H17228   6.606   6.094   3.568 -0.1937  1.0764 -0.1675
  128MOL0     H17229   6.813   6.028   3.450 -0.4860  1.2795  2.1026
  128MOL0     H17230   6.860   5.925   3.587 -0.4058 -2.5770 -1.2254
  128MOL0     H17231   6.779   5.668   3.568  2.4358 -1.0007 -2.3301
  128MOL0     H17232   6.499   5.518   3.519  0.4803  2.5050  1.5079
  128MOL0     H17233   6.529   5.497   3.340 -2.4284  2.6155  0.9181
  128MOL0     H17234   6.761   5.421   3.409  2.5798  1.7476  2.0516
  128MOL0     H17235   6.718   5.435   3.580 -1.8015  2.1066 -0.4587
  128MOL0     H17236   6.577   5.257   3.392  1.3547 -0.6879 -0.5223
  128MOL0     H17237   6.526   5.295   3.559  0.7262  2.5658 -0.1363
  128MOL0     H17238   6.628   5.072   3.533 -4.2255  1.3924  0.2144
  128MOL0     H17239   6.692   5.177   3.661  0.5490 -0.4993  0.1293
  128MOL0     H17240   7.030   5.022   3.425 -0.4114  2.3295 -1.9728
  128MOL0     H17241   7.260   5.068   3.518  1.3717 -2.6755  6.0169
  128MOL0     H17242   7.566   5.170   3.855  1.5086 -3.1307 -0.9099
  128MOL0     H17243   7.795   5.274   3.898 -1.5101  1.9311  1.1462
  128MOL0     H17244   8.110   5.440   3.689  0.2710  2.6422  0.7074
  128MOL0     H17245   8.006   5.395   3.553  0.7419 -0.7449  0.6763
  128MOL0     H17246   7.946   5.645   3.571 -0.3954 -0.4053 -0.2729
  128MOL0     H17247   8.078   5.650   3.699 -0.9048  2.0682 -0.6810
  128MOL0     H17248   8.232   5.568   3.509 -0.3067 -0.8271 -0.8312
  128MOL0     H17249   8.083   5.567   3.409  1.3460 -0.8154 -0.5588
  128MOL0     H17250   8.241   5.745   3.367  0.2986 -1.4420  0.4344
  128MOL0     H17251   8.226   5.808   3.535  3.6149 -0.8041 -1.0185
  128MOL0     H17252   7.991   5.858   3.499  1.3367  1.0112  0.2156
  128MOL0     H17253   7.990   5.768   3.345 -0.8337  1.7235 -1.1368
  128MOL0     H17254   8.182   6.011   3.362  1.8788  1.3934 -4.4760
  128MOL0     H17255   8.127   5.911   3.227 -1.6323 -1.2469 -0.0766
  128MOL0     H17256   7.965   6.108   3.410 -2.3376 -3.3592  1.7137
  128MOL0     H17257   7.883   5.984   3.327 -1.1465  0.5681 -1.3815
  128MOL0     H17258   7.889   6.205   3.216 -0.0869 -0.1945  0.0259
  128MOL0     H17259   8.071   6.210   3.207  0.9080 -1.0343  1.7225
  128MOL0     H17260   7.778   5.447   3.509  4.3477 -1.8078  0.8021
  128MOL0     H17261   7.560   5.366   3.476 -2.2431  1.8285  1.9933
  128MOL0     H17262   7.091   5.318   3.816  1.4005 -0.5296 -0.1443
  128MOL0     H17263   6.852   5.280   3.720 -1.6966  2.0434 -2.0204
  128MOL0     H17264   5.974   6.342   3.807  1.4812  2.2050  0.0432
  128MOL0     H17265   5.750   6.332   3.875  1.8471 -0.6244 -0.1382
  128MOL0     H17266   5.439   6.195   4.279 -0.4240  0.8267 -0.1512
  128MOL0     H17267   5.224   6.214   4.363  2.7614 -3.1440  1.2728
  128MOL0     H17268   4.987   6.495   4.305  1.3886 -1.6183  0.3803
  128MOL0     H17269   5.106   6.626   4.321  1.0546  0.4858  1.5414
  128MOL0     H17270   5.019   6.696   4.533  0.4669 -0.6479  0.4344
  128MOL0     H17271   4.924   6.542   4.552 -1.0576  0.5220  0.1478
  128MOL0     H17272   4.787   6.617   4.368  1.7627  0.1490 -1.1077
  128MOL0     H17273   4.866   6.767   4.350 -2.4346  0.1924 -1.0844
  128MOL0     H17274   4.727   6.696   4.617  0.3610  1.8186  0.3198
  128MOL0     H17275   4.825   6.838   4.582  1.9464  0.0394 -2.0969
  128MOL0     H17276   4.466   6.949   4.418  2.6671  3.3950  1.6125
  128MOL0     H17277   5.304   6.636   4.433 -4.1161 -2.0235  1.2454
  128MOL0     H17278   5.671   6.615   4.354  0.4758  2.7382  3.4642
  128MOL0     H17279   5.567   6.684   4.234 -0.1108  1.6285  0.7903
  128MOL0     H17280   5.525   6.723   4.387  0.1729  0.7022 -2.0813
  129MOL0     O17281   9.473   0.564  11.256 -0.2823 -0.0433  0.7797
  129MOL0     C17282   9.463   0.491  11.156 -0.0999 -0.6242 -0.8284
  129MOL0     O17283   9.563   0.475  11.059  0.4176 -0.5878  0.0293
  129MOL0     C17284   9.682   0.516  11.104  0.0467 -0.5283  1.2552
  129MOL0     C17285   9.739   0.631  11.047 -0.2302 -0.1859 -0.1462
  129MOL0     C17286   9.872   0.666  11.093  0.4111 -0.0190  0.6955
  129MOL0     C17287   9.950   0.583  11.179  0.3430  0.6222 -0.4387
  129MOL0     O17288  10.081   0.596  11.216  0.6778 -0.7851 -0.2985
  129MOL0     C17289  10.161   0.673  11.130  0.3662  0.6525 -1.5637
  129MOL0     C17290  10.305   0.638  11.161  0.7971  0.0720  0.0843
  129MOL0     C17291  10.402   0.753  11.104 -0.6572  0.7322  0.7728
  129MOL0     C17292  10.544   0.761  11.163  0.0704 -0.2531 -0.1741
  129MOL0     C17293  10.621   0.629  11.170 -0.7717  0.2286  0.5980
  129MOL0     C17294  10.751   0.650  11.248 -0.8785  0.4670 -1.0887
  129MOL0     C17295  10.805   0.517  11.296  0.9371 -0.5619 -0.4831
  129MOL0     C17296  10.931   0.470  11.232 -0.4915  0.7417  0.3567
  129MOL0     N17297  11.047   0.571  11.238 -0.1438  0.5453  0.7733
  129MOL0     C17298  11.125   0.595  11.345  0.2623 -1.1125  0.2355
  129MOL0     C17299  11.214   0.687  11.297  0.1876 -0.7175 -0.1289
  129MOL0     C17300  11.341   0.735  11.359  0.2317  0.3475  1.6843
  129MOL0     C17301  11.350   0.734  11.506  1.0037 -1.7453 -0.8341
  129MOL0     C17302  11.475   0.802  11.559 -0.1910  0.4663  0.1186
  129MOL0     C17303  11.463   0.951  11.546 -1.3660 -0.0543  0.1633
  129MOL0     O17304  11.583   0.998  11.608  0.0096 -0.5549 -0.0046
  129MOL0     C17305  11.608   1.132  11.635  0.0212 -0.7598 -0.4489
  129MOL0     C17306  11.513   1.230  11.612 -0.0374  0.3623 -0.3194
  129MOL0     C17307  11.537   1.366  11.650 -0.5079 -0.3731 -0.0309
  129MOL0     C17308  11.661   1.406  11.693 -0.5045  0.1668 -0.2827
  129MOL0     C17309  11.689   1.539  11.728  1.0545 -0.3997  0.0108
  129MOL0     O17310  11.581   1.624  11.732  0.1539 -0.2708  0.7462
  129MOL0     C17311  11.616   1.756  11.755 -0.0766  0.1351  0.1809
  129MOL0     C17312  11.696   1.835  11.674  0.7813 -0.0280  1.0400
  129MOL0     C17313  11.726   1.975  11.702  0.2979  0.6779  0.8231
  129MOL0     C17314  11.636   2.042  11.791  0.2281  1.2730 -0.2440
  129MOL0     O17315  11.641   2.181  11.793  0.0766  0.1787  0.1306
  129MOL0     C17316  11.614   2.250  11.915  0.7426  0.5969 -1.0568
  129MOL0     C17317  11.659   2.393  11.880  0.2249 -0.3099  0.2031
  129MOL0     C17318  11.676   2.480  12.010  0.0559  1.2751  0.2479
  129MOL0     C17319  11.603   2.610  12.005  0.7796  0.0479 -0.5946
  129MOL0     C17320  11.677   2.733  11.944 -1.0473  0.0382 -0.3706
  129MOL0     C17321  11.578   2.848  11.936  0.0776  0.7590 -0.4667
  129MOL0     C17322  11.630   2.975  11.878 -0.1817  0.3003 -1.4446
  129MOL0     C17323  11.523   3.076  11.872 -0.4360 -0.1537  0.1995
  129MOL0    Cl17324  11.455   3.120  12.025  0.2939  0.3222  0.5372
  129MOL0     C17325  11.547   1.961  11.864  0.9078  0.3433 -0.1976
  129MOL0     C17326  11.539   1.825  11.849  0.3581 -0.2468  0.1611
  129MOL0     O17327  11.806   1.563  11.750 -0.8992  0.2830 -0.1286
  129MOL0     C17328  11.753   1.306  11.724 -0.3437 -0.4593 -0.1193
  129MOL0     C17329  11.733   1.176  11.681 -0.1514  0.2715  0.4574
  129MOL0     N17330  11.174   0.719  11.169  0.3281  0.5505  0.4378
  129MOL0     N17331  11.080   0.644  11.129  0.4748 -0.3714  0.7083
  129MOL0     C17332   9.879   0.471  11.235  0.4348 -0.4274  0.1305
  129MOL0     C17333   9.747   0.441  11.206 -0.2881 -1.2100  0.5522
  129MOL0     C17334   9.340   0.399  11.143  0.9331 -0.0573  0.0728
  129MOL0     C17335   9.318   0.340  11.022  0.5998  0.2547  0.0898
  129MOL0     C17336   9.203   0.269  10.993  0.1189  0.6309 -0.5134
  129MOL0     C17337   9.107   0.234  11.091  0.7925 -0.9803 -0.2078
  129MOL0     O17338   9.002   0.149  11.079  0.3146 -0.0940  0.8957
  129MOL0     C17339   8.933   0.110  10.954 -0.2921  0.2084  0.8127
  129MOL0     C17340   8.963  -0.033  10.913  0.5381 -0.4003  0.8069
  129MOL0     C17341   8.928  -0.131  11.024 -0.1936  1.1290 -0.5010
  129MOL0     C17342   8.932  -0.270  10.956  0.4405  0.4322  0.0447
  129MOL0     C17343   8.905  -0.378  11.042  0.7003  0.1865 -0.8738
  129MOL0     C17344   8.892  -0.483  11.101 -0.3634 -0.9283  0.6132
  129MOL0     C17345   9.128   0.296  11.219 -0.0924  0.2392  0.0308
  129MOL0     C17346   9.246   0.382  11.247  0.1137  0.2706  0.4102
  129MOL0     C17347   9.253   0.444  11.384 -0.3389 -0.1540 -0.1341
  129MOL0     H17348   9.692   0.694  10.972  2.6619  2.3711 -0.0027
  129MOL0     H17349   9.919   0.758  11.059  2.7710 -0.8420  1.5683
  129MOL0     H17350  10.141   0.650  11.024  0.1669  1.0253 -1.6059
  129MOL0     H17351  10.152   0.776  11.163 -1.6265 -0.0132  0.1709
  129MOL0     H17352  10.337   0.543  11.117  0.9491  0.0407  0.2606
  129MOL0     H17353  10.323   0.628  11.268  1.4113  1.9721  0.1992
  129MOL0     H17354  10.362   0.851  11.129 -2.1517 -0.2462  2.3927
  129MOL0     H17355  10.411   0.737  10.996  2.0357 -4.1611  1.4114
  129MOL0     H17356  10.614   0.826  11.110 -1.8681  1.1649 -1.1052
  129MOL0     H17357  10.532   0.812  11.260  1.8837  2.6122 -1.3094
  129MOL0     H17358  10.553   0.561  11.221 -3.5936  2.6135  0.2788
  129MOL0     H17359  10.641   0.595  11.068 -3.9600 -0.5077  0.1053
  129MOL0     H17360  10.827   0.702  11.189 -2.4967  4.7995  0.3189
  129MOL0     H17361  10.734   0.708  11.339  1.7122 -2.5606  1.5910
  129MOL0     H17362  10.718   0.451  11.292 -1.6598  2.5539  0.4456
  129MOL0     H17363  10.831   0.523  11.402  0.6529 -1.7867 -0.3315
  129MOL0     H17364  10.951   0.378  11.287 -1.5501 -0.0207 -0.4864
  129MOL0     H17365  10.908   0.436  11.130  2.8865  1.9898 -0.9564
  129MOL0     H17366  11.132   0.543  11.440 -3.5942 -0.0082  1.3120
  129MOL0     H17367  11.432   0.692  11.317 -0.3527  1.5732 -1.0613
  129MOL0     H17368  11.341   0.843  11.342  1.6630  0.4693  2.3181
  129MOL0     H17369  11.263   0.791  11.540  3.0738  0.0904  1.7582
  129MOL0     H17370  11.331   0.634  11.547 -1.5345 -1.5118 -1.2953
  129MOL0     H17371  11.570   0.774  11.514  0.3253 -0.5340  1.7650
  129MOL0     H17372  11.468   0.782  11.666 -2.1562 -3.5001 -0.5662
  129MOL0     H17373  11.371   0.980  11.596 -0.6189 -0.4972  1.8616
  129MOL0     H17374  11.458   0.987  11.443  1.0960  1.0293  0.3477
  129MOL0     H17375  11.409   1.201  11.601 -0.4419  1.8771 -0.8216
  129MOL0     H17376  11.468   1.446  11.624  0.1837  0.6657  1.2290
  129MOL0     H17377  11.756   1.780  11.603  2.4249  0.1261  2.2548
  129MOL0     H17378  11.800   2.028  11.644 -0.7246 -1.2834 -2.5750
  129MOL0     H17379  11.512   2.252  11.955  1.6304 -1.1555  1.5225
  129MOL0     H17380  11.677   2.203  11.991 -0.9469  0.6878  0.4805
  129MOL0     H17381  11.748   2.381  11.818 -0.2663 -1.4415 -0.2956
  129MOL0     H17382  11.583   2.439  11.816  1.4083  0.1585 -0.8999
  129MOL0     H17383  11.645   2.420  12.097 -0.8096  0.3105 -0.7018
  129MOL0     H17384  11.783   2.491  12.032  0.7595 -0.5021 -1.9352
  129MOL0     H17385  11.570   2.632  12.107 -1.2439 -0.5443 -1.0687
  129MOL0     H17386  11.511   2.580  11.954 -1.1168  0.8858  2.0902
  129MOL0     H17387  11.707   2.699  11.845  2.1274 -1.3592  0.9363
  129MOL0     H17388  11.761   2.738  12.014 -1.5902 -1.3679  0.4174
  129MOL0     H17389  11.494   2.803  11.882  1.3717 -2.8919  0.3024
  129MOL0     H17390  11.538   2.873  12.035 -0.7554  2.5318 -1.2070
  129MOL0     H17391  11.665   2.953  11.777  2.0547 -1.5411 -0.3537
  129MOL0     H17392  11.714   3.015  11.935  0.7835  0.4990 -2.9766
  129MOL0     H17393  11.559   3.170  11.828  0.7081  0.3788  2.1613
  129MOL0     H17394  11.447   3.048  11.799 -1.5023 -0.8492  1.5276
  129MOL0     H17395  11.476   2.010  11.930  1.2020 -1.0481  1.2379
  129MOL0     H17396  11.476   1.765  11.913 -2.8802  2.5608 -0.1276
  129MOL0     H17397  11.845   1.334  11.773 -1.7858  2.1603  1.3286
  129MOL0     H17398  11.802   1.093  11.687  0.0717  0.2545 -1.5224
  129MOL0     H17399   9.938   0.408  11.301  2.2936 -2.9358 -3.6153
  129MOL0     H17400   9.691   0.355  11.240 -1.1032 -1.1005 -0.4717
  129MOL0     H17401   9.386   0.356  10.939 -1.3061 -2.8506 -2.3289
  129MOL0     H17402   9.192   0.229  10.893 -3.8582  1.0191 -0.3968
  129MOL0     H17403   8.954   0.176  10.869 -0.6959 -3.1232 -2.0991
  129MOL0     H17404   8.827   0.117  10.979 -0.1308  1.2879  1.2535
  129MOL0     H17405   9.069  -0.058  10.902 -0.2783 -3.6775 -0.9326
  129MOL0     H17406   8.922  -0.057  10.815 -0.4240  0.8511  0.8762
  129MOL0     H17407   8.842  -0.104  11.086  1.1504  2.8790  0.6972
  129MOL0     H17408   9.011  -0.129  11.095 -0.7430 -1.2146  0.3326
  129MOL0     H17409   8.862  -0.275  10.872 -0.3084 -4.1605  0.7025
  129MOL0     H17410   9.033  -0.293  10.922  0.9902 -0.6395  2.2020
  129MOL0     H17411   8.899  -0.577  11.151  2.5007 -0.5854  1.0010
  129MOL0     H17412   9.057   0.271  11.297 -0.7192 -2.2492 -1.2199
  129MOL0     H17413   9.158   0.423  11.434  0.4520 -0.1157  1.4219
  129MOL0     H17414   9.337   0.409  11.444  0.8315  1.6747 -0.6113
  129MOL0     H17415   9.250   0.553  11.376  3.7510  0.0572 -0.9767
  130MOL0     O17416  11.034   3.918   8.090  0.9326  0.4772  0.5651
  130MOL0     C17417  11.033   4.022   8.161  0.7562  0.1004  0.2098
  130MOL0     O17418  10.965   4.134   8.135  0.1060  1.6311  0.3414
  130MOL0     C17419  10.913   4.162   8.016  0.3676  0.8188  0.3544
  130MOL0     C17420  10.792   4.238   8.008  0.7196  0.2724 -0.4788
  130MOL0     C17421  10.754   4.268   7.877 -0.5652 -0.5990 -0.1029
  130MOL0     C17422  10.823   4.246   7.757  0.1014  0.8785  0.8036
  130MOL0     O17423  10.791   4.306   7.636 -0.5602  0.4066 -0.1502
  130MOL0     C17424  10.665   4.289   7.590  1.3203  0.6282 -0.4363
  130MOL0     C17425  10.672   4.167   7.504  0.2206  0.5776 -0.4968
  130MOL0     C17426  10.531   4.127   7.448 -0.9035 -0.2364 -0.1021
  130MOL0     C17427  10.539   4.009   7.353  0.3085 -0.3250  0.0367
  130MOL0     C17428  10.628   4.031   7.226  0.4834 -0.0372 -0.1530
  130MOL0     C17429  10.649   3.914   7.128 -0.0976  0.5572 -0.3718
  130MOL0     C17430  10.682   3.956   6.983 -0.1490 -0.0931 -0.8482
  130MOL0     C17431  10.688   3.852   6.871  0.3093 -0.2719 -0.4892
  130MOL0     N17432  10.787   3.759   6.920 -0.7633  0.7304 -0.2970
  130MOL0     C17433  10.766   3.636   6.975  0.5892 -0.1524  0.0633
  130MOL0     C17434  10.892   3.598   6.997 -1.0363 -0.4430 -0.0941
  130MOL0     C17435  10.924   3.458   7.027 -0.1113  0.2107  0.2445
  130MOL0     C17436  11.044   3.390   6.958  0.0192  0.7998  0.2737
  130MOL0     C17437  11.086   3.254   7.004 -0.6019  0.0348  0.4526
  130MOL0     C17438  11.048   3.235   7.148 -0.2429  0.3315 -0.3697
  130MOL0     O17439  11.153   3.142   7.198  0.4626 -0.4728  0.2805
  130MOL0     C17440  11.159   3.016   7.154  0.2612 -0.1431  0.2441
  130MOL0     C17441  11.279   2.975   7.094  0.5916  0.9396  1.2124
  130MOL0     C17442  11.291   2.855   7.023  0.1772 -0.0462 -0.5010
  130MOL0     C17443  11.182   2.763   7.025  1.0103 -0.0255 -0.6165
  130MOL0     C17444  11.193   2.628   6.972 -0.0862  0.4553  0.3515
  130MOL0     O17445  11.090   2.536   7.005  0.0093 -0.3616 -1.3246
  130MOL0     C17446  11.100   2.403   6.981  0.0212  0.4471 -0.4688
  130MOL0     C17447  11.221   2.325   7.001 -0.0800  0.4004  0.6524
  130MOL0     C17448  11.218   2.188   6.980 -0.6763  0.5007  0.0096
  130MOL0     C17449  11.100   2.130   6.954  0.4084  1.1794  0.0977
  130MOL0     O17450  11.112   1.996   6.923  0.2176 -0.1936 -0.0232
  130MOL0     C17451  11.120   1.972   6.785  0.6839  0.6702  0.1145
  130MOL0     C17452  11.146   1.819   6.774  0.1192 -0.0057 -1.0736
  130MOL0     C17453  11.143   1.774   6.626 -0.0443  0.6253 -0.1768
  130MOL0     C17454  10.989   1.752   6.589 -0.0052 -0.5084  0.6962
  130MOL0     C17455  10.981   1.652   6.476 -0.3832 -0.1598  0.3529
  130MOL0     C17456  10.844   1.599   6.453 -0.0185  0.4271  0.0580
  130MOL0     C17457  10.776   1.698   6.368 -1.0080 -0.3038 -0.0720
  130MOL0     C17458  10.629   1.666   6.342 -1.0153  0.2957 -0.6640
  130MOL0    Cl17459  10.564   1.779   6.223  0.6752  0.1948 -0.0754
  130MOL0     C17460  10.983   2.202   6.931  0.9115 -1.0883 -0.6107
  130MOL0     C17461  10.983   2.338   6.947  1.0212  0.2299 -0.2024
  130MOL0     O17462  11.291   2.602   6.911 -0.2493 -0.1222  0.5916
  130MOL0     C17463  11.063   2.809   7.083 -0.4079  0.0719  0.2087
  130MOL0     C17464  11.053   2.936   7.143  0.3780  0.4089  0.4794
  130MOL0     N17465  10.988   3.695   6.953 -0.6656 -0.3996 -0.1551
  130MOL0     N17466  10.921   3.791   6.897 -0.4739  0.3013 -0.2594
  130MOL0     C17467  10.936   4.162   7.764  0.7020 -0.1403 -0.7161
  130MOL0     C17468  10.978   4.120   7.891 -0.5028 -0.7891  0.3136
  130MOL0     C17469  11.112   4.033   8.288 -0.3224  0.1790  0.3971
  130MOL0     C17470  11.087   4.144   8.375 -1.1088 -0.0592  0.6907
  130MOL0     C17471  11.163   4.176   8.483 -1.2473  1.0917  0.1976
  130MOL0     C17472  11.268   4.092   8.515 -0.3072 -0.0375 -0.2054
  130MOL0     O17473  11.338   4.152   8.617  0.1047  0.7683 -0.0091
  130MOL0     C17474  11.425   4.071   8.694  0.9010 -0.1129  0.0552
  130MOL0     C17475  11.463   4.155   8.820  0.6220 -0.7557  0.0674
  130MOL0     C17476  11.346   4.203   8.900  0.0320 -1.0030 -0.3738
  130MOL0     C17477  11.383   4.255   9.043 -0.3264 -0.1052  0.8748
  130MOL0     C17478  11.454   4.377   9.020 -0.5475 -0.5885  0.5314
  130MOL0     C17479  11.514   4.481   9.005  0.6426  0.2648 -0.2366
  130MOL0     C17480  11.304   3.989   8.432 -0.2460  0.2601  0.7629
  130MOL0     C17481  11.224   3.949   8.317 -0.1533 -0.4922 -0.7601
  130MOL0     C17482  11.256   3.823   8.252  0.3383 -0.3661 -1.1179
  130MOL0     H17483  10.745   4.284   8.094 -1.1265  1.1734 -1.8934
  130MOL0     H17484  10.667   4.331   7.862 -0.4564 -0.7454 -1.5185
  130MOL0     H17485  10.587   4.285   7.667  1.8445  0.2248  0.0855
  130MOL0     H17486  10.639   4.376   7.529 -0.2124 -0.0809 -0.8283
  130MOL0     H17487  10.712   4.088   7.570 -0.2270  2.7941  2.6671
  130MOL0     H17488  10.729   4.204   7.419 -1.0190  1.3383 -1.0290
  130MOL0     H17489  10.495   4.209   7.387  0.2046 -2.0109 -3.3573
  130MOL0     H17490  10.472   4.094   7.535  0.2541 -1.1696  0.3663
  130MOL0     H17491  10.581   3.924   7.408  1.2803  0.3584  0.3677
  130MOL0     H17492  10.439   3.968   7.333 -0.0853  0.8367 -0.4629
  130MOL0     H17493  10.584   4.117   7.174  2.3654  2.7146  2.4775
  130MOL0     H17494  10.733   4.047   7.250  0.4261  1.8993 -1.0332
  130MOL0     H17495  10.736   3.864   7.172 -0.0528  1.9861  1.2869
  130MOL0     H17496  10.570   3.840   7.140  0.5850  0.1410  2.1735
  130MOL0     H17497  10.778   4.009   6.986  0.9156 -1.9890  1.0039
  130MOL0     H17498  10.598   4.026   6.968 -3.3031 -3.2208  0.7032
  130MOL0     H17499  10.592   3.801   6.855  0.0622  0.6451 -2.1184
  130MOL0     H17500  10.717   3.908   6.781 -0.6184  1.0748  0.0160
  130MOL0     H17501  10.671   3.582   6.976 -0.5106  1.6835  0.4549
  130MOL0     H17502  10.948   3.458   7.134  2.9636  0.0374 -0.3455
  130MOL0     H17503  10.840   3.402   6.986  0.4725  0.9613 -2.1503
  130MOL0     H17504  11.031   3.389   6.849  0.5171  0.5542  0.2143
  130MOL0     H17505  11.127   3.460   6.974 -0.0578  0.9367  0.0757
  130MOL0     H17506  11.192   3.254   6.981 -0.5761  0.9551  0.5412
  130MOL0     H17507  11.036   3.185   6.935  2.8167 -1.6018 -0.5878
  130MOL0     H17508  10.946   3.198   7.164 -0.4905  1.2041  0.1775
  130MOL0     H17509  11.068   3.316   7.219  0.2703 -0.0125 -0.1115
  130MOL0     H17510  11.364   3.041   7.085  2.1528 -1.1753 -0.3609
  130MOL0     H17511  11.382   2.832   6.969 -1.2034  0.7521 -3.3243
  130MOL0     H17512  11.318   2.366   7.028  0.7639 -0.9259 -0.2292
  130MOL0     H17513  11.307   2.129   7.000 -1.1030 -0.1371  0.0410
  130MOL0     H17514  11.020   1.996   6.748  1.2847  1.0752 -1.3317
  130MOL0     H17515  11.203   2.023   6.735  0.2944  0.5131 -0.7100
  130MOL0     H17516  11.241   1.795   6.822  1.3537  1.3619 -2.7491
  130MOL0     H17517  11.065   1.772   6.832 -0.4665  2.1074 -0.0904
  130MOL0     H17518  11.196   1.848   6.567  2.1775 -0.4934  0.3124
  130MOL0     H17519  11.196   1.681   6.605 -3.1078 -1.0208 -1.3616
  130MOL0     H17520  10.959   1.849   6.549  3.4308  0.9179  1.1899
  130MOL0     H17521  10.932   1.730   6.680 -0.3517 -2.6785  0.0187
  130MOL0     H17522  11.030   1.560   6.507 -3.2509 -1.1295  2.4319
  130MOL0     H17523  11.027   1.688   6.383 -2.2003  1.5854  0.0627
  130MOL0     H17524  10.857   1.508   6.394  1.4505 -0.1085  1.1537
  130MOL0     H17525  10.795   1.572   6.548 -0.4691  1.9896  0.3005
  130MOL0     H17526  10.824   1.693   6.270  3.0482  0.2421  1.7066
  130MOL0     H17527  10.790   1.800   6.405 -2.6224 -0.1221  0.1227
  130MOL0     H17528  10.634   1.567   6.296  1.1957  0.0619 -0.0091
  130MOL0     H17529  10.566   1.658   6.431 -1.2741  2.5579 -0.5839
  130MOL0     H17530  10.887   2.159   6.904 -1.8265  3.2684  1.0980
  130MOL0     H17531  10.891   2.383   6.910 -0.9415 -1.2052  2.5631
  130MOL0     H17532  10.977   2.744   7.073 -1.2440  0.8150  2.0078
  130MOL0     H17533  10.955   2.962   7.180  0.1663 -0.6716  0.7318
  130MOL0     H17534  10.998   4.130   7.681  1.0524 -1.7935  0.1479
  130MOL0     H17535  11.072   4.066   7.896 -0.6350 -0.9910  0.6115
  130MOL0     H17536  10.996   4.202   8.370 -1.8156 -0.9719  2.2919
  130MOL0     H17537  11.142   4.264   8.542 -0.7283  1.0961  0.3771
  130MOL0     H17538  11.510   4.041   8.631  1.3200  1.6149 -0.2485
  130MOL0     H17539  11.366   3.982   8.719 -0.7725  1.1304  0.6658
  130MOL0     H17540  11.505   4.246   8.777 -2.9415 -0.2478 -2.8436
  130MOL0     H17541  11.540   4.100   8.874  0.3076 -1.8208 -0.5253
  130MOL0     H17542  11.281   4.119   8.925  0.4871 -0.8847  1.3603
  130MOL0     H17543  11.290   4.277   8.843  1.2916  1.9103  1.9308
  130MOL0     H17544  11.303   4.279   9.114  1.5900  0.4999  2.9238
  130MOL0     H17545  11.448   4.181   9.090 -0.1847  0.6142  1.8407
  130MOL0     H17546  11.557   4.576   8.978 -0.3576 -0.3852 -4.9741
  130MOL0     H17547  11.388   3.928   8.464 -1.4360 -1.3212  1.0329
  130MOL0     H17548  11.334   3.768   8.306  1.2746 -1.8644 -3.7832
  130MOL0     H17549  11.169   3.758   8.252  1.1238 -1.4876  0.3273
  130MOL0     H17550  11.296   3.844   8.152  2.2207 -1.6254 -0.6787
  131MOL0     O17551   0.838   9.675   1.528 -0.0405  0.2110 -0.7773
  131MOL0     C17552   0.752   9.613   1.595  0.3250  0.1114  0.5101
  131MOL0     O17553   0.783   9.506   1.671  0.0914 -0.0276 -0.3061
  131MOL0     C17554   0.909   9.457   1.679 -0.9320 -0.5458  0.8761
  131MOL0     C17555   0.962   9.465   1.812 -0.3322 -0.2537  0.8644
  131MOL0     C17556   1.094   9.435   1.841 -0.2636  0.0363  0.4017
  131MOL0     C17557   1.180   9.419   1.733  0.5047  0.3664  0.0958
  131MOL0     O17558   1.311   9.385   1.748  0.0223  0.0807  0.6092
  131MOL0     C17559   1.374   9.390   1.879 -0.6684 -0.0314 -0.1383
  131MOL0     C17560   1.522   9.381   1.866  0.8770 -0.6848  0.0843
  131MOL0     C17561   1.571   9.251   1.804  0.7168 -0.0651  0.2943
  131MOL0     C17562   1.721   9.257   1.821  0.5033  0.0715 -0.1918
  131MOL0     C17563   1.790   9.132   1.781  0.6668  0.1615  0.1626
  131MOL0     C17564   1.795   9.019   1.890  0.4555 -1.3442 -1.5386
  131MOL0     C17565   1.799   8.881   1.819 -0.0627  0.5743  0.6847
  131MOL0     C17566   1.921   8.854   1.730 -0.6907 -0.4095 -0.2093
  131MOL0     N17567   1.918   8.911   1.594 -0.0730 -0.0207 -0.8209
  131MOL0     C17568   1.849   8.858   1.489 -0.6761 -0.3053  0.9789
  131MOL0     C17569   1.883   8.936   1.387  0.0993  0.6987  0.2379
  131MOL0     C17570   1.825   8.903   1.252 -0.2169 -0.5641  0.4952
  131MOL0     C17571   1.680   8.969   1.224 -0.4543  0.1093 -0.4782
  131MOL0     C17572   1.680   9.118   1.183 -0.8090  0.1977  0.0686
  131MOL0     C17573   1.546   9.169   1.146 -0.2870 -0.6590 -0.6792
  131MOL0     O17574   1.459   9.178   1.264 -0.9139 -0.1906 -0.2982
  131MOL0     C17575   1.320   9.189   1.252 -0.5374  0.0702  0.0911
  131MOL0     C17576   1.252   9.233   1.140 -0.2225 -0.2051 -0.3283
  131MOL0     C17577   1.112   9.246   1.145  0.4148 -0.1943 -0.6285
  131MOL0     C17578   1.038   9.212   1.260  0.0559  0.1827  0.0224
  131MOL0     C17579   0.893   9.248   1.253  0.3092 -0.1740  1.0455
  131MOL0     O17580   0.812   9.211   1.352  0.4353 -0.1669  0.3731
  131MOL0     C17581   0.681   9.255   1.333  0.3151 -0.0753 -1.1407
  131MOL0     C17582   0.579   9.158   1.323 -0.1169 -0.2527  0.2435
  131MOL0     C17583   0.437   9.195   1.327  0.1752 -0.3182  0.1424
  131MOL0     C17584   0.402   9.332   1.328 -0.1385 -0.5315  0.4041
  131MOL0     O17585   0.274   9.358   1.343  0.8036  0.7253  0.2104
  131MOL0     C17586   0.225   9.425   1.455  0.1549  0.0379 -1.3838
  131MOL0     C17587   0.083   9.380   1.487  0.6604  0.1834 -0.8742
  131MOL0     C17588  -0.012   9.405   1.372  0.3108 -1.1673 -0.2847
  131MOL0     C17589  -0.159   9.383   1.420  0.6677 -0.1110  0.4279
  131MOL0     C17590  -0.251   9.484   1.353  0.1257  0.2258  0.1539
  131MOL0     C17591  -0.226   9.634   1.394  0.8395  0.4888 -0.4681
  131MOL0     C17592  -0.358   9.697   1.440 -0.2790  0.4331  0.0061
  131MOL0     C17593  -0.341   9.851   1.459 -1.1994 -0.3769  0.0811
  131MOL0    Cl17594  -0.273   9.929   1.309  0.1990 -0.1880  0.2848
  131MOL0     C17595   0.512   9.427   1.324 -0.3528 -0.3507 -0.1609
  131MOL0     C17596   0.646   9.392   1.334 -0.0967 -0.2199  0.2733
  131MOL0     O17597   0.867   9.324   1.157  0.1572  0.1626 -0.0448
  131MOL0     C17598   1.103   9.155   1.366  0.4000  0.3574  0.1692
  131MOL0     C17599   1.245   9.144   1.355 -0.0119 -0.4339  0.2711
  131MOL0     N17600   1.958   9.048   1.422  0.6882 -0.2232 -0.2952
  131MOL0     N17601   1.969   9.034   1.551 -1.1946 -0.0962  0.8377
  131MOL0     C17602   1.138   9.428   1.602  0.5860  1.4012 -0.5981
  131MOL0     C17603   1.003   9.445   1.574 -1.2701 -0.4660  0.4047
  131MOL0     C17604   0.613   9.665   1.602  0.5981  0.0741 -0.7320
  131MOL0     C17605   0.583   9.786   1.539 -0.0058  0.7893 -0.6242
  131MOL0     C17606   0.454   9.830   1.526  1.7520  0.2705 -0.4028
  131MOL0     C17607   0.343   9.767   1.590  0.3922 -0.6263  0.8791
  131MOL0     O17608   0.222   9.837   1.575  1.0196 -0.1226 -0.0523
  131MOL0     C17609   0.101   9.760   1.578  0.5227  0.1330 -0.1948
  131MOL0     C17610   0.030   9.774   1.712 -0.3122  0.7458 -0.3636
  131MOL0     C17611  -0.033   9.917   1.730 -0.0184 -0.6001 -0.1985
  131MOL0     C17612  -0.078   9.944   1.875 -0.2925  0.0183 -0.2746
  131MOL0     C17613  -0.149   9.829   1.930 -0.0266  0.0933  0.4764
  131MOL0     C17614  -0.203   9.733   1.974 -0.0111  0.5769 -1.1549
  131MOL0     C17615   0.370   9.656   1.663 -1.2416  0.0372 -0.5679
  131MOL0     C17616   0.506   9.592   1.669 -0.5831 -0.8410 -0.6040
  131MOL0     C17617   0.522   9.443   1.725  0.5226 -1.8411  0.2372
  131MOL0     H17618   0.893   9.475   1.896 -1.4460 -0.2845 -0.0195
  131MOL0     H17619   1.126   9.426   1.944 -1.2637 -0.3908  0.6906
  131MOL0     H17620   1.348   9.480   1.935  2.8645  2.1897 -1.7363
  131MOL0     H17621   1.344   9.301   1.935 -2.9334 -1.1670 -2.8798
  131MOL0     H17622   1.573   9.398   1.961 -0.3457  0.2074  0.6132
  131MOL0     H17623   1.529   9.476   1.812 -2.0588  0.3300  1.2885
  131MOL0     H17624   1.546   9.245   1.698 -1.6398 -3.5318  0.8659
  131MOL0     H17625   1.511   9.171   1.849 -2.1028  0.6494 -1.8744
  131MOL0     H17626   1.762   9.333   1.755  1.3918 -0.7897 -0.6506
  131MOL0     H17627   1.745   9.283   1.925 -0.9449 -0.2389  0.2451
  131MOL0     H17628   1.732   9.086   1.701  1.5039  0.5050 -0.6563
  131MOL0     H17629   1.889   9.161   1.747  1.6836  0.1407  2.8192
  131MOL0     H17630   1.884   9.036   1.952 -0.6820 -0.0244 -0.1726
  131MOL0     H17631   1.707   9.025   1.955 -0.0708 -0.5517 -2.2943
  131MOL0     H17632   1.707   8.854   1.765  1.3743 -1.3932 -0.9274
  131MOL0     H17633   1.801   8.811   1.902 -2.7145  0.7032  0.9534
  131MOL0     H17634   2.008   8.887   1.787 -0.9406 -3.3089  2.1281
  131MOL0     H17635   1.935   8.747   1.715 -1.4964 -0.5258 -0.1722
  131MOL0     H17636   1.788   8.769   1.500  0.5066 -1.1297  1.0831
  131MOL0     H17637   1.893   8.919   1.168  0.3510 -0.2937  0.9935
  131MOL0     H17638   1.803   8.796   1.249  1.2634 -0.8922  0.0524
  131MOL0     H17639   1.631   8.910   1.146  1.5929 -1.2433 -0.8196
  131MOL0     H17640   1.631   8.968   1.321 -0.3119 -1.4714 -0.3920
  131MOL0     H17641   1.751   9.125   1.100 -0.3986 -0.1669  0.3834
  131MOL0     H17642   1.718   9.172   1.270 -2.9138 -0.2025  1.3166
  131MOL0     H17643   1.490   9.120   1.065  0.2163 -0.4406 -1.1674
  131MOL0     H17644   1.561   9.274   1.118  0.5941 -0.5640  0.1265
  131MOL0     H17645   1.309   9.273   1.057  1.5534 -1.9589 -0.0412
  131MOL0     H17646   1.072   9.302   1.061  1.6604 -1.7419 -2.3471
  131MOL0     H17647   0.623   9.059   1.317  1.8122  0.4942  1.1596
  131MOL0     H17648   0.354   9.126   1.336  1.1415 -1.4680  0.5267
  131MOL0     H17649   0.302   9.399   1.528 -0.2090  2.0454 -0.2180
  131MOL0     H17650   0.235   9.531   1.431 -1.6070 -0.0120 -2.6053
  131MOL0     H17651   0.081   9.274   1.514 -2.8384  0.6423  1.3291
  131MOL0     H17652   0.050   9.434   1.576 -0.9598  1.6621 -2.2943
  131MOL0     H17653   0.012   9.502   1.327  3.4090 -1.6639  0.0827
  131MOL0     H17654   0.007   9.339   1.287  2.8576 -0.5541 -0.2652
  131MOL0     H17655  -0.175   9.390   1.528 -1.8857 -1.9900  0.2566
  131MOL0     H17656  -0.189   9.281   1.395  0.5962 -0.2224  0.9585
  131MOL0     H17657  -0.352   9.464   1.388 -0.6730  1.4552 -1.3003
  131MOL0     H17658  -0.251   9.473   1.244 -0.0227 -0.8398  0.2539
  131MOL0     H17659  -0.164   9.624   1.483 -3.3142 -2.6415  2.4791
  131MOL0     H17660  -0.190   9.689   1.307 -1.1308  1.0628 -0.9677
  131MOL0     H17661  -0.398   9.657   1.533 -0.0884 -0.6843 -0.3751
  131MOL0     H17662  -0.438   9.686   1.366 -0.4775 -1.2868  0.4341
  131MOL0     H17663  -0.436   9.899   1.482 -0.6454  0.0099  1.6477
  131MOL0     H17664  -0.268   9.873   1.538 -0.7566  4.0071 -1.2735
  131MOL0     H17665   0.496   9.530   1.355 -0.3721 -0.0139 -1.2534
  131MOL0     H17666   0.723   9.467   1.349  1.2362 -1.0727 -1.8296
  131MOL0     H17667   1.038   9.139   1.452 -0.0443 -0.5286 -0.3217
  131MOL0     H17668   1.310   9.110   1.434 -0.2788 -0.2951  0.5513
  131MOL0     H17669   1.198   9.414   1.513 -2.9974  0.7609 -3.1659
  131MOL0     H17670   0.965   9.447   1.472 -2.0191  0.3340  0.6893
  131MOL0     H17671   0.660   9.846   1.492  1.8610 -0.0318  1.2158
  131MOL0     H17672   0.431   9.920   1.471  1.8086  0.9892  0.7270
  131MOL0     H17673   0.126   9.654   1.572  0.7343  0.2794 -2.7977
  131MOL0     H17674   0.034   9.783   1.494 -0.6293 -0.7043  0.4673
  131MOL0     H17675   0.103   9.755   1.791 -0.1949  0.3034 -0.5777
  131MOL0     H17676  -0.054   9.704   1.714 -2.2882  2.8333 -2.6499
  131MOL0     H17677  -0.115   9.915   1.659  0.5694 -0.9512 -0.8781
  131MOL0     H17678   0.029   9.995   1.685 -0.5467 -1.7215 -3.1041
  131MOL0     H17679   0.016   9.941   1.931 -0.6617 -4.7509  0.5221
  131MOL0     H17680  -0.120  10.038   1.913  0.6085  0.0689  0.6526
  131MOL0     H17681  -0.259   9.644   1.994  0.2710  0.9170  1.4269
  131MOL0     H17682   0.301   9.604   1.728  1.9597 -1.3956  1.9577
  131MOL0     H17683   0.595   9.429   1.805  1.2497  0.6311  0.0966
  131MOL0     H17684   0.424   9.412   1.764 -1.7317  2.1722 -1.5916
  131MOL0     H17685   0.560   9.377   1.647  1.0266  0.3885 -1.5142
  132MOL0     O17686   7.749   4.334   1.270 -0.1231  0.3342  0.6832
  132MOL0     C17687   7.803   4.228   1.245  0.6172 -0.0505 -0.7707
  132MOL0     O17688   7.944   4.208   1.219  0.5103 -0.5810 -0.5696
  132MOL0     C17689   8.016   4.321   1.224  0.0343  0.2311 -0.6055
  132MOL0     C17690   8.128   4.318   1.315  1.0256 -0.0815 -0.9635
  132MOL0     C17691   8.218   4.427   1.320  0.5451 -0.5955  0.1623
  132MOL0     C17692   8.213   4.531   1.220  0.6013  0.5355  0.6345
  132MOL0     O17693   8.302   4.633   1.239  0.8440 -0.5234  0.9871
  132MOL0     C17694   8.332   4.723   1.124  0.3077  0.2518 -0.9555
  132MOL0     C17695   8.420   4.667   1.021 -0.2993  0.3689 -1.3263
  132MOL0     C17696   8.552   4.618   1.090  0.5481  0.3551 -0.0515
  132MOL0     C17697   8.638   4.527   1.002 -0.4213  0.0230  0.7802
  132MOL0     C17698   8.763   4.488   1.086  0.5513  0.1686  0.4792
  132MOL0     C17699   8.865   4.413   1.000 -1.2019  0.2467  0.2104
  132MOL0     C17700   8.977   4.363   1.089  0.4520  0.3675  0.1602
  132MOL0     C17701   9.098   4.283   1.027 -0.2847 -0.4144  0.3790
  132MOL0     N17702   9.058   4.146   0.981  0.0811 -0.5676 -0.1531
  132MOL0     C17703   9.091   4.029   1.048 -0.4023  0.0953 -0.8186
  132MOL0     C17704   9.043   3.922   0.968  0.1097 -0.8032 -0.4255
  132MOL0     C17705   9.061   3.777   0.984  0.5183 -0.5280 -0.7278
  132MOL0     C17706   9.169   3.727   0.887  0.1679 -0.6192 -0.0644
  132MOL0     C17707   9.303   3.769   0.950  0.3211  0.3965 -0.1962
  132MOL0     C17708   9.413   3.742   0.849  0.3140  0.4376 -0.1690
  132MOL0     O17709   9.408   3.606   0.804  0.3103  0.1398 -0.0844
  132MOL0     C17710   9.399   3.584   0.667  0.2606  0.5135 -0.3352
  132MOL0     C17711   9.499   3.642   0.587 -0.0570  0.5818  1.2209
  132MOL0     C17712   9.498   3.626   0.450  0.7753  0.2619 -0.2681
  132MOL0     C17713   9.394   3.545   0.387  1.3855  0.2699  0.0096
  132MOL0     C17714   9.380   3.541   0.238  0.0115 -0.5893  0.3829
  132MOL0     O17715   9.491   3.590   0.163 -0.4475 -0.4338  0.5546
  132MOL0     C17716   9.475   3.605   0.019 -0.5175 -0.2994 -0.2257
  132MOL0     C17717   9.351   3.626  -0.053  0.6293  0.0366  0.3384
  132MOL0     C17718   9.355   3.673  -0.182  0.0731 -0.1518  0.5603
  132MOL0     C17719   9.472   3.718  -0.244  1.2287  0.2018 -0.6980
  132MOL0     O17720   9.468   3.782  -0.364 -0.6797  0.0890  0.8800
  132MOL0     C17721   9.588   3.788  -0.436 -0.3523 -0.9958 -0.4251
  132MOL0     C17722   9.537   3.845  -0.567  0.7049 -0.6635  0.6774
  132MOL0     C17723   9.644   3.864  -0.669  0.2515  0.3315  0.0481
  132MOL0     C17724   9.593   3.915  -0.805  0.6966 -0.4469 -0.4058
  132MOL0     C17725   9.693   3.951  -0.917  0.0454 -0.1542 -0.0845
  132MOL0     C17726   9.768   4.080  -0.876  0.0961  0.4942 -0.4062
  132MOL0     C17727   9.850   4.120  -1.007 -0.9393 -0.4854 -0.2717
  132MOL0     C17728   9.907   4.258  -0.978 -0.7662  0.1010 -0.4749
  132MOL0    Cl17729   9.977   4.323  -1.121  0.3071 -0.5267  0.1437
  132MOL0     C17730   9.593   3.704  -0.164  0.0419 -0.8026  0.4831
  132MOL0     C17731   9.596   3.635  -0.044 -0.0797 -0.1003  0.4117
  132MOL0     O17732   9.276   3.491   0.190 -0.1483  0.7693 -0.2121
  132MOL0     C17733   9.298   3.482   0.473  0.6338  0.5359  0.7889
  132MOL0     C17734   9.312   3.490   0.612  0.7182 -0.0806 -0.4277
  132MOL0     N17735   8.995   3.987   0.849  0.5135  0.7179 -0.0544
  132MOL0     N17736   9.006   4.109   0.859 -0.0921  0.5632  0.3729
  132MOL0     C17737   8.105   4.541   1.143  0.2817 -0.0694 -0.8861
  132MOL0     C17738   8.007   4.439   1.140 -0.7861  0.2785 -0.4553
  132MOL0     C17739   7.715   4.112   1.242  0.1952  0.3611  0.1997
  132MOL0     C17740   7.631   4.078   1.345 -0.5627 -0.0273  0.8099
  132MOL0     C17741   7.554   3.965   1.335 -0.5539 -0.3034 -0.6073
  132MOL0     C17742   7.552   3.877   1.223 -0.3741 -0.8206 -0.2103
  132MOL0     O17743   7.474   3.771   1.197 -0.2993  0.4017  0.0143
  132MOL0     C17744   7.390   3.713   1.296 -0.0910  0.3689  0.0136
  132MOL0     C17745   7.297   3.607   1.243  0.4112 -0.1029 -0.3947
  132MOL0     C17746   7.211   3.645   1.123 -0.8076 -0.3876  0.4941
  132MOL0     C17747   7.148   3.523   1.048  0.5403  0.2181 -0.0905
  132MOL0     C17748   7.011   3.490   1.093 -0.2063 -0.3357 -0.4545
  132MOL0     C17749   6.899   3.452   1.116  0.2475 -0.0553 -0.5531
  132MOL0     C17750   7.654   3.905   1.130  0.6832 -0.2478 -0.1506
  132MOL0     C17751   7.728   4.025   1.123  0.9575 -1.3474  1.0617
  132MOL0     C17752   7.814   4.050   0.993  0.0534 -0.6824 -1.6079
  132MOL0     H17753   8.138   4.239   1.389 -2.8676 -0.8691 -1.0415
  132MOL0     H17754   8.303   4.415   1.386  1.8366 -0.4039 -1.4238
  132MOL0     H17755   8.243   4.764   1.075  1.5633  1.9559 -1.9119
  132MOL0     H17756   8.390   4.806   1.166  3.1610 -2.9756  2.1116
  132MOL0     H17757   8.441   4.743   0.945 -2.6201 -0.1557 -2.5703
  132MOL0     H17758   8.376   4.578   0.976  1.2198 -0.1571 -1.8322
  132MOL0     H17759   8.517   4.559   1.175 -2.0615 -1.0014 -1.9432
  132MOL0     H17760   8.614   4.705   1.113 -0.4880  1.9670 -2.8613
  132MOL0     H17761   8.586   4.438   0.966 -3.0391  1.5019  0.6186
  132MOL0     H17762   8.680   4.575   0.913 -1.4316  0.2920  0.4326
  132MOL0     H17763   8.810   4.578   1.128  4.3091 -0.7613 -1.2703
  132MOL0     H17764   8.730   4.424   1.168 -2.4784 -0.9671 -1.4891
  132MOL0     H17765   8.826   4.319   0.960 -1.1550 -1.2666  3.3938
  132MOL0     H17766   8.906   4.474   0.920  0.2830 -1.6776 -0.5650
  132MOL0     H17767   8.932   4.294   1.161  0.4974  1.7459  1.5783
  132MOL0     H17768   9.014   4.451   1.144 -0.3960  1.9352 -1.6743
  132MOL0     H17769   9.136   4.326   0.935 -0.6703 -2.3276 -0.7387
  132MOL0     H17770   9.171   4.278   1.109  1.7251 -0.4603 -1.3422
  132MOL0     H17771   9.148   4.031   1.140  1.0941  0.5796 -1.7212
  132MOL0     H17772   9.090   3.759   1.088  0.0453 -2.0934 -0.8428
  132MOL0     H17773   8.967   3.726   0.961  0.7001  0.4178 -4.0676
  132MOL0     H17774   9.156   3.618   0.884 -1.5729 -0.4562  0.3640
  132MOL0     H17775   9.164   3.762   0.784  0.4256 -2.3976 -0.7216
  132MOL0     H17776   9.328   3.717   1.043 -2.4412  0.6970  0.7967
  132MOL0     H17777   9.308   3.877   0.965 -0.1237  0.1739  1.7061
  132MOL0     H17778   9.506   3.759   0.903 -0.0991 -2.7257  1.7452
  132MOL0     H17779   9.413   3.813   0.765  4.0371  2.1305  1.0355
  132MOL0     H17780   9.565   3.718   0.627  0.6341  0.0776  1.0509
  132MOL0     H17781   9.572   3.689   0.402  1.1643 -0.6218 -0.8550
  132MOL0     H17782   9.249   3.608  -0.023  0.0075 -0.2534 -1.7504
  132MOL0     H17783   9.268   3.680  -0.246 -0.1481  0.4809  0.9148
  132MOL0     H17784   9.653   3.863  -0.391 -0.0866 -1.2913 -0.3185
  132MOL0     H17785   9.642   3.695  -0.452  0.1227 -0.5590 -1.4708
  132MOL0     H17786   9.451   3.790  -0.606  0.0738 -0.0064  1.1002
  132MOL0     H17787   9.496   3.943  -0.542 -1.5377 -0.9928 -1.3735
  132MOL0     H17788   9.722   3.929  -0.627  2.1457  0.3366 -3.1271
  132MOL0     H17789   9.670   3.760  -0.689 -1.0705 -0.0140  0.0832
  132MOL0     H17790   9.535   4.008  -0.797  3.1296  1.0420  1.5456
  132MOL0     H17791   9.528   3.834  -0.839  0.0781 -1.2544  2.4837
  132MOL0     H17792   9.639   3.962  -1.012  0.9512 -3.5429 -1.1083
  132MOL0     H17793   9.768   3.873  -0.933  0.4535  0.5022 -1.5733
  132MOL0     H17794   9.691   4.153  -0.849  0.4126  0.0738  1.8033
  132MOL0     H17795   9.827   4.064  -0.785  0.4556  0.7249 -0.5958
  132MOL0     H17796   9.790   4.127  -1.098  1.7295  0.7241 -2.0499
  132MOL0     H17797   9.932   4.048  -1.015  1.6675  2.1246  0.8937
  132MOL0     H17798   9.823   4.323  -0.953  0.7197  1.4019  1.4693
  132MOL0     H17799   9.984   4.251  -0.901 -1.8293  0.9203  0.7146
  132MOL0     H17800   9.690   3.745  -0.189 -0.8473  1.1252 -0.0086
  132MOL0     H17801   9.685   3.608   0.012 -0.1319 -1.4619 -0.1374
  132MOL0     H17802   9.217   3.423   0.431  0.1967  1.9615 -0.4523
  132MOL0     H17803   9.250   3.435   0.682 -1.8617  0.3466 -2.2354
  132MOL0     H17804   8.091   4.634   1.088 -1.7272 -0.3641 -0.9525
  132MOL0     H17805   7.929   4.440   1.065 -0.2915 -0.2399 -0.9910
  132MOL0     H17806   7.603   4.140   1.429 -2.6628  1.6880 -1.0152
  132MOL0     H17807   7.492   3.935   1.419 -1.5190  0.6521 -0.9624
  132MOL0     H17808   7.327   3.789   1.342 -1.9140 -1.1031  0.0742
  132MOL0     H17809   7.448   3.682   1.384 -1.3822 -2.6601 -0.0755
  132MOL0     H17810   7.236   3.576   1.328  0.4927 -0.6453 -0.5327
  132MOL0     H17811   7.353   3.521   1.206 -2.8438 -1.1313 -3.4764
  132MOL0     H17812   7.270   3.702   1.051  4.2852 -0.0089  4.3492
  132MOL0     H17813   7.131   3.715   1.147 -0.3189  1.9623 -3.8318
  132MOL0     H17814   7.124   3.552   0.945  0.9588 -0.0207 -0.2560
  132MOL0     H17815   7.204   3.430   1.037  0.7846  0.6684 -4.4140
  132MOL0     H17816   6.801   3.411   1.128  0.5360 -1.1942 -1.8183
  132MOL0     H17817   7.674   3.851   1.038 -0.5868 -0.9052 -0.0522
  132MOL0     H17818   7.764   4.000   0.910 -3.1029  1.1183 -0.9575
  132MOL0     H17819   7.837   4.156   0.976 -0.6946  0.3271  2.4835
  132MOL0     H17820   7.906   3.991   0.998 -1.0329 -2.3566 -0.4513
  133MOL0     O17821   2.095   4.237   9.105  0.1877 -0.1854 -0.5034
  133MOL0     C17822   2.145   4.212   9.211 -0.3346  0.0006 -1.3131
  133MOL0     O17823   2.161   4.296   9.312 -0.8616 -0.3339  0.3478
  133MOL0     C17824   2.126   4.424   9.293 -0.3453 -0.8566  0.2853
  133MOL0     C17825   2.197   4.521   9.219  0.3613  0.0200  0.3521
  133MOL0     C17826   2.155   4.653   9.222 -0.7443 -1.1452  0.2978
  133MOL0     C17827   2.040   4.694   9.282 -0.7969 -0.5296  0.2904
  133MOL0     O17828   1.991   4.827   9.286 -0.1357 -0.0119 -0.0779
  133MOL0     C17829   2.049   4.936   9.209  0.2597  0.1190  0.1503
  133MOL0     C17830   1.959   5.057   9.238  0.3130  0.0074  0.0450
  133MOL0     C17831   2.026   5.181   9.172  0.4605 -0.3294 -0.2820
  133MOL0     C17832   1.925   5.303   9.178  0.3493 -0.4675  0.2007
  133MOL0     C17833   1.897   5.370   9.309 -0.1544  1.0930  1.0552
  133MOL0     C17834   2.012   5.457   9.357  0.0211 -0.5214 -0.1279
  133MOL0     C17835   2.059   5.565   9.261 -0.0580 -0.4598 -0.4419
  133MOL0     C17836   2.119   5.696   9.316 -0.6148  0.2760 -0.6949
  133MOL0     N17837   2.140   5.796   9.219  0.1569  0.0482 -0.1367
  133MOL0     C17838   2.207   5.780   9.097  0.0151  0.3714 -0.7850
  133MOL0     C17839   2.183   5.899   9.032  0.1187 -0.4479  0.0354
  133MOL0     C17840   2.235   5.941   8.895 -0.8122  1.0696 -0.7208
  133MOL0     C17841   2.242   5.842   8.788  0.4424  0.0262 -0.4111
  133MOL0     C17842   2.364   5.746   8.795 -0.0420 -0.9361  0.5097
  133MOL0     C17843   2.496   5.833   8.766  0.6826 -0.0964  0.5479
  133MOL0     O17844   2.600   5.761   8.694 -0.4096 -0.3021 -0.7913
  133MOL0     C17845   2.717   5.826   8.669 -0.5669 -0.7498 -0.5933
  133MOL0     C17846   2.743   5.953   8.726 -0.8669 -0.6084 -0.6343
  133MOL0     C17847   2.856   6.020   8.687  0.1500 -0.7467 -0.4407
  133MOL0     C17848   2.948   5.970   8.591  0.2613 -0.8191  0.2344
  133MOL0     C17849   3.068   6.053   8.558  0.7860 -0.9233  0.0051
  133MOL0     O17850   3.114   6.028   8.438 -0.0186  0.2735  0.0132
  133MOL0     C17851   3.229   6.078   8.387 -0.2108 -0.3186 -0.0226
  133MOL0     C17852   3.296   5.995   8.293  0.5224  0.1994 -0.2022
  133MOL0     C17853   3.417   6.032   8.237 -0.4008  0.4616  0.1828
  133MOL0     C17854   3.484   6.140   8.284  0.0374 -0.3734  0.7939
  133MOL0     O17855   3.608   6.188   8.233  0.3583 -0.0304  0.0401
  133MOL0     C17856   3.655   6.128   8.109  0.7031 -0.4648  0.5807
  133MOL0     C17857   3.761   6.209   8.047  0.1142 -0.4413  0.3283
  133MOL0     C17858   3.877   6.254   8.139 -0.1344  0.0757  1.0701
  133MOL0     C17859   4.000   6.290   8.059  0.4245 -0.0972  0.4311
  133MOL0     C17860   4.124   6.338   8.146 -0.0192  0.0654 -0.3667
  133MOL0     C17861   4.242   6.374   8.055 -1.1727  0.6677 -0.5516
  133MOL0     C17862   4.376   6.388   8.145  0.8065 -0.0597  0.3846
  133MOL0     C17863   4.496   6.440   8.062  0.6478  0.0924  0.8272
  133MOL0    Cl17864   4.634   6.423   8.182  0.1283  0.6555  0.5122
  133MOL0     C17865   3.425   6.220   8.380 -0.9113  0.5351  0.5659
  133MOL0     C17866   3.300   6.200   8.428 -0.0419 -0.5013 -0.1497
  133MOL0     O17867   3.106   6.132   8.649  0.0431 -1.4291  0.0872
  133MOL0     C17868   2.912   5.855   8.527 -0.1166 -0.3439  0.0129
  133MOL0     C17869   2.802   5.781   8.567 -1.1347 -0.0568  0.5084
  133MOL0     N17870   2.076   5.962   9.094  0.1873  0.3845 -0.3358
  133MOL0     N17871   2.062   5.908   9.211 -0.6319  0.7437 -0.1333
  133MOL0     C17872   1.961   4.594   9.336  0.3656  0.2730 -1.0865
  133MOL0     C17873   2.004   4.467   9.351 -0.2239  0.3119  0.6978
  133MOL0     C17874   2.217   4.085   9.206  0.0239 -1.1405 -0.0712
  133MOL0     C17875   2.348   4.076   9.273  0.0180  0.1893 -0.0273
  133MOL0     C17876   2.433   3.980   9.243  0.3843  0.0453  0.5028
  133MOL0     C17877   2.406   3.872   9.154 -0.3786 -0.4217 -0.3698
  133MOL0     O17878   2.486   3.762   9.130  0.5823 -0.4790  0.0473
  133MOL0     C17879   2.621   3.764   9.181  0.7834 -0.1948  0.9650
  133MOL0     C17880   2.709   3.851   9.087 -0.9887  1.0056  0.0426
  133MOL0     C17881   2.849   3.846   9.150  0.0882 -0.0161  0.3961
  133MOL0     C17882   2.941   3.930   9.064 -1.1738  0.5956 -0.1150
  133MOL0     C17883   3.080   3.868   9.064  0.4024  0.0520 -0.2517
  133MOL0     C17884   3.198   3.836   9.056 -0.0703  0.5306 -0.8936
  133MOL0     C17885   2.271   3.870   9.108 -0.1192 -0.6028 -0.1554
  133MOL0     C17886   2.175   3.971   9.131  0.1447  1.0840 -0.8556
  133MOL0     C17887   2.045   3.956   9.055 -0.1049  0.7368  0.0351
  133MOL0     H17888   2.267   4.484   9.145 -3.2640 -4.1463 -1.4478
  133MOL0     H17889   2.217   4.726   9.171 -2.5430  0.1711 -0.0927
  133MOL0     H17890   2.152   4.959   9.236  0.9096  1.4153 -3.0178
  133MOL0     H17891   2.050   4.906   9.104  4.9060 -0.1187  0.0708
  133MOL0     H17892   1.951   5.067   9.347 -1.5752 -3.3945  0.3376
  133MOL0     H17893   1.858   5.040   9.201 -0.0959  0.8052  0.7545
  133MOL0     H17894   2.049   5.148   9.070 -3.7544  1.0845 -1.9009
  133MOL0     H17895   2.115   5.225   9.219 -1.0627  1.5841  0.9576
  133MOL0     H17896   1.964   5.372   9.104  3.1440 -1.6109  0.5002
  133MOL0     H17897   1.836   5.267   9.125  1.5559  0.1158 -2.3396
  133MOL0     H17898   1.807   5.431   9.303 -0.4602  0.8297  2.5366
  133MOL0     H17899   1.866   5.292   9.379 -0.8380 -0.2965 -0.7045
  133MOL0     H17900   1.975   5.519   9.439 -0.4831  0.4328 -1.0608
  133MOL0     H17901   2.093   5.391   9.390 -2.7446 -3.2094  1.9393
  133MOL0     H17902   1.973   5.602   9.205 -1.6763  1.4051  2.9466
  133MOL0     H17903   2.133   5.516   9.196  2.2469 -3.3811  3.8626
  133MOL0     H17904   2.056   5.746   9.389  2.1878 -0.5734  2.5842
  133MOL0     H17905   2.216   5.687   9.367 -1.3828  2.0437  1.2390
  133MOL0     H17906   2.261   5.689   9.072 -1.0050 -0.1494 -1.1278
  133MOL0     H17907   2.181   6.029   8.860 -2.9930  1.0436  2.1890
  133MOL0     H17908   2.338   5.972   8.917 -0.4699 -0.5505  0.1054
  133MOL0     H17909   2.148   5.787   8.793  2.2388 -3.2927 -0.1736
  133MOL0     H17910   2.252   5.896   8.693  0.8929  5.0973  2.1410
  133MOL0     H17911   2.360   5.669   8.717  2.7471  1.2231 -2.0304
  133MOL0     H17912   2.372   5.700   8.894  0.5153  4.1010  3.0979
  133MOL0     H17913   2.536   5.853   8.866  0.0800  1.9845  0.4218
  133MOL0     H17914   2.468   5.923   8.710 -0.8080  0.8013  2.6018
  133MOL0     H17915   2.689   6.001   8.807 -1.7117  0.8185 -2.0066
  133MOL0     H17916   2.879   6.113   8.739  0.2893  0.3048 -2.3033
  133MOL0     H17917   3.256   5.895   8.276  2.0916 -0.1046 -2.6870
  133MOL0     H17918   3.466   5.971   8.162  1.5051  0.0071  1.7022
  133MOL0     H17919   3.682   6.025   8.131  1.6436 -0.1354  1.0583
  133MOL0     H17920   3.580   6.113   8.031 -0.2895 -1.4752  1.7031
  133MOL0     H17921   3.791   6.157   7.955  3.6224  0.2562  0.9340
  133MOL0     H17922   3.715   6.301   8.010 -2.0914 -0.3558  3.0037
  133MOL0     H17923   3.834   6.342   8.188 -0.9433  1.2038 -1.5279
  133MOL0     H17924   3.894   6.168   8.205 -1.6420  1.1999  3.0464
  133MOL0     H17925   3.984   6.370   7.986  2.7578 -1.8944 -2.2755
  133MOL0     H17926   4.012   6.205   7.991 -1.9526 -0.6825  0.6338
  133MOL0     H17927   4.146   6.254   8.213 -5.0206 -0.4022  1.0772
  133MOL0     H17928   4.096   6.425   8.205 -0.2627 -0.0775 -0.2690
  133MOL0     H17929   4.272   6.290   7.990  1.3691 -0.5226  1.9469
  133MOL0     H17930   4.215   6.471   8.012  0.4056  4.2162  5.2971
  133MOL0     H17931   4.402   6.292   8.191 -2.7949 -0.3336  2.2184
  133MOL0     H17932   4.346   6.457   8.224  1.5642 -1.3985  1.9037
  133MOL0     H17933   4.521   6.364   7.987  3.2544  3.3794 -1.9660
  133MOL0     H17934   4.489   6.523   7.991  1.4354 -0.5337  0.0003
  133MOL0     H17935   3.481   6.310   8.403 -1.8194  1.2039  0.2123
  133MOL0     H17936   3.273   6.264   8.511  1.1129 -0.4885  0.2370
  133MOL0     H17937   2.965   5.825   8.437 -1.3395  1.9662 -1.5787
  133MOL0     H17938   2.787   5.693   8.506  1.3355 -0.8484  0.8924
  133MOL0     H17939   1.865   4.622   9.379  0.7386  0.3535 -0.3029
  133MOL0     H17940   1.926   4.397   9.382  0.8615 -0.8607  0.8666
  133MOL0     H17941   2.388   4.156   9.335 -0.1334  1.3222 -1.3275
  133MOL0     H17942   2.527   3.996   9.296  1.3312 -1.3587 -0.6571
  133MOL0     H17943   2.668   3.665   9.182  1.0529 -0.0655  1.0841
  133MOL0     H17944   2.619   3.800   9.284 -0.7070  2.3532  0.1467
  133MOL0     H17945   2.681   3.955   9.069 -0.8420  0.7195 -2.2251
  133MOL0     H17946   2.719   3.802   8.989  1.6461  0.1036  0.6881
  133MOL0     H17947   2.879   3.742   9.138 -2.9718 -1.6484  4.3159
  133MOL0     H17948   2.846   3.868   9.257 -1.8017 -0.5714  0.5009
  133MOL0     H17949   2.908   3.936   8.960 -0.1266  0.8941 -0.4481
  133MOL0     H17950   2.958   4.029   9.108  1.7938 -0.5404  1.6199
  133MOL0     H17951   3.300   3.803   9.049 -0.0352  0.6711 -1.0683
  133MOL0     H17952   2.262   3.784   9.042  2.0168 -0.4965 -0.6464
  133MOL0     H17953   2.047   4.007   8.958  0.4017 -0.1163 -0.4148
  133MOL0     H17954   2.013   3.854   9.032 -0.6902  0.6333  1.2200
  133MOL0     H17955   1.968   4.000   9.119 -0.5780  1.1987 -0.8322
  134MOL0     O17956   7.205  10.481   5.891 -0.0996  0.2825  0.2918
  134MOL0     C17957   7.186  10.566   5.981  0.3900 -0.9649  0.0576
  134MOL0     O17958   7.098  10.556   6.092 -0.0806  0.0104  0.0286
  134MOL0     C17959   7.024  10.442   6.109 -0.2285 -0.1526  0.6438
  134MOL0     C17960   6.898  10.457   6.167  0.8330 -0.2907 -0.5120
  134MOL0     C17961   6.824  10.347   6.181 -0.4583 -0.3824  0.0061
  134MOL0     C17962   6.877  10.219   6.144  0.2265 -0.4936 -0.4434
  134MOL0     O17963   6.809  10.103   6.162  0.2381 -0.5658  0.5300
  134MOL0     C17964   6.783  10.022   6.044  0.3081  0.6108 -0.4166
  134MOL0     C17965   6.642   9.951   6.042 -0.4353 -0.6314 -0.0040
  134MOL0     C17966   6.535  10.056   6.081 -0.3994 -0.5320 -0.2210
  134MOL0     C17967   6.397  10.002   6.039 -0.3760  0.2828 -0.4648
  134MOL0     C17968   6.341   9.881   6.121 -0.0780 -0.0463  1.2753
  134MOL0     C17969   6.285   9.930   6.255  0.2342 -0.1846  0.3395
  134MOL0     C17970   6.233   9.818   6.345 -0.2758 -0.2764 -0.8289
  134MOL0     C17971   6.193   9.875   6.475  0.3417  0.6207  0.0412
  134MOL0     N17972   6.070   9.957   6.472 -0.8672 -0.4655 -0.6763
  134MOL0     C17973   6.047  10.101   6.468 -0.2425  1.6945 -0.8394
  134MOL0     C17974   5.912  10.116   6.470 -0.4104  0.4201 -0.5876
  134MOL0     C17975   5.835  10.241   6.434 -0.3921 -0.3222  0.1700
  134MOL0     C17976   5.904  10.380   6.456  0.3570 -0.0352  1.2256
  134MOL0     C17977   5.960  10.412   6.597  0.1409  1.0996 -0.0986
  134MOL0     C17978   5.846  10.392   6.707 -0.5771 -0.1186  0.6761
  134MOL0     O17979   5.911  10.392   6.839 -0.0706  0.1718  0.6474
  134MOL0     C17980   5.845  10.416   6.955  0.4402  0.4272  0.0867
  134MOL0     C17981   5.706  10.428   6.961  0.2433  0.1304 -0.4396
  134MOL0     C17982   5.638  10.439   7.082 -1.1427 -0.1873 -0.7726
  134MOL0     C17983   5.704  10.420   7.205 -0.3316 -0.4037 -0.3534
  134MOL0     C17984   5.636  10.438   7.337  0.5477 -0.1155  0.6113
  134MOL0     O17985   5.726  10.429   7.442  0.0238  0.2053 -0.6333
  134MOL0     C17986   5.684  10.443   7.569  0.3921  0.2912  0.0344
  134MOL0     C17987   5.551  10.419   7.625  0.0088  0.6772 -0.8505
  134MOL0     C17988   5.534  10.446   7.766  0.4970 -0.4308  1.0544
  134MOL0     C17989   5.642  10.463   7.854  0.9245 -1.1070 -0.0238
  134MOL0     O17990   5.626  10.482   7.989 -0.4439  0.2025 -0.5049
  134MOL0     C17991   5.541  10.385   8.048  0.0401 -1.0314  0.6432
  134MOL0     C17992   5.638  10.269   8.076  1.2714 -1.2291 -0.2888
  134MOL0     C17993   5.581  10.151   8.154  0.4115 -0.5348 -0.9677
  134MOL0     C17994   5.491  10.055   8.079  0.0269 -0.2241  0.4762
  134MOL0     C17995   5.403   9.969   8.169 -0.5664 -0.0119  0.4210
  134MOL0     C17996   5.305  10.055   8.261  0.2254  0.9304  1.0276
  134MOL0     C17997   5.197  10.133   8.195 -0.1131 -0.0969  0.4644
  134MOL0     C17998   5.122  10.215   8.294  0.2699  0.6891 -0.1788
  134MOL0    Cl17999   5.223  10.338   8.359 -0.4125  0.5028  0.1602
  134MOL0     C18000   5.769  10.478   7.791  0.6522  0.4169  0.6249
  134MOL0     C18001   5.782  10.480   7.647  0.1774  0.0880 -0.7845
  134MOL0     O18002   5.515  10.460   7.339 -0.1444 -0.7390  0.0232
  134MOL0     C18003   5.846  10.402   7.202  0.3088 -0.6358 -0.7558
  134MOL0     C18004   5.913  10.407   7.072 -0.3090 -0.2468 -0.1502
  134MOL0     N18005   5.856   9.995   6.475 -0.1048  0.4311 -0.0182
  134MOL0     N18006   5.949   9.906   6.482  0.1024 -0.7699  0.0997
  134MOL0     C18007   6.999  10.200   6.096 -0.0813 -0.2707 -0.7066
  134MOL0     C18008   7.077  10.312   6.080  0.3348 -1.0231  0.0327
  134MOL0     C18009   7.270  10.687   5.989  0.2517 -0.5337 -0.1488
  134MOL0     C18010   7.399  10.678   6.045  0.7297 -1.0397 -0.0909
  134MOL0     C18011   7.473  10.798   6.057  0.3126 -0.3827  0.5339
  134MOL0     C18012   7.425  10.927   6.029  0.2420  0.7650  0.3461
  134MOL0     O18013   7.507  11.035   6.035 -0.1013  0.1749 -0.3183
  134MOL0     C18014   7.460  11.170   6.067 -0.4709  0.7893  0.3468
  134MOL0     C18015   7.579  11.270   6.052 -0.6298  0.1034  0.2351
  134MOL0     C18016   7.654  11.246   5.919  0.8532  0.6461 -0.2315
  134MOL0     C18017   7.760  11.341   5.910 -0.5823  0.6436  0.1646
  134MOL0     C18018   7.716  11.481   5.883  0.6809 -0.6167 -0.0990
  134MOL0     C18019   7.671  11.595   5.883 -0.2458 -0.8300 -0.1912
  134MOL0     C18020   7.293  10.939   5.993  0.3182  0.9778  0.1210
  134MOL0     C18021   7.214  10.818   5.982 -0.7223  0.2325 -0.4513
  134MOL0     C18022   7.072  10.830   5.931 -0.3457 -0.6251  0.4952
  134MOL0     H18023   6.875  10.556   6.204 -1.4448  0.2599 -3.0900
  134MOL0     H18024   6.727  10.364   6.228 -0.5218  0.7496 -0.4796
  134MOL0     H18025   6.773  10.084   5.954 -2.0937  3.5758  1.6422
  134MOL0     H18026   6.859   9.944   6.036  0.3444  0.6296 -0.2586
  134MOL0     H18027   6.638   9.870   6.116 -3.4944 -1.2851 -0.7396
  134MOL0     H18028   6.627   9.909   5.942 -1.9570  3.0799 -1.5241
  134MOL0     H18029   6.539  10.153   6.032  1.2924  0.1448  1.1585
  134MOL0     H18030   6.537  10.077   6.188  2.7350 -1.0896 -0.0813
  134MOL0     H18031   6.319  10.078   6.048  1.8376  2.4475  1.8008
  134MOL0     H18032   6.413   9.969   5.935  0.1002 -1.2927  0.0721
  134MOL0     H18033   6.255   9.834   6.072 -2.7234  2.7012  2.9336
  134MOL0     H18034   6.424   9.810   6.130  1.8950  1.7789 -1.2503
  134MOL0     H18035   6.373   9.964   6.311  1.5670 -4.2836  1.1183
  134MOL0     H18036   6.204  10.000   6.231  1.5495  2.5898  3.2863
  134MOL0     H18037   6.307   9.740   6.366 -1.1654 -0.3197  2.7810
  134MOL0     H18038   6.142   9.765   6.317  1.1799 -2.2300 -2.1622
  134MOL0     H18039   6.182   9.809   6.562 -1.9379  2.7000  1.5189
  134MOL0     H18040   6.276   9.942   6.501  2.1251 -0.6653 -2.0471
  134MOL0     H18041   6.133  10.167   6.461 -1.0250  2.6002 -2.3807
  134MOL0     H18042   5.805  10.230   6.329  0.0800  2.8950 -0.3921
  134MOL0     H18043   5.740  10.245   6.488 -1.6917 -1.5008 -1.8766
  134MOL0     H18044   5.992  10.384   6.391 -1.0234 -4.1028 -1.2826
  134MOL0     H18045   5.834  10.459   6.431 -1.3707 -2.0092 -0.6157
  134MOL0     H18046   5.986  10.517   6.615  2.6702  0.3353  1.0864
  134MOL0     H18047   6.049  10.354   6.624 -0.1173  1.7525  2.3714
  134MOL0     H18048   5.786  10.302   6.690  1.6170 -1.8343  1.4619
  134MOL0     H18049   5.778  10.475   6.686 -1.4733 -1.0092 -0.0576
  134MOL0     H18050   5.649  10.436   6.869 -0.0757 -0.9166 -0.3548
  134MOL0     H18051   5.530  10.441   7.094 -0.9576  0.1957  1.0558
  134MOL0     H18052   5.468  10.396   7.560  1.6288 -1.6447 -2.2544
  134MOL0     H18053   5.437  10.450   7.813  2.0568 -0.7382  4.6678
  134MOL0     H18054   5.502  10.416   8.146 -2.3535  0.4844 -0.6978
  134MOL0     H18055   5.447  10.362   7.997 -0.9224  0.8695  1.4514
  134MOL0     H18056   5.686  10.226   7.987  0.8243 -1.1796 -0.5558
  134MOL0     H18057   5.715  10.312   8.141 -1.4219 -0.2991  2.5060
  134MOL0     H18058   5.661  10.089   8.195  2.0916  0.2316 -2.9175
  134MOL0     H18059   5.525  10.203   8.232  2.1302 -1.5896  1.1003
  134MOL0     H18060   5.561   9.989   8.027 -3.1160 -2.0400 -1.7731
  134MOL0     H18061   5.424  10.108   8.011 -0.4584 -3.9960 -2.2998
  134MOL0     H18062   5.472   9.913   8.233  0.1776  0.0034 -0.3527
  134MOL0     H18063   5.340   9.898   8.116 -1.9432 -1.2914  3.5154
  134MOL0     H18064   5.245   9.978   8.309 -0.6184  0.8539 -0.1033
  134MOL0     H18065   5.362  10.121   8.327 -1.7748  0.9615  2.8280
  134MOL0     H18066   5.130  10.072   8.133 -2.2905  2.0525  0.5204
  134MOL0     H18067   5.251  10.206   8.133  3.2081  0.3495  3.5665
  134MOL0     H18068   5.041  10.257   8.233 -0.2811 -0.9930 -0.6525
  134MOL0     H18069   5.083  10.154   8.377  2.4264 -2.2996 -1.1828
  134MOL0     H18070   5.855  10.477   7.857 -0.0982 -0.3747  1.6261
  134MOL0     H18071   5.878  10.496   7.599  3.7435 -2.6069  4.3987
  134MOL0     H18072   5.909  10.397   7.290  0.8479  3.8771 -0.6947
  134MOL0     H18073   6.018  10.381   7.073 -0.1944  0.2169  0.3903
  134MOL0     H18074   7.030  10.096   6.095  0.7083 -0.0379 -0.7557
  134MOL0     H18075   7.181  10.294   6.054  1.0606 -0.2704  2.2368
  134MOL0     H18076   7.451  10.586   6.070 -0.3667 -1.4920  0.5801
  134MOL0     H18077   7.575  10.786   6.092  0.3987 -1.9168 -0.1900
  134MOL0     H18078   7.415  11.171   6.166 -0.3679  2.3469  0.3995
  134MOL0     H18079   7.379  11.189   5.996 -0.0684 -0.1820 -0.3934
  134MOL0     H18080   7.644  11.252   6.138  0.1368 -0.8344 -0.5353
  134MOL0     H18081   7.553  11.377   6.052  0.9335  0.5018 -0.6498
  134MOL0     H18082   7.585  11.256   5.834  0.0858  2.9249  0.5618
  134MOL0     H18083   7.693  11.145   5.931 -0.6611  0.0258 -0.2775
  134MOL0     H18084   7.835  11.325   5.989  0.6049 -0.2266 -1.0758
  134MOL0     H18085   7.807  11.307   5.818 -1.2867 -1.1100  0.4162
  134MOL0     H18086   7.634  11.695   5.874 -1.7474 -1.2877  0.6808
  134MOL0     H18087   7.244  11.033   5.975  0.0318  0.7285 -0.4228
  134MOL0     H18088   7.068  10.893   5.841 -0.6930 -0.5244  0.5801
  134MOL0     H18089   7.030  10.730   5.918 -1.0145 -0.1785 -0.9837
  134MOL0     H18090   7.008  10.890   5.996 -0.6826  0.0704 -0.4540
  135MOL0     O18091   1.030   9.244   8.641 -0.2417  0.2915  0.0451
  135MOL0     C18092   0.960   9.290   8.730 -0.6496  0.4711 -0.4246
  135MOL0     O18093   0.820   9.276   8.735 -0.1741 -0.0154 -0.3650
  135MOL0     C18094   0.740   9.181   8.670 -0.3412 -0.5977  0.3492
  135MOL0     C18095   0.782   9.104   8.560 -1.2145 -0.4653  1.5899
  135MOL0     C18096   0.695   9.016   8.498  0.9464 -0.3854  0.4412
  135MOL0     C18097   0.565   8.998   8.544  0.1340  0.0488 -0.2433
  135MOL0     O18098   0.480   8.901   8.494  0.9885 -0.2985  0.7229
  135MOL0     C18099   0.408   8.939   8.378  0.5502 -0.0561  0.2650
  135MOL0     C18100   0.399   8.813   8.295  0.2249 -0.4915 -1.5429
  135MOL0     C18101   0.315   8.840   8.180  0.6914 -0.2223  0.4512
  135MOL0     C18102   0.330   8.715   8.088 -0.4192 -0.1986  0.2088
  135MOL0     C18103   0.218   8.712   7.984 -0.4818  0.9277  0.0726
  135MOL0     C18104   0.224   8.816   7.878 -0.1741 -0.5422 -0.6533
  135MOL0     C18105   0.127   8.791   7.761  0.2280 -0.4019  0.1276
  135MOL0     C18106  -0.021   8.760   7.781  1.0566 -0.4852 -0.4063
  135MOL0     N18107  -0.095   8.749   7.646  0.1350  0.1501 -0.1061
  135MOL0     C18108  -0.065   8.660   7.547 -0.1259  0.1195  0.2891
  135MOL0     C18109  -0.141   8.705   7.446 -0.3686  0.2857 -0.4216
  135MOL0     C18110  -0.140   8.657   7.297 -0.0283 -0.9720 -0.5236
  135MOL0     C18111  -0.262   8.595   7.242 -0.4665  0.4121 -0.2049
  135MOL0     C18112  -0.268   8.457   7.288  0.1066 -0.2879 -0.5351
  135MOL0     C18113  -0.358   8.354   7.228  0.4102 -0.5715  0.3104
  135MOL0     O18114  -0.494   8.384   7.251  0.0395  0.7880  0.1306
  135MOL0     C18115  -0.581   8.294   7.187 -0.5893 -0.2417  0.7274
  135MOL0     C18116  -0.540   8.180   7.118 -0.0786  0.5902  0.2450
  135MOL0     C18117  -0.635   8.093   7.062 -0.1534  0.0176  0.7966
  135MOL0     C18118  -0.771   8.130   7.055 -0.5167 -0.4391  0.4884
  135MOL0     C18119  -0.870   8.056   6.969 -0.1385  0.4828  0.0815
  135MOL0     O18120  -1.006   8.095   6.972  0.0181  0.0797  0.7086
  135MOL0     C18121  -1.088   8.006   6.923 -0.0987 -0.7125  0.0775
  135MOL0     C18122  -1.144   8.031   6.799  0.1276 -0.4481 -0.0966
  135MOL0     C18123  -1.228   7.934   6.753  0.9409  0.0321  0.3998
  135MOL0     C18124  -1.243   7.806   6.805  0.2344 -1.2834  0.1425
  135MOL0     O18125  -1.326   7.733   6.726 -0.5759  0.3209  0.2650
  135MOL0     C18126  -1.375   7.606   6.779 -0.7420  0.0935  0.2847
  135MOL0     C18127  -1.527   7.603   6.813  0.0077 -0.4447 -0.2593
  135MOL0     C18128  -1.569   7.470   6.868 -0.0978  0.6283  0.0689
  135MOL0     C18129  -1.701   7.423   6.812 -0.8101  0.9521 -0.0921
  135MOL0     C18130  -1.825   7.502   6.828  1.2635  0.2057 -0.7477
  135MOL0     C18131  -1.947   7.426   6.781  0.5040 -0.2446 -0.5449
  135MOL0     C18132  -2.078   7.525   6.805 -0.4054  0.6692 -0.5521
  135MOL0     C18133  -2.094   7.633   6.694 -1.0101  0.8755  0.2261
  135MOL0    Cl18134  -2.026   7.787   6.743  0.2490 -0.6435  0.3028
  135MOL0     C18135  -1.204   7.788   6.937 -0.9661  0.4452 -0.1975
  135MOL0     C18136  -1.111   7.883   6.991  0.5585  0.3316 -0.2017
  135MOL0     O18137  -0.826   7.950   6.932 -0.1450  0.2316  0.9709
  135MOL0     C18138  -0.813   8.253   7.115 -0.1377  0.3687 -0.0523
  135MOL0     C18139  -0.712   8.329   7.184  0.5574 -0.3491 -0.4235
  135MOL0     N18140  -0.215   8.809   7.492 -0.8059  1.0709 -0.2516
  135MOL0     N18141  -0.196   8.825   7.613  0.5075  0.1401 -0.0715
  135MOL0     C18142   0.522   9.074   8.651  0.3945 -1.3259  0.2324
  135MOL0     C18143   0.614   9.156   8.721  1.0722 -0.6441 -0.2576
  135MOL0     C18144   1.024   9.376   8.826 -0.9309 -0.1052  0.7123
  135MOL0     C18145   0.948   9.486   8.873  0.2328 -0.5117  0.3106
  135MOL0     C18146   1.014   9.577   8.959  0.8473 -0.2987 -0.4685
  135MOL0     C18147   1.141   9.567   9.008 -0.4207  0.6194 -0.4707
  135MOL0     O18148   1.203   9.647   9.096  0.0641 -0.2957 -0.0162
  135MOL0     C18149   1.147   9.779   9.120  0.4528 -0.2089 -0.8622
  135MOL0     C18150   1.238   9.870   9.209  0.4445 -0.8752 -0.8761
  135MOL0     C18151   1.297   9.811   9.331 -0.8681 -0.5642  0.4551
  135MOL0     C18152   1.174   9.790   9.430 -0.0759 -0.0426 -0.1299
  135MOL0     C18153   1.097   9.915   9.456  0.0917  0.3555 -0.3278
  135MOL0     C18154   1.030  10.008   9.483  0.4883 -0.3108 -0.5088
  135MOL0     C18155   1.209   9.445   8.973  0.0079 -0.1499  0.1164
  135MOL0     C18156   1.151   9.356   8.878 -0.3829  0.1030 -0.1138
  135MOL0     C18157   1.237   9.232   8.849 -0.2626 -0.3517  0.8117
  135MOL0     H18158   0.880   9.124   8.517 -1.8819  0.8408  0.6296
  135MOL0     H18159   0.716   8.956   8.410 -2.4112 -0.9919 -0.0762
  135MOL0     H18160   0.307   8.969   8.406 -0.1215  0.3013 -2.3475
  135MOL0     H18161   0.466   9.017   8.327  1.5600 -1.1340 -0.2777
  135MOL0     H18162   0.357   8.726   8.348  0.6917  1.0786  1.6291
  135MOL0     H18163   0.505   8.791   8.277  1.2331  0.6372  2.2267
  135MOL0     H18164   0.364   8.929   8.140  2.1782 -0.0649  2.4518
  135MOL0     H18165   0.215   8.865   8.216  1.5618  5.0090  0.0205
  135MOL0     H18166   0.430   8.720   8.043 -0.2487 -3.1949  0.0214
  135MOL0     H18167   0.308   8.619   8.135  0.6879  0.2047  1.6199
  135MOL0     H18168   0.213   8.612   7.939 -3.6935  0.1794  1.7449
  135MOL0     H18169   0.124   8.717   8.040  0.3683  0.5523  1.5944
  135MOL0     H18170   0.201   8.918   7.911  1.6227 -0.1458 -0.5349
  135MOL0     H18171   0.324   8.826   7.836  1.4401  0.4664  2.9884
  135MOL0     H18172   0.165   8.701   7.713 -0.6913 -1.2777  1.0105
  135MOL0     H18173   0.140   8.872   7.688  1.0900  0.1248  0.8411
  135MOL0     H18174  -0.029   8.663   7.831 -0.8515  0.2667  0.8309
  135MOL0     H18175  -0.066   8.834   7.847  2.6111 -1.9132  2.4521
  135MOL0     H18176   0.024   8.599   7.544 -0.3958 -0.2169 -1.8072
  135MOL0     H18177  -0.126   8.747   7.236  1.0386  0.2123  1.3474
  135MOL0     H18178  -0.050   8.599   7.277  2.0142  2.0415 -0.8556
  135MOL0     H18179  -0.357   8.647   7.255 -1.1151 -0.4976 -1.1764
  135MOL0     H18180  -0.240   8.585   7.135  5.0036  2.1468  0.4098
  135MOL0     H18181  -0.289   8.475   7.394  2.3077  3.4259 -0.5510
  135MOL0     H18182  -0.172   8.408   7.274 -0.7722 -1.6594 -2.1414
  135MOL0     H18183  -0.327   8.255   7.261  2.6000 -1.6156 -4.0542
  135MOL0     H18184  -0.328   8.356   7.123  5.1204  0.2809  1.4417
  135MOL0     H18185  -0.436   8.147   7.110 -0.5983 -1.5705  1.5110
  135MOL0     H18186  -0.594   7.997   7.033  0.1756 -0.9056  4.0121
  135MOL0     H18187  -1.122   8.115   6.733 -0.6866 -0.0298  0.1596
  135MOL0     H18188  -1.272   7.944   6.654  4.5396 -0.6449 -1.4652
  135MOL0     H18189  -1.353   7.529   6.704  0.3996  1.2936 -0.6473
  135MOL0     H18190  -1.325   7.579   6.872  1.4843  3.4569  0.2234
  135MOL0     H18191  -1.538   7.682   6.888 -1.5465  0.8724 -1.7873
  135MOL0     H18192  -1.586   7.637   6.727  1.3586 -0.1483 -1.1019
  135MOL0     H18193  -1.502   7.390   6.836 -1.1150 -0.5125  0.7027
  135MOL0     H18194  -1.578   7.478   6.976 -6.0742  0.1272 -0.0702
  135MOL0     H18195  -1.718   7.335   6.876  0.0883 -0.6239 -1.9394
  135MOL0     H18196  -1.686   7.394   6.708 -1.0239  0.3607  0.0395
  135MOL0     H18197  -1.808   7.588   6.762 -0.1758 -0.0378 -1.4778
  135MOL0     H18198  -1.835   7.525   6.935  0.4521  1.5946 -1.0882
  135MOL0     H18199  -1.941   7.399   6.675  0.3066 -2.5106 -0.0281
  135MOL0     H18200  -1.943   7.338   6.846 -2.3913  0.2858  0.5244
  135MOL0     H18201  -2.081   7.568   6.906 -2.7021 -0.3263 -0.1289
  135MOL0     H18202  -2.160   7.454   6.789 -0.9524  1.3400 -0.7772
  135MOL0     H18203  -2.051   7.590   6.602 -0.2520  0.0133  0.9624
  135MOL0     H18204  -2.199   7.640   6.664 -1.0714 -0.4777  0.0417
  135MOL0     H18205  -1.231   7.699   6.993  0.2344  1.8579  2.8366
  135MOL0     H18206  -1.059   7.869   7.086 -1.9916  1.3945  1.4620
  135MOL0     H18207  -0.918   8.279   7.124 -0.4613 -0.5190 -1.0121
  135MOL0     H18208  -0.754   8.416   7.232 -0.9724 -1.2164 -0.1472
  135MOL0     H18209   0.418   9.061   8.679  0.4439 -1.3087  0.4228
  135MOL0     H18210   0.580   9.204   8.812 -1.5066 -3.5247  0.4579
  135MOL0     H18211   0.847   9.491   8.833 -0.2509  1.2239  1.5946
  135MOL0     H18212   0.960   9.666   8.989  3.0865 -0.2577  4.3423
  135MOL0     H18213   1.057   9.776   9.181  1.6331 -3.0412  0.9317
  135MOL0     H18214   1.117   9.812   9.020  0.1292 -0.1284 -0.7376
  135MOL0     H18215   1.189   9.965   9.235 -1.4960 -1.9943 -0.2469
  135MOL0     H18216   1.328   9.901   9.154 -0.0494  2.3671 -0.1046
  135MOL0     H18217   1.377   9.873   9.373  0.6209 -4.3599  3.9137
  135MOL0     H18218   1.346   9.717   9.304 -0.2163  1.1679 -6.1465
  135MOL0     H18219   1.114   9.706   9.394  0.5515 -1.1523  1.3540
  135MOL0     H18220   1.211   9.754   9.526 -1.7633 -1.2168  0.1212
  135MOL0     H18221   0.969  10.089   9.516  2.2299  0.6735  0.4212
  135MOL0     H18222   1.300   9.429   9.031 -0.8084  1.0488  1.8135
  135MOL0     H18223   1.303   9.214   8.934 -1.3869  1.5617  2.1641
  135MOL0     H18224   1.180   9.139   8.847  2.7606 -2.3457 -0.0119
  135MOL0     H18225   1.293   9.242   8.755 -0.5521 -4.2653  0.0709
  136MOL0     O18226   2.383   9.639   6.816  0.3031  0.2541  0.1555
  136MOL0     C18227   2.311   9.565   6.882  0.8994  1.0799  0.1583
  136MOL0     O18228   2.191   9.606   6.940 -1.1033 -0.1881  0.0983
  136MOL0     C18229   2.143   9.735   6.923  0.3284 -0.2766  0.2545
  136MOL0     C18230   2.037   9.758   6.834  0.7972  0.4968  0.0687
  136MOL0     C18231   1.978   9.884   6.826 -0.1533  1.4866 -0.0620
  136MOL0     C18232   2.018   9.982   6.909  0.5196  0.3433 -0.2214
  136MOL0     O18233   1.952  10.110   6.900 -0.1920 -0.2488 -0.4090
  136MOL0     C18234   1.890  10.152   6.779 -0.3220  0.5604 -0.6999
  136MOL0     C18235   1.815  10.277   6.797 -1.3548 -0.1682  0.2065
  136MOL0     C18236   1.905  10.393   6.810  0.2781 -0.6087  0.3131
  136MOL0     C18237   1.935  10.448   6.960  0.5409  0.7582  0.3944
  136MOL0     C18238   2.083  10.506   6.980  0.3989 -0.4422  1.1999
  136MOL0     C18239   2.111  10.628   6.887 -0.2417 -0.6965 -0.0702
  136MOL0     C18240   2.261  10.668   6.904 -0.8364  0.5622  0.2611
  136MOL0     C18241   2.294  10.722   7.039 -0.1823  0.0851 -0.2098
  136MOL0     N18242   2.436  10.785   7.038  0.1704 -0.9179  0.5771
  136MOL0     C18243   2.453  10.896   6.958 -1.5509 -0.2685  1.0554
  136MOL0     C18244   2.576  10.942   6.992 -1.2824 -0.7051 -0.5089
  136MOL0     C18245   2.653  11.072   6.955  0.1620  0.3058 -0.1617
  136MOL0     C18246   2.783  11.028   6.886  0.0600  0.3848  0.8994
  136MOL0     C18247   2.879  11.138   6.863 -0.7287  0.2345  0.3727
  136MOL0     C18248   2.837  11.225   6.754 -1.1904 -0.7635 -0.5287
  136MOL0     O18249   2.934  11.326   6.732  0.1800 -0.0799  0.3184
  136MOL0     C18250   2.911  11.430   6.641  0.7247  0.1331  0.4434
  136MOL0     C18251   3.018  11.514   6.610  0.3647 -0.1428 -0.2649
  136MOL0     C18252   2.989  11.622   6.521 -0.7087  0.1765 -0.1192
  136MOL0     C18253   2.866  11.647   6.454  0.5115 -1.1602 -0.2580
  136MOL0     C18254   2.861  11.770   6.364  0.4928  0.4971 -0.4368
  136MOL0     O18255   2.737  11.785   6.305  0.4463 -0.0147  0.0085
  136MOL0     C18256   2.688  11.914   6.279 -0.0576  0.2081 -0.3312
  136MOL0     C18257   2.660  12.006   6.377  1.1533 -0.1365  0.3212
  136MOL0     C18258   2.594  12.131   6.353  0.5311 -0.2235 -0.4067
  136MOL0     C18259   2.568  12.173   6.218  0.8052  0.7453  0.3058
  136MOL0     O18260   2.529  12.293   6.183 -0.1199 -1.0603 -0.0319
  136MOL0     C18261   2.491  12.394   6.291  0.3083  0.3768 -0.4306
  136MOL0     C18262   2.483  12.539   6.245  0.5973  0.4021  0.8515
  136MOL0     C18263   2.371  12.551   6.127  0.7863 -0.7822  0.4496
  136MOL0     C18264   2.358  12.693   6.063 -0.3904 -0.1900 -1.0302
  136MOL0     C18265   2.295  12.791   6.160 -0.3545  0.1379  1.0479
  136MOL0     C18266   2.224  12.899   6.082  0.1866  0.0825 -0.7409
  136MOL0     C18267   2.169  12.998   6.182 -0.2318 -0.9498 -0.1156
  136MOL0     C18268   2.118  13.116   6.104  0.1318  0.3911  0.1335
  136MOL0    Cl18269   1.981  13.086   5.979 -0.0659 -0.1527  0.1302
  136MOL0     C18270   2.598  12.081   6.113 -0.4000  0.5048  0.8273
  136MOL0     C18271   2.652  11.953   6.143  0.2816  0.2916  0.3450
  136MOL0     O18272   2.957  11.849   6.352  0.1902 -0.0860 -0.2856
  136MOL0     C18273   2.751  11.563   6.485  0.2502 -0.4466 -0.6776
  136MOL0     C18274   2.782  11.453   6.583  0.3358 -0.2953  0.2220
  136MOL0     N18275   2.631  10.853   7.089  0.6406  0.9272  0.0713
  136MOL0     N18276   2.545  10.751   7.112  0.0399  0.3693  0.4891
  136MOL0     C18277   2.129   9.964   7.006 -0.7284  1.0816  0.3861
  136MOL0     C18278   2.200   9.841   7.005 -0.7185 -0.2338  0.6988
  136MOL0     C18279   2.349   9.422   6.907 -0.0814  0.4158  0.3982
  136MOL0     C18280   2.291   9.366   7.019 -0.1385  0.1343  0.7969
  136MOL0     C18281   2.332   9.247   7.073  0.0870  0.4570 -0.0332
  136MOL0     C18282   2.441   9.181   7.022  0.3594  0.9928 -0.7772
  136MOL0     O18283   2.468   9.069   7.098 -0.9727 -0.3016 -0.4006
  136MOL0     C18284   2.588   8.988   7.063  0.0814  0.1584  0.2087
  136MOL0     C18285   2.629   8.895   7.170 -0.4604  0.8516  0.1848
  136MOL0     C18286   2.672   8.989   7.288 -0.0143 -0.7030  0.3038
  136MOL0     C18287   2.828   9.024   7.284 -0.1701 -1.0399 -0.2525
  136MOL0     C18288   2.903   8.993   7.405 -1.1061  0.6180  0.3446
  136MOL0     C18289   2.960   8.965   7.513  0.5677  0.1445  1.7438
  136MOL0     C18290   2.501   9.226   6.905 -0.1031  0.4744  0.6511
  136MOL0     C18291   2.468   9.353   6.843  0.3270  0.6392  0.3909
  136MOL0     C18292   2.548   9.409   6.735  0.2698  0.1469  0.0758
  136MOL0     H18293   2.013   9.673   6.771 -0.8552  0.2262  1.0157
  136MOL0     H18294   1.900   9.895   6.751 -1.3180 -2.4445  0.3701
  136MOL0     H18295   1.952  10.169   6.691  0.0949 -0.6966 -0.6715
  136MOL0     H18296   1.805  10.086   6.760  1.9775 -2.6743 -0.5187
  136MOL0     H18297   1.750  10.268   6.884 -1.5594 -3.2956 -0.1416
  136MOL0     H18298   1.759  10.293   6.704 -0.7285  0.4293 -0.0777
  136MOL0     H18299   1.845  10.475   6.771 -1.6228 -1.1518  1.9194
  136MOL0     H18300   1.995  10.374   6.751  0.0034  0.3970 -0.4628
  136MOL0     H18301   1.858  10.516   6.996  3.0271  3.3302  1.2135
  136MOL0     H18302   1.939  10.364   7.031  1.0611  0.4381 -0.0115
  136MOL0     H18303   2.094  10.542   7.083 -2.1889  2.3345  0.6406
  136MOL0     H18304   2.156  10.433   6.944 -1.4436 -1.4361 -0.7060
  136MOL0     H18305   2.101  10.599   6.782 -2.0630  0.2909 -0.2009
  136MOL0     H18306   2.047  10.713   6.914  4.1148  2.5381  1.3163
  136MOL0     H18307   2.275  10.741   6.823 -3.4500 -2.0488 -2.8655
  136MOL0     H18308   2.322  10.581   6.877 -0.3680  1.4771 -1.7918
  136MOL0     H18309   2.220  10.798   7.067  0.7939  0.9911  0.0073
  136MOL0     H18310   2.294  10.647   7.119 -3.6219  3.1136  3.0662
  136MOL0     H18311   2.382  10.940   6.888 -2.2278  1.9174  3.0208
  136MOL0     H18312   2.598  11.143   6.894 -3.6944  2.8031  5.4149
  136MOL0     H18313   2.676  11.141   7.036 -0.1444  2.5185 -1.8685
  136MOL0     H18314   2.829  10.950   6.947 -0.7727 -0.2068  0.7829
  136MOL0     H18315   2.739  10.984   6.795  0.4799  1.6812  0.0418
  136MOL0     H18316   2.976  11.096   6.833  0.0069  2.8317 -1.1815
  136MOL0     H18317   2.906  11.192   6.954 -0.2310  1.9430 -0.7390
  136MOL0     H18318   2.742  11.273   6.779  0.3798  1.8904  0.8445
  136MOL0     H18319   2.828  11.161   6.665  3.0385  1.3670 -2.7804
  136MOL0     H18320   3.121  11.493   6.637  0.0231 -2.0622 -0.2498
  136MOL0     H18321   3.075  11.683   6.498  0.9874 -1.9345  0.2290
  136MOL0     H18322   2.682  11.965   6.475  0.8512  2.8051  1.7231
  136MOL0     H18323   2.582  12.183   6.447 -1.9728  0.5607 -1.0903
  136MOL0     H18324   2.397  12.363   6.338 -2.0530  3.3286 -2.7456
  136MOL0     H18325   2.566  12.396   6.370 -1.2256 -2.3993  1.2309
  136MOL0     H18326   2.448  12.601   6.328 -0.1748  3.9570 -1.9082
  136MOL0     H18327   2.579  12.579   6.210  0.6474  1.3449  1.9809
  136MOL0     H18328   2.384  12.481   6.044 -0.5541  1.8229 -2.1533
  136MOL0     H18329   2.279  12.522   6.180  1.7649 -0.6567  2.2903
  136MOL0     H18330   2.285  12.687   5.982 -0.5659  1.5009 -1.0297
  136MOL0     H18331   2.457  12.718   6.023  0.3750 -0.3119  0.7080
  136MOL0     H18332   2.373  12.828   6.227  1.8329  0.3739 -1.5035
  136MOL0     H18333   2.227  12.745   6.233  1.6367  0.2006  3.0374
  136MOL0     H18334   2.294  12.948   6.014  1.9381 -0.8391  0.3399
  136MOL0     H18335   2.136  12.856   6.034 -0.5320  0.0835  0.5448
  136MOL0     H18336   2.249  13.026   6.251 -0.5262 -1.3649  0.3997
  136MOL0     H18337   2.084  12.962   6.241 -1.4247  0.3907 -0.9743
  136MOL0     H18338   2.093  13.197   6.173  3.6173  0.7371  1.1944
  136MOL0     H18339   2.202  13.146   6.039 -0.7063 -1.4200 -1.9277
  136MOL0     H18340   2.586  12.127   6.016  2.8921 -0.5059 -0.1732
  136MOL0     H18341   2.677  11.877   6.070  4.0963 -0.5929  2.2721
  136MOL0     H18342   2.654  11.576   6.438 -0.7624  1.9768  1.7582
  136MOL0     H18343   2.704  11.389   6.622 -1.7793  1.9538 -0.0818
  136MOL0     H18344   2.164  10.046   7.068 -0.9992 -0.3114  2.4940
  136MOL0     H18345   2.292   9.823   7.060 -0.9098 -0.0874  1.0630
  136MOL0     H18346   2.218   9.415   7.082 -1.5176 -0.9120  0.0458
  136MOL0     H18347   2.287   9.199   7.159 -2.3166  0.8638 -0.9741
  136MOL0     H18348   2.671   9.056   7.040  2.3881 -1.6681  2.5041
  136MOL0     H18349   2.565   8.923   6.978 -1.5312 -1.9329  2.1178
  136MOL0     H18350   2.707   8.825   7.137 -2.0971  0.1689 -2.6072
  136MOL0     H18351   2.544   8.830   7.194  1.3984 -1.7917  0.0194
  136MOL0     H18352   2.651   8.926   7.375  2.4947 -1.7198  0.2450
  136MOL0     H18353   2.620   9.085   7.294 -2.6389 -1.9606 -0.9870
  136MOL0     H18354   2.882   8.982   7.199 -1.7394  0.4490 -2.0880
  136MOL0     H18355   2.826   9.131   7.258 -2.7072 -0.5984  1.4021
  136MOL0     H18356   3.012   8.921   7.596  2.7386 -0.3886  0.1959
  136MOL0     H18357   2.579   9.172   6.852 -0.9324  0.1138 -0.2209
  136MOL0     H18358   2.631   9.347   6.701 -0.2227  0.8403 -2.5553
  136MOL0     H18359   2.471   9.416   6.658 -1.3897  1.1984  1.7297
  136MOL0     H18360   2.595   9.504   6.764  2.7439 -1.3231  1.2904
  137MOL0     O18361   4.129   7.095   6.217  0.2856 -0.4450  0.6058
  137MOL0     C18362   4.185   6.996   6.171  0.8604  0.8877  0.3317
  137MOL0     O18363   4.198   6.877   6.234 -0.5992 -0.2786 -0.1563
  137MOL0     C18364   4.126   6.843   6.343  0.8426 -0.3360  0.0621
  137MOL0     C18365   4.018   6.743   6.327  0.0182  0.6377 -0.0540
  137MOL0     C18366   3.945   6.708   6.443 -0.0764  0.6589 -0.3152
  137MOL0     C18367   3.963   6.757   6.566  0.2847  0.0660 -1.0744
  137MOL0     O18368   3.873   6.715   6.661  0.1057 -0.7956  0.3929
  137MOL0     C18369   3.896   6.728   6.805  0.4908 -0.2684  1.0240
  137MOL0     C18370   3.809   6.616   6.868 -0.2238 -0.7835  0.2425
  137MOL0     C18371   3.883   6.495   6.833  0.0904  0.5757  0.1277
  137MOL0     C18372   3.863   6.398   6.939  0.2465  0.4071 -0.3496
  137MOL0     C18373   3.902   6.256   6.896 -0.1195  0.4937 -1.0393
  137MOL0     C18374   3.837   6.158   6.990  0.0470  0.6889 -0.4151
  137MOL0     C18375   3.876   6.011   6.954 -0.2701 -0.2759 -0.3684
  137MOL0     C18376   3.850   5.963   6.807  0.2140  0.5138 -0.3500
  137MOL0     N18377   3.710   5.950   6.780  0.0935  0.4370  0.1390
  137MOL0     C18378   3.613   6.048   6.757  0.6114 -0.5957 -0.2332
  137MOL0     C18379   3.494   5.980   6.753 -0.2439  0.5115  0.9798
  137MOL0     C18380   3.361   6.041   6.731 -1.0450 -0.4617  0.4411
  137MOL0     C18381   3.326   6.121   6.861  0.5144 -0.3475  0.6608
  137MOL0     C18382   3.334   6.050   6.991 -1.0118  0.6728 -0.3917
  137MOL0     C18383   3.312   6.154   7.109 -0.1576  0.0587  0.3071
  137MOL0     O18384   3.406   6.261   7.100  0.6266  0.6188 -0.7218
  137MOL0     C18385   3.466   6.310   7.209 -0.4690 -0.5835 -0.5394
  137MOL0     C18386   3.586   6.382   7.185  0.1421 -0.0611 -0.2938
  137MOL0     C18387   3.675   6.415   7.301  1.0488 -0.6785  1.1285
  137MOL0     C18388   3.635   6.384   7.435  0.3510  0.0984  0.2665
  137MOL0     C18389   3.718   6.426   7.548 -1.2396  0.9038 -0.3602
  137MOL0     O18390   3.855   6.448   7.518  0.5187  0.0043  0.1398
  137MOL0     C18391   3.929   6.522   7.603 -0.1848 -0.5551  0.1329
  137MOL0     C18392   4.065   6.490   7.620 -0.1637  0.8511 -0.4375
  137MOL0     C18393   4.143   6.552   7.718 -0.7920 -0.4571  0.7636
  137MOL0     C18394   4.106   6.672   7.775  0.7990 -0.6874 -0.1401
  137MOL0     O18395   4.188   6.724   7.875 -0.3627  0.1000 -0.3258
  137MOL0     C18396   4.115   6.789   7.975 -0.0910 -0.1041 -0.5944
  137MOL0     C18397   4.235   6.810   8.081 -0.0302 -0.1598 -0.2601
  137MOL0     C18398   4.176   6.873   8.212  0.2295  0.5282 -0.2554
  137MOL0     C18399   4.074   6.781   8.278 -0.5545  0.5624 -0.3525
  137MOL0     C18400   4.042   6.822   8.427  0.3800 -0.3422 -0.1873
  137MOL0     C18401   3.911   6.752   8.476 -0.9489 -1.2840  0.0820
  137MOL0     C18402   3.930   6.609   8.499  0.3637  0.2413  0.5986
  137MOL0     C18403   3.837   6.521   8.406  0.1004 -0.9506  0.7093
  137MOL0    Cl18404   3.854   6.352   8.448 -0.3296  0.8140  0.1137
  137MOL0     C18405   3.971   6.713   7.748 -1.5728 -0.9792  0.5703
  137MOL0     C18406   3.884   6.651   7.659 -0.8167  0.2193  0.2823
  137MOL0     O18407   3.668   6.450   7.659  0.3263 -0.2264  0.4795
  137MOL0     C18408   3.511   6.321   7.455  0.2376 -0.4011  0.0671
  137MOL0     C18409   3.428   6.283   7.339  0.3804  0.1842 -0.8805
  137MOL0     N18410   3.509   5.847   6.771 -0.7177  0.7087 -0.1905
  137MOL0     N18411   3.637   5.834   6.791 -0.2045 -0.3281  0.2351
  137MOL0     C18412   4.072   6.849   6.587  0.5620  0.0542 -0.2642
  137MOL0     C18413   4.150   6.896   6.467 -0.2563 -0.2185 -0.3098
  137MOL0     C18414   4.254   7.013   6.036 -0.0438 -0.7237 -0.8182
  137MOL0     C18415   4.337   6.911   5.999 -0.5150 -0.4368 -0.2180
  137MOL0     C18416   4.403   6.924   5.877  0.8732  0.5839  0.9794
  137MOL0     C18417   4.369   7.023   5.788 -0.7793  0.0167  0.3999
  137MOL0     O18418   4.423   7.028   5.663 -0.4105 -0.0130  0.3566
  137MOL0     C18419   4.350   6.947   5.571 -0.2321 -0.0138  0.7807
  137MOL0     C18420   4.439   6.927   5.449 -0.5704 -0.0946  0.5831
  137MOL0     C18421   4.373   6.867   5.342 -0.5042  0.0440  0.4883
  137MOL0     C18422   4.335   6.722   5.375 -0.4999  0.3769  0.5973
  137MOL0     C18423   4.287   6.659   5.253 -0.0697  0.7542 -0.3457
  137MOL0     C18424   4.251   6.620   5.144  0.3712 -0.8719  0.4024
  137MOL0     C18425   4.284   7.125   5.823  0.4507  0.8868 -0.0063
  137MOL0     C18426   4.219   7.124   5.954 -0.8794 -0.3711 -0.4246
  137MOL0     C18427   4.142   7.247   5.983 -0.1594  0.0547  0.3923
  137MOL0     H18428   3.990   6.686   6.239 -0.6140  1.5687 -0.4827
  137MOL0     H18429   3.871   6.633   6.415  0.8203 -0.0535 -0.8318
  137MOL0     H18430   4.001   6.735   6.835  1.4275  0.1065 -2.0372
  137MOL0     H18431   3.866   6.831   6.829  1.8590  0.2587  0.5785
  137MOL0     H18432   3.714   6.617   6.815  0.0897 -0.0816 -0.3248
  137MOL0     H18433   3.785   6.621   6.975 -1.2514 -1.5271  0.0611
  137MOL0     H18434   3.992   6.492   6.827  0.2563 -0.8471  2.5137
  137MOL0     H18435   3.845   6.450   6.741  2.4873 -0.4219 -0.4474
  137MOL0     H18436   3.920   6.424   7.028 -1.5289  1.4316  0.5597
  137MOL0     H18437   3.755   6.402   6.956  0.3960  0.4269  0.6839
  137MOL0     H18438   3.861   6.254   6.794 -0.7544  2.4800 -0.8707
  137MOL0     H18439   4.010   6.242   6.887 -0.1157  0.9755 -1.8873
  137MOL0     H18440   3.851   6.163   7.098  2.7134 -1.1662 -0.5665
  137MOL0     H18441   3.730   6.182   6.988 -0.1315  1.4912  4.7338
  137MOL0     H18442   3.837   5.946   7.033 -1.0784  1.8890  1.1183
  137MOL0     H18443   3.985   6.014   6.964 -0.3677  0.4789  0.6864
  137MOL0     H18444   3.891   6.038   6.739 -0.1832  2.8347  1.8187
  137MOL0     H18445   3.894   5.862   6.808 -2.2899 -0.7304  3.2989
  137MOL0     H18446   3.638   6.150   6.731 -0.8397 -0.1624 -0.0329
  137MOL0     H18447   3.389   6.115   6.656  4.4469 -1.9306  0.6174
  137MOL0     H18448   3.296   5.959   6.701  1.9456 -1.2727 -5.2020
  137MOL0     H18449   3.379   6.216   6.867  1.2780 -0.7673  0.7157
  137MOL0     H18450   3.223   6.156   6.853  1.2103  1.8883  0.8701
  137MOL0     H18451   3.424   5.988   7.000 -1.6227  0.0730  2.5851
  137MOL0     H18452   3.249   5.981   6.991 -1.0777  0.7451  0.4534
  137MOL0     H18453   3.301   6.094   7.199 -0.5821  1.5723  1.3111
  137MOL0     H18454   3.220   6.213   7.109  0.0171  0.3801  1.7855
  137MOL0     H18455   3.622   6.419   7.090  1.8380 -1.8059 -0.4080
  137MOL0     H18456   3.759   6.480   7.281  0.0843  0.9518  2.2109
  137MOL0     H18457   4.106   6.404   7.567  1.5093  0.5589  1.2106
  137MOL0     H18458   4.249   6.525   7.718 -1.1930 -2.9037  4.4309
  137MOL0     H18459   4.085   6.885   7.932  0.8001 -0.5305 -2.2576
  137MOL0     H18460   4.030   6.728   8.006 -0.5124 -0.6752 -2.6976
  137MOL0     H18461   4.273   6.713   8.114  0.4161  0.7446  2.1094
  137MOL0     H18462   4.325   6.860   8.045  1.5574 -3.8198 -1.8168
  137MOL0     H18463   4.254   6.899   8.285  0.1694  2.5926 -0.8716
  137MOL0     H18464   4.126   6.968   8.191 -1.9230 -0.9638 -2.3905
  137MOL0     H18465   4.114   6.680   8.280  0.0918  0.8089 -0.3593
  137MOL0     H18466   3.979   6.781   8.225  0.1201 -0.2494 -1.5876
  137MOL0     H18467   4.040   6.931   8.441  1.5231 -0.5643  2.1218
  137MOL0     H18468   4.123   6.793   8.495 -0.0605  0.6676  0.7953
  137MOL0     H18469   3.878   6.797   8.570 -1.9661  1.9296 -1.6499
  137MOL0     H18470   3.827   6.768   8.407  0.3019 -0.7113 -1.3904
  137MOL0     H18471   3.906   6.581   8.602  0.0356  2.6061  1.2074
  137MOL0     H18472   4.034   6.580   8.481  0.4862  1.4818 -0.9130
  137MOL0     H18473   3.737   6.553   8.437 -0.6387  0.8737 -2.9396
  137MOL0     H18474   3.842   6.551   8.301 -3.6073  1.9042  1.1206
  137MOL0     H18475   3.959   6.809   7.797  1.5999 -1.2315  2.1555
  137MOL0     H18476   3.785   6.691   7.643 -1.2859 -0.4936  1.3158
  137MOL0     H18477   3.483   6.285   7.554 -0.5609 -0.1895 -0.0759
  137MOL0     H18478   3.337   6.226   7.360  0.4776  0.4630  0.4198
  137MOL0     H18479   4.093   6.892   6.684 -3.0058 -1.7367  1.4945
  137MOL0     H18480   4.229   6.964   6.498  0.0112 -0.4722 -0.4283
  137MOL0     H18481   4.364   6.829   6.064  1.8437 -1.4127 -2.2495
  137MOL0     H18482   4.485   6.862   5.843 -0.6631 -0.3582 -1.2137
  137MOL0     H18483   4.257   6.999   5.544 -0.8672 -2.0457 -1.2792
  137MOL0     H18484   4.327   6.848   5.612  1.9139 -1.0184 -0.2813
  137MOL0     H18485   4.517   6.857   5.480 -2.9822 -2.5506  1.5674
  137MOL0     H18486   4.477   7.023   5.413  2.4691 -0.2561  2.9160
  137MOL0     H18487   4.449   6.859   5.263 -1.1729 -1.0532 -0.0785
  137MOL0     H18488   4.284   6.924   5.314  0.9080  2.5427  0.8157
  137MOL0     H18489   4.423   6.665   5.405 -0.9374 -1.5910 -1.5896
  137MOL0     H18490   4.254   6.717   5.449  1.2059 -0.3127  2.5042
  137MOL0     H18491   4.225   6.590   5.044  3.9294  1.8352 -1.5835
  137MOL0     H18492   4.251   7.201   5.753  1.2859 -0.5005 -1.9962
  137MOL0     H18493   4.214   7.321   6.019 -0.2545  1.2057 -1.5991
  137MOL0     H18494   4.115   7.290   5.886  2.9775  4.1741  1.0689
  137MOL0     H18495   4.049   7.239   6.039 -1.1886 -2.3875 -1.4763
  138MOL0     O18496   5.041   4.434   5.423  0.2734  0.7937  0.4977
  138MOL0     C18497   5.043   4.309   5.436 -0.5472 -1.1061  0.7159
  138MOL0     O18498   4.926   4.230   5.446 -0.2816 -0.1294  0.6701
  138MOL0     C18499   4.808   4.297   5.458 -0.6989  0.7330  0.4966
  138MOL0     C18500   4.776   4.402   5.547 -0.0579  0.6169 -0.0206
  138MOL0     C18501   4.655   4.476   5.529 -0.1779  0.2205 -0.1789
  138MOL0     C18502   4.568   4.440   5.429  0.6490 -0.1104 -0.4077
  138MOL0     O18503   4.455   4.508   5.394  0.4065  0.3552 -0.1529
  138MOL0     C18504   4.385   4.587   5.485  0.0205 -0.7283  0.1794
  138MOL0     C18505   4.444   4.738   5.497 -0.7449  0.0614 -0.4897
  138MOL0     C18506   4.342   4.823   5.563  0.3941 -0.4365  0.7461
  138MOL0     C18507   4.398   4.964   5.557  0.4871 -0.1433  0.8513
  138MOL0     C18508   4.307   5.065   5.643  0.3293  0.1500 -0.5186
  138MOL0     C18509   4.158   5.038   5.609  0.6687  0.3628 -0.2428
  138MOL0     C18510   4.065   5.141   5.688 -0.0881 -0.2951 -0.1354
  138MOL0     C18511   4.054   5.135   5.841 -0.0672  1.8310 -0.2984
  138MOL0     N18512   3.979   5.251   5.889 -0.2858 -0.4506  0.5327
  138MOL0     C18513   3.851   5.258   5.929  0.4057  0.3501 -0.0523
  138MOL0     C18514   3.830   5.392   5.954  0.1524 -0.0771  0.1142
  138MOL0     C18515   3.716   5.460   6.011  0.9423  0.0247  0.3077
  138MOL0     C18516   3.588   5.434   5.933  0.2696 -0.2222 -0.8459
  138MOL0     C18517   3.574   5.520   5.810 -0.3028 -0.2892  0.7936
  138MOL0     C18518   3.659   5.458   5.694  0.2293  0.6896 -0.1011
  138MOL0     O18519   3.587   5.339   5.655  0.4452 -0.5431  0.2310
  138MOL0     C18520   3.653   5.262   5.564  0.3055  0.2298  0.4413
  138MOL0     C18521   3.712   5.144   5.602 -0.4340  0.1570 -0.1057
  138MOL0     C18522   3.760   5.048   5.510  0.6248  0.7744  0.7670
  138MOL0     C18523   3.780   5.090   5.378  1.5861 -0.3756  0.3915
  138MOL0     C18524   3.860   5.011   5.290  0.2409  1.2200  1.1271
  138MOL0     O18525   3.943   4.919   5.346  0.8674 -0.6448  0.3995
  138MOL0     C18526   4.006   4.820   5.269 -0.1708 -0.0141 -0.4284
  138MOL0     C18527   4.142   4.823   5.247 -0.5422  0.5211  0.2310
  138MOL0     C18528   4.206   4.706   5.192  0.3891  0.3885  0.1137
  138MOL0     C18529   4.131   4.593   5.159  0.5881 -0.2794  0.2100
  138MOL0     O18530   4.185   4.474   5.115 -0.3229 -0.0239  0.3122
  138MOL0     C18531   4.320   4.471   5.069 -0.0204 -0.1392 -0.5985
  138MOL0     C18532   4.325   4.542   4.923  0.6426  0.5206  0.3215
  138MOL0     C18533   4.444   4.488   4.843 -0.3444 -0.3773  0.0812
  138MOL0     C18534   4.439   4.526   4.691 -0.0386  1.0937  0.3713
  138MOL0     C18535   4.570   4.508   4.621 -0.6511  0.2576  0.0775
  138MOL0     C18536   4.699   4.588   4.671 -0.1010  0.2890  0.5751
  138MOL0     C18537   4.688   4.731   4.626  0.3416 -0.5805  0.4883
  138MOL0     C18538   4.718   4.744   4.478  0.4496 -0.0099 -0.3243
  138MOL0    Cl18539   4.865   4.653   4.427  0.2242 -0.4375 -0.5562
  138MOL0     C18540   3.990   4.592   5.184 -0.7449 -0.3046 -0.0170
  138MOL0     C18541   3.935   4.700   5.243 -0.5718  0.1363 -0.0167
  138MOL0     O18542   3.844   5.021   5.161 -0.0693 -0.2820 -0.1550
  138MOL0     C18543   3.735   5.213   5.335  0.6984 -0.3450  0.4236
  138MOL0     C18544   3.673   5.296   5.429 -0.0818  0.4954  0.9084
  138MOL0     N18545   3.949   5.462   5.919 -0.1941 -0.5324  0.1386
  138MOL0     N18546   4.035   5.375   5.883 -0.2785  0.4829 -0.4841
  138MOL0     C18547   4.598   4.334   5.340 -0.2588  0.2333 -1.2237
  138MOL0     C18548   4.716   4.263   5.354 -0.5773 -0.1612 -0.4119
  138MOL0     C18549   5.167   4.249   5.404 -0.4053  0.0564  0.0849
  138MOL0     C18550   5.160   4.129   5.339  0.3247  0.3597 -0.1353
  138MOL0     C18551   5.270   4.052   5.319 -0.4953  0.3340 -1.0765
  138MOL0     C18552   5.403   4.092   5.369  0.6639  0.2434  0.0405
  138MOL0     O18553   5.514   4.013   5.387 -0.4932 -0.2182  0.6617
  138MOL0     C18554   5.554   3.925   5.271  0.4046 -0.5718  0.5879
  138MOL0     C18555   5.590   3.792   5.341  0.3939 -0.1259 -0.1488
  138MOL0     C18556   5.675   3.704   5.242 -0.1303  0.5008  1.0966
  138MOL0     C18557   5.653   3.554   5.279  0.1217 -0.9662  0.8688
  138MOL0     C18558   5.737   3.479   5.202 -0.3497 -0.5619 -0.0359
  138MOL0     C18559   5.810   3.398   5.148 -0.1197  0.8171  0.2871
  138MOL0     C18560   5.413   4.214   5.423  0.2131  0.6711 -0.1491
  138MOL0     C18561   5.297   4.294   5.438  0.0379  0.4471 -0.3625
  138MOL0     C18562   5.317   4.417   5.519  0.2094  0.0014  0.3869
  138MOL0     H18563   4.835   4.429   5.634 -1.6966  0.4281  1.2039
  138MOL0     H18564   4.649   4.565   5.590  3.1884  0.6727 -0.3540
  138MOL0     H18565   4.279   4.602   5.462 -0.0856 -1.6767  0.0450
  138MOL0     H18566   4.382   4.532   5.580 -1.7090 -3.7103 -1.4681
  138MOL0     H18567   4.456   4.781   5.397  0.3728  0.0932 -0.3565
  138MOL0     H18568   4.534   4.737   5.559 -1.2299  2.5438  0.3825
  138MOL0     H18569   4.333   4.794   5.668  1.1181  0.5609  1.0932
  138MOL0     H18570   4.245   4.803   5.517  1.4815 -5.6681  0.0594
  138MOL0     H18571   4.492   4.969   5.611  0.9120  1.9807  0.0244
  138MOL0     H18572   4.410   5.014   5.460  0.9031  2.1988  2.0319
  138MOL0     H18573   4.318   5.059   5.752  0.4136  0.1041 -0.5292
  138MOL0     H18574   4.339   5.167   5.619  2.2473 -0.8251 -2.3789
  138MOL0     H18575   4.146   5.043   5.500  1.5466  0.3979 -0.3405
  138MOL0     H18576   4.127   4.938   5.642  0.1566  1.0615  1.5155
  138MOL0     H18577   3.965   5.118   5.649 -0.5456  0.2056  0.6966
  138MOL0     H18578   4.101   5.238   5.652 -0.8977  0.5974  1.3475
  138MOL0     H18579   3.999   5.046   5.872  0.9606  0.8687 -1.2046
  138MOL0     H18580   4.154   5.128   5.885  0.6186 -3.6449 -2.0279
  138MOL0     H18581   3.773   5.185   5.948 -1.9852  1.6287 -3.7901
  138MOL0     H18582   3.705   5.424   6.114  2.4786  1.2557  0.9495
  138MOL0     H18583   3.723   5.569   6.024 -1.6497  0.2809  0.0604
  138MOL0     H18584   3.571   5.330   5.903 -1.0016  0.1217 -1.3928
  138MOL0     H18585   3.505   5.439   6.005 -0.0264 -2.3824 -0.9571
  138MOL0     H18586   3.596   5.625   5.829  0.1434  0.0189 -1.2742
  138MOL0     H18587   3.468   5.530   5.784  0.0189 -3.0410 -2.2632
  138MOL0     H18588   3.766   5.449   5.714  0.9968  2.1009 -3.0584
  138MOL0     H18589   3.644   5.530   5.613 -1.1420 -0.4287 -0.9097
  138MOL0     H18590   3.709   5.111   5.705 -0.7375 -1.6764 -0.6771
  138MOL0     H18591   3.812   4.967   5.560 -1.3052  1.0973  3.5234
  138MOL0     H18592   4.186   4.921   5.262  1.5168 -0.4320  0.7748
  138MOL0     H18593   4.315   4.703   5.195  0.4645  1.9085 -0.2539
  138MOL0     H18594   4.380   4.518   5.148 -0.5208 -1.2146  0.4598
  138MOL0     H18595   4.352   4.366   5.069 -0.4794 -0.2848  0.1418
  138MOL0     H18596   4.231   4.532   4.868  2.1426  0.2149 -2.3683
  138MOL0     H18597   4.347   4.649   4.932  2.0272  0.7654 -3.8649
  138MOL0     H18598   4.541   4.517   4.884 -0.3801  0.9378 -0.7121
  138MOL0     H18599   4.451   4.381   4.864  0.1695 -0.4562 -0.4652
  138MOL0     H18600   4.405   4.629   4.675  3.0804  1.6823 -4.6824
  138MOL0     H18601   4.361   4.473   4.634 -1.3249  2.8218  0.4500
  138MOL0     H18602   4.557   4.527   4.514  0.4972  1.5734  0.1482
  138MOL0     H18603   4.608   4.406   4.633  0.1644  0.1830 -2.5315
  138MOL0     H18604   4.733   4.575   4.774  0.5216  2.8599  0.7776
  138MOL0     H18605   4.769   4.526   4.615 -0.9030 -1.5869  1.5611
  138MOL0     H18606   4.753   4.781   4.699 -1.5113  0.6677  1.3469
  138MOL0     H18607   4.591   4.777   4.647  0.5068 -1.3580  3.3657
  138MOL0     H18608   4.632   4.707   4.423  1.0577 -1.8542 -0.0891
  138MOL0     H18609   4.725   4.851   4.454 -4.3478 -0.0131 -2.9748
  138MOL0     H18610   3.946   4.493   5.182  0.0377 -0.9525  4.4387
  138MOL0     H18611   3.828   4.694   5.255 -0.8543 -2.5261 -2.5979
  138MOL0     H18612   3.757   5.249   5.235 -1.6265  0.3179  0.0939
  138MOL0     H18613   3.644   5.395   5.394 -0.5559 -0.4417 -1.4715
  138MOL0     H18614   4.542   4.308   5.250 -1.9861  0.7010 -0.3246
  138MOL0     H18615   4.731   4.189   5.276 -1.1264  0.4457 -1.1093
  138MOL0     H18616   5.066   4.086   5.306  0.6196  0.6402 -1.4083
  138MOL0     H18617   5.260   3.956   5.270 -0.4476 -0.5060  0.4740
  138MOL0     H18618   5.643   3.970   5.226  0.6445 -0.6399  0.9946
  138MOL0     H18619   5.479   3.917   5.191  2.1535 -0.0142 -1.1772
  138MOL0     H18620   5.495   3.739   5.351  1.1839 -1.9712 -1.9462
  138MOL0     H18621   5.649   3.806   5.432 -2.6407  0.6544  1.8896
  138MOL0     H18622   5.782   3.725   5.234  0.6315 -1.6547  4.0320
  138MOL0     H18623   5.628   3.724   5.145  1.8824 -1.2179 -0.3300
  138MOL0     H18624   5.667   3.553   5.388 -1.1109  0.4663  1.0825
  138MOL0     H18625   5.550   3.524   5.261  0.3024 -0.5766 -1.0141
  138MOL0     H18626   5.882   3.338   5.095 -2.3121  0.5468 -2.6471
  138MOL0     H18627   5.514   4.234   5.458  0.2561 -1.2818  1.0055
  138MOL0     H18628   5.419   4.451   5.500  1.0001 -2.6965 -0.6347
  138MOL0     H18629   5.245   4.497   5.503 -1.0659 -1.4997 -1.9809
  138MOL0     H18630   5.312   4.391   5.625  0.9027 -2.4245 -0.1127
  139MOL0     O18631   2.729   3.662   8.656 -0.2773 -0.0248  1.0658
  139MOL0     C18632   2.635   3.600   8.691  0.1946  0.4581 -0.0133
  139MOL0     O18633   2.510   3.600   8.644 -0.4114 -0.4163  0.3061
  139MOL0     C18634   2.466   3.716   8.582  0.1696  0.1390 -0.1968
  139MOL0     C18635   2.516   3.758   8.461 -0.4351 -0.4318  0.3011
  139MOL0     C18636   2.474   3.874   8.394  0.1566  0.1144 -0.4154
  139MOL0     C18637   2.381   3.956   8.456  0.0828  0.0127  0.3521
  139MOL0     O18638   2.339   4.077   8.405  0.2760  0.3234  0.4174
  139MOL0     C18639   2.431   4.146   8.323 -0.0076 -0.1029 -0.0885
  139MOL0     C18640   2.387   4.292   8.332  0.1335 -0.2195 -0.0392
  139MOL0     C18641   2.517   4.368   8.362 -0.1802  0.1993 -0.0000
  139MOL0     C18642   2.478   4.517   8.380 -0.4005  0.5168 -0.0889
  139MOL0     C18643   2.602   4.598   8.390 -0.1580  0.2598  0.3138
  139MOL0     C18644   2.680   4.588   8.522 -0.8418  1.2403  0.3123
  139MOL0     C18645   2.605   4.612   8.651 -0.6880  0.8621 -0.0162
  139MOL0     C18646   2.647   4.755   8.689 -0.2153  0.0346 -0.9578
  139MOL0     N18647   2.571   4.792   8.817  1.4234  0.8947  0.2702
  139MOL0     C18648   2.599   4.906   8.887  0.0683  0.6800 -0.5144
  139MOL0     C18649   2.531   4.892   9.005 -0.6469 -0.2846 -0.3175
  139MOL0     C18650   2.555   4.980   9.121  0.9651 -0.3901 -0.2550
  139MOL0     C18651   2.420   5.000   9.199 -0.2249 -0.2849  0.0489
  139MOL0     C18652   2.427   4.988   9.359  0.4884 -0.1622 -0.8082
  139MOL0     C18653   2.438   4.850   9.410  0.8716  0.5800  0.2520
  139MOL0     O18654   2.576   4.804   9.409  0.3471 -1.4846 -0.6266
  139MOL0     C18655   2.603   4.672   9.421  0.9158 -0.1753  0.7201
  139MOL0     C18656   2.736   4.633   9.427  0.4764 -0.5684 -0.1452
  139MOL0     C18657   2.781   4.505   9.464  0.5509 -0.2558 -0.5918
  139MOL0     C18658   2.691   4.397   9.487  0.5915 -0.7389  0.8799
  139MOL0     C18659   2.746   4.256   9.496  0.5200 -0.3112 -0.4226
  139MOL0     O18660   2.879   4.254   9.504  0.2600  0.1154 -0.1966
  139MOL0     C18661   2.950   4.140   9.520 -0.0575  0.4242 -0.4335
  139MOL0     C18662   3.025   4.083   9.413  1.0752 -0.6413  0.2864
  139MOL0     C18663   3.087   3.957   9.421  0.3410  0.2386  1.3007
  139MOL0     C18664   3.065   3.885   9.535  0.2926 -0.8932  0.8042
  139MOL0     O18665   3.110   3.754   9.535 -0.5159  0.7359 -0.3162
  139MOL0     C18666   3.006   3.665   9.487  0.0195  0.5940  0.5561
  139MOL0     C18667   3.052   3.590   9.354 -0.1263 -0.3687  1.2154
  139MOL0     C18668   3.190   3.517   9.360 -0.2181 -0.4124 -0.7762
  139MOL0     C18669   3.185   3.403   9.476  0.0237 -0.5074 -0.2948
  139MOL0     C18670   3.323   3.331   9.477 -0.9321 -0.0143 -0.0090
  139MOL0     C18671   3.321   3.210   9.566  0.9482  0.4995  0.3791
  139MOL0     C18672   3.457   3.162   9.617 -0.1465  0.0660 -0.3393
  139MOL0     C18673   3.543   3.114   9.512 -0.3582  0.6412 -0.7105
  139MOL0    Cl18674   3.695   3.030   9.575 -0.0900 -0.2249  0.1208
  139MOL0     C18675   2.980   3.936   9.639 -0.6768 -0.2538  0.1262
  139MOL0     C18676   2.941   4.074   9.636  0.2622  1.3526  0.5308
  139MOL0     O18677   2.664   4.167   9.483 -0.8068 -0.0898  0.7723
  139MOL0     C18678   2.552   4.424   9.479  0.7545 -1.0492 -0.7982
  139MOL0     C18679   2.514   4.565   9.450 -0.2901  0.7998 -0.6954
  139MOL0     N18680   2.479   4.763   9.005  0.1091  0.1779  0.0677
  139MOL0     N18681   2.499   4.710   8.888 -0.1704  0.7341 -0.8166
  139MOL0     C18682   2.315   3.903   8.564 -0.2537 -0.7434 -0.3448
  139MOL0     C18683   2.354   3.786   8.631 -1.3598  0.7912  0.6140
  139MOL0     C18684   2.663   3.516   8.809 -0.1070  0.0521  0.4760
  139MOL0     C18685   2.793   3.494   8.848 -0.9868  0.4172  0.1565
  139MOL0     C18686   2.831   3.435   8.972 -0.2444  0.3112  0.2931
  139MOL0     C18687   2.739   3.389   9.064  0.3851  0.9532  0.0612
  139MOL0     O18688   2.802   3.336   9.171 -0.5080  0.5122  0.2256
  139MOL0     C18689   2.715   3.295   9.278  0.2086  0.6851 -0.1054
  139MOL0     C18690   2.686   3.144   9.289  0.7189  0.2629 -0.0096
  139MOL0     C18691   2.610   3.096   9.162  0.4853  0.0765  0.4775
  139MOL0     C18692   2.623   2.948   9.131  0.1121  0.3900 -0.4077
  139MOL0     C18693   2.766   2.917   9.102 -0.1561 -0.0242 -0.0394
  139MOL0     C18694   2.883   2.879   9.069  0.2091 -0.9092  0.1054
  139MOL0     C18695   2.607   3.408   9.032  0.1959 -0.0935 -0.6537
  139MOL0     C18696   2.572   3.476   8.915 -0.0142 -0.7056 -0.2099
  139MOL0     C18697   2.428   3.523   8.912  0.6293  0.6917 -0.1913
  139MOL0     H18698   2.606   3.710   8.426 -2.1007 -3.7087  0.1464
  139MOL0     H18699   2.527   3.906   8.305  1.3796  7.4086  2.2036
  139MOL0     H18700   2.532   4.132   8.362 -0.0030  0.7836  0.2367
  139MOL0     H18701   2.420   4.111   8.220 -0.9377  3.0900 -1.1860
  139MOL0     H18702   2.317   4.311   8.414 -1.2489  1.6220 -1.5736
  139MOL0     H18703   2.339   4.321   8.238 -1.9435  4.4433  2.1593
  139MOL0     H18704   2.583   4.358   8.275 -2.0782  0.3800 -1.5340
  139MOL0     H18705   2.563   4.334   8.455 -2.2074 -1.8946  0.3082
  139MOL0     H18706   2.413   4.553   8.300 -0.0520 -1.7997 -1.5266
  139MOL0     H18707   2.430   4.518   8.478  3.1428 -2.8528  1.9903
  139MOL0     H18708   2.666   4.568   8.307 -2.3107 -2.3462 -0.5396
  139MOL0     H18709   2.566   4.701   8.379 -1.5633 -0.0643  1.5230
  139MOL0     H18710   2.703   4.481   8.529  0.2726  1.3034 -1.6601
  139MOL0     H18711   2.770   4.649   8.515  1.5312 -1.8982  1.0736
  139MOL0     H18712   2.640   4.545   8.730  2.8643  0.8841 -1.3849
  139MOL0     H18713   2.497   4.607   8.633 -0.9847 -1.2324  1.8994
  139MOL0     H18714   2.754   4.776   8.697 -0.6058  1.2755  3.3138
  139MOL0     H18715   2.619   4.832   8.616  3.3654  1.7962 -0.6817
  139MOL0     H18716   2.679   4.973   8.858 -0.6226  1.2057 -1.2388
  139MOL0     H18717   2.629   4.930   9.184  1.6801  0.3142 -0.5264
  139MOL0     H18718   2.594   5.080   9.102  0.7158  0.1787  1.9859
  139MOL0     H18719   2.376   5.096   9.167 -1.6508 -0.5926  0.9793
  139MOL0     H18720   2.344   4.928   9.165 -2.6548  1.7963  0.7134
  139MOL0     H18721   2.342   5.041   9.405  1.1631 -0.4669  0.8651
  139MOL0     H18722   2.510   5.053   9.387  0.1641  0.1927 -0.6483
  139MOL0     H18723   2.378   4.782   9.349  1.2755  1.0498 -0.6913
  139MOL0     H18724   2.390   4.841   9.508  2.3993  0.3762  1.0300
  139MOL0     H18725   2.811   4.709   9.411 -0.5898  0.7420  0.8990
  139MOL0     H18726   2.888   4.492   9.473  0.1343 -4.8094  0.3592
  139MOL0     H18727   3.027   4.130   9.315 -1.3815 -1.8523 -0.4215
  139MOL0     H18728   3.163   3.934   9.347 -0.2675  0.6534  0.5265
  139MOL0     H18729   2.991   3.593   9.568  0.0141  1.5818  1.4516
  139MOL0     H18730   2.914   3.723   9.478 -0.6331 -0.5236 -0.2742
  139MOL0     H18731   2.965   3.534   9.319 -1.5707  3.2695 -1.7212
  139MOL0     H18732   3.068   3.661   9.272 -1.2460  0.5722  1.7882
  139MOL0     H18733   3.216   3.468   9.266 -1.2889 -2.2327 -0.1624
  139MOL0     H18734   3.270   3.590   9.377  0.3861 -1.2694  0.1048
  139MOL0     H18735   3.101   3.335   9.459 -1.2136 -0.2898  3.9462
  139MOL0     H18736   3.152   3.443   9.572  0.1811  0.1805 -0.5188
  139MOL0     H18737   3.400   3.402   9.508 -0.2543 -1.9208  3.1093
  139MOL0     H18738   3.349   3.289   9.379  2.8816 -2.8011  1.9195
  139MOL0     H18739   3.250   3.225   9.648 -1.0927  1.4727 -1.4571
  139MOL0     H18740   3.265   3.135   9.509  3.3125 -2.4871  1.7313
  139MOL0     H18741   3.444   3.079   9.687  4.0091 -1.0940 -0.7179
  139MOL0     H18742   3.498   3.250   9.668  0.0421  0.0616 -0.4822
  139MOL0     H18743   3.502   3.039   9.444  0.4329 -0.7067  0.2511
  139MOL0     H18744   3.579   3.199   9.452  2.1420 -0.7255 -1.2924
  139MOL0     H18745   2.957   3.892   9.735  1.7867  4.0684  3.0525
  139MOL0     H18746   2.890   4.120   9.719 -0.8130  0.6806  0.2612
  139MOL0     H18747   2.479   4.344   9.480 -0.5776  0.0811  2.4090
  139MOL0     H18748   2.406   4.577   9.449 -0.2760  1.1401  0.3567
  139MOL0     H18749   2.233   3.956   8.612  2.1742  1.6977  1.4263
  139MOL0     H18750   2.306   3.759   8.725  1.0661 -1.3758  1.3560
  139MOL0     H18751   2.876   3.521   8.784 -2.0814 -0.2721 -1.6115
  139MOL0     H18752   2.940   3.434   8.970 -0.2272 -1.1541  0.7706
  139MOL0     H18753   2.618   3.344   9.270 -0.4658 -0.7133 -0.8545
  139MOL0     H18754   2.763   3.328   9.371 -1.0256 -3.3852  2.2142
  139MOL0     H18755   2.611   3.127   9.368  0.9801  3.2441  1.0024
  139MOL0     H18756   2.780   3.088   9.287  0.7383  0.3269 -2.0811
  139MOL0     H18757   2.647   3.160   9.082  1.0512 -0.8031  0.0276
  139MOL0     H18758   2.502   3.105   9.182 -0.2154 -2.4324 -1.5362
  139MOL0     H18759   2.579   2.899   9.218 -2.5461  2.4100 -0.4778
  139MOL0     H18760   2.564   2.924   9.042 -0.0208  1.6272 -0.6742
  139MOL0     H18761   2.985   2.855   9.049  1.5499  1.7175  2.9464
  139MOL0     H18762   2.527   3.374   9.097  0.6536 -1.8523 -0.9401
  139MOL0     H18763   2.370   3.452   8.852 -0.0243 -1.7080  2.9917
  139MOL0     H18764   2.379   3.500   9.008  0.9418 -1.7105 -0.5305
  139MOL0     H18765   2.410   3.624   8.877 -4.1147 -0.0237 -0.5165
  140MOL0     O18766   5.753   9.387   1.623 -0.2422 -0.2120 -0.2245
  140MOL0     C18767   5.696   9.463   1.698  0.2032  0.8423  0.1882
  140MOL0     O18768   5.698   9.462   1.831 -0.1205 -0.0068 -0.4838
  140MOL0     C18769   5.813   9.400   1.880 -0.2228  0.0664 -0.4452
  140MOL0     C18770   5.825   9.256   1.888 -0.1137 -0.9053 -0.4569
  140MOL0     C18771   5.938   9.202   1.949 -0.4096  0.6945 -0.6872
  140MOL0     C18772   6.047   9.280   1.986  0.0480 -0.4508 -0.6234
  140MOL0     O18773   6.167   9.220   2.021 -0.0028  1.1112  0.6618
  140MOL0     C18774   6.283   9.292   2.059  0.7615  0.1990 -0.5314
  140MOL0     C18775   6.407   9.203   2.057  0.4989 -0.0296  0.5117
  140MOL0     C18776   6.477   9.181   1.921 -0.9458  0.3498  0.6599
  140MOL0     C18777   6.381   9.083   1.848  0.7532  0.0975  0.6724
  140MOL0     C18778   6.457   8.975   1.783 -0.3482  0.5162 -0.1446
  140MOL0     C18779   6.555   9.022   1.672  0.2787 -0.1730  0.2565
  140MOL0     C18780   6.612   8.890   1.618  0.0202 -0.1976  0.6275
  140MOL0     C18781   6.701   8.918   1.497  0.4233  1.6621  0.1469
  140MOL0     N18782   6.718   8.776   1.447  0.8032 -0.1930  0.3325
  140MOL0     C18783   6.693   8.734   1.318 -0.7332 -0.1321 -0.2128
  140MOL0     C18784   6.754   8.622   1.307  0.1812 -0.2118 -0.2486
  140MOL0     C18785   6.764   8.527   1.193  0.0409  0.1211 -0.0493
  140MOL0     C18786   6.822   8.595   1.066 -0.3746  0.2657  0.6755
  140MOL0     C18787   6.975   8.565   1.050  0.4893 -0.7813  0.1051
  140MOL0     C18788   7.052   8.696   1.086 -0.3155 -0.1564  0.0596
  140MOL0     O18789   7.192   8.682   1.074 -0.2554 -0.1618 -0.6144
  140MOL0     C18790   7.281   8.786   1.092 -0.4449 -0.4524  0.1208
  140MOL0     C18791   7.241   8.917   1.122 -0.4931 -0.6266 -0.2302
  140MOL0     C18792   7.341   9.015   1.154  0.0047 -0.1997  0.0767
  140MOL0     C18793   7.478   8.988   1.162  0.1984 -0.2242  0.1008
  140MOL0     C18794   7.576   9.091   1.224  0.2426  0.3054  0.2694
  140MOL0     O18795   7.704   9.062   1.212 -0.7918 -1.1358  0.1698
  140MOL0     C18796   7.791   9.169   1.222  0.1984  0.5208  0.4707
  140MOL0     C18797   7.807   9.268   1.116 -0.5331 -0.0164 -0.2091
  140MOL0     C18798   7.903   9.371   1.129  0.2536 -1.1916 -0.3282
  140MOL0     C18799   7.981   9.390   1.252  0.6603 -0.1364 -0.0339
  140MOL0     O18800   8.063   9.492   1.287  0.4366 -0.2427 -0.0361
  140MOL0     C18801   8.042   9.614   1.219  0.9748  0.4408  0.4816
  140MOL0     C18802   8.075   9.730   1.301 -0.4460  0.4588 -0.5481
  140MOL0     C18803   8.061   9.864   1.232  0.1439  0.3199 -0.2362
  140MOL0     C18804   7.938   9.906   1.154  0.3145  0.7002 -0.0964
  140MOL0     C18805   7.943  10.044   1.099 -0.1707 -0.9160  0.6562
  140MOL0     C18806   8.066  10.081   1.009  0.3289  0.8010  0.4358
  140MOL0     C18807   8.054  10.004   0.876  0.6979  0.6335  0.5625
  140MOL0     C18808   8.173  10.037   0.780 -0.3650 -0.0268 -0.2927
  140MOL0    Cl18809   8.153   9.935   0.640 -0.4459  0.1992  0.0510
  140MOL0     C18810   7.972   9.288   1.346 -0.0876  0.7893 -0.8592
  140MOL0     C18811   7.872   9.183   1.336 -0.1944 -0.3557  0.3321
  140MOL0     O18812   7.528   9.196   1.268  0.0051  0.4742  0.0511
  140MOL0     C18813   7.522   8.857   1.114  0.3540 -0.6224  0.3497
  140MOL0     C18814   7.422   8.759   1.079 -0.0705  0.2331  0.5983
  140MOL0     N18815   6.815   8.578   1.419  0.3531  0.8980 -0.1936
  140MOL0     N18816   6.784   8.671   1.507 -0.3326  0.2891 -0.0268
  140MOL0     C18817   6.022   9.427   1.991 -0.2293  0.1732  0.7043
  140MOL0     C18818   5.908   9.481   1.938 -0.2016  0.1048  0.6459
  140MOL0     C18819   5.613   9.587   1.656 -0.3684  0.3213  0.4461
  140MOL0     C18820   5.566   9.674   1.755 -0.4978  0.3520  0.2908
  140MOL0     C18821   5.462   9.767   1.735 -0.8026  0.2888 -0.5094
  140MOL0     C18822   5.421   9.789   1.609 -0.4542 -0.6677 -0.1145
  140MOL0     O18823   5.348   9.897   1.565 -0.5004 -0.1352 -0.5277
  140MOL0     C18824   5.242   9.947   1.652  0.1973 -0.2513  0.4090
  140MOL0     C18825   5.175  10.076   1.593  0.1386 -0.9116 -0.9796
  140MOL0     C18826   5.071  10.033   1.484  1.1694  1.0306  0.4438
  140MOL0     C18827   5.005  10.149   1.406 -0.2634 -0.6645  0.0696
  140MOL0     C18828   4.936  10.237   1.498 -1.0460 -0.5857 -0.4211
  140MOL0     C18829   4.871  10.294   1.592  1.2851  0.8622  0.2116
  140MOL0     C18830   5.475   9.723   1.498 -0.9250 -0.7546 -0.9127
  140MOL0     C18831   5.575   9.624   1.519  1.3089 -0.3183 -0.2950
  140MOL0     C18832   5.647   9.562   1.401  0.4555  0.5099  0.6003
  140MOL0     H18833   5.739   9.197   1.857 -2.0957 -1.6373  5.1902
  140MOL0     H18834   5.940   9.094   1.957 -1.1682  0.7840  1.1540
  140MOL0     H18835   6.289   9.374   1.988 -2.2657 -2.2715 -3.9897
  140MOL0     H18836   6.247   9.341   2.150 -2.8248  1.3580 -2.4011
  140MOL0     H18837   6.387   9.119   2.124 -1.6096  1.1415  1.4516
  140MOL0     H18838   6.480   9.270   2.103  1.5598  1.4331 -2.9492
  140MOL0     H18839   6.571   9.127   1.936 -0.7707  0.1417 -0.9943
  140MOL0     H18840   6.483   9.269   1.857 -0.7807 -0.1038  0.0450
  140MOL0     H18841   6.313   9.027   1.913  2.8657 -4.4984 -0.6291
  140MOL0     H18842   6.322   9.132   1.770  1.9512  1.6107  0.6736
  140MOL0     H18843   6.496   8.909   1.860 -2.0222  0.7904  0.9829
  140MOL0     H18844   6.383   8.912   1.733  1.5106  0.6809 -3.4518
  140MOL0     H18845   6.493   9.067   1.595 -1.1125 -2.8974 -0.3431
  140MOL0     H18846   6.627   9.094   1.712  0.8974 -0.5845 -0.0978
  140MOL0     H18847   6.540   8.816   1.582  0.0470  1.0847 -2.3052
  140MOL0     H18848   6.669   8.839   1.697  1.7371  1.9274  0.8541
  140MOL0     H18849   6.655   8.972   1.414  0.0768 -0.6977 -1.3144
  140MOL0     H18850   6.797   8.962   1.523  0.8338  2.5761 -2.5750
  140MOL0     H18851   6.646   8.798   1.245 -0.1657  0.3362 -0.1803
  140MOL0     H18852   6.822   8.441   1.229 -0.1445 -0.2567 -0.6529
  140MOL0     H18853   6.659   8.504   1.173 -0.8359  0.8864  3.0042
  140MOL0     H18854   6.768   8.554   0.980 -0.4023  1.0134  0.3345
  140MOL0     H18855   6.799   8.702   1.068  0.9526  0.6180 -0.8972
  140MOL0     H18856   7.001   8.529   0.950 -1.4764 -0.8417 -0.4274
  140MOL0     H18857   7.009   8.477   1.105 -1.7527 -1.4558  0.5269
  140MOL0     H18858   7.020   8.724   1.187  2.8528  0.4259  0.9916
  140MOL0     H18859   7.011   8.775   1.022  0.2804  1.1438  1.2398
  140MOL0     H18860   7.137   8.942   1.140 -0.6318 -3.6016  5.0230
  140MOL0     H18861   7.298   9.110   1.185 -0.3387  0.3701 -2.0114
  140MOL0     H18862   7.741   9.263   1.030 -1.0246 -0.8485  0.2081
  140MOL0     H18863   7.910   9.445   1.051  0.5338 -0.4089  0.4187
  140MOL0     H18864   8.092   9.617   1.122  0.3942 -1.1442  0.0877
  140MOL0     H18865   7.937   9.630   1.196  0.9318  0.1200  0.4512
  140MOL0     H18866   8.018   9.730   1.395  1.2329 -3.7939  0.6709
  140MOL0     H18867   8.183   9.726   1.312 -0.1613  1.8693 -2.2891
  140MOL0     H18868   8.065   9.942   1.308 -4.3646  2.7038 -2.1089
  140MOL0     H18869   8.144   9.877   1.162 -0.6341 -0.2308 -1.2856
  140MOL0     H18870   7.850   9.912   1.219  1.0473 -0.1530  1.0061
  140MOL0     H18871   7.914   9.844   1.067 -1.0253 -0.6872  1.2113
  140MOL0     H18872   7.933  10.126   1.171 -4.2363 -0.6423  0.0201
  140MOL0     H18873   7.855  10.052   1.035  1.6983  0.3170 -1.9604
  140MOL0     H18874   8.070  10.190   1.009  1.1305  0.7728  1.0894
  140MOL0     H18875   8.169  10.060   1.040 -0.0572  1.9113  2.6815
  140MOL0     H18876   7.963  10.039   0.827  0.5239  2.4079  2.0517
  140MOL0     H18877   8.051   9.896   0.895 -0.5550  0.2248 -1.6233
  140MOL0     H18878   8.154  10.141   0.754  2.3211  0.8956  1.0856
  140MOL0     H18879   8.264  10.019   0.837 -2.0726 -0.7158  2.3891
  140MOL0     H18880   8.042   9.290   1.429 -0.0293 -2.3089 -0.7128
  140MOL0     H18881   7.855   9.117   1.421 -2.1974 -0.3235  0.0166
  140MOL0     H18882   7.627   8.829   1.124  0.5097  0.5048  2.4672
  140MOL0     H18883   7.459   8.662   1.046 -2.4991 -1.0810  1.5316
  140MOL0     H18884   6.104   9.494   2.014  2.4132 -2.6988  0.3290
  140MOL0     H18885   5.894   9.588   1.945 -1.6537  0.3678 -3.4726
  140MOL0     H18886   5.609   9.658   1.853  3.7556 -1.4498 -1.6194
  140MOL0     H18887   5.429   9.827   1.820 -0.7361 -0.5068  0.0863
  140MOL0     H18888   5.300   9.985   1.736  1.3833 -0.5196 -0.2706
  140MOL0     H18889   5.165   9.871   1.670 -0.5267  0.1222 -0.9722
  140MOL0     H18890   5.252  10.144   1.556 -1.6105  0.9231 -1.4602
  140MOL0     H18891   5.120  10.132   1.670  1.7309  0.7586 -0.9874
  140MOL0     H18892   4.990   9.973   1.525  0.8219 -0.4218 -2.1418
  140MOL0     H18893   5.125   9.981   1.403  1.8959  0.5144  1.2481
  140MOL0     H18894   5.092  10.207   1.373  0.9192 -0.8309  2.6471
  140MOL0     H18895   4.936  10.116   1.329 -2.5825  3.4574  0.1135
  140MOL0     H18896   4.809  10.327   1.673 -1.8317  1.3049 -2.1734
  140MOL0     H18897   5.444   9.748   1.397  1.4796  0.8499 -1.3257
  140MOL0     H18898   5.614   9.459   1.383 -2.2026  1.3714  0.1352
  140MOL0     H18899   5.633   9.615   1.306 -0.9461  0.2493  0.6474
  140MOL0     H18900   5.755   9.560   1.420  0.5599 -0.0375  0.0230
  141MOL0     O18901   8.690  10.649   3.223  0.4050  0.2206  0.3250
  141MOL0     C18902   8.802  10.695   3.213  0.0274 -0.5994 -0.4093
  141MOL0     O18903   8.915  10.629   3.244  0.0803  0.1698  0.1402
  141MOL0     C18904   8.912  10.492   3.250 -0.7268  0.4080 -0.9420
  141MOL0     C18905   8.826  10.412   3.328 -0.3382  0.4078 -0.9822
  141MOL0     C18906   8.824  10.275   3.334 -0.5727 -0.2373  1.1636
  141MOL0     C18907   8.913  10.208   3.249  0.5172  0.7624  0.0058
  141MOL0     O18908   8.914  10.070   3.234 -0.4087  0.2421  0.6084
  141MOL0     C18909   8.840   9.986   3.323 -1.4577 -0.1792 -0.3699
  141MOL0     C18910   8.837   9.832   3.297  0.0161  0.0311  0.2208
  141MOL0     C18911   8.971   9.771   3.322 -0.7302  0.2066  0.5779
  141MOL0     C18912   8.989   9.617   3.313 -1.0756  0.0488 -0.4316
  141MOL0     C18913   9.127   9.554   3.341  0.3097 -0.2735  0.3696
  141MOL0     C18914   9.116   9.402   3.314 -1.0790  0.5470  0.9687
  141MOL0     C18915   9.261   9.340   3.307  0.6578 -0.5620 -0.7349
  141MOL0     C18916   9.314   9.279   3.440  0.6120 -0.2049  0.4679
  141MOL0     N18917   9.237   9.166   3.481  0.3062  0.2166 -0.1636
  141MOL0     C18918   9.122   9.182   3.561  0.0616  0.4933 -0.5909
  141MOL0     C18919   9.080   9.051   3.579 -1.3171 -0.1047 -0.3508
  141MOL0     C18920   8.978   9.009   3.671  0.1817 -0.3634  0.1048
  141MOL0     C18921   9.044   8.991   3.805  0.1288  0.2273  0.1728
  141MOL0     C18922   8.940   8.959   3.915 -0.1807  0.1713 -0.2200
  141MOL0     C18923   8.983   8.854   4.026  0.1745 -0.4653 -0.3328
  141MOL0     O18924   8.870   8.772   4.063 -0.4671  0.4387  0.4678
  141MOL0     C18925   8.763   8.823   4.125 -0.8532  0.6399  0.4853
  141MOL0     C18926   8.751   8.951   4.190 -0.3938 -0.3289 -0.1836
  141MOL0     C18927   8.633   8.978   4.263  0.8420 -0.6640 -0.1713
  141MOL0     C18928   8.527   8.885   4.261  0.1890 -0.0514 -1.2709
  141MOL0     C18929   8.408   8.918   4.340 -0.0455 -1.8057  0.0510
  141MOL0     O18930   8.422   8.967   4.481 -0.1570  0.1215  0.6747
  141MOL0     C18931   8.321   9.050   4.531  0.3947  0.2283 -0.4590
  141MOL0     C18932   8.248   9.146   4.462 -0.1163  0.6632 -0.2518
  141MOL0     C18933   8.148   9.213   4.532 -0.1555 -0.9907 -1.2832
  141MOL0     C18934   8.114   9.185   4.667 -0.4531 -0.9894 -0.2753
  141MOL0     O18935   8.020   9.242   4.741 -0.0166  0.1514 -0.6029
  141MOL0     C18936   7.892   9.195   4.763 -0.1086  0.3068 -1.1672
  141MOL0     C18937   7.789   9.296   4.730 -0.6524 -0.0822  0.0186
  141MOL0     C18938   7.787   9.326   4.586 -0.6317 -0.0775  0.1930
  141MOL0     C18939   7.860   9.457   4.556  0.3527  0.3129  1.0161
  141MOL0     C18940   7.839   9.487   4.400 -0.3970  0.1536 -0.5552
  141MOL0     C18941   7.690   9.512   4.351 -0.2193 -0.9150 -0.4356
  141MOL0     C18942   7.683   9.569   4.214 -0.0848  0.9476  0.6191
  141MOL0     C18943   7.545   9.583   4.158  0.6345 -0.6682  0.5356
  141MOL0    Cl18944   7.542   9.675   4.005 -0.5025 -0.1251  0.0643
  141MOL0     C18945   8.196   9.105   4.743 -0.1177 -0.1212  1.3970
  141MOL0     C18946   8.301   9.039   4.674  0.6543 -0.6307  0.5807
  141MOL0     O18947   8.300   8.888   4.295 -0.6188 -0.1040 -0.4271
  141MOL0     C18948   8.533   8.770   4.180 -0.6743 -1.0025 -1.2157
  141MOL0     C18949   8.649   8.741   4.117  0.3915  0.1582 -0.7089
  141MOL0     N18950   9.160   8.969   3.501 -0.5807 -0.5986 -0.6725
  141MOL0     N18951   9.251   9.042   3.443 -1.0060  0.4116 -0.4743
  141MOL0     C18952   8.999  10.278   3.174 -0.0041 -0.0339  0.2100
  141MOL0     C18953   9.010  10.417   3.181  0.3153  0.0512 -0.7873
  141MOL0     C18954   8.820  10.841   3.175 -0.6793 -0.1582 -0.1568
  141MOL0     C18955   8.926  10.917   3.231 -0.8395 -0.5804 -0.1412
  141MOL0     C18956   8.934  11.058   3.220 -0.6653 -0.3185 -0.2469
  141MOL0     C18957   8.837  11.126   3.148  0.2227 -0.1908  0.2049
  141MOL0     O18958   8.863  11.252   3.118 -0.1828  0.5029  0.2530
  141MOL0     C18959   8.789  11.308   3.011  0.8690  0.6996  0.8344
  141MOL0     C18960   8.847  11.446   2.957  0.2459 -0.4811 -0.2993
  141MOL0     C18961   8.761  11.504   2.862 -0.4177 -1.0995 -0.0273
  141MOL0     C18962   8.828  11.631   2.811  0.0180 -0.1777  0.7875
  141MOL0     C18963   8.754  11.665   2.688 -0.4947  1.2220  0.1544
  141MOL0     C18964   8.697  11.700   2.593 -0.7907  0.3628 -0.0004
  141MOL0     C18965   8.733  11.048   3.085  0.6910  0.7039  0.1105
  141MOL0     C18966   8.723  10.908   3.099 -0.3539  0.7113 -0.1311
  141MOL0     C18967   8.614  10.834   3.029 -0.2621 -0.8687 -0.2066
  141MOL0     H18968   8.743  10.457   3.382  0.7073  0.7104  0.4200
  141MOL0     H18969   8.748  10.222   3.392 -0.9813  0.3364  1.1577
  141MOL0     H18970   8.879  10.008   3.423 -1.5647  0.2534 -0.4227
  141MOL0     H18971   8.735  10.015   3.311 -1.8153 -1.0928  0.4040
  141MOL0     H18972   8.815   9.808   3.192  2.6792 -4.6459  0.4733
  141MOL0     H18973   8.763   9.792   3.367 -0.6193 -2.1291 -1.5756
  141MOL0     H18974   9.011   9.791   3.422 -1.5927 -3.1838  1.7374
  141MOL0     H18975   9.040   9.826   3.258  0.4409 -1.6034  0.1989
  141MOL0     H18976   8.906   9.563   3.360 -1.9527  0.3102 -1.6090
  141MOL0     H18977   8.981   9.595   3.206  2.1267 -0.5868 -0.6367
  141MOL0     H18978   9.201   9.603   3.276 -1.0488  2.8823  1.0259
  141MOL0     H18979   9.154   9.566   3.446 -4.5389 -2.3745  2.1356
  141MOL0     H18980   9.050   9.343   3.378 -0.7891 -1.8422 -0.8075
  141MOL0     H18981   9.070   9.404   3.214 -1.7937  3.4861  1.2393
  141MOL0     H18982   9.328   9.418   3.271  1.5801 -1.1664 -0.3597
  141MOL0     H18983   9.267   9.255   3.239 -2.3611 -2.0707  0.6760
  141MOL0     H18984   9.418   9.249   3.424  0.4630  0.2840 -1.8556
  141MOL0     H18985   9.310   9.355   3.519  0.6845  2.4205 -1.8994
  141MOL0     H18986   9.082   9.273   3.604  1.4950  0.1738  1.5348
  141MOL0     H18987   8.912   9.096   3.681  1.5625  1.1762 -2.8671
  141MOL0     H18988   8.926   8.918   3.640 -0.2721  0.5392 -1.9422
  141MOL0     H18989   9.109   8.903   3.797 -2.0645 -1.6740  1.7789
  141MOL0     H18990   9.099   9.080   3.835 -1.6327  1.7382 -0.8416
  141MOL0     H18991   8.847   8.910   3.884  0.4766 -1.6710  0.5674
  141MOL0     H18992   8.902   9.047   3.967 -1.8306  0.9158 -2.5265
  141MOL0     H18993   9.025   8.910   4.110 -1.1489  1.0397 -0.6256
  141MOL0     H18994   9.064   8.793   3.985  1.0178  0.2376  0.2416
  141MOL0     H18995   8.828   9.027   4.183 -0.4208 -0.4632 -3.8313
  141MOL0     H18996   8.621   9.074   4.313  0.1319 -1.9195  2.2266
  141MOL0     H18997   8.260   9.148   4.354 -1.1019 -1.9104 -0.4724
  141MOL0     H18998   8.084   9.286   4.483  1.2404  2.0999  1.1661
  141MOL0     H18999   7.882   9.092   4.728  0.9732 -0.2214 -0.0311
  141MOL0     H19000   7.890   9.181   4.872 -0.6090  0.4082 -1.1623
  141MOL0     H19001   7.695   9.263   4.774 -0.2743 -0.4677  0.5386
  141MOL0     H19002   7.817   9.382   4.792 -1.3155  1.6723 -1.9925
  141MOL0     H19003   7.840   9.249   4.529  1.8056  0.3460  1.7681
  141MOL0     H19004   7.684   9.333   4.548 -0.8837 -0.6678  0.7424
  141MOL0     H19005   7.967   9.454   4.574  1.0065  1.0379 -2.1143
  141MOL0     H19006   7.804   9.531   4.615 -0.7329 -0.6349  1.2318
  141MOL0     H19007   7.869   9.394   4.350 -1.4604 -0.1235 -0.7071
  141MOL0     H19008   7.903   9.572   4.376 -0.2624  0.1312 -0.2763
  141MOL0     H19009   7.633   9.421   4.369 -2.7775  0.8533  1.2060
  141MOL0     H19010   7.639   9.581   4.420 -0.2464 -1.6119  0.2528
  141MOL0     H19011   7.743   9.503   4.150  3.4953  3.3366  1.2252
  141MOL0     H19012   7.736   9.664   4.221 -1.5327  1.7267  1.3155
  141MOL0     H19013   7.510   9.479   4.150  0.1697 -0.4608 -0.2420
  141MOL0     H19014   7.486   9.632   4.236  1.8964 -1.0901  1.8044
  141MOL0     H19015   8.175   9.104   4.850 -0.6155 -0.0503  1.3043
  141MOL0     H19016   8.381   8.983   4.722  2.4439  0.5191 -0.9458
  141MOL0     H19017   8.449   8.709   4.148 -2.9743  2.6709 -2.7869
  141MOL0     H19018   8.666   8.660   4.047  0.0730 -1.0474  0.5701
  141MOL0     H19019   9.069  10.242   3.098  1.0677 -0.7163  1.4842
  141MOL0     H19020   9.076  10.478   3.121 -1.1060 -0.3042 -2.8566
  141MOL0     H19021   9.007  10.880   3.294 -0.9753 -0.1216  0.3129
  141MOL0     H19022   9.030  11.101   3.243  0.2772 -3.1385  1.5786
  141MOL0     H19023   8.683  11.319   3.037  0.5643 -2.5998  1.3634
  141MOL0     H19024   8.806  11.239   2.928  2.1387  1.0276  0.7945
  141MOL0     H19025   8.942  11.428   2.905 -0.1012  1.9194 -1.9391
  141MOL0     H19026   8.867  11.515   3.040 -0.8337 -0.3682 -0.1160
  141MOL0     H19027   8.672  11.538   2.915 -1.0187 -1.4118 -0.8172
  141MOL0     H19028   8.735  11.434   2.783  2.4934 -0.1401 -2.0246
  141MOL0     H19029   8.813  11.717   2.877 -1.5172  0.9681 -0.9599
  141MOL0     H19030   8.933  11.607   2.791 -0.1737 -0.1654 -0.3271
  141MOL0     H19031   8.645  11.730   2.505 -4.3802 -1.8023  1.1894
  141MOL0     H19032   8.656  11.093   3.023 -1.1369 -0.3148  1.5240
  141MOL0     H19033   8.525  10.820   3.092  1.5143 -0.8821  2.4599
  141MOL0     H19034   8.583  10.895   2.944 -2.6776  0.7710  1.7001
  141MOL0     H19035   8.643  10.732   3.001 -0.2604 -1.1911  0.8965
  142MOL0     O19036  11.203   9.834   8.271  0.2415  0.3480 -0.4005
  142MOL0     C19037  11.214   9.723   8.221  0.6375  0.7318 -1.1059
  142MOL0     O19038  11.138   9.674   8.117 -0.3485  0.9282 -0.7634
  142MOL0     C19039  11.074   9.768   8.042  0.9533  0.7347 -0.2698
  142MOL0     C19040  10.939   9.802   8.065  0.0366  0.4234 -1.0473
  142MOL0     C19041  10.870   9.888   7.983  0.2995  0.3517 -0.0067
  142MOL0     C19042  10.922   9.911   7.856 -0.1288 -1.0764  0.4708
  142MOL0     O19043  10.855   9.993   7.769  0.1650  0.6262  0.6313
  142MOL0     C19044  10.913  10.113   7.738 -0.4341 -0.3405 -0.0301
  142MOL0     C19045  10.804  10.220   7.754 -0.9893  0.7854 -0.5994
  142MOL0     C19046  10.668  10.198   7.688  0.2385 -0.1926 -0.9219
  142MOL0     C19047  10.577  10.329   7.729  0.1332 -0.0697 -0.1495
  142MOL0     C19048  10.434  10.326   7.673 -0.3563 -0.8020  0.8559
  142MOL0     C19049  10.338  10.217   7.733 -0.2061 -0.0039 -0.2539
  142MOL0     C19050  10.200  10.236   7.696  0.9471  0.3959 -0.0177
  142MOL0     C19051  10.168  10.194   7.548 -0.1118  0.5905 -0.6153
  142MOL0     N19052  10.027  10.205   7.509 -0.4100  0.1603  0.6504
  142MOL0     C19053   9.981  10.287   7.409 -0.4241 -0.1205  0.0269
  142MOL0     C19054   9.844  10.257   7.389 -1.3674 -0.0287 -0.1307
  142MOL0     C19055   9.747  10.317   7.295  1.1699  0.2702 -0.8117
  142MOL0     C19056   9.619  10.354   7.370 -0.6905  0.2192  0.3444
  142MOL0     C19057   9.615  10.493   7.436 -0.8368  0.1441 -0.1810
  142MOL0     C19058   9.482  10.530   7.498  0.4795  0.1793 -0.6048
  142MOL0     O19059   9.378  10.514   7.403  0.5320 -1.0688  0.8515
  142MOL0     C19060   9.324  10.614   7.322 -0.1680 -0.4216 -0.1800
  142MOL0     C19061   9.193  10.610   7.288  0.0216  0.1725  0.1594
  142MOL0     C19062   9.118  10.704   7.225 -0.5006 -0.5270  0.2471
  142MOL0     C19063   9.184  10.811   7.166 -0.9056 -0.6884  0.5704
  142MOL0     C19064   9.110  10.917   7.096  0.5441  0.2029 -0.4314
  142MOL0     O19065   9.171  11.035   7.056 -0.4705 -0.2282 -0.7207
  142MOL0     C19066   9.104  11.124   6.991  0.4599 -0.4931 -1.0182
  142MOL0     C19067   9.035  11.229   7.063 -1.1700  1.0586 -1.0612
  142MOL0     C19068   8.949  11.317   6.997  0.8312  0.9697  0.0953
  142MOL0     C19069   8.939  11.309   6.861 -0.3876  0.7453  0.9789
  142MOL0     O19070   8.852  11.396   6.796 -0.6058  0.6884 -0.3301
  142MOL0     C19071   8.715  11.362   6.807  0.2443 -0.0337  0.4706
  142MOL0     C19072   8.647  11.474   6.738 -0.4489  0.5502 -0.1193
  142MOL0     C19073   8.499  11.462   6.749  0.4503 -0.4039  0.4048
  142MOL0     C19074   8.438  11.319   6.725 -0.1272  1.1698 -0.6622
  142MOL0     C19075   8.284  11.323   6.721  0.0911 -0.1827  0.7057
  142MOL0     C19076   8.221  11.183   6.719 -0.6688 -0.0811  0.2478
  142MOL0     C19077   8.069  11.196   6.714  0.0199  0.3658  0.1091
  142MOL0     C19078   7.996  11.058   6.709 -0.4269 -0.7691 -0.3708
  142MOL0    Cl19079   8.059  10.971   6.573 -0.1496 -0.0750 -0.5442
  142MOL0     C19080   9.015  11.213   6.790 -0.2625  0.3988 -0.8889
  142MOL0     C19081   9.090  11.115   6.858  0.3173 -0.2630  0.1234
  142MOL0     O19082   8.994  10.881   7.069  0.1489 -0.2627 -0.3659
  142MOL0     C19083   9.327  10.827   7.194 -0.0530  0.0540  0.9072
  142MOL0     C19084   9.394  10.733   7.274  0.0962  0.1042 -0.5683
  142MOL0     N19085   9.818  10.155   7.473 -0.0993 -0.0489  0.3245
  142MOL0     N19086   9.923  10.125   7.545  0.2143 -0.0693  0.0188
  142MOL0     C19087  11.043   9.867   7.823 -0.2370 -0.4266 -0.1837
  142MOL0     C19088  11.130   9.796   7.911  0.1866  0.6027  0.2954
  142MOL0     C19089  11.303   9.626   8.285 -1.0039  0.3213  0.1447
  142MOL0     C19090  11.261   9.489   8.283 -0.2112 -0.7182  0.0024
  142MOL0     C19091  11.339   9.399   8.343 -0.5345  0.0035  0.7992
  142MOL0     C19092  11.463   9.431   8.409  0.7275  0.0094  0.7676
  142MOL0     O19093  11.517   9.322   8.474 -0.3513 -0.5507  0.0892
  142MOL0     C19094  11.638   9.344   8.550 -0.0175 -0.8606 -0.8267
  142MOL0     C19095  11.704   9.212   8.595  0.3019 -0.2971 -0.0505
  142MOL0     C19096  11.606   9.134   8.685  0.2833  0.6459  0.4185
  142MOL0     C19097  11.563   8.989   8.637 -0.1125 -0.4088  0.3667
  142MOL0     C19098  11.479   9.000   8.519  0.4973  1.6416 -0.0777
  142MOL0     C19099  11.414   9.020   8.422  0.1840  0.4994  0.3273
  142MOL0     C19100  11.508   9.564   8.410  0.2013 -0.2188  0.0402
  142MOL0     C19101  11.429   9.658   8.333 -1.7690 -0.0760 -0.2837
  142MOL0     C19102  11.486   9.794   8.324 -0.1482 -0.5979  0.4896
  142MOL0     H19103  10.903   9.768   8.161  1.8499 -1.6011 -1.0080
  142MOL0     H19104  10.772   9.911   8.024 -0.0805  0.6289 -1.0388
  142MOL0     H19105  11.006  10.129   7.794  1.2687 -3.3992 -1.6906
  142MOL0     H19106  10.950  10.116   7.636  0.2626  1.3429  0.2494
  142MOL0     H19107  10.850  10.314   7.723  1.1055  0.0281  0.0010
  142MOL0     H19108  10.785  10.238   7.860 -0.6510 -2.9291  0.2097
  142MOL0     H19109  10.627  10.107   7.731  0.9146 -1.4649 -2.8432
  142MOL0     H19110  10.655  10.182   7.581 -2.1351 -4.0297 -0.2213
  142MOL0     H19111  10.569  10.345   7.837 -1.4515 -0.7245 -0.1346
  142MOL0     H19112  10.627  10.411   7.678 -0.6813  1.2075  1.0440
  142MOL0     H19113  10.397  10.429   7.682 -1.0084 -0.9250 -0.2368
  142MOL0     H19114  10.453  10.315   7.566 -1.8587  3.1761  0.0065
  142MOL0     H19115  10.369  10.114   7.713 -0.1838 -0.3759  1.5204
  142MOL0     H19116  10.351  10.229   7.841 -2.1356  0.4328 -0.0385
  142MOL0     H19117  10.175  10.341   7.709  2.7237  0.6508  1.7021
  142MOL0     H19118  10.142  10.169   7.761  2.8048 -1.5598 -0.2670
  142MOL0     H19119  10.221  10.263   7.481  0.4106  0.4860 -0.3200
  142MOL0     H19120  10.200  10.095   7.514  0.8092  2.1062 -4.7340
  142MOL0     H19121  10.036  10.359   7.349  2.2507 -3.0945 -1.4035
  142MOL0     H19122   9.792  10.403   7.245  1.6249  2.6260  3.2264
  142MOL0     H19123   9.731  10.237   7.222 -1.6820  0.0724 -0.0753
  142MOL0     H19124   9.532  10.338   7.305 -0.8562  0.3139  0.5401
  142MOL0     H19125   9.617  10.272   7.442  1.7550 -1.1945 -1.0649
  142MOL0     H19126   9.651  10.567   7.363 -2.5282  0.7074 -0.4815
  142MOL0     H19127   9.689  10.495   7.516 -0.0365  1.7130 -0.9126
  142MOL0     H19128   9.466  10.633   7.531 -2.0348 -0.2085 -0.3704
  142MOL0     H19129   9.461  10.461   7.581 -2.2024  2.9022  1.2028
  142MOL0     H19130   9.136  10.528   7.331 -0.9580  0.2506 -0.9273
  142MOL0     H19131   9.010  10.697   7.229 -0.5298  0.0091  0.5593
  142MOL0     H19132   9.024  11.241   7.170 -3.2988  1.4476 -1.2616
  142MOL0     H19133   8.879  11.385   7.044 -0.1038  1.6772 -2.1830
  142MOL0     H19134   8.699  11.272   6.748  0.1219  1.6796 -2.2515
  142MOL0     H19135   8.685  11.348   6.912  2.5374  2.6873  1.6394
  142MOL0     H19136   8.669  11.573   6.781 -2.3069 -0.5696  3.8992
  142MOL0     H19137   8.662  11.472   6.630 -1.8572  3.4004 -0.4682
  142MOL0     H19138   8.456  11.492   6.845 -2.5249 -2.0348 -0.2908
  142MOL0     H19139   8.456  11.525   6.670 -0.5580 -2.5711 -0.8948
  142MOL0     H19140   8.473  11.255   6.806  3.6702  1.9934 -1.4416
  142MOL0     H19141   8.484  11.275   6.636  0.2956  0.7855 -0.2541
  142MOL0     H19142   8.256  11.366   6.624  2.0080 -2.4382 -0.9694
  142MOL0     H19143   8.256  11.378   6.811  1.5852  0.0050  1.0775
  142MOL0     H19144   8.246  11.135   6.624  0.1715 -0.2029  0.5212
  142MOL0     H19145   8.246  11.129   6.811 -2.6351  2.1752  2.2331
  142MOL0     H19146   8.029  11.259   6.634 -1.2493 -0.3816  0.1260
  142MOL0     H19147   8.044  11.235   6.814  0.1707 -2.2380  1.2452
  142MOL0     H19148   8.006  11.000   6.801 -1.2225 -1.1255 -0.5021
  142MOL0     H19149   7.892  11.085   6.689 -0.3608 -0.3179 -0.1228
  142MOL0     H19150   9.029  11.215   6.682  0.4754  3.6338 -0.8366
  142MOL0     H19151   9.151  11.040   6.808 -0.9204 -3.1712  2.6640
  142MOL0     H19152   9.382  10.902   7.138 -2.9107 -0.2128 -2.6259
  142MOL0     H19153   9.498  10.723   7.304 -0.2926 -2.2422  0.2370
  142MOL0     H19154  11.077   9.893   7.723  2.0020 -3.2156 -0.2877
  142MOL0     H19155  11.223   9.766   7.863 -0.0105  1.3473 -0.5914
  142MOL0     H19156  11.172   9.457   8.230 -1.5931 -1.6865  2.7032
  142MOL0     H19157  11.312   9.296   8.323  0.1462  0.1565 -1.1193
  142MOL0     H19158  11.615   9.400   8.641 -1.7886 -2.0140 -0.5219
  142MOL0     H19159  11.712   9.395   8.489 -0.1429  0.1496 -0.1572
  142MOL0     H19160  11.792   9.245   8.651  0.1469  1.4845 -0.7889
  142MOL0     H19161  11.727   9.155   8.505 -1.5132  2.6287 -2.5362
  142MOL0     H19162  11.513   9.189   8.700 -2.5418 -3.1297 -1.2431
  142MOL0     H19163  11.653   9.117   8.782  2.1084 -0.9419 -0.6461
  142MOL0     H19164  11.652   8.928   8.618 -1.5682 -2.4778 -0.0956
  142MOL0     H19165  11.509   8.943   8.721 -1.5109  1.1702  0.3806
  142MOL0     H19166  11.371   9.061   8.333 -2.8772 -0.5000  1.2249
  142MOL0     H19167  11.592   9.614   8.459  0.3703  1.7549 -2.1323
  142MOL0     H19168  11.441   9.845   8.238  0.7633 -0.9214 -0.1916
  142MOL0     H19169  11.449   9.852   8.409  0.8714 -0.4886  0.8765
  142MOL0     H19170  11.595   9.799   8.320 -0.2156  1.0273 -0.7760
  143MOL0     O19171   0.073   0.519   0.877  0.0425  0.6721  0.6784
  143MOL0     C19172   0.121   0.412   0.828  0.4188  0.2364  0.2885
  143MOL0     O19173   0.057   0.291   0.835  0.1742 -0.9261  0.1033
  143MOL0     C19174  -0.070   0.270   0.881  0.1919 -0.4121 -0.5931
  143MOL0     C19175  -0.154   0.189   0.807 -0.8639  0.0158 -0.4229
  143MOL0     C19176  -0.288   0.169   0.849 -0.3018  0.6506 -0.4249
  143MOL0     C19177  -0.333   0.213   0.969 -0.3355  0.5535 -0.2035
  143MOL0     O19178  -0.454   0.181   1.021  0.7055  0.0229  0.0803
  143MOL0     C19179  -0.547   0.095   0.945 -0.0142  0.8142  0.3074
  143MOL0     C19180  -0.679   0.059   1.017  0.4059  0.3242  0.7963
  143MOL0     C19181  -0.686  -0.088   1.066  0.1278  0.5127  0.2695
  143MOL0     C19182  -0.582  -0.118   1.177 -0.9065  0.1960 -0.2430
  143MOL0     C19183  -0.615  -0.245   1.260 -1.0476 -0.8086 -0.2125
  143MOL0     C19184  -0.492  -0.277   1.346  0.0601 -0.2307  0.3515
  143MOL0     C19185  -0.511  -0.415   1.413  0.2655 -0.1134  0.0385
  143MOL0     C19186  -0.581  -0.432   1.545 -0.1483 -0.1445  0.5839
  143MOL0     N19187  -0.564  -0.326   1.648  0.3919  0.2390 -0.0969
  143MOL0     C19188  -0.545  -0.349   1.772  0.1503 -0.3325  0.7334
  143MOL0     C19189  -0.546  -0.226   1.836 -0.1565  0.2086 -0.1008
  143MOL0     C19190  -0.518  -0.202   1.983 -0.0148 -0.2401 -0.3859
  143MOL0     C19191  -0.403  -0.097   1.980  0.0396 -1.2458 -0.1094
  143MOL0     C19192  -0.338  -0.088   2.116  0.4154  0.6661 -0.0751
  143MOL0     C19193  -0.243   0.034   2.131 -0.6830  0.5806  0.2669
  143MOL0     O19194  -0.113   0.023   2.065 -0.3704  0.3316  0.3138
  143MOL0     C19195  -0.035   0.142   2.078  0.6226  0.2968 -0.2671
  143MOL0     C19196   0.057   0.179   1.977  0.5102  0.5925  0.3111
  143MOL0     C19197   0.124   0.301   1.977  0.0662 -0.2365 -0.7195
  143MOL0     C19198   0.105   0.389   2.083  0.5936 -0.1994  0.3016
  143MOL0     C19199   0.159   0.534   2.084  0.1303  0.9096  1.3583
  143MOL0     O19200   0.173   0.607   1.962  0.1684 -0.0956 -0.2353
  143MOL0     C19201   0.247   0.720   1.949  0.1903 -1.0790  1.2826
  143MOL0     C19202   0.357   0.727   1.857 -0.2708  0.5650  0.8976
  143MOL0     C19203   0.450   0.827   1.854  0.4404 -0.7796 -0.0130
  143MOL0     C19204   0.435   0.937   1.944 -0.1669  0.8139  0.2217
  143MOL0     O19205   0.517   1.045   1.935  0.5965  0.1218 -0.1449
  143MOL0     C19206   0.652   1.011   1.931 -0.8135 -0.5691  0.1910
  143MOL0     C19207   0.724   1.140   1.967  0.7352 -0.9559  0.0347
  143MOL0     C19208   0.812   1.201   1.851 -0.1635 -0.0159 -0.6653
  143MOL0     C19209   0.951   1.207   1.913  0.3814  0.3160 -0.4440
  143MOL0     C19210   1.021   1.075   1.913 -0.4658  1.0856 -0.3506
  143MOL0     C19211   1.151   1.070   1.995  0.4279  0.1287  0.0449
  143MOL0     C19212   1.263   1.174   1.950  0.3693 -0.4015 -0.1798
  143MOL0     C19213   1.398   1.141   2.013  0.7148 -0.0409  1.1425
  143MOL0    Cl19214   1.513   1.279   1.996  0.1868 -0.0921 -0.0982
  143MOL0     C19215   0.326   0.937   2.030 -0.1716 -0.4390 -0.5706
  143MOL0     C19216   0.236   0.830   2.044  0.3097 -0.1235  0.6604
  143MOL0     O19217   0.171   0.577   2.191  0.2339  1.0220 -0.3612
  143MOL0     C19218   0.013   0.353   2.193 -0.0290 -0.5526  0.4760
  143MOL0     C19219  -0.057   0.232   2.187  0.1020 -0.3315  0.0313
  143MOL0     N19220  -0.594  -0.133   1.743 -0.3970 -0.8073 -0.8687
  143MOL0     N19221  -0.595  -0.199   1.631  1.0896 -0.5597  0.0701
  143MOL0     C19222  -0.251   0.297   1.051 -0.2674 -0.2411  0.4084
  143MOL0     C19223  -0.112   0.314   1.009 -0.6071 -0.4332 -0.5166
  143MOL0     C19224   0.245   0.421   0.760  0.1365  0.7281 -0.5126
  143MOL0     C19225   0.331   0.528   0.785 -0.3796 -1.3894 -0.5820
  143MOL0     C19226   0.452   0.556   0.719 -0.0052  0.3422  0.2767
  143MOL0     C19227   0.486   0.459   0.617  0.0423 -0.2700 -0.3775
  143MOL0     O19228   0.593   0.492   0.551 -0.2680  0.2827 -0.2539
  143MOL0     C19229   0.679   0.380   0.510  0.3474  0.1670  0.0856
  143MOL0     C19230   0.794   0.451   0.416  0.7360 -0.7544 -0.0510
  143MOL0     C19231   0.918   0.364   0.411 -0.4973 -0.4073 -1.0702
  143MOL0     C19232   1.014   0.420   0.307 -0.3324 -0.1965 -0.9153
  143MOL0     C19233   0.976   0.374   0.176  0.0355  0.7025  0.2389
  143MOL0     C19234   0.967   0.342   0.063  0.6370  0.0551  0.4738
  143MOL0     C19235   0.405   0.348   0.594  0.3805 -0.6917 -0.2528
  143MOL0     C19236   0.279   0.333   0.656  0.5921 -0.4307 -0.4741
  143MOL0     C19237   0.187   0.231   0.598  0.4399 -0.8562  0.2117
  143MOL0     H19238  -0.120   0.151   0.712  0.7877 -0.7217  0.4198
  143MOL0     H19239  -0.345   0.106   0.781  2.0591 -1.1699 -0.8331
  143MOL0     H19240  -0.577   0.156   0.859  0.8467 -1.6358 -1.8493
  143MOL0     H19241  -0.489   0.008   0.912  0.7070  1.0480  0.9404
  143MOL0     H19242  -0.759   0.066   0.942  1.1948 -0.5574 -0.1523
  143MOL0     H19243  -0.701   0.127   1.100 -1.1897  0.5628  0.2222
  143MOL0     H19244  -0.669  -0.164   0.990 -1.3909 -1.6927  2.0020
  143MOL0     H19245  -0.790  -0.090   1.101 -0.2036  0.9055 -0.6640
  143MOL0     H19246  -0.481  -0.129   1.138 -1.2474  1.3314 -1.5194
  143MOL0     H19247  -0.585  -0.034   1.247 -1.7987  1.6826 -1.9686
  143MOL0     H19248  -0.695  -0.225   1.332 -1.2486 -2.5704  0.1011
  143MOL0     H19249  -0.644  -0.327   1.193 -2.2951  0.0405 -0.7492
  143MOL0     H19250  -0.408  -0.274   1.276  1.2007 -0.7935  1.6522
  143MOL0     H19251  -0.477  -0.197   1.420 -1.0556  4.1661 -3.6583
  143MOL0     H19252  -0.412  -0.459   1.422 -0.4784 -2.1712 -1.1244
  143MOL0     H19253  -0.565  -0.472   1.337 -1.4273 -0.3648  1.3636
  143MOL0     H19254  -0.688  -0.445   1.525 -1.2124  5.1889  1.3172
  143MOL0     H19255  -0.539  -0.526   1.582 -0.5867 -0.6870 -0.2734
  143MOL0     H19256  -0.525  -0.436   1.833 -0.8153  0.1746  1.8112
  143MOL0     H19257  -0.606  -0.182   2.045  1.7083  0.7775  1.9217
  143MOL0     H19258  -0.479  -0.294   2.029  1.8297  1.3474  1.4445
  143MOL0     H19259  -0.318  -0.117   1.914  0.2589  2.1898 -1.1016
  143MOL0     H19260  -0.447   0.003   1.965  0.4227 -0.5927  2.5756
  143MOL0     H19261  -0.275  -0.174   2.140  0.7975  1.2696  1.2235
  143MOL0     H19262  -0.412  -0.067   2.194  1.9245  2.0104  1.0750
  143MOL0     H19263  -0.227   0.035   2.240  1.2411  0.1232  0.0241
  143MOL0     H19264  -0.291   0.124   2.094  2.6652  1.4246 -2.4354
  143MOL0     H19265   0.082   0.105   1.901  1.1526  2.2502 -1.1882
  143MOL0     H19266   0.200   0.318   1.901 -0.2829  3.4170 -0.4020
  143MOL0     H19267   0.372   0.641   1.793 -0.4310 -0.3907  2.1045
  143MOL0     H19268   0.517   0.833   1.769 -0.7383 -3.3552 -1.2331
  143MOL0     H19269   0.678   0.924   1.991 -0.8248 -0.3625  0.5016
  143MOL0     H19270   0.692   0.990   1.831  0.0153  3.2648 -0.4430
  143MOL0     H19271   0.648   1.215   1.992  1.7298 -0.0767  0.4720
  143MOL0     H19272   0.784   1.122   2.056  1.2656 -2.5877 -0.6080
  143MOL0     H19273   0.811   1.135   1.764 -1.2952 -2.9437  1.3714
  143MOL0     H19274   0.783   1.305   1.835  1.2417  0.5337  0.2452
  143MOL0     H19275   0.958   1.247   2.014  2.0009  1.3670 -0.9070
  143MOL0     H19276   1.008   1.287   1.864  2.2496 -0.8071 -0.2159
  143MOL0     H19277   1.040   1.024   1.819 -2.2299 -2.7921  1.1902
  143MOL0     H19278   0.959   1.002   1.966 -0.6619  1.4384 -0.0870
  143MOL0     H19279   1.114   1.085   2.097 -0.1385 -0.6273 -0.0405
  143MOL0     H19280   1.183   0.966   1.993 -1.0660 -0.3824 -3.5654
  143MOL0     H19281   1.230   1.274   1.978 -1.3155 -0.6299 -1.2247
  143MOL0     H19282   1.271   1.179   1.841 -2.6537 -2.7494 -0.6373
  143MOL0     H19283   1.392   1.132   2.122 -2.0997  2.2064  1.2833
  143MOL0     H19284   1.429   1.050   1.961  0.3518  0.0822  0.7064
  143MOL0     H19285   0.332   1.016   2.104 -1.7445 -2.9321  2.4814
  143MOL0     H19286   0.156   0.837   2.117 -0.9038 -1.9501 -0.4089
  143MOL0     H19287   0.013   0.429   2.270  1.0602 -0.3159  0.2599
  143MOL0     H19288  -0.130   0.204   2.262  0.3841 -3.2374 -0.6353
  143MOL0     H19289  -0.284   0.330   1.149  0.9608  0.4678  0.5892
  143MOL0     H19290  -0.037   0.369   1.064 -0.9654 -0.7386  0.2869
  143MOL0     H19291   0.306   0.592   0.868  0.8614  1.1253 -2.0240
  143MOL0     H19292   0.525   0.634   0.737  2.0840 -1.6991  1.0874
  143MOL0     H19293   0.630   0.302   0.451  1.8299  0.6785 -1.9670
  143MOL0     H19294   0.728   0.332   0.594  1.6499  2.8315  0.9662
  143MOL0     H19295   0.824   0.543   0.468 -1.1358 -0.5722  0.7575
  143MOL0     H19296   0.748   0.472   0.319  1.1137  2.7334  0.3704
  143MOL0     H19297   0.882   0.262   0.393 -3.2458  0.3413 -0.3972
  143MOL0     H19298   0.944   0.367   0.518 -0.6382  3.5857 -1.0018
  143MOL0     H19299   1.005   0.529   0.299 -4.0718 -0.5079 -2.7460
  143MOL0     H19300   1.118   0.393   0.328  0.9203  3.1057 -2.1443
  143MOL0     H19301   0.943   0.312  -0.037 -2.5010  3.1024  0.1408
  143MOL0     H19302   0.425   0.273   0.518 -0.6488 -2.5715  1.2283
  143MOL0     H19303   0.216   0.202   0.496 -1.2923 -1.7912 -0.0420
  143MOL0     H19304   0.178   0.142   0.661 -2.0826 -2.8408 -2.6463
  143MOL0     H19305   0.094   0.287   0.584 -0.6110 -2.3135  1.1246
  144MOL0     O19306   3.967   0.919   3.401 -0.2778  0.1007  0.1832
  144MOL0     C19307   4.083   0.899   3.365 -0.5323 -0.2426 -0.5701
  144MOL0     O19308   4.123   0.809   3.273  0.1493 -0.5292  0.4707
  144MOL0     C19309   4.032   0.728   3.216  0.6420 -0.1926 -0.2731
  144MOL0     C19310   3.942   0.645   3.298  0.5867 -0.0182 -0.2251
  144MOL0     C19311   3.848   0.553   3.240  0.0397 -0.4581  1.0115
  144MOL0     C19312   3.828   0.560   3.103  0.6678 -0.0714 -0.3511
  144MOL0     O19313   3.745   0.486   3.024  0.2757 -0.1672 -0.3512
  144MOL0     C19314   3.792   0.353   3.000 -0.2366 -0.0147  0.3260
  144MOL0     C19315   3.673   0.281   2.945 -0.1350 -0.8079 -0.0314
  144MOL0     C19316   3.706   0.174   2.835  0.1983 -0.6040 -0.4119
  144MOL0     C19317   3.568   0.125   2.785  0.3841 -0.0233 -0.7584
  144MOL0     C19318   3.597   0.004   2.696  0.1795 -0.3576 -0.5294
  144MOL0     C19319   3.485  -0.030   2.601 -0.7210  0.3335  0.4840
  144MOL0     C19320   3.363  -0.093   2.679 -0.0259 -0.0672  0.4616
  144MOL0     C19321   3.252  -0.141   2.577 -0.6999 -0.4945 -0.2426
  144MOL0     N19322   3.132  -0.180   2.644 -0.1236 -0.3725 -0.3726
  144MOL0     C19323   3.030  -0.089   2.673 -0.3269  0.0703 -0.1077
  144MOL0     C19324   2.937  -0.150   2.752 -0.1529  0.3937  0.5541
  144MOL0     C19325   2.820  -0.082   2.822 -0.1617  0.6410  0.0138
  144MOL0     C19326   2.801   0.063   2.790  0.9532  0.2971  0.0159
  144MOL0     C19327   2.714   0.139   2.889  1.2677 -0.2734 -0.0558
  144MOL0     C19328   2.583   0.074   2.939  0.9243 -0.6292  0.1360
  144MOL0     O19329   2.488   0.170   2.995  0.5638 -0.0941  0.0321
  144MOL0     C19330   2.489   0.212   3.124  0.5776  0.4190  0.1411
  144MOL0     C19331   2.392   0.166   3.217  0.1985 -0.6494  0.2636
  144MOL0     C19332   2.391   0.222   3.346 -0.6841 -0.1854  0.5078
  144MOL0     C19333   2.492   0.314   3.389 -0.6251  0.1479 -0.5282
  144MOL0     C19334   2.475   0.370   3.519 -0.6603 -0.4962 -0.3814
  144MOL0     O19335   2.373   0.319   3.602  0.2355  0.4326 -0.4549
  144MOL0     C19336   2.340   0.386   3.720  0.4039  0.0811 -0.4342
  144MOL0     C19337   2.201   0.395   3.748 -0.2233  1.1047  0.1406
  144MOL0     C19338   2.162   0.463   3.857  0.2994  0.6311 -0.7616
  144MOL0     C19339   2.247   0.502   3.957  0.1683  0.5301  0.5176
  144MOL0     O19340   2.196   0.569   4.060 -0.0759 -0.4526 -0.0383
  144MOL0     C19341   2.128   0.481   4.159 -0.0468  0.2905  0.0662
  144MOL0     C19342   2.154   0.503   4.305  0.3277  0.4184  0.0457
  144MOL0     C19343   2.140   0.654   4.328  0.2671 -0.2846 -0.6330
  144MOL0     C19344   2.133   0.688   4.475 -0.0301 -0.4427 -0.0694
  144MOL0     C19345   2.274   0.699   4.537  0.2172  0.4069 -0.2531
  144MOL0     C19346   2.244   0.736   4.680 -0.2783  0.1667 -0.0858
  144MOL0     C19347   2.375   0.738   4.757  0.4158  0.5291  0.4357
  144MOL0     C19348   2.356   0.791   4.894  0.5220 -0.7683  0.3089
  144MOL0    Cl19349   2.514   0.815   4.981  0.4878  0.1225  0.4237
  144MOL0     C19350   2.384   0.469   3.948 -0.2742  0.7796  0.0140
  144MOL0     C19351   2.430   0.420   3.828 -0.0659 -0.2751 -1.8498
  144MOL0     O19352   2.540   0.466   3.545  0.1395  0.1740  0.2598
  144MOL0     C19353   2.586   0.349   3.295  0.5615  0.7666 -1.1149
  144MOL0     C19354   2.589   0.300   3.168  0.7604 -1.1585  0.2318
  144MOL0     N19355   2.985  -0.271   2.763  0.1185 -0.6047 -0.5828
  144MOL0     N19356   3.084  -0.295   2.691 -0.3219 -0.2233  0.0520
  144MOL0     C19357   3.911   0.650   3.028  0.5431  0.2855 -0.1547
  144MOL0     C19358   4.005   0.731   3.080  0.1243 -0.7323 -0.4938
  144MOL0     C19359   4.191   0.970   3.417 -0.2084  0.1366 -1.6327
  144MOL0     C19360   4.241   1.063   3.330  0.6599 -0.0484  0.7415
  144MOL0     C19361   4.350   1.156   3.364  1.3381 -0.2884  1.1161
  144MOL0     C19362   4.401   1.143   3.494  0.2773 -0.0358  1.3550
  144MOL0     O19363   4.508   1.222   3.532  0.9088 -0.3426 -0.1902
  144MOL0     C19364   4.635   1.162   3.515  0.1443 -0.3386  0.8091
  144MOL0     C19365   4.712   1.197   3.640 -0.8504  0.9523  0.3674
  144MOL0     C19366   4.695   1.330   3.702 -0.1165  0.4109 -0.0331
  144MOL0     C19367   4.692   1.448   3.603 -1.0355  0.4095 -0.3600
  144MOL0     C19368   4.822   1.493   3.569 -0.3186 -0.2056  0.0649
  144MOL0     C19369   4.934   1.535   3.546  0.9552  0.9715 -0.1666
  144MOL0     C19370   4.344   1.052   3.590  0.3903 -0.0730 -0.4772
  144MOL0     C19371   4.244   0.955   3.550 -0.4639 -0.6688 -0.0118
  144MOL0     C19372   4.207   0.849   3.654 -0.0033 -0.0514 -0.2675
  144MOL0     H19373   3.940   0.640   3.406 -4.1072 -0.9693 -0.1776
  144MOL0     H19374   3.786   0.491   3.305  2.1175 -2.9715  0.7612
  144MOL0     H19375   3.872   0.365   2.926  3.1861  1.2415  3.8833
  144MOL0     H19376   3.829   0.306   3.091 -1.8568 -2.3332 -0.1250
  144MOL0     H19377   3.607   0.354   2.898 -0.7861 -0.8779  0.7553
  144MOL0     H19378   3.613   0.230   3.022  0.7069 -0.8228  0.6386
  144MOL0     H19379   3.764   0.094   2.883  0.9258 -0.2991 -0.7729
  144MOL0     H19380   3.762   0.221   2.753 -0.1244 -1.6873 -1.2749
  144MOL0     H19381   3.502   0.094   2.866  0.1648 -0.4683 -1.1075
  144MOL0     H19382   3.515   0.206   2.734 -0.3715 -1.3435 -2.1512
  144MOL0     H19383   3.689   0.003   2.638  1.8694  3.0069  1.7734
  144MOL0     H19384   3.609  -0.074   2.773 -1.9555  2.6341  3.2018
  144MOL0     H19385   3.472   0.064   2.546  1.6107 -0.4664 -1.5835
  144MOL0     H19386   3.522  -0.094   2.521  1.8183  2.4162 -0.1579
  144MOL0     H19387   3.321  -0.014   2.742 -0.2258  0.0578  0.1731
  144MOL0     H19388   3.388  -0.169   2.753 -2.2464  1.2308  2.6755
  144MOL0     H19389   3.225  -0.062   2.505  0.2263 -1.9674 -2.2881
  144MOL0     H19390   3.285  -0.227   2.519 -0.0029  0.8587 -1.9709
  144MOL0     H19391   3.018   0.011   2.633 -0.3372  0.2601  0.3589
  144MOL0     H19392   2.722  -0.130   2.815  0.3171 -0.7758  2.0705
  144MOL0     H19393   2.843  -0.090   2.928  3.0508  0.3470 -0.6040
  144MOL0     H19394   2.898   0.114   2.791  1.4292 -0.5766 -0.3296
  144MOL0     H19395   2.766   0.047   2.688  3.1062 -3.4688 -0.3256
  144MOL0     H19396   2.674   0.228   2.840  1.4522  0.8865  1.8128
  144MOL0     H19397   2.779   0.159   2.975  1.4555 -2.2036  0.3145
  144MOL0     H19398   2.603  -0.011   3.004  0.1548 -0.7419  0.2358
  144MOL0     H19399   2.536   0.022   2.855  0.4348  1.9824 -1.3264
  144MOL0     H19400   2.323   0.087   3.190  0.7121 -1.5273  1.4085
  144MOL0     H19401   2.314   0.180   3.411 -0.5127  0.5584  1.2042
  144MOL0     H19402   2.135   0.348   3.676  0.2983  3.2559 -1.8674
  144MOL0     H19403   2.057   0.488   3.866 -0.1511 -0.8480 -1.5476
  144MOL0     H19404   2.023   0.505   4.141 -0.0215  0.8465  0.6377
  144MOL0     H19405   2.142   0.375   4.137  1.5594  0.8755 -2.0430
  144MOL0     H19406   2.094   0.442   4.372  0.3165  1.3313  0.8847
  144MOL0     H19407   2.254   0.469   4.332  0.0370  1.1125  2.1975
  144MOL0     H19408   2.228   0.702   4.284  1.8189  0.1895  2.6659
  144MOL0     H19409   2.051   0.703   4.288  1.1678  3.8844  1.8258
  144MOL0     H19410   2.069   0.615   4.526 -2.4258  2.3061  1.1297
  144MOL0     H19411   2.076   0.778   4.499 -3.3115 -2.3417 -0.0992
  144MOL0     H19412   2.329   0.777   4.484  0.3396  0.1901 -0.4474
  144MOL0     H19413   2.321   0.600   4.529 -1.9027 -0.7689  0.8377
  144MOL0     H19414   2.191   0.832   4.682  1.5095  1.2439 -1.6199
  144MOL0     H19415   2.189   0.655   4.729  0.2777 -0.4281 -0.4312
  144MOL0     H19416   2.448   0.799   4.704  1.7872 -0.1299  1.5091
  144MOL0     H19417   2.404   0.633   4.764 -1.9351 -0.3323 -1.4235
  144MOL0     H19418   2.306   0.889   4.890  2.7284  0.4052  0.2624
  144MOL0     H19419   2.288   0.728   4.954  1.4066 -1.4772  0.5876
  144MOL0     H19420   2.454   0.501   4.025 -0.7246 -2.2912  1.8734
  144MOL0     H19421   2.536   0.403   3.810  1.3609  3.8478  1.2184
  144MOL0     H19422   2.655   0.422   3.336  0.2743  0.3776  0.0903
  144MOL0     H19423   2.662   0.334   3.096 -1.3426  1.5250 -0.7888
  144MOL0     H19424   3.887   0.659   2.923 -2.6924  1.5845  0.5727
  144MOL0     H19425   4.065   0.802   3.023  2.7893 -2.1568  0.3833
  144MOL0     H19426   4.195   1.058   3.232 -2.2612  0.3014  1.9887
  144MOL0     H19427   4.409   1.225   3.304  0.3082 -1.4469 -1.3467
  144MOL0     H19428   4.681   1.212   3.429  0.7464 -1.7982  0.2281
  144MOL0     H19429   4.624   1.056   3.487  0.3101  0.3063 -2.0343
  144MOL0     H19430   4.819   1.185   3.620 -1.3405 -1.0754 -1.4579
  144MOL0     H19431   4.674   1.127   3.715 -2.0521  1.4325  0.2303
  144MOL0     H19432   4.769   1.348   3.781 -3.3101  0.4605  3.2110
  144MOL0     H19433   4.600   1.332   3.756  1.0874  2.9374  2.2323
  144MOL0     H19434   4.644   1.419   3.509  0.6499 -0.4230 -1.0035
  144MOL0     H19435   4.628   1.520   3.655 -0.7093  0.6999 -0.3549
  144MOL0     H19436   5.039   1.557   3.540  2.2192 -3.9742 -0.4870
  144MOL0     H19437   4.386   1.035   3.689 -1.5922 -2.0138  0.1071
  144MOL0     H19438   4.267   0.760   3.633 -3.1326 -2.8983  1.7415
  144MOL0     H19439   4.221   0.889   3.755 -1.0122  1.5669 -0.7258
  144MOL0     H19440   4.101   0.822   3.648 -0.4303  1.6952 -1.3479
  145MOL0     O19441   0.714   9.733  11.217 -0.5196  0.8044 -0.3215
  145MOL0     C19442   0.638   9.809  11.143 -0.8304  0.8714 -0.6488
  145MOL0     O19443   0.562   9.769  11.040 -0.6892  0.4634 -0.3677
  145MOL0     C19444   0.615   9.687  10.933 -0.1938  0.4114  0.2704
  145MOL0     C19445   0.743   9.662  10.899 -0.1211 -0.6415 -0.0584
  145MOL0     C19446   0.773   9.573  10.795 -0.5830  0.4666  0.5770
  145MOL0     C19447   0.679   9.516  10.716 -0.3219 -1.0564 -1.0268
  145MOL0     O19448   0.708   9.433  10.620 -0.6953  0.0865  0.6048
  145MOL0     C19449   0.695   9.290  10.644  0.6456  0.7145 -0.1853
  145MOL0     C19450   0.754   9.212  10.529 -0.0763 -0.9683  0.1178
  145MOL0     C19451   0.901   9.259  10.498  0.0873  1.0509 -0.2939
  145MOL0     C19452   0.998   9.181  10.582  0.1182  1.0747  0.1226
  145MOL0     C19453   1.080   9.270  10.673  0.1949  0.4538 -0.2772
  145MOL0     C19454   1.173   9.362  10.591 -0.5088 -0.4895 -0.5750
  145MOL0     C19455   1.293   9.287  10.555 -0.0205  0.1276  0.8987
  145MOL0     C19456   1.377   9.384  10.480 -0.9743 -0.1726  0.3027
  145MOL0     N19457   1.323   9.466  10.377 -0.1801  0.1277  0.2366
  145MOL0     C19458   1.235   9.422  10.278  0.7260 -1.0068  0.4274
  145MOL0     C19459   1.184   9.538  10.224  0.3013 -0.2070 -0.3448
  145MOL0     C19460   1.066   9.566  10.131  0.9296 -0.7992 -0.0237
  145MOL0     C19461   1.116   9.606   9.987 -0.3277  0.7218  0.7847
  145MOL0     C19462   1.015   9.574   9.873 -0.0601  0.5655 -0.3385
  145MOL0     C19463   1.055   9.603   9.726 -0.5515  0.6744 -0.1156
  145MOL0     O19464   0.950   9.579   9.632 -0.6347 -0.0842  0.0832
  145MOL0     C19465   0.914   9.446   9.628  0.2448 -0.8232  0.5715
  145MOL0     C19466   0.964   9.347   9.552 -0.3605 -0.1635  0.2016
  145MOL0     C19467   0.915   9.213   9.561 -0.7016  0.1143  0.7448
  145MOL0     C19468   0.803   9.185   9.638 -0.3475 -0.2485 -1.3888
  145MOL0     C19469   0.776   9.047   9.639  0.5168  0.4742 -0.4940
  145MOL0     O19470   0.879   8.956   9.631  0.3847  0.7446  0.7230
  145MOL0     C19471   0.861   8.819   9.674  0.6545 -0.3831  0.6634
  145MOL0     C19472   0.761   8.756   9.759 -0.0181 -0.3300  0.1375
  145MOL0     C19473   0.782   8.619   9.800  0.6610  0.4038  0.2264
  145MOL0     C19474   0.889   8.547   9.748  0.1126 -0.1851 -0.2886
  145MOL0     O19475   0.910   8.409   9.773  0.0615 -0.5364 -0.8137
  145MOL0     C19476   0.795   8.325   9.787  0.1234  0.8234 -0.1281
  145MOL0     C19477   0.788   8.262   9.927  0.0229 -0.7812 -0.0977
  145MOL0     C19478   0.696   8.138   9.937  0.1813 -0.2478 -0.0252
  145MOL0     C19479   0.543   8.171   9.916  0.1716 -0.2163  1.0743
  145MOL0     C19480   0.478   8.268  10.012 -0.3812  0.0946  0.1457
  145MOL0     C19481   0.325   8.293   9.994 -0.9839  0.4063  0.1828
  145MOL0     C19482   0.288   8.351   9.848 -0.6364  0.3712 -0.5266
  145MOL0     C19483   0.376   8.469   9.816  0.0489 -0.4478  0.2450
  145MOL0    Cl19484   0.404   8.592   9.947  0.2326 -0.0204  0.0290
  145MOL0     C19485   0.984   8.608   9.676 -0.1386  0.3545  0.0152
  145MOL0     C19486   0.974   8.750   9.642  0.0193 -0.0456  0.2111
  145MOL0     O19487   0.658   9.021   9.640  0.3357 -0.6100 -0.1071
  145MOL0     C19488   0.738   9.289   9.702  0.1314  0.3814  0.7947
  145MOL0     C19489   0.798   9.413   9.703 -0.1199  0.1945 -0.1849
  145MOL0     N19490   1.253   9.644  10.284 -0.2824 -0.0966  0.0277
  145MOL0     N19491   1.338   9.599  10.372 -0.4181  0.5103  0.6675
  145MOL0     C19492   0.550   9.548  10.742 -0.2230 -0.0220  0.1913
  145MOL0     C19493   0.509   9.625  10.853  0.2857 -0.2163  0.2222
  145MOL0     C19494   0.618   9.946  11.184 -1.2545  0.6974 -0.0322
  145MOL0     C19495   0.494  10.006  11.164 -0.0720 -0.3480  0.6690
  145MOL0     C19496   0.466  10.141  11.200  0.4256 -0.0791 -0.4540
  145MOL0     C19497   0.560  10.223  11.255 -0.1137 -0.2251 -0.4619
  145MOL0     O19498   0.552  10.355  11.287 -0.5583  0.1198 -0.0031
  145MOL0     C19499   0.437  10.408  11.341  1.0047 -0.7607  0.0926
  145MOL0     C19500   0.431  10.551  11.308  0.5058 -0.5370 -0.6077
  145MOL0     C19501   0.295  10.617  11.333  0.0374 -0.2776  0.7660
  145MOL0     C19502   0.315  10.769  11.294 -0.8843 -0.2382  0.2975
  145MOL0     C19503   0.187  10.840  11.299 -0.4765  0.4176  0.6674
  145MOL0     C19504   0.072  10.878  11.305 -0.7427 -0.7120 -0.2843
  145MOL0     C19505   0.679  10.155  11.287 -0.6535 -0.7320  0.5941
  145MOL0     C19506   0.715  10.027  11.256  0.9088  0.4908 -0.1258
  145MOL0     C19507   0.859   9.984  11.278 -1.0813  0.3311 -0.5875
  145MOL0     H19508   0.823   9.710  10.955 -1.3589  4.1422 -1.9359
  145MOL0     H19509   0.877   9.542  10.783 -1.0186 -1.8054  2.0248
  145MOL0     H19510   0.748   9.261  10.735 -0.0995  0.3793  0.1451
  145MOL0     H19511   0.593   9.251  10.651  1.1939 -1.1199 -1.6196
  145MOL0     H19512   0.691   9.239  10.444  0.4632 -0.5991 -0.1675
  145MOL0     H19513   0.746   9.107  10.560  1.6084 -0.6532  1.7449
  145MOL0     H19514   0.917   9.367  10.502  1.0549  0.9896 -1.6344
  145MOL0     H19515   0.925   9.239  10.393 -1.3087 -1.7470 -0.1561
  145MOL0     H19516   0.945   9.117  10.652 -2.1785  0.9113 -1.6613
  145MOL0     H19517   1.070   9.126  10.521  0.0063 -0.7591  1.5437
  145MOL0     H19518   1.011   9.337  10.725 -2.1390 -1.3224 -0.9335
  145MOL0     H19519   1.139   9.205  10.739  0.1605 -1.3962 -1.9907
  145MOL0     H19520   1.116   9.413  10.512  2.9462  2.1138 -1.6384
  145MOL0     H19521   1.208   9.445  10.653  0.2435 -0.5523 -0.9055
  145MOL0     H19522   1.284   9.213  10.475 -1.2083  2.0231 -0.8202
  145MOL0     H19523   1.353   9.243  10.635 -0.4778 -2.9268 -0.3095
  145MOL0     H19524   1.397   9.462  10.555  1.9982 -0.4963 -0.0313
  145MOL0     H19525   1.458   9.323  10.439 -1.7862 -2.1386  1.4824
  145MOL0     H19526   1.182   9.330  10.255 -1.4361  0.0031  1.1681
  145MOL0     H19527   1.006   9.475  10.118 -0.8599  0.5150 -1.3824
  145MOL0     H19528   0.998   9.645  10.163 -1.1996 -3.0421  1.3584
  145MOL0     H19529   1.145   9.711   9.985 -4.6523  2.0924 -0.2170
  145MOL0     H19530   1.205   9.545   9.972  0.5502  2.3873 -1.2647
  145MOL0     H19531   0.932   9.638   9.904 -0.4251 -0.1844  0.2649
  145MOL0     H19532   0.984   9.469   9.873 -1.5092  0.9224 -2.3899
  145MOL0     H19533   1.144   9.547   9.696  0.1117  0.7894  1.5775
  145MOL0     H19534   1.085   9.708   9.730  4.8122 -0.6264  0.5758
  145MOL0     H19535   1.052   9.370   9.492 -0.2277  1.5113  0.9645
  145MOL0     H19536   0.961   9.138   9.498 -0.5093  1.1544 -0.3950
  145MOL0     H19537   0.689   8.827   9.798  0.6495 -0.0237  0.8317
  145MOL0     H19538   0.719   8.580   9.879  0.8049  0.1970  0.2393
  145MOL0     H19539   0.703   8.373   9.754  0.2993 -0.6501 -3.1430
  145MOL0     H19540   0.809   8.251   9.708 -3.1003 -1.3369  1.1117
  145MOL0     H19541   0.890   8.226   9.945 -0.4661 -2.1193  0.0838
  145MOL0     H19542   0.758   8.342   9.996 -0.7641 -3.4280  2.8376
  145MOL0     H19543   0.726   8.053   9.875  1.0352 -0.7295  1.0089
  145MOL0     H19544   0.701   8.088  10.034 -2.3113 -0.1829  0.1850
  145MOL0     H19545   0.484   8.079   9.919  2.1443 -1.5373  0.9282
  145MOL0     H19546   0.545   8.214   9.815 -1.7349 -0.9660  0.6802
  145MOL0     H19547   0.537   8.360  10.014 -0.9672  0.5524  4.5767
  145MOL0     H19548   0.496   8.237  10.115 -0.6488 -0.5194  0.0103
  145MOL0     H19549   0.280   8.195  10.012  1.5718 -0.3377  3.5600
  145MOL0     H19550   0.286   8.358  10.073 -4.1673 -0.6497 -0.3805
  145MOL0     H19551   0.184   8.380   9.828 -0.7688  0.4027  0.1890
  145MOL0     H19552   0.315   8.273   9.776 -1.7944  0.0920 -0.6742
  145MOL0     H19553   0.469   8.413   9.801  0.4110 -0.4594  2.2713
  145MOL0     H19554   0.350   8.527   9.728  1.7695 -0.7455 -0.5112
  145MOL0     H19555   1.067   8.542   9.653 -1.5216 -1.1178 -0.9138
  145MOL0     H19556   1.037   8.807   9.574 -2.0779  2.1496  0.0065
  145MOL0     H19557   0.638   9.279   9.744  0.1349 -0.0398  0.7036
  145MOL0     H19558   0.760   9.488   9.771 -2.5382 -1.3526  0.3045
  145MOL0     H19559   0.474   9.505  10.677  0.1335  0.7921 -0.7895
  145MOL0     H19560   0.406   9.634  10.889 -2.2518 -4.2722 -4.7288
  145MOL0     H19561   0.423   9.933  11.127  2.4470 -4.5666  3.3587
  145MOL0     H19562   0.370  10.180  11.169  1.1165 -1.7181 -5.5938
  145MOL0     H19563   0.435  10.396  11.450 -2.1828 -5.0060 -0.1770
  145MOL0     H19564   0.350  10.348  11.312 -0.4285  2.4092 -2.8289
  145MOL0     H19565   0.467  10.561  11.206  1.6549 -3.4242 -0.5801
  145MOL0     H19566   0.511  10.591  11.370 -0.1102  1.1149 -0.8409
  145MOL0     H19567   0.258  10.606  11.436  2.2713  0.2113  1.6892
  145MOL0     H19568   0.220  10.572  11.268 -2.9908  0.2022  3.6231
  145MOL0     H19569   0.391  10.814  11.359 -1.4091 -0.5186  1.1197
  145MOL0     H19570   0.359  10.774  11.194  1.1035  1.4363  1.1851
  145MOL0     H19571  -0.027  10.915  11.322  1.0632  4.0099  1.8776
  145MOL0     H19572   0.759  10.214  11.331 -0.4692 -0.5830  0.0693
  145MOL0     H19573   0.924  10.065  11.315 -1.1263 -0.5784  1.6188
  145MOL0     H19574   0.859   9.904  11.352  1.1891 -0.3231 -1.2303
  145MOL0     H19575   0.904   9.935  11.192  0.4272 -0.5397  0.6434
  146MOL0     O19576  11.348   8.665   6.429  0.2676  0.5284  0.2590
  146MOL0     C19577  11.395   8.737   6.337  0.7722 -0.2212  0.0308
  146MOL0     O19578  11.357   8.865   6.302 -0.1184 -0.0811 -0.1826
  146MOL0     C19579  11.287   8.958   6.375 -0.3904 -0.5274 -0.2569
  146MOL0     C19580  11.240   8.945   6.499  0.2058  1.7616  0.2148
  146MOL0     C19581  11.182   9.056   6.563 -0.7712 -0.6124 -0.1461
  146MOL0     C19582  11.165   9.178   6.488  0.2260  0.1206  0.0486
  146MOL0     O19583  11.096   9.276   6.544 -0.6474  0.2959 -0.0676
  146MOL0     C19584  11.045   9.386   6.472  0.2177 -0.6474 -0.1284
  146MOL0     C19585  10.923   9.348   6.383 -0.5852  0.2281 -0.4693
  146MOL0     C19586  10.932   9.407   6.240  0.0492  0.3957 -0.4846
  146MOL0     C19587  10.921   9.557   6.250 -0.8926 -1.4504  0.0314
  146MOL0     C19588  10.897   9.610   6.103  0.3996  0.3257  0.9896
  146MOL0     C19589  10.912   9.756   6.076 -0.1843 -0.8178  0.3091
  146MOL0     C19590  11.060   9.807   6.069 -0.5208  1.5406 -0.2417
  146MOL0     C19591  11.078   9.952   6.032  1.6431  0.6102 -0.4198
  146MOL0     N19592  11.028  10.037   6.150 -0.1754 -0.2591  0.0253
  146MOL0     C19593  10.897  10.080   6.173 -0.0956  0.6638 -0.3466
  146MOL0     C19594  10.908  10.159   6.285  1.0524 -0.0649  0.7913
  146MOL0     C19595  10.789  10.230   6.332  0.5358  0.3865  0.0749
  146MOL0     C19596  10.735  10.173   6.467  0.5737 -0.9329 -0.3816
  146MOL0     C19597  10.687  10.025   6.484 -0.2503 -0.0690 -0.2541
  146MOL0     C19598  10.628   9.960   6.362  1.1075 -0.4031  0.7170
  146MOL0     O19599  10.518  10.029   6.309  0.0650  0.2770  0.4595
  146MOL0     C19600  10.422  10.045   6.394  0.3562  0.6468 -0.1736
  146MOL0     C19601  10.348   9.936   6.449 -1.2454  0.2101  0.5007
  146MOL0     C19602  10.235   9.960   6.531 -0.1850  0.5922  0.0004
  146MOL0     C19603  10.201  10.085   6.571  0.1779 -0.7610  0.2090
  146MOL0     C19604  10.083  10.109   6.652 -0.4930  0.1213 -0.1640
  146MOL0     O19605   9.984  10.009   6.668 -0.1232  0.9858  0.6216
  146MOL0     C19606   9.874  10.043   6.725  0.1992 -0.7164 -0.4127
  146MOL0     C19607   9.846  10.006   6.859 -0.7180 -0.2512  0.5321
  146MOL0     C19608   9.730  10.040   6.926  0.5813  0.6829  0.5834
  146MOL0     C19609   9.638  10.119   6.861  1.0118 -1.1897  0.4568
  146MOL0     O19610   9.502  10.129   6.897 -0.2068 -0.2317 -0.5944
  146MOL0     C19611   9.448  10.023   6.980 -0.9899  0.6497  0.5315
  146MOL0     C19612   9.294  10.018   6.957 -0.0698 -0.7825  0.3085
  146MOL0     C19613   9.260   9.993   6.812 -0.3473 -0.3487  0.0502
  146MOL0     C19614   9.110  10.028   6.788 -0.5361  0.0014 -0.5119
  146MOL0     C19615   9.007   9.922   6.821 -0.1365  0.9637  0.2503
  146MOL0     C19616   9.043   9.786   6.749  0.7639  0.0298  0.7281
  146MOL0     C19617   8.929   9.679   6.748  0.0359 -0.5009 -0.4474
  146MOL0     C19618   8.933   9.579   6.633  0.2892  0.8401  0.5303
  146MOL0    Cl19619   8.872   9.654   6.486 -0.5460 -0.1547  0.4644
  146MOL0     C19620   9.664  10.178   6.734  0.0565  0.8263 -0.1709
  146MOL0     C19621   9.782  10.135   6.668 -0.1893 -0.3645 -0.4655
  146MOL0     O19622  10.075  10.220   6.701  0.7906  0.2599 -0.9895
  146MOL0     C19623  10.267  10.194   6.516 -0.6366 -0.4620 -0.2229
  146MOL0     C19624  10.378  10.173   6.432  0.3532 -0.8902  1.1191
  146MOL0     N19625  11.042  10.156   6.330  0.5335 -0.9937 -1.2954
  146MOL0     N19626  11.114  10.085   6.246  0.0766 -0.0015 -0.5869
  146MOL0     C19627  11.204   9.178   6.362 -0.0426 -0.2644 -0.1932
  146MOL0     C19628  11.270   9.073   6.302 -0.2635  0.4920  0.3052
  146MOL0     C19629  11.480   8.678   6.231 -0.0446 -0.0492  0.8159
  146MOL0     C19630  11.474   8.736   6.105 -0.6512  0.0338  0.0010
  146MOL0     C19631  11.563   8.683   6.002  0.0630 -0.3207 -0.1134
  146MOL0     C19632  11.651   8.574   6.027 -0.2267 -0.7318 -0.0442
  146MOL0     O19633  11.728   8.524   5.925  0.8594  0.0979  0.3014
  146MOL0     C19634  11.663   8.471   5.803  1.3105  0.1951 -1.1610
  146MOL0     C19635  11.568   8.364   5.818  1.0743  0.7224  0.0309
  146MOL0     C19636  11.486   8.330   5.688 -0.0090  0.4420  0.2617
  146MOL0     C19637  11.578   8.251   5.588  0.7385 -0.0136 -0.5522
  146MOL0     C19638  11.503   8.225   5.458  0.3663 -0.5407 -0.9827
  146MOL0     C19639  11.439   8.183   5.366 -0.0817  1.0912  0.5430
  146MOL0     C19640  11.640   8.507   6.148  0.4663 -0.7513 -0.6465
  146MOL0     C19641  11.550   8.552   6.249  0.4850 -1.1126  0.3155
  146MOL0     C19642  11.546   8.474   6.383 -0.3834 -0.1598  0.7293
  146MOL0     H19643  11.257   8.848   6.544  0.8878  0.2129 -3.0777
  146MOL0     H19644  11.133   9.022   6.653  2.1202 -2.2255  0.9473
  146MOL0     H19645  11.014   9.467   6.539  0.0354 -0.6373 -0.2222
  146MOL0     H19646  11.125   9.424   6.408 -3.1341  2.7626 -2.7224
  146MOL0     H19647  10.828   9.375   6.431 -0.0367  2.1517 -0.3614
  146MOL0     H19648  10.922   9.239   6.378 -0.4578 -0.0998  3.3692
  146MOL0     H19649  10.844   9.372   6.185  1.2009  1.4945 -3.2063
  146MOL0     H19650  11.024   9.382   6.187  0.1659  1.8312 -0.9889
  146MOL0     H19651  10.836   9.572   6.318 -0.4474 -0.6254  0.4196
  146MOL0     H19652  11.006   9.610   6.293 -2.8669  0.5314  1.7680
  146MOL0     H19653  10.975   9.562   6.042  0.8006  0.5115  1.3551
  146MOL0     H19654  10.800   9.583   6.059 -0.9173  2.0363  2.6856
  146MOL0     H19655  10.870   9.777   5.977  1.0284  1.0346  0.1362
  146MOL0     H19656  10.863   9.801   6.163 -1.7821 -0.0215 -0.9467
  146MOL0     H19657  11.115   9.746   5.998  2.3685 -2.3279  4.6725
  146MOL0     H19658  11.113   9.782   6.161 -1.2630 -2.0426 -0.6521
  146MOL0     H19659  11.184   9.969   6.014  1.6986 -1.0146 -1.9095
  146MOL0     H19660  11.017   9.969   5.943 -0.8065  1.4588  1.3084
  146MOL0     H19661  10.810  10.047   6.118  2.3711 -3.1304 -2.4653
  146MOL0     H19662  10.820  10.334   6.346  1.6680  0.0910 -0.1349
  146MOL0     H19663  10.710  10.233   6.257  1.7938 -0.6330 -1.3542
  146MOL0     H19664  10.809  10.184   6.547 -4.0709  1.7058  4.2666
  146MOL0     H19665  10.657  10.244   6.500  2.2012  0.8188 -0.1275
  146MOL0     H19666  10.623  10.007   6.571  0.3699  0.9141  0.4131
  146MOL0     H19667  10.777   9.966   6.503  0.1549 -0.6362 -3.2744
  146MOL0     H19668  10.587   9.860   6.378 -1.8922 -0.1428 -3.5667
  146MOL0     H19669  10.709   9.945   6.289  0.5397 -1.1477  0.2292
  146MOL0     H19670  10.375   9.833   6.427  0.1932  0.6939 -0.0914
  146MOL0     H19671  10.182   9.876   6.575 -4.2859  2.9528  0.1057
  146MOL0     H19672   9.909   9.935   6.911 -1.9043 -3.4986 -2.0544
  146MOL0     H19673   9.715   9.988   7.019  1.0045  0.8700  0.7592
  146MOL0     H19674   9.492   9.925   6.959  1.9750  1.5580  2.0158
  146MOL0     H19675   9.477  10.044   7.083 -0.9725  1.2930  0.3972
  146MOL0     H19676   9.240   9.942   7.015  0.0941  0.7864  2.6437
  146MOL0     H19677   9.248  10.113   6.988 -2.7016 -1.5343 -0.9739
  146MOL0     H19678   9.312  10.066   6.750  1.6014 -3.0032 -1.6677
  146MOL0     H19679   9.297   9.894   6.784 -0.9415 -0.4784 -0.3086
  146MOL0     H19680   9.114  10.028   6.678 -0.1220  1.1720 -0.5065
  146MOL0     H19681   9.090  10.122   6.840  2.0087  1.0609 -1.2858
  146MOL0     H19682   8.909   9.957   6.788  0.3896 -0.4466 -3.1497
  146MOL0     H19683   9.014   9.902   6.929  1.0276 -2.3266 -0.3338
  146MOL0     H19684   9.054   9.812   6.644 -0.5893  3.0854  1.2272
  146MOL0     H19685   9.139   9.745   6.782  1.6771  1.8979  0.5384
  146MOL0     H19686   8.835   9.735   6.757  0.0493 -0.5926  0.2973
  146MOL0     H19687   8.926   9.623   6.841  2.1721 -0.0548 -0.0561
  146MOL0     H19688   9.036   9.545   6.619 -0.0847  0.2562 -0.9444
  146MOL0     H19689   8.869   9.492   6.652  1.9623 -0.4660  0.3714
  146MOL0     H19690   9.587  10.240   6.688  0.3929  0.7308 -0.8735
  146MOL0     H19691   9.809  10.145   6.563 -1.1495 -0.1578 -0.7009
  146MOL0     H19692  10.244  10.296   6.545 -2.5659 -0.8640 -0.2634
  146MOL0     H19693  10.436  10.255   6.391 -2.0880  0.3635 -0.0276
  146MOL0     H19694  11.182   9.258   6.292  2.0280  0.8340  0.3211
  146MOL0     H19695  11.287   9.075   6.195  1.5749 -1.7942  0.4780
  146MOL0     H19696  11.424   8.829   6.082 -0.2815 -0.2741 -2.3507
  146MOL0     H19697  11.563   8.736   5.907  0.1787  0.1486  0.1442
  146MOL0     H19698  11.748   8.427   5.750  4.5998  0.5600  3.2827
  146MOL0     H19699  11.622   8.555   5.746 -0.3520  2.0839  2.4762
  146MOL0     H19700  11.500   8.396   5.898  0.0364 -1.3834  0.0546
  146MOL0     H19701  11.625   8.280   5.858  0.3022 -0.9009 -2.0387
  146MOL0     H19702  11.449   8.426   5.651 -0.4144 -1.1364 -3.9226
  146MOL0     H19703  11.403   8.266   5.719  1.2863 -1.0268  0.8416
  146MOL0     H19704  11.661   8.320   5.571  1.5244 -1.0640 -1.1070
  146MOL0     H19705  11.619   8.159   5.631 -1.1296 -0.3540  0.5856
  146MOL0     H19706  11.381   8.134   5.290  5.8682 -0.7707 -3.5357
  146MOL0     H19707  11.689   8.412   6.170 -1.1413 -1.4580  0.0659
  146MOL0     H19708  11.625   8.398   6.371 -0.2114 -0.3970  2.9252
  146MOL0     H19709  11.574   8.536   6.469  5.2372 -1.1281  0.0219
  146MOL0     H19710  11.448   8.426   6.393 -0.6617  0.3800  0.5668
  147MOL0     O19711   4.402   1.884   3.182  0.2418 -0.7007 -0.2438
  147MOL0     C19712   4.347   1.961   3.264  0.0417 -0.6104  0.2606
  147MOL0     O19713   4.214   1.955   3.316  0.2454 -0.0986 -0.2923
  147MOL0     C19714   4.114   1.871   3.270 -0.1208  0.1693  0.3415
  147MOL0     C19715   4.003   1.867   3.350  0.0044  0.6366  0.3343
  147MOL0     C19716   3.898   1.784   3.308  0.3823  1.0562  0.2031
  147MOL0     C19717   3.889   1.712   3.181  0.8121 -0.2432  1.0267
  147MOL0     O19718   3.774   1.652   3.132  0.1239  0.0686 -0.7760
  147MOL0     C19719   3.698   1.574   3.234  0.2169  0.3994 -0.6638
  147MOL0     C19720   3.552   1.618   3.251 -0.0596 -0.2516 -0.5340
  147MOL0     C19721   3.467   1.573   3.125  0.0968  0.1811 -1.0178
  147MOL0     C19722   3.377   1.695   3.087 -0.2684  0.1741 -0.1096
  147MOL0     C19723   3.314   1.666   2.954 -0.9363 -0.3436  0.8960
  147MOL0     C19724   3.239   1.783   2.889 -0.2027 -0.0721  0.3137
  147MOL0     C19725   3.114   1.837   2.968 -1.1285 -0.6546  0.3630
  147MOL0     C19726   2.983   1.786   2.917  0.6464  1.2537 -0.0770
  147MOL0     N19727   2.894   1.727   3.017  0.5192  0.3533  0.1245
  147MOL0     C19728   2.833   1.804   3.120  0.8423 -0.3287  0.1086
  147MOL0     C19729   2.728   1.733   3.157 -0.5765 -0.0076  0.5471
  147MOL0     C19730   2.634   1.764   3.260  0.8238 -0.4358 -0.7853
  147MOL0     C19731   2.556   1.640   3.317 -0.9001 -0.4352  0.2076
  147MOL0     C19732   2.460   1.691   3.421  1.3623  0.1440  0.1938
  147MOL0     C19733   2.336   1.769   3.382 -0.3886  0.3344 -0.9058
  147MOL0     O19734   2.253   1.699   3.296 -0.3244  0.3307  0.2390
  147MOL0     C19735   2.133   1.758   3.254 -0.2698 -0.4275 -0.2820
  147MOL0     C19736   2.084   1.880   3.292 -0.6997 -0.0861  0.2734
  147MOL0     C19737   1.959   1.917   3.247  0.1284  0.0122 -0.3191
  147MOL0     C19738   1.895   1.846   3.152 -0.5239  0.6570 -0.0648
  147MOL0     C19739   1.774   1.896   3.084 -0.5749 -0.4598 -0.0861
  147MOL0     O19740   1.739   1.836   2.964 -0.4847 -0.1054 -0.6636
  147MOL0     C19741   1.613   1.853   2.917  0.6761  0.2420 -0.8519
  147MOL0     C19742   1.492   1.874   2.991 -0.5861 -0.2342 -0.2269
  147MOL0     C19743   1.372   1.909   2.929  0.5997 -0.1445  0.2345
  147MOL0     C19744   1.369   1.918   2.784  0.0024 -0.0164 -1.2622
  147MOL0     O19745   1.255   1.957   2.716 -0.1590  0.0974  0.7854
  147MOL0     C19746   1.171   1.863   2.665 -0.0861  0.3871 -0.5837
  147MOL0     C19747   1.042   1.926   2.618 -0.5561  0.4754  0.4515
  147MOL0     C19748   0.917   1.847   2.629 -0.3722  0.1550  1.5544
  147MOL0     C19749   0.915   1.710   2.553 -0.2052  0.2927 -0.3073
  147MOL0     C19750   0.877   1.737   2.400 -1.1962 -0.6873 -0.2126
  147MOL0     C19751   0.742   1.804   2.368  0.2741 -0.0432 -0.4156
  147MOL0     C19752   0.637   1.750   2.452  0.1114 -0.6585  0.2662
  147MOL0     C19753   0.503   1.760   2.362  0.1741 -0.3516 -0.4803
  147MOL0    Cl19754   0.478   1.926   2.295 -0.1699 -0.0658  0.4562
  147MOL0     C19755   1.483   1.888   2.711  0.0625 -0.8650  0.3555
  147MOL0     C19756   1.600   1.865   2.774 -0.4125  0.7149  0.2794
  147MOL0     O19757   1.715   1.989   3.140 -0.8903 -1.2052  0.7287
  147MOL0     C19758   1.947   1.726   3.115 -0.6404 -0.9765  1.1584
  147MOL0     C19759   2.070   1.680   3.158  0.5419  0.2019  0.2102
  147MOL0     N19760   2.719   1.620   3.069  0.6833 -0.1381 -0.3772
  147MOL0     N19761   2.819   1.618   2.988 -0.5207 -0.5385  0.1772
  147MOL0     C19762   3.998   1.733   3.097 -0.9612  0.3317  0.2181
  147MOL0     C19763   4.114   1.814   3.141 -0.1483 -0.3813 -0.5082
  147MOL0     C19764   4.431   2.065   3.336 -0.1478  0.8519  0.0225
  147MOL0     C19765   4.415   2.083   3.473  0.7088 -0.0842  0.3768
  147MOL0     C19766   4.496   2.156   3.544  0.4357 -0.8223 -0.1696
  147MOL0     C19767   4.605   2.226   3.500 -0.5171  0.0425 -0.0880
  147MOL0     O19768   4.692   2.301   3.576  0.0287  0.2054 -0.2933
  147MOL0     C19769   4.677   2.318   3.717  0.1758 -0.9897  0.5196
  147MOL0     C19770   4.768   2.422   3.776 -0.2480  0.3107 -0.0379
  147MOL0     C19771   4.908   2.379   3.767  0.6833 -0.3174 -0.7445
  147MOL0     C19772   5.012   2.476   3.817 -0.1927  0.0713 -0.1127
  147MOL0     C19773   4.987   2.609   3.756  0.6044 -0.4699 -0.1579
  147MOL0     C19774   4.970   2.721   3.704  0.6531 -0.2859  0.5497
  147MOL0     C19775   4.627   2.219   3.360  0.3250 -0.6204  0.0843
  147MOL0     C19776   4.534   2.146   3.283 -1.0388 -0.6557  0.1119
  147MOL0     C19777   4.552   2.161   3.136  0.0351  0.0302  0.7936
  147MOL0     H19778   4.003   1.897   3.454  0.6341  1.9344 -0.0184
  147MOL0     H19779   3.802   1.793   3.358 -0.7945  2.6230 -2.1554
  147MOL0     H19780   3.708   1.470   3.204  1.5868  0.3885 -0.2529
  147MOL0     H19781   3.743   1.576   3.333 -0.2768  1.8721 -0.4407
  147MOL0     H19782   3.552   1.726   3.270 -2.3505 -0.6198  2.2982
  147MOL0     H19783   3.503   1.581   3.341  1.8746 -0.2819  0.5669
  147MOL0     H19784   3.404   1.487   3.147 -3.7899  2.6689 -1.5190
  147MOL0     H19785   3.533   1.553   3.040  3.0561 -0.4810  1.2700
  147MOL0     H19786   3.309   1.712   3.171 -1.1083 -0.2439 -0.6864
  147MOL0     H19787   3.439   1.785   3.081  3.5397 -2.1788 -6.0005
  147MOL0     H19788   3.383   1.633   2.876 -3.1147 -0.1569 -1.2179
  147MOL0     H19789   3.241   1.584   2.958 -2.5631  1.0750  1.0765
  147MOL0     H19790   3.307   1.865   2.866  1.1999 -1.3585 -0.2611
  147MOL0     H19791   3.203   1.748   2.792  1.6395 -2.8271  0.5111
  147MOL0     H19792   3.106   1.946   2.969 -1.2204 -0.5641 -2.3884
  147MOL0     H19793   3.136   1.815   3.073 -0.6144  3.4122  1.2746
  147MOL0     H19794   2.923   1.854   2.857 -1.2105  1.9468  2.3928
  147MOL0     H19795   3.004   1.697   2.857  2.1071  1.1961  0.4595
  147MOL0     H19796   2.845   1.907   3.155  0.4966 -0.9564  2.2346
  147MOL0     H19797   2.689   1.814   3.340 -0.3659 -1.0813  0.4753
  147MOL0     H19798   2.564   1.835   3.216 -1.9905 -2.6107 -0.1171
  147MOL0     H19799   2.504   1.590   3.236  0.1057  1.6504 -1.8355
  147MOL0     H19800   2.634   1.570   3.348 -1.5835 -1.6462 -0.7460
  147MOL0     H19801   2.518   1.747   3.496  1.5777  0.1299  0.0369
  147MOL0     H19802   2.424   1.598   3.466 -0.6783  1.7501  2.1591
  147MOL0     H19803   2.361   1.867   3.343  1.5475 -1.1110 -3.6330
  147MOL0     H19804   2.282   1.793   3.474 -1.3099  2.1312 -1.8631
  147MOL0     H19805   2.129   1.950   3.362  0.5763 -0.2258 -0.3810
  147MOL0     H19806   1.916   2.011   3.281  0.2621 -0.1017  0.1573
  147MOL0     H19807   1.495   1.885   3.099 -1.9129  2.0713 -0.3388
  147MOL0     H19808   1.280   1.929   2.981  0.7625 -1.3564  1.0013
  147MOL0     H19809   1.218   1.808   2.583 -1.8310 -2.2907  0.0926
  147MOL0     H19810   1.149   1.795   2.748 -0.0922  0.5636 -0.4397
  147MOL0     H19811   1.023   2.014   2.680 -1.7825  1.0006 -0.6252
  147MOL0     H19812   1.070   1.950   2.515  0.8013  0.0870  0.7102
  147MOL0     H19813   0.889   1.832   2.734  0.6480 -2.9112  1.4939
  147MOL0     H19814   0.853   1.908   2.565  0.1315  2.2431  2.9418
  147MOL0     H19815   0.846   1.638   2.598  2.8443 -0.5690  3.4969
  147MOL0     H19816   1.008   1.659   2.579 -0.1360  1.0884  1.0890
  147MOL0     H19817   0.874   1.641   2.347  0.9249 -1.2347  0.5935
  147MOL0     H19818   0.954   1.807   2.366 -0.7629  0.5915  3.0853
  147MOL0     H19819   0.757   1.911   2.386  0.7610  0.2797 -2.4461
  147MOL0     H19820   0.715   1.789   2.263 -0.1688 -2.1155 -0.0416
  147MOL0     H19821   0.624   1.800   2.548 -2.9895  0.0407 -0.3931
  147MOL0     H19822   0.670   1.649   2.478  2.0657  1.1618  6.3090
  147MOL0     H19823   0.508   1.685   2.282  1.7881  0.8810 -1.5973
  147MOL0     H19824   0.413   1.726   2.414 -0.1797  1.6090  0.2992
  147MOL0     H19825   1.477   1.904   2.604 -1.7820 -0.8262  0.4224
  147MOL0     H19826   1.699   1.848   2.731 -0.6194  0.1724  0.0043
  147MOL0     H19827   1.903   1.665   3.037 -2.1626 -2.1206  2.8059
  147MOL0     H19828   2.111   1.589   3.116  0.6995  0.0506  0.6801
  147MOL0     H19829   4.005   1.692   2.996  0.6496  1.6676 -0.2616
  147MOL0     H19830   4.195   1.834   3.070 -0.5876  1.2212 -0.5982
  147MOL0     H19831   4.327   2.041   3.521  1.0365 -0.6954  0.4570
  147MOL0     H19832   4.458   2.174   3.644 -0.9695 -0.7938 -0.6785
  147MOL0     H19833   4.682   2.219   3.762 -1.9564 -1.5233 -0.2754
  147MOL0     H19834   4.574   2.350   3.736 -0.0719 -0.2623 -1.7368
  147MOL0     H19835   4.733   2.443   3.877 -1.4744  3.4422 -0.9823
  147MOL0     H19836   4.750   2.515   3.720 -1.8419  1.0947  1.6710
  147MOL0     H19837   4.934   2.361   3.662  2.1592  0.1021 -0.4790
  147MOL0     H19838   4.937   2.288   3.821  5.7769 -1.2200 -4.2621
  147MOL0     H19839   5.015   2.480   3.926 -1.0341 -2.7517  0.1099
  147MOL0     H19840   5.102   2.422   3.787 -0.2038 -1.2454  2.0528
  147MOL0     H19841   4.947   2.803   3.638 -1.1709 -2.6462 -1.9969
  147MOL0     H19842   4.712   2.266   3.312  1.9047 -2.3829  1.0466
  147MOL0     H19843   4.449   2.176   3.101  0.5770  1.9279 -0.1120
  147MOL0     H19844   4.621   2.240   3.107  3.8982 -2.1796  3.1756
  147MOL0     H19845   4.587   2.074   3.080 -4.3405  0.2435 -2.8861
  148MOL0     O19846   0.083  10.287   6.736 -0.9695 -0.7160  0.4704
  148MOL0     C19847   0.010  10.188   6.718 -0.0413  0.4288 -0.0600
  148MOL0     O19848  -0.127  10.186   6.692 -0.1317 -1.2968  0.2400
  148MOL0     C19849  -0.206  10.295   6.688  0.2776  0.7399  0.0493
  148MOL0     C19850  -0.319  10.290   6.606 -1.0853  0.1928 -0.9735
  148MOL0     C19851  -0.403  10.400   6.583 -0.2274 -1.1822  0.5554
  148MOL0     C19852  -0.388  10.518   6.656 -0.9347  0.4807 -0.4713
  148MOL0     O19853  -0.458  10.633   6.645  0.7370  0.6076  0.6212
  148MOL0     C19854  -0.589  10.640   6.587  0.5371 -0.3450  0.3226
  148MOL0     C19855  -0.674  10.730   6.676 -0.0653 -0.9106  0.0535
  148MOL0     C19856  -0.818  10.753   6.615 -0.9021 -0.3296  0.4116
  148MOL0     C19857  -0.920  10.810   6.714 -0.5840 -0.2230 -0.2199
  148MOL0     C19858  -1.043  10.855   6.636  1.2361 -0.4617 -0.0660
  148MOL0     C19859  -1.155  10.924   6.728 -0.1151 -0.3145 -0.9726
  148MOL0     C19860  -1.235  10.832   6.818  0.6071  0.1921 -0.3274
  148MOL0     C19861  -1.345  10.883   6.916  0.2757 -0.7164  0.0575
  148MOL0     N19862  -1.425  10.952   6.819  0.4334 -0.7719 -0.3262
  148MOL0     C19863  -1.535  10.911   6.750 -0.4400 -0.8113  0.2033
  148MOL0     C19864  -1.572  11.020   6.681 -0.2533  0.3536  0.5115
  148MOL0     C19865  -1.656  11.024   6.555 -0.2104 -0.0781 -0.3669
  148MOL0     C19866  -1.753  11.138   6.548  0.0964 -0.5403  0.0418
  148MOL0     C19867  -1.825  11.172   6.418 -0.7205 -0.3723 -0.0014
  148MOL0     C19868  -1.954  11.250   6.441 -0.0955 -0.5098  0.3426
  148MOL0     O19869  -2.057  11.173   6.498  0.9177 -0.4112 -0.1992
  148MOL0     C19870  -2.137  11.092   6.415  0.2557  0.6768 -0.3039
  148MOL0     C19871  -2.208  11.127   6.300  1.6611  0.7155  0.2756
  148MOL0     C19872  -2.281  11.019   6.238 -0.6926 -0.0997  0.4687
  148MOL0     C19873  -2.274  10.884   6.279  0.1327  1.0969 -0.0644
  148MOL0     C19874  -2.337  10.767   6.208 -0.1296 -0.5016  0.1566
  148MOL0     O19875  -2.357  10.651   6.282  0.7130  0.1120 -0.2255
  148MOL0     C19876  -2.436  10.563   6.217 -0.7776 -0.2968  0.6077
  148MOL0     C19877  -2.570  10.583   6.190 -0.5640  0.8961  0.2968
  148MOL0     C19878  -2.635  10.486   6.114  0.1062 -0.1870  1.3685
  148MOL0     C19879  -2.581  10.355   6.099 -0.3635  0.0928  0.1028
  148MOL0     O19880  -2.648  10.254   6.042 -0.0573 -0.0526  0.3289
  148MOL0     C19881  -2.709  10.286   5.917  0.1888  1.0721  0.2103
  148MOL0     C19882  -2.631  10.372   5.814  0.0191 -0.5528  0.3567
  148MOL0     C19883  -2.497  10.312   5.760 -0.0381 -0.2750 -0.7675
  148MOL0     C19884  -2.416  10.406   5.666 -0.1077  0.0032  0.0725
  148MOL0     C19885  -2.268  10.363   5.657 -0.1471  0.6878 -0.8835
  148MOL0     C19886  -2.252  10.231   5.580 -0.1508  0.6099 -1.2656
  148MOL0     C19887  -2.114  10.196   5.536  0.2943  0.6078  0.3061
  148MOL0     C19888  -2.066  10.266   5.415  0.5474 -0.3193  0.5889
  148MOL0    Cl19889  -2.051  10.443   5.431 -0.5888  0.3224 -0.2580
  148MOL0     C19890  -2.444  10.340   6.125  0.1173 -0.2811  0.5583
  148MOL0     C19891  -2.376  10.440   6.188  0.0330 -0.1699 -0.3820
  148MOL0     O19892  -2.374  10.789   6.092  0.2625 -1.0264 -0.0405
  148MOL0     C19893  -2.196  10.858   6.392 -0.9819 -0.6005 -0.9417
  148MOL0     C19894  -2.129  10.956   6.467  0.5551  0.3813 -0.3339
  148MOL0     N19895  -1.510  11.133   6.735  1.1607 -0.3329 -0.1266
  148MOL0     N19896  -1.428  11.085   6.818  0.2189  0.6505  0.0303
  148MOL0     C19897  -0.290  10.521   6.766 -0.1375  0.7512 -0.6327
  148MOL0     C19898  -0.198  10.413   6.769  1.0076  0.5479  0.1948
  148MOL0     C19899   0.081  10.059   6.678 -0.1988  0.3130  0.4400
  148MOL0     C19900   0.028   9.988   6.573 -0.0007 -0.6842  0.3668
  148MOL0     C19901   0.080   9.886   6.515  0.2534  0.5006 -1.0576
  148MOL0     C19902   0.204   9.837   6.559  0.7911  0.7836  0.4932
  148MOL0     O19903   0.266   9.723   6.504 -0.3699  0.2488  0.0036
  148MOL0     C19904   0.186   9.597   6.524 -0.7354 -0.5457  0.1774
  148MOL0     C19905   0.157   9.576   6.671 -0.2189 -0.9129 -0.2032
  148MOL0     C19906   0.046   9.474   6.702  0.3681  1.4376  0.0877
  148MOL0     C19907   0.067   9.326   6.650 -1.1784 -1.2890 -0.7412
  148MOL0     C19908   0.181   9.258   6.701  0.2154 -0.8671  0.1539
  148MOL0     C19909   0.291   9.204   6.723 -0.3440  0.2295 -0.5925
  148MOL0     C19910   0.270   9.903   6.662  0.3127  0.7992 -0.8634
  148MOL0     C19911   0.203  10.007   6.730  1.0357 -0.8090  0.5796
  148MOL0     C19912   0.271  10.069   6.853 -0.5951 -0.1668  0.3035
  148MOL0     H19913  -0.334  10.201   6.548  0.2183  0.1681 -1.2999
  148MOL0     H19914  -0.452  10.401   6.486  0.6494  0.1748  0.1061
  148MOL0     H19915  -0.569  10.679   6.487  3.5752  0.5713  1.1979
  148MOL0     H19916  -0.639  10.542   6.585 -0.6226  0.2057 -2.3071
  148MOL0     H19917  -0.618  10.824   6.677  1.1479 -1.6120  1.0642
  148MOL0     H19918  -0.678  10.684   6.775 -0.3045 -0.7552  0.1173
  148MOL0     H19919  -0.860  10.658   6.578 -0.5275 -1.4172  2.6315
  148MOL0     H19920  -0.818  10.816   6.525 -2.3196 -0.7575  0.0736
  148MOL0     H19921  -0.933  10.743   6.799 -3.7972 -0.2746 -0.6222
  148MOL0     H19922  -0.880  10.905   6.753 -1.9479  1.1419 -1.9549
  148MOL0     H19923  -1.019  10.941   6.573  0.9512 -1.2358 -1.2709
  148MOL0     H19924  -1.090  10.768   6.588  0.0760 -0.9097  1.7831
  148MOL0     H19925  -1.118  10.995   6.802  1.1753 -1.2092 -0.7351
  148MOL0     H19926  -1.230  10.976   6.668 -0.4023 -0.5595 -0.8293
  148MOL0     H19927  -1.171  10.780   6.891  1.9012 -2.4277 -3.0843
  148MOL0     H19928  -1.278  10.753   6.755  0.3900 -1.0465  1.2780
  148MOL0     H19929  -1.395  10.797   6.961  0.3076 -0.8758 -0.2075
  148MOL0     H19930  -1.322  10.945   7.003 -0.0311 -1.9343  1.0382
  148MOL0     H19931  -1.572  10.810   6.734 -2.1127 -0.0448 -1.1262
  148MOL0     H19932  -1.583  11.015   6.473 -1.5882 -1.9096 -1.4429
  148MOL0     H19933  -1.709  10.929   6.562  2.5583 -1.7297 -0.2141
  148MOL0     H19934  -1.818  11.117   6.633  0.1469  2.5843  0.9918
  148MOL0     H19935  -1.716  11.237   6.576  1.1106 -0.8747 -0.1073
  148MOL0     H19936  -1.841  11.084   6.356 -1.4265  0.9912 -1.8387
  148MOL0     H19937  -1.752  11.238   6.371  0.3963 -0.1972  1.8467
  148MOL0     H19938  -1.967  11.291   6.341  2.0303  0.4042  0.3769
  148MOL0     H19939  -1.933  11.338   6.504 -0.6986  0.6973 -1.0750
  148MOL0     H19940  -2.215  11.228   6.263  2.4132  0.4642 -0.5698
  148MOL0     H19941  -2.339  11.046   6.151  0.9462  0.4588 -0.5006
  148MOL0     H19942  -2.631  10.673   6.202 -1.2024  0.3854  1.0000
  148MOL0     H19943  -2.740  10.508   6.098  0.1142  2.7795  4.3025
  148MOL0     H19944  -2.725  10.186   5.876  2.8060  1.5994 -2.4502
  148MOL0     H19945  -2.809  10.328   5.934  0.6821  1.9813  0.9822
  148MOL0     H19946  -2.692  10.362   5.724  1.5804 -1.1926 -0.6810
  148MOL0     H19947  -2.620  10.478   5.839 -2.7520 -0.1227  0.0636
  148MOL0     H19948  -2.438  10.288   5.849 -4.2993  1.9624  3.0750
  148MOL0     H19949  -2.529  10.222   5.708 -2.9431 -0.9864  1.9613
  148MOL0     H19950  -2.436  10.509   5.697 -4.6793 -0.1599 -1.6225
  148MOL0     H19951  -2.460  10.405   5.566 -2.2747  3.6747  0.8078
  148MOL0     H19952  -2.223  10.353   5.757 -1.6175  0.1559 -0.2442
  148MOL0     H19953  -2.227  10.444   5.596 -1.8586  0.7599 -1.9871
  148MOL0     H19954  -2.299  10.150   5.636  0.7219  0.2569 -1.0157
  148MOL0     H19955  -2.312  10.242   5.489  1.4737  1.7063 -2.2806
  148MOL0     H19956  -2.109  10.093   5.500 -2.5241 -0.1816  1.8529
  148MOL0     H19957  -2.044  10.206   5.619 -0.6242 -0.2696  1.2277
  148MOL0     H19958  -1.972  10.216   5.387  0.4163 -1.6503  2.3346
  148MOL0     H19959  -2.139  10.257   5.334  1.0774  0.2831  0.0306
  148MOL0     H19960  -2.379  10.253   6.118  0.2200 -0.0871 -2.4888
  148MOL0     H19961  -2.270  10.434   6.212  0.0639  0.1405 -0.4366
  148MOL0     H19962  -2.178  10.755   6.420 -0.6952 -0.5808 -1.0517
  148MOL0     H19963  -2.071  10.924   6.553  1.3089  2.9986  0.2236
  148MOL0     H19964  -0.272  10.611   6.824 -1.6921  1.0968 -0.6311
  148MOL0     H19965  -0.111  10.436   6.830  0.3203  2.0965  0.6160
  148MOL0     H19966  -0.068  10.013   6.530  0.2217 -1.2848 -0.5153
  148MOL0     H19967   0.027   9.829   6.439 -0.6484 -0.4246  0.2308
  148MOL0     H19968   0.250   9.528   6.468  1.1478  1.9038 -0.8152
  148MOL0     H19969   0.095   9.610   6.464  0.7561  1.3307 -1.8381
  148MOL0     H19970   0.116   9.669   6.713 -2.0094 -0.8791 -1.8806
  148MOL0     H19971   0.248   9.543   6.722  0.5967 -1.8520 -2.1628
  148MOL0     H19972  -0.044   9.511   6.653 -0.8899 -1.1149  0.3125
  148MOL0     H19973   0.027   9.461   6.809  0.7627 -0.8844 -0.0810
  148MOL0     H19974  -0.021   9.262   6.663 -0.8029 -1.6829 -0.0749
  148MOL0     H19975   0.079   9.357   6.546  2.1244  2.8911  0.5574
  148MOL0     H19976   0.383   9.162   6.759 -0.7765 -1.2772 -1.1571
  148MOL0     H19977   0.363   9.864   6.700 -0.7244 -2.1796 -1.1539
  148MOL0     H19978   0.370  10.022   6.859  0.1544  0.8360 -2.6879
  148MOL0     H19979   0.295  10.172   6.827  3.7248 -1.9068 -4.2723
  148MOL0     H19980   0.217  10.055   6.947 -0.7093  0.6089  0.3612
  149MOL0     O19981   1.303  10.960   9.833 -1.0642 -0.5335 -0.3861
  149MOL0     C19982   1.267  11.011   9.943 -0.6328 -0.3004  0.6688
  149MOL0     O19983   1.347  11.093  10.023 -0.6736 -0.0311 -0.9166
  149MOL0     C19984   1.483  11.111  10.013 -1.2784 -0.3522 -0.9320
  149MOL0     C19985   1.525  11.227  10.070 -0.5947  1.1670 -0.2425
  149MOL0     C19986   1.663  11.257  10.088  0.0091 -0.2356  0.4421
  149MOL0     C19987   1.759  11.163  10.036 -0.1061 -0.4193 -0.0064
  149MOL0     O19988   1.888  11.207  10.042 -0.8109 -0.0906 -0.2717
  149MOL0     C19989   1.965  11.207   9.918  0.2395  0.4711  0.0264
  149MOL0     C19990   1.905  11.303   9.806  0.8845  0.6160 -0.6104
  149MOL0     C19991   1.991  11.300   9.683 -0.0949  0.2361 -0.0229
  149MOL0     C19992   1.911  11.335   9.549  0.0578  0.0223  0.2626
  149MOL0     C19993   1.994  11.396   9.440 -0.1563  0.1762 -0.4098
  149MOL0     C19994   2.122  11.330   9.386 -0.4352 -1.2531 -0.3250
  149MOL0     C19995   2.205  11.444   9.318  0.2818  0.7174  0.3466
  149MOL0     C19996   2.310  11.387   9.218  0.7836 -0.4616  0.2909
  149MOL0     N19997   2.370  11.500   9.145  0.4464  0.6780 -0.2382
  149MOL0     C19998   2.489  11.556   9.187  0.1369 -0.2708  0.1355
  149MOL0     C19999   2.511  11.664   9.110  1.0972 -0.3185  0.5069
  149MOL0     C20000   2.633  11.747   9.096 -0.7213 -0.4480 -0.1713
  149MOL0     C20001   2.665  11.822   9.227  0.3255  0.0974  0.3347
  149MOL0     C20002   2.597  11.959   9.257 -0.5517 -1.1201  0.0055
  149MOL0     C20003   2.450  11.951   9.268 -0.3575 -0.0243  0.7732
  149MOL0     O20004   2.400  11.861   9.369  0.4352  0.6945  0.6955
  149MOL0     C20005   2.274  11.862   9.420 -0.5810  0.2750 -0.0464
  149MOL0     C20006   2.174  11.791   9.360  0.7393 -0.8865 -0.0219
  149MOL0     C20007   2.046  11.778   9.423 -0.1262  1.0071  0.1912
  149MOL0     C20008   2.018  11.838   9.541 -1.0651  0.8396 -0.2245
  149MOL0     C20009   1.876  11.814   9.600  0.8001  0.9029  0.4341
  149MOL0     O20010   1.785  11.749   9.521  0.7152 -0.2216  0.5083
  149MOL0     C20011   1.650  11.729   9.565 -0.5863  0.1978 -0.3180
  149MOL0     C20012   1.546  11.775   9.486 -0.6205  1.0057  0.1262
  149MOL0     C20013   1.411  11.775   9.520 -0.1945 -0.5042 -0.2106
  149MOL0     C20014   1.374  11.714   9.641 -1.7104  1.0323  0.9183
  149MOL0     O20015   1.248  11.708   9.699  0.2058  0.8813 -0.0285
  149MOL0     C20016   1.134  11.734   9.612 -0.8531 -0.2046  0.6089
  149MOL0     C20017   1.003  11.694   9.681 -0.4141 -0.1280 -0.0462
  149MOL0     C20018   0.955  11.807   9.771  0.0939 -0.1546  0.1869
  149MOL0     C20019   0.815  11.764   9.834  0.6696  0.6418  0.3271
  149MOL0     C20020   0.776  11.865   9.933  0.1962 -1.2420 -1.0298
  149MOL0     C20021   0.683  11.970   9.886  0.4169 -0.2086 -0.0613
  149MOL0     C20022   0.648  12.070   9.988  0.1808 -0.1757  0.3504
  149MOL0     C20023   0.523  12.156   9.958  0.4592  0.1695  0.3903
  149MOL0    Cl20024   0.534  12.213   9.802  0.0358 -0.1710  0.3331
  149MOL0     C20025   1.474  11.650   9.716 -1.1591  0.3716  0.7083
  149MOL0     C20026   1.611  11.670   9.685  0.6079  0.3559 -0.0352
  149MOL0     O20027   1.851  11.862   9.713 -0.2091 -0.1143 -0.7158
  149MOL0     C20028   2.125  11.910   9.608 -0.7112 -0.7090  1.0111
  149MOL0     C20029   2.248  11.921   9.542 -0.5984 -0.4039  1.0002
  149MOL0     N20030   2.402  11.675   9.012 -1.1543 -0.2030  0.3853
  149MOL0     N20031   2.314  11.577   9.051 -0.0727 -0.0412  0.1325
  149MOL0     C20032   1.711  11.057   9.961  0.0679  0.0712  0.8654
  149MOL0     C20033   1.576  11.017   9.957  0.1661 -0.0915  0.0382
  149MOL0     C20034   1.123  11.000   9.978 -0.9307  0.0572  0.5513
  149MOL0     C20035   1.068  11.108  10.059 -0.7722  1.0157  0.4497
  149MOL0     C20036   0.938  11.092  10.108  0.0829  0.3724  0.3886
  149MOL0     C20037   0.851  10.991  10.060  0.3441  0.6328 -0.1954
  149MOL0     O20038   0.722  10.955  10.092 -0.1428  0.1965  0.0135
  149MOL0     C20039   0.663  11.041  10.189  0.0668  0.6679 -0.0848
  149MOL0     C20040   0.526  10.987  10.231 -0.2454 -0.8347 -0.6163
  149MOL0     C20041   0.435  10.962  10.104 -0.2588 -0.6701 -0.2774
  149MOL0     C20042   0.309  10.876  10.136  0.3398  0.5193  0.3377
  149MOL0     C20043   0.227  10.858  10.017  0.9712 -0.1109 -0.6967
  149MOL0     C20044   0.167  10.856   9.910  0.0550 -0.1578 -0.7304
  149MOL0     C20045   0.915  10.899   9.973  0.2019 -0.6261  0.4570
  149MOL0     C20046   1.045  10.892   9.931  0.6955 -0.9374 -0.8632
  149MOL0     C20047   1.094  10.772   9.861  0.0766 -0.3283  0.5214
  149MOL0     H20048   1.439  11.279  10.112 -0.5292 -0.6868  2.4370
  149MOL0     H20049   1.691  11.344  10.145 -3.7765  0.7873  1.0130
  149MOL0     H20050   2.068  11.240   9.930 -0.1182  2.2104 -1.2209
  149MOL0     H20051   1.987  11.108   9.876  3.4834  1.7513 -1.5876
  149MOL0     H20052   1.916  11.396   9.862  0.2267  0.5233 -0.3148
  149MOL0     H20053   1.802  11.275   9.781  0.3957  2.1183 -0.3988
  149MOL0     H20054   2.040  11.202   9.683  0.0225  0.2850  0.8068
  149MOL0     H20055   2.077  11.368   9.686  0.5453 -0.5971  1.3056
  149MOL0     H20056   1.846  11.253   9.516  1.6349 -1.4780  0.6896
  149MOL0     H20057   1.842  11.416   9.570 -0.6468 -0.5312  0.1028
  149MOL0     H20058   1.927  11.414   9.356 -0.8588 -0.6759 -0.0569
  149MOL0     H20059   2.027  11.494   9.474 -1.7047  1.4264 -2.2997
  149MOL0     H20060   2.181  11.285   9.467  0.0192  1.6423  1.0851
  149MOL0     H20061   2.105  11.264   9.300  0.9885  3.2812 -4.5233
  149MOL0     H20062   2.249  11.496   9.404  0.3313  0.5247  0.4383
  149MOL0     H20063   2.141  11.521   9.273  1.6500  1.6724 -0.0531
  149MOL0     H20064   2.393  11.339   9.270  0.4190  0.8165  2.2018
  149MOL0     H20065   2.258  11.325   9.145 -1.3466  0.8444  0.5797
  149MOL0     H20066   2.570  11.519   9.249 -0.6216  0.5569  1.6761
  149MOL0     H20067   2.721  11.683   9.083  0.4081  0.2476  2.9592
  149MOL0     H20068   2.633  11.805   9.004 -0.6169  0.3865  0.3402
  149MOL0     H20069   2.640  11.751   9.307 -0.8341 -1.5454 -1.4136
  149MOL0     H20070   2.774  11.822   9.218  0.4318 -4.4319 -0.6538
  149MOL0     H20071   2.633  12.023   9.176 -1.5486 -0.0454  0.3933
  149MOL0     H20072   2.637  11.998   9.351  2.1946 -5.7568  1.0931
  149MOL0     H20073   2.409  11.906   9.177 -1.7815 -0.3596  1.5503
  149MOL0     H20074   2.405  12.048   9.291  1.3230  0.5489  1.7939
  149MOL0     H20075   2.206  11.737   9.271 -0.0542 -2.6834  0.7243
  149MOL0     H20076   1.970  11.726   9.364  3.1923 -2.3675 -1.5148
  149MOL0     H20077   1.577  11.825   9.395  2.1267 -0.2722  0.2673
  149MOL0     H20078   1.344  11.828   9.453  1.8413  0.2011 -1.7849
  149MOL0     H20079   1.123  11.841   9.589 -2.6466 -0.1173  1.6594
  149MOL0     H20080   1.146  11.678   9.519 -0.2561  2.4016 -1.0180
  149MOL0     H20081   0.919  11.681   9.612 -0.1794 -2.3788  0.0235
  149MOL0     H20082   1.025  11.595   9.720  2.0260 -1.9205 -5.0700
  149MOL0     H20083   1.036  11.828   9.841  0.8247 -0.8594 -0.4208
  149MOL0     H20084   0.944  11.897   9.711  2.0346  0.2117  0.2998
  149MOL0     H20085   0.835  11.666   9.879  0.4542 -0.9610 -2.7427
  149MOL0     H20086   0.736  11.751   9.759 -1.4741  0.0031  2.5444
  149MOL0     H20087   0.866  11.907   9.978 -1.2845 -1.1059  2.1022
  149MOL0     H20088   0.741  11.814  10.023  2.3710  2.6807  2.4197
  149MOL0     H20089   0.751  12.022   9.818  0.9293 -1.3537 -0.4611
  149MOL0     H20090   0.591  11.934   9.839 -0.7103  0.0434  1.8494
  149MOL0     H20091   0.727  12.146   9.994 -2.6643  3.2101 -1.5538
  149MOL0     H20092   0.647  12.023  10.087  1.0979 -1.0184 -0.0214
  149MOL0     H20093   0.428  12.103   9.969  0.7080 -0.2552  0.5290
  149MOL0     H20094   0.512  12.236  10.031 -3.8652 -0.4710  0.6818
  149MOL0     H20095   1.449  11.605   9.812 -0.9033 -0.5799  0.3410
  149MOL0     H20096   1.677  11.620   9.755 -3.1437 -3.1883  1.3751
  149MOL0     H20097   2.109  11.965   9.700  2.5563  0.2803  1.1237
  149MOL0     H20098   2.321  11.983   9.594  1.5438 -0.3671 -1.7889
  149MOL0     H20099   1.783  10.988   9.919 -1.6900  0.0013 -2.3494
  149MOL0     H20100   1.550  10.924   9.906 -0.7373  0.6919 -0.9767
  149MOL0     H20101   1.136  11.183  10.098  1.4496  0.5391 -2.2191
  149MOL0     H20102   0.901  11.162  10.182 -5.3937 -0.7724 -0.8950
  149MOL0     H20103   0.646  11.136  10.137 -1.8264  0.9712  0.9899
  149MOL0     H20104   0.725  11.055  10.278 -0.5694  1.1533  0.2816
  149MOL0     H20105   0.479  11.055  10.303 -0.5195 -0.9257 -0.7082
  149MOL0     H20106   0.541  10.897  10.290  2.9600  1.1045  1.8237
  149MOL0     H20107   0.489  10.917  10.020 -0.0086  0.1138 -0.5440
  149MOL0     H20108   0.408  11.062  10.069  2.0213  0.1556  0.1539
  149MOL0     H20109   0.334  10.775  10.168 -2.2705 -1.2672 -2.6531
  149MOL0     H20110   0.247  10.932  10.207 -0.6624  0.0216 -0.1159
  149MOL0     H20111   0.109  10.853   9.820 -1.4160  1.3682  0.1179
  149MOL0     H20112   0.873  10.803   9.942  0.8913 -1.6368  2.4447
  149MOL0     H20113   1.186  10.739   9.911  0.3549  2.3687  1.9825
  149MOL0     H20114   1.025  10.687   9.873 -0.8964  0.3421 -0.1847
  149MOL0     H20115   1.099  10.808   9.758 -0.1743  0.9708  0.9429
  150MOL0     O20116   1.645   2.796   7.096 -0.6664  0.7863 -0.6419
  150MOL0     C20117   1.711   2.882   7.046  0.0178 -0.3581 -0.5224
  150MOL0     O20118   1.669   2.988   6.984 -0.0626  0.2847 -0.4648
  150MOL0     C20119   1.528   3.006   6.990 -1.5177 -0.2003 -0.2068
  150MOL0     C20120   1.455   3.020   6.876 -0.4157  0.3107 -0.5024
  150MOL0     C20121   1.317   3.030   6.884 -0.4627  0.1836  0.9007
  150MOL0     C20122   1.245   3.020   7.003  0.8986  0.5999 -0.1929
  150MOL0     O20123   1.107   3.002   6.986  0.5020  0.5419  0.0497
  150MOL0     C20124   1.020   3.113   7.013  0.5311 -0.5821 -0.7094
  150MOL0     C20125   0.871   3.077   6.984 -0.8635  0.3998 -0.3056
  150MOL0     C20126   0.829   3.038   6.846  0.5354  0.5390  0.4087
  150MOL0     C20127   0.701   3.088   6.797  0.5356 -0.0072  0.0295
  150MOL0     C20128   0.681   3.038   6.645 -0.2018 -1.4842  0.2062
  150MOL0     C20129   0.550   3.091   6.605  0.5440 -0.1630 -1.2321
  150MOL0     C20130   0.527   3.032   6.465  0.1623 -0.1607 -0.1732
  150MOL0     C20131   0.384   3.056   6.408 -0.1829  1.2692 -0.0349
  150MOL0     N20132   0.272   2.971   6.458  0.8204  0.3903 -0.4900
  150MOL0     C20133   0.214   2.992   6.580  0.5410  0.3368  0.2666
  150MOL0     C20134   0.102   2.913   6.581 -0.1826  0.1069  0.6000
  150MOL0     C20135  -0.007   2.906   6.680 -0.6272  1.2046 -0.4386
  150MOL0     C20136  -0.146   2.963   6.632 -0.0920 -0.0801  0.1776
  150MOL0     C20137  -0.143   3.084   6.532  0.2947  0.5327  0.4730
  150MOL0     C20138  -0.283   3.136   6.513  0.4958  0.4655 -0.2411
  150MOL0     O20139  -0.284   3.266   6.450 -0.1864 -0.4171  0.5299
  150MOL0     C20140  -0.256   3.377   6.518 -0.4722 -0.0999 -0.4410
  150MOL0     C20141  -0.198   3.394   6.645 -0.5884  1.0244  0.3014
  150MOL0     C20142  -0.169   3.526   6.691 -0.1750  0.3056  0.7734
  150MOL0     C20143  -0.198   3.644   6.615  0.1133  0.6400 -0.2219
  150MOL0     C20144  -0.172   3.781   6.669  0.9140 -1.0742  0.1009
  150MOL0     O20145  -0.216   3.886   6.586 -0.0120 -0.5930 -0.4311
  150MOL0     C20146  -0.223   4.011   6.635  1.3754 -0.2311  0.1013
  150MOL0     C20147  -0.300   4.038   6.746  0.4791 -0.3115  0.1273
  150MOL0     C20148  -0.305   4.166   6.799  0.0989  0.5081  0.0194
  150MOL0     C20149  -0.243   4.267   6.733  1.4790  0.2293 -0.7282
  150MOL0     O20150  -0.262   4.398   6.785 -0.0268  0.0275  0.5084
  150MOL0     C20151  -0.191   4.511   6.731  0.7506  0.0649 -0.1690
  150MOL0     C20152  -0.227   4.643   6.786 -0.4458 -0.2945  0.0826
  150MOL0     C20153  -0.388   4.660   6.789  0.2909 -0.3864 -0.0427
  150MOL0     C20154  -0.458   4.666   6.656 -0.4458 -0.0187  0.8881
  150MOL0     C20155  -0.577   4.750   6.645 -0.2249  0.0890 -0.1386
  150MOL0     C20156  -0.700   4.680   6.705 -0.0013 -0.2838 -0.6373
  150MOL0     C20157  -0.794   4.783   6.784 -0.1646 -0.3027 -0.0770
  150MOL0     C20158  -0.882   4.721   6.898  0.0157  0.3473 -0.0743
  150MOL0    Cl20159  -0.769   4.679   7.026  0.6824 -0.0662  0.0444
  150MOL0     C20160  -0.153   4.241   6.633  0.5366 -0.2125  0.0199
  150MOL0     C20161  -0.145   4.109   6.575  1.1638 -0.3764  0.2837
  150MOL0     O20162  -0.102   3.794   6.769  0.5083 -0.3762 -0.3933
  150MOL0     C20163  -0.276   3.620   6.503 -0.7474 -0.1628  0.4339
  150MOL0     C20164  -0.296   3.489   6.454 -0.4295 -0.7871  0.5402
  150MOL0     N20165   0.091   2.860   6.451 -0.2993  0.2391 -0.5192
  150MOL0     N20166   0.195   2.888   6.385 -0.4965 -0.4227  0.0220
  150MOL0     C20167   1.314   2.993   7.114 -0.1872 -0.6942 -0.2472
  150MOL0     C20168   1.457   3.002   7.110 -0.6803  0.7079 -0.3021
  150MOL0     C20169   1.857   2.882   7.076  0.3255  0.0811  0.3397
  150MOL0     C20170   1.914   3.005   7.119 -0.4238 -0.3192  0.1639
  150MOL0     C20171   2.053   3.011   7.146  0.4425  0.3886  0.6744
  150MOL0     C20172   2.133   2.898   7.127 -0.4398 -0.5203 -0.4519
  150MOL0     O20173   2.269   2.899   7.139  0.1710  0.2287 -0.1860
  150MOL0     C20174   2.302   2.968   7.262 -0.8308  0.2283  0.7439
  150MOL0     C20175   2.450   2.939   7.295  0.3391  0.3573 -0.4916
  150MOL0     C20176   2.508   2.796   7.250  0.7461 -0.7261  0.1674
  150MOL0     C20177   2.645   2.788   7.315 -0.9778 -0.1713  0.0603
  150MOL0     C20178   2.708   2.662   7.303  0.0543  0.0634  1.1046
  150MOL0     C20179   2.761   2.554   7.287 -0.2199 -0.0249  0.4366
  150MOL0     C20180   2.075   2.776   7.088 -0.3016  0.4352 -0.5238
  150MOL0     C20181   1.938   2.768   7.053 -0.2131  0.7754  0.0531
  150MOL0     C20182   1.896   2.638   7.001 -0.1715 -0.2282  0.4631
  150MOL0     H20183   1.502   3.023   6.779 -1.8165  1.0520 -1.1901
  150MOL0     H20184   1.263   3.051   6.792  1.8152  0.3360 -0.4790
  150MOL0     H20185   1.035   3.154   7.114  2.6558 -3.1499  0.1383
  150MOL0     H20186   1.048   3.199   6.951  1.1447  1.1262  1.7494
  150MOL0     H20187   0.809   3.162   7.014  1.5114  2.6729 -1.3783
  150MOL0     H20188   0.841   2.994   7.047  2.1685 -1.0238 -0.5328
  150MOL0     H20189   0.812   2.930   6.850  1.2790  0.4441  1.6549
  150MOL0     H20190   0.903   3.070   6.772  1.1593 -0.4688  0.5749
  150MOL0     H20191   0.619   3.054   6.862  1.0498  0.3637  0.8882
  150MOL0     H20192   0.698   3.197   6.799  3.3691  0.1297  0.5577
  150MOL0     H20193   0.766   3.082   6.592 -2.8593  1.8657 -1.6483
  150MOL0     H20194   0.670   2.930   6.633  1.3611 -1.4185 -2.3684
  150MOL0     H20195   0.464   3.054   6.661  2.7155 -0.4625  2.1984
  150MOL0     H20196   0.533   3.199   6.614 -0.5372 -0.5187  2.9340
  150MOL0     H20197   0.546   2.924   6.464  2.3820  0.1891 -1.7516
  150MOL0     H20198   0.606   3.056   6.393 -0.0233  1.1813  0.0458
  150MOL0     H20199   0.363   3.164   6.410 -1.9570  0.9386  0.8352
  150MOL0     H20200   0.391   3.036   6.301  1.2014  3.1923 -0.3655
  150MOL0     H20201   0.247   3.067   6.652  0.2710 -0.3938  1.1644
  150MOL0     H20202  -0.021   2.803   6.713  1.8884  1.0051  0.1492
  150MOL0     H20203   0.032   2.955   6.769 -1.5547  0.8221  0.1935
  150MOL0     H20204  -0.220   2.888   6.602 -3.7250  2.3250  2.4446
  150MOL0     H20205  -0.187   3.013   6.720  1.2764 -1.3754  1.6204
  150MOL0     H20206  -0.097   3.052   6.438 -2.1350 -1.9617  0.0085
  150MOL0     H20207  -0.077   3.156   6.583  1.7429  0.7516 -1.5768
  150MOL0     H20208  -0.334   3.141   6.610 -1.2423  1.0862 -1.1335
  150MOL0     H20209  -0.336   3.062   6.453  3.4408 -2.4381  0.4859
  150MOL0     H20210  -0.167   3.308   6.704 -0.9939  1.2412  0.8388
  150MOL0     H20211  -0.126   3.535   6.790 -1.2988  1.6968  1.1642
  150MOL0     H20212  -0.347   3.967   6.814  0.4250 -0.3347  0.0659
  150MOL0     H20213  -0.363   4.175   6.891  1.0684 -1.4101  0.8625
  150MOL0     H20214  -0.085   4.482   6.734 -0.0154 -3.1684 -0.3626
  150MOL0     H20215  -0.228   4.509   6.628  0.7944 -1.6810 -0.1871
  150MOL0     H20216  -0.182   4.660   6.884 -1.1842 -2.1017  0.7638
  150MOL0     H20217  -0.186   4.715   6.714 -0.3796 -0.5001 -0.0878
  150MOL0     H20218  -0.427   4.584   6.858  1.7044 -0.9176  0.2050
  150MOL0     H20219  -0.410   4.753   6.843  2.9713 -0.0775  0.6357
  150MOL0     H20220  -0.477   4.565   6.617  0.8570  0.0590 -0.0402
  150MOL0     H20221  -0.392   4.708   6.579  1.7997 -4.2520  0.1275
  150MOL0     H20222  -0.590   4.786   6.542  1.0597  1.5325  0.1629
  150MOL0     H20223  -0.547   4.837   6.704  0.7431 -2.9254  4.2472
  150MOL0     H20224  -0.755   4.633   6.623  1.1753 -4.3023  0.6811
  150MOL0     H20225  -0.663   4.596   6.764 -0.1293 -1.1822 -1.7910
  150MOL0     H20226  -0.854   4.838   6.710 -0.2652 -0.0831  0.1659
  150MOL0     H20227  -0.724   4.859   6.819  1.9161 -2.1790  0.0635
  150MOL0     H20228  -0.956   4.798   6.924 -1.4020 -1.3852  1.2556
  150MOL0     H20229  -0.939   4.638   6.856 -0.8746 -0.1930  2.0556
  150MOL0     H20230  -0.100   4.324   6.588 -5.0871  2.1472 -3.2700
  150MOL0     H20231  -0.075   4.075   6.499  0.0264 -1.1596 -0.4277
  150MOL0     H20232  -0.292   3.704   6.436  1.2353 -0.4318 -0.4270
  150MOL0     H20233  -0.353   3.487   6.362 -0.1073 -1.9725  0.3498
  150MOL0     H20234   1.257   2.978   7.205 -1.2432  2.1546 -0.3423
  150MOL0     H20235   1.501   3.001   7.209 -1.0212 -1.5211 -0.1116
  150MOL0     H20236   1.847   3.089   7.135  2.1046  2.2876 -1.7747
  150MOL0     H20237   2.096   3.110   7.154  4.2891 -1.0796  0.3984
  150MOL0     H20238   2.234   2.932   7.340  0.6082 -4.2791  0.2269
  150MOL0     H20239   2.304   3.077   7.252 -0.2231  0.1765  0.2722
  150MOL0     H20240   2.450   2.954   7.404  3.3803  1.2652 -0.5416
  150MOL0     H20241   2.490   3.027   7.244 -2.7084  1.4855 -1.1773
  150MOL0     H20242   2.523   2.794   7.141  2.8329  2.2658  0.2584
  150MOL0     H20243   2.439   2.721   7.288  0.7926 -0.9768 -0.2406
  150MOL0     H20244   2.696   2.864   7.256 -2.0018 -0.6041 -1.4630
  150MOL0     H20245   2.621   2.802   7.420 -1.7618  0.0687 -0.1419
  150MOL0     H20246   2.800   2.458   7.263 -1.0452 -0.2218 -0.1728
  150MOL0     H20247   2.137   2.693   7.057  0.1672  0.6670 -0.2142
  150MOL0     H20248   1.959   2.608   6.917  1.8564 -2.9679  2.7647
  150MOL0     H20249   1.920   2.566   7.080  1.6403  0.0783  0.2322
  150MOL0     H20250   1.789   2.640   6.978 -0.0092  1.3056 -0.2689
  151MOL0     O20251   7.348  11.353   1.237  0.5527  0.5492 -0.1096
  151MOL0     C20252   7.261  11.283   1.189 -0.1501  0.0697  0.1460
  151MOL0     O20253   7.191  11.310   1.075  0.2239  0.3550  0.1516
  151MOL0     C20254   7.208  11.435   1.040 -0.0574  0.1283 -0.3992
  151MOL0     C20255   7.306  11.474   0.947  0.5850  0.0414 -0.2244
  151MOL0     C20256   7.312  11.603   0.910  0.1449 -0.8988 -0.4300
  151MOL0     C20257   7.230  11.697   0.987 -0.5455 -0.0533 -0.9667
  151MOL0     O20258   7.253  11.833   0.976 -0.4770 -0.4844 -0.1275
  151MOL0     C20259   7.360  11.879   0.890 -0.1378 -0.2256 -0.1415
  151MOL0     C20260   7.365  12.030   0.866 -0.6746  0.0222  0.6008
  151MOL0     C20261   7.366  12.115   0.991  0.0942  0.5707  0.2773
  151MOL0     C20262   7.369  12.269   0.967 -0.4340 -0.1273  0.3437
  151MOL0     C20263   7.359  12.346   1.093  0.8558 -0.7730  0.2391
  151MOL0     C20264   7.462  12.319   1.211 -0.1210 -0.3802 -0.8266
  151MOL0     C20265   7.604  12.366   1.179  0.0946  0.1177 -0.0594
  151MOL0     C20266   7.721  12.275   1.246  0.3673  1.2115  0.3285
  151MOL0     N20267   7.721  12.267   1.391 -0.3433  0.5799  0.4521
  151MOL0     C20268   7.625  12.221   1.473 -0.2696 -0.7939  0.5631
  151MOL0     C20269   7.696  12.198   1.589 -1.5341  0.3417  0.6822
  151MOL0     C20270   7.657  12.146   1.732  1.1341 -0.4246  0.7477
  151MOL0     C20271   7.533  12.047   1.733 -0.3624 -0.0804 -0.7203
  151MOL0     C20272   7.552  11.931   1.639  0.6148  0.1321  0.1137
  151MOL0     C20273   7.438  11.825   1.653  1.0224  0.4982  0.6055
  151MOL0     O20274   7.441  11.722   1.552 -0.5874  0.0654 -0.6221
  151MOL0     C20275   7.513  11.603   1.568 -0.0262  0.3454 -0.5286
  151MOL0     C20276   7.590  11.557   1.672  0.4335  0.0079  0.0272
  151MOL0     C20277   7.682  11.444   1.658  1.1045  0.3656  0.5562
  151MOL0     C20278   7.678  11.368   1.542  0.3585  0.4313  0.0407
  151MOL0     C20279   7.762  11.248   1.525  0.1041  0.3141  1.6379
  151MOL0     O20280   7.835  11.204   1.628  0.1047  0.3025 -0.0213
  151MOL0     C20281   7.856  11.064   1.619  1.0519 -0.3339  0.0120
  151MOL0     C20282   7.979  11.010   1.598 -0.3300  0.8868 -0.1042
  151MOL0     C20283   7.997  10.873   1.580 -0.2255 -0.5029  0.1677
  151MOL0     C20284   7.897  10.774   1.593  0.7043  0.9953 -0.1409
  151MOL0     O20285   7.918  10.643   1.557 -0.5143 -0.1602 -0.1507
  151MOL0     C20286   8.015  10.565   1.624 -0.5719  0.0902 -0.1552
  151MOL0     C20287   8.000  10.417   1.587 -0.4481 -0.2276 -0.2335
  151MOL0     C20288   7.870  10.356   1.651 -0.0436  0.2723 -0.7043
  151MOL0     C20289   7.792  10.262   1.556 -0.0231  1.0158 -1.1047
  151MOL0     C20290   7.732  10.332   1.431 -0.9257  0.7612 -0.1147
  151MOL0     C20291   7.642  10.242   1.351 -0.5653  0.4739  0.2347
  151MOL0     C20292   7.575  10.310   1.233 -0.8535  0.1428 -0.0011
  151MOL0     C20293   7.461  10.229   1.165  0.5033  0.7090  0.6329
  151MOL0    Cl20294   7.506  10.103   1.055 -0.1626  0.1558 -0.2572
  151MOL0     C20295   7.771  10.831   1.614 -0.4040  0.1779 -0.2139
  151MOL0     C20296   7.749  10.973   1.623  0.2177 -0.2629  0.0202
  151MOL0     O20297   7.753  11.196   1.415 -0.0639  0.6108 -0.5834
  151MOL0     C20298   7.588  11.411   1.432 -0.5287 -0.2914 -0.2268
  151MOL0     C20299   7.511  11.522   1.449  0.5913 -0.3402 -0.8082
  151MOL0     N20300   7.832  12.233   1.563  0.4828 -0.3853 -0.4081
  151MOL0     N20301   7.849  12.279   1.449 -0.1256 -0.1386  0.5235
  151MOL0     C20302   7.137  11.653   1.077  0.4879 -0.2578 -0.5769
  151MOL0     C20303   7.115  11.523   1.096 -0.2647  0.0469  0.3564
  151MOL0     C20304   7.233  11.155   1.247 -0.8147 -0.2356 -0.4529
  151MOL0     C20305   7.343  11.088   1.319 -0.6760  0.1049  0.2174
  151MOL0     C20306   7.341  10.957   1.355  0.3773  0.1340  0.2853
  151MOL0     C20307   7.219  10.884   1.354  0.3604  0.4752 -0.1370
  151MOL0     O20308   7.211  10.756   1.402 -0.0701 -0.1621 -0.5810
  151MOL0     C20309   7.206  10.726   1.537  0.9094 -0.0015 -0.4639
  151MOL0     C20310   7.295  10.607   1.568 -0.4588  0.5136  0.4056
  151MOL0     C20311   7.215  10.479   1.550  0.8008 -0.5225 -0.1030
  151MOL0     C20312   7.304  10.353   1.587  0.5763  0.9363 -0.9230
  151MOL0     C20313   7.332  10.346   1.733  1.1060 -0.3799 -0.1483
  151MOL0     C20314   7.361  10.341   1.849 -0.3823  0.2496 -0.7518
  151MOL0     C20315   7.107  10.947   1.304 -0.5220  0.2058 -0.0495
  151MOL0     C20316   7.115  11.079   1.241  0.1933  0.2110  0.0409
  151MOL0     C20317   6.986  11.123   1.174  0.0691  0.1650 -0.5993
  151MOL0     H20318   7.371  11.406   0.893  2.0648  0.4189  1.0215
  151MOL0     H20319   7.389  11.635   0.840  3.3578 -0.7691  2.8901
  151MOL0     H20320   7.454  11.846   0.934 -0.5437 -0.2509  0.7082
  151MOL0     H20321   7.357  11.835   0.790 -1.3671 -3.3466  1.1516
  151MOL0     H20322   7.279  12.058   0.805  1.7370  2.7325 -1.9072
  151MOL0     H20323   7.445  12.061   0.797 -1.4933 -1.7858 -1.2948
  151MOL0     H20324   7.449  12.083   1.054  0.3948 -2.6700 -1.5852
  151MOL0     H20325   7.267  12.100   1.036 -0.4513  3.2293  0.1394
  151MOL0     H20326   7.464  12.278   0.914  0.4212 -0.9776  1.6686
  151MOL0     H20327   7.294  12.307   0.898 -1.6959 -1.0653  1.1567
  151MOL0     H20328   7.365  12.453   1.073 -1.9067  0.0004  2.7234
  151MOL0     H20329   7.255  12.337   1.128  0.1909 -0.0818 -1.4543
  151MOL0     H20330   7.436  12.384   1.295  2.9739 -1.0041  0.7585
  151MOL0     H20331   7.458  12.214   1.242  0.3695 -0.7854 -2.0489
  151MOL0     H20332   7.605  12.474   1.198 -0.1719  0.5219 -2.0967
  151MOL0     H20333   7.615  12.349   1.072 -1.3046 -1.4231  0.0095
  151MOL0     H20334   7.719  12.176   1.199  2.9941  2.4515 -2.8271
  151MOL0     H20335   7.819  12.303   1.207  0.7053 -1.4128 -0.9516
  151MOL0     H20336   7.522  12.190   1.455  0.4086 -2.5593 -0.5440
  151MOL0     H20337   7.741  12.088   1.770  1.4968 -0.3585  0.0735
  151MOL0     H20338   7.644  12.227   1.804 -2.2662  2.2403 -2.4719
  151MOL0     H20339   7.529  12.007   1.835  0.5150 -0.0206 -0.6590
  151MOL0     H20340   7.435  12.090   1.710 -2.0504 -2.6794  1.0226
  151MOL0     H20341   7.646  11.889   1.675 -0.0252 -1.4199  0.0532
  151MOL0     H20342   7.567  11.972   1.539  1.7119 -1.1281 -0.2629
  151MOL0     H20343   7.342  11.876   1.642  1.2845  1.4673  2.4958
  151MOL0     H20344   7.437  11.785   1.755  1.1828 -2.7205 -0.5392
  151MOL0     H20345   7.592  11.615   1.764  5.6476  0.4804 -0.0554
  151MOL0     H20346   7.737  11.425   1.749  4.2972  0.8784 -1.1102
  151MOL0     H20347   8.064  11.070   1.569  0.9940 -1.4437 -1.3355
  151MOL0     H20348   8.102  10.850   1.560  0.1470 -2.9625  3.8873
  151MOL0     H20349   8.114  10.607   1.603 -0.8738  0.4237 -0.9591
  151MOL0     H20350   8.009  10.573   1.733  0.4752  0.6781 -0.1207
  151MOL0     H20351   8.009  10.404   1.479 -1.0791  1.3793 -0.4983
  151MOL0     H20352   8.091  10.377   1.633 -1.9817 -1.6588  1.7298
  151MOL0     H20353   7.902  10.303   1.741  0.0627  0.9059 -0.3595
  151MOL0     H20354   7.802  10.435   1.684 -0.6209 -1.2254  1.9999
  151MOL0     H20355   7.708  10.215   1.606  1.7301  1.2580  2.4110
  151MOL0     H20356   7.859  10.179   1.532  1.2288  0.8787  2.3145
  151MOL0     H20357   7.803  10.353   1.350 -1.2138 -1.8533 -1.1528
  151MOL0     H20358   7.664  10.412   1.463 -0.8517  1.5895 -1.8875
  151MOL0     H20359   7.699  10.156   1.315 -0.9889 -0.9122  2.6928
  151MOL0     H20360   7.566  10.205   1.422  0.4261 -4.1379 -0.7572
  151MOL0     H20361   7.648  10.352   1.163 -2.7877 -0.6323 -2.6623
  151MOL0     H20362   7.535  10.398   1.283  2.5714  2.1964 -0.5941
  151MOL0     H20363   7.401  10.196   1.250 -4.4375  2.6308 -1.7629
  151MOL0     H20364   7.397  10.310   1.130  1.2915 -0.1249 -3.1622
  151MOL0     H20365   7.681  10.771   1.617 -0.3099  0.0251 -0.4066
  151MOL0     H20366   7.645  10.996   1.606 -0.2000 -1.1111  1.3559
  151MOL0     H20367   7.582  11.354   1.340 -1.1967  1.5402 -1.3815
  151MOL0     H20368   7.454  11.555   1.363  0.7166 -1.4287 -1.3330
  151MOL0     H20369   7.073  11.717   1.137  0.0313 -0.7767 -0.5093
  151MOL0     H20370   7.028  11.503   1.157 -3.0848  0.1105 -3.2885
  151MOL0     H20371   7.442  11.133   1.326 -0.4857 -0.2205 -0.3333
  151MOL0     H20372   7.440  10.921   1.383  1.2474  2.7913  0.8948
  151MOL0     H20373   7.106  10.707   1.576  2.1537 -1.3013  2.4288
  151MOL0     H20374   7.248  10.813   1.589  2.6787  0.1838 -2.1225
  151MOL0     H20375   7.329  10.609   1.673  0.7784  1.9270  0.0145
  151MOL0     H20376   7.384  10.621   1.506  0.6387 -0.8495  1.5960
  151MOL0     H20377   7.180  10.465   1.447  0.1010 -0.8141  0.1752
  151MOL0     H20378   7.128  10.473   1.615 -0.2266 -2.2451 -1.5619
  151MOL0     H20379   7.253  10.265   1.548  2.4207 -0.5868 -0.0709
  151MOL0     H20380   7.396  10.362   1.528  0.5068  0.4682 -1.1045
  151MOL0     H20381   7.383  10.329   1.954 -0.5410  0.0669 -0.7379
  151MOL0     H20382   7.017  10.890   1.325 -0.2533 -0.6864 -1.2125
  151MOL0     H20383   6.898  11.064   1.202 -1.2207  1.3236 -1.9922
  151MOL0     H20384   6.969  11.230   1.191 -3.8004 -0.4373  0.2874
  151MOL0     H20385   6.997  11.111   1.066 -0.4469 -0.4001 -0.5923
  152MOL0     O20386  11.467   4.819   7.449  0.7458  0.6645  0.2248
  152MOL0     C20387  11.429   4.705   7.419 -0.5690  0.9015 -0.7387
  152MOL0     O20388  11.432   4.658   7.299 -0.1633  0.4286  0.5039
  152MOL0     C20389  11.444   4.747   7.192  0.5610  0.8803  0.5919
  152MOL0     C20390  11.391   4.877   7.182  0.7858 -0.0718 -0.1299
  152MOL0     C20391  11.420   4.970   7.086  0.2127 -0.0570  0.3833
  152MOL0     C20392  11.499   4.918   6.971  0.4209 -0.4685 -0.3024
  152MOL0     O20393  11.534   4.993   6.860  0.7438 -0.0550  0.2584
  152MOL0     C20394  11.449   5.001   6.741  0.7072  0.7830 -0.5132
  152MOL0     C20395  11.350   5.122   6.759 -0.4874 -0.7214 -0.1108
  152MOL0     C20396  11.418   5.259   6.725 -0.4741  0.3769 -0.4954
  152MOL0     C20397  11.328   5.380   6.765 -0.1638 -0.6199  0.2201
  152MOL0     C20398  11.378   5.507   6.699 -0.3935 -0.4241 -0.1783
  152MOL0     C20399  11.506   5.562   6.782 -0.0409 -0.6869 -0.8021
  152MOL0     C20400  11.646   5.508   6.759 -0.2794 -0.5821  0.1294
  152MOL0     C20401  11.697   5.525   6.615 -0.0470  1.0862 -0.6793
  152MOL0     N20402  11.700   5.400   6.541  0.3860 -0.1426  0.8950
  152MOL0     C20403  11.752   5.278   6.585  0.1006 -0.0554 -0.2962
  152MOL0     C20404  11.730   5.194   6.481 -0.6220  0.4665  0.0628
  152MOL0     C20405  11.766   5.044   6.488  0.3357  1.0207 -0.3451
  152MOL0     C20406  11.851   4.995   6.364 -0.1950  0.1014 -0.7006
  152MOL0     C20407  11.782   4.951   6.242 -0.2984 -0.1946 -0.4057
  152MOL0     C20408  11.850   4.984   6.106 -0.4460 -0.6912  1.4218
  152MOL0     O20409  11.777   4.947   5.989 -0.3754  0.2122 -0.4562
  152MOL0     C20410  11.818   4.979   5.861  0.8747  0.3692  0.6225
  152MOL0     C20411  11.949   5.020   5.829  0.4136 -0.4631 -0.6299
  152MOL0     C20412  11.993   5.048   5.700 -0.0048  0.6300  0.0968
  152MOL0     C20413  11.898   5.032   5.598  0.9500  0.0060  0.5839
  152MOL0     C20414  11.941   5.035   5.456  1.1476 -1.3400  0.8473
  152MOL0     O20415  12.046   4.964   5.422 -0.3979  0.6104  0.2326
  152MOL0     C20416  12.103   4.992   5.308  0.1630 -0.0380  1.2790
  152MOL0     C20417  12.047   4.933   5.191  0.2186  0.7602  0.0789
  152MOL0     C20418  12.113   4.947   5.067 -0.3160  0.2002 -0.1768
  152MOL0     C20419  12.242   5.005   5.061  0.3390  0.1231 -0.3669
  152MOL0     O20420  12.312   5.014   4.934 -0.0031 -0.5247  0.3316
  152MOL0     C20421  12.428   5.105   4.918 -0.3799  0.0633 -0.0597
  152MOL0     C20422  12.481   5.053   4.786  0.3695  0.0775  0.8207
  152MOL0     C20423  12.605   5.120   4.731  0.3181  0.0828 -1.1688
  152MOL0     C20424  12.654   5.049   4.602  0.6501 -0.0068 -0.7193
  152MOL0     C20425  12.792   5.098   4.548  0.3210  0.1961 -0.0795
  152MOL0     C20426  12.777   5.231   4.467 -0.3054 -0.4333 -0.4604
  152MOL0     C20427  12.921   5.269   4.422  0.3564  0.4004 -0.3468
  152MOL0     C20428  12.945   5.406   4.371  0.0561  0.0769  0.3189
  152MOL0    Cl20429  12.849   5.530   4.463  0.3330  0.2232  0.6086
  152MOL0     C20430  12.291   5.067   5.176 -0.4143  0.1466  0.1335
  152MOL0     C20431  12.227   5.061   5.293 -0.0506 -0.1529 -0.2688
  152MOL0     O20432  11.874   5.102   5.376 -0.7813 -0.4980 -0.0899
  152MOL0     C20433  11.765   4.997   5.617  0.9162  0.2693 -1.0004
  152MOL0     C20434  11.718   4.976   5.754  0.8307  0.6501 -0.8443
  152MOL0     N20435  11.665   5.265   6.379  0.0831 -0.2682 -0.5683
  152MOL0     N20436  11.658   5.389   6.410  0.7408  0.2335  0.3486
  152MOL0     C20437  11.555   4.789   6.977 -0.3395  0.5330 -0.5443
  152MOL0     C20438  11.532   4.707   7.094 -0.7599  0.5911  0.7373
  152MOL0     C20439  11.388   4.617   7.529  0.5786 -0.9825 -0.3672
  152MOL0     C20440  11.257   4.562   7.525  0.1033 -1.2765  0.1423
  152MOL0     C20441  11.207   4.478   7.622  0.2048 -0.1463  0.4839
  152MOL0     C20442  11.290   4.442   7.725  0.4880 -0.1324 -0.7221
  152MOL0     O20443  11.239   4.352   7.816 -0.2329 -0.0370  0.1253
  152MOL0     C20444  11.289   4.326   7.946 -0.6374  0.4233 -0.2773
  152MOL0     C20445  11.248   4.438   8.048 -0.0460  0.2927  0.5790
  152MOL0     C20446  11.318   4.416   8.183  0.6034  0.6265 -0.6733
  152MOL0     C20447  11.372   4.543   8.251  0.1280 -0.0675  0.6350
  152MOL0     C20448  11.467   4.620   8.165 -0.5939  0.3560 -0.5587
  152MOL0     C20449  11.543   4.677   8.089  0.0484  0.2678  0.4455
  152MOL0     C20450  11.420   4.499   7.738 -0.3852  0.8849  0.0021
  152MOL0     C20451  11.466   4.580   7.638  0.8270  0.3804 -0.3819
  152MOL0     C20452  11.605   4.625   7.652 -0.2121 -0.0515  0.1381
  152MOL0     H20453  11.314   4.903   7.254  0.1038 -1.4705 -0.3176
  152MOL0     H20454  11.368   5.065   7.088  0.1780 -0.0856  1.2882
  152MOL0     H20455  11.505   5.018   6.648  0.1698  0.8593 -0.8257
  152MOL0     H20456  11.393   4.908   6.727  2.1454 -0.2731  0.4076
  152MOL0     H20457  11.307   5.128   6.859  1.8188  0.1775  0.9013
  152MOL0     H20458  11.268   5.102   6.689 -1.0985 -1.7259  0.8648
  152MOL0     H20459  11.440   5.266   6.618  0.7084 -1.8765 -0.4576
  152MOL0     H20460  11.509   5.270   6.783 -1.3883  0.3507  1.0042
  152MOL0     H20461  11.219   5.376   6.753 -0.2059 -0.2581  0.4524
  152MOL0     H20462  11.322   5.394   6.873 -0.6194  3.0118 -0.1598
  152MOL0     H20463  11.395   5.498   6.591  2.0470  2.1032 -0.1218
  152MOL0     H20464  11.298   5.581   6.702  0.1017  0.0836  0.5049
  152MOL0     H20465  11.519   5.667   6.756  0.5392 -0.0579  1.7555
  152MOL0     H20466  11.479   5.554   6.888  2.0019 -1.2033 -0.2857
  152MOL0     H20467  11.670   5.407   6.793  1.2198  0.1991  1.5195
  152MOL0     H20468  11.707   5.570   6.824 -1.9053 -1.1079  2.2665
  152MOL0     H20469  11.631   5.587   6.553  0.5134  0.5218 -1.8761
  152MOL0     H20470  11.795   5.572   6.633  0.8677 -2.0272  3.9713
  152MOL0     H20471  11.809   5.259   6.676 -0.4117  2.4855  0.6636
  152MOL0     H20472  11.820   5.022   6.581  0.1634 -0.1674 -0.5151
  152MOL0     H20473  11.682   4.974   6.485  1.0768  0.0638  0.5558
  152MOL0     H20474  11.934   5.061   6.340 -0.8729  2.2980  2.3486
  152MOL0     H20475  11.893   4.902   6.404 -2.6079  0.1114  2.2847
  152MOL0     H20476  11.680   4.991   6.239  1.0602  4.1462  2.2557
  152MOL0     H20477  11.777   4.842   6.250 -2.4363 -0.0287  1.5371
  152MOL0     H20478  11.951   4.945   6.095  0.0474  0.6463  0.9355
  152MOL0     H20479  11.867   5.092   6.100 -0.8101 -0.6364  1.3626
  152MOL0     H20480  12.017   5.021   5.914 -1.0571 -1.7103  0.5989
  152MOL0     H20481  12.097   5.066   5.676 -0.1359 -0.2712 -1.2041
  152MOL0     H20482  11.944   4.899   5.197 -0.1562  1.4067 -1.7666
  152MOL0     H20483  12.081   4.908   4.971 -1.9329  1.2530 -0.0947
  152MOL0     H20484  12.404   5.211   4.909 -0.2565  0.2404  1.4434
  152MOL0     H20485  12.515   5.099   4.984  1.0357  0.5199 -1.8030
  152MOL0     H20486  12.504   4.946   4.786  0.8326  0.0895 -2.3578
  152MOL0     H20487  12.399   5.075   4.716 -0.8909 -1.4300  1.7554
  152MOL0     H20488  12.586   5.227   4.724  2.7259  1.0367  3.0056
  152MOL0     H20489  12.684   5.114   4.807  1.6203  3.5330 -2.0458
  152MOL0     H20490  12.571   5.079   4.538  0.5960  0.0674 -0.6134
  152MOL0     H20491  12.653   4.941   4.619  1.3822  0.2508  1.1831
  152MOL0     H20492  12.832   5.020   4.482 -2.9657 -2.7573  1.0693
  152MOL0     H20493  12.870   5.092   4.624  2.4971 -1.2494 -2.2818
  152MOL0     H20494  12.707   5.228   4.382 -0.4594 -0.3821 -0.3364
  152MOL0     H20495  12.735   5.315   4.524 -2.4186 -0.0648 -2.3665
  152MOL0     H20496  12.961   5.191   4.356  0.1501  0.6695 -0.7930
  152MOL0     H20497  12.975   5.259   4.517  0.4967 -4.1383 -0.6803
  152MOL0     H20498  13.052   5.427   4.373  0.1377 -0.3361  2.2096
  152MOL0     H20499  12.901   5.418   4.272 -1.1581  0.5503  0.8963
  152MOL0     H20500  12.394   5.102   5.180  0.7349 -2.5952 -2.2907
  152MOL0     H20501  12.281   5.105   5.377  5.1767  2.8812 -4.5491
  152MOL0     H20502  11.696   4.984   5.534  1.6505 -0.6011 -1.4850
  152MOL0     H20503  11.614   4.960   5.781  1.1952 -0.0859  0.1951
  152MOL0     H20504  11.619   4.752   6.898 -0.3768 -2.3412  0.6398
  152MOL0     H20505  11.596   4.621   7.108  0.3040  1.4572  1.3229
  152MOL0     H20506  11.193   4.585   7.440 -1.1139 -2.4644  0.7024
  152MOL0     H20507  11.107   4.436   7.623  0.6271 -1.2116  2.5301
  152MOL0     H20508  11.398   4.319   7.936 -0.6912  2.0548 -3.1967
  152MOL0     H20509  11.257   4.231   7.989  0.6177  0.5282  0.9567
  152MOL0     H20510  11.139   4.434   8.060 -0.5152 -0.1698 -2.7461
  152MOL0     H20511  11.263   4.539   8.008 -1.1444  0.3872  0.3562
  152MOL0     H20512  11.410   4.359   8.163  2.0446  2.3830  0.7061
  152MOL0     H20513  11.245   4.354   8.236  0.5266  1.5910  0.3707
  152MOL0     H20514  11.290   4.610   8.281  0.3361 -0.3795  1.9571
  152MOL0     H20515  11.415   4.512   8.347  1.0126  0.8393  0.5483
  152MOL0     H20516  11.616   4.715   8.021 -0.1923  0.0594  0.0649
  152MOL0     H20517  11.478   4.474   7.826  0.1042 -1.1070 -0.8290
  152MOL0     H20518  11.622   4.720   7.703 -0.5338 -0.9414  1.9842
  152MOL0     H20519  11.659   4.548   7.708 -1.7389  0.6841  2.8311
  152MOL0     H20520  11.651   4.632   7.553 -1.1306  3.9580 -0.1786
  153MOL0     O20521   4.263   9.172   1.989 -0.3804  0.0500 -0.1519
  153MOL0     C20522   4.381   9.183   1.961 -1.4495  0.3651  0.4330
  153MOL0     O20523   4.472   9.087   1.934 -0.0753 -0.6275  0.0355
  153MOL0     C20524   4.436   8.951   1.940 -0.3617  0.6980 -0.1075
  153MOL0     C20525   4.336   8.901   1.852 -0.6538  0.7316 -0.4630
  153MOL0     C20526   4.326   8.763   1.831  0.0796 -0.6397 -0.0758
  153MOL0     C20527   4.406   8.667   1.884 -0.5343  0.0499  0.4244
  153MOL0     O20528   4.372   8.533   1.861  0.1552  0.0336  0.4700
  153MOL0     C20529   4.431   8.440   1.961 -0.3578 -0.8845 -0.2290
  153MOL0     C20530   4.371   8.303   1.955  0.9462  0.0588 -0.4341
  153MOL0     C20531   4.393   8.223   2.087  0.3957  0.0700  0.3410
  153MOL0     C20532   4.389   8.075   2.044 -0.5133  0.4219 -0.4217
  153MOL0     C20533   4.410   7.982   2.159  0.2018 -0.5361  0.4033
  153MOL0     C20534   4.463   7.839   2.125 -0.1155 -0.2110 -1.2962
  153MOL0     C20535   4.501   7.755   2.262 -0.4246  0.5302 -0.1691
  153MOL0     C20536   4.381   7.716   2.346  0.1562 -0.2458 -0.1356
  153MOL0     N20537   4.422   7.660   2.474  0.4714  0.2191 -0.6739
  153MOL0     C20538   4.417   7.695   2.610  0.3997 -0.2671 -0.0228
  153MOL0     C20539   4.494   7.604   2.679  0.1273  0.2024 -0.4449
  153MOL0     C20540   4.550   7.629   2.824  0.2830  0.5159  0.8683
  153MOL0     C20541   4.700   7.662   2.825  0.2601  0.2342 -0.3924
  153MOL0     C20542   4.741   7.706   2.976  0.0272 -0.6236  0.3721
  153MOL0     C20543   4.871   7.801   2.968  0.9800 -0.0604 -0.2304
  153MOL0     O20544   4.879   7.878   3.087  0.0587 -0.1320  0.4866
  153MOL0     C20545   4.919   7.815   3.207  0.1760 -0.0933  0.2537
  153MOL0     C20546   4.917   7.902   3.316  0.4790 -0.4777  0.1991
  153MOL0     C20547   4.962   7.860   3.449 -0.3743  0.1209 -0.5015
  153MOL0     C20548   5.006   7.729   3.476  1.0607  0.9393  0.6186
  153MOL0     C20549   5.046   7.695   3.616  0.6391 -0.0699  0.4902
  153MOL0     O20550   5.011   7.775   3.708  1.2451 -0.9269 -0.0742
  153MOL0     C20551   5.008   7.740   3.840 -0.7070  0.4251  0.2501
  153MOL0     C20552   4.984   7.606   3.884  0.0367 -0.2988 -0.4243
  153MOL0     C20553   4.961   7.586   4.022 -0.1533 -0.7302 -0.1125
  153MOL0     C20554   4.989   7.687   4.115  0.1247 -0.5786 -0.6380
  153MOL0     O20555   4.967   7.683   4.252 -0.2848 -0.5523  0.9043
  153MOL0     C20556   4.939   7.561   4.316  0.1244 -0.0027  0.4005
  153MOL0     C20557   4.937   7.572   4.463 -0.2382 -0.1420 -0.2842
  153MOL0     C20558   4.920   7.434   4.528  0.1021 -0.8768  0.3099
  153MOL0     C20559   4.996   7.433   4.666 -0.6246 -0.8197 -0.1267
  153MOL0     C20560   4.930   7.508   4.785 -0.1882 -1.2373  0.2699
  153MOL0     C20561   4.944   7.434   4.923 -0.5795  0.4506  0.2288
  153MOL0     C20562   4.847   7.501   5.032 -0.0345  1.0997  0.0793
  153MOL0     C20563   4.877   7.643   5.075  0.4108  0.8969 -0.5695
  153MOL0    Cl20564   5.031   7.644   5.153  0.7765  0.1269 -0.0386
  153MOL0     C20565   5.013   7.813   4.069  0.1881 -0.6102  0.7266
  153MOL0     C20566   5.023   7.839   3.934  0.4230  0.2816 -0.6402
  153MOL0     O20567   5.106   7.592   3.628 -0.1039 -0.3805 -0.4088
  153MOL0     C20568   5.028   7.654   3.356  0.6223  0.0482  1.4833
  153MOL0     C20569   4.979   7.691   3.225 -0.9187 -0.4731 -0.5932
  153MOL0     N20570   4.540   7.511   2.589  0.5353  0.1344 -0.3473
  153MOL0     N20571   4.485   7.534   2.473  0.5925 -0.2434  0.1226
  153MOL0     C20572   4.517   8.708   1.962  0.6483  0.2868 -0.1996
  153MOL0     C20573   4.519   8.849   1.991  0.4308 -1.0110 -0.8644
  153MOL0     C20574   4.433   9.316   1.933  0.2644 -0.2966  0.6388
  153MOL0     C20575   4.566   9.333   1.957 -0.6416  0.8201 -0.1627
  153MOL0     C20576   4.627   9.454   1.923 -0.0319 -0.3425 -0.0459
  153MOL0     C20577   4.563   9.553   1.851  0.6110 -0.9546  0.3185
  153MOL0     O20578   4.628   9.672   1.837 -0.3008 -1.1838 -0.5426
  153MOL0     C20579   4.599   9.753   1.721  0.0134  0.0205 -0.4187
  153MOL0     C20580   4.715   9.848   1.696  0.8128  0.1454 -0.4703
  153MOL0     C20581   4.840   9.770   1.678  0.4218  0.0581  0.4134
  153MOL0     C20582   4.834   9.657   1.559  0.6317 -0.3680 -0.6844
  153MOL0     C20583   4.768   9.702   1.433  0.0462  0.7074  0.4034
  153MOL0     C20584   4.710   9.735   1.322  0.1448 -0.3544 -0.4752
  153MOL0     C20585   4.423   9.542   1.827  0.4843  0.1413 -0.0334
  153MOL0     C20586   4.353   9.426   1.879 -0.5628 -0.1371 -0.2427
  153MOL0     C20587   4.197   9.424   1.857  0.3685 -0.2769  0.0863
  153MOL0     H20588   4.272   8.963   1.790 -3.7072 -0.4127  1.3562
  153MOL0     H20589   4.253   8.712   1.769  0.7275 -3.8818  1.6150
  153MOL0     H20590   4.539   8.426   1.945  0.3218  1.0066  2.0663
  153MOL0     H20591   4.405   8.480   2.060 -0.1875 -1.4744  0.0580
  153MOL0     H20592   4.399   8.245   1.866 -0.6960 -1.7637  0.1469
  153MOL0     H20593   4.262   8.305   1.946  0.9304 -1.6106 -1.0024
  153MOL0     H20594   4.316   8.254   2.158  0.2446  3.7000 -1.2275
  153MOL0     H20595   4.495   8.231   2.126  1.6095 -2.4186 -1.9406
  153MOL0     H20596   4.292   8.047   2.004  0.7254 -1.9324 -2.0033
  153MOL0     H20597   4.472   8.062   1.973 -0.2017  1.5732 -0.2991
  153MOL0     H20598   4.495   8.021   2.216 -2.0348  3.6027  1.2595
  153MOL0     H20599   4.322   7.973   2.223  1.3406 -0.1783  2.0838
  153MOL0     H20600   4.387   7.780   2.072  1.6617 -1.7750 -2.2162
  153MOL0     H20601   4.552   7.838   2.061  0.2187  3.1111 -1.0484
  153MOL0     H20602   4.578   7.792   2.330 -1.1841 -1.2362  1.7490
  153MOL0     H20603   4.541   7.661   2.223 -1.3209  0.4530 -0.9261
  153MOL0     H20604   4.326   7.810   2.357  2.1426  1.0372 -0.6685
  153MOL0     H20605   4.319   7.642   2.294  1.5223 -1.5021 -0.0430
  153MOL0     H20606   4.361   7.780   2.649  2.5330  0.1648  2.4016
  153MOL0     H20607   4.481   7.687   2.887 -1.2543 -0.8680  0.5312
  153MOL0     H20608   4.556   7.532   2.873 -0.8088 -0.6877 -1.2484
  153MOL0     H20609   4.766   7.576   2.808 -0.9535 -0.8305  0.0695
  153MOL0     H20610   4.722   7.733   2.745  0.0210 -1.1027 -1.6831
  153MOL0     H20611   4.768   7.622   3.040  2.7718 -1.7239 -2.0161
  153MOL0     H20612   4.661   7.766   3.020 -2.5859  1.0796 -5.6441
  153MOL0     H20613   4.855   7.882   2.897  2.7422 -0.4544 -1.1313
  153MOL0     H20614   4.960   7.740   2.948  2.3892  1.9858 -0.5530
  153MOL0     H20615   4.880   8.003   3.319  2.0957  0.2202 -1.5602
  153MOL0     H20616   4.973   7.931   3.531 -0.8738 -0.9731  0.5325
  153MOL0     H20617   4.992   7.519   3.820 -0.8594  1.2684 -2.8097
  153MOL0     H20618   4.917   7.492   4.052  0.4801 -0.3284  2.2770
  153MOL0     H20619   4.836   7.539   4.284  0.7362 -0.1439 -1.6011
  153MOL0     H20620   5.010   7.480   4.297 -0.2388 -0.9727  2.7556
  153MOL0     H20621   5.042   7.602   4.474  0.1141 -1.0615 -1.0703
  153MOL0     H20622   4.858   7.641   4.496  0.3983 -0.4282  1.9913
  153MOL0     H20623   4.814   7.415   4.552  0.5534 -1.1528  2.2988
  153MOL0     H20624   4.946   7.352   4.461 -1.9281 -3.3136  2.3085
  153MOL0     H20625   5.100   7.466   4.658 -0.1933 -2.3718 -1.2723
  153MOL0     H20626   5.003   7.333   4.709  0.3112 -0.5218  0.4491
  153MOL0     H20627   4.826   7.505   4.753  0.3337 -1.5700 -1.4810
  153MOL0     H20628   4.962   7.612   4.777 -1.1452 -0.9743 -0.1583
  153MOL0     H20629   4.903   7.334   4.910 -0.9305  0.8924 -2.7251
  153MOL0     H20630   5.048   7.430   4.959 -0.6575  2.4656  0.8388
  153MOL0     H20631   4.855   7.435   5.119 -0.4118  0.3947 -0.4113
  153MOL0     H20632   4.748   7.484   4.988  0.7489 -3.1178 -0.4548
  153MOL0     H20633   4.884   7.708   4.988  0.7540 -0.6423 -1.7371
  153MOL0     H20634   4.796   7.679   5.139 -0.1265  0.9777 -1.2848
  153MOL0     H20635   5.021   7.893   4.142 -0.7697 -0.7656  1.0160
  153MOL0     H20636   5.028   7.945   3.908  0.8216  0.4466  0.0724
  153MOL0     H20637   5.075   7.557   3.360  1.3526  0.2803 -0.3043
  153MOL0     H20638   4.984   7.620   3.143  0.4803 -2.0814  0.8189
  153MOL0     H20639   4.590   8.636   1.996 -0.8956 -1.0599  0.3555
  153MOL0     H20640   4.588   8.888   2.066 -0.1524 -0.1748 -0.7584
  153MOL0     H20641   4.617   9.257   2.015 -4.7364 -2.9116 -0.9300
  153MOL0     H20642   4.732   9.459   1.950 -0.5809  1.3967  1.9996
  153MOL0     H20643   4.513   9.816   1.745  1.7385  2.4222 -0.1960
  153MOL0     H20644   4.578   9.703   1.626 -2.3790  2.8621 -1.5320
  153MOL0     H20645   4.723   9.925   1.772 -2.1542  1.9777 -1.8218
  153MOL0     H20646   4.702   9.898   1.599  0.1017 -0.8965 -0.9331
  153MOL0     H20647   4.859   9.725   1.776 -1.8904 -1.8037  0.1179
  153MOL0     H20648   4.918   9.842   1.656 -3.6126  3.9822 -2.9754
  153MOL0     H20649   4.934   9.620   1.534  0.7077  0.1853 -1.2234
  153MOL0     H20650   4.781   9.570   1.598  1.3079  0.2739  1.8241
  153MOL0     H20651   4.664   9.754   1.227  0.4530  0.3234 -0.4917
  153MOL0     H20652   4.366   9.620   1.777  0.2333  0.7510  1.1598
  153MOL0     H20653   4.177   9.363   1.769  1.7543 -2.1013  0.9653
  153MOL0     H20654   4.142   9.386   1.943  0.7247 -0.7159  0.1264
  153MOL0     H20655   4.167   9.528   1.844 -0.2433 -0.1322  2.2599
  154MOL0     O20656   0.218   3.691   9.204 -0.0830  0.9506  0.4713
  154MOL0     C20657   0.113   3.696   9.138  0.4764 -0.2578  0.5664
  154MOL0     O20658   0.087   3.785   9.037 -0.0699  0.1557 -0.5561
  154MOL0     C20659   0.167   3.898   9.034  0.3208 -0.1481  0.7864
  154MOL0     C20660   0.207   3.982   9.137  0.8417  0.7280 -0.0223
  154MOL0     C20661   0.288   4.095   9.109  0.3345  0.5453 -0.2154
  154MOL0     C20662   0.335   4.121   8.979  0.1245  0.2050  1.0105
  154MOL0     O20663   0.426   4.223   8.963 -0.1684 -0.0687 -0.5530
  154MOL0     C20664   0.372   4.338   8.891 -0.3998  0.0008 -0.1737
  154MOL0     C20665   0.364   4.462   8.991 -0.9069 -0.6343  0.3062
  154MOL0     C20666   0.308   4.586   8.926 -0.9958  0.7164 -0.3441
  154MOL0     C20667   0.288   4.689   9.040  0.8218  0.1140  0.0382
  154MOL0     C20668   0.215   4.816   8.992 -0.0435 -0.5907 -0.7408
  154MOL0     C20669   0.309   4.924   8.933  0.2382  0.1992  0.5788
  154MOL0     C20670   0.325   5.040   9.037  0.0873  0.2743 -0.6405
  154MOL0     C20671   0.431   5.147   9.008 -0.7774 -0.4727 -0.1301
  154MOL0     N20672   0.422   5.210   8.880 -0.6282  0.0405  0.2090
  154MOL0     C20673   0.302   5.247   8.815 -1.4354  0.3228  0.8671
  154MOL0     C20674   0.352   5.296   8.695 -0.3380 -0.0947 -0.0301
  154MOL0     C20675   0.258   5.337   8.589 -0.1157  0.2957 -1.2420
  154MOL0     C20676   0.258   5.482   8.538  1.0107  0.8344  0.7358
  154MOL0     C20677   0.396   5.524   8.470 -0.7536  0.5042 -0.4799
  154MOL0     C20678   0.460   5.410   8.378 -0.0950  0.2713 -0.1822
  154MOL0     O20679   0.573   5.470   8.305  0.9298  0.0038  0.2991
  154MOL0     C20680   0.619   5.405   8.197 -1.1288 -0.2586 -0.8182
  154MOL0     C20681   0.558   5.296   8.134 -0.1132  0.0352  0.4362
  154MOL0     C20682   0.613   5.235   8.028 -0.3263  0.2742 -0.0662
  154MOL0     C20683   0.740   5.265   7.990 -0.6361  0.9635  0.9538
  154MOL0     C20684   0.803   5.193   7.881  0.5446 -0.5475 -0.3395
  154MOL0     O20685   0.725   5.139   7.782 -0.9808 -0.3635  0.7784
  154MOL0     C20686   0.769   5.039   7.700 -1.1226  0.3164 -0.8611
  154MOL0     C20687   0.896   5.028   7.641 -0.7491  0.0172  0.2996
  154MOL0     C20688   0.940   4.918   7.575 -0.5836  0.1617  0.5040
  154MOL0     C20689   0.848   4.822   7.535 -0.3514 -0.1033 -0.9163
  154MOL0     O20690   0.891   4.716   7.455  0.0628  0.2939  0.0908
  154MOL0     C20691   0.933   4.762   7.328 -0.2670 -0.6492  0.4126
  154MOL0     C20692   0.980   4.650   7.232 -0.1237  0.6117 -0.5822
  154MOL0     C20693   0.885   4.529   7.218 -0.1709  0.0092  1.2042
  154MOL0     C20694   0.750   4.573   7.153 -0.3592 -0.1349 -0.0133
  154MOL0     C20695   0.656   4.455   7.152  0.2008 -0.2483 -0.3500
  154MOL0     C20696   0.581   4.426   7.281 -0.6063  0.4973  0.6455
  154MOL0     C20697   0.479   4.534   7.337 -0.0538 -0.2096  1.4286
  154MOL0     C20698   0.443   4.512   7.485  1.3042 -0.7498 -1.1824
  154MOL0    Cl20699   0.392   4.676   7.548  0.1109  0.0331  0.5490
  154MOL0     C20700   0.719   4.832   7.590  0.6561 -0.2954 -1.1738
  154MOL0     C20701   0.685   4.932   7.674 -0.3100 -0.7638 -0.1736
  154MOL0     O20702   0.927   5.186   7.885  0.1005 -0.5578 -0.6927
  154MOL0     C20703   0.809   5.367   8.052 -0.4784  0.1967  0.1377
  154MOL0     C20704   0.745   5.449   8.150 -0.2302 -0.5136  0.7945
  154MOL0     N20705   0.487   5.317   8.706 -0.3304  0.8410 -0.4906
  154MOL0     N20706   0.533   5.261   8.810  0.6346 -0.3212  0.1125
  154MOL0     C20707   0.301   4.032   8.872 -0.2314 -0.4937  0.0329
  154MOL0     C20708   0.216   3.926   8.904  0.4763  0.5050  0.3661
  154MOL0     C20709   0.022   3.586   9.138 -0.3006  0.3959  0.8791
  154MOL0     C20710  -0.091   3.594   9.047  0.0699  0.2972 -0.4668
  154MOL0     C20711  -0.197   3.506   9.052 -1.4649 -0.4916 -0.0995
  154MOL0     C20712  -0.189   3.399   9.139 -0.0543  0.2768  0.1254
  154MOL0     O20713  -0.294   3.311   9.138  0.2113  0.2908  0.0099
  154MOL0     C20714  -0.423   3.368   9.155  0.7680  0.0086  0.1023
  154MOL0     C20715  -0.527   3.256   9.194 -0.4398  0.3461 -0.7781
  154MOL0     C20716  -0.545   3.140   9.096 -0.5722 -0.2888  1.4297
  154MOL0     C20717  -0.648   3.037   9.145  0.5408 -0.2886  0.2037
  154MOL0     C20718  -0.763   3.050   9.057 -0.0771  0.4535 -0.0618
  154MOL0     C20719  -0.871   3.050   8.992 -0.5469 -0.5479  0.9011
  154MOL0     C20720  -0.080   3.376   9.223  0.2574 -0.2914  0.3442
  154MOL0     C20721   0.018   3.476   9.220  0.0428  0.0733 -1.2864
  154MOL0     C20722   0.123   3.461   9.325  0.6923  0.6767 -0.2395
  154MOL0     H20723   0.185   3.970   9.243  1.4305  0.9822  0.1338
  154MOL0     H20724   0.304   4.160   9.194  0.8981  0.7249 -0.4537
  154MOL0     H20725   0.439   4.374   8.813 -1.4341  2.3896 -0.0419
  154MOL0     H20726   0.280   4.327   8.834 -0.8616  2.1729  0.0833
  154MOL0     H20727   0.456   4.486   9.044 -1.5336  1.4657  0.5104
  154MOL0     H20728   0.287   4.431   9.063 -1.7981  2.5109  0.8621
  154MOL0     H20729   0.213   4.555   8.882 -0.8311 -5.6015  2.6706
  154MOL0     H20730   0.379   4.621   8.851 -1.1794 -0.7378 -1.2457
  154MOL0     H20731   0.215   4.656   9.114  1.6572 -1.3167  0.2534
  154MOL0     H20732   0.384   4.710   9.088  0.3365 -1.4300  1.8095
  154MOL0     H20733   0.142   4.785   8.916 -0.5087 -3.3774  0.6788
  154MOL0     H20734   0.157   4.867   9.069 -2.5537 -1.5442 -1.8615
  154MOL0     H20735   0.408   4.898   8.895  0.4265  0.4196  0.9061
  154MOL0     H20736   0.260   4.947   8.837 -3.9705 -2.2276  1.8534
  154MOL0     H20737   0.355   4.986   9.127  2.2826 -2.4548 -2.8484
  154MOL0     H20738   0.227   5.085   9.060  0.6634  0.8197  0.8274
  154MOL0     H20739   0.415   5.225   9.083  0.4898 -0.7606  0.4673
  154MOL0     H20740   0.533   5.115   9.030 -0.5508  0.8794  0.8799
  154MOL0     H20741   0.201   5.254   8.855 -0.7536 -2.5920  3.4527
  154MOL0     H20742   0.264   5.270   8.503 -0.5490  2.6017 -3.1600
  154MOL0     H20743   0.160   5.318   8.634 -0.5067 -0.0383 -2.2029
  154MOL0     H20744   0.182   5.491   8.460 -0.5456  2.9495  2.3514
  154MOL0     H20745   0.225   5.555   8.613  2.2186 -0.1264  2.2813
  154MOL0     H20746   0.464   5.556   8.549  0.3902 -0.2470 -1.1400
  154MOL0     H20747   0.361   5.609   8.411 -0.9236 -0.5112 -1.8915
  154MOL0     H20748   0.377   5.392   8.310  0.0967  0.4129 -0.4572
  154MOL0     H20749   0.496   5.320   8.428 -0.3934  0.2792  0.0472
  154MOL0     H20750   0.463   5.266   8.178 -0.6266  0.0686 -0.6331
  154MOL0     H20751   0.554   5.155   7.983  0.7464  0.2584 -1.4962
  154MOL0     H20752   0.955   5.119   7.645  1.2225 -0.9992 -2.6709
  154MOL0     H20753   1.042   4.895   7.549 -0.0892  1.2411  1.4084
  154MOL0     H20754   0.847   4.814   7.285  0.1777 -1.4871 -1.5965
  154MOL0     H20755   1.013   4.836   7.324 -0.8626 -0.0309 -2.8843
  154MOL0     H20756   0.995   4.686   7.130 -3.9288 -1.2631 -2.0326
  154MOL0     H20757   1.073   4.612   7.276 -0.7977 -0.2622  0.1395
  154MOL0     H20758   0.929   4.461   7.145 -1.6205  0.9536 -0.6233
  154MOL0     H20759   0.867   4.472   7.310 -1.2471 -0.4366  0.7357
  154MOL0     H20760   0.786   4.602   7.054 -0.0034 -0.8407 -0.0956
  154MOL0     H20761   0.705   4.664   7.195  0.1600  0.6112 -1.0394
  154MOL0     H20762   0.709   4.364   7.122  0.9965 -0.9721  2.9028
  154MOL0     H20763   0.581   4.476   7.075 -1.7813  2.8999  2.2071
  154MOL0     H20764   0.519   4.337   7.267  0.2990  0.1793 -1.8065
  154MOL0     H20765   0.658   4.399   7.353 -0.3604 -0.5762 -0.0061
  154MOL0     H20766   0.391   4.528   7.273 -0.3959 -0.1719  1.8885
  154MOL0     H20767   0.541   4.624   7.327  3.2328 -2.5546 -1.6656
  154MOL0     H20768   0.366   4.435   7.491  1.3973 -0.7465  2.1905
  154MOL0     H20769   0.531   4.490   7.547  2.0518  1.6674 -1.2964
  154MOL0     H20770   0.644   4.760   7.560 -0.7062  0.5967 -0.0417
  154MOL0     H20771   0.598   4.937   7.738  2.1343  0.3418  3.4348
  154MOL0     H20772   0.913   5.388   8.031 -0.8855  1.6499 -0.6177
  154MOL0     H20773   0.800   5.521   8.210 -1.5851  0.0268  1.4190
  154MOL0     H20774   0.338   4.047   8.771 -1.2895 -0.1294 -0.3130
  154MOL0     H20775   0.187   3.845   8.837 -3.7350  1.7869  0.3409
  154MOL0     H20776  -0.106   3.676   8.978  0.6150 -0.3871 -1.4302
  154MOL0     H20777  -0.275   3.535   8.983 -0.5915 -0.1990 -0.9973
  154MOL0     H20778  -0.460   3.420   9.066 -0.9364 -0.4239  0.5054
  154MOL0     H20779  -0.421   3.447   9.230 -0.9754  3.0923 -2.8372
  154MOL0     H20780  -0.625   3.302   9.214  0.0149  1.0930 -0.1683
  154MOL0     H20781  -0.501   3.204   9.287 -2.9034  0.9054  0.3196
  154MOL0     H20782  -0.445   3.099   9.079  1.3941  4.1514  0.8383
  154MOL0     H20783  -0.571   3.183   8.999  1.9792 -1.7343  0.0073
  154MOL0     H20784  -0.599   2.940   9.141  3.2101  0.9906 -1.3486
  154MOL0     H20785  -0.681   3.054   9.247 -1.7546  1.3619 -0.7230
  154MOL0     H20786  -0.959   3.053   8.931  0.5826 -0.0118 -0.7813
  154MOL0     H20787  -0.092   3.281   9.274 -0.6469 -1.1706 -1.4050
  154MOL0     H20788   0.222   3.472   9.279 -0.1078  2.6010 -1.6136
  154MOL0     H20789   0.121   3.541   9.399  1.3548 -1.7182  2.5773
  154MOL0     H20790   0.111   3.369   9.383 -2.1110  2.3505  2.0555
  155MOL0     O20791   3.950   7.581   5.100 -1.0910 -0.1654 -0.1507
  155MOL0     C20792   3.943   7.702   5.134  0.7775  0.4397  0.2294
  155MOL0     O20793   3.947   7.753   5.256  0.3595  0.1614  1.4045
  155MOL0     C20794   3.900   7.674   5.356 -0.3089 -0.3867 -0.0105
  155MOL0     C20795   3.761   7.671   5.382  0.2640  0.5240  0.4339
  155MOL0     C20796   3.710   7.581   5.478  0.1872 -0.3765  0.5625
  155MOL0     C20797   3.802   7.488   5.541 -0.3848  0.0444  0.0019
  155MOL0     O20798   3.754   7.398   5.631  0.3355 -0.1660  0.8763
  155MOL0     C20799   3.798   7.265   5.611 -0.1678 -0.2623 -0.4008
  155MOL0     C20800   3.779   7.179   5.738  0.6331  0.2552  0.5933
  155MOL0     C20801   3.828   7.033   5.726 -0.0034 -0.3279 -0.3878
  155MOL0     C20802   3.804   6.954   5.844 -0.8192 -0.1711 -0.0291
  155MOL0     C20803   3.875   6.982   5.967  0.6158  0.0306  0.5273
  155MOL0     C20804   3.877   6.857   6.051 -0.6342  0.0484 -0.7328
  155MOL0     C20805   3.752   6.804   6.115  0.9781  0.3410  0.0729
  155MOL0     C20806   3.664   6.722   6.021 -0.4721  0.0972  0.5457
  155MOL0     N20807   3.691   6.580   6.025 -0.3823 -0.2879  0.0360
  155MOL0     C20808   3.779   6.515   5.930  0.8878  0.2815 -0.5096
  155MOL0     C20809   3.766   6.388   5.949  0.3465  1.1815  0.6391
  155MOL0     C20810   3.841   6.277   5.877 -0.2980  0.6624 -0.0652
  155MOL0     C20811   3.796   6.132   5.898  0.3748  0.3811 -0.6406
  155MOL0     C20812   3.669   6.108   5.816 -0.4274  0.2741  0.4024
  155MOL0     C20813   3.612   5.964   5.855  0.1399  0.6289 -0.5988
  155MOL0     O20814   3.724   5.864   5.839 -0.1018 -0.1669  0.3971
  155MOL0     C20815   3.753   5.801   5.721  0.1617  0.2513 -0.2295
  155MOL0     C20816   3.875   5.728   5.721 -0.7325  0.6642  0.2690
  155MOL0     C20817   3.926   5.655   5.611 -0.6609 -0.1364  0.6675
  155MOL0     C20818   3.854   5.654   5.489  0.6632 -0.4083  0.4846
  155MOL0     C20819   3.904   5.564   5.382 -0.3749 -0.5573  0.5587
  155MOL0     O20820   4.029   5.522   5.380 -0.8196 -0.4432 -0.8729
  155MOL0     C20821   4.077   5.469   5.259 -0.0299  0.0345 -0.4933
  155MOL0     C20822   4.089   5.544   5.141  0.1326 -0.3681 -0.8276
  155MOL0     C20823   4.154   5.494   5.021  0.8248 -0.5426  0.1467
  155MOL0     C20824   4.206   5.369   5.022  1.0742 -0.0075  0.7493
  155MOL0     O20825   4.263   5.314   4.908 -0.4190  0.0812 -0.0450
  155MOL0     C20826   4.175   5.303   4.796  0.7446 -0.4699 -0.3760
  155MOL0     C20827   4.222   5.202   4.697 -0.1483 -0.5137 -0.0025
  155MOL0     C20828   4.210   5.065   4.759 -0.4426  0.4563 -1.1398
  155MOL0     C20829   4.197   4.953   4.655  1.5863  0.0371  1.2314
  155MOL0     C20830   4.160   4.818   4.721  0.6116  0.8792  0.5687
  155MOL0     C20831   4.009   4.805   4.750  0.2423 -0.3028 -0.0283
  155MOL0     C20832   3.984   4.782   4.893  1.5689  0.1791  0.0521
  155MOL0     C20833   3.831   4.818   4.915  0.0271  0.2119  0.7695
  155MOL0    Cl20834   3.738   4.735   4.788 -0.0483  0.1694  0.0239
  155MOL0     C20835   4.196   5.290   5.138 -0.4338 -0.4510 -0.2986
  155MOL0     C20836   4.130   5.331   5.249  0.5009 -0.0493 -0.5561
  155MOL0     O20837   3.825   5.528   5.294 -0.3416 -0.9099 -0.1641
  155MOL0     C20838   3.733   5.736   5.482 -0.2021 -0.5818  0.5563
  155MOL0     C20839   3.682   5.805   5.595 -0.1930  0.3593  0.5011
  155MOL0     N20840   3.686   6.372   6.062  0.3453  1.0343 -1.0668
  155MOL0     N20841   3.639   6.487   6.109 -0.5097  0.0013 -0.0917
  155MOL0     C20842   3.938   7.506   5.523  0.3623 -0.1190  0.3721
  155MOL0     C20843   3.983   7.598   5.422 -0.5679 -0.3685 -1.0744
  155MOL0     C20844   3.927   7.792   5.015  0.0509  1.1698 -0.6491
  155MOL0     C20845   3.813   7.782   4.934  0.2641  0.8469  0.6742
  155MOL0     C20846   3.798   7.875   4.823 -0.0497 -0.2839  0.1386
  155MOL0     C20847   3.890   7.975   4.796  0.5901  0.4857  0.1448
  155MOL0     O20848   3.872   8.060   4.690 -0.4115 -1.0321  0.6889
  155MOL0     C20849   3.969   8.165   4.686 -0.4822 -0.5996  0.2680
  155MOL0     C20850   3.935   8.238   4.550 -0.5593 -0.6174  0.4722
  155MOL0     C20851   3.848   8.160   4.444 -0.7769 -0.2269  0.0028
  155MOL0     C20852   3.930   8.047   4.392  0.9583  0.1375  0.2118
  155MOL0     C20853   3.836   7.954   4.317 -0.9007 -0.5394  0.2894
  155MOL0     C20854   3.766   7.874   4.255  0.1772 -0.4580  0.2254
  155MOL0     C20855   3.999   7.984   4.882 -0.3399  0.4934  0.7989
  155MOL0     C20856   4.023   7.899   4.990 -0.0059 -0.1144 -0.3634
  155MOL0     C20857   4.143   7.923   5.073 -0.1835 -0.2163  0.1513
  155MOL0     H20858   3.687   7.733   5.333  0.7731  1.7599  1.1876
  155MOL0     H20859   3.604   7.593   5.496 -0.0049  2.5898 -1.8084
  155MOL0     H20860   3.730   7.210   5.546 -2.7441 -4.3528  4.9446
  155MOL0     H20861   3.900   7.253   5.572  1.4073 -0.5009  3.3981
  155MOL0     H20862   3.670   7.173   5.748  0.2937 -0.1178 -2.3770
  155MOL0     H20863   3.831   7.233   5.817  0.0655  0.5510  0.7687
  155MOL0     H20864   3.934   7.040   5.699 -0.6659  0.6726 -3.1440
  155MOL0     H20865   3.766   7.001   5.642 -0.3544 -1.8812  0.4402
  155MOL0     H20866   3.697   6.959   5.864 -1.0026  0.5662 -1.1529
  155MOL0     H20867   3.831   6.853   5.812 -2.5643  0.1608 -2.8597
  155MOL0     H20868   3.973   7.019   5.937 -0.1066  0.5025 -1.3965
  155MOL0     H20869   3.815   7.056   6.021 -2.5033 -2.6828  1.1101
  155MOL0     H20870   3.928   6.768   6.013  0.4906  0.4181 -0.1528
  155MOL0     H20871   3.937   6.894   6.136  0.4487  0.6785 -1.7289
  155MOL0     H20872   3.681   6.886   6.128 -1.5360 -1.6341 -0.4342
  155MOL0     H20873   3.759   6.756   6.213 -0.1293 -2.8981 -1.3088
  155MOL0     H20874   3.561   6.738   6.055 -0.3667  0.5381  0.6644
  155MOL0     H20875   3.654   6.751   5.916  1.6828  0.0294  0.2839
  155MOL0     H20876   3.840   6.563   5.854  1.0330  0.5617 -0.2170
  155MOL0     H20877   3.854   6.301   5.771  1.5021 -0.2717 -0.0990
  155MOL0     H20878   3.943   6.272   5.915  2.0355 -1.7739 -5.5039
  155MOL0     H20879   3.874   6.061   5.865 -0.4999 -1.3838  0.8964
  155MOL0     H20880   3.789   6.110   6.005  1.0161 -0.1747 -0.7047
  155MOL0     H20881   3.688   6.107   5.708 -2.3085 -2.8712 -0.0288
  155MOL0     H20882   3.610   6.196   5.843  2.8515  2.4174  1.1281
  155MOL0     H20883   3.531   5.947   5.784  3.0726  2.0604 -4.6935
  155MOL0     H20884   3.581   5.969   5.959 -0.4205 -4.2020 -0.3138
  155MOL0     H20885   3.919   5.714   5.819 -1.2040 -3.4386  0.0741
  155MOL0     H20886   4.009   5.586   5.623 -2.2917 -2.7665 -1.6871
  155MOL0     H20887   4.067   5.650   5.145  1.8480  0.0082  2.2307
  155MOL0     H20888   4.162   5.547   4.926 -2.7952 -2.6115 -1.5330
  155MOL0     H20889   4.072   5.288   4.827  1.1643 -1.7098  0.5166
  155MOL0     H20890   4.185   5.398   4.742  1.2956 -1.7717 -2.6709
  155MOL0     H20891   4.146   5.213   4.618 -0.2863  0.7442  0.2849
  155MOL0     H20892   4.321   5.221   4.655 -0.9419 -0.1574 -1.8163
  155MOL0     H20893   4.302   5.049   4.817 -1.4340  2.1499  1.0404
  155MOL0     H20894   4.133   5.061   4.837  1.9583  0.4039  1.4133
  155MOL0     H20895   4.292   4.930   4.605 -0.1023 -3.5768 -0.7738
  155MOL0     H20896   4.129   4.979   4.573 -0.2049 -0.9146  2.3378
  155MOL0     H20897   4.220   4.813   4.812 -1.0251  1.9638  1.7660
  155MOL0     H20898   4.180   4.730   4.659  0.4636  1.1340  0.1580
  155MOL0     H20899   3.951   4.891   4.713 -1.0183 -0.5602  1.2540
  155MOL0     H20900   3.973   4.716   4.697  0.7175 -2.0121  2.3948
  155MOL0     H20901   4.050   4.841   4.959  0.3345 -0.6110  2.1030
  155MOL0     H20902   3.997   4.675   4.911 -0.2470  0.1628  1.6553
  155MOL0     H20903   3.791   4.794   5.014  0.7508  0.3714  1.1094
  155MOL0     H20904   3.819   4.925   4.894 -1.0710 -0.1975 -0.9082
  155MOL0     H20905   4.253   5.197   5.127  2.5925  1.4304 -2.1611
  155MOL0     H20906   4.120   5.261   5.331 -0.1711  0.2011 -0.4123
  155MOL0     H20907   3.686   5.745   5.385  0.8649  1.3320  0.1661
  155MOL0     H20908   3.586   5.856   5.585 -0.8364 -0.8102  0.4762
  155MOL0     H20909   4.011   7.440   5.567  2.7809  1.2999 -1.2876
  155MOL0     H20910   4.086   7.595   5.388 -0.2826 -1.9341 -0.1574
  155MOL0     H20911   3.756   7.690   4.948  2.6551 -0.8432 -0.0022
  155MOL0     H20912   3.710   7.881   4.759 -0.6661  2.0769  1.0776
  155MOL0     H20913   4.072   8.134   4.665 -0.3952  1.8225 -4.0356
  155MOL0     H20914   3.972   8.231   4.773 -0.8937 -0.3321  0.0830
  155MOL0     H20915   4.030   8.280   4.516 -0.1871 -0.8359  1.2204
  155MOL0     H20916   3.878   8.327   4.577 -2.5041 -1.4736 -0.6163
  155MOL0     H20917   3.828   8.220   4.354  0.6688  0.6680  0.2471
  155MOL0     H20918   3.752   8.126   4.483 -0.4778 -0.4873  0.5152
  155MOL0     H20919   4.011   8.097   4.337 -0.0801  3.5123  1.4672
  155MOL0     H20920   3.970   7.988   4.475  0.9968 -1.0414 -0.6170
  155MOL0     H20921   3.709   7.794   4.213 -0.3279 -0.4954  0.9555
  155MOL0     H20922   4.078   8.059   4.888  2.3861 -2.2056  1.3021
  155MOL0     H20923   4.210   8.002   5.039  1.4563 -2.5546 -2.5575
  155MOL0     H20924   4.101   7.941   5.172  0.6099 -1.6982  0.7984
  155MOL0     H20925   4.203   7.833   5.053 -0.4767 -0.0355 -1.7520
  156MOL0     O20926   8.588   2.808   5.805  0.0762 -0.2719  0.1170
  156MOL0     C20927   8.555   2.690   5.792 -0.3342  0.0456 -0.8340
  156MOL0     O20928   8.583   2.604   5.688  0.1977  0.5680  0.4287
  156MOL0     C20929   8.654   2.641   5.576  0.9093  0.1874 -0.2436
  156MOL0     C20930   8.791   2.668   5.583  0.1426 -0.8737 -0.1344
  156MOL0     C20931   8.867   2.694   5.465 -0.0960 -0.8425 -0.1004
  156MOL0     C20932   8.809   2.694   5.334  0.2926 -0.4273 -0.8509
  156MOL0     O20933   8.867   2.737   5.215  0.4561 -0.3888 -0.6064
  156MOL0     C20934   8.887   2.876   5.208  0.6447 -0.8913  0.1339
  156MOL0     C20935   8.831   2.930   5.077 -0.2951  0.2438 -1.1053
  156MOL0     C20936   8.865   3.078   5.064 -0.4873  0.3193 -0.9153
  156MOL0     C20937   8.798   3.148   4.953 -1.1181 -0.6202  0.5601
  156MOL0     C20938   8.861   3.298   4.939  0.4640 -0.7644 -0.3892
  156MOL0     C20939   8.807   3.385   4.829 -0.2917 -0.1008 -0.0960
  156MOL0     C20940   8.879   3.338   4.699  0.2573  0.4482 -0.5310
  156MOL0     C20941   9.017   3.395   4.683 -0.1317  0.1768 -0.3555
  156MOL0     N20942   9.068   3.365   4.548 -0.2919  0.5598  0.3689
  156MOL0     C20943   9.191   3.301   4.525  1.0758 -0.2988 -0.4356
  156MOL0     C20944   9.191   3.275   4.390 -1.0403 -0.4827 -0.6750
  156MOL0     C20945   9.309   3.219   4.320  0.2917 -0.1412  0.6787
  156MOL0     C20946   9.286   3.165   4.180  0.4930  1.0608  0.2010
  156MOL0     C20947   9.191   3.045   4.196 -0.8271  0.3927 -0.2257
  156MOL0     C20948   9.176   2.980   4.059  0.3731  0.7555 -1.0025
  156MOL0     O20949   9.129   2.849   4.072  0.2294 -0.0886  0.2860
  156MOL0     C20950   8.989   2.833   4.053 -0.0740 -0.2254 -0.1129
  156MOL0     C20951   8.933   2.777   3.935  0.3770 -0.2794  0.0675
  156MOL0     C20952   8.798   2.773   3.919 -0.5522 -0.4481 -0.9613
  156MOL0     C20953   8.710   2.810   4.022 -0.1084  0.5996  0.4220
  156MOL0     C20954   8.567   2.794   4.013  0.9198  0.4437 -0.6614
  156MOL0     O20955   8.530   2.677   3.941 -0.4189  0.0438 -0.3185
  156MOL0     C20956   8.404   2.656   3.906 -0.5456 -0.8165 -0.4343
  156MOL0     C20957   8.299   2.626   4.000 -0.3326  0.0989 -0.4752
  156MOL0     C20958   8.166   2.605   3.958  0.2723 -1.4135 -0.6634
  156MOL0     C20959   8.129   2.652   3.831 -0.3330  0.1822 -0.9328
  156MOL0     O20960   7.998   2.648   3.792  0.2411  0.3199 -0.1422
  156MOL0     C20961   7.889   2.701   3.871 -0.5558  0.1340 -0.1082
  156MOL0     C20962   7.764   2.623   3.838  0.1530 -0.0387 -0.6607
  156MOL0     C20963   7.782   2.480   3.885 -0.0574 -0.4123 -0.3523
  156MOL0     C20964   7.647   2.410   3.859 -0.1656  0.7824 -0.5524
  156MOL0     C20965   7.661   2.265   3.816  1.5504 -0.3566  0.5086
  156MOL0     C20966   7.517   2.203   3.806 -0.4472  0.6221 -0.3589
  156MOL0     C20967   7.539   2.053   3.791  0.3062 -0.3881  0.0355
  156MOL0     C20968   7.402   1.973   3.787  0.6702  0.2321  0.2925
  156MOL0    Cl20969   7.298   2.017   3.637 -0.1101  0.0037 -0.1841
  156MOL0     C20970   8.227   2.676   3.740 -0.0027  0.2273 -0.5380
  156MOL0     C20971   8.366   2.670   3.781 -0.3925 -0.0102  0.3873
  156MOL0     O20972   8.488   2.864   4.069 -0.2909 -0.1053 -1.1320
  156MOL0     C20973   8.761   2.873   4.127  0.4042 -0.0304 -0.2153
  156MOL0     C20974   8.895   2.882   4.150  0.5456  0.5489  0.4635
  156MOL0     N20975   9.065   3.308   4.339 -0.0169 -0.4784 -1.1685
  156MOL0     N20976   8.992   3.368   4.430  0.0290  0.7206 -0.1532
  156MOL0     C20977   8.661   2.681   5.340  0.3593 -0.2080 -1.1632
  156MOL0     C20978   8.586   2.663   5.457  0.0480 -0.7016 -0.3040
  156MOL0     C20979   8.479   2.630   5.912  0.4931 -0.5755 -0.3390
  156MOL0     C20980   8.417   2.506   5.889 -0.5256 -0.1183 -0.9256
  156MOL0     C20981   8.330   2.439   5.983  0.4287 -0.1437 -0.7122
  156MOL0     C20982   8.303   2.498   6.103 -0.7569  0.2641 -0.5598
  156MOL0     O20983   8.243   2.432   6.203  0.1708  0.6051  0.0464
  156MOL0     C20984   8.183   2.302   6.184  0.3479  0.0274 -0.6212
  156MOL0     C20985   8.289   2.185   6.195 -1.8282  0.0346  0.0504
  156MOL0     C20986   8.234   2.044   6.227  0.2607  0.2887 -0.1548
  156MOL0     C20987   8.134   1.997   6.125  0.3824 -0.2995  0.2986
  156MOL0     C20988   8.182   2.018   5.993 -1.2065 -0.7616 -0.7418
  156MOL0     C20989   8.232   2.026   5.878 -0.3939 -1.0533  0.4820
  156MOL0     C20990   8.361   2.617   6.132 -1.2122 -1.1528  0.3360
  156MOL0     C20991   8.448   2.689   6.038 -0.3551  0.8466  0.5623
  156MOL0     C20992   8.517   2.819   6.080 -0.2311  0.7724  0.3915
  156MOL0     H20993   8.857   2.660   5.670 -0.0422  0.4366  0.1558
  156MOL0     H20994   8.956   2.756   5.476 -1.7412  1.5419  0.3316
  156MOL0     H20995   8.847   2.937   5.290 -1.3806 -0.8062 -0.8516
  156MOL0     H20996   8.993   2.904   5.205  0.1060  1.2890 -1.7460
  156MOL0     H20997   8.722   2.936   5.072 -0.2388  0.7669 -1.9626
  156MOL0     H20998   8.879   2.881   4.992 -1.0760 -1.2709 -0.6976
  156MOL0     H20999   8.971   3.090   5.042  0.1638 -1.7249  0.7659
  156MOL0     H21000   8.850   3.127   5.161 -0.2171 -3.5879  1.3201
  156MOL0     H21001   8.818   3.102   4.856 -1.0062  1.6554 -0.5813
  156MOL0     H21002   8.689   3.137   4.958 -0.9652 -1.7812  2.6257
  156MOL0     H21003   8.836   3.351   5.031 -0.1999 -1.1878 -0.3206
  156MOL0     H21004   8.970   3.289   4.930  0.9927  0.9604  2.8824
  156MOL0     H21005   8.698   3.380   4.823 -0.1811 -1.1490 -3.1015
  156MOL0     H21006   8.833   3.489   4.850 -1.7993  0.0752  1.1218
  156MOL0     H21007   8.813   3.366   4.616 -1.6825  1.6786  1.3137
  156MOL0     H21008   8.880   3.229   4.708 -0.9492  0.4823  0.3244
  156MOL0     H21009   9.006   3.503   4.701 -4.3457 -0.5782  3.4734
  156MOL0     H21010   9.073   3.361   4.770 -2.1848  1.3753  1.5627
  156MOL0     H21011   9.279   3.287   4.587  2.7563  1.4172 -2.2775
  156MOL0     H21012   9.378   3.304   4.317  0.9650 -0.6720  0.7488
  156MOL0     H21013   9.354   3.154   4.396  1.6194  1.0394  0.9536
  156MOL0     H21014   9.229   3.234   4.117 -1.1255 -2.1438 -2.1376
  156MOL0     H21015   9.375   3.140   4.121  0.3870  1.0885  0.0265
  156MOL0     H21016   9.089   3.061   4.232 -0.2683  0.5209  1.3450
  156MOL0     H21017   9.243   2.975   4.262  0.0793  0.1422 -1.1752
  156MOL0     H21018   9.270   2.976   4.003  1.5830  2.9232  0.7299
  156MOL0     H21019   9.112   3.044   3.998  0.7962  1.5075 -0.6665
  156MOL0     H21020   8.999   2.743   3.855  3.3694 -1.1137  2.6722
  156MOL0     H21021   8.749   2.745   3.826  1.0482  0.2726 -2.0582
  156MOL0     H21022   8.330   2.634   4.104  1.5422 -1.0804 -0.9023
  156MOL0     H21023   8.093   2.586   4.036  1.2691 -1.8606  0.1954
  156MOL0     H21024   7.907   2.696   3.979 -2.3571  3.2975  0.4457
  156MOL0     H21025   7.883   2.802   3.830 -2.3287 -0.8428 -2.4939
  156MOL0     H21026   7.688   2.677   3.895 -0.2196  0.9460 -2.0404
  156MOL0     H21027   7.739   2.630   3.732 -2.6558  3.0561  0.0080
  156MOL0     H21028   7.858   2.429   3.825 -0.7680 -2.6459  0.5454
  156MOL0     H21029   7.814   2.470   3.989 -0.5405 -2.8111 -0.3850
  156MOL0     H21030   7.597   2.475   3.787  1.9048  1.8793 -1.0947
  156MOL0     H21031   7.587   2.428   3.948 -0.5968  0.7873 -0.8418
  156MOL0     H21032   7.723   2.216   3.890 -1.2289  1.2406  4.2275
  156MOL0     H21033   7.712   2.264   3.719 -0.4550  1.8426 -0.6906
  156MOL0     H21034   7.463   2.209   3.901  1.4311 -0.4025  0.8411
  156MOL0     H21035   7.453   2.241   3.726 -2.3946 -1.6782  0.0032
  156MOL0     H21036   7.599   2.018   3.876 -0.2442 -0.3380  0.4513
  156MOL0     H21037   7.596   2.048   3.698 -0.2143 -0.4627 -0.2856
  156MOL0     H21038   7.430   1.867   3.780 -5.2447 -1.7706  1.5921
  156MOL0     H21039   7.345   1.979   3.880  0.5415 -1.2298  0.3399
  156MOL0     H21040   8.196   2.709   3.641 -1.1396  1.1653  0.0998
  156MOL0     H21041   8.454   2.687   3.720  0.0343 -2.7967  0.1138
  156MOL0     H21042   8.695   2.923   4.198  2.4797  3.3130 -0.4085
  156MOL0     H21043   8.928   2.935   4.239  2.6517 -0.0315  0.0759
  156MOL0     H21044   8.610   2.673   5.245  1.3262  2.3996 -1.9934
  156MOL0     H21045   8.481   2.638   5.467  0.1545 -1.2178 -0.4687
  156MOL0     H21046   8.424   2.459   5.791  0.2380 -1.8884 -0.0641
  156MOL0     H21047   8.292   2.341   5.954  2.1970 -1.0482 -0.0573
  156MOL0     H21048   8.120   2.298   6.094 -0.3328 -1.7216 -0.1042
  156MOL0     H21049   8.116   2.275   6.265 -0.1705 -1.1493 -1.4053
  156MOL0     H21050   8.360   2.216   6.273 -1.9284  4.8924 -1.4533
  156MOL0     H21051   8.353   2.189   6.106 -0.4129 -0.1835  1.0188
  156MOL0     H21052   8.175   2.041   6.320  0.5507 -2.4677  0.0369
  156MOL0     H21053   8.320   1.977   6.241  0.1515 -0.5918 -3.1475
  156MOL0     H21054   8.094   1.900   6.154 -3.1225  0.2386 -2.1481
  156MOL0     H21055   8.044   2.058   6.123 -2.4091 -4.0829  0.2341
  156MOL0     H21056   8.269   2.043   5.779 -1.3812  2.6898  0.6277
  156MOL0     H21057   8.337   2.645   6.234  1.3688 -1.2149  1.0098
  156MOL0     H21058   8.625   2.810   6.062  0.2730  3.5101  1.5854
  156MOL0     H21059   8.470   2.906   6.034 -3.4598 -1.7991 -1.6465
  156MOL0     H21060   8.506   2.842   6.186 -1.0936  1.8663  0.0832
  157MOL0     O21061   9.387   7.302   8.062  0.4416 -0.3460 -0.3646
  157MOL0     C21062   9.303   7.389   8.055  0.6569  0.6946 -0.1891
  157MOL0     O21063   9.334   7.513   8.056 -0.6177 -0.6944  0.4799
  157MOL0     C21064   9.462   7.565   8.082  0.3600 -0.3757  0.4822
  157MOL0     C21065   9.507   7.675   8.006 -0.8680  0.1671 -0.4092
  157MOL0     C21066   9.631   7.725   8.033 -0.1823  0.1125 -1.0720
  157MOL0     C21067   9.721   7.670   8.130  0.2686 -0.5376  0.5531
  157MOL0     O21068   9.848   7.698   8.142 -0.2184  0.0452  0.9034
  157MOL0     C21069   9.924   7.716   8.016 -1.2057 -0.2208  0.0121
  157MOL0     C21070  10.004   7.589   7.972 -0.0667  0.3148  0.8693
  157MOL0     C21071  10.097   7.531   8.074 -0.2093 -0.2475 -0.3114
  157MOL0     C21072  10.155   7.387   8.030 -0.2067  0.9342 -0.1358
  157MOL0     C21073  10.197   7.315   8.158 -1.1841  0.5273 -0.1456
  157MOL0     C21074  10.283   7.184   8.120 -0.2934  0.2712  0.5016
  157MOL0     C21075  10.289   7.073   8.227  0.4376  0.6279 -0.0855
  157MOL0     C21076  10.383   6.963   8.186 -0.5982 -0.1522 -0.3558
  157MOL0     N21077  10.417   6.878   8.308  0.6284 -0.4794  0.5946
  157MOL0     C21078  10.327   6.833   8.399 -0.2770  0.7777  0.5545
  157MOL0     C21079  10.399   6.806   8.511  0.6342  0.2276 -0.5771
  157MOL0     C21080  10.338   6.748   8.634  0.3484 -0.5262  0.3333
  157MOL0     C21081  10.222   6.834   8.694 -0.0904 -0.4282  0.5830
  157MOL0     C21082  10.162   6.768   8.813 -0.5462 -0.7167  0.3202
  157MOL0     C21083  10.075   6.870   8.878 -1.1467 -0.3163 -0.4593
  157MOL0     O21084  10.028   6.814   9.003  0.0608 -0.7520  0.4816
  157MOL0     C21085   9.915   6.859   9.055 -0.9046  0.2156 -0.4283
  157MOL0     C21086   9.880   6.806   9.176 -1.2472 -0.5503 -0.1312
  157MOL0     C21087   9.779   6.862   9.249  1.3304 -0.1095  0.3426
  157MOL0     C21088   9.687   6.958   9.201  0.3572  0.0518 -1.0703
  157MOL0     C21089   9.578   7.005   9.284 -1.1772  0.6322 -0.2149
  157MOL0     O21090   9.499   7.094   9.232  0.4663  0.8783  0.7979
  157MOL0     C21091   9.402   7.149   9.319  0.0914  0.7897  0.7666
  157MOL0     C21092   9.415   7.273   9.371 -0.3891 -0.3003 -0.6732
  157MOL0     C21093   9.318   7.326   9.463 -0.7000 -0.3908  0.3575
  157MOL0     C21094   9.219   7.248   9.518 -0.1214 -0.4813 -0.6340
  157MOL0     O21095   9.130   7.318   9.596 -0.6449 -0.4323  0.1830
  157MOL0     C21096   9.030   7.251   9.670 -1.2019  0.9363  0.2083
  157MOL0     C21097   8.987   7.340   9.787  1.2012  0.5980 -0.8786
  157MOL0     C21098   8.885   7.272   9.884 -0.4862  0.4320  0.4779
  157MOL0     C21099   8.748   7.256   9.825  0.9206  0.6846  0.2467
  157MOL0     C21100   8.646   7.141   9.872 -0.0860 -0.2320  0.0382
  157MOL0     C21101   8.514   7.156   9.814  1.5015  0.9083  0.4279
  157MOL0     C21102   8.416   7.042   9.831  1.0550  0.4298 -0.1689
  157MOL0     C21103   8.288   7.101   9.780 -0.2597  0.3707  0.2982
  157MOL0    Cl21104   8.148   7.008   9.848 -0.3237 -0.2782  0.1155
  157MOL0     C21105   9.204   7.116   9.462  0.2425 -1.0248 -0.0806
  157MOL0     C21106   9.294   7.067   9.368  0.4943 -0.1658  0.2638
  157MOL0     O21107   9.575   6.972   9.403 -0.1455 -0.5916 -0.3081
  157MOL0     C21108   9.721   7.012   9.075  0.2214 -0.1817 -0.1399
  157MOL0     C21109   9.838   6.963   9.008  0.1440  0.7227  1.0810
  157MOL0     N21110  10.530   6.838   8.490 -0.3412  0.1261  0.0995
  157MOL0     N21111  10.539   6.875   8.369  0.0421 -0.1195  0.4186
  157MOL0     C21112   9.672   7.567   8.209  0.1861  0.2098 -0.2232
  157MOL0     C21113   9.545   7.516   8.188  0.8468 -0.3603  0.3196
  157MOL0     C21114   9.162   7.355   8.040 -0.0669 -0.0737 -0.5429
  157MOL0     C21115   9.129   7.236   7.975 -0.3138 -0.3636 -0.6569
  157MOL0     C21116   9.001   7.198   7.948 -0.3825  0.0362  0.1677
  157MOL0     C21117   8.895   7.272   8.011  0.2446 -0.2805  0.4534
  157MOL0     O21118   8.769   7.217   7.987  0.3438 -0.5482  0.0390
  157MOL0     C21119   8.647   7.273   8.036 -0.3661  0.4417  0.4090
  157MOL0     C21120   8.588   7.377   7.934  0.1336 -0.7238  0.0742
  157MOL0     C21121   8.434   7.391   7.969 -0.6585 -0.1060  0.0620
  157MOL0     C21122   8.351   7.454   7.846  0.6878 -0.7082 -0.6491
  157MOL0     C21123   8.392   7.596   7.820 -0.3423 -0.4578 -1.3976
  157MOL0     C21124   8.413   7.714   7.795 -0.4396 -0.1269 -0.0629
  157MOL0     C21125   8.920   7.396   8.069  0.3407 -0.3256 -0.5404
  157MOL0     C21126   9.051   7.433   8.096 -0.2381 -0.2383  0.7401
  157MOL0     C21127   9.086   7.564   8.172 -0.2711  0.5014 -1.2140
  157MOL0     H21128   9.458   7.713   7.917 -1.0377  2.3088  0.5452
  157MOL0     H21129   9.669   7.795   7.959 -1.0513 -2.0311 -3.7336
  157MOL0     H21130   9.871   7.741   7.924 -0.8415 -2.9033 -1.0282
  157MOL0     H21131   9.995   7.796   8.037 -0.0769 -1.3954  0.7907
  157MOL0     H21132  10.055   7.612   7.878 -2.0110  0.8695 -0.1063
  157MOL0     H21133   9.936   7.509   7.941 -0.7935  1.0474  0.5311
  157MOL0     H21134  10.050   7.536   8.173 -1.7122  0.3585 -1.0132
  157MOL0     H21135  10.174   7.607   8.088 -2.0280  2.0736 -1.9783
  157MOL0     H21136  10.084   7.324   7.975  0.3978  1.3474 -1.4423
  157MOL0     H21137  10.242   7.402   7.966 -0.2844 -1.6408 -0.9936
  157MOL0     H21138  10.262   7.374   8.223 -1.4792  1.0664 -0.3333
  157MOL0     H21139  10.108   7.300   8.219 -0.1929  1.7454  1.6787
  157MOL0     H21140  10.235   7.146   8.030 -0.7486 -2.1753  1.6998
  157MOL0     H21141  10.384   7.219   8.098  0.0300 -1.1571 -0.4312
  157MOL0     H21142  10.186   7.040   8.245  0.6260 -0.0373 -0.1995
  157MOL0     H21143  10.314   7.110   8.327  2.4768 -0.7109 -0.0443
  157MOL0     H21144  10.357   6.905   8.097  0.1605 -2.7430  0.9953
  157MOL0     H21145  10.480   7.010   8.167 -1.0750  1.4476  0.8911
  157MOL0     H21146  10.221   6.821   8.380 -0.0504 -0.9213  0.2540
  157MOL0     H21147  10.296   6.651   8.605 -3.0762 -0.0746  3.2257
  157MOL0     H21148  10.421   6.722   8.700  1.0579  0.9916  0.0804
  157MOL0     H21149  10.278   6.924   8.719  2.3069 -1.2303 -1.4384
  157MOL0     H21150  10.150   6.864   8.617 -1.6594 -1.4491  1.5831
  157MOL0     H21151  10.242   6.744   8.884 -1.2887 -0.1273  1.3852
  157MOL0     H21152  10.118   6.669   8.799 -0.6461 -0.7378  0.7835
  157MOL0     H21153   9.992   6.881   8.808 -0.2547 -2.1613 -1.8867
  157MOL0     H21154  10.121   6.966   8.903 -0.3025 -0.5043 -1.2381
  157MOL0     H21155   9.940   6.725   9.218 -1.0396  0.9054  2.6371
  157MOL0     H21156   9.764   6.825   9.350 -3.2318  1.2128  0.3537
  157MOL0     H21157   9.494   7.336   9.330 -0.2046 -0.2486 -0.2405
  157MOL0     H21158   9.326   7.430   9.494 -0.0863 -0.0343 -0.9177
  157MOL0     H21159   8.944   7.226   9.607  0.2701 -1.7660 -0.8396
  157MOL0     H21160   9.073   7.157   9.704  0.4943  1.6080  0.0021
  157MOL0     H21161   9.077   7.372   9.839  1.0164  0.0330 -0.2009
  157MOL0     H21162   8.951   7.436   9.748  1.4727  0.8873 -0.4160
  157MOL0     H21163   8.923   7.171   9.904  1.8055  1.4647  1.7045
  157MOL0     H21164   8.866   7.330   9.975  1.3648  1.3809  0.3231
  157MOL0     H21165   8.754   7.225   9.721 -2.2813 -1.9734  0.6800
  157MOL0     H21166   8.698   7.353   9.827 -0.2191  0.1212 -0.2151
  157MOL0     H21167   8.631   7.142   9.981  1.0675 -1.3673  0.2415
  157MOL0     H21168   8.694   7.048   9.840  1.2784  0.4592 -0.0117
  157MOL0     H21169   8.469   7.234   9.876  1.5799  2.5673 -1.5079
  157MOL0     H21170   8.524   7.191   9.711 -2.9006 -0.7153 -0.7491
  157MOL0     H21171   8.410   7.009   9.935  0.7469 -0.7900 -0.5564
  157MOL0     H21172   8.441   6.955   9.769  2.1995  0.6403 -0.0217
  157MOL0     H21173   8.284   7.206   9.811  0.0544  0.8534 -1.2259
  157MOL0     H21174   8.290   7.114   9.672  1.3235 -1.4676  0.0547
  157MOL0     H21175   9.124   7.059   9.507 -0.7568 -0.2975 -0.9004
  157MOL0     H21176   9.273   6.963   9.344 -2.8498 -0.7044  4.3033
  157MOL0     H21177   9.653   7.081   9.027 -0.4857 -1.6651 -1.3576
  157MOL0     H21178   9.859   6.999   8.907  0.1365 -1.4162  0.2715
  157MOL0     H21179   9.738   7.513   8.276 -4.3796 -4.1244  1.4323
  157MOL0     H21180   9.517   7.430   8.248 -1.5539  0.8794  1.1034
  157MOL0     H21181   9.216   7.178   7.946  0.5304  0.0982  0.8842
  157MOL0     H21182   8.995   7.102   7.897  0.6921 -0.2177  0.4830
  157MOL0     H21183   8.658   7.307   8.139 -2.2916 -1.0267  1.1603
  157MOL0     H21184   8.582   7.185   8.033 -2.5046  1.9489 -2.2409
  157MOL0     H21185   8.598   7.338   7.832  1.8385 -1.4801  0.4938
  157MOL0     H21186   8.635   7.475   7.949 -0.1311 -0.6403  0.3533
  157MOL0     H21187   8.419   7.451   8.060  1.6939  1.2466 -0.3636
  157MOL0     H21188   8.394   7.292   7.992  1.2989 -0.6260  1.4882
  157MOL0     H21189   8.381   7.400   7.756  1.6332 -2.7621  0.8393
  157MOL0     H21190   8.248   7.443   7.880  1.1007 -2.1512  0.2319
  157MOL0     H21191   8.419   7.817   7.767  3.9026 -0.5642 -1.4560
  157MOL0     H21192   8.838   7.456   8.106  1.4080 -0.9413  3.2239
  157MOL0     H21193   9.011   7.574   8.251 -0.2809 -1.3570 -0.9448
  157MOL0     H21194   9.180   7.551   8.227 -2.1018 -2.4269  1.6236
  157MOL0     H21195   9.089   7.651   8.106 -3.6366  0.9230 -0.9968
  158MOL0     O21196   2.203   7.735   5.024 -0.1756 -0.6505  0.2643
  158MOL0     C21197   2.304   7.802   5.045 -0.5117  0.0955  0.0963
  158MOL0     O21198   2.315   7.935   5.027  0.3379  0.0014 -0.6128
  158MOL0     C21199   2.200   8.008   4.986 -0.7738 -0.5190  0.4234
  158MOL0     C21200   2.125   8.093   5.070  0.0330 -0.4700  0.4142
  158MOL0     C21201   2.020   8.174   5.020  0.3961 -1.1903  0.0071
  158MOL0     C21202   1.978   8.166   4.889 -0.6538 -0.9815  0.5475
  158MOL0     O21203   1.871   8.234   4.850 -0.7610 -0.2834 -0.7957
  158MOL0     C21204   1.885   8.352   4.775  0.3087  0.2413 -0.1217
  158MOL0     C21205   1.923   8.460   4.870  0.2460 -0.3656 -0.4665
  158MOL0     C21206   1.925   8.600   4.797  0.6239 -0.2602 -0.8525
  158MOL0     C21207   2.001   8.704   4.892  0.9717 -0.4502 -0.7044
  158MOL0     C21208   1.914   8.739   5.019 -0.1905 -0.5431  0.4038
  158MOL0     C21209   1.987   8.835   5.120  0.4079  0.6290  0.8827
  158MOL0     C21210   1.960   8.988   5.089  0.7372  0.3953  1.1859
  158MOL0     C21211   2.071   9.060   5.015  0.6669 -1.0985  0.2281
  158MOL0     N21212   2.040   9.207   5.018  0.4869 -0.1024  0.7928
  158MOL0     C21213   2.009   9.284   4.909 -0.4252 -0.0373 -0.8847
  158MOL0     C21214   1.973   9.411   4.957  1.3668  0.3127 -0.0716
  158MOL0     C21215   1.934   9.541   4.887  0.5519  0.0434  0.5479
  158MOL0     C21216   2.052   9.640   4.886 -0.3179  0.1053 -0.5827
  158MOL0     C21217   2.166   9.579   4.803 -0.4351 -0.3301  0.2045
  158MOL0     C21218   2.313   9.637   4.825  0.0948 -0.2586 -0.5087
  158MOL0     O21219   2.365   9.598   4.949 -0.5571 -0.2392  0.1731
  158MOL0     C21220   2.453   9.688   4.996 -0.0304 -0.4578  0.2649
  158MOL0     C21221   2.578   9.704   4.936  0.8259 -0.2380 -0.3228
  158MOL0     C21222   2.674   9.787   5.004  0.0780 -1.0353 -0.1580
  158MOL0     C21223   2.643   9.857   5.124  0.0056  0.3676  1.3899
  158MOL0     C21224   2.747   9.941   5.180  0.4533 -0.3301 -0.1474
  158MOL0     O21225   2.716   9.986   5.311 -1.0196 -0.7377 -0.2395
  158MOL0     C21226   2.813  10.050   5.389 -0.2077  0.3144 -0.1098
  158MOL0     C21227   2.940   9.996   5.417 -0.2278  0.4247  0.0742
  158MOL0     C21228   3.037  10.062   5.489 -0.6629 -0.4679 -0.1666
  158MOL0     C21229   3.012  10.187   5.553 -0.4369 -0.2714  0.7792
  158MOL0     O21230   3.123  10.237   5.624  0.0600  0.0829  0.7403
  158MOL0     C21231   3.100  10.353   5.704 -0.1571  0.0674 -0.2901
  158MOL0     C21232   3.226  10.372   5.793  0.7228  0.5045  0.4212
  158MOL0     C21233   3.224  10.490   5.900 -0.6744  0.2047 -0.8790
  158MOL0     C21234   3.142  10.460   6.023 -0.3129 -0.0483 -0.4120
  158MOL0     C21235   3.169  10.567   6.130 -0.0841  0.3257  0.3652
  158MOL0     C21236   3.319  10.578   6.156  0.9605 -0.0651 -0.3299
  158MOL0     C21237   3.339  10.649   6.297  1.0374  0.5799  0.6618
  158MOL0     C21238   3.483  10.682   6.312  0.2982  0.2239  0.8601
  158MOL0    Cl21239   3.582  10.539   6.300 -0.3447 -0.0256 -0.2999
  158MOL0     C21240   2.879  10.235   5.530 -0.6735 -0.3462 -1.0711
  158MOL0     C21241   2.787  10.170   5.442 -0.5398  0.2044 -0.2300
  158MOL0     O21242   2.853   9.962   5.126 -0.6557 -0.4415  0.3380
  158MOL0     C21243   2.517   9.836   5.189  0.4865  0.5967 -0.0749
  158MOL0     C21244   2.418   9.754   5.114  0.2974 -0.8700  0.4677
  158MOL0     N21245   1.957   9.397   5.092  0.2764  0.2847 -0.2533
  158MOL0     N21246   1.990   9.279   5.125 -0.3820 -0.5642  1.1696
  158MOL0     C21247   2.058   8.099   4.802 -0.6180  0.4876  0.6789
  158MOL0     C21248   2.166   8.018   4.841  0.3026  0.5117 -0.0322
  158MOL0     C21249   2.414   7.722   5.107  0.6283  0.3008  0.0992
  158MOL0     C21250   2.376   7.647   5.222 -0.2630 -0.1323 -0.0456
  158MOL0     C21251   2.477   7.559   5.271  0.6615 -1.1422 -0.1668
  158MOL0     C21252   2.607   7.544   5.221  0.5021 -0.1692  0.9659
  158MOL0     O21253   2.700   7.458   5.268 -0.8340  0.0828 -0.7117
  158MOL0     C21254   2.718   7.338   5.197 -0.2185 -0.2719  0.8093
  158MOL0     C21255   2.788   7.231   5.284  0.1135 -0.9067 -0.3430
  158MOL0     C21256   2.931   7.267   5.285  0.0423 -0.4291  0.0880
  158MOL0     C21257   3.035   7.156   5.267  0.1738 -0.3091 -0.0163
  158MOL0     C21258   3.000   7.047   5.360  0.2995  0.6460  0.0588
  158MOL0     C21259   2.969   6.954   5.431 -0.4743 -0.0336 -0.4517
  158MOL0     C21260   2.624   7.599   5.092 -0.9207 -0.3277 -1.1955
  158MOL0     C21261   2.534   7.693   5.041 -0.1823  0.7541 -0.6069
  158MOL0     C21262   2.571   7.747   4.901  0.4469  0.4379 -0.0555
  158MOL0     H21263   2.156   8.100   5.174  2.1253 -0.3477 -0.1715
  158MOL0     H21264   1.975   8.239   5.094 -0.2640 -1.0692 -0.4900
  158MOL0     H21265   1.967   8.351   4.703  0.3555 -1.3928 -0.0681
  158MOL0     H21266   1.791   8.363   4.720  1.2301  0.5983 -1.6572
  158MOL0     H21267   2.022   8.436   4.909  0.8083 -0.5555 -1.9546
  158MOL0     H21268   1.850   8.458   4.951  1.1479  0.7505  0.4152
  158MOL0     H21269   1.823   8.640   4.801  0.1456 -1.5419  0.4503
  158MOL0     H21270   1.970   8.598   4.698 -0.8882 -1.2544 -1.5591
  158MOL0     H21271   2.101   8.675   4.928  1.3791  1.9869  0.3840
  158MOL0     H21272   2.019   8.791   4.827 -0.8347  2.4653  2.3582
  158MOL0     H21273   1.820   8.785   4.985 -0.9198 -1.9447  0.4619
  158MOL0     H21274   1.888   8.645   5.068  1.6768 -0.7600  1.0584
  158MOL0     H21275   1.951   8.810   5.221  3.6847 -1.0474  1.7647
  158MOL0     H21276   2.094   8.815   5.119  0.7510  2.0497  2.6235
  158MOL0     H21277   1.939   9.031   5.187 -1.2927 -1.8979  1.8349
  158MOL0     H21278   1.871   8.994   5.025  1.8380  0.2827 -0.4070
  158MOL0     H21279   2.170   9.038   5.055  1.0689 -0.4630 -0.3973
  158MOL0     H21280   2.071   9.037   4.908 -1.3288  1.3997 -0.4072
  158MOL0     H21281   2.039   9.256   4.808  3.0741 -0.5559  0.1879
  158MOL0     H21282   1.920   9.512   4.783 -0.3509 -2.3811  1.2637
  158MOL0     H21283   1.846   9.591   4.927 -0.8180 -3.0854  1.7623
  158MOL0     H21284   2.012   9.733   4.845 -1.2516  0.7226  1.6328
  158MOL0     H21285   2.087   9.653   4.989  0.3464 -2.0911 -0.4822
  158MOL0     H21286   2.136   9.583   4.698  0.1070  2.2342  0.0754
  158MOL0     H21287   2.172   9.476   4.840  0.8558  0.2356  1.6810
  158MOL0     H21288   2.318   9.746   4.820  4.6255 -0.2035  1.2471
  158MOL0     H21289   2.379   9.604   4.745 -2.8988 -3.6836 -1.8766
  158MOL0     H21290   2.598   9.653   4.842  0.8665  3.8925 -2.8516
  158MOL0     H21291   2.775   9.772   4.969 -0.6192 -3.2691 -1.3776
  158MOL0     H21292   2.971   9.907   5.362 -0.0765  0.1868  0.5380
  158MOL0     H21293   3.137  10.020   5.494  0.0590  1.1518 -0.5620
  158MOL0     H21294   3.073  10.444   5.650  0.6122  0.1179 -0.6102
  158MOL0     H21295   3.024  10.338   5.781  1.4247  2.5488  1.9391
  158MOL0     H21296   3.251  10.279   5.845 -1.4836 -0.7289 -0.5832
  158MOL0     H21297   3.302  10.394   5.717  0.6991  0.7708  0.4732
  158MOL0     H21298   3.329  10.518   5.919 -1.4145  3.4291 -0.9337
  158MOL0     H21299   3.187  10.579   5.848 -1.4895 -1.3702 -3.0973
  158MOL0     H21300   3.155  10.360   6.066 -2.8421  0.8594  2.8692
  158MOL0     H21301   3.037  10.458   5.991 -0.7885 -0.9207  1.1009
  158MOL0     H21302   3.105  10.539   6.214 -4.8355  0.9475 -2.6629
  158MOL0     H21303   3.135  10.661   6.086  2.0118 -0.6668 -3.9162
  158MOL0     H21304   3.366  10.479   6.158 -2.1998 -1.8484 -3.5714
  158MOL0     H21305   3.355  10.646   6.078 -1.5502  1.5615 -0.1818
  158MOL0     H21306   3.300  10.584   6.377 -0.2098 -0.0289 -0.4013
  158MOL0     H21307   3.277  10.739   6.294  0.4753  0.1649 -0.6836
  158MOL0     H21308   3.521  10.752   6.238  3.0100 -2.5811 -0.6603
  158MOL0     H21309   3.482  10.730   6.410  1.4001 -0.0781  1.0375
  158MOL0     H21310   2.851  10.327   5.579  1.4553 -0.8487  1.3150
  158MOL0     H21311   2.689  10.209   5.415  0.1820  1.3553 -1.3181
  158MOL0     H21312   2.487   9.876   5.285  1.9213  1.1932  0.1527
  158MOL0     H21313   2.320   9.738   5.156  0.1817  0.0014  0.5647
  158MOL0     H21314   2.019   8.096   4.701 -1.7736  0.7502  1.1038
  158MOL0     H21315   2.230   7.965   4.772  2.2651  2.3591  0.2820
  158MOL0     H21316   2.287   7.666   5.281 -1.4185 -1.3981 -1.3149
  158MOL0     H21317   2.448   7.496   5.355  1.0425 -0.9869  0.0837
  158MOL0     H21318   2.756   7.340   5.095 -0.7169  0.9267  0.6383
  158MOL0     H21319   2.619   7.298   5.173  0.3063  0.3475 -2.9761
  158MOL0     H21320   2.756   7.132   5.249  2.2849 -2.1558  0.9605
  158MOL0     H21321   2.744   7.242   5.383 -3.2710  0.4569 -1.8494
  158MOL0     H21322   2.962   7.306   5.383  2.0365 -2.9205  0.5438
  158MOL0     H21323   2.961   7.339   5.209  0.5654  0.1749  0.8512
  158MOL0     H21324   3.018   7.119   5.165 -3.1205  0.0537  0.2765
  158MOL0     H21325   3.133   7.195   5.293 -0.7699  0.4240  2.7095
  158MOL0     H21326   2.948   6.860   5.478 -3.5334  0.9734  0.3512
  158MOL0     H21327   2.700   7.556   5.029 -2.7231 -2.5187 -2.0474
  158MOL0     H21328   2.479   7.731   4.844 -1.2128  1.8422  2.0621
  158MOL0     H21329   2.606   7.851   4.902  0.1193  0.5559 -0.6436
  158MOL0     H21330   2.650   7.694   4.847  1.2880  0.9388  0.6496
  159MOL0     O21331   3.740   9.374   2.059 -0.1446  0.3928  0.2026
  159MOL0     C21332   3.696   9.361   1.943 -0.7446  0.9060 -0.9582
  159MOL0     O21333   3.640   9.452   1.863  0.1330 -0.0630  0.1547
  159MOL0     C21334   3.559   9.551   1.917 -0.0440  1.4734 -0.8734
  159MOL0     C21335   3.513   9.643   1.830 -0.3664 -0.8475 -0.1358
  159MOL0     C21336   3.431   9.755   1.867  1.1256  0.4995 -0.2960
  159MOL0     C21337   3.391   9.757   2.002 -0.4540  0.1258 -1.1959
  159MOL0     O21338   3.303   9.843   2.067  0.5238 -0.0511  0.5301
  159MOL0     C21339   3.216   9.922   1.984 -0.6263 -0.0281  0.8092
  159MOL0     C21340   3.152  10.038   2.055  0.4720 -1.0097 -1.0853
  159MOL0     C21341   3.034  10.112   1.983  0.3543 -0.0153  0.1426
  159MOL0     C21342   2.964  10.025   1.873  0.2349  0.3235  0.4419
  159MOL0     C21343   2.875   9.914   1.938  0.5039  0.9555 -0.1132
  159MOL0     C21344   2.822   9.830   1.824  1.1519  0.3316  0.1433
  159MOL0     C21345   2.715   9.880   1.732  1.1414  0.0629  1.0024
  159MOL0     C21346   2.667   9.759   1.647  0.3068  0.9316  0.8386
  159MOL0     N21347   2.745   9.726   1.523  0.4265 -1.0028  0.2495
  159MOL0     C21348   2.694   9.712   1.398 -0.5496 -0.6230 -0.6487
  159MOL0     C21349   2.792   9.665   1.313 -0.1299 -0.0014 -0.4095
  159MOL0     C21350   2.790   9.642   1.164 -0.0537  0.4164  0.0150
  159MOL0     C21351   2.836   9.502   1.123  0.5068 -0.1185  0.1792
  159MOL0     C21352   2.717   9.448   1.022 -0.0932  0.2893  0.5669
  159MOL0     C21353   2.583   9.417   1.099 -0.3509 -0.2172  0.0992
  159MOL0     O21354   2.484   9.355   1.010  0.1901 -0.2355  0.4732
  159MOL0     C21355   2.476   9.218   0.988 -0.2608 -0.2639  0.0955
  159MOL0     C21356   2.361   9.163   0.929 -0.1353 -0.2775 -0.9875
  159MOL0     C21357   2.368   9.030   0.882 -0.6439  0.0443  0.3787
  159MOL0     C21358   2.482   8.945   0.906 -0.2656  1.0676 -0.3986
  159MOL0     C21359   2.496   8.804   0.850 -0.6604  0.9078 -0.0870
  159MOL0     O21360   2.384   8.756   0.799 -0.5846 -0.1338  0.2290
  159MOL0     C21361   2.385   8.642   0.724 -0.2987 -0.2560  0.1678
  159MOL0     C21362   2.492   8.591   0.646  1.2154 -0.0029  0.5187
  159MOL0     C21363   2.481   8.478   0.567  0.6853  0.0363  0.0555
  159MOL0     C21364   2.364   8.410   0.545  1.1860 -0.4061  1.2198
  159MOL0     O21365   2.360   8.297   0.460  1.1528  0.0677 -0.9017
  159MOL0     C21366   2.236   8.221   0.458 -1.1018  0.2752  0.6795
  159MOL0     C21367   2.249   8.086   0.385 -0.0024 -0.7149  0.2096
  159MOL0     C21368   2.108   8.020   0.384  0.4760  0.1238 -0.6452
  159MOL0     C21369   2.102   7.878   0.327  0.9792 -0.6538 -0.0209
  159MOL0     C21370   1.949   7.825   0.317  0.1204 -0.8798  1.0300
  159MOL0     C21371   1.946   7.678   0.287 -0.0163  0.0042 -0.0647
  159MOL0     C21372   1.800   7.638   0.268 -0.6000  0.3671  1.0139
  159MOL0     C21373   1.797   7.481   0.244  1.4967 -0.3930  0.4323
  159MOL0    Cl21374   1.619   7.437   0.196 -0.4877 -0.0336 -0.0527
  159MOL0     C21375   2.247   8.466   0.612 -0.0186 -0.8299  0.3520
  159MOL0     C21376   2.261   8.573   0.701  0.4635 -0.6488 -0.3538
  159MOL0     O21377   2.602   8.748   0.867  0.5049 -0.2760 -0.3752
  159MOL0     C21378   2.588   8.999   0.982 -0.9395  1.4851  0.1564
  159MOL0     C21379   2.583   9.130   1.026 -0.0995  0.3121 -0.2918
  159MOL0     N21380   2.908   9.664   1.391  0.4113 -0.6518 -0.3356
  159MOL0     N21381   2.880   9.712   1.511  0.9516 -0.0427  0.4144
  159MOL0     C21382   3.429   9.657   2.092  0.5148 -0.9111  0.5533
  159MOL0     C21383   3.502   9.548   2.046 -0.4005  0.6689  0.0848
  159MOL0     C21384   3.723   9.223   1.903  1.0126 -0.7579 -0.0915
  159MOL0     C21385   3.846   9.161   1.946 -0.0852 -1.3221 -0.0153
  159MOL0     C21386   3.883   9.035   1.897 -0.0506 -0.1983  0.0714
  159MOL0     C21387   3.803   8.975   1.799  0.2957  0.8572  0.2583
  159MOL0     O21388   3.833   8.855   1.736  0.4376 -0.7020 -0.3626
  159MOL0     C21389   3.969   8.821   1.714 -0.8944  0.0333  0.0625
  159MOL0     C21390   3.960   8.758   1.571 -0.2264  0.0665  0.0621
  159MOL0     C21391   3.960   8.864   1.465  0.1011 -0.1759  0.2375
  159MOL0     C21392   3.990   8.811   1.322  0.6287  0.2922  0.0481
  159MOL0     C21393   4.132   8.771   1.319 -0.4102  0.5120  0.8467
  159MOL0     C21394   4.249   8.751   1.305 -0.0279 -0.4993  0.1402
  159MOL0     C21395   3.681   9.032   1.767  0.0847  0.2950  0.1385
  159MOL0     C21396   3.640   9.156   1.818  0.5363  0.6959  0.8516
  159MOL0     C21397   3.502   9.208   1.781  0.4685 -0.8509  0.0790
  159MOL0     H21398   3.543   9.635   1.727 -1.6422  0.4719 -0.6441
  159MOL0     H21399   3.395   9.829   1.796  1.4568 -1.0782 -2.1769
  159MOL0     H21400   3.266   9.961   1.896 -2.2857  1.1514  0.3499
  159MOL0     H21401   3.144   9.846   1.954  0.4158 -0.4397 -0.7894
  159MOL0     H21402   3.231  10.108   2.083  0.4499 -1.8274  1.2913
  159MOL0     H21403   3.110  10.000   2.149  0.9109  1.0432  0.0016
  159MOL0     H21404   3.073  10.201   1.933 -0.1813 -0.4585 -1.0786
  159MOL0     H21405   2.957  10.153   2.050  1.1762  1.3902  0.2847
  159MOL0     H21406   2.902  10.090   1.810 -1.9699 -1.9319  0.1065
  159MOL0     H21407   3.034   9.983   1.801 -1.7238  0.1943 -1.5211
  159MOL0     H21408   2.933   9.843   1.998 -2.0359 -0.5329  0.7421
  159MOL0     H21409   2.798   9.947   2.008  0.1584 -0.6120  0.2953
  159MOL0     H21410   2.913   9.795   1.773 -0.7913 -2.6526 -1.5642
  159MOL0     H21411   2.785   9.738   1.869  1.3970 -0.2237 -0.7554
  159MOL0     H21412   2.764   9.947   1.661 -3.6550  1.7268 -1.1436
  159MOL0     H21413   2.642   9.936   1.791  0.9940 -0.0373  0.9129
  159MOL0     H21414   2.642   9.667   1.702 -1.7874  1.9876  1.7759
  159MOL0     H21415   2.568   9.788   1.610 -0.1308  0.1463  1.3600
  159MOL0     H21416   2.594   9.734   1.362  0.0472 -1.0638 -2.6871
  159MOL0     H21417   2.692   9.669   1.124 -0.7380  1.1666  2.0993
  159MOL0     H21418   2.860   9.715   1.123  1.2772 -1.8369 -1.9752
  159MOL0     H21419   2.932   9.505   1.070 -1.1397  1.1037 -3.0437
  159MOL0     H21420   2.849   9.441   1.212 -0.1354  2.1918  1.9588
  159MOL0     H21421   2.751   9.358   0.970 -2.6519 -0.0969 -0.5590
  159MOL0     H21422   2.690   9.520   0.944  0.1839 -1.1667 -0.9148
  159MOL0     H21423   2.541   9.511   1.137  1.2377  1.1373 -1.3519
  159MOL0     H21424   2.597   9.351   1.185  1.4348  0.4061  0.3301
  159MOL0     H21425   2.279   9.227   0.899  0.2075  1.8989  2.1906
  159MOL0     H21426   2.286   8.982   0.830  0.3608 -2.0699  0.6058
  159MOL0     H21427   2.583   8.645   0.670 -0.4397  1.6951  3.5898
  159MOL0     H21428   2.562   8.426   0.516  3.0032  1.8448  1.6816
  159MOL0     H21429   2.205   8.200   0.561 -0.6069  0.3139  0.8363
  159MOL0     H21430   2.169   8.287   0.403 -1.0193  0.4005  0.7291
  159MOL0     H21431   2.285   8.108   0.284 -0.3509 -2.4609 -0.3305
  159MOL0     H21432   2.331   8.027   0.428 -0.9930 -0.7580  2.1325
  159MOL0     H21433   2.063   8.024   0.483 -0.9497  3.3019 -1.2987
  159MOL0     H21434   2.037   8.081   0.327 -0.6368  1.3431  1.9004
  159MOL0     H21435   2.143   7.805   0.398 -1.5301 -3.3121 -1.1085
  159MOL0     H21436   2.158   7.881   0.233 -0.4120  1.6784 -0.8607
  159MOL0     H21437   1.900   7.870   0.230  2.2496 -2.0708 -0.9038
  159MOL0     H21438   1.885   7.856   0.400 -0.1698  1.4884  0.0053
  159MOL0     H21439   2.003   7.665   0.195 -0.7045 -3.2904 -0.1640
  159MOL0     H21440   1.993   7.623   0.369  0.0862 -1.6130 -1.1518
  159MOL0     H21441   1.753   7.694   0.187  1.7041  1.7612  0.5319
  159MOL0     H21442   1.741   7.674   0.353  0.6818  1.8098  1.3513
  159MOL0     H21443   1.877   7.465   0.171  0.3703  1.0863 -1.2186
  159MOL0     H21444   1.818   7.436   0.341 -1.3287 -0.3937  1.1424
  159MOL0     H21445   2.143   8.440   0.596  0.7819 -2.2883 -3.2839
  159MOL0     H21446   2.174   8.622   0.745  0.4022  1.3525 -2.4802
  159MOL0     H21447   2.681   8.943   0.987 -2.6269 -1.4288  2.1780
  159MOL0     H21448   2.676   9.162   1.071 -0.4491 -2.2159  2.5592
  159MOL0     H21449   3.384   9.649   2.191 -2.5610 -1.8131 -0.8014
  159MOL0     H21450   3.533   9.463   2.105  3.0938  0.5179 -1.6873
  159MOL0     H21451   3.905   9.203   2.026  2.5617 -0.4821 -2.2544
  159MOL0     H21452   3.981   9.013   1.939 -0.9240  0.3062  2.5307
  159MOL0     H21453   3.991   8.740   1.784  1.1224 -0.2590 -0.8247
  159MOL0     H21454   4.040   8.903   1.724 -2.8406  1.8284 -0.0864
  159MOL0     H21455   3.884   8.680   1.557  2.2391 -1.9647 -3.5524
  159MOL0     H21456   4.055   8.705   1.560  1.0737  2.0422  1.1842
  159MOL0     H21457   4.037   8.940   1.481  0.5993 -0.4597 -0.7108
  159MOL0     H21458   3.857   8.899   1.469  0.1344 -0.1980  3.3491
  159MOL0     H21459   3.926   8.722   1.319  0.4904  0.2279  2.4363
  159MOL0     H21460   3.963   8.880   1.242 -1.8215 -1.2002 -0.5378
  159MOL0     H21461   4.355   8.737   1.314 -0.1446 -2.7960 -1.2519
  159MOL0     H21462   3.616   8.983   1.696  1.4691  0.0812 -1.0322
  159MOL0     H21463   3.425   9.130   1.778  1.0182 -1.4741  1.3645
  159MOL0     H21464   3.474   9.279   1.859  1.1363  0.3643 -0.7572
  159MOL0     H21465   3.507   9.265   1.688  1.4360 -0.0340  0.6100
  160MOL0     O21466   1.728   2.934   1.733 -0.1487  0.0965 -0.4396
  160MOL0     C21467   1.708   2.832   1.796 -0.5602 -1.1623  1.0443
  160MOL0     O21468   1.745   2.718   1.747 -0.2233  0.6355  0.3523
  160MOL0     C21469   1.832   2.705   1.638 -0.7953 -0.5567 -0.2497
  160MOL0     C21470   1.791   2.632   1.525  0.4832 -0.4908 -0.1146
  160MOL0     C21471   1.887   2.602   1.426  0.4632 -0.1642 -0.2589
  160MOL0     C21472   2.016   2.653   1.424  0.3979  0.0369 -0.3139
  160MOL0     O21473   2.101   2.627   1.311  0.4463 -0.4281 -0.2075
  160MOL0     C21474   2.194   2.733   1.269 -0.6164 -0.0399 -0.9759
  160MOL0     C21475   2.236   2.714   1.116  0.2088 -0.3331  0.1271
  160MOL0     C21476   2.320   2.589   1.088  0.6948 -0.1930 -0.4794
  160MOL0     C21477   2.349   2.594   0.935  0.4330  0.7173 -0.3176
  160MOL0     C21478   2.458   2.490   0.899 -0.0851  1.1637 -0.1518
  160MOL0     C21479   2.440   2.337   0.887 -0.2984  0.6258 -0.1038
  160MOL0     C21480   2.451   2.294   0.738 -0.5211 -0.1447 -0.8115
  160MOL0     C21481   2.584   2.238   0.697  0.3400  1.2603 -0.5612
  160MOL0     N21482   2.601   2.220   0.554 -0.1886  0.0102 -0.0511
  160MOL0     C21483   2.722   2.237   0.491  0.1037 -0.2722  0.6436
  160MOL0     C21484   2.692   2.216   0.358 -0.0895  0.4801 -0.6164
  160MOL0     C21485   2.780   2.226   0.253  0.1198 -0.6636  0.2541
  160MOL0     C21486   2.836   2.094   0.207  0.3980 -0.2709 -1.0485
  160MOL0     C21487   2.951   2.131   0.108 -0.0519  0.7499  1.0207
  160MOL0     C21488   3.040   1.995   0.106  0.5832 -0.3566 -0.3569
  160MOL0     O21489   3.173   2.038   0.081 -0.7436  0.1842 -0.3734
  160MOL0     C21490   3.270   1.951   0.039  1.3100 -0.4751 -0.1986
  160MOL0     C21491   3.246   1.808   0.039 -1.2111 -0.6048 -0.0646
  160MOL0     C21492   3.354   1.717   0.012 -0.1431 -0.4464  1.0505
  160MOL0     C21493   3.488   1.767  -0.013 -0.3836 -0.2877  0.1854
  160MOL0     C21494   3.602   1.673  -0.027  0.1427 -0.1077  0.0905
  160MOL0     O21495   3.721   1.709  -0.081 -0.0675  0.5390 -0.7842
  160MOL0     C21496   3.811   1.602  -0.101 -0.1853 -0.2147  0.1433
  160MOL0     C21497   3.869   1.548   0.011 -0.5941  0.1370  0.4776
  160MOL0     C21498   3.963   1.448  -0.007  0.6357 -0.6720  0.3981
  160MOL0     C21499   4.004   1.402  -0.131  0.7178  0.4417  0.1618
  160MOL0     O21500   4.097   1.296  -0.142  0.4872  0.3738 -0.5416
  160MOL0     C21501   4.047   1.165  -0.091  0.2337  0.6154  0.5314
  160MOL0     C21502   4.168   1.086  -0.055  0.2074  0.3130  0.4694
  160MOL0     C21503   4.131   0.951  -0.004 -0.0143  0.2973 -0.6643
  160MOL0     C21504   4.142   0.941   0.150  0.3602  0.1737  0.4151
  160MOL0     C21505   4.117   0.797   0.200 -1.1094  0.6201  0.2876
  160MOL0     C21506   4.099   0.774   0.353  0.0402 -0.7646 -1.0189
  160MOL0     C21507   4.226   0.721   0.425  0.3623 -0.4571  0.5676
  160MOL0     C21508   4.192   0.652   0.557 -0.2676 -0.5000 -0.0286
  160MOL0    Cl21509   4.120   0.758   0.670 -0.1857  0.1323  0.1841
  160MOL0     C21510   3.945   1.450  -0.241  0.3734  0.2645  0.3345
  160MOL0     C21511   3.852   1.556  -0.233  0.2880 -0.6571 -0.2862
  160MOL0     O21512   3.572   1.551  -0.009  0.3394 -0.1625 -0.7036
  160MOL0     C21513   3.510   1.910  -0.010  0.0254  0.0969  0.7451
  160MOL0     C21514   3.402   2.001   0.016 -0.1299  0.2324  0.9019
  160MOL0     N21515   2.561   2.189   0.345 -0.6658  1.3778  0.2360
  160MOL0     N21516   2.505   2.191   0.463  0.2551  0.4404 -0.5996
  160MOL0     C21517   2.046   2.740   1.524  0.6360 -0.2557 -0.0948
  160MOL0     C21518   1.957   2.767   1.629  0.6031  0.8564 -0.3735
  160MOL0     C21519   1.650   2.837   1.929  0.9756  0.8049 -0.2429
  160MOL0     C21520   1.672   2.729   2.011  0.1966 -0.5351 -0.1046
  160MOL0     C21521   1.627   2.725   2.144 -0.0288  0.8849  0.1196
  160MOL0     C21522   1.574   2.840   2.204 -0.6336  0.4888 -0.1544
  160MOL0     O21523   1.560   2.865   2.339  0.0216  0.3621  0.3617
  160MOL0     C21524   1.633   2.776   2.429 -0.3383  0.0288  0.4088
  160MOL0     C21525   1.578   2.792   2.563 -0.7010 -0.4288  0.2426
  160MOL0     C21526   1.455   2.711   2.570 -0.4698  0.3115 -0.1703
  160MOL0     C21527   1.402   2.711   2.706  0.7366 -0.4933 -0.8265
  160MOL0     C21528   1.343   2.844   2.741  0.8932 -0.3831 -0.8638
  160MOL0     C21529   1.308   2.957   2.772  0.5745 -0.6406 -0.5878
  160MOL0     C21530   1.547   2.947   2.116  1.1633  0.4384 -1.0293
  160MOL0     C21531   1.578   2.945   1.984  0.7856  0.6480  0.7589
  160MOL0     C21532   1.520   3.044   1.891  0.1297  0.8074 -0.5862
  160MOL0     H21533   1.690   2.593   1.523  0.9187 -1.6575 -0.1767
  160MOL0     H21534   1.853   2.528   1.353  2.0442 -2.4339  1.1740
  160MOL0     H21535   2.158   2.832   1.300 -1.6023 -0.2644 -1.3479
  160MOL0     H21536   2.288   2.719   1.323 -1.0035  0.2003 -0.2288
  160MOL0     H21537   2.302   2.800   1.102  1.2636 -1.4604 -2.5389
  160MOL0     H21538   2.148   2.717   1.052  2.1451  0.6894 -2.6718
  160MOL0     H21539   2.265   2.496   1.108  0.1435  0.1572 -0.3428
  160MOL0     H21540   2.403   2.574   1.156  0.6079 -0.4193 -0.4224
  160MOL0     H21541   2.261   2.561   0.878  1.4495 -4.0090  0.3629
  160MOL0     H21542   2.382   2.695   0.910 -1.2927  1.0743 -1.3622
  160MOL0     H21543   2.499   2.526   0.805 -3.9011  1.6307 -1.8133
  160MOL0     H21544   2.526   2.496   0.985 -1.5253  0.0141  1.1281
  160MOL0     H21545   2.513   2.286   0.952  0.8032  0.9925 -1.0120
  160MOL0     H21546   2.340   2.310   0.920 -0.6399  2.1232  0.1513
  160MOL0     H21547   2.433   2.387   0.683  1.7206  2.1182  1.9569
  160MOL0     H21548   2.381   2.213   0.714  1.9839 -2.2258 -1.5480
  160MOL0     H21549   2.667   2.298   0.734  0.8974  0.4429 -0.4405
  160MOL0     H21550   2.584   2.138   0.743  0.5001  0.9770 -1.1665
  160MOL0     H21551   2.815   2.277   0.531  1.3708 -0.2198 -2.1646
  160MOL0     H21552   2.743   2.276   0.162  0.1408 -3.1996 -1.2448
  160MOL0     H21553   2.863   2.280   0.299  0.2228 -0.3318 -0.3121
  160MOL0     H21554   2.877   2.039   0.292 -0.5281  2.0458  1.0201
  160MOL0     H21555   2.760   2.035   0.153  2.7956 -2.8830 -1.8325
  160MOL0     H21556   3.020   2.211   0.138  1.6666 -0.9834  1.9480
  160MOL0     H21557   2.925   2.145   0.003  2.6967 -4.0906 -0.5857
  160MOL0     H21558   2.994   1.931   0.030 -2.7399  0.9502  0.3901
  160MOL0     H21559   3.034   1.947   0.204 -2.6324 -1.5896 -1.0280
  160MOL0     H21560   3.143   1.773   0.042 -0.7621 -2.1942 -1.4807
  160MOL0     H21561   3.335   1.610   0.014  2.0099 -0.8889  3.6424
  160MOL0     H21562   3.841   1.563   0.115 -0.5724  2.3319  0.2014
  160MOL0     H21563   4.023   1.404   0.072  0.7375 -1.3184 -0.0311
  160MOL0     H21564   4.001   1.197   0.003  1.4310  0.4777  1.1834
  160MOL0     H21565   3.982   1.119  -0.166  1.1196  0.1947 -0.0046
  160MOL0     H21566   4.221   1.081  -0.151 -1.5486 -4.2694 -0.5184
  160MOL0     H21567   4.219   1.157   0.011 -2.0370  0.5475  2.0314
  160MOL0     H21568   4.042   0.912  -0.054 -1.7336  0.9493  1.6709
  160MOL0     H21569   4.212   0.887  -0.040  0.8528  0.5365  0.7516
  160MOL0     H21570   4.071   1.001   0.206 -1.2732 -1.2340 -0.0606
  160MOL0     H21571   4.236   0.990   0.179 -0.9235  3.2079 -0.2350
  160MOL0     H21572   4.192   0.734   0.151  0.0896 -1.6656  4.5057
  160MOL0     H21573   4.020   0.763   0.162 -1.3266 -1.4421  2.3986
  160MOL0     H21574   4.059   0.866   0.397  0.6429 -1.9946  2.3924
  160MOL0     H21575   4.007   0.717   0.366 -1.5256  1.6676 -0.8445
  160MOL0     H21576   4.302   0.796   0.447  1.3265 -1.1649 -0.2718
  160MOL0     H21577   4.266   0.639   0.365  0.1637 -1.0163  1.1801
  160MOL0     H21578   4.142   0.555   0.545 -0.4765 -0.5177  0.8728
  160MOL0     H21579   4.287   0.627   0.604 -0.3485 -4.0397 -1.4157
  160MOL0     H21580   3.967   1.407  -0.338 -1.2445 -0.5516  0.2857
  160MOL0     H21581   3.801   1.583  -0.326  2.7880 -1.6528 -2.0511
  160MOL0     H21582   3.612   1.938  -0.038  0.4197 -3.0545 -1.6358
  160MOL0     H21583   3.415   2.109   0.008 -1.2518  0.2442 -3.3060
  160MOL0     H21584   2.141   2.791   1.534  1.2852 -1.6587  1.2180
  160MOL0     H21585   1.978   2.823   1.719  1.4190 -2.3629  1.6230
  160MOL0     H21586   1.716   2.640   1.968  2.3311  0.1478  0.5357
  160MOL0     H21587   1.656   2.644   2.211  1.4648  0.6585 -0.7580
  160MOL0     H21588   1.738   2.802   2.439 -0.6825  1.6703  0.0839
  160MOL0     H21589   1.634   2.670   2.401  0.3920  0.4314 -1.1978
  160MOL0     H21590   1.554   2.897   2.584 -2.5074 -0.5395 -1.0087
  160MOL0     H21591   1.656   2.763   2.634 -1.3105 -0.4779  0.9038
  160MOL0     H21592   1.483   2.606   2.552  2.4325  1.1418 -0.9973
  160MOL0     H21593   1.387   2.756   2.497 -0.0006  4.3119  1.5890
  160MOL0     H21594   1.331   2.631   2.727  4.3394 -3.1899  2.5672
  160MOL0     H21595   1.481   2.682   2.776  2.2821  1.2549 -1.7587
  160MOL0     H21596   1.293   3.062   2.786  2.3943 -0.0068 -2.8485
  160MOL0     H21597   1.504   3.037   2.159  0.6317  1.5040 -3.6090
  160MOL0     H21598   1.513   2.991   1.796  2.7170 -1.0723  0.1592
  160MOL0     H21599   1.418   3.072   1.920 -0.1258 -0.8547  0.2607
  160MOL0     H21600   1.589   3.127   1.872  0.3304  1.2797  1.8627
  161MOL0     O21601   1.151   3.038   2.021 -0.2936  0.3404  0.3564
  161MOL0     C21602   1.036   3.091   2.015  0.3116 -0.2444  0.5955
  161MOL0     O21603   1.020   3.229   1.997 -0.0286 -0.3265  0.0310
  161MOL0     C21604   0.903   3.283   1.940 -0.0923  0.9764  0.6779
  161MOL0     C21605   0.874   3.294   1.801  0.1537  0.2599  0.2066
  161MOL0     C21606   0.749   3.352   1.759  0.2247  0.3147  0.1958
  161MOL0     C21607   0.655   3.397   1.854 -0.0865 -0.6174 -0.6061
  161MOL0     O21608   0.532   3.463   1.828  0.5102 -0.6541  0.0010
  161MOL0     C21609   0.504   3.504   1.698 -0.1744  0.0148 -0.3284
  161MOL0     C21610   0.368   3.571   1.705  0.3480  0.1392  0.5892
  161MOL0     C21611   0.382   3.725   1.712 -0.4706  0.3775 -0.8778
  161MOL0     C21612   0.459   3.774   1.838 -0.4311  0.8158  0.4090
  161MOL0     C21613   0.450   3.938   1.846 -0.2228  1.0342  1.4086
  161MOL0     C21614   0.555   4.000   1.739 -0.5958 -0.7393  0.5045
  161MOL0     C21615   0.572   4.157   1.756  0.1982 -0.0560  0.0585
  161MOL0     C21616   0.642   4.230   1.640 -0.0090 -0.6065  0.8076
  161MOL0     N21617   0.725   4.350   1.687  0.0274  0.4614 -0.0655
  161MOL0     C21618   0.857   4.386   1.658  0.0264  0.3908  0.2531
  161MOL0     C21619   0.863   4.515   1.694  0.0630  0.9653 -0.1270
  161MOL0     C21620   0.976   4.605   1.662  0.4307  0.5286 -0.2390
  161MOL0     C21621   1.091   4.551   1.741  0.5777  0.5880 -0.3022
  161MOL0     C21622   1.105   4.617   1.882 -0.5690  0.5208  0.5098
  161MOL0     C21623   1.175   4.519   1.974 -0.2124  0.1935 -0.1288
  161MOL0     O21624   1.111   4.396   1.985 -0.2433 -0.3432 -0.4585
  161MOL0     C21625   1.022   4.356   2.083 -0.9615  0.2052  0.7248
  161MOL0     C21626   0.976   4.219   2.098 -0.1696 -0.5568 -0.5592
  161MOL0     C21627   0.900   4.166   2.209  1.0605  0.2874  0.2759
  161MOL0     C21628   0.861   4.264   2.307  1.2410 -0.5818  0.2032
  161MOL0     C21629   0.801   4.216   2.432 -0.0054  0.2792  0.0698
  161MOL0     O21630   0.729   4.107   2.421 -0.1457  0.1529  0.2332
  161MOL0     C21631   0.699   4.044   2.544 -0.0897 -0.1438  0.9254
  161MOL0     C21632   0.792   3.971   2.622  0.0593 -0.2067 -0.1547
  161MOL0     C21633   0.740   3.889   2.721 -0.6947 -0.1979 -0.3081
  161MOL0     C21634   0.603   3.890   2.763 -0.0519 -1.1324  0.9094
  161MOL0     O21635   0.548   3.811   2.858 -0.6325 -0.6307 -0.1579
  161MOL0     C21636   0.619   3.691   2.895 -0.4481  0.6103  0.8939
  161MOL0     C21637   0.688   3.701   3.036  0.3129  0.2796 -0.4299
  161MOL0     C21638   0.586   3.720   3.143 -0.0027  0.8008  0.3849
  161MOL0     C21639   0.663   3.747   3.272  0.3948 -1.3288  0.0638
  161MOL0     C21640   0.559   3.825   3.352  0.7220  0.3054  0.3061
  161MOL0     C21641   0.622   3.863   3.485 -0.0959 -0.2481 -0.5524
  161MOL0     C21642   0.513   3.924   3.574  0.0643  0.9284  0.5912
  161MOL0     C21643   0.563   3.967   3.716  0.2977 -0.1658 -0.1836
  161MOL0    Cl21644   0.704   4.079   3.699 -0.0412  0.8912  0.5818
  161MOL0     C21645   0.517   3.966   2.683  0.8920 -0.1545  0.3562
  161MOL0     C21646   0.562   4.030   2.570  0.8552 -0.0713 -0.7241
  161MOL0     O21647   0.817   4.290   2.531 -0.4689 -0.4914  1.0453
  161MOL0     C21648   0.900   4.398   2.294  0.5080 -0.3592 -0.4484
  161MOL0     C21649   0.974   4.448   2.183 -0.0889  1.0743 -0.7096
  161MOL0     N21650   0.744   4.557   1.746 -0.9887 -0.0413  0.2294
  161MOL0     N21651   0.668   4.453   1.753 -0.0310 -0.3436  0.4704
  161MOL0     C21652   0.687   3.389   1.985  0.2301  1.1307  0.0500
  161MOL0     C21653   0.801   3.320   2.023 -0.1457 -0.4227  0.6958
  161MOL0     C21654   0.915   3.008   1.985 -0.6224  0.5813  0.6344
  161MOL0     C21655   0.805   3.001   2.082  0.0265 -0.6970  0.4089
  161MOL0     C21656   0.683   2.938   2.066 -0.4372 -0.1499  0.0792
  161MOL0     C21657   0.667   2.858   1.952 -1.0889  1.5410  0.3965
  161MOL0     O21658   0.543   2.804   1.928 -0.4925 -0.5164 -0.2574
  161MOL0     C21659   0.505   2.785   1.789 -0.6144  0.6511  0.4098
  161MOL0     C21660   0.350   2.752   1.777 -0.3339  0.8411 -0.0374
  161MOL0     C21661   0.330   2.721   1.624  1.4209 -0.3919  0.3263
  161MOL0     C21662   0.189   2.674   1.595 -0.0860 -1.1879  0.6916
  161MOL0     C21663   0.157   2.676   1.455 -0.6682  0.2409  0.6294
  161MOL0     C21664   0.125   2.689   1.336  0.7602 -0.4665 -0.1807
  161MOL0     C21665   0.776   2.844   1.863  0.2300 -0.6508  0.2920
  161MOL0     C21666   0.899   2.911   1.876 -0.6692  0.4021  0.4077
  161MOL0     C21667   1.005   2.893   1.774  0.3093 -0.0710  0.4572
  161MOL0     H21668   0.939   3.275   1.717 -1.0281  2.9380 -1.4495
  161MOL0     H21669   0.740   3.368   1.651  1.5869 -0.0841  0.0101
  161MOL0     H21670   0.575   3.581   1.668 -0.2982  1.9325  3.6708
  161MOL0     H21671   0.488   3.424   1.625  1.0182  2.3098 -3.3169
  161MOL0     H21672   0.311   3.538   1.792 -0.8959 -3.0423 -1.2506
  161MOL0     H21673   0.308   3.553   1.614  0.8888  1.8533 -0.1467
  161MOL0     H21674   0.284   3.773   1.713 -0.3479  0.6208  0.0511
  161MOL0     H21675   0.433   3.756   1.620  0.6438  1.2116 -0.0130
  161MOL0     H21676   0.403   3.721   1.916  1.2763 -1.7120 -0.0008
  161MOL0     H21677   0.562   3.739   1.836 -0.1722  1.5914 -0.7236
  161MOL0     H21678   0.348   3.964   1.816  0.0173 -1.5046 -2.2790
  161MOL0     H21679   0.470   3.964   1.951 -1.0145 -0.0331  1.8478
  161MOL0     H21680   0.650   3.957   1.772 -0.1428  0.0595  0.2716
  161MOL0     H21681   0.532   3.975   1.635 -0.6821  0.8168  0.1236
  161MOL0     H21682   0.626   4.168   1.850  1.7933 -0.4726 -0.7535
  161MOL0     H21683   0.471   4.196   1.767 -0.7932 -1.8830 -1.8643
  161MOL0     H21684   0.700   4.166   1.572 -0.0385 -1.3658  1.4884
  161MOL0     H21685   0.557   4.263   1.580 -0.3029  4.0661  3.3748
  161MOL0     H21686   0.930   4.333   1.599  2.9538  1.8035  2.3368
  161MOL0     H21687   1.000   4.604   1.555 -1.9744  0.1617 -0.8406
  161MOL0     H21688   0.952   4.706   1.696 -5.5912 -0.0707 -1.5981
  161MOL0     H21689   1.088   4.443   1.757 -0.4667  0.9154  2.3542
  161MOL0     H21690   1.179   4.576   1.682 -0.3084  0.4832 -1.7087
  161MOL0     H21691   1.011   4.656   1.923 -1.2449 -0.6472  0.1243
  161MOL0     H21692   1.165   4.707   1.867 -1.1164  1.0901  1.5773
  161MOL0     H21693   1.195   4.574   2.066  1.3885 -1.7660  0.7525
  161MOL0     H21694   1.276   4.497   1.940  0.2037 -2.9922  2.6105
  161MOL0     H21695   1.021   4.148   2.029  1.2102  0.7396 -1.0732
  161MOL0     H21696   0.887   4.058   2.213 -1.8790  0.4818 -0.9762
  161MOL0     H21697   0.895   3.984   2.593 -0.6795 -0.1314 -3.0717
  161MOL0     H21698   0.814   3.823   2.766  0.1603 -0.4502 -1.9731
  161MOL0     H21699   0.542   3.612   2.895 -1.9007  1.9562  0.1496
  161MOL0     H21700   0.691   3.652   2.822 -2.5481 -0.9370 -0.4821
  161MOL0     H21701   0.751   3.612   3.048  0.9527  0.7644 -0.1267
  161MOL0     H21702   0.752   3.790   3.039 -0.5032  0.8697 -0.2611
  161MOL0     H21703   0.531   3.809   3.111  1.3516  2.3755  2.2116
  161MOL0     H21704   0.531   3.626   3.151  3.6220 -1.6895 -1.3921
  161MOL0     H21705   0.748   3.814   3.258  0.4713 -1.2630  0.8007
  161MOL0     H21706   0.697   3.654   3.318  2.6841 -0.5741 -0.0129
  161MOL0     H21707   0.476   3.756   3.363  1.1504 -0.4868 -1.1904
  161MOL0     H21708   0.513   3.911   3.302 -0.8092  0.0468  1.2006
  161MOL0     H21709   0.653   3.775   3.541 -1.5954 -3.1983 -3.9379
  161MOL0     H21710   0.706   3.930   3.467  1.6160 -1.8360  1.0431
  161MOL0     H21711   0.424   3.862   3.580  0.7772 -0.5245 -2.0403
  161MOL0     H21712   0.478   4.014   3.522  2.1091  1.2833 -0.2846
  161MOL0     H21713   0.480   4.019   3.766 -3.0485 -1.6528 -3.6496
  161MOL0     H21714   0.595   3.878   3.771  2.1227  1.0873  0.8651
  161MOL0     H21715   0.410   3.950   2.698  1.1663 -2.2406  0.4417
  161MOL0     H21716   0.497   4.080   2.499 -2.7287  1.7792  3.4068
  161MOL0     H21717   0.857   4.468   2.365 -3.9784 -2.3722 -0.8108
  161MOL0     H21718   1.005   4.552   2.189  0.3391  0.8578  1.8560
  161MOL0     H21719   0.615   3.419   2.061 -0.1425  1.1474 -0.3050
  161MOL0     H21720   0.826   3.306   2.128 -0.3326  0.4129  0.8530
  161MOL0     H21721   0.816   3.060   2.172  0.2594  0.6743 -0.5042
  161MOL0     H21722   0.587   2.940   2.117 -2.2667 -1.1881 -3.0572
  161MOL0     H21723   0.560   2.703   1.742 -3.1169 -0.7512 -0.2746
  161MOL0     H21724   0.515   2.871   1.722 -0.7881 -0.3135 -0.9146
  161MOL0     H21725   0.300   2.846   1.804  0.1466  1.1324 -0.1297
  161MOL0     H21726   0.330   2.669   1.845 -0.4285  0.7908 -0.1262
  161MOL0     H21727   0.403   2.645   1.596 -0.5288 -1.4951 -2.2482
  161MOL0     H21728   0.347   2.807   1.558  0.7921  0.3749  1.1375
  161MOL0     H21729   0.180   2.566   1.604 -2.1997 -1.3165 -1.6639
  161MOL0     H21730   0.110   2.729   1.646 -1.3781 -0.9867 -1.3948
  161MOL0     H21731   0.117   2.694   1.229  2.2551 -0.0201 -0.2959
  161MOL0     H21732   0.757   2.778   1.779  0.4562  0.1612 -0.4069
  161MOL0     H21733   0.986   2.957   1.688  0.2760 -3.1884 -2.0454
  161MOL0     H21734   1.109   2.906   1.808  0.2809 -2.3450  1.5961
  161MOL0     H21735   0.998   2.793   1.731 -1.0977  0.8524 -1.6232
  162MOL0     O21736   3.999   2.073   7.949  0.0364 -0.0539 -0.5630
  162MOL0     C21737   3.948   2.036   7.840  0.0395 -0.9125 -0.7121
  162MOL0     O21738   3.998   2.065   7.715 -0.0454 -0.2285 -0.3140
  162MOL0     C21739   4.104   2.155   7.694 -0.0681 -0.5581  0.5948
  162MOL0     C21740   4.196   2.125   7.588  0.0226 -0.5277 -0.3094
  162MOL0     C21741   4.312   2.198   7.583 -0.1237  0.1395  0.2951
  162MOL0     C21742   4.340   2.311   7.658 -0.3521  0.1938 -0.0781
  162MOL0     O21743   4.461   2.368   7.644  0.5666 -1.0400 -0.1491
  162MOL0     C21744   4.540   2.356   7.760 -0.9352  0.0090 -1.1600
  162MOL0     C21745   4.683   2.425   7.761  1.3690  0.5349  0.5253
  162MOL0     C21746   4.780   2.337   7.687  0.5098 -0.3635  0.6876
  162MOL0     C21747   4.810   2.203   7.757  0.1598  0.1576  0.4688
  162MOL0     C21748   4.940   2.156   7.707  0.0442  0.9097 -0.8118
  162MOL0     C21749   4.962   2.005   7.755  0.0575 -0.0599 -0.2011
  162MOL0     C21750   5.037   1.987   7.884  0.4195 -0.1563  0.7515
  162MOL0     C21751   4.980   2.037   8.023  0.5018  0.3119 -0.3245
  162MOL0     N21752   5.043   1.978   8.137  0.3474  0.2444  0.0713
  162MOL0     C21753   5.041   1.838   8.146  0.4223  0.2664 -0.6115
  162MOL0     C21754   5.079   1.817   8.277  0.7562  0.3495 -0.0553
  162MOL0     C21755   5.088   1.685   8.337 -0.3738 -0.0547  0.2059
  162MOL0     C21756   5.134   1.570   8.245 -0.1240  0.0167  0.8474
  162MOL0     C21757   5.045   1.517   8.127 -0.9066 -0.7899 -0.3150
  162MOL0     C21758   5.059   1.367   8.104 -1.2530 -0.6509 -0.1541
  162MOL0     O21759   4.980   1.343   7.989  0.3492 -0.3875  0.0991
  162MOL0     C21760   4.938   1.215   7.968  1.3663  0.0462 -0.7020
  162MOL0     C21761   4.816   1.204   7.896 -0.7135 -0.4409 -0.3830
  162MOL0     C21762   4.753   1.077   7.877 -0.2604 -0.6061  0.2845
  162MOL0     C21763   4.813   0.965   7.923  0.0689  1.1040  0.0268
  162MOL0     C21764   4.748   0.835   7.913 -0.2721 -0.2125  0.6283
  162MOL0     O21765   4.641   0.822   7.822 -0.2692  0.1748  0.1750
  162MOL0     C21766   4.597   0.704   7.766 -0.2970 -0.0627 -0.3120
  162MOL0     C21767   4.512   0.716   7.655 -0.0481  0.3578  0.2181
  162MOL0     C21768   4.452   0.608   7.600  0.8917 -0.2201 -0.4429
  162MOL0     C21769   4.504   0.480   7.623 -0.6551  0.2573  0.1405
  162MOL0     O21770   4.489   0.362   7.547  0.1289 -0.0693 -0.1456
  162MOL0     C21771   4.484   0.379   7.401  0.2905 -0.0969 -0.4686
  162MOL0     C21772   4.577   0.275   7.339 -0.2047  0.4523  0.7476
  162MOL0     C21773   4.722   0.296   7.377 -0.5476  0.4917  0.1004
  162MOL0     C21774   4.787   0.417   7.322  0.1487  0.8215  0.3601
  162MOL0     C21775   4.942   0.399   7.351  0.1332 -0.2402  0.4103
  162MOL0     C21776   5.008   0.526   7.291 -0.4333 -0.6860 -1.2499
  162MOL0     C21777   4.947   0.653   7.365  0.7229 -0.4639 -0.3531
  162MOL0     C21778   5.055   0.761   7.398 -0.6704 -0.4997  0.2112
  162MOL0    Cl21779   4.988   0.881   7.501  0.5069  0.0814  0.1209
  162MOL0     C21780   4.600   0.469   7.718  0.3132  0.4311 -0.0542
  162MOL0     C21781   4.650   0.580   7.785  0.7361  0.9356  0.0428
  162MOL0     O21782   4.763   0.748   8.003 -0.2417 -0.9418 -0.5990
  162MOL0     C21783   4.928   0.972   8.005  0.2399 -0.7065 -0.3988
  162MOL0     C21784   4.987   1.096   8.027  0.8377 -0.2436  0.1642
  162MOL0     N21785   5.105   1.933   8.339 -0.8316 -1.0945  0.2766
  162MOL0     N21786   5.079   2.032   8.258 -0.3164 -0.1856 -0.2624
  162MOL0     C21787   4.254   2.341   7.767 -0.6117  0.0028  0.5896
  162MOL0     C21788   4.139   2.265   7.778  0.1765  0.2524  0.3133
  162MOL0     C21789   3.818   1.951   7.849  0.0999 -0.7686  0.4509
  162MOL0     C21790   3.739   1.951   7.731  1.2992  0.1337 -0.1402
  162MOL0     C21791   3.614   1.881   7.730  0.9508 -0.4244 -0.0365
  162MOL0     C21792   3.553   1.825   7.846  0.5844  0.7704 -0.1375
  162MOL0     O21793   3.437   1.756   7.871 -0.3892 -0.2297  0.1602
  162MOL0     C21794   3.340   1.764   7.767 -0.6072  0.0569  0.6666
  162MOL0     C21795   3.264   1.894   7.779 -0.1496  0.2613 -1.3405
  162MOL0     C21796   3.205   1.932   7.921  0.2807 -0.7830  0.3760
  162MOL0     C21797   3.111   2.055   7.920  0.3678 -0.1777 -1.2047
  162MOL0     C21798   3.099   2.120   8.056  0.0546  0.4833  0.3477
  162MOL0     C21799   3.086   2.177   8.163 -0.4792  0.5607  0.0615
  162MOL0     C21800   3.637   1.827   7.953  0.1947  1.0318 -0.3561
  162MOL0     C21801   3.766   1.887   7.965 -0.0606 -0.2354 -0.0458
  162MOL0     C21802   3.834   1.869   8.100  0.0803 -0.4365  0.4859
  162MOL0     H21803   4.179   2.040   7.522  1.6517 -0.7421 -0.4865
  162MOL0     H21804   4.387   2.164   7.513  0.7879  1.8836  0.3503
  162MOL0     H21805   4.499   2.397   7.852 -1.3006 -4.7268  1.0873
  162MOL0     H21806   4.547   2.251   7.789  4.4045  0.4878  0.3606
  162MOL0     H21807   4.718   2.408   7.864  2.7395 -1.6960 -0.2507
  162MOL0     H21808   4.680   2.528   7.725  0.9399  0.4730  0.3862
  162MOL0     H21809   4.870   2.393   7.660  1.9212 -3.0306 -0.5581
  162MOL0     H21810   4.744   2.320   7.585 -0.5639  0.3280  0.9353
  162MOL0     H21811   4.801   2.202   7.866  0.5182 -0.4393  0.4966
  162MOL0     H21812   4.746   2.121   7.725 -3.0323  1.6198  2.5357
  162MOL0     H21813   4.927   2.154   7.599 -2.4039 -0.0292 -0.5773
  162MOL0     H21814   5.028   2.219   7.723  3.0363 -3.2477  0.7736
  162MOL0     H21815   4.869   1.958   7.787  0.0219  0.3969  0.3914
  162MOL0     H21816   5.018   1.956   7.675  1.1830 -0.0370  0.5559
  162MOL0     H21817   5.126   2.048   7.865 -0.4084  0.4839 -1.4888
  162MOL0     H21818   5.063   1.881   7.887  1.5013  0.0741  4.1620
  162MOL0     H21819   4.984   2.147   8.023 -0.3810  0.4033 -2.4076
  162MOL0     H21820   4.873   2.021   8.037  1.0698 -1.0188  4.2092
  162MOL0     H21821   5.027   1.771   8.061 -1.2982  1.9732 -1.7464
  162MOL0     H21822   5.154   1.683   8.424 -2.1393 -3.6659  1.6857
  162MOL0     H21823   4.990   1.652   8.374 -0.5822 -1.4763 -1.5166
  162MOL0     H21824   5.233   1.595   8.208 -0.4627  1.4867  0.9073
  162MOL0     H21825   5.139   1.484   8.313 -1.5090  0.1530  1.1585
  162MOL0     H21826   5.081   1.576   8.042 -0.6777 -2.8882 -1.7424
  162MOL0     H21827   4.939   1.539   8.140 -0.9869 -0.8715 -0.8147
  162MOL0     H21828   5.031   1.303   8.188 -1.1570 -1.5598 -0.7886
  162MOL0     H21829   5.162   1.346   8.074  0.3010  1.0313  3.4144
  162MOL0     H21830   4.768   1.294   7.861  4.0548  2.6979  0.1786
  162MOL0     H21831   4.659   1.091   7.825  0.2794  2.3152 -0.0983
  162MOL0     H21832   4.482   0.818   7.631  0.4770 -0.2846 -3.7846
  162MOL0     H21833   4.371   0.608   7.528  1.4359  0.0325 -1.0623
  162MOL0     H21834   4.388   0.374   7.349  0.5822  1.2716 -1.2051
  162MOL0     H21835   4.520   0.480   7.377 -4.0571  2.3880  2.0700
  162MOL0     H21836   4.546   0.175   7.369 -1.3345  0.2156 -1.0902
  162MOL0     H21837   4.572   0.273   7.229  1.5721 -0.8104  0.6543
  162MOL0     H21838   4.733   0.294   7.486  1.1571  0.4297 -0.0584
  162MOL0     H21839   4.775   0.206   7.346 -2.4879 -0.2752 -1.2288
  162MOL0     H21840   4.749   0.508   7.369 -0.3743 -0.0286  1.6323
  162MOL0     H21841   4.750   0.421   7.219 -0.2799  0.2626  0.4901
  162MOL0     H21842   4.981   0.309   7.303  3.4749  2.6455 -3.0968
  162MOL0     H21843   4.971   0.379   7.455 -1.6578 -0.5250  0.8784
  162MOL0     H21844   5.117   0.531   7.296 -0.5115  0.6634 -0.3703
  162MOL0     H21845   4.985   0.524   7.184 -3.0075 -1.7021 -0.7625
  162MOL0     H21846   4.906   0.607   7.456  2.7497  1.5888  1.7222
  162MOL0     H21847   4.864   0.690   7.304 -0.6362 -1.3902  0.8841
  162MOL0     H21848   5.135   0.710   7.453 -0.4386  1.2412  1.5980
  162MOL0     H21849   5.104   0.796   7.307 -0.0601 -2.8339 -0.4016
  162MOL0     H21850   4.652   0.376   7.737  0.5699  0.5713 -0.0582
  162MOL0     H21851   4.732   0.559   7.852  1.2010  0.0982 -0.7733
  162MOL0     H21852   4.962   0.880   8.052 -3.1173 -1.9476 -0.1470
  162MOL0     H21853   5.083   1.087   8.077  0.2771  0.4437  1.4231
  162MOL0     H21854   4.276   2.415   7.844  2.5817  0.1765 -0.3333
  162MOL0     H21855   4.079   2.291   7.865  1.5050  0.5282  1.1735
  162MOL0     H21856   3.763   2.003   7.639  2.4712 -0.7500 -0.3454
  162MOL0     H21857   3.564   1.883   7.633  3.9234  0.1716 -1.6678
  162MOL0     H21858   3.271   1.682   7.790  3.3208 -3.9814 -0.3905
  162MOL0     H21859   3.382   1.753   7.667 -1.9933  3.6230 -0.4549
  162MOL0     H21860   3.174   1.888   7.717 -0.7482 -1.1333 -0.4014
  162MOL0     H21861   3.339   1.970   7.757  2.6254 -2.5401 -2.2181
  162MOL0     H21862   3.289   1.965   7.984  0.6730  0.6628 -0.8631
  162MOL0     H21863   3.149   1.849   7.965  0.1898 -0.9717 -0.0943
  162MOL0     H21864   3.138   2.126   7.842  1.2546 -1.0286 -1.6888
  162MOL0     H21865   3.008   2.028   7.893 -0.7025  3.8386 -1.7910
  162MOL0     H21866   3.092   2.251   8.241  0.8514  0.0534  0.4758
  162MOL0     H21867   3.598   1.791   8.047  0.6042  2.5007  0.4156
  162MOL0     H21868   3.807   1.950   8.169  3.7934  2.0256 -0.6081
  162MOL0     H21869   3.805   1.783   8.161  0.8237  0.5386  2.3160
  162MOL0     H21870   3.942   1.872   8.084 -0.2505 -1.2412 -2.3279
  163MOL0     O21871   8.664   8.541   8.898 -0.5500  0.1406  0.2504
  163MOL0     C21872   8.544   8.564   8.928 -1.0026 -0.6536  1.1588
  163MOL0     O21873   8.472   8.671   8.887 -0.2007 -0.6573 -0.1275
  163MOL0     C21874   8.493   8.754   8.772  0.3368 -0.3719 -0.3175
  163MOL0     C21875   8.606   8.746   8.683  0.1229  0.2610 -0.3540
  163MOL0     C21876   8.615   8.825   8.568  0.9319  0.4352  0.1926
  163MOL0     C21877   8.509   8.922   8.547  0.1275 -0.2322 -0.0240
  163MOL0     O21878   8.526   9.011   8.439 -0.0657  0.0212  0.3915
  163MOL0     C21879   8.576   9.137   8.477  0.5508 -0.7778  0.0197
  163MOL0     C21880   8.468   9.234   8.528  0.0297  0.0310  0.6869
  163MOL0     C21881   8.382   9.289   8.408 -0.4262 -0.1546  0.8075
  163MOL0     C21882   8.270   9.371   8.464  0.5868  0.2339 -0.7606
  163MOL0     C21883   8.162   9.411   8.359 -0.5421  0.1402  0.7346
  163MOL0     C21884   8.030   9.464   8.416 -0.0368  0.0759 -0.1314
  163MOL0     C21885   7.932   9.362   8.477  0.2898 -0.9224 -0.1664
  163MOL0     C21886   7.825   9.422   8.571 -0.4086  0.3057  0.4143
  163MOL0     N21887   7.733   9.501   8.489 -0.2463 -0.4693 -0.4258
  163MOL0     C21888   7.709   9.633   8.501 -1.3845 -0.0244  0.4232
  163MOL0     C21889   7.611   9.656   8.404  0.2587  0.0743 -0.5705
  163MOL0     C21890   7.551   9.790   8.377  0.4980 -0.0527 -0.0669
  163MOL0     C21891   7.394   9.791   8.396 -0.4380  0.2564  0.3618
  163MOL0     C21892   7.338   9.934   8.386  1.3216  0.2944 -0.3634
  163MOL0     C21893   7.194   9.937   8.453  0.0829  0.2872 -0.0555
  163MOL0     O21894   7.199   9.881   8.581 -0.1797 -0.2967  0.2068
  163MOL0     C21895   7.270   9.946   8.684 -0.0135  0.6036  0.1480
  163MOL0     C21896   7.341  10.068   8.688  0.1051  0.7257  0.7295
  163MOL0     C21897   7.398  10.101   8.808  1.3453 -0.6178  0.8656
  163MOL0     C21898   7.383  10.030   8.924 -1.0221  0.1300 -0.4379
  163MOL0     C21899   7.439  10.089   9.051  0.4610 -0.1169 -0.6518
  163MOL0     O21900   7.447  10.219   9.064 -0.7218  0.3106 -0.0076
  163MOL0     C21901   7.489  10.271   9.185  0.8112 -0.9863  0.2867
  163MOL0     C21902   7.580  10.378   9.183 -0.4975 -0.1071  0.4140
  163MOL0     C21903   7.613  10.444   9.300 -0.1581 -0.0612 -0.2688
  163MOL0     C21904   7.562  10.407   9.430 -1.1602 -0.0118  0.5786
  163MOL0     O21905   7.591  10.479   9.545 -0.5652 -0.2686 -0.1649
  163MOL0     C21906   7.482  10.519   9.632 -0.5575  0.1948  0.4144
  163MOL0     C21907   7.550  10.625   9.722  0.8944 -0.1719 -0.7673
  163MOL0     C21908   7.684  10.580   9.781 -0.3331 -0.2218  1.0678
  163MOL0     C21909   7.729  10.695   9.873  0.0655 -0.3459  1.2114
  163MOL0     C21910   7.831  10.660   9.981 -0.3423  1.0809 -0.3503
  163MOL0     C21911   7.875  10.776  10.061 -0.5789 -0.7998  0.3296
  163MOL0     C21912   7.982  10.739  10.159 -0.7410  0.6546 -0.7269
  163MOL0     C21913   8.052  10.872  10.209  0.2104  0.8497  0.0780
  163MOL0    Cl21914   8.185  10.836  10.322 -0.5289  0.4260 -0.0122
  163MOL0     C21915   7.483  10.297   9.432 -0.7647  0.2426  0.1296
  163MOL0     C21916   7.446  10.230   9.312  0.4938  0.5722 -0.4015
  163MOL0     O21917   7.489  10.005   9.126  0.0755  0.5890  0.2109
  163MOL0     C21918   7.319   9.904   8.925 -0.0413  0.4842  0.2996
  163MOL0     C21919   7.271   9.857   8.805 -1.1428 -0.0089  0.1237
  163MOL0     N21920   7.577   9.547   8.340 -0.2226  0.9109 -0.3922
  163MOL0     N21921   7.651   9.454   8.390  0.3500 -0.0486  0.7268
  163MOL0     C21922   8.391   8.914   8.632  0.3009  0.2334  0.1954
  163MOL0     C21923   8.383   8.828   8.736  0.0533  0.4218 -0.2688
  163MOL0     C21924   8.469   8.461   9.003  0.3364  0.0603 -0.1940
  163MOL0     C21925   8.334   8.478   9.001  0.0675  0.5573 -0.3020
  163MOL0     C21926   8.255   8.387   9.060 -0.4908 -0.5226  0.5985
  163MOL0     C21927   8.309   8.272   9.134  0.4301 -0.2579  0.4836
  163MOL0     O21928   8.228   8.181   9.192  0.4108  0.3582 -0.3686
  163MOL0     C21929   8.087   8.217   9.223  0.4916 -0.9775  0.3529
  163MOL0     C21930   8.082   8.331   9.331 -0.8859  2.1549 -0.4974
  163MOL0     C21931   7.939   8.389   9.351  0.2494  0.6410  0.5696
  163MOL0     C21932   7.830   8.286   9.404 -0.5960  0.2711 -0.6537
  163MOL0     C21933   7.860   8.223   9.529  1.0920  0.0375  0.2217
  163MOL0     C21934   7.886   8.173   9.630  0.1906  0.7022  0.0863
  163MOL0     C21935   8.447   8.259   9.134  0.0679  0.1437 -0.5899
  163MOL0     C21936   8.532   8.354   9.075  0.1792  0.4153 -0.0099
  163MOL0     C21937   8.683   8.324   9.092  0.4126  0.2541 -0.0847
  163MOL0     H21938   8.689   8.676   8.693 -0.2653  0.0251  1.6296
  163MOL0     H21939   8.706   8.840   8.511  1.7939 -0.7455  1.1920
  163MOL0     H21940   8.640   9.125   8.565 -1.2806  0.1775  1.5713
  163MOL0     H21941   8.641   9.173   8.397  0.3390 -2.2472 -0.8543
  163MOL0     H21942   8.506   9.323   8.579  0.9765  0.9384 -1.4705
  163MOL0     H21943   8.406   9.183   8.603 -0.7221 -1.2512 -0.7581
  163MOL0     H21944   8.332   9.199   8.370 -0.7748 -0.4515  1.9276
  163MOL0     H21945   8.455   9.344   8.348 -0.4444 -0.3929  0.5654
  163MOL0     H21946   8.212   9.309   8.533 -0.6345  1.3999 -0.7087
  163MOL0     H21947   8.312   9.459   8.513 -0.9477  1.1715 -1.0629
  163MOL0     H21948   8.210   9.490   8.300  1.9030 -1.2514  0.7365
  163MOL0     H21949   8.141   9.330   8.288  3.0114 -1.3687  1.2149
  163MOL0     H21950   8.074   9.530   8.492  2.1391 -0.9459 -0.4281
  163MOL0     H21951   7.977   9.525   8.343 -1.0356 -1.1985 -0.5037
  163MOL0     H21952   7.982   9.276   8.523  1.9345 -0.7225 -1.4717
  163MOL0     H21953   7.874   9.305   8.403 -1.9983 -1.9292  2.2577
  163MOL0     H21954   7.767   9.340   8.612  0.8982 -1.3868 -0.9739
  163MOL0     H21955   7.873   9.485   8.646  0.2870  0.5938 -0.2533
  163MOL0     H21956   7.758   9.703   8.568 -1.2506 -1.8316  2.3201
  163MOL0     H21957   7.598   9.856   8.449 -0.3981 -1.2929  1.7399
  163MOL0     H21958   7.576   9.816   8.273  0.6606 -1.5229 -0.4237
  163MOL0     H21959   7.343   9.710   8.343 -0.7842 -0.5897  1.9273
  163MOL0     H21960   7.379   9.765   8.501  2.5492 -3.8633  0.0256
  163MOL0     H21961   7.329   9.945   8.278  1.9241 -1.6334 -0.6399
  163MOL0     H21962   7.397  10.017   8.427  1.6718  0.5291 -1.3007
  163MOL0     H21963   7.129   9.863   8.406 -2.2442  2.6624 -0.7672
  163MOL0     H21964   7.141  10.028   8.424  1.4822  0.5454 -2.0303
  163MOL0     H21965   7.355  10.139   8.607  0.0547  1.9349  1.7663
  163MOL0     H21966   7.435  10.203   8.806  2.1888 -0.9217  0.6742
  163MOL0     H21967   7.629  10.412   9.092 -0.7592 -1.1549 -0.1328
  163MOL0     H21968   7.680  10.528   9.311  0.9180 -0.6618 -1.7861
  163MOL0     H21969   7.401  10.560   9.571  0.2549 -1.1714 -1.6881
  163MOL0     H21970   7.450  10.434   9.694  0.7802 -2.5743 -2.3940
  163MOL0     H21971   7.551  10.723   9.673 -0.2401  1.4192  2.1578
  163MOL0     H21972   7.478  10.639   9.803  2.5144 -1.4216  0.9541
  163MOL0     H21973   7.666  10.492   9.842  2.6103 -0.4326  1.7877
  163MOL0     H21974   7.761  10.565   9.705 -1.2685 -2.0142  0.4254
  163MOL0     H21975   7.645  10.736   9.930  1.6014  1.1835  2.4906
  163MOL0     H21976   7.764  10.770   9.801 -0.9459 -1.5727 -0.6423
  163MOL0     H21977   7.923  10.630   9.930  0.0638 -2.3736  2.0001
  163MOL0     H21978   7.798  10.592  10.060 -0.7276  0.2907 -1.1732
  163MOL0     H21979   7.911  10.846   9.985 -0.9810 -0.7995  0.1388
  163MOL0     H21980   7.795  10.834  10.109  1.5598  5.2015 -2.3197
  163MOL0     H21981   8.059  10.668  10.125  1.3114  2.6366 -0.4463
  163MOL0     H21982   7.924  10.695  10.240 -0.6871 -1.3376 -1.7087
  163MOL0     H21983   8.104  10.910  10.120  0.0503  0.7157 -0.0743
  163MOL0     H21984   7.984  10.950  10.244 -0.1085  0.1805  0.9643
  163MOL0     H21985   7.452  10.255   9.527 -4.9619 -0.2034 -1.2241
  163MOL0     H21986   7.373  10.149   9.311  0.9404 -0.0080  2.9828
  163MOL0     H21987   7.336   9.850   9.017  0.6271 -0.7079 -0.4896
  163MOL0     H21988   7.256   9.751   8.790 -0.0030  0.2826 -5.5331
  163MOL0     H21989   8.297   8.964   8.610 -1.0870 -2.0006  0.7044
  163MOL0     H21990   8.287   8.821   8.786 -0.8807 -0.2966 -2.0708
  163MOL0     H21991   8.277   8.551   8.945  0.4563  1.0406 -0.0674
  163MOL0     H21992   8.148   8.387   9.042 -0.2783 -0.0621 -0.7541
  163MOL0     H21993   8.048   8.133   9.281 -1.1518  0.8803  2.1392
  163MOL0     H21994   8.032   8.249   9.135  0.7836  0.5533  0.6913
  163MOL0     H21995   8.139   8.414   9.288  0.1113  1.8390  0.2036
  163MOL0     H21996   8.125   8.296   9.425  0.1470  0.2640 -1.6129
  163MOL0     H21997   7.892   8.432   9.262 -1.9343  0.0191  1.3449
  163MOL0     H21998   7.953   8.472   9.421 -0.6179  1.3201 -0.0452
  163MOL0     H21999   7.732   8.334   9.414 -2.0152 -2.5291 -0.2554
  163MOL0     H22000   7.805   8.202   9.338  1.1791 -3.6933  3.2673
  163MOL0     H22001   7.931   8.141   9.721 -2.0231 -0.3725  0.8736
  163MOL0     H22002   8.498   8.171   9.173  2.3757  1.7536  0.3235
  163MOL0     H22003   8.715   8.253   9.015  1.6015  0.6107  0.0671
  163MOL0     H22004   8.740   8.417   9.088  1.1679 -0.1871  0.2979
  163MOL0     H22005   8.709   8.273   9.185  2.6755 -0.7187 -1.1570
  164MOL0     O22006   1.650   5.429   1.780  0.7883  1.2396  0.3490
  164MOL0     C22007   1.689   5.477   1.884 -1.1843  0.2536  0.0602
  164MOL0     O22008   1.797   5.432   1.950  0.4969 -0.4509  0.1401
  164MOL0     C22009   1.877   5.339   1.888  0.4033  0.1628 -0.5798
  164MOL0     C22010   2.014   5.365   1.869 -0.5008 -0.0186  0.5827
  164MOL0     C22011   2.099   5.258   1.810 -0.1739 -1.1792  0.2855
  164MOL0     C22012   2.035   5.135   1.771 -0.1817 -0.1136 -0.3222
  164MOL0     O22013   2.102   5.027   1.724  0.2762  0.1901  0.1291
  164MOL0     C22014   2.246   5.043   1.697 -0.6392 -0.4202 -0.7638
  164MOL0     C22015   2.282   4.919   1.619 -0.0200  0.7110  0.3813
  164MOL0     C22016   2.323   4.794   1.703  0.4379  0.4934 -0.1678
  164MOL0     C22017   2.282   4.663   1.636 -0.0711  0.5213 -1.0643
  164MOL0     C22018   2.317   4.545   1.728 -0.0968 -0.9223 -0.5307
  164MOL0     C22019   2.291   4.416   1.646  0.2396 -0.4791 -0.2814
  164MOL0     C22020   2.392   4.397   1.531  0.4876 -0.8097 -1.0253
  164MOL0     C22021   2.417   4.249   1.483 -0.7162 -0.5433  0.0344
  164MOL0     N22022   2.460   4.165   1.596  0.0989 -0.0383 -1.3508
  164MOL0     C22023   2.523   4.203   1.716  0.5779 -0.1666 -0.5923
  164MOL0     C22024   2.517   4.100   1.802  0.5069 -0.1853  0.7856
  164MOL0     C22025   2.538   4.096   1.952 -0.2950 -0.3394 -0.9815
  164MOL0     C22026   2.425   4.077   2.060  0.3211  0.8000 -0.0726
  164MOL0     C22027   2.306   4.171   2.051 -0.0697 -0.8155  0.3566
  164MOL0     C22028   2.332   4.327   2.036 -0.9977 -0.0740 -0.0623
  164MOL0     O22029   2.458   4.364   2.083 -0.8086  0.1182  0.7029
  164MOL0     C22030   2.468   4.461   2.164 -0.2663 -0.3590 -0.8607
  164MOL0     C22031   2.398   4.583   2.157 -0.0175 -0.1913  0.6414
  164MOL0     C22032   2.413   4.690   2.249 -0.4276  0.3799  0.2820
  164MOL0     C22033   2.503   4.672   2.361  0.5674 -0.5691  0.7864
  164MOL0     C22034   2.507   4.775   2.464 -0.7997  0.3791  0.1852
  164MOL0     O22035   2.454   4.893   2.444  0.2531 -0.8804  0.4058
  164MOL0     C22036   2.467   4.991   2.539  1.1052  0.0128  0.1961
  164MOL0     C22037   2.581   5.026   2.617 -0.0984  0.1658 -0.2163
  164MOL0     C22038   2.581   5.142   2.685 -1.2798  0.0513 -0.2734
  164MOL0     C22039   2.471   5.228   2.698 -0.4668  0.1286  0.0742
  164MOL0     O22040   2.478   5.349   2.756  0.5132  0.6407  0.1345
  164MOL0     C22041   2.519   5.349   2.890  0.0008  1.2070 -0.3703
  164MOL0     C22042   2.455   5.478   2.955  0.0811 -0.8138 -1.5517
  164MOL0     C22043   2.505   5.483   3.101 -0.2126  0.1719  0.6665
  164MOL0     C22044   2.485   5.628   3.161  0.1704  0.5649  0.0173
  164MOL0     C22045   2.584   5.661   3.272  0.6994  0.1427 -0.3114
  164MOL0     C22046   2.571   5.569   3.395  0.6239 -0.0651 -0.5681
  164MOL0     C22047   2.617   5.641   3.525 -0.0224  0.5489  0.4368
  164MOL0     C22048   2.674   5.532   3.626 -1.1756 -0.2241 -0.3055
  164MOL0    Cl22049   2.560   5.404   3.647 -0.1554  0.2648  0.0572
  164MOL0     C22050   2.358   5.199   2.622 -0.2346 -0.7316  0.9813
  164MOL0     C22051   2.358   5.079   2.542 -0.1848 -0.5205  0.4441
  164MOL0     O22052   2.566   4.741   2.566 -0.1079  0.4347 -0.1814
  164MOL0     C22053   2.586   4.557   2.357 -0.7821  0.3092  0.2284
  164MOL0     C22054   2.571   4.453   2.257  0.4118 -0.1508 -0.5897
  164MOL0     N22055   2.453   3.994   1.735 -0.2931  0.5528  1.3174
  164MOL0     N22056   2.412   4.038   1.620 -0.2534 -0.6451 -0.2635
  164MOL0     C22057   1.901   5.122   1.781 -1.1585  0.6491  0.0958
  164MOL0     C22058   1.829   5.221   1.842  1.2032  0.5848 -0.1914
  164MOL0     C22059   1.587   5.556   1.967  0.5943  0.1267  0.1098
  164MOL0     C22060   1.489   5.627   1.892 -0.5506 -0.8425  1.3979
  164MOL0     C22061   1.401   5.725   1.943  0.3582 -0.4145 -0.1137
  164MOL0     C22062   1.393   5.725   2.083  0.0522 -0.7665  0.7342
  164MOL0     O22063   1.304   5.802   2.157  0.1376 -0.1758  0.1952
  164MOL0     C22064   1.204   5.871   2.084  1.0897 -0.8436  0.5735
  164MOL0     C22065   1.129   5.956   2.178  1.1787  0.6625 -1.2847
  164MOL0     C22066   1.024   5.864   2.248  0.3113  0.0157  0.6742
  164MOL0     C22067   0.976   5.917   2.381  0.8271  1.0344 -0.7245
  164MOL0     C22068   0.894   6.043   2.365  0.1504  1.0429  0.3903
  164MOL0     C22069   0.818   6.135   2.341 -0.1450 -0.0886 -0.8359
  164MOL0     C22070   1.485   5.655   2.166  0.1115 -0.9068 -1.2147
  164MOL0     C22071   1.573   5.565   2.110  0.7401 -0.2854  0.0678
  164MOL0     C22072   1.652   5.481   2.206  0.0466 -0.0339  0.3639
  164MOL0     H22073   2.060   5.461   1.892 -1.6300  0.5164  0.6829
  164MOL0     H22074   2.204   5.281   1.797 -0.0428 -3.0357 -3.1732
  164MOL0     H22075   2.270   5.129   1.632  4.1207  0.7500  2.0333
  164MOL0     H22076   2.302   5.048   1.790 -1.8915 -4.4874  0.3864
  164MOL0     H22077   2.362   4.956   1.553 -0.2599 -0.3799 -0.5363
  164MOL0     H22078   2.202   4.877   1.558  1.8109 -2.7958  0.1282
  164MOL0     H22079   2.280   4.789   1.804 -1.7893  2.0159 -0.9477
  164MOL0     H22080   2.431   4.798   1.718  0.2380  1.7569  1.2952
  164MOL0     H22081   2.175   4.658   1.615  0.3660  1.0063 -3.8766
  164MOL0     H22082   2.329   4.655   1.537 -1.7848  0.6918 -1.9282
  164MOL0     H22083   2.422   4.548   1.756 -0.2228  0.0589 -0.0903
  164MOL0     H22084   2.252   4.544   1.817 -1.2030 -5.3148 -1.1817
  164MOL0     H22085   2.297   4.342   1.727 -3.1608 -1.8037 -1.0724
  164MOL0     H22086   2.189   4.403   1.610  0.6036  2.5600 -2.8888
  164MOL0     H22087   2.490   4.442   1.551 -0.6615  0.1744  3.6599
  164MOL0     H22088   2.358   4.459   1.448 -1.2573  2.2093  1.6755
  164MOL0     H22089   2.332   4.204   1.430 -1.7198  2.7807 -1.4849
  164MOL0     H22090   2.497   4.268   1.411  0.7384  0.0048  1.7303
  164MOL0     H22091   2.553   4.304   1.739 -2.3041  0.2416  2.0393
  164MOL0     H22092   2.610   4.015   1.965  1.7654  1.7640  2.1798
  164MOL0     H22093   2.594   4.187   1.976 -2.1855  0.5288  0.3386
  164MOL0     H22094   2.398   3.971   2.057  1.2665  0.5593 -2.1470
  164MOL0     H22095   2.466   4.075   2.161 -1.1175 -0.6442  0.5377
  164MOL0     H22096   2.234   4.166   2.132 -2.2601  2.0908 -1.2081
  164MOL0     H22097   2.255   4.133   1.961  3.6944  0.4833 -2.6262
  164MOL0     H22098   2.252   4.389   2.076 -1.9108 -0.4264 -1.2591
  164MOL0     H22099   2.337   4.352   1.930 -1.7142 -0.1811 -0.1315
  164MOL0     H22100   2.331   4.603   2.074  1.8184  3.8178 -0.1254
  164MOL0     H22101   2.343   4.772   2.253  0.5746  1.3181 -0.5914
  164MOL0     H22102   2.669   4.962   2.618 -0.0470  0.2175 -1.0610
  164MOL0     H22103   2.677   5.170   2.728 -1.2989 -0.0401 -0.1692
  164MOL0     H22104   2.485   5.252   2.929 -0.7255  0.7520 -2.0586
  164MOL0     H22105   2.627   5.338   2.881 -0.1825 -0.6917 -0.7920
  164MOL0     H22106   2.480   5.576   2.911  1.3902 -0.5080 -0.1899
  164MOL0     H22107   2.347   5.465   2.947 -0.1074 -1.9972  1.6514
  164MOL0     H22108   2.457   5.407   3.163  1.1761 -1.2239  0.0996
  164MOL0     H22109   2.613   5.464   3.101 -0.4873 -1.5834 -0.2964
  164MOL0     H22110   2.383   5.638   3.200  0.3489 -0.0189  0.6520
  164MOL0     H22111   2.510   5.705   3.087  1.3804  1.1212  0.9756
  164MOL0     H22112   2.570   5.766   3.298  0.2100 -0.2323  0.9972
  164MOL0     H22113   2.686   5.665   3.232  0.7882 -0.7318 -0.1888
  164MOL0     H22114   2.464   5.547   3.407  0.3544  1.2497 -0.4294
  164MOL0     H22115   2.627   5.475   3.384  1.1097 -0.6354  4.4185
  164MOL0     H22116   2.542   5.700   3.578 -2.4378 -0.8062 -1.3337
  164MOL0     H22117   2.696   5.710   3.495  0.7889 -1.6766 -3.1840
  164MOL0     H22118   2.763   5.484   3.585 -1.2232  0.6236 -1.4417
  164MOL0     H22119   2.707   5.573   3.721  1.4694  0.3010 -1.3711
  164MOL0     H22120   2.272   5.266   2.621  1.3401  1.4871  2.4744
  164MOL0     H22121   2.277   5.054   2.474 -1.0014 -0.0317  1.2216
  164MOL0     H22122   2.662   4.546   2.433  1.2753 -2.1153 -1.9818
  164MOL0     H22123   2.630   4.362   2.264 -0.1783 -0.4468  1.0804
  164MOL0     H22124   1.843   5.035   1.753 -3.9915  0.8090  4.5666
  164MOL0     H22125   1.727   5.189   1.865  1.1375 -0.1265 -1.3869
  164MOL0     H22126   1.483   5.617   1.784 -0.6673  1.9066  1.0957
  164MOL0     H22127   1.333   5.788   1.886 -1.0429  0.4231  2.3372
  164MOL0     H22128   1.134   5.799   2.040 -2.7317  3.2982 -0.9788
  164MOL0     H22129   1.244   5.934   2.004  0.5790  0.5500  1.3862
  164MOL0     H22130   1.083   6.044   2.132  0.5054  0.5743 -0.7984
  164MOL0     H22131   1.203   5.985   2.253  1.1259 -3.2411  0.4878
  164MOL0     H22132   1.070   5.766   2.264  2.9236  1.3286  1.7134
  164MOL0     H22133   0.940   5.844   2.181  1.4434  0.3238 -0.9178
  164MOL0     H22134   0.918   5.844   2.440  1.9167  0.8808  0.1909
  164MOL0     H22135   1.063   5.945   2.442 -0.2508  6.2010 -1.1027
  164MOL0     H22136   0.754   6.218   2.320 -2.3099 -1.3305  0.4878
  164MOL0     H22137   1.472   5.664   2.273  2.3375  0.3447 -0.9946
  164MOL0     H22138   1.755   5.466   2.170 -0.7839 -2.0325 -1.4023
  164MOL0     H22139   1.648   5.524   2.306  0.1763  1.9281 -0.4213
  164MOL0     H22140   1.600   5.385   2.216 -1.3679  0.5339 -1.1188
  165MOL0     O22141   4.458   4.505   3.248 -0.6475 -0.2972 -0.3456
  165MOL0     C22142   4.564   4.454   3.278 -0.3394 -0.8895  1.3919
  165MOL0     O22143   4.583   4.360   3.378 -0.5417 -0.0617 -0.2819
  165MOL0     C22144   4.484   4.356   3.465 -0.0092  0.9421 -0.0250
  165MOL0     C22145   4.427   4.232   3.496  0.6834  0.8358 -1.0065
  165MOL0     C22146   4.320   4.229   3.583 -0.0140 -0.4722 -0.1285
  165MOL0     C22147   4.279   4.359   3.642  0.8712  0.8113 -0.0749
  165MOL0     O22148   4.162   4.376   3.715 -0.2586 -0.2623  0.7657
  165MOL0     C22149   4.108   4.250   3.768 -0.0789  0.5032  0.0401
  165MOL0     C22150   4.005   4.277   3.873  0.8237  0.6247 -0.6192
  165MOL0     C22151   3.872   4.207   3.851  0.3800  0.7090 -0.8472
  165MOL0     C22152   3.741   4.246   3.930 -1.3519 -0.3026 -0.0922
  165MOL0     C22153   3.700   4.385   3.908 -0.5296  0.5743 -0.2231
  165MOL0     C22154   3.672   4.412   3.764  0.1493  0.0104 -0.5275
  165MOL0     C22155   3.547   4.334   3.717  0.0857 -0.3862 -0.8577
  165MOL0     C22156   3.418   4.361   3.793  0.0333  0.3604  0.6237
  165MOL0     N22157   3.293   4.298   3.736  0.8362 -0.2455 -0.3681
  165MOL0     C22158   3.229   4.335   3.621  0.8736 -0.1313  0.2339
  165MOL0     C22159   3.112   4.260   3.619  0.7322  0.6629 -0.0622
  165MOL0     C22160   3.025   4.256   3.493  0.3389 -0.3169 -0.3573
  165MOL0     C22161   2.892   4.338   3.497  0.3125 -0.7663  1.2940
  165MOL0     C22162   2.866   4.427   3.366 -0.5837 -1.3192 -0.2828
  165MOL0     C22163   2.764   4.543   3.387  0.6576  0.2480  0.2655
  165MOL0     O22164   2.631   4.480   3.379  0.1874  0.1790 -0.2612
  165MOL0     C22165   2.537   4.519   3.469 -0.1921  0.1378  0.0486
  165MOL0     C22166   2.535   4.644   3.531 -0.7216  0.6695 -0.5189
  165MOL0     C22167   2.436   4.673   3.617 -0.2046  0.1706  0.1725
  165MOL0     C22168   2.330   4.586   3.652  0.3201 -0.4590  0.7210
  165MOL0     C22169   2.206   4.629   3.727 -0.4293 -0.2642 -0.8238
  165MOL0     O22170   2.104   4.544   3.735 -0.9394  0.1071  0.1340
  165MOL0     C22171   2.011   4.573   3.825  0.2590 -0.2368 -0.9616
  165MOL0     C22172   2.046   4.587   3.962 -0.3734  0.4519 -0.0461
  165MOL0     C22173   1.951   4.599   4.060 -0.3297  0.1385  0.7995
  165MOL0     C22174   1.818   4.593   4.024  0.5296  0.5056  1.0239
  165MOL0     O22175   1.731   4.625   4.119  0.2072 -0.8426 -0.1896
  165MOL0     C22176   1.594   4.581   4.120  0.0726  0.2734 -0.5792
  165MOL0     C22177   1.510   4.684   4.202  0.3352 -1.3656  1.0755
  165MOL0     C22178   1.564   4.684   4.338  0.1406 -0.5527  0.6938
  165MOL0     C22179   1.516   4.802   4.419  0.3196 -1.2147 -0.2033
  165MOL0     C22180   1.561   4.812   4.560 -0.0289  0.1769  0.1317
  165MOL0     C22181   1.671   4.919   4.567 -0.9227 -0.7253 -0.7522
  165MOL0     C22182   1.755   4.909   4.703  1.4182  0.0271 -0.6750
  165MOL0     C22183   1.845   5.033   4.710 -0.7408  0.3419  0.6450
  165MOL0    Cl22184   1.745   5.175   4.738 -0.6145 -0.0108  0.5588
  165MOL0     C22185   1.784   4.592   3.895 -0.0422 -0.3793  0.0250
  165MOL0     C22186   1.873   4.581   3.794 -0.0069  0.2337  0.2816
  165MOL0     O22187   2.192   4.748   3.756 -0.0799  0.2586 -0.1633
  165MOL0     C22188   2.332   4.458   3.590  0.1278  0.1626 -0.0916
  165MOL0     C22189   2.436   4.428   3.503  0.8757  0.0323  0.4565
  165MOL0     N22190   3.112   4.170   3.724  0.9997  0.5174 -0.5330
  165MOL0     N22191   3.219   4.190   3.797 -0.1992 -0.1491  0.4564
  165MOL0     C22192   4.337   4.473   3.617  0.3846 -0.0256  0.3422
  165MOL0     C22193   4.447   4.478   3.529 -0.0412  0.5839 -0.2802
  165MOL0     C22194   4.680   4.497   3.179 -0.3187 -0.1535 -0.2747
  165MOL0     C22195   4.668   4.614   3.103  0.6007 -0.0690 -0.7482
  165MOL0     C22196   4.761   4.660   3.006  0.1888  0.2924 -0.3613
  165MOL0     C22197   4.869   4.581   2.972 -0.7287 -0.4726  0.7554
  165MOL0     O22198   4.958   4.608   2.872 -0.7648 -0.4894 -0.6084
  165MOL0     C22199   4.965   4.742   2.821  0.6021  0.8039 -0.0872
  165MOL0     C22200   5.058   4.839   2.905 -0.2319  0.8860  0.2547
  165MOL0     C22201   5.193   4.775   2.915  0.4275 -0.1443 -0.4004
  165MOL0     C22202   5.221   4.697   3.052 -0.7600  0.2442 -0.1660
  165MOL0     C22203   5.230   4.809   3.149 -0.8419  0.4619  0.7063
  165MOL0     C22204   5.249   4.910   3.211  0.1978  0.6842 -0.5044
  165MOL0     C22205   4.883   4.455   3.043 -0.6884  0.1781 -0.4352
  165MOL0     C22206   4.793   4.415   3.154 -0.1230 -0.0339  0.5310
  165MOL0     C22207   4.802   4.276   3.202  1.1455  0.1998 -0.7666
  165MOL0     H22208   4.453   4.142   3.443 -0.9375  1.2714 -2.6529
  165MOL0     H22209   4.287   4.129   3.610 -3.5468  0.6274  0.1455
  165MOL0     H22210   4.079   4.188   3.682  2.9396 -2.2911  0.7905
  165MOL0     H22211   4.192   4.201   3.819 -0.6846 -0.1081  0.4798
  165MOL0     H22212   3.982   4.384   3.883 -0.5684  0.3200 -0.3392
  165MOL0     H22213   4.051   4.246   3.967 -2.5306  1.4295  1.4722
  165MOL0     H22214   3.902   4.104   3.872  1.6944  0.9348 -1.4774
  165MOL0     H22215   3.840   4.213   3.746 -2.0706 -0.8689 -0.2585
  165MOL0     H22216   3.654   4.181   3.917  0.4028 -2.9567  0.6873
  165MOL0     H22217   3.754   4.235   4.038  2.8308  1.0854 -0.2816
  165MOL0     H22218   3.623   4.423   3.976 -1.6122  2.3885 -2.3266
  165MOL0     H22219   3.779   4.453   3.941 -2.5335  1.6206  2.8731
  165MOL0     H22220   3.665   4.521   3.752 -2.5266 -0.2536 -2.2149
  165MOL0     H22221   3.756   4.387   3.698  0.6935  0.8366 -0.1615
  165MOL0     H22222   3.577   4.229   3.709  1.9839 -0.0287  0.7921
  165MOL0     H22223   3.553   4.355   3.610  3.5594 -0.4739 -0.7895
  165MOL0     H22224   3.437   4.320   3.892 -1.3733 -0.4836  0.5706
  165MOL0     H22225   3.403   4.469   3.799  1.2525  0.5300  0.8635
  165MOL0     H22226   3.265   4.399   3.541 -1.7181  2.5931  1.0254
  165MOL0     H22227   3.083   4.288   3.406  0.9952  0.3239  0.3070
  165MOL0     H22228   2.992   4.152   3.480  0.4874 -0.2123 -1.8486
  165MOL0     H22229   2.809   4.269   3.516  0.7169 -0.4098  5.3919
  165MOL0     H22230   2.906   4.404   3.583  2.9574  0.0378  0.3438
  165MOL0     H22231   2.846   4.365   3.279 -1.1826 -1.8494  0.2227
  165MOL0     H22232   2.963   4.477   3.364 -2.1510  1.9756 -0.2103
  165MOL0     H22233   2.786   4.619   3.311  1.1508  0.5314  0.6826
  165MOL0     H22234   2.781   4.588   3.485  0.8819  0.2122  0.2443
  165MOL0     H22235   2.605   4.720   3.495  2.3799 -1.5660  0.4033
  165MOL0     H22236   2.439   4.768   3.670  2.4655 -0.2031  0.8140
  165MOL0     H22237   2.150   4.579   3.989 -0.6489  1.1960  1.3030
  165MOL0     H22238   1.980   4.604   4.164 -1.0318 -1.2185  1.0851
  165MOL0     H22239   1.553   4.572   4.019  2.1335 -1.4975 -1.3451
  165MOL0     H22240   1.582   4.481   4.164  2.1071 -0.7260 -2.1512
  165MOL0     H22241   1.508   4.783   4.155 -0.8880 -1.4956  0.8190
  165MOL0     H22242   1.405   4.654   4.197 -0.3695  0.9066 -3.7933
  165MOL0     H22243   1.526   4.596   4.390 -2.2830 -1.0929 -1.7903
  165MOL0     H22244   1.673   4.677   4.345  0.3559 -0.5367 -1.8410
  165MOL0     H22245   1.408   4.785   4.413  0.6711 -3.9621 -0.2341
  165MOL0     H22246   1.526   4.893   4.359  2.0567 -1.3989 -0.2305
  165MOL0     H22247   1.594   4.712   4.591  5.1577  2.5107  3.4778
  165MOL0     H22248   1.473   4.848   4.614 -0.4170 -1.2507  0.5098
  165MOL0     H22249   1.745   4.888   4.493 -1.5986  0.1963 -1.8540
  165MOL0     H22250   1.630   5.020   4.551  0.2479 -0.1039  0.0709
  165MOL0     H22251   1.812   4.816   4.698  0.7425 -0.6362  2.1281
  165MOL0     H22252   1.681   4.903   4.783  0.7041 -0.0580 -1.3321
  165MOL0     H22253   1.921   5.030   4.789  0.8061 -1.2615 -0.8263
  165MOL0     H22254   1.900   5.042   4.616  0.9157  0.6119  1.6009
  165MOL0     H22255   1.681   4.613   3.865  0.5222 -1.2682 -2.8861
  165MOL0     H22256   1.834   4.582   3.692  1.0205  0.4902 -0.1206
  165MOL0     H22257   2.255   4.383   3.592  0.4955 -0.2437 -0.8406
  165MOL0     H22258   2.450   4.337   3.445  1.1703  1.3825 -1.7466
  165MOL0     H22259   4.304   4.564   3.666  0.2842  0.6382 -0.9043
  165MOL0     H22260   4.499   4.572   3.514 -0.4753  1.2089  1.7491
  165MOL0     H22261   4.576   4.672   3.102  1.3866  1.2339 -0.4626
  165MOL0     H22262   4.738   4.750   2.950 -2.3336 -0.3202 -0.4128
  165MOL0     H22263   4.870   4.796   2.810 -0.3518 -0.8002  0.0232
  165MOL0     H22264   5.012   4.720   2.725  1.1680 -3.2897  0.9386
  165MOL0     H22265   5.018   4.871   3.001  0.6522  1.5912  0.4022
  165MOL0     H22266   5.068   4.925   2.838  3.0156 -1.4463 -2.6873
  165MOL0     H22267   5.260   4.860   2.899 -1.9643  1.8223 -0.4049
  165MOL0     H22268   5.194   4.690   2.846  1.6218 -0.6334  0.1855
  165MOL0     H22269   5.144   4.629   3.087 -0.9983 -1.3096 -3.3111
  165MOL0     H22270   5.315   4.644   3.034  0.8008  3.4843 -2.7590
  165MOL0     H22271   5.254   5.000   3.267  0.6499  2.1116 -2.7035
  165MOL0     H22272   4.962   4.390   3.007  0.5055  0.7629  1.0077
  165MOL0     H22273   4.712   4.218   3.182  1.9503 -1.8600  1.2330
  165MOL0     H22274   4.894   4.236   3.160  2.5989  2.7288 -0.2250
  165MOL0     H22275   4.810   4.277   3.311  1.0962 -0.4383 -0.7526
  166MOL0     O22276   2.470   7.633   1.203  0.7408 -0.3989 -0.5770
  166MOL0     C22277   2.583   7.620   1.241  0.2507  0.8934 -0.6698
  166MOL0     O22278   2.618   7.546   1.355 -0.7337  0.1757 -0.2862
  166MOL0     C22279   2.524   7.515   1.448 -0.4308 -0.3743 -0.3978
  166MOL0     C22280   2.528   7.375   1.495  0.0664 -0.5149  0.3313
  166MOL0     C22281   2.419   7.327   1.559 -0.1195 -0.3262  0.5560
  166MOL0     C22282   2.305   7.415   1.588 -0.8568 -0.1512  0.7357
  166MOL0     O22283   2.203   7.378   1.670  0.3001 -0.2371  0.1757
  166MOL0     C22284   2.241   7.293   1.771  0.2049 -0.3937 -0.1209
  166MOL0     C22285   2.123   7.281   1.869 -0.3534 -0.1374 -0.4312
  166MOL0     C22286   2.166   7.206   1.992  0.9502  0.1538 -0.1014
  166MOL0     C22287   2.027   7.166   2.057 -0.0405 -0.1115  0.2667
  166MOL0     C22288   2.030   7.136   2.206  0.0865  0.1048 -0.6460
  166MOL0     C22289   2.128   7.037   2.254  0.6887  0.0891 -0.0487
  166MOL0     C22290   2.122   7.036   2.413  0.2085 -0.3258  0.9780
  166MOL0     C22291   2.231   6.948   2.486  0.7573  0.2171  0.7877
  166MOL0     N22292   2.229   6.990   2.631  0.8881  0.3702 -0.9994
  166MOL0     C22293   2.331   6.981   2.726  1.6224  0.5425 -0.5890
  166MOL0     C22294   2.284   7.015   2.847  0.3164 -0.9565  0.4374
  166MOL0     C22295   2.374   7.015   2.968 -0.1160 -0.2038  0.6616
  166MOL0     C22296   2.312   7.096   3.084  0.0503  0.0540 -0.0685
  166MOL0     C22297   2.383   7.092   3.217  0.1305 -0.8079 -0.2343
  166MOL0     C22298   2.454   7.230   3.250  0.7287  0.0678  0.7694
  166MOL0     O22299   2.513   7.211   3.386 -0.0958 -1.0626  0.1265
  166MOL0     C22300   2.624   7.123   3.405  0.3459  0.8314 -0.3876
  166MOL0     C22301   2.650   7.088   3.535 -1.3231 -0.6619  0.5412
  166MOL0     C22302   2.747   6.995   3.571 -0.6983  0.0388 -0.0030
  166MOL0     C22303   2.811   6.925   3.460 -0.1417  0.3521  0.2833
  166MOL0     C22304   2.897   6.811   3.488  0.0277  0.6407 -0.8792
  166MOL0     O22305   2.961   6.753   3.390  0.5036 -1.4041  0.3812
  166MOL0     C22306   3.051   6.643   3.396  0.2129 -0.3091 -0.5839
  166MOL0     C22307   3.032   6.532   3.488 -0.5297  0.8188 -0.2955
  166MOL0     C22308   3.110   6.416   3.481 -0.0910  0.3085  0.3659
  166MOL0     C22309   3.211   6.400   3.394 -0.6022  0.1438  0.1658
  166MOL0     O22310   3.279   6.286   3.373 -0.7133 -0.0410  0.9044
  166MOL0     C22311   3.314   6.213   3.484 -0.2138  0.1966 -0.3339
  166MOL0     C22312   3.454   6.147   3.469  0.2393 -0.3948 -0.0869
  166MOL0     C22313   3.575   6.243   3.444  1.0143 -0.0165  1.0455
  166MOL0     C22314   3.707   6.156   3.427 -0.4374  0.1251 -0.3664
  166MOL0     C22315   3.835   6.224   3.484  0.1477 -0.7884  0.6808
  166MOL0     C22316   3.939   6.124   3.492 -0.2040 -0.3415 -0.4520
  166MOL0     C22317   4.070   6.193   3.523 -0.2604  0.5668  1.2777
  166MOL0     C22318   4.143   6.256   3.395 -0.3310 -0.2679  0.0363
  166MOL0    Cl22319   4.290   6.329   3.458 -0.2276  0.0495 -0.5974
  166MOL0     C22320   3.240   6.507   3.304 -0.1005  0.2352 -1.0957
  166MOL0     C22321   3.164   6.623   3.314 -0.2480 -0.1931 -0.2209
  166MOL0     O22322   2.905   6.779   3.607  0.1259 -0.6563 -0.0643
  166MOL0     C22323   2.780   6.959   3.331  0.6077 -0.1327 -0.4706
  166MOL0     C22324   2.686   7.055   3.305  0.5974 -0.6291  0.3019
  166MOL0     N22325   2.159   7.067   2.827  0.0770 -0.6773  0.3444
  166MOL0     N22326   2.127   7.049   2.704 -0.3162  0.1908 -0.3549
  166MOL0     C22327   2.296   7.542   1.539 -0.3721  0.3499 -0.9730
  166MOL0     C22328   2.412   7.594   1.475  0.2418  0.6248 -0.2399
  166MOL0     C22329   2.692   7.672   1.152  0.8023 -0.4513  0.2536
  166MOL0     C22330   2.821   7.684   1.209  0.0229  1.1104  0.1118
  166MOL0     C22331   2.925   7.730   1.136 -0.3798 -0.1043 -0.6015
  166MOL0     C22332   2.922   7.747   1.003  1.7125 -0.5970  0.1775
  166MOL0     O22333   3.035   7.772   0.927  0.7250  0.3435 -0.5958
  166MOL0     C22334   3.041   7.902   0.857  0.5165  1.3297  0.2769
  166MOL0     C22335   3.154   7.904   0.752  1.1711 -0.0787 -0.3619
  166MOL0     C22336   3.291   7.856   0.795 -0.1321  0.4091 -0.1939
  166MOL0     C22337   3.378   7.975   0.842  0.0255  0.6749  0.0803
  166MOL0     C22338   3.437   8.057   0.736  0.2995 -0.1221  0.4970
  166MOL0     C22339   3.476   8.126   0.650 -1.1383 -0.6359  0.0765
  166MOL0     C22340   2.796   7.730   0.943 -1.0165  0.8702 -0.0472
  166MOL0     C22341   2.681   7.691   1.017  0.0152 -0.7271  0.7040
  166MOL0     C22342   2.556   7.697   0.937 -0.0231 -0.5312  0.8768
  166MOL0     H22343   2.600   7.301   1.461 -0.9903 -1.7742  0.7255
  166MOL0     H22344   2.433   7.228   1.600 -0.9261 -2.2139 -3.2287
  166MOL0     H22345   2.263   7.190   1.740 -0.4475 -1.1580  1.8021
  166MOL0     H22346   2.329   7.333   1.822  1.8438 -3.6750 -0.0826
  166MOL0     H22347   2.040   7.246   1.807  1.2957 -1.6323 -1.9333
  166MOL0     H22348   2.098   7.384   1.898 -4.1684 -1.2202  0.6113
  166MOL0     H22349   2.226   7.272   2.055 -1.3287 -0.4193  2.9618
  166MOL0     H22350   2.217   7.113   1.965 -1.4818 -2.3735  3.1049
  166MOL0     H22351   1.964   7.255   2.047  1.8564  0.9750 -3.4790
  166MOL0     H22352   1.976   7.100   1.986 -1.2887  0.6098  0.4647
  166MOL0     H22353   2.042   7.230   2.261  0.4992 -0.8533  0.9600
  166MOL0     H22354   1.931   7.107   2.242 -0.2065  0.8164 -0.8608
  166MOL0     H22355   2.107   6.938   2.213 -0.7024  0.3656 -0.0832
  166MOL0     H22356   2.226   7.073   2.223  0.5844  0.4425  0.0268
  166MOL0     H22357   2.025   6.994   2.441 -0.2071  0.5367  0.8534
  166MOL0     H22358   2.125   7.140   2.449 -3.2138  0.8474 -1.6448
  166MOL0     H22359   2.203   6.843   2.478 -1.1141  0.6344  1.3312
  166MOL0     H22360   2.323   6.968   2.430 -0.0794  3.1716  0.3226
  166MOL0     H22361   2.435   6.949   2.725  2.4316  2.8989  0.5234
  166MOL0     H22362   2.387   6.915   3.011  3.1313 -0.1916  0.0294
  166MOL0     H22363   2.471   7.063   2.951 -0.2549  0.2331  1.0726
  166MOL0     H22364   2.293   7.199   3.052  0.1393 -0.3298 -1.4152
  166MOL0     H22365   2.213   7.054   3.105  0.2171  0.1284  0.8940
  166MOL0     H22366   2.446   7.002   3.219 -1.4675 -1.9699  0.9204
  166MOL0     H22367   2.313   7.083   3.302  3.1881 -2.4434  2.3144
  166MOL0     H22368   2.366   7.296   3.252 -0.2343 -1.1763  0.5981
  166MOL0     H22369   2.532   7.265   3.182 -0.5444 -1.2799 -1.5295
  166MOL0     H22370   2.589   7.128   3.616 -1.0435 -1.9616  1.4323
  166MOL0     H22371   2.766   6.963   3.673  1.4280  0.3522 -0.2611
  166MOL0     H22372   2.947   6.529   3.556 -1.7908  1.9963 -1.7260
  166MOL0     H22373   3.079   6.326   3.534  3.5930 -1.0785  0.4573
  166MOL0     H22374   3.302   6.261   3.582 -2.3859  0.9565 -0.9335
  166MOL0     H22375   3.246   6.128   3.486  2.8169 -2.4295  0.2002
  166MOL0     H22376   3.473   6.097   3.565 -0.5791 -0.0996  0.2419
  166MOL0     H22377   3.458   6.080   3.383 -1.5394 -1.6392  0.7281
  166MOL0     H22378   3.553   6.301   3.354 -0.5730  0.3228  1.6107
  166MOL0     H22379   3.588   6.316   3.525 -0.5880  2.6622 -0.9361
  166MOL0     H22380   3.716   6.135   3.320 -2.8157 -1.4298 -0.3308
  166MOL0     H22381   3.697   6.056   3.470  0.3311  0.8776  1.6485
  166MOL0     H22382   3.816   6.272   3.581  0.6955  1.3032 -0.2051
  166MOL0     H22383   3.862   6.308   3.420  2.3795 -0.9777  1.2842
  166MOL0     H22384   3.930   6.061   3.581 -0.5529  3.8202  2.7781
  166MOL0     H22385   3.955   6.070   3.398 -0.2535  3.5072 -2.8621
  166MOL0     H22386   4.145   6.136   3.579  0.0953  0.6538  0.8892
  166MOL0     H22387   4.048   6.267   3.600 -1.7411  1.8194 -0.2625
  166MOL0     H22388   4.166   6.187   3.313 -0.3788 -0.6643  0.3572
  166MOL0     H22389   4.078   6.334   3.352  0.4944 -0.5104 -1.7621
  166MOL0     H22390   3.324   6.491   3.236  2.9210 -0.5549  2.4669
  166MOL0     H22391   3.180   6.703   3.243 -0.8340  0.6777  0.6087
  166MOL0     H22392   2.827   6.909   3.246  4.2550  4.2135 -1.4188
  166MOL0     H22393   2.652   7.078   3.205  0.3334  0.4278  0.6262
  166MOL0     H22394   2.217   7.608   1.574  2.1327  3.0102  0.0193
  166MOL0     H22395   2.410   7.698   1.446  0.5620 -0.1606 -3.5343
  166MOL0     H22396   2.841   7.663   1.314 -0.5474 -2.4765 -0.3540
  166MOL0     H22397   3.017   7.745   1.191 -0.2465 -0.4805 -0.7185
  166MOL0     H22398   3.059   7.980   0.931  1.9804 -0.2453  1.6750
  166MOL0     H22399   2.949   7.927   0.803 -0.3885 -2.7333 -0.4069
  166MOL0     H22400   3.173   8.002   0.708  0.8515 -0.7867 -2.1975
  166MOL0     H22401   3.109   7.836   0.678  2.1977 -0.5558 -0.5691
  166MOL0     H22402   3.334   7.817   0.703  1.7773  0.8428  0.4794
  166MOL0     H22403   3.296   7.783   0.877  0.9225 -1.3209 -1.7271
  166MOL0     H22404   3.334   8.052   0.907  2.2040  1.0812  1.2003
  166MOL0     H22405   3.454   7.922   0.901 -0.3513 -1.4232 -1.2223
  166MOL0     H22406   3.522   8.179   0.569 -1.8074  0.0715  0.1454
  166MOL0     H22407   2.787   7.747   0.836 -0.4472  2.5149  0.1296
  166MOL0     H22408   2.497   7.605   0.929  0.1167 -0.6569  1.2853
  166MOL0     H22409   2.486   7.774   0.971  2.1262  1.5191  0.9333
  166MOL0     H22410   2.575   7.732   0.835 -1.5541  0.9018  1.0438
  167MOL0     O22411   0.840   4.709   3.809 -0.4900  0.0990 -0.5958
  167MOL0     C22412   0.819   4.697   3.696  0.9881 -0.3182  0.6750
  167MOL0     O22413   0.914   4.684   3.599  0.4147  0.0192  0.4501
  167MOL0     C22414   1.045   4.703   3.643 -0.7464  1.0821 -0.2014
  167MOL0     C22415   1.113   4.786   3.559  0.7389  0.3423 -0.7645
  167MOL0     C22416   1.243   4.813   3.574 -0.6664  0.4319  0.3743
  167MOL0     C22417   1.317   4.747   3.681 -0.3807 -0.1542  0.8434
  167MOL0     O22418   1.455   4.775   3.699  0.3150  0.8434  0.0213
  167MOL0     C22419   1.482   4.912   3.697  0.5574 -0.5126  1.2466
  167MOL0     C22420   1.615   4.919   3.760  0.2314 -0.6930  0.0602
  167MOL0     C22421   1.689   5.041   3.697 -0.6518 -0.3960 -0.2902
  167MOL0     C22422   1.825   5.031   3.759 -0.3623 -0.5156 -0.1860
  167MOL0     C22423   1.882   5.183   3.758  0.5131 -0.2050  0.9782
  167MOL0     C22424   2.022   5.186   3.812  0.2970 -0.9758  0.0252
  167MOL0     C22425   2.130   5.118   3.729 -0.8576 -1.0829  0.0207
  167MOL0     C22426   2.270   5.151   3.777  0.7222  0.1510 -0.6851
  167MOL0     N22427   2.373   5.110   3.680 -0.5791 -0.2457  0.5057
  167MOL0     C22428   2.355   5.106   3.541 -0.5962 -0.4238 -0.6963
  167MOL0     C22429   2.459   5.039   3.484  1.3688 -0.5939 -0.4199
  167MOL0     C22430   2.485   5.024   3.336  1.0661  0.7477 -0.1125
  167MOL0     C22431   2.636   5.024   3.312  0.2259 -0.2737 -0.3620
  167MOL0     C22432   2.660   5.009   3.164 -0.2071 -0.1985 -0.0169
  167MOL0     C22433   2.797   5.050   3.126 -0.0239  0.2363 -0.8844
  167MOL0     O22434   2.804   5.196   3.112  0.1766 -0.1970  0.7810
  167MOL0     C22435   2.931   5.245   3.109  0.0298  0.3192  0.0912
  167MOL0     C22436   2.969   5.356   3.177 -0.0597 -0.2796 -0.0563
  167MOL0     C22437   3.097   5.416   3.162 -0.9777  0.9036  0.7814
  167MOL0     C22438   3.192   5.350   3.069  0.5626  0.0318  0.4756
  167MOL0     C22439   3.333   5.399   3.044 -0.5381  0.0757  0.5081
  167MOL0     O22440   3.370   5.509   3.104  0.9811 -0.3018  0.3613
  167MOL0     C22441   3.497   5.555   3.106 -0.1230  0.8676  0.3435
  167MOL0     C22442   3.579   5.527   3.217 -0.1826 -0.3501  0.3360
  167MOL0     C22443   3.712   5.589   3.229 -0.1187 -0.4087 -0.3708
  167MOL0     C22444   3.757   5.675   3.123  0.8534 -0.1768  0.0926
  167MOL0     O22445   3.873   5.743   3.128 -0.8572 -0.0287  0.2448
  167MOL0     C22446   3.955   5.774   3.016 -0.7298 -0.0674 -0.5389
  167MOL0     C22447   4.088   5.840   3.059 -0.5378 -0.2832 -0.1548
  167MOL0     C22448   4.077   5.994   3.112 -0.4747  0.3867 -0.2340
  167MOL0     C22449   4.000   6.075   3.015  0.5853  0.1191 -0.1354
  167MOL0     C22450   4.045   6.069   2.864  0.0697 -0.2063 -0.3620
  167MOL0     C22451   4.044   6.199   2.785  0.3195 -0.0251  0.6314
  167MOL0     C22452   4.083   6.192   2.636 -0.0108  0.2333  0.3178
  167MOL0     C22453   4.123   6.325   2.562  0.5694 -0.1737  0.1116
  167MOL0    Cl22454   4.291   6.372   2.607  0.0661 -0.0555  0.2460
  167MOL0     C22455   3.667   5.707   3.022  0.7111  1.3260  0.3358
  167MOL0     C22456   3.537   5.648   3.016  0.3272  0.5972  0.0029
  167MOL0     O22457   3.406   5.337   2.966 -0.7964  0.3143 -1.1765
  167MOL0     C22458   3.145   5.236   2.995  0.1891 -0.7198 -0.4861
  167MOL0     C22459   3.015   5.193   3.005  0.6148 -0.1914 -0.4514
  167MOL0     N22460   2.527   4.987   3.597 -0.0061 -0.9546  0.2086
  167MOL0     N22461   2.470   5.020   3.713  0.5450  1.1221 -0.7175
  167MOL0     C22462   1.251   4.664   3.760  0.4134  0.1466 -0.2232
  167MOL0     C22463   1.115   4.639   3.745  0.9209  0.1711  1.5193
  167MOL0     C22464   0.675   4.709   3.657  0.7994  0.2126  0.0492
  167MOL0     C22465   0.655   4.690   3.517  1.1965  0.0799  0.2745
  167MOL0     C22466   0.526   4.670   3.471  0.2389  0.2476 -0.8930
  167MOL0     C22467   0.413   4.656   3.563 -0.6045 -1.2249  0.9181
  167MOL0     O22468   0.278   4.647   3.521 -1.0178  1.0360  0.1651
  167MOL0     C22469   0.242   4.541   3.431 -0.1460  1.1317  0.9725
  167MOL0     C22470   0.196   4.594   3.297 -0.6940  0.2623 -0.7267
  167MOL0     C22471   0.052   4.642   3.292 -0.1994  0.2709 -0.1880
  167MOL0     C22472  -0.023   4.595   3.170  0.3918 -0.1240 -0.5803
  167MOL0     C22473  -0.168   4.620   3.185  0.2303  0.5243  0.1094
  167MOL0     C22474  -0.286   4.628   3.206  0.4908  0.0436  0.7308
  167MOL0     C22475   0.433   4.706   3.689 -0.2840  0.4347  0.1064
  167MOL0     C22476   0.559   4.716   3.742  0.4202 -0.4150 -0.0696
  167MOL0     C22477   0.571   4.757   3.888  0.2822  0.5582  0.0176
  167MOL0     H22478   1.056   4.841   3.484 -0.0136 -0.8155 -1.0720
  167MOL0     H22479   1.295   4.887   3.514  0.2579  0.3631  1.0599
  167MOL0     H22480   1.487   4.951   3.595 -1.6108 -3.7910 -0.2715
  167MOL0     H22481   1.405   4.953   3.764  0.8685 -0.1716  1.3980
  167MOL0     H22482   1.672   4.826   3.746  3.2440 -0.0415  5.2369
  167MOL0     H22483   1.604   4.931   3.868  0.2680 -2.3935  0.2918
  167MOL0     H22484   1.647   5.138   3.726  0.7209  1.3194 -3.5376
  167MOL0     H22485   1.685   5.042   3.588 -2.2807 -0.5569 -0.2495
  167MOL0     H22486   1.827   4.999   3.863  0.8665 -2.1573 -0.6736
  167MOL0     H22487   1.890   4.957   3.711 -1.0884  0.1474 -2.3269
  167MOL0     H22488   1.883   5.229   3.658  0.5009  0.7798  1.4207
  167MOL0     H22489   1.818   5.241   3.825  0.1741 -0.0062  0.4920
  167MOL0     H22490   2.032   5.294   3.827 -1.5313 -0.9314  1.1918
  167MOL0     H22491   2.009   5.138   3.909 -3.4585  0.1019  0.1876
  167MOL0     H22492   2.126   5.145   3.624  1.0771 -1.2047 -0.1215
  167MOL0     H22493   2.118   5.009   3.724  3.8637 -1.7683 -3.5125
  167MOL0     H22494   2.270   5.257   3.804 -1.1462 -0.4978  2.4030
  167MOL0     H22495   2.299   5.097   3.867  3.3453  2.9901  0.3564
  167MOL0     H22496   2.291   5.160   3.473 -2.9522  0.2286  1.8510
  167MOL0     H22497   2.437   4.932   3.301 -1.4837  1.9409 -0.0080
  167MOL0     H22498   2.464   5.113   3.276 -1.9370 -0.1668 -0.5552
  167MOL0     H22499   2.673   5.121   3.348 -1.5491  1.0573 -1.8713
  167MOL0     H22500   2.691   4.949   3.369  0.7018  0.8263  0.6891
  167MOL0     H22501   2.603   5.074   3.096  2.2373  2.3628  0.2157
  167MOL0     H22502   2.627   4.907   3.143 -2.3143 -0.2959  3.1447
  167MOL0     H22503   2.821   5.001   3.031 -1.0157 -3.1816  0.4732
  167MOL0     H22504   2.867   5.008   3.198 -0.1693  2.0515  0.3788
  167MOL0     H22505   2.901   5.396   3.252 -2.8974 -2.1757 -1.4561
  167MOL0     H22506   3.122   5.513   3.203 -0.8571  0.7686  1.0279
  167MOL0     H22507   3.539   5.481   3.307  0.9341 -0.8782  0.5779
  167MOL0     H22508   3.770   5.585   3.320 -3.8542 -0.4025  2.2129
  167MOL0     H22509   3.989   5.685   2.963  0.1758  1.5155 -2.7398
  167MOL0     H22510   3.903   5.832   2.939  0.3549 -1.1163 -2.1093
  167MOL0     H22511   4.134   5.774   3.133 -0.8223 -1.0069 -0.6100
  167MOL0     H22512   4.153   5.839   2.972  0.0516 -2.2171  0.2675
  167MOL0     H22513   4.036   5.998   3.214 -0.6415 -3.5732  0.0115
  167MOL0     H22514   4.179   6.031   3.121 -0.0057 -0.9981  0.6100
  167MOL0     H22515   4.020   6.177   3.049  4.1793 -0.5106  0.0182
  167MOL0     H22516   3.893   6.053   3.020  0.4690  0.2714 -1.6069
  167MOL0     H22517   3.976   6.004   2.809  0.7427 -0.4160 -0.9806
  167MOL0     H22518   4.140   6.018   2.846  0.5973  0.4018  0.6215
  167MOL0     H22519   3.941   6.235   2.785  0.3683  0.2138 -1.5150
  167MOL0     H22520   4.093   6.278   2.842 -0.2975 -0.2880  1.5433
  167MOL0     H22521   4.006   6.145   2.574 -0.3887  5.1022 -3.5861
  167MOL0     H22522   4.164   6.120   2.622 -1.1334 -1.4077  1.8725
  167MOL0     H22523   4.124   6.290   2.458 -0.4811  1.0100 -0.3239
  167MOL0     H22524   4.050   6.407   2.566  0.2928 -0.4546  4.2313
  167MOL0     H22525   3.687   5.780   2.944 -0.9810 -0.0665 -1.5265
  167MOL0     H22526   3.464   5.677   2.941  2.3688  2.2980 -1.4467
  167MOL0     H22527   3.207   5.185   2.922 -0.2983 -2.8454  0.5310
  167MOL0     H22528   2.984   5.119   2.932 -1.2428  1.6806 -1.6537
  167MOL0     H22529   1.301   4.622   3.847  1.8692 -2.7931 -2.2903
  167MOL0     H22530   1.059   4.573   3.811 -0.1154  2.4499  3.0648
  167MOL0     H22531   0.737   4.695   3.447  0.5767 -0.7203 -0.5257
  167MOL0     H22532   0.516   4.641   3.367 -0.1086 -2.9108 -0.0911
  167MOL0     H22533   0.160   4.484   3.474  1.0110 -1.1794  0.2975
  167MOL0     H22534   0.322   4.470   3.409  0.8717  3.2833 -3.7456
  167MOL0     H22535   0.201   4.506   3.232  0.3938  1.9108 -3.0201
  167MOL0     H22536   0.272   4.663   3.258 -0.7492  0.1618 -1.0168
  167MOL0     H22537   0.042   4.751   3.297 -2.5651  0.0438  1.8007
  167MOL0     H22538  -0.004   4.615   3.382  0.9458  0.4412  0.5812
  167MOL0     H22539   0.013   4.637   3.075 -0.4944 -1.9218 -1.7556
  167MOL0     H22540  -0.016   4.488   3.153 -0.2763 -0.0321 -1.5697
  167MOL0     H22541  -0.392   4.644   3.202 -0.0808 -3.0243  1.4728
  167MOL0     H22542   0.338   4.714   3.742 -2.9912 -1.8862 -3.8742
  167MOL0     H22543   0.614   4.675   3.947 -2.7743 -1.1597  0.0913
  167MOL0     H22544   0.622   4.853   3.895  1.5853 -0.2078  1.7715
  167MOL0     H22545   0.474   4.763   3.937  0.7509 -2.1837  1.4699
  168MOL0     O22546   1.642   8.599   1.249  0.3325  0.1803 -0.9629
  168MOL0     C22547   1.520   8.618   1.262  0.7905  0.1473  0.0122
  168MOL0     O22548   1.440   8.594   1.378 -0.0774 -0.2178  0.6404
  168MOL0     C22549   1.495   8.519   1.473  0.8430 -0.1930 -0.5429
  168MOL0     C22550   1.482   8.382   1.480 -1.1476  0.0512 -0.4916
  168MOL0     C22551   1.564   8.303   1.573 -0.5461 -0.9785 -0.6233
  168MOL0     C22552   1.632   8.383   1.672  0.1817  0.7052 -0.0869
  168MOL0     O22553   1.685   8.301   1.762 -0.5740 -0.4475 -0.4665
  168MOL0     C22554   1.800   8.345   1.829 -0.1363  0.3617 -0.4040
  168MOL0     C22555   1.881   8.218   1.849 -0.1380  0.4564 -0.1861
  168MOL0     C22556   2.017   8.240   1.923 -0.1204 -0.4383  0.1096
  168MOL0     C22557   2.113   8.322   1.842  0.0127  0.0841  0.3824
  168MOL0     C22558   2.240   8.378   1.920 -0.1264 -0.3701  0.0391
  168MOL0     C22559   2.331   8.439   1.811  0.5118 -0.8429  0.4257
  168MOL0     C22560   2.429   8.541   1.872 -0.3127  1.3145 -0.2898
  168MOL0     C22561   2.513   8.606   1.755  1.2744  0.5590  0.0837
  168MOL0     N22562   2.603   8.704   1.811  0.6130  0.3340  0.3413
  168MOL0     C22563   2.742   8.691   1.808 -0.1962 -0.0747 -1.1383
  168MOL0     C22564   2.783   8.814   1.855  0.8671 -0.3207  0.3599
  168MOL0     C22565   2.926   8.850   1.862  0.0185  0.4891  0.4393
  168MOL0     C22566   3.018   8.830   1.736  0.0480  0.0225 -0.8058
  168MOL0     C22567   3.154   8.903   1.748  0.6112 -0.4732  0.3568
  168MOL0     C22568   3.238   8.844   1.863  0.0010 -0.1520  0.3528
  168MOL0     O22569   3.268   8.701   1.855 -0.4605  0.2442 -0.0967
  168MOL0     C22570   3.359   8.663   1.763  0.5455 -1.0307 -0.5434
  168MOL0     C22571   3.333   8.533   1.714  0.4656 -0.5296 -0.2165
  168MOL0     C22572   3.414   8.483   1.614  0.1836  0.2949  1.1160
  168MOL0     C22573   3.530   8.550   1.561  0.1094  0.8408  0.1125
  168MOL0     C22574   3.613   8.494   1.452  0.0221 -0.2847  0.2380
  168MOL0     O22575   3.560   8.385   1.386  0.2656 -0.3276  0.0786
  168MOL0     C22576   3.586   8.378   1.250 -1.3186 -0.0035 -0.5380
  168MOL0     C22577   3.665   8.277   1.202  0.7658  0.3016 -0.4356
  168MOL0     C22578   3.695   8.255   1.073 -0.3043  0.4589 -0.2086
  168MOL0     C22579   3.635   8.332   0.979 -0.9122 -0.9733 -0.1379
  168MOL0     O22580   3.670   8.329   0.842  0.3759 -1.0304  0.0522
  168MOL0     C22581   3.810   8.334   0.812 -0.1153  0.8255 -0.3504
  168MOL0     C22582   3.821   8.371   0.658  0.0399  0.2418 -0.1459
  168MOL0     C22583   3.958   8.395   0.598 -0.5955  0.0951 -0.3203
  168MOL0     C22584   4.026   8.256   0.574  0.2434 -0.3877 -0.4609
  168MOL0     C22585   4.182   8.277   0.554  0.1560 -1.0097 -0.5608
  168MOL0     C22586   4.253   8.150   0.511 -0.4363  1.0796 -0.4875
  168MOL0     C22587   4.392   8.187   0.450  0.0985  0.1856 -0.4819
  168MOL0     C22588   4.500   8.210   0.558 -1.0324 -0.0654  0.1602
  168MOL0    Cl22589   4.546   8.053   0.626  0.0607 -0.1807 -0.3089
  168MOL0     C22590   3.551   8.440   1.028 -0.2588 -0.1574  0.8820
  168MOL0     C22591   3.534   8.462   1.158  0.2539  0.0417 -0.0411
  168MOL0     O22592   3.714   8.566   1.426  0.5107  0.1531 -0.0588
  168MOL0     C22593   3.550   8.674   1.616 -0.5974 -0.1972 -0.6700
  168MOL0     C22594   3.464   8.737   1.711  0.0838  0.1051  0.3812
  168MOL0     N22595   2.677   8.873   1.908 -0.1707 -0.4053  0.7946
  168MOL0     N22596   2.566   8.816   1.878  0.2603 -0.0555  0.0113
  168MOL0     C22597   1.643   8.521   1.666  0.7428  0.4922  0.0522
  168MOL0     C22598   1.570   8.590   1.564  0.9422 -0.6178 -0.4295
  168MOL0     C22599   1.432   8.665   1.151 -0.3591  0.0437 -0.0638
  168MOL0     C22600   1.338   8.764   1.176  0.5453  1.2428  0.8021
  168MOL0     C22601   1.254   8.810   1.079  0.0953 -0.8493  0.6745
  168MOL0     C22602   1.266   8.774   0.943 -0.0970 -0.5218 -0.9511
  168MOL0     O22603   1.189   8.835   0.852  0.7983 -0.6795  0.0402
  168MOL0     C22604   1.242   8.877   0.733  0.0439  0.6187  0.8697
  168MOL0     C22605   1.166   8.814   0.611  0.0252 -0.8884 -0.4162
  168MOL0     C22606   1.222   8.851   0.476  0.1620 -0.3840  0.4076
  168MOL0     C22607   1.135   8.792   0.360  0.5164  0.5344  0.2349
  168MOL0     C22608   1.005   8.849   0.345  0.0999 -0.1244 -0.9527
  168MOL0     C22609   0.893   8.891   0.339  0.5772  0.0451 -0.0962
  168MOL0     C22610   1.365   8.675   0.914 -0.2506 -0.4472 -0.0461
  168MOL0     C22611   1.443   8.613   1.012 -1.0397 -0.1371 -0.1097
  168MOL0     C22612   1.518   8.494   0.959  0.8326 -0.9625  0.0178
  168MOL0     H22613   1.429   8.330   1.401 -0.4164 -3.0579  0.9158
  168MOL0     H22614   1.572   8.195   1.572  0.1550 -1.0477  2.3434
  168MOL0     H22615   1.863   8.408   1.766  2.2395 -1.1560  0.3030
  168MOL0     H22616   1.787   8.399   1.923 -0.1896 -0.3553  0.0126
  168MOL0     H22617   1.903   8.180   1.748 -0.8406 -0.7583  0.1053
  168MOL0     H22618   1.818   8.155   1.912 -1.1594  2.2779  0.7177
  168MOL0     H22619   2.062   8.143   1.948  2.2195  1.1449  2.6730
  168MOL0     H22620   2.004   8.292   2.019  2.4444  5.3458 -2.2115
  168MOL0     H22621   2.140   8.259   1.758 -2.1739  0.8436 -0.9758
  168MOL0     H22622   2.068   8.404   1.785  0.9659 -0.6841 -1.5629
  168MOL0     H22623   2.216   8.452   1.998 -0.7632  0.3138 -0.7831
  168MOL0     H22624   2.305   8.303   1.967  0.8875  1.2880  1.3990
  168MOL0     H22625   2.394   8.359   1.772  0.7378  0.8732 -3.1540
  168MOL0     H22626   2.269   8.492   1.738 -1.1486  0.0558  2.3813
  168MOL0     H22627   2.500   8.491   1.937  1.3697  0.9255 -2.3097
  168MOL0     H22628   2.366   8.612   1.928 -1.6506  2.2674 -2.8052
  168MOL0     H22629   2.563   8.525   1.702 -0.1501 -0.3744  0.0898
  168MOL0     H22630   2.455   8.665   1.684  3.5358  1.9523 -0.7015
  168MOL0     H22631   2.802   8.608   1.772  3.0914 -0.2797  3.7963
  168MOL0     H22632   2.924   8.956   1.890 -1.0243  0.5807  0.0386
  168MOL0     H22633   2.977   8.786   1.935 -0.8328 -2.9135 -1.7256
  168MOL0     H22634   3.036   8.722   1.726 -1.4123 -0.2585 -0.5308
  168MOL0     H22635   2.966   8.857   1.644  0.5928 -3.8210 -2.4444
  168MOL0     H22636   3.139   9.011   1.756 -1.8923 -0.8293  1.5604
  168MOL0     H22637   3.219   8.879   1.664  5.1147  0.3655  3.2615
  168MOL0     H22638   3.168   8.850   1.947  0.2848  0.5671  0.5489
  168MOL0     H22639   3.320   8.911   1.892 -3.2066  4.5207 -0.1452
  168MOL0     H22640   3.249   8.477   1.755  0.2294  0.2356  0.3649
  168MOL0     H22641   3.409   8.382   1.575  0.3619  0.6231  0.1943
  168MOL0     H22642   3.702   8.213   1.282  0.7921  0.0922 -0.6152
  168MOL0     H22643   3.766   8.182   1.037 -0.3359  0.2365  0.1801
  168MOL0     H22644   3.865   8.407   0.872 -0.6478  0.8337  0.1340
  168MOL0     H22645   3.852   8.237   0.841 -0.7188  0.4166 -0.8288
  168MOL0     H22646   3.770   8.286   0.611 -1.0434  0.9907 -0.3674
  168MOL0     H22647   3.752   8.454   0.643 -0.9294 -0.7451 -1.3401
  168MOL0     H22648   3.960   8.460   0.510  1.9736 -1.7591 -1.7458
  168MOL0     H22649   4.023   8.436   0.676  0.8750 -3.3517  0.4389
  168MOL0     H22650   4.000   8.221   0.474  1.6728 -2.4159 -0.1824
  168MOL0     H22651   4.009   8.188   0.658  1.3237  1.4259  1.3118
  168MOL0     H22652   4.227   8.308   0.649  0.0159  3.1655 -1.6597
  168MOL0     H22653   4.193   8.373   0.503 -1.7816 -0.0197  0.7650
  168MOL0     H22654   4.263   8.104   0.610 -0.6466  1.0517 -0.4802
  168MOL0     H22655   4.201   8.084   0.442  1.8000 -2.7918  1.1945
  168MOL0     H22656   4.371   8.283   0.400  2.1508  1.0680  0.2337
  168MOL0     H22657   4.421   8.105   0.383 -0.3482 -2.1473  2.0251
  168MOL0     H22658   4.588   8.255   0.511  0.4535 -2.2717  0.6677
  168MOL0     H22659   4.475   8.266   0.648  1.0922 -0.5799  1.1300
  168MOL0     H22660   3.509   8.505   0.951 -0.5180 -0.4149  0.8065
  168MOL0     H22661   3.466   8.528   1.210 -0.4256 -0.2262 -0.5565
  168MOL0     H22662   3.638   8.734   1.594 -1.6056  2.6104  2.2240
  168MOL0     H22663   3.471   8.841   1.738 -1.2100  0.0232  1.1172
  168MOL0     H22664   1.696   8.587   1.733 -1.5566  1.9510  0.5457
  168MOL0     H22665   1.578   8.698   1.570 -0.9474 -0.4880  0.5257
  168MOL0     H22666   1.315   8.795   1.278  0.3518 -1.4437  1.6353
  168MOL0     H22667   1.168   8.874   1.100 -1.7742 -2.5519 -1.3076
  168MOL0     H22668   1.335   8.821   0.724 -0.4281 -0.5128  2.5543
  168MOL0     H22669   1.235   8.986   0.727 -0.6695  0.7062  2.7197
  168MOL0     H22670   1.065   8.854   0.621 -0.5834 -2.8685  2.4019
  168MOL0     H22671   1.160   8.705   0.616 -1.3912 -0.9908 -2.9156
  168MOL0     H22672   1.327   8.820   0.474  0.0767 -0.6519 -0.3260
  168MOL0     H22673   1.218   8.960   0.467  2.6918 -0.2347  0.5322
  168MOL0     H22674   1.191   8.798   0.267  0.3064 -2.2843 -0.1817
  168MOL0     H22675   1.120   8.685   0.381 -0.0854  0.6533  0.4413
  168MOL0     H22676   0.793   8.928   0.350  0.6052 -0.1540  0.9130
  168MOL0     H22677   1.350   8.646   0.810  0.7181  2.5597 -1.1495
  168MOL0     H22678   1.616   8.478   1.006  0.9326 -2.1943 -0.5904
  168MOL0     H22679   1.461   8.402   0.972  0.4727 -1.0409 -1.8127
  168MOL0     H22680   1.539   8.504   0.852 -1.1982  0.0688 -0.3242
  169MOL0     O22681   0.471   3.656   3.854  0.0386  0.5255 -0.6070
  169MOL0     C22682   0.441   3.556   3.920  0.5359 -0.8582  0.4234
  169MOL0     O22683   0.364   3.458   3.873 -0.6126  0.3162 -0.5759
  169MOL0     C22684   0.307   3.462   3.754  0.5652  0.4624 -0.4491
  169MOL0     C22685   0.366   3.492   3.635 -0.1738 -0.0488 -0.6401
  169MOL0     C22686   0.285   3.525   3.526  0.7606 -0.1218  0.8270
  169MOL0     C22687   0.141   3.518   3.526 -1.0335  0.9384 -0.1292
  169MOL0     O22688   0.063   3.549   3.421 -0.3168 -0.5668  0.5156
  169MOL0     C22689   0.120   3.522   3.283  1.5887 -0.3863 -0.5941
  169MOL0     C22690   0.006   3.524   3.164 -0.4337 -0.0272 -0.8407
  169MOL0     C22691  -0.045   3.378   3.115 -0.4481 -0.2162  1.2898
  169MOL0     C22692  -0.142   3.404   2.998  0.5398 -0.6711  0.2011
  169MOL0     C22693  -0.189   3.277   2.927  0.4569  0.1381 -0.7285
  169MOL0     C22694  -0.304   3.298   2.837  0.0401 -0.1590  1.0366
  169MOL0     C22695  -0.349   3.161   2.781 -0.1171 -0.2111 -0.1355
  169MOL0     C22696  -0.445   3.178   2.669 -0.2786 -0.6316  0.1655
  169MOL0     N22697  -0.587   3.161   2.711 -0.9435 -0.0754 -0.8104
  169MOL0     C22698  -0.653   3.041   2.743 -0.0694 -0.0343 -0.5530
  169MOL0     C22699  -0.784   3.076   2.747  0.9759  0.5576 -0.2117
  169MOL0     C22700  -0.897   2.973   2.756  0.9622  0.3375  0.6424
  169MOL0     C22701  -0.910   2.893   2.627  0.5976 -1.3900 -0.3108
  169MOL0     C22702  -0.833   2.753   2.621 -0.8268 -0.6910  0.9747
  169MOL0     C22703  -0.836   2.693   2.476  0.5011  0.2084  0.5135
  169MOL0     O22704  -0.788   2.792   2.379  0.1649  0.3490  0.1324
  169MOL0     C22705  -0.659   2.828   2.392  1.0537 -0.7766 -0.2775
  169MOL0     C22706  -0.567   2.744   2.448  0.7764 -0.6383  0.2103
  169MOL0     C22707  -0.433   2.785   2.475  0.3297  0.0018 -0.2295
  169MOL0     C22708  -0.384   2.903   2.422  0.2467 -0.2761  0.9890
  169MOL0     C22709  -0.249   2.950   2.461 -0.6284  0.3960 -0.0842
  169MOL0     O22710  -0.195   3.056   2.395  0.4430  0.2098 -0.0211
  169MOL0     C22711  -0.103   3.135   2.460 -1.0410 -0.0921 -0.0671
  169MOL0     C22712   0.004   3.102   2.537 -0.2220 -0.4519 -0.4890
  169MOL0     C22713   0.062   3.196   2.618  0.0893  0.3849 -0.4938
  169MOL0     C22714   0.031   3.337   2.605  0.3636  0.5468 -0.3379
  169MOL0     O22715   0.094   3.427   2.685  0.0976 -0.3281  0.0442
  169MOL0     C22716   0.236   3.425   2.692 -0.2564  0.5073  0.8978
  169MOL0     C22717   0.296   3.558   2.742 -0.4652  0.0804 -0.2473
  169MOL0     C22718   0.255   3.687   2.665  0.0355  0.4937  0.4422
  169MOL0     C22719   0.180   3.669   2.521 -0.6791 -0.9493  0.3672
  169MOL0     C22720   0.224   3.781   2.426 -0.3832  0.3657  0.3821
  169MOL0     C22721   0.137   3.808   2.300  0.1387 -0.3806  0.1205
  169MOL0     C22722   0.189   3.900   2.192 -0.4579 -0.7907  0.6418
  169MOL0     C22723   0.099   3.907   2.065 -0.1948  0.1437  0.1206
  169MOL0    Cl22724   0.089   3.764   1.976  0.3461 -0.0702  0.0929
  169MOL0     C22725  -0.078   3.374   2.523 -0.2174  1.2771 -0.8335
  169MOL0     C22726  -0.144   3.269   2.458  0.0992 -0.3389  0.5947
  169MOL0     O22727  -0.196   2.900   2.564 -0.4918 -0.5471 -0.3204
  169MOL0     C22728  -0.480   2.991   2.355 -0.3909 -0.0407 -0.5393
  169MOL0     C22729  -0.605   2.951   2.343  0.8116  1.0329 -0.5124
  169MOL0     N22730  -0.796   3.211   2.721 -0.1078  0.2913 -0.6106
  169MOL0     N22731  -0.683   3.259   2.693 -0.2384 -0.0656  0.0782
  169MOL0     C22732   0.092   3.459   3.648 -0.0167 -0.2783  0.5661
  169MOL0     C22733   0.174   3.450   3.755  0.0990 -0.0159 -0.1240
  169MOL0     C22734   0.486   3.552   4.065  0.0760 -0.3920 -0.1079
  169MOL0     C22735   0.408   3.480   4.154  0.2618 -0.5651 -0.2433
  169MOL0     C22736   0.447   3.471   4.291  0.0789  0.1566  0.0877
  169MOL0     C22737   0.565   3.528   4.331  0.8728 -0.8568  0.5576
  169MOL0     O22738   0.593   3.521   4.464  0.1813  0.2237 -0.1524
  169MOL0     C22739   0.707   3.594   4.516  0.0626  0.6159 -0.8327
  169MOL0     C22740   0.704   3.567   4.669 -0.3791  0.6164 -0.1962
  169MOL0     C22741   0.736   3.417   4.685  0.4308  0.1811 -0.3231
  169MOL0     C22742   0.758   3.379   4.838  0.2505 -0.2177 -0.0357
  169MOL0     C22743   0.822   3.248   4.842  0.0782  0.2242  0.1600
  169MOL0     C22744   0.863   3.132   4.843 -0.4542 -0.0880  0.0723
  169MOL0     C22745   0.633   3.619   4.248  0.3429 -0.6983 -1.0144
  169MOL0     C22746   0.599   3.625   4.114  0.6495  0.7191 -0.7303
  169MOL0     C22747   0.686   3.719   4.031  0.2588  0.5796  0.3006
  169MOL0     H22748   0.469   3.525   3.638 -1.1439  3.2396  0.9935
  169MOL0     H22749   0.333   3.560   3.435 -0.8779 -2.0235 -0.8735
  169MOL0     H22750   0.198   3.598   3.274  3.2359 -1.5680  2.3265
  169MOL0     H22751   0.168   3.425   3.293  2.4500  0.1499  0.5907
  169MOL0     H22752   0.034   3.578   3.073  1.6064  1.8260  0.7619
  169MOL0     H22753  -0.088   3.568   3.197 -1.7337 -2.9548 -0.3662
  169MOL0     H22754  -0.095   3.320   3.194 -3.0855 -0.5710 -0.5084
  169MOL0     H22755   0.037   3.316   3.078 -0.0642  1.0294 -0.0020
  169MOL0     H22756  -0.230   3.458   3.033 -0.8711 -2.1045 -1.0193
  169MOL0     H22757  -0.084   3.452   2.918  1.1010 -1.0179  0.3922
  169MOL0     H22758  -0.098   3.238   2.882  0.9523  2.6724 -2.1341
  169MOL0     H22759  -0.226   3.206   3.001  0.9323  0.9353  0.2943
  169MOL0     H22760  -0.388   3.343   2.892  0.5727  4.1435 -1.2555
  169MOL0     H22761  -0.272   3.361   2.754  0.5807 -0.2551  1.1694
  169MOL0     H22762  -0.390   3.087   2.851 -1.2245 -0.6251 -1.1754
  169MOL0     H22763  -0.264   3.105   2.741  0.1487  0.3151 -0.3083
  169MOL0     H22764  -0.450   3.281   2.632 -0.7004 -0.5489  0.4374
  169MOL0     H22765  -0.423   3.106   2.590  0.9062  0.9384 -1.0070
  169MOL0     H22766  -0.612   2.940   2.739  2.4036  0.8449  0.6391
  169MOL0     H22767  -0.907   2.902   2.839  2.1893  2.3766  2.6442
  169MOL0     H22768  -0.996   3.020   2.760 -1.4251 -4.0691  0.3917
  169MOL0     H22769  -1.018   2.874   2.615  0.1135 -0.8430  2.4893
  169MOL0     H22770  -0.873   2.952   2.542 -0.5754  1.7343  1.1815
  169MOL0     H22771  -0.880   2.689   2.697 -1.9359 -2.2947 -0.9639
  169MOL0     H22772  -0.727   2.762   2.646  0.2160  0.2884 -3.1689
  169MOL0     H22773  -0.944   2.681   2.461  0.6234  2.1249 -2.7925
  169MOL0     H22774  -0.788   2.595   2.468 -0.6117 -0.2763 -0.3968
  169MOL0     H22775  -0.592   2.640   2.470 -0.4110 -0.1240  1.4483
  169MOL0     H22776  -0.365   2.719   2.529 -0.4654  1.5295  2.9173
  169MOL0     H22777   0.034   2.998   2.542  3.3094  0.4293 -1.1113
  169MOL0     H22778   0.138   3.161   2.687 -1.1002 -0.6169  0.3595
  169MOL0     H22779   0.269   3.350   2.764  2.4394  2.4600  1.8693
  169MOL0     H22780   0.284   3.411   2.594 -0.1398  0.6648  0.9312
  169MOL0     H22781   0.253   3.567   2.842  1.9369 -0.2261  0.8975
  169MOL0     H22782   0.405   3.549   2.743 -0.3772  1.0052 -0.6475
  169MOL0     H22783   0.197   3.749   2.734 -1.7667 -0.1674 -0.4149
  169MOL0     H22784   0.353   3.735   2.653  1.2356 -2.1837 -1.7210
  169MOL0     H22785   0.072   3.673   2.537 -0.3513  0.8796  2.6116
  169MOL0     H22786   0.211   3.573   2.478  0.9207  0.9352 -3.1787
  169MOL0     H22787   0.320   3.749   2.384 -1.4067 -0.1102 -1.7641
  169MOL0     H22788   0.244   3.875   2.478 -1.1488 -1.2164  3.8419
  169MOL0     H22789   0.105   3.710   2.262  1.1775 -0.1330 -1.4302
  169MOL0     H22790   0.040   3.852   2.325  0.1833 -0.1916 -0.0395
  169MOL0     H22791   0.293   3.871   2.174  0.5098  1.1093  2.7074
  169MOL0     H22792   0.193   4.002   2.230  3.2354 -0.4843 -0.1400
  169MOL0     H22793  -0.002   3.940   2.090 -0.7084 -2.5810  2.0405
  169MOL0     H22794   0.139   3.991   2.007 -1.3325 -0.8863 -2.2700
  169MOL0     H22795  -0.120   3.474   2.518 -1.9092  0.5582 -1.6921
  169MOL0     H22796  -0.229   3.302   2.400  1.6061 -1.0819 -2.2216
  169MOL0     H22797  -0.457   3.078   2.295 -2.6219  2.5864  2.1033
  169MOL0     H22798  -0.673   3.023   2.298  0.5760  0.1521 -1.6251
  169MOL0     H22799  -0.014   3.441   3.660  0.3381 -2.6101  0.6548
  169MOL0     H22800   0.128   3.433   3.852  3.1506 -0.5751  1.3239
  169MOL0     H22801   0.320   3.435   4.107  0.3124 -0.0985 -0.7955
  169MOL0     H22802   0.381   3.418   4.359  0.2582 -0.5360 -0.2626
  169MOL0     H22803   0.696   3.703   4.510 -0.1529  0.5183 -3.7295
  169MOL0     H22804   0.803   3.562   4.475  0.5839 -0.1900  0.9268
  169MOL0     H22805   0.611   3.605   4.711  0.1612  2.2762 -0.4247
  169MOL0     H22806   0.787   3.616   4.721 -0.1120 -1.1769  1.1607
  169MOL0     H22807   0.833   3.382   4.649  1.2643 -2.8491  4.0352
  169MOL0     H22808   0.669   3.341   4.643  2.0119 -2.3226  1.3709
  169MOL0     H22809   0.821   3.451   4.891  0.3774 -1.3783  1.4519
  169MOL0     H22810   0.657   3.365   4.878 -1.0856  4.1996 -1.2359
  169MOL0     H22811   0.903   3.034   4.858 -0.5242  0.2767  3.1490
  169MOL0     H22812   0.711   3.686   4.283  0.4238  0.0715 -2.5880
  169MOL0     H22813   0.650   3.822   4.035  0.2120  0.5723  0.0788
  169MOL0     H22814   0.784   3.713   4.080  0.6830  2.1609 -0.3103
  169MOL0     H22815   0.712   3.675   3.934  2.4242  0.9387  0.6691
  170MOL0     O22816   3.796   9.011   8.799 -0.0919  0.1729  0.0720
  170MOL0     C22817   3.846   9.106   8.863  0.4080 -0.7779 -0.5320
  170MOL0     O22818   3.945   9.105   8.963 -0.2838  0.4174  0.2412
  170MOL0     C22819   3.981   8.985   9.027 -0.2156  0.0758  0.2258
  170MOL0     C22820   4.112   8.939   8.995 -0.4591 -0.8987 -0.3642
  170MOL0     C22821   4.148   8.817   9.047 -0.1708 -0.1649  0.3219
  170MOL0     C22822   4.060   8.735   9.116  0.7346  0.1047 -0.2261
  170MOL0     O22823   4.085   8.610   9.161 -0.3130  0.1443 -0.0776
  170MOL0     C22824   4.218   8.592   9.215 -0.1802 -0.1939  0.0163
  170MOL0     C22825   4.218   8.472   9.314 -0.2477  0.4141 -0.4968
  170MOL0     C22826   4.368   8.428   9.345  0.3753 -0.5329 -0.7193
  170MOL0     C22827   4.369   8.323   9.457 -0.6595 -1.0650  0.5049
  170MOL0     C22828   4.504   8.312   9.531  0.0004 -0.4865 -0.6779
  170MOL0     C22829   4.504   8.205   9.635 -0.2137 -0.3030 -0.3818
  170MOL0     C22830   4.486   8.070   9.574  1.1241 -0.7764 -0.0284
  170MOL0     C22831   4.517   7.947   9.658  0.0373  1.1602 -0.3213
  170MOL0     N22832   4.506   7.827   9.585  0.2170  0.0752 -0.1555
  170MOL0     C22833   4.606   7.771   9.511  0.1965  0.4498  0.5345
  170MOL0     C22834   4.557   7.651   9.473  0.4780 -0.4581 -0.2359
  170MOL0     C22835   4.635   7.563   9.391 -0.8086  0.7582  0.2397
  170MOL0     C22836   4.704   7.453   9.476 -0.7569 -0.8405  0.3040
  170MOL0     C22837   4.607   7.354   9.535 -0.4702 -0.5148 -0.4892
  170MOL0     C22838   4.541   7.273   9.433 -0.7099  0.5001 -0.3132
  170MOL0     O22839   4.402   7.321   9.409 -0.5424  0.1915  0.5931
  170MOL0     C22840   4.295   7.258   9.462  0.5246  0.0041 -0.1429
  170MOL0     C22841   4.291   7.168   9.566 -0.0149  0.4787  0.3289
  170MOL0     C22842   4.171   7.111   9.622 -0.0152  0.7802  0.0889
  170MOL0     C22843   4.048   7.149   9.571  0.0864 -0.0653 -0.0261
  170MOL0     C22844   3.928   7.096   9.632 -0.0586  0.3714 -0.2813
  170MOL0     O22845   3.937   7.038   9.758  0.3390  0.1089 -0.1180
  170MOL0     C22846   3.830   6.960   9.791 -0.4642  0.1045 -0.1327
  170MOL0     C22847   3.731   7.021   9.872 -0.1315 -0.4368  1.4383
  170MOL0     C22848   3.605   6.957   9.891  0.2946 -0.3769 -0.2820
  170MOL0     C22849   3.581   6.833   9.829 -0.8767  0.3737  0.1397
  170MOL0     O22850   3.471   6.761   9.836  0.3073  0.0142  0.4358
  170MOL0     C22851   3.371   6.804   9.922 -0.2534  0.3019  0.8832
  170MOL0     C22852   3.273   6.696   9.956  0.1806  0.9984  0.2896
  170MOL0     C22853   3.340   6.574  10.047 -0.1974 -0.0906 -0.3044
  170MOL0     C22854   3.233   6.481  10.105  0.4727  0.4670 -0.5500
  170MOL0     C22855   3.157   6.538  10.233 -0.1437  0.4889 -0.2147
  170MOL0     C22856   3.053   6.439  10.293  0.6644  0.8976  0.1120
  170MOL0     C22857   3.053   6.440  10.450  0.1723 -0.2480 -0.6434
  170MOL0     C22858   3.012   6.576  10.505 -0.7669  0.4410 -0.2928
  170MOL0    Cl22859   2.928   6.573  10.673  0.4348  0.1293 -0.0049
  170MOL0     C22860   3.691   6.777   9.763  0.1747 -0.3722  0.2222
  170MOL0     C22861   3.810   6.837   9.734 -0.1073 -0.0100 -0.3367
  170MOL0     O22862   3.828   7.105   9.562  0.1429  0.3296  0.3973
  170MOL0     C22863   4.046   7.228   9.455 -0.5552 -0.0545 -0.8307
  170MOL0     C22864   4.167   7.275   9.397 -0.7310 -0.0052  0.0148
  170MOL0     N22865   4.428   7.642   9.525 -0.4917  1.0435  0.0376
  170MOL0     N22866   4.404   7.742   9.596 -0.6160 -0.2789 -0.7455
  170MOL0     C22867   3.928   8.772   9.138  0.1038  0.1129 -0.1118
  170MOL0     C22868   3.894   8.898   9.089  0.4315  0.5329  0.0213
  170MOL0     C22869   3.803   9.245   8.813 -0.6995 -0.9476  0.1369
  170MOL0     C22870   3.739   9.251   8.688 -0.8452  0.0650  0.0899
  170MOL0     C22871   3.704   9.377   8.627 -0.1476  0.0184  0.4810
  170MOL0     C22872   3.746   9.496   8.683 -0.1669 -0.8518 -1.5841
  170MOL0     O22873   3.742   9.628   8.629  0.0058  0.5829 -0.1108
  170MOL0     C22874   3.672   9.642   8.505  0.9814 -0.1570  0.5895
  170MOL0     C22875   3.693   9.787   8.454  1.0325 -0.2377  0.5346
  170MOL0     C22876   3.834   9.840   8.425 -0.4136 -0.0047 -0.6486
  170MOL0     C22877   3.817   9.974   8.344 -0.4652  0.3270  0.1271
  170MOL0     C22878   3.946  10.062   8.345 -0.0329 -0.0046 -0.0758
  170MOL0     C22879   4.047  10.134   8.359 -0.6215  0.9030 -0.4421
  170MOL0     C22880   3.812   9.491   8.813  1.2706  0.6069  0.0810
  170MOL0     C22881   3.840   9.365   8.878 -0.0140 -0.4852  0.2824
  170MOL0     C22882   3.903   9.379   9.015  0.1475 -0.9027  0.0862
  170MOL0     H22883   4.194   9.004   8.965  0.3642 -1.6978  0.0856
  170MOL0     H22884   4.251   8.786   9.033  0.4508  0.9429  2.0729
  170MOL0     H22885   4.293   8.575   9.137  0.9540 -3.9945  1.6869
  170MOL0     H22886   4.257   8.681   9.266  0.6262 -0.4780 -0.0894
  170MOL0     H22887   4.161   8.393   9.263 -1.6680 -0.3915  2.1416
  170MOL0     H22888   4.168   8.503   9.407 -0.3429 -0.4819 -0.2353
  170MOL0     H22889   4.416   8.523   9.369 -2.6805  1.3559 -1.4765
  170MOL0     H22890   4.417   8.394   9.254 -1.4675 -0.9419 -1.6065
  170MOL0     H22891   4.280   8.333   9.520  0.4386  1.1288  1.8085
  170MOL0     H22892   4.371   8.228   9.403  4.1671  0.6096 -3.0004
  170MOL0     H22893   4.587   8.318   9.461  1.7713  0.1328  1.3656
  170MOL0     H22894   4.506   8.410   9.580 -1.0637  0.1829 -1.9079
  170MOL0     H22895   4.609   8.198   9.666 -0.4029 -0.5253  0.2345
  170MOL0     H22896   4.428   8.217   9.713  0.7134 -0.2589  0.5434
  170MOL0     H22897   4.539   8.063   9.478  3.2622 -3.5542  1.1989
  170MOL0     H22898   4.379   8.069   9.550  1.2827 -0.5089 -0.7615
  170MOL0     H22899   4.618   7.949   9.701  0.8358  0.2343 -2.0605
  170MOL0     H22900   4.447   7.935   9.741  1.8100  0.1809  1.1158
  170MOL0     H22901   4.703   7.809   9.480 -0.4092 -0.5861 -3.1176
  170MOL0     H22902   4.577   7.523   9.307  1.0981  1.1350 -1.3205
  170MOL0     H22903   4.709   7.631   9.349 -1.2510  0.1482 -1.6406
  170MOL0     H22904   4.767   7.391   9.412 -0.9905 -5.1776  3.7577
  170MOL0     H22905   4.756   7.499   9.561 -2.2902 -0.8083  1.2808
  170MOL0     H22906   4.537   7.404   9.602  0.9765  0.7529  0.1321
  170MOL0     H22907   4.671   7.299   9.604 -0.0782  2.4898  1.7145
  170MOL0     H22908   4.549   7.171   9.474  0.2873  0.2623 -1.0726
  170MOL0     H22909   4.599   7.273   9.340  1.0430  0.0229  0.7255
  170MOL0     H22910   4.378   7.139   9.625  1.1914  0.2245 -1.5116
  170MOL0     H22911   4.195   7.053   9.710  3.0942 -1.5424 -2.0502
  170MOL0     H22912   3.746   7.122   9.909 -1.9797 -0.2302  1.7329
  170MOL0     H22913   3.523   7.003   9.946  0.2213 -1.7860  0.8625
  170MOL0     H22914   3.413   6.845  10.014 -0.0367  1.3734  0.3309
  170MOL0     H22915   3.324   6.886   9.866  3.4475 -0.0935 -3.2930
  170MOL0     H22916   3.198   6.742  10.021  2.1628 -2.3439  5.5982
  170MOL0     H22917   3.232   6.656   9.862  0.1844  0.7862  0.3778
  170MOL0     H22918   3.402   6.505   9.989 -1.4033 -3.4699  2.1405
  170MOL0     H22919   3.402   6.617  10.126  1.1580 -0.2536 -1.2502
  170MOL0     H22920   3.270   6.383  10.138 -0.5404  0.9546  2.3956
  170MOL0     H22921   3.156   6.459  10.032 -0.5503  1.9334  0.0244
  170MOL0     H22922   3.117   6.635  10.201  0.6312  1.3898  1.4403
  170MOL0     H22923   3.235   6.546  10.309  0.3388 -0.6793 -0.5613
  170MOL0     H22924   2.962   6.465  10.239  1.7389  2.5952 -0.9762
  170MOL0     H22925   3.073   6.334  10.269 -1.2071  0.2818  1.0433
  170MOL0     H22926   3.151   6.425  10.496 -0.9083  0.7733  2.2218
  170MOL0     H22927   2.984   6.365  10.491  2.6521 -2.4169 -0.1904
  170MOL0     H22928   3.100   6.641  10.507  2.2903 -3.3149  0.9143
  170MOL0     H22929   2.933   6.606  10.436 -1.5495  0.9190  0.7716
  170MOL0     H22930   3.672   6.672   9.741 -1.2851 -0.2225  0.6365
  170MOL0     H22931   3.881   6.798   9.663 -0.1757 -0.6466 -0.0543
  170MOL0     H22932   3.950   7.245   9.409 -0.9493 -1.1723 -0.4625
  170MOL0     H22933   4.178   7.338   9.309 -3.9641 -0.0049 -0.5247
  170MOL0     H22934   3.861   8.704   9.189  1.0945  0.2506  1.4269
  170MOL0     H22935   3.792   8.935   9.091  0.5921  0.9992  2.2613
  170MOL0     H22936   3.717   9.161   8.631  0.1585  1.6643 -3.0458
  170MOL0     H22937   3.653   9.371   8.531  0.1598 -0.5700  0.3476
  170MOL0     H22938   3.566   9.630   8.528  0.5103  2.2250 -0.0651
  170MOL0     H22939   3.689   9.567   8.428  2.3035  0.5247  0.1906
  170MOL0     H22940   3.662   9.860   8.529  0.3373 -1.3320  1.3471
  170MOL0     H22941   3.614   9.801   8.381  0.2702 -1.7012  1.0391
  170MOL0     H22942   3.907   9.777   8.374  0.9881  2.4057 -1.8059
  170MOL0     H22943   3.875   9.850   8.526  1.2798 -1.6204 -1.1052
  170MOL0     H22944   3.802   9.933   8.244  1.4849 -6.6296  2.1844
  170MOL0     H22945   3.734  10.040   8.375  0.1879  0.7031  1.1278
  170MOL0     H22946   4.125  10.202   8.388  0.0809  0.0183 -0.2049
  170MOL0     H22947   3.836   9.585   8.862  4.2468 -1.1357  2.2496
  170MOL0     H22948   4.012   9.370   9.009  0.6999  2.8770  1.6849
  170MOL0     H22949   3.882   9.477   9.059 -0.5416 -0.8482 -0.3470
  170MOL0     H22950   3.855   9.307   9.082 -2.8373 -0.5719 -1.4970
  171MOL0     O22951  10.037   3.772   8.760  0.2885 -0.1482 -0.1904
  171MOL0     C22952  10.122   3.691   8.799  0.3013 -0.4470  0.2238
  171MOL0     O22953  10.238   3.660   8.737  0.8157  0.2573 -0.3645
  171MOL0     C22954  10.290   3.731   8.629 -0.6042  0.3274 -0.4571
  171MOL0     C22955  10.395   3.662   8.560  0.9453 -0.6548 -1.1302
  171MOL0     C22956  10.457   3.728   8.451  0.3164  0.9587 -0.6694
  171MOL0     C22957  10.416   3.850   8.412  0.5272 -0.0853 -0.2384
  171MOL0     O22958  10.455   3.907   8.293  0.0601  0.8474 -0.0336
  171MOL0     C22959  10.402   3.842   8.180  1.1057  1.7952  0.3699
  171MOL0     C22960  10.446   3.910   8.057  0.7190  0.4874  0.3027
  171MOL0     C22961  10.338   4.015   8.022 -0.2036 -0.4832 -0.0372
  171MOL0     C22962  10.406   4.138   7.945 -0.2990  0.3729  0.4715
  171MOL0     C22963  10.317   4.260   7.951  0.1714  0.0172 -0.9622
  171MOL0     C22964  10.349   4.371   7.854 -0.2442  0.6268  0.6173
  171MOL0     C22965  10.243   4.479   7.842 -0.6351  0.9417 -1.0304
  171MOL0     C22966  10.237   4.566   7.727  0.1736 -0.0687  0.7375
  171MOL0     N22967  10.366   4.613   7.694 -0.9381 -0.3827 -0.1051
  171MOL0     C22968  10.446   4.699   7.758  0.2656 -0.0423  1.3349
  171MOL0     C22969  10.539   4.739   7.663 -0.8824  0.2757 -0.2906
  171MOL0     C22970  10.646   4.839   7.693  0.8841  0.7763  0.4986
  171MOL0     C22971  10.785   4.792   7.639  0.3241  0.1608  1.0027
  171MOL0     C22972  10.835   4.660   7.680 -0.7444 -0.1822 -0.1392
  171MOL0     C22973  10.847   4.632   7.834 -0.3539  0.7956  0.8621
  171MOL0     O22974  10.939   4.712   7.909  0.4035 -0.1166  0.0687
  171MOL0     C22975  10.957   4.687   8.047 -0.3591 -0.4590  0.7892
  171MOL0     C22976  10.928   4.563   8.103 -0.4855  0.1881 -0.2665
  171MOL0     C22977  10.964   4.541   8.241  0.5876  0.4644 -0.6579
  171MOL0     C22978  11.010   4.649   8.321  0.1848  0.1227  0.1038
  171MOL0     C22979  11.059   4.631   8.459  0.4075 -0.3487 -0.2945
  171MOL0     O22980  11.106   4.744   8.516 -0.3829  0.5462 -0.2140
  171MOL0     C22981  11.123   4.743   8.655  1.0042 -0.4381  0.7256
  171MOL0     C22982  11.187   4.637   8.728 -0.0504 -1.0797  0.3554
  171MOL0     C22983  11.210   4.653   8.865 -0.3023 -0.2048  0.0554
  171MOL0     C22984  11.188   4.778   8.929  0.5341  0.6127 -0.7355
  171MOL0     O22985  11.221   4.784   9.066  0.6357  0.0732  0.4298
  171MOL0     C22986  11.245   4.912   9.117  0.5028  0.4952 -0.0357
  171MOL0     C22987  11.288   4.915   9.263 -0.5941  0.5918  0.3871
  171MOL0     C22988  11.428   4.857   9.283  0.1270 -0.4661 -0.5930
  171MOL0     C22989  11.517   4.898   9.405  0.0819 -0.4749 -0.7931
  171MOL0     C22990  11.639   4.819   9.412 -0.0465 -0.8228 -0.9814
  171MOL0     C22991  11.696   4.799   9.558  0.5246 -0.3542  1.0302
  171MOL0     C22992  11.790   4.676   9.589 -0.0604 -0.7573  0.4520
  171MOL0     C22993  11.842   4.694   9.733 -0.2684  0.0220  0.7647
  171MOL0    Cl22994  11.961   4.560   9.755 -0.2577  0.3116  0.0160
  171MOL0     C22995  11.139   4.879   8.854 -0.0236  0.1721  0.4770
  171MOL0     C22996  11.109   4.862   8.722 -0.1832  0.0632  0.2932
  171MOL0     O22997  11.044   4.525   8.513 -0.2973  0.4488  0.0875
  171MOL0     C22998  11.035   4.775   8.255  0.0980  0.7702 -0.4535
  171MOL0     C22999  11.001   4.798   8.118  0.0133  0.4862  0.0050
  171MOL0     N23000  10.515   4.674   7.545 -0.0236 -0.0223 -0.3090
  171MOL0     N23001  10.418   4.599   7.566  1.2318  0.2144  0.3306
  171MOL0     C23002  10.325   3.925   8.486  0.6176 -0.4442  0.1619
  171MOL0     C23003  10.269   3.865   8.592 -0.4635  0.2938 -0.6155
  171MOL0     C23004  10.097   3.625   8.926  1.5030 -0.5222  0.4649
  171MOL0     C23005   9.996   3.525   8.927 -0.8144  0.5254 -0.1104
  171MOL0     C23006   9.972   3.455   9.039  1.0945  0.3926 -1.0846
  171MOL0     C23007  10.047   3.462   9.161 -0.2511  0.2889  0.5129
  171MOL0     O23008  10.029   3.374   9.262  0.7154  0.8412 -0.1258
  171MOL0     C23009  10.037   3.412   9.397 -0.4207  0.2240 -0.5734
  171MOL0     C23010   9.915   3.486   9.457  0.0148  0.6669 -0.7331
  171MOL0     C23011   9.787   3.403   9.454  0.6727 -0.2203 -1.0596
  171MOL0     C23012   9.678   3.492   9.401 -0.2751  0.1555  0.1816
  171MOL0     C23013   9.684   3.520   9.262  0.8150  0.5306 -0.6307
  171MOL0     C23014   9.678   3.551   9.149  0.1143 -0.1923  0.2571
  171MOL0     C23015  10.159   3.551   9.155 -0.5226 -0.1096 -0.3590
  171MOL0     C23016  10.182   3.635   9.040 -0.1329 -0.9249  1.2676
  171MOL0     C23017  10.287   3.740   9.046  0.3883 -0.5894  0.0868
  171MOL0     H23018  10.433   3.562   8.577  0.1706 -1.2663 -2.7544
  171MOL0     H23019  10.524   3.679   8.382  1.7230 -0.8738  1.8203
  171MOL0     H23020  10.439   3.739   8.188 -1.7264  0.8522  3.5899
  171MOL0     H23021  10.293   3.829   8.186  1.5261 -3.5645  2.7267
  171MOL0     H23022  10.442   3.843   7.970  0.6922 -2.9059  2.6894
  171MOL0     H23023  10.540   3.959   8.083 -0.1694  1.2353  2.3030
  171MOL0     H23024  10.294   4.048   8.117 -2.3633  1.1021 -1.4908
  171MOL0     H23025  10.257   3.970   7.964  1.3770 -2.9116 -0.5308
  171MOL0     H23026  10.504   4.165   7.985 -0.1501  2.2017 -0.9937
  171MOL0     H23027  10.418   4.100   7.843  0.9507  1.8851  0.0253
  171MOL0     H23028  10.219   4.217   7.927  1.8058 -3.0783 -2.8227
  171MOL0     H23029  10.319   4.298   8.053 -1.7995  0.3120 -0.9993
  171MOL0     H23030  10.448   4.410   7.881  0.4802 -1.1551  0.6453
  171MOL0     H23031  10.347   4.308   7.764  0.7947 -0.6895  1.4713
  171MOL0     H23032  10.269   4.548   7.924 -1.7211 -0.1157  0.2617
  171MOL0     H23033  10.144   4.436   7.858 -0.9639  1.5646 -1.3474
  171MOL0     H23034  10.187   4.525   7.639  1.7908  0.5361 -0.5154
  171MOL0     H23035  10.181   4.655   7.757 -2.3259 -0.3654 -2.5034
  171MOL0     H23036  10.440   4.726   7.863 -0.5398  2.6475  0.6669
  171MOL0     H23037  10.620   4.940   7.659  0.5806  0.9368  1.1980
  171MOL0     H23038  10.664   4.842   7.801  3.6640 -1.9868  0.2600
  171MOL0     H23039  10.787   4.797   7.530  2.3712  0.5782  1.0244
  171MOL0     H23040  10.858   4.869   7.667  1.6478  0.2461 -2.2584
  171MOL0     H23041  10.934   4.647   7.635  0.8790  2.7129  2.2543
  171MOL0     H23042  10.777   4.577   7.639 -1.4725  0.2834 -0.0600
  171MOL0     H23043  10.871   4.525   7.833 -2.3369  0.2971  1.1785
  171MOL0     H23044  10.747   4.641   7.878 -0.4127 -1.7955  1.4147
  171MOL0     H23045  10.909   4.483   8.032  0.2866  1.6863 -2.2534
  171MOL0     H23046  10.946   4.446   8.291  0.5324  1.8013  2.0541
  171MOL0     H23047  11.199   4.542   8.676  0.3088  0.9721 -3.7052
  171MOL0     H23048  11.258   4.566   8.909 -0.0836 -1.5722 -2.6507
  171MOL0     H23049  11.319   4.966   9.058 -1.0469 -0.3014 -2.8857
  171MOL0     H23050  11.156   4.975   9.116  0.8868  1.1499  2.1372
  171MOL0     H23051  11.278   5.013   9.310  1.6697 -0.8061  4.3019
  171MOL0     H23052  11.226   4.847   9.324 -0.3452 -0.0142 -0.0232
  171MOL0     H23053  11.416   4.749   9.278  0.9505 -0.5442 -1.1248
  171MOL0     H23054  11.491   4.893   9.202 -2.6429  1.6550 -1.9676
  171MOL0     H23055  11.463   4.892   9.500  3.1981  1.9966  1.3353
  171MOL0     H23056  11.544   5.004   9.401 -0.5708 -0.3320 -2.0741
  171MOL0     H23057  11.719   4.869   9.358  0.1384 -1.3384 -1.1942
  171MOL0     H23058  11.625   4.716   9.377  4.7029 -2.7867  1.8378
  171MOL0     H23059  11.745   4.891   9.589  1.7377 -1.5556  2.8489
  171MOL0     H23060  11.608   4.774   9.618 -0.3595  0.0366 -0.0746
  171MOL0     H23061  11.880   4.685   9.528 -0.4818  0.1023 -0.0683
  171MOL0     H23062  11.735   4.584   9.566 -0.3669  0.1602 -3.0844
  171MOL0     H23063  11.885   4.794   9.744  0.9682 -0.2093 -1.4681
  171MOL0     H23064  11.767   4.677   9.810  0.2235 -2.9495  0.6766
  171MOL0     H23065  11.122   4.977   8.897  5.1678  2.3003 -1.5241
  171MOL0     H23066  11.086   4.942   8.651 -0.7278 -2.2222 -2.2915
  171MOL0     H23067  11.083   4.856   8.309  0.2121  0.9832 -0.8667
  171MOL0     H23068  11.006   4.896   8.073 -1.7799  0.1583 -1.0067
  171MOL0     H23069  10.290   4.020   8.447 -0.3499 -1.2325 -0.9518
  171MOL0     H23070  10.201   3.925   8.653 -0.3448  2.3451 -2.3984
  171MOL0     H23071   9.930   3.485   8.850 -0.4827  0.4141 -0.3366
  171MOL0     H23072   9.895   3.379   9.041  1.1303  0.3577 -0.9860
  171MOL0     H23073  10.127   3.472   9.412  0.0139 -0.2836 -1.1435
  171MOL0     H23074  10.050   3.319   9.452  1.1384  0.7785  0.0342
  171MOL0     H23075   9.918   3.580   9.402  1.7892  1.0574 -0.0323
  171MOL0     H23076   9.945   3.520   9.556  1.9027  2.7161 -1.9279
  171MOL0     H23077   9.766   3.376   9.559 -0.2615 -0.1760 -1.2235
  171MOL0     H23078   9.800   3.323   9.381 -1.4076 -0.5833 -1.1120
  171MOL0     H23079   9.576   3.466   9.430 -0.6581  0.3053 -0.9673
  171MOL0     H23080   9.698   3.594   9.433  1.1305 -0.1360  0.3211
  171MOL0     H23081   9.657   3.596   9.055  1.2575  3.4267  1.5867
  171MOL0     H23082  10.222   3.539   9.242  0.0420  0.5243 -0.6770
  171MOL0     H23083  10.369   3.702   8.983  1.0828  1.4924 -0.3436
  171MOL0     H23084  10.247   3.835   9.009  2.6824 -0.2454 -1.8208
  171MOL0     H23085  10.327   3.754   9.147 -0.3846  2.5593  0.0461
  172MOL0     O23086   7.419   0.043   7.727 -0.2425  0.0246  0.2107
  172MOL0     C23087   7.369   0.126   7.650 -0.1686 -0.2882  0.2535
  172MOL0     O23088   7.258   0.200   7.681 -0.3796  0.6250  0.3683
  172MOL0     C23089   7.214   0.213   7.810  0.7691  0.8328 -0.1804
  172MOL0     C23090   7.079   0.195   7.823  0.6299  0.9242 -0.2398
  172MOL0     C23091   7.010   0.219   7.942  0.6274  0.2229  0.0874
  172MOL0     C23092   7.077   0.266   8.054  0.6937 -0.3548  0.0609
  172MOL0     O23093   6.999   0.283   8.160  0.7399  0.1598 -0.7418
  172MOL0     C23094   7.043   0.309   8.293  0.5099 -0.5057  0.2452
  172MOL0     C23095   6.957   0.394   8.371  0.1307 -0.0894  0.0250
  172MOL0     C23096   6.815   0.334   8.379 -0.5910 -0.0754  0.2034
  172MOL0     C23097   6.726   0.398   8.485  1.2641 -0.0093  0.1456
  172MOL0     C23098   6.591   0.312   8.485 -0.6494 -0.8741  0.4285
  172MOL0     C23099   6.506   0.364   8.598  0.3636 -0.0375 -0.4881
  172MOL0     C23100   6.368   0.296   8.586  0.1562  0.0614  0.7242
  172MOL0     C23101   6.282   0.335   8.711  1.2275  0.2966 -0.1281
  172MOL0     N23102   6.140   0.287   8.724  0.1194 -0.2123 -0.4559
  172MOL0     C23103   6.055   0.285   8.618  0.8358 -0.3100  0.1971
  172MOL0     C23104   5.956   0.217   8.664  0.2900 -0.1981  0.5436
  172MOL0     C23105   5.826   0.214   8.582  0.0367  0.6236  0.0766
  172MOL0     C23106   5.814   0.077   8.504 -0.5941 -0.0407  0.0656
  172MOL0     C23107   5.755  -0.050   8.569 -0.4419 -0.0398 -0.5601
  172MOL0     C23108   5.838  -0.090   8.693  0.8257  0.0604  0.1494
  172MOL0     O23109   5.797  -0.224   8.722 -0.5867 -0.2075 -0.0752
  172MOL0     C23110   5.884  -0.296   8.797  0.2191  0.1610 -0.4378
  172MOL0     C23111   5.968  -0.256   8.900 -0.1244 -0.0586 -0.6625
  172MOL0     C23112   6.050  -0.341   8.975  0.4692 -0.5783 -0.9220
  172MOL0     C23113   6.050  -0.478   8.951  0.1589 -0.1116 -0.4117
  172MOL0     C23114   6.136  -0.567   9.040 -0.0641 -0.7431  1.0680
  172MOL0     O23115   6.196  -0.510   9.149 -0.2692  0.0998  0.0432
  172MOL0     C23116   6.289  -0.577   9.226 -0.3550 -0.9416  0.2750
  172MOL0     C23117   6.355  -0.698   9.211  0.2124 -0.1255 -0.8213
  172MOL0     C23118   6.457  -0.739   9.299 -0.3934 -0.1120 -0.0660
  172MOL0     C23119   6.490  -0.664   9.422 -0.6534 -0.4443  0.2600
  172MOL0     O23120   6.573  -0.703   9.521 -0.7188 -0.1377 -0.3061
  172MOL0     C23121   6.674  -0.809   9.491  0.1625  0.0144 -0.6351
  172MOL0     C23122   6.627  -0.936   9.566  0.2702 -0.4542 -0.5796
  172MOL0     C23123   6.689  -0.927   9.717 -0.9756 -0.0230  1.0707
  172MOL0     C23124   6.645  -1.043   9.804  0.5959  0.8833 -0.1388
  172MOL0     C23125   6.730  -1.062   9.929  0.3752 -0.9137  0.5996
  172MOL0     C23126   6.725  -0.948  10.025  0.3347 -0.0168  0.4606
  172MOL0     C23127   6.783  -0.989  10.154  0.3380 -0.0817  0.6980
  172MOL0     C23128   6.783  -0.878  10.261 -0.1692 -0.8392 -0.4441
  172MOL0    Cl23129   6.647  -0.764  10.262  0.5901 -0.1315 -0.3852
  172MOL0     C23130   6.419  -0.547   9.438  0.7356 -0.4542  0.2226
  172MOL0     C23131   6.320  -0.512   9.344  0.7661  0.1560  0.3796
  172MOL0     O23132   6.142  -0.679   9.006 -0.0569 -0.1899  0.7680
  172MOL0     C23133   5.968  -0.527   8.851  0.3057  0.1030 -0.0132
  172MOL0     C23134   5.889  -0.442   8.768 -0.0851  0.0078 -1.2551
  172MOL0     N23135   5.972   0.176   8.796  0.4227  0.0151 -0.4348
  172MOL0     N23136   6.088   0.209   8.824 -0.4000  0.1267 -0.4877
  172MOL0     C23137   7.216   0.275   8.040 -0.4597  0.2099  0.1877
  172MOL0     C23138   7.287   0.244   7.919 -0.4801 -0.4571  0.0687
  172MOL0     C23139   7.407   0.127   7.500 -0.5318  0.0510 -0.6609
  172MOL0     C23140   7.302   0.153   7.411 -0.2635 -0.0588 -0.3216
  172MOL0     C23141   7.317   0.140   7.277 -0.4495 -0.5066 -0.1340
  172MOL0     C23142   7.437   0.100   7.227 -0.1744 -0.6448  0.5484
  172MOL0     O23143   7.440   0.045   7.099  0.8136 -0.5198 -0.0073
  172MOL0     C23144   7.472  -0.098   7.097  0.1252  0.5218  0.2838
  172MOL0     C23145   7.610  -0.141   7.063  0.1689  0.1719  0.2221
  172MOL0     C23146   7.660  -0.076   6.939  1.0686 -0.0942  0.3697
  172MOL0     C23147   7.789  -0.116   6.884  0.4208 -0.9749 -0.9368
  172MOL0     C23148   7.912  -0.109   6.964  0.2307 -0.0691  0.0753
  172MOL0     C23149   8.020  -0.095   7.023  0.2408 -1.8156 -0.3568
  172MOL0     C23150   7.552   0.098   7.310  0.8204 -0.6616  1.1141
  172MOL0     C23151   7.535   0.110   7.447 -0.9753 -0.0071  0.1720
  172MOL0     C23152   7.657   0.107   7.540 -0.3963  0.5182  0.1278
  172MOL0     H23153   7.024   0.150   7.741  3.7001 -1.9569 -0.9216
  172MOL0     H23154   6.905   0.195   7.956  0.6303 -0.4365 -0.9310
  172MOL0     H23155   7.034   0.213   8.343 -1.5553  0.5084  1.9576
  172MOL0     H23156   7.149   0.335   8.298  0.4253 -0.1614  0.2608
  172MOL0     H23157   6.952   0.496   8.333  0.5820 -0.4314 -0.9804
  172MOL0     H23158   6.996   0.385   8.473 -1.6837 -1.4650  0.6509
  172MOL0     H23159   6.828   0.233   8.420  1.0719  0.8566  2.2206
  172MOL0     H23160   6.765   0.333   8.282 -1.6145  0.4396  0.7081
  172MOL0     H23161   6.775   0.385   8.582 -0.5457  3.1823  1.6542
  172MOL0     H23162   6.702   0.504   8.467  0.4946 -0.3947 -1.2385
  172MOL0     H23163   6.538   0.323   8.390 -0.2864 -0.5519  0.2581
  172MOL0     H23164   6.607   0.206   8.506  0.9187 -0.2776  2.6152
  172MOL0     H23165   6.547   0.346   8.698  2.7202  2.9688 -0.7380
  172MOL0     H23166   6.490   0.472   8.584  0.4090  0.0167 -0.1224
  172MOL0     H23167   6.378   0.187   8.587 -0.7543 -0.0829  3.7239
  172MOL0     H23168   6.326   0.329   8.490  3.9222 -1.0416 -1.5142
  172MOL0     H23169   6.341   0.304   8.797 -1.9073 -2.7428  1.1654
  172MOL0     H23170   6.270   0.444   8.715  2.1258  0.3604  1.2919
  172MOL0     H23171   6.062   0.339   8.524 -1.0786  0.1923  0.3103
  172MOL0     H23172   5.748   0.236   8.655  0.9551 -0.1948  1.3461
  172MOL0     H23173   5.821   0.301   8.515 -2.6052 -0.2037 -0.9128
  172MOL0     H23174   5.756   0.114   8.420 -1.6674 -0.0441  0.7774
  172MOL0     H23175   5.907   0.051   8.453  0.9417  4.9737 -0.1705
  172MOL0     H23176   5.748  -0.133   8.498  1.6865 -0.3040 -0.5338
  172MOL0     H23177   5.658  -0.018   8.607 -0.1452  0.0331  0.1612
  172MOL0     H23178   5.827  -0.028   8.782  1.9797 -1.4722  1.4162
  172MOL0     H23179   5.940  -0.087   8.652 -0.7564  1.6268 -4.3318
  172MOL0     H23180   5.970  -0.151   8.929  0.4752  0.2700 -1.8044
  172MOL0     H23181   6.118  -0.293   9.045  1.0737 -0.6002 -1.4800
  172MOL0     H23182   6.328  -0.756   9.124 -2.6121 -2.3450  1.3412
  172MOL0     H23183   6.496  -0.838   9.277 -1.4701 -0.5211 -0.2042
  172MOL0     H23184   6.676  -0.838   9.386 -0.7347 -0.0862 -0.6269
  172MOL0     H23185   6.777  -0.790   9.523 -0.1048 -0.9848  0.8928
  172MOL0     H23186   6.519  -0.953   9.572  0.1405 -0.5464 -2.5243
  172MOL0     H23187   6.669  -1.021   9.512 -1.2965 -2.1815  0.7677
  172MOL0     H23188   6.797  -0.931   9.702 -1.3849 -0.7424 -2.6105
  172MOL0     H23189   6.665  -0.835   9.771 -3.3875 -0.7950  1.4223
  172MOL0     H23190   6.664  -1.134   9.746 -2.7778 -0.4289  0.5991
  172MOL0     H23191   6.538  -1.040   9.825  1.1640  2.2928  3.1558
  172MOL0     H23192   6.834  -1.085   9.901 -0.1428 -0.7971 -1.5905
  172MOL0     H23193   6.690  -1.141   9.994 -1.7339 -0.0748  0.3903
  172MOL0     H23194   6.774  -0.861   9.980 -2.8800  1.1891 -0.9548
  172MOL0     H23195   6.621  -0.921  10.044 -1.2955 -4.6611 -0.5070
  172MOL0     H23196   6.887  -1.021  10.149  1.6106  3.4253  1.6008
  172MOL0     H23197   6.717  -1.066  10.195  0.0609  0.5643  1.4955
  172MOL0     H23198   6.794  -0.927  10.358  1.3061 -0.2208 -0.2676
  172MOL0     H23199   6.875  -0.820  10.246  1.1489 -2.7267 -0.0521
  172MOL0     H23200   6.447  -0.479   9.518 -1.7032 -1.6326  2.1883
  172MOL0     H23201   6.271  -0.416   9.360  0.1913 -0.3043  1.5217
  172MOL0     H23202   5.971  -0.634   8.837  0.0120 -0.3668  3.0185
  172MOL0     H23203   5.821  -0.472   8.689 -0.2979  0.8512 -1.4058
  172MOL0     H23204   7.274   0.313   8.123 -1.1748 -0.6929  1.1318
  172MOL0     H23205   7.396   0.247   7.913 -0.3893 -2.9897 -0.6701
  172MOL0     H23206   7.211   0.189   7.457 -0.2088  0.8237 -0.8843
  172MOL0     H23207   7.229   0.154   7.215 -0.6844 -0.1396  0.2763
  172MOL0     H23208   7.394  -0.131   7.028  0.4836  0.8212 -0.2694
  172MOL0     H23209   7.451  -0.147   7.193 -2.0017 -0.3234 -0.5517
  172MOL0     H23210   7.624  -0.249   7.060  3.8073  0.4281  2.4227
  172MOL0     H23211   7.667  -0.098   7.145  0.3423 -1.1346  0.8081
  172MOL0     H23212   7.658   0.032   6.952 -3.3515 -0.1047  1.5660
  172MOL0     H23213   7.590  -0.091   6.855  0.3215  0.0703  0.9497
  172MOL0     H23214   7.773  -0.215   6.841  1.6527 -0.8101 -1.8375
  172MOL0     H23215   7.798  -0.055   6.794 -0.2731  3.8214  1.9011
  172MOL0     H23216   8.118  -0.077   7.063 -0.4712  1.4645  0.1941
  172MOL0     H23217   7.648   0.100   7.261 -0.0938  1.4062 -0.7642
  172MOL0     H23218   7.659   0.014   7.598 -1.3492  1.0406  1.0343
  172MOL0     H23219   7.744   0.120   7.475  0.6623  0.0875  1.4107
  172MOL0     H23220   7.633   0.190   7.607 -1.7971  0.9554 -0.8642
  173MOL0     O23221   4.704   5.021   6.594  0.0820 -0.5409  0.3679
  173MOL0     C23222   4.740   5.099   6.683  0.2350  0.0888 -0.0867
  173MOL0     O23223   4.737   5.073   6.815  0.2695 -0.0617 -0.2394
  173MOL0     C23224   4.731   4.951   6.870  0.2431 -0.7715 -0.7272
  173MOL0     C23225   4.667   4.947   6.998 -0.6445  0.5911 -0.5808
  173MOL0     C23226   4.650   4.815   7.060 -1.1008  0.3881  0.3575
  173MOL0     C23227   4.691   4.700   6.993 -0.2164 -0.4366  0.0341
  173MOL0     O23228   4.655   4.583   7.043  0.7510 -0.0166  0.2120
  173MOL0     C23229   4.735   4.464   7.042 -0.9650 -0.3672  0.3744
  173MOL0     C23230   4.678   4.355   7.127  0.0021 -0.6264  0.3278
  173MOL0     C23231   4.645   4.396   7.276  0.1098  0.0649 -0.1837
  173MOL0     C23232   4.751   4.355   7.386 -0.4196 -0.5298  0.3631
  173MOL0     C23233   4.695   4.395   7.527  0.1777 -0.3456  0.1118
  173MOL0     C23234   4.776   4.368   7.652  0.5655 -0.0856 -0.3365
  173MOL0     C23235   4.694   4.414   7.771  0.3052 -0.5274  0.5718
  173MOL0     C23236   4.752   4.385   7.915 -0.5143 -0.2825  0.3287
  173MOL0     N23237   4.749   4.241   7.947  0.1727 -0.0778  0.4362
  173MOL0     C23238   4.847   4.160   7.917 -0.7543  0.0564 -0.5644
  173MOL0     C23239   4.831   4.049   7.991  0.2679 -0.0655 -0.6064
  173MOL0     C23240   4.921   3.935   7.995 -0.5161 -0.5737  0.1230
  173MOL0     C23241   5.000   3.925   8.128  0.9589  0.2362 -0.1129
  173MOL0     C23242   5.117   3.830   8.116 -0.1844  0.9628 -0.1384
  173MOL0     C23243   5.060   3.684   8.101 -0.2182  1.3310  0.0182
  173MOL0     O23244   5.130   3.569   8.167  0.2567 -0.0727 -0.8729
  173MOL0     C23245   5.255   3.524   8.133 -0.5822  0.3334 -0.9049
  173MOL0     C23246   5.317   3.429   8.219 -0.4684 -0.1657  0.8555
  173MOL0     C23247   5.445   3.378   8.188  0.9042  1.2358  0.2518
  173MOL0     C23248   5.513   3.409   8.072 -0.9099 -1.2545  0.1685
  173MOL0     C23249   5.661   3.373   8.055 -0.4392  1.1468 -0.6277
  173MOL0     O23250   5.727   3.316   8.167  0.1148 -0.0092  0.5618
  173MOL0     C23251   5.865   3.297   8.150 -0.2356 -0.9882  0.4246
  173MOL0     C23252   5.951   3.400   8.185  0.5764 -0.7681 -0.7238
  173MOL0     C23253   6.089   3.395   8.177 -0.6169  0.2049 -0.6254
  173MOL0     C23254   6.154   3.281   8.125 -0.4163 -0.2558 -0.9842
  173MOL0     O23255   6.290   3.274   8.093 -0.0574  0.6248  0.0424
  173MOL0     C23256   6.375   3.382   8.131 -0.0059 -0.4744  0.0542
  173MOL0     C23257   6.503   3.361   8.055  0.0981 -0.8089  0.6498
  173MOL0     C23258   6.599   3.480   8.078 -0.5465 -0.0636 -0.1098
  173MOL0     C23259   6.638   3.471   8.230  0.1231  0.4478 -0.5466
  173MOL0     C23260   6.748   3.575   8.247 -0.9841 -0.9719  0.2874
  173MOL0     C23261   6.899   3.546   8.211  0.1838  0.3306 -0.0698
  173MOL0     C23262   7.000   3.663   8.236  0.7603  0.6982  0.1106
  173MOL0     C23263   7.136   3.647   8.165  0.2041 -0.3921 -0.5165
  173MOL0    Cl23264   7.258   3.755   8.212  0.2502 -0.5241 -0.0598
  173MOL0     C23265   6.065   3.175   8.080 -0.3876  0.9595 -0.4187
  173MOL0     C23266   5.929   3.182   8.096 -0.2569 -0.0860  0.1548
  173MOL0     O23267   5.709   3.383   7.938  0.2065  0.3694  0.0626
  173MOL0     C23268   5.458   3.498   7.981  0.5897  0.1245 -0.0668
  173MOL0     C23269   5.325   3.554   8.012 -0.2845 -0.2689 -0.2430
  173MOL0     N23270   4.726   4.065   8.078 -0.5096 -0.6508 -0.1464
  173MOL0     N23271   4.665   4.181   8.039 -0.5757 -0.4553  0.5035
  173MOL0     C23272   4.761   4.711   6.874  0.1842 -1.2191 -0.6959
  173MOL0     C23273   4.780   4.836   6.807  0.1269  0.8458 -0.6239
  173MOL0     C23274   4.767   5.236   6.631  0.4282 -0.8408 -0.8372
  173MOL0     C23275   4.740   5.336   6.719 -0.4150  0.8893  0.2362
  173MOL0     C23276   4.769   5.469   6.682  0.4570 -0.0601  0.5727
  173MOL0     C23277   4.810   5.506   6.553  0.3095 -0.8911 -0.5475
  173MOL0     O23278   4.840   5.638   6.542 -0.6147  0.5781  0.1691
  173MOL0     C23279   4.870   5.703   6.416  0.5522  0.6194  0.4686
  173MOL0     C23280   4.747   5.724   6.335 -0.0417 -0.3688  0.1075
  173MOL0     C23281   4.774   5.752   6.189 -0.2786 -0.1986 -0.5543
  173MOL0     C23282   4.666   5.691   6.107  1.0757  0.1870  0.2258
  173MOL0     C23283   4.707   5.672   5.961  0.3707  1.0019 -0.9309
  173MOL0     C23284   4.727   5.654   5.845  0.5726  0.0622 -1.0544
  173MOL0     C23285   4.821   5.408   6.461  0.8542  0.5905  0.7032
  173MOL0     C23286   4.809   5.276   6.505 -0.1261 -0.1053 -0.0972
  173MOL0     C23287   4.853   5.177   6.401  0.5499 -0.7790  0.6380
  173MOL0     H23288   4.628   5.034   7.050 -1.8616 -1.0199  1.3385
  173MOL0     H23289   4.602   4.809   7.157 -0.3586 -1.0623  0.6634
  173MOL0     H23290   4.753   4.429   6.939  4.6366 -0.6149  1.1212
  173MOL0     H23291   4.831   4.504   7.074  0.4550 -0.6480 -3.0842
  173MOL0     H23292   4.735   4.265   7.101  1.9540  0.3939  0.9279
  173MOL0     H23293   4.581   4.330   7.082  0.1358 -1.2471  0.3767
  173MOL0     H23294   4.548   4.348   7.296  0.6051 -1.4006 -1.1482
  173MOL0     H23295   4.628   4.504   7.285  0.1225  0.1440 -1.1079
  173MOL0     H23296   4.768   4.247   7.375  2.6335 -0.0664 -0.3341
  173MOL0     H23297   4.848   4.402   7.374  0.1119 -0.1795  4.6971
  173MOL0     H23298   4.699   4.504   7.534  1.5984 -0.4382  1.4848
  173MOL0     H23299   4.592   4.363   7.543  1.5877 -6.1164 -0.0907
  173MOL0     H23300   4.792   4.260   7.658  3.6279  0.2699 -0.1176
  173MOL0     H23301   4.868   4.427   7.642  0.3266  0.0444 -1.9300
  173MOL0     H23302   4.600   4.359   7.768 -1.0609  1.6981 -3.0686
  173MOL0     H23303   4.664   4.519   7.761  0.6523 -0.2997  1.7269
  173MOL0     H23304   4.855   4.423   7.921 -1.0890  1.7952 -1.6909
  173MOL0     H23305   4.700   4.444   7.991 -3.3823 -0.4894 -1.3380
  173MOL0     H23306   4.929   4.188   7.852  3.2344 -4.4627  1.8137
  173MOL0     H23307   4.863   3.843   7.984 -0.4212 -0.5012 -1.0680
  173MOL0     H23308   4.995   3.941   7.914 -0.0702  1.0877  0.6146
  173MOL0     H23309   5.050   4.021   8.143  0.9846 -0.0204  1.6302
  173MOL0     H23310   4.931   3.911   8.211 -0.2613 -0.6985 -1.2426
  173MOL0     H23311   5.180   3.829   8.205  0.7135 -2.3253 -0.6667
  173MOL0     H23312   5.170   3.857   8.024  0.1805  0.4815 -0.0772
  173MOL0     H23313   5.065   3.655   7.996  3.1964  1.2627  0.0611
  173MOL0     H23314   4.959   3.679   8.142 -1.8846 -4.8050 -3.6176
  173MOL0     H23315   5.255   3.401   8.304  2.7413 -2.5543  2.6432
  173MOL0     H23316   5.487   3.317   8.268 -2.8150  0.6169  1.9500
  173MOL0     H23317   5.908   3.489   8.228 -0.3470 -1.9648  0.9502
  173MOL0     H23318   6.144   3.484   8.207 -1.1620  0.7546 -1.2203
  173MOL0     H23319   6.340   3.476   8.087 -1.6556 -0.2671  1.6917
  173MOL0     H23320   6.370   3.406   8.237 -1.2564 -0.0530 -0.0742
  173MOL0     H23321   6.556   3.276   8.098 -1.2405 -1.5715  0.8681
  173MOL0     H23322   6.489   3.350   7.947  1.9821 -0.2078  0.3208
  173MOL0     H23323   6.688   3.460   8.018 -1.5414  0.0443 -1.6899
  173MOL0     H23324   6.551   3.571   8.041  0.0696 -0.7536 -2.8317
  173MOL0     H23325   6.680   3.374   8.259  0.6368  1.1311  1.1564
  173MOL0     H23326   6.550   3.491   8.292  0.3328 -2.7595  0.9914
  173MOL0     H23327   6.746   3.606   8.352  3.8970 -1.4108  0.7381
  173MOL0     H23328   6.730   3.672   8.199 -5.2459 -1.6341  0.2072
  173MOL0     H23329   6.928   3.451   8.255  0.5210  0.2708 -0.4172
  173MOL0     H23330   6.911   3.535   8.102 -0.0647 -0.2661 -0.0409
  173MOL0     H23331   7.014   3.673   8.344 -1.8854 -1.0924  0.7049
  173MOL0     H23332   6.948   3.751   8.197  1.9947  0.7679 -1.5049
  173MOL0     H23333   7.161   3.546   8.196 -0.0756  0.7665  4.1894
  173MOL0     H23334   7.121   3.667   8.058  3.5537  5.5385 -0.3538
  173MOL0     H23335   6.112   3.090   8.032  1.6206  0.6076  1.9882
  173MOL0     H23336   5.871   3.102   8.051 -1.1842 -1.5550  3.5927
  173MOL0     H23337   5.517   3.530   7.896 -0.0665  2.6483  0.3306
  173MOL0     H23338   5.286   3.628   7.942  3.2594  3.4520  1.2893
  173MOL0     H23339   4.795   4.620   6.826 -1.4787 -2.1552 -0.1765
  173MOL0     H23340   4.841   4.838   6.717  0.8974 -1.1556 -0.1953
  173MOL0     H23341   4.708   5.321   6.822  2.1345  1.5075  1.2156
  173MOL0     H23342   4.768   5.551   6.753  2.9650  1.9334 -1.4791
  173MOL0     H23343   4.938   5.643   6.354 -0.9671  0.0855 -0.7519
  173MOL0     H23344   4.925   5.798   6.422  1.7291  0.1314 -1.4901
  173MOL0     H23345   4.690   5.813   6.366 -0.2549 -0.0233 -1.2097
  173MOL0     H23346   4.685   5.637   6.359 -0.1223  0.1751  2.1012
  173MOL0     H23347   4.867   5.703   6.157 -1.3522 -0.0287 -4.3433
  173MOL0     H23348   4.789   5.857   6.163  0.8728  0.5327  2.5649
  173MOL0     H23349   4.643   5.594   6.152  0.9237 -0.6785 -1.6320
  173MOL0     H23350   4.578   5.752   6.127  0.4372 -1.9672  5.8006
  173MOL0     H23351   4.741   5.636   5.740 -2.5853 -2.9746 -1.1366
  173MOL0     H23352   4.848   5.411   6.356  0.0432 -1.0958  0.4253
  173MOL0     H23353   4.890   5.090   6.456 -1.9487 -1.0267  2.0732
  173MOL0     H23354   4.767   5.153   6.337  1.1868  0.6050 -0.8202
  173MOL0     H23355   4.936   5.215   6.340  1.7810 -6.3324 -1.7565
  174MOL0     O23356   5.050  10.921  10.584 -0.4880  0.9203  1.0981
  174MOL0     C23357   4.952  10.901  10.511  0.1119 -0.1877  0.4735
  174MOL0     O23358   4.888  10.991  10.429  1.0511 -0.3596  0.5350
  174MOL0     C23359   4.946  11.113  10.420  0.7097 -0.0315 -0.3546
  174MOL0     C23360   5.043  11.142  10.333  0.3412 -0.3710 -0.1806
  174MOL0     C23361   5.104  11.273  10.345 -0.1547  0.6067  0.6032
  174MOL0     C23362   5.054  11.365  10.440 -0.2066 -0.4424  0.7275
  174MOL0     O23363   5.127  11.474  10.458 -0.5473  0.4636 -0.3427
  174MOL0     C23364   5.123  11.577  10.560  0.5184  0.1404 -0.2285
  174MOL0     C23365   5.240  11.679  10.545  0.3449  0.2378  0.2907
  174MOL0     C23366   5.264  11.756  10.677 -0.3844 -1.1236  0.1320
  174MOL0     C23367   5.355  11.874  10.663  0.2766 -0.3638  0.0917
  174MOL0     C23368   5.292  12.008  10.658  0.6295 -0.2294  0.5844
  174MOL0     C23369   5.190  12.054  10.540 -0.2729  0.1473  0.0140
  174MOL0     C23370   5.205  12.211  10.512 -0.0307 -0.2193 -0.2662
  174MOL0     C23371   5.077  12.251  10.435 -0.0388 -1.0331 -0.0725
  174MOL0     N23372   5.087  12.399  10.407  0.1683 -0.0061  0.3451
  174MOL0     C23373   5.180  12.456  10.324  0.1524  0.6231  1.1398
  174MOL0     C23374   5.151  12.582  10.316 -0.1232 -0.7082  1.0120
  174MOL0     C23375   5.225  12.690  10.231  0.2042 -0.1244 -0.5445
  174MOL0     C23376   5.143  12.721  10.102  0.4353  0.6862 -0.9294
  174MOL0     C23377   5.189  12.841  10.020 -0.6538  0.9899  0.7370
  174MOL0     C23378   5.277  12.798   9.892  0.0516 -1.1845 -0.0049
  174MOL0     O23379   5.288  12.900   9.797  0.7016 -0.3147  0.1493
  174MOL0     C23380   5.402  12.966   9.806 -0.3005 -0.2601  0.4782
  174MOL0     C23381   5.472  12.976   9.688 -0.7984  0.8335  0.5328
  174MOL0     C23382   5.593  13.049   9.675  0.6539 -0.1445  0.5426
  174MOL0     C23383   5.648  13.112   9.786  0.2510  0.0235 -0.7685
  174MOL0     C23384   5.772  13.200   9.773  0.7425  0.6141 -0.3541
  174MOL0     O23385   5.818  13.233   9.645 -0.2345  0.2410  0.2372
  174MOL0     C23386   5.943  13.296   9.630  0.3842  0.3266  1.1940
  174MOL0     C23387   6.054  13.245   9.696 -0.7522 -0.1862  0.4082
  174MOL0     C23388   6.183  13.299   9.683 -0.4886  0.5212  0.3224
  174MOL0     C23389   6.203  13.417   9.619  0.1225 -0.0814  0.4539
  174MOL0     O23390   6.331  13.473   9.618 -0.6517 -0.4232 -0.0017
  174MOL0     C23391   6.352  13.581   9.532 -0.6290 -0.4036 -0.0045
  174MOL0     C23392   6.509  13.563   9.502  0.0879 -0.2010  0.7525
  174MOL0     C23393   6.564  13.620   9.371  1.2544 -0.3641  0.0557
  174MOL0     C23394   6.716  13.593   9.351 -0.2612  0.2438  0.6604
  174MOL0     C23395   6.778  13.681   9.246 -0.3272  0.5445 -0.4666
  174MOL0     C23396   6.930  13.676   9.249  0.4592  0.0339  0.2000
  174MOL0     C23397   6.984  13.811   9.217  0.4034 -0.2453 -0.1891
  174MOL0     C23398   7.127  13.819   9.246  0.4169 -0.0754 -0.2612
  174MOL0    Cl23399   7.199  13.958   9.164 -0.3282 -0.2366 -0.0663
  174MOL0     C23400   6.085  13.463   9.554  1.6038 -0.8894  0.0286
  174MOL0     C23401   5.959  13.403   9.554  0.2659 -0.9382  0.1951
  174MOL0     O23402   5.814  13.248   9.874  0.2012 -0.0444 -0.3256
  174MOL0     C23403   5.584  13.088   9.914 -0.4393 -0.4709  0.1327
  174MOL0     C23404   5.463  13.015   9.918  0.3289 -0.1177 -0.0418
  174MOL0     N23405   5.052  12.610  10.400 -0.5452  0.0052 -0.3160
  174MOL0     N23406   5.019  12.500  10.463  0.4416 -0.6724 -0.2785
  174MOL0     C23407   4.953  11.326  10.529  0.6252 -0.2129  0.3916
  174MOL0     C23408   4.893  11.204  10.517 -0.0016  0.1901  0.2301
  174MOL0     C23409   4.903  10.763  10.492 -0.1430 -0.3918  0.4481
  174MOL0     C23410   4.842  10.703  10.600 -0.2132 -0.1537 -0.0901
  174MOL0     C23411   4.781  10.578  10.587 -0.0449 -0.0929  0.9889
  174MOL0     C23412   4.763  10.511  10.461  0.5497  0.8018 -0.5948
  174MOL0     O23413   4.683  10.395  10.438  0.1954  0.4646  0.0407
  174MOL0     C23414   4.661  10.316  10.561 -0.7781 -0.5143  0.2255
  174MOL0     C23415   4.586  10.190  10.531 -0.5545  0.0734  0.1632
  174MOL0     C23416   4.683  10.088  10.470 -0.7932 -0.2414  0.6781
  174MOL0     C23417   4.612   9.957  10.431  0.5266 -0.1287 -0.4525
  174MOL0     C23418   4.492   9.976  10.349 -0.4055  0.2769  1.5056
  174MOL0     C23419   4.387  10.003  10.287  0.5026 -1.1166  1.2988
  174MOL0     C23420   4.813  10.576  10.346  0.0655 -0.7971 -0.3262
  174MOL0     C23421   4.897  10.696  10.363  0.4896  0.2668 -1.1696
  174MOL0     C23422   4.947  10.750  10.231  0.3331  0.2159 -0.1181
  174MOL0     H23423   5.071  11.071  10.255  2.0677 -0.7595  0.7547
  174MOL0     H23424   5.194  11.282  10.284 -1.1460 -4.0977 -2.0670
  174MOL0     H23425   5.027  11.629  10.566  1.4000  1.6961  1.3698
  174MOL0     H23426   5.151  11.535  10.657  3.2209  0.5513 -0.7535
  174MOL0     H23427   5.220  11.745  10.460 -0.2672 -2.0968 -1.4816
  174MOL0     H23428   5.331  11.630  10.509  1.7189  0.6342  2.9628
  174MOL0     H23429   5.310  11.696  10.757  1.0838  1.9085  1.7400
  174MOL0     H23430   5.163  11.791  10.700 -0.3254 -0.3122 -0.7901
  174MOL0     H23431   5.429  11.872  10.743  0.6496 -4.5864 -0.1340
  174MOL0     H23432   5.417  11.864  10.573  0.7572  2.3118  0.0388
  174MOL0     H23433   5.266  12.037  10.760  2.4602  3.3495  0.2051
  174MOL0     H23434   5.374  12.079  10.642  1.3102 -1.0310  0.4419
  174MOL0     H23435   5.227  11.999  10.453  2.3544 -1.3581  1.9796
  174MOL0     H23436   5.087  12.020  10.557  0.4185 -1.6280  0.7815
  174MOL0     H23437   5.288  12.249  10.453 -0.6502  1.8717  0.1371
  174MOL0     H23438   5.192  12.259  10.609 -2.8677  1.9720 -1.5792
  174MOL0     H23439   5.078  12.207  10.335  3.5553  4.7640 -3.1571
  174MOL0     H23440   4.992  12.219  10.496  2.1678  0.6182  4.2847
  174MOL0     H23441   5.259  12.410  10.265 -3.1093 -3.6020 -0.3944
  174MOL0     H23442   5.241  12.780  10.290 -1.0129 -0.2859  0.0655
  174MOL0     H23443   5.323  12.659  10.195  2.2836  1.7474  2.9736
  174MOL0     H23444   5.126  12.635  10.036 -0.1656 -0.0745  0.1998
  174MOL0     H23445   5.041  12.744  10.133  1.4363  0.9061  2.6448
  174MOL0     H23446   5.258  12.904  10.077  1.1958  2.2389 -2.5782
  174MOL0     H23447   5.110  12.911   9.990  0.8201  1.5635 -2.1821
  174MOL0     H23448   5.226  12.714   9.844  0.4111 -1.1682 -0.4228
  174MOL0     H23449   5.369  12.753   9.933 -0.8893 -2.3301  0.9214
  174MOL0     H23450   5.451  12.911   9.604  7.5593 -0.5312 -1.3773
  174MOL0     H23451   5.630  13.051   9.573  1.4647  0.1109  0.8332
  174MOL0     H23452   6.043  13.155   9.755  1.8298  0.1390  1.4846
  174MOL0     H23453   6.262  13.255   9.743  0.1825 -1.1930 -1.7204
  174MOL0     H23454   6.299  13.573   9.437  2.7533 -0.4023 -2.0706
  174MOL0     H23455   6.334  13.680   9.575  2.7194 -0.0535  0.9236
  174MOL0     H23456   6.552  13.626   9.581 -0.3679  0.3246  0.5867
  174MOL0     H23457   6.543  13.460   9.519 -0.5002 -1.1649 -3.0212
  174MOL0     H23458   6.506  13.579   9.287 -1.1606  3.2866 -0.2819
  174MOL0     H23459   6.551  13.728   9.378 -0.3824 -0.6445  2.7584
  174MOL0     H23460   6.730  13.487   9.329  0.8032  0.6180 -0.5585
  174MOL0     H23461   6.780  13.624   9.435  1.2838 -2.0800  0.4330
  174MOL0     H23462   6.735  13.777   9.274 -0.4543  0.9589 -1.9800
  174MOL0     H23463   6.737  13.655   9.148 -0.5498 -1.3018  0.0958
  174MOL0     H23464   6.967  13.634   9.343  1.3176  0.1968 -0.0547
  174MOL0     H23465   6.970  13.611   9.171  4.2112  1.7194  0.5003
  174MOL0     H23466   6.931  13.886   9.276 -4.0480 -0.8683 -2.9488
  174MOL0     H23467   6.965  13.838   9.113  0.5483 -0.4222 -0.2644
  174MOL0     H23468   7.148  13.815   9.353 -2.3113 -1.7721  0.2883
  174MOL0     H23469   7.191  13.739   9.208  3.1372  0.4019  2.8880
  174MOL0     H23470   6.098  13.556   9.499 -0.5755 -2.4381 -3.4490
  174MOL0     H23471   5.869  13.444   9.511  0.3657 -1.3307 -0.4001
  174MOL0     H23472   5.631  13.109  10.010  2.4206 -3.0488 -0.5563
  174MOL0     H23473   5.428  12.994  10.019 -1.3995 -0.4964 -0.6806
  174MOL0     H23474   4.912  11.396  10.601 -1.5055  0.3217 -1.2505
  174MOL0     H23475   4.813  11.173  10.582  0.1917  2.3022  1.5663
  174MOL0     H23476   4.870  10.748  10.694  1.1888 -0.3389 -0.3952
  174MOL0     H23477   4.744  10.540  10.682 -0.9767  1.8199  1.4369
  174MOL0     H23478   4.607  10.369  10.640 -0.1285  0.4624  0.0267
  174MOL0     H23479   4.755  10.286  10.608  0.1572  0.3694 -1.0250
  174MOL0     H23480   4.507  10.211  10.458 -3.4595 -1.5431  2.6260
  174MOL0     H23481   4.536  10.147  10.618  1.7388 -0.7733  1.1425
  174MOL0     H23482   4.772  10.072  10.532  0.5886  2.4397 -0.4397
  174MOL0     H23483   4.713  10.127  10.372  1.7964 -1.6997  0.7978
  174MOL0     H23484   4.693   9.898  10.387  0.9836 -0.5536  0.9006
  174MOL0     H23485   4.576   9.911  10.523  0.7632 -1.1085 -0.8393
  174MOL0     H23486   4.293  10.002  10.235  1.4028 -1.5251 -0.3947
  174MOL0     H23487   4.803  10.528  10.250  3.3664 -2.4027 -0.0109
  174MOL0     H23488   5.002  10.664  10.193  1.2097  0.2309  1.0675
  174MOL0     H23489   4.859  10.770  10.168  0.4234  1.8136  0.2072
  174MOL0     H23490   5.015  10.835  10.242 -2.4592  2.5746  0.2424
  175MOL0     O23491  11.139  11.186   7.244 -0.7728  0.2063  0.3139
  175MOL0     C23492  11.199  11.248   7.333 -0.4549  0.3567  0.0299
  175MOL0     O23493  11.171  11.239   7.465  0.3496 -0.5762  1.2033
  175MOL0     C23494  11.066  11.161   7.502 -0.2805 -0.9706 -0.2537
  175MOL0     C23495  10.967  11.216   7.582 -0.4104 -0.2405  1.5224
  175MOL0     C23496  10.872  11.132   7.634 -0.2743 -0.1200  0.7702
  175MOL0     C23497  10.875  10.994   7.609  0.8651 -0.7102  0.8796
  175MOL0     O23498  10.763  10.941   7.656 -0.5358  1.0604 -0.8856
  175MOL0     C23499  10.698  10.835   7.576 -0.3975  0.0221 -0.4969
  175MOL0     C23500  10.548  10.832   7.619  1.1317  0.0933  0.9736
  175MOL0     C23501  10.463  10.929   7.529 -0.9540 -0.2730 -0.8583
  175MOL0     C23502  10.413  10.872   7.399 -1.0855  0.5717  0.2207
  175MOL0     C23503  10.300  10.766   7.413  0.2775 -0.0968 -0.4820
  175MOL0     C23504  10.228  10.753   7.277  0.1867  0.1330  0.7646
  175MOL0     C23505  10.109  10.649   7.287  0.2005 -0.2656  0.8349
  175MOL0     C23506   9.991  10.697   7.381  0.3369 -0.2742  0.7511
  175MOL0     N23507   9.916  10.815   7.331  0.3497 -0.7177  0.7547
  175MOL0     C23508   9.976  10.940   7.336  0.1586  0.2779 -0.4140
  175MOL0     C23509   9.898  11.017   7.259  0.2620 -0.7142 -0.2593
  175MOL0     C23510   9.894  11.163   7.226  0.8754 -0.7412  0.5021
  175MOL0     C23511   9.764  11.229   7.277 -1.1953 -0.6455  0.5997
  175MOL0     C23512   9.774  11.248   7.425  0.9029  0.0114  0.1152
  175MOL0     C23513   9.654  11.343   7.468 -0.3080  0.6358 -0.1047
  175MOL0     O23514   9.705  11.411   7.584 -0.5596  0.1184 -0.3209
  175MOL0     C23515   9.608  11.463   7.668 -0.6930  0.3986 -0.0010
  175MOL0     C23516   9.637  11.482   7.799 -0.5290  0.2326 -0.1469
  175MOL0     C23517   9.561  11.546   7.895  0.1437 -0.8290 -0.9559
  175MOL0     C23518   9.432  11.582   7.854 -0.0060 -0.0819  0.0877
  175MOL0     C23519   9.349  11.645   7.954  0.0046 -0.4014 -0.5524
  175MOL0     O23520   9.224  11.676   7.914  0.7892 -0.2386  0.1639
  175MOL0     C23521   9.128  11.732   8.014 -1.2942 -0.8011  0.7699
  175MOL0     C23522   9.132  11.735   8.151  0.4325  0.4277  0.0147
  175MOL0     C23523   9.036  11.817   8.224 -0.2719 -0.7038 -0.7948
  175MOL0     C23524   8.929  11.876   8.162  0.1131  0.1780  0.1094
  175MOL0     O23525   8.844  11.939   8.249  0.3625  0.5816  0.6144
  175MOL0     C23526   8.725  11.991   8.192 -0.6210  0.7404 -0.2316
  175MOL0     C23527   8.637  12.037   8.312 -0.3886  0.3752 -0.4855
  175MOL0     C23528   8.511  12.095   8.255  0.2865 -0.3635  0.7531
  175MOL0     C23529   8.421  12.160   8.358 -0.5912 -0.8000 -1.0923
  175MOL0     C23530   8.323  12.267   8.298 -0.0562  0.0196 -0.6606
  175MOL0     C23531   8.218  12.200   8.197  0.6400 -0.0213  0.8302
  175MOL0     C23532   8.088  12.286   8.176  0.5946  0.0681 -0.1072
  175MOL0     C23533   7.994  12.200   8.085 -0.1257 -0.2335  0.1649
  175MOL0    Cl23534   7.834  12.273   8.090 -0.2597 -0.4036 -0.0893
  175MOL0     C23535   8.926  11.865   8.019  0.4850 -1.1671 -0.0069
  175MOL0     C23536   9.025  11.800   7.945  0.8351 -0.7401 -0.2278
  175MOL0     O23537   9.400  11.680   8.061 -0.3894 -0.0877 -0.6026
  175MOL0     C23538   9.394  11.549   7.722 -0.0315  0.2226 -0.0089
  175MOL0     C23539   9.477  11.503   7.624 -0.2630 -0.0827 -1.1546
  175MOL0     N23540   9.799  10.933   7.208  0.0698 -0.7205  0.5732
  175MOL0     N23541   9.798  10.821   7.265 -0.9783  0.0306 -0.2192
  175MOL0     C23542  10.968  10.949   7.520  0.9702 -0.4874 -0.5063
  175MOL0     C23543  11.069  11.024   7.468  0.8814 -0.9638  0.3304
  175MOL0     C23544  11.302  11.342   7.304 -0.8519  0.0403 -0.1208
  175MOL0     C23545  11.302  11.473   7.357  0.1926 -0.0732  0.6952
  175MOL0     C23546  11.376  11.585   7.308 -0.7043  0.6009  1.0054
  175MOL0     C23547  11.485  11.560   7.225  0.0439 -0.2222  0.3418
  175MOL0     O23548  11.559  11.670   7.179 -0.4636  0.1240  0.5333
  175MOL0     C23549  11.630  11.639   7.055 -0.4437 -0.1966 -0.9848
  175MOL0     C23550  11.669  11.784   6.999 -0.4430  0.1571  0.2582
  175MOL0     C23551  11.727  11.782   6.856  0.8110 -0.7747 -0.1331
  175MOL0     C23552  11.718  11.907   6.773 -0.4852  0.5520  0.7290
  175MOL0     C23553  11.605  11.901   6.687  0.2513 -0.2841 -0.1528
  175MOL0     C23554  11.508  11.898   6.625  0.1670 -0.9223  0.5327
  175MOL0     C23555  11.496  11.426   7.178 -0.7197  0.0645 -1.5572
  175MOL0     C23556  11.407  11.321   7.215 -0.4713 -0.8012 -0.1432
  175MOL0     C23557  11.432  11.187   7.159  0.0544  0.1087 -0.1286
  175MOL0     H23558  10.961  11.321   7.607  1.1731  1.1976 -3.1682
  175MOL0     H23559  10.804  11.186   7.700  1.8750 -0.4086  3.3492
  175MOL0     H23560  10.717  10.866   7.473  3.3290  0.2109  0.1093
  175MOL0     H23561  10.759  10.745   7.586  1.3298  1.2085  0.1187
  175MOL0     H23562  10.545  10.839   7.729  2.1111 -1.9591  1.1753
  175MOL0     H23563  10.519  10.728   7.604  0.9572  0.1180  1.1251
  175MOL0     H23564  10.522  11.019   7.515 -1.8981  0.0395 -3.3360
  175MOL0     H23565  10.371  10.959   7.581  1.7300  4.7299  1.6687
  175MOL0     H23566  10.370  10.956   7.344 -0.5754  0.6530 -0.0652
  175MOL0     H23567  10.497  10.832   7.341 -1.5629 -1.5416  0.8978
  175MOL0     H23568  10.337  10.666   7.438 -0.8669 -1.2337 -2.9548
  175MOL0     H23569  10.243  10.804   7.498  3.0523  0.5621  1.1933
  175MOL0     H23570  10.201  10.852   7.238  1.0605  1.0402  2.3627
  175MOL0     H23571  10.300  10.706   7.209  0.5577 -0.0078  1.2545
  175MOL0     H23572  10.148  10.552   7.321 -2.1956 -1.8798 -0.7390
  175MOL0     H23573  10.064  10.640   7.188 -0.4199  2.6018  0.7878
  175MOL0     H23574   9.915  10.618   7.378 -2.5010  2.2342  1.4046
  175MOL0     H23575  10.024  10.720   7.482  2.7972  0.4745 -0.1629
  175MOL0     H23576  10.065  10.963   7.393  0.0489  2.3157 -0.9888
  175MOL0     H23577   9.984  11.205   7.270  2.1866 -2.7636 -0.1184
  175MOL0     H23578   9.910  11.170   7.118  3.0475 -1.8216  0.7077
  175MOL0     H23579   9.758  11.328   7.232 -1.5319 -1.4747 -1.2439
  175MOL0     H23580   9.673  11.176   7.247 -1.3338 -0.3963  0.5730
  175MOL0     H23581   9.869  11.301   7.436 -0.3858  3.2401 -2.4029
  175MOL0     H23582   9.770  11.163   7.493  1.0574  0.6483  0.9410
  175MOL0     H23583   9.561  11.291   7.493 -0.2756  1.4673  1.9555
  175MOL0     H23584   9.618  11.416   7.395 -0.0365 -1.0823 -2.0400
  175MOL0     H23585   9.731  11.450   7.844 -0.4146 -2.3483 -1.9875
  175MOL0     H23586   9.598  11.555   7.997 -0.1292 -2.4010 -0.6926
  175MOL0     H23587   9.211  11.682   8.204 -0.6190 -1.2918 -0.0619
  175MOL0     H23588   9.035  11.821   8.332 -1.2785  0.0336 -0.8142
  175MOL0     H23589   8.736  12.081   8.131 -3.0154  1.1045 -0.2461
  175MOL0     H23590   8.667  11.918   8.135 -4.6298  2.9922  0.5835
  175MOL0     H23591   8.623  11.941   8.362  1.0087 -0.5181 -1.7462
  175MOL0     H23592   8.695  12.102   8.377 -0.9641  1.6143 -1.1635
  175MOL0     H23593   8.537  12.170   8.179 -2.7236  0.5326  0.4783
  175MOL0     H23594   8.456  12.013   8.208 -0.7211  1.6094 -1.7653
  175MOL0     H23595   8.483  12.206   8.436 -1.8223  2.2411 -1.7556
  175MOL0     H23596   8.363  12.078   8.401 -1.8083  0.6327  0.1373
  175MOL0     H23597   8.384  12.347   8.252 -1.8762  1.2663 -1.0122
  175MOL0     H23598   8.267  12.296   8.387 -2.7603 -4.8150 -0.4933
  175MOL0     H23599   8.275  12.176   8.107 -1.1143 -1.2929 -0.0082
  175MOL0     H23600   8.182  12.104   8.236  1.8671 -0.8842 -0.0998
  175MOL0     H23601   8.116  12.383   8.136  1.6903  0.1443  0.8163
  175MOL0     H23602   8.039  12.300   8.273  1.6235 -0.2496  0.4697
  175MOL0     H23603   8.028  12.186   7.982 -3.1584  2.4185 -1.3744
  175MOL0     H23604   7.993  12.102   8.133  2.7402 -0.4455 -0.0432
  175MOL0     H23605   8.839  11.909   7.971  0.5238 -2.8417 -1.6907
  175MOL0     H23606   9.023  11.810   7.837 -1.4440 -1.1656 -0.2690
  175MOL0     H23607   9.297  11.577   7.682  0.4865 -1.5921 -2.8001
  175MOL0     H23608   9.426  11.467   7.536 -0.6207 -0.0124 -0.9767
  175MOL0     H23609  10.959  10.842   7.509  2.1071 -1.1360  3.5545
  175MOL0     H23610  11.153  10.991   7.408  0.7925  0.9288 -0.9391
  175MOL0     H23611  11.224  11.502   7.427 -1.9098  2.1220 -2.3494
  175MOL0     H23612  11.361  11.685   7.348  0.6220  0.9743  0.6127
  175MOL0     H23613  11.566  11.592   6.981  2.4244 -1.5134 -2.8070
  175MOL0     H23614  11.717  11.580   7.086 -1.9696 -0.3064  3.9142
  175MOL0     H23615  11.731  11.828   7.078  1.5550 -2.9919  0.6088
  175MOL0     H23616  11.573  11.837   6.993 -2.4477 -3.0935  1.2149
  175MOL0     H23617  11.686  11.693   6.808  0.0859 -1.2878  1.3701
  175MOL0     H23618  11.830  11.750   6.871  0.8039 -0.8178 -0.1772
  175MOL0     H23619  11.712  12.000   6.829 -0.1887  0.8823  0.2217
  175MOL0     H23620  11.798  11.914   6.698  1.2275 -1.0135  2.3255
  175MOL0     H23621  11.415  11.907   6.571  1.0436  2.2082 -0.7228
  175MOL0     H23622  11.573  11.397   7.107 -0.7972 -0.4200 -1.4492
  175MOL0     H23623  11.541  11.178   7.152  0.0020  0.4843 -1.9091
  175MOL0     H23624  11.378  11.111   7.216 -0.5217 -0.8691 -1.9089
  175MOL0     H23625  11.390  11.184   7.058 -2.8995  3.0492  0.8308
  176MOL0     O23626   7.740   8.953   7.801 -0.3199 -0.5876 -0.2364
  176MOL0     C23627   7.720   8.926   7.915  0.0331  0.3687 -0.1676
  176MOL0     O23628   7.744   9.011   8.022 -0.6459  0.2411 -0.1540
  176MOL0     C23629   7.803   9.126   8.016 -0.1746 -0.1915  0.8765
  176MOL0     C23630   7.765   9.214   8.111  0.0560 -0.3977  0.0192
  176MOL0     C23631   7.832   9.331   8.127 -0.3872  0.6803 -0.7741
  176MOL0     C23632   7.944   9.362   8.048  0.0466 -0.6764 -0.0064
  176MOL0     O23633   7.999   9.489   8.058  0.2205 -0.1880  0.3442
  176MOL0     C23634   8.098   9.530   7.961  0.1889  0.0064 -0.1483
  176MOL0     C23635   8.160   9.662   7.996 -0.3155 -1.2667 -0.3439
  176MOL0     C23636   8.302   9.641   8.054  0.2510 -0.2409 -0.1412
  176MOL0     C23637   8.397   9.768   8.041 -0.1817  0.6461 -0.4452
  176MOL0     C23638   8.343   9.873   8.156  0.2217  0.1261  0.7194
  176MOL0     C23639   8.441   9.984   8.149 -0.3706  0.7775  0.7642
  176MOL0     C23640   8.388  10.076   8.251 -0.6487  0.9222  0.1628
  176MOL0     C23641   8.498  10.179   8.269  0.9078  0.3589 -0.1237
  176MOL0     N23642   8.455  10.276   8.372 -0.0704  0.3875 -0.5329
  176MOL0     C23643   8.397  10.252   8.498  0.1083  0.7882  0.0766
  176MOL0     C23644   8.391  10.369   8.550  0.3095  1.2213 -1.1059
  176MOL0     C23645   8.343  10.383   8.685  0.6123 -0.4134  0.2441
  176MOL0     C23646   8.361  10.525   8.724 -0.5055  0.3672 -0.2654
  176MOL0     C23647   8.297  10.553   8.859 -0.2572 -0.4355 -0.2586
  176MOL0     C23648   8.392  10.545   8.975 -0.5933  0.2849  0.2528
  176MOL0     O23649   8.322  10.600   9.094  0.5015  0.0746  0.8622
  176MOL0     C23650   8.388  10.719   9.128  0.4147  0.4326 -0.7113
  176MOL0     C23651   8.482  10.721   9.223  0.3169  0.8305  0.0607
  176MOL0     C23652   8.528  10.842   9.274  0.7381  0.0528  0.0688
  176MOL0     C23653   8.479  10.964   9.213  0.6150 -0.0906 -0.0339
  176MOL0     C23654   8.522  11.097   9.251 -1.0215 -0.9092  0.1570
  176MOL0     O23655   8.601  11.097   9.366 -0.4096 -0.1996  0.4408
  176MOL0     C23656   8.662  11.211   9.409  0.0444 -0.5063  0.7474
  176MOL0     C23657   8.771  11.270   9.340 -0.9220 -0.0715 -0.2823
  176MOL0     C23658   8.820  11.397   9.380  0.8067  0.4591 -0.5725
  176MOL0     C23659   8.780  11.462   9.498  0.8543 -0.2191 -0.4277
  176MOL0     O23660   8.850  11.565   9.547 -0.2001 -0.9935 -0.0780
  176MOL0     C23661   8.804  11.657   9.649  0.3531  0.2745  0.6735
  176MOL0     C23662   8.695  11.752   9.592 -1.2652  0.4969 -0.7065
  176MOL0     C23663   8.619  11.817   9.711 -0.5676 -0.5019  0.2506
  176MOL0     C23664   8.534  11.935   9.647  0.0603  0.7571  0.5242
  176MOL0     C23665   8.381  11.918   9.678 -1.0673 -0.7346  0.3633
  176MOL0     C23666   8.295  12.023   9.609 -0.4101  0.7942 -0.8908
  176MOL0     C23667   8.158  12.024   9.675  0.6266 -0.1563  0.0803
  176MOL0     C23668   8.145  12.146   9.762  0.4801  0.0382  0.2886
  176MOL0    Cl23669   8.132  12.299   9.658 -0.1795  0.0835  0.3892
  176MOL0     C23670   8.659  11.404   9.557 -0.8950 -0.3079  0.7667
  176MOL0     C23671   8.601  11.281   9.511 -0.7344  0.4562  0.1482
  176MOL0     O23672   8.501  11.198   9.178 -0.0348  0.0497 -0.6042
  176MOL0     C23673   8.385  10.955   9.115  0.3034  0.3355  0.2770
  176MOL0     C23674   8.343  10.829   9.070  0.6280 -0.0998  0.1931
  176MOL0     N23675   8.435  10.462   8.457 -0.0341  0.2621  0.0310
  176MOL0     N23676   8.465  10.411   8.350  0.5276 -0.0834  0.1577
  176MOL0     C23677   7.984   9.265   7.945  0.5831  0.0988 -0.1291
  176MOL0     C23678   7.909   9.148   7.930 -0.1738  0.3363  0.3277
  176MOL0     C23679   7.644   8.807   7.955 -0.2318  0.2115 -1.4909
  176MOL0     C23680   7.611   8.786   8.091  0.7625 -0.1555  0.3308
  176MOL0     C23681   7.561   8.663   8.137  0.4811  0.4836  0.3508
  176MOL0     C23682   7.552   8.551   8.048  0.0238  0.1494 -0.3014
  176MOL0     O23683   7.517   8.429   8.106 -0.7267  0.2131 -0.6687
  176MOL0     C23684   7.489   8.325   8.015  0.2234  0.0295  0.4047
  176MOL0     C23685   7.354   8.331   7.934 -0.0692  0.2995 -0.3670
  176MOL0     C23686   7.241   8.317   8.033  0.6519  0.4352  0.1676
  176MOL0     C23687   7.101   8.365   7.977 -0.1689 -0.1641  0.8179
  176MOL0     C23688   7.079   8.293   7.849  0.5493  0.1752  1.2387
  176MOL0     C23689   7.071   8.255   7.736 -0.2296  0.4502 -0.4300
  176MOL0     C23690   7.567   8.575   7.911  0.8556 -0.4905  0.7575
  176MOL0     C23691   7.612   8.696   7.866  0.1168  0.2514 -0.0666
  176MOL0     C23692   7.649   8.701   7.721 -0.2757 -0.1121 -0.4158
  176MOL0     H23693   7.691   9.188   8.186 -0.4058 -1.0655 -0.6513
  176MOL0     H23694   7.794   9.403   8.198 -1.5929 -1.5844  1.0111
  176MOL0     H23695   8.174   9.452   7.967 -0.0264 -0.1306  1.3671
  176MOL0     H23696   8.060   9.522   7.859  1.3781 -4.4524 -0.4490
  176MOL0     H23697   8.099   9.705   8.076  0.7657  0.1986 -0.2630
  176MOL0     H23698   8.156   9.729   7.910 -1.2242 -0.6547  0.1548
  176MOL0     H23699   8.355   9.561   8.003  2.3337  0.0200  1.4936
  176MOL0     H23700   8.286   9.608   8.157 -2.3610 -1.3580 -0.8336
  176MOL0     H23701   8.494   9.733   8.077  0.6747  2.6238 -0.6955
  176MOL0     H23702   8.403   9.813   7.941  2.3071  1.4418 -0.0039
  176MOL0     H23703   8.241   9.902   8.128  0.2886 -1.2089 -1.1207
  176MOL0     H23704   8.337   9.838   8.259  0.4566  0.2949  0.7907
  176MOL0     H23705   8.536   9.939   8.177 -0.6073  0.1868  0.6207
  176MOL0     H23706   8.442  10.040   8.055  3.4696 -1.2312 -0.6096
  176MOL0     H23707   8.362  10.031   8.348 -2.1634 -0.9662 -1.0439
  176MOL0     H23708   8.294  10.127   8.228 -1.1186  1.8102  3.4915
  176MOL0     H23709   8.593  10.140   8.306  0.2925 -0.0560  1.0881
  176MOL0     H23710   8.496  10.233   8.174 -4.9535  1.0331 -0.0340
  176MOL0     H23711   8.379  10.155   8.543 -0.9665  1.0120  0.1573
  176MOL0     H23712   8.240  10.348   8.702  0.7278 -0.2178  1.4454
  176MOL0     H23713   8.403  10.320   8.752  0.9942  1.3240  1.6041
  176MOL0     H23714   8.468  10.545   8.739  0.0541 -2.1585 -0.4870
  176MOL0     H23715   8.315  10.595   8.654  1.8935  3.1736  0.7166
  176MOL0     H23716   8.214  10.484   8.875 -1.3134  1.1537  1.6249
  176MOL0     H23717   8.248  10.650   8.844 -1.5592 -1.2228 -1.2712
  176MOL0     H23718   8.488  10.594   8.957 -1.3486  1.3684 -1.0341
  176MOL0     H23719   8.419  10.441   8.992 -0.4982 -0.2763 -2.7321
  176MOL0     H23720   8.511  10.623   9.259 -1.2120  1.1809  2.4964
  176MOL0     H23721   8.590  10.848   9.363 -1.1090  1.2299  1.3549
  176MOL0     H23722   8.815  11.229   9.250  1.1328  1.8541 -0.2301
  176MOL0     H23723   8.894  11.452   9.322  0.6259 -2.0130 -3.3781
  176MOL0     H23724   8.771  11.604   9.738  0.9456  0.0807  0.7821
  176MOL0     H23725   8.896  11.714   9.664  1.7668 -1.8076  0.2865
  176MOL0     H23726   8.738  11.829   9.527 -0.6360  0.3119 -0.5172
  176MOL0     H23727   8.627  11.697   9.527 -0.5080  0.1140 -1.1986
  176MOL0     H23728   8.548  11.743   9.747 -0.7295 -0.3233  0.3015
  176MOL0     H23729   8.687  11.858   9.786 -0.8130  0.0922  0.1572
  176MOL0     H23730   8.550  11.934   9.539  0.4829 -2.4337  0.5401
  176MOL0     H23731   8.581  12.027   9.685  0.8355  0.3950  0.4648
  176MOL0     H23732   8.376  11.944   9.784 -1.9275  0.4726  0.0465
  176MOL0     H23733   8.343  11.815   9.674 -2.4971 -0.2103  0.2155
  176MOL0     H23734   8.340  12.121   9.631 -0.1873 -0.0134  2.9828
  176MOL0     H23735   8.294  11.993   9.504  0.8836  0.0111 -0.7100
  176MOL0     H23736   8.125  11.934   9.729  0.3511  0.0961  0.3399
  176MOL0     H23737   8.094  12.032   9.587  1.8797 -0.5295 -0.8757
  176MOL0     H23738   8.059  12.132   9.827 -1.0518  1.2258 -1.3785
  176MOL0     H23739   8.227  12.156   9.834  1.3592  2.0449 -0.8927
  176MOL0     H23740   8.598  11.456   9.630 -1.1193  2.2725 -1.1249
  176MOL0     H23741   8.513  11.246   9.564  1.5676 -3.8883  1.6652
  176MOL0     H23742   8.338  11.040   9.064  0.5246  0.1066 -0.3186
  176MOL0     H23743   8.270  10.827   8.991 -0.5855  1.6712  1.1943
  176MOL0     H23744   8.060   9.286   7.871  1.4888 -1.1530  0.3970
  176MOL0     H23745   7.937   9.089   7.843 -0.8840  4.8094 -3.3288
  176MOL0     H23746   7.633   8.867   8.160 -2.5145  2.3038 -1.2580
  176MOL0     H23747   7.543   8.657   8.244 -0.4982  1.4188  0.2515
  176MOL0     H23748   7.474   8.242   8.085  1.2045  2.5316  3.8727
  176MOL0     H23749   7.578   8.305   7.955  0.6421 -0.0238  1.0348
  176MOL0     H23750   7.354   8.255   7.855  1.7094  0.4720 -0.5863
  176MOL0     H23751   7.349   8.429   7.887  0.4864  0.5247  0.0222
  176MOL0     H23752   7.256   8.380   8.122 -2.7192 -1.0131  1.9536
  176MOL0     H23753   7.229   8.211   8.059 -1.5155  1.3786  3.6359
  176MOL0     H23754   7.026   8.335   8.050  2.2420 -1.6835  2.8368
  176MOL0     H23755   7.100   8.473   7.959  0.4246 -0.0994  1.1279
  176MOL0     H23756   7.061   8.193   7.649 -1.0915 -1.5540  1.0170
  176MOL0     H23757   7.551   8.504   7.830  5.2844  1.0194 -1.8009
  176MOL0     H23758   7.613   8.789   7.668  0.1621 -0.8241 -1.9564
  176MOL0     H23759   7.759   8.701   7.717 -0.2385 -1.1496  0.2078
  176MOL0     H23760   7.609   8.619   7.661 -2.7791 -0.2955  1.3842
  177MOL0     O23761   2.185   0.476   3.275  0.1047 -0.0739  0.2427
  177MOL0     C23762   2.228   0.479   3.160  0.0387 -0.0558 -0.8106
  177MOL0     O23763   2.338   0.541   3.117  0.0495  0.4833 -0.3496
  177MOL0     C23764   2.426   0.609   3.190  0.1966  0.0769  1.7124
  177MOL0     C23765   2.548   0.634   3.119 -0.1876 -0.1872  0.6759
  177MOL0     C23766   2.645   0.707   3.182 -0.1570  0.1442 -1.0368
  177MOL0     C23767   2.634   0.749   3.316 -0.8056  0.5140 -0.5627
  177MOL0     O23768   2.748   0.804   3.379 -0.5158 -0.2424 -0.3627
  177MOL0     C23769   2.863   0.713   3.372  0.3354 -0.3585  0.0682
  177MOL0     C23770   2.975   0.736   3.474 -0.6793 -0.4418 -0.7822
  177MOL0     C23771   2.992   0.885   3.509 -0.0776 -0.0830  0.1956
  177MOL0     C23772   3.102   0.913   3.610 -0.9857  0.4693 -0.5668
  177MOL0     C23773   3.148   1.068   3.614 -0.0534 -0.3685  0.3723
  177MOL0     C23774   3.264   1.090   3.709 -0.2564  0.5744 -0.4765
  177MOL0     C23775   3.328   1.228   3.716  0.5795 -0.3921 -0.4500
  177MOL0     C23776   3.417   1.231   3.839 -0.1347  0.5378  0.5503
  177MOL0     N23777   3.497   1.358   3.849  0.3043  1.1332 -1.4539
  177MOL0     C23778   3.620   1.368   3.908 -0.1007  0.0559 -0.0370
  177MOL0     C23779   3.644   1.506   3.912 -0.3381  1.0167 -0.1250
  177MOL0     C23780   3.757   1.569   3.995 -0.6072 -0.2133 -0.1476
  177MOL0     C23781   3.788   1.708   3.956  0.0279  1.0574  0.4573
  177MOL0     C23782   3.925   1.757   4.011  0.8224  0.7559 -0.1462
  177MOL0     C23783   3.922   1.810   4.162 -0.0315 -0.3171  0.0401
  177MOL0     O23784   3.868   1.712   4.258  0.5444 -0.3506  0.6920
  177MOL0     C23785   3.903   1.743   4.387  0.6402  0.1929  0.6146
  177MOL0     C23786   3.815   1.826   4.449  0.1454 -0.0295 -0.4933
  177MOL0     C23787   3.851   1.868   4.576  0.0960  0.5891 -0.3396
  177MOL0     C23788   3.967   1.820   4.645  0.2588 -0.8831 -0.1693
  177MOL0     C23789   4.001   1.872   4.787  0.6104  0.3877 -0.9047
  177MOL0     O23790   4.110   1.838   4.859 -0.2505  0.1823 -0.5926
  177MOL0     C23791   4.137   1.912   4.967  0.4085 -0.7016  1.0576
  177MOL0     C23792   4.164   1.862   5.097 -0.2989 -0.6717  0.6243
  177MOL0     C23793   4.219   1.945   5.192 -0.5878 -0.2237 -0.2495
  177MOL0     C23794   4.264   2.077   5.177  0.0886 -0.2477  0.2795
  177MOL0     O23795   4.278   2.156   5.282 -0.8065  0.1681 -0.2227
  177MOL0     C23796   4.334   2.283   5.266 -0.0943  0.0042 -0.1809
  177MOL0     C23797   4.349   2.358   5.401  0.0350 -0.1153 -0.5352
  177MOL0     C23798   4.469   2.438   5.385 -1.0079 -0.2563  0.5059
  177MOL0     C23799   4.498   2.533   5.512  0.4328 -0.3677 -0.0836
  177MOL0     C23800   4.385   2.635   5.530 -0.2114  0.5173 -0.1461
  177MOL0     C23801   4.423   2.753   5.625 -0.1790  0.5480 -0.4258
  177MOL0     C23802   4.310   2.865   5.617  0.2822  0.5197  0.2699
  177MOL0     C23803   4.360   3.004   5.660  0.4545  0.1172 -0.4204
  177MOL0    Cl23804   4.465   3.047   5.530 -0.0974  0.1833 -0.2101
  177MOL0     C23805   4.254   2.122   5.045 -0.1207 -0.2513 -0.6810
  177MOL0     C23806   4.182   2.053   4.945  0.0771  0.3775  0.2519
  177MOL0     O23807   3.914   1.949   4.827 -0.0758 -0.1702  0.0493
  177MOL0     C23808   4.051   1.724   4.585  0.4181  0.5305 -0.4451
  177MOL0     C23809   4.023   1.683   4.453  0.5827 -0.1296 -0.7700
  177MOL0     N23810   3.549   1.563   3.837  0.2534 -0.2902  0.5283
  177MOL0     N23811   3.460   1.478   3.805  0.7268 -0.1948  0.0679
  177MOL0     C23812   2.507   0.740   3.378 -0.9671 -0.3416 -0.8758
  177MOL0     C23813   2.407   0.668   3.316  0.1947 -0.9612  0.4654
  177MOL0     C23814   2.159   0.398   3.055 -0.3226 -0.5072  0.7721
  177MOL0     C23815   2.178   0.435   2.920 -0.3917 -0.8734 -0.6652
  177MOL0     C23816   2.097   0.389   2.816 -0.5418 -0.1022 -0.4791
  177MOL0     C23817   2.011   0.288   2.845  0.4952 -0.1430  0.3686
  177MOL0     O23818   1.939   0.233   2.739  0.1013 -0.2189  0.3961
  177MOL0     C23819   1.870   0.112   2.771  0.9142  0.7683 -0.0725
  177MOL0     C23820   1.792   0.045   2.646 -0.1604 -0.1158 -0.0621
  177MOL0     C23821   1.870   0.024   2.518  0.5264 -0.0873 -0.5088
  177MOL0     C23822   2.010  -0.042   2.530  0.1043 -0.0632  0.8350
  177MOL0     C23823   2.006  -0.184   2.564  0.6872 -0.2299 -0.0039
  177MOL0     C23824   1.998  -0.297   2.605  0.0994 -0.1189 -0.4685
  177MOL0     C23825   1.995   0.245   2.977  0.0766  0.2187 -0.4249
  177MOL0     C23826   2.068   0.288   3.083 -1.1808 -0.1277 -0.8877
  177MOL0     C23827   2.053   0.230   3.224  1.0072  0.9158 -0.2248
  177MOL0     H23828   2.577   0.577   3.031  2.3734  1.2893  0.4583
  177MOL0     H23829   2.740   0.711   3.128  0.5237 -3.1265 -0.2887
  177MOL0     H23830   2.825   0.611   3.375 -0.5826 -0.0874 -1.2165
  177MOL0     H23831   2.910   0.723   3.273 -0.8645 -0.6893 -0.5549
  177MOL0     H23832   3.066   0.689   3.436 -3.2964 -2.8023 -4.9655
  177MOL0     H23833   2.947   0.683   3.566 -1.7694 -1.7996 -1.8486
  177MOL0     H23834   2.899   0.933   3.542  0.3775  1.4754 -0.6811
  177MOL0     H23835   3.022   0.922   3.411 -3.6196  0.3099 -0.9005
  177MOL0     H23836   3.054   0.876   3.700  1.0206 -1.1837 -0.1161
  177MOL0     H23837   3.188   0.854   3.580  0.3385  2.6428 -1.3057
  177MOL0     H23838   3.186   1.090   3.514  0.2920 -3.1797 -0.1909
  177MOL0     H23839   3.071   1.136   3.653 -0.0694 -0.5691  0.6958
  177MOL0     H23840   3.222   1.062   3.806  1.9936  0.5918  0.5563
  177MOL0     H23841   3.338   1.013   3.690  0.4975  0.5020  2.2670
  177MOL0     H23842   3.249   1.301   3.738  0.8692 -0.2151  0.0176
  177MOL0     H23843   3.392   1.252   3.630  2.3924 -2.8470  0.1246
  177MOL0     H23844   3.361   1.213   3.931 -0.7482  1.3286  0.3414
  177MOL0     H23845   3.487   1.154   3.806 -1.2450  0.6859 -2.4527
  177MOL0     H23846   3.698   1.302   3.944  0.6435  0.7644 -0.3332
  177MOL0     H23847   3.719   1.556   4.096 -1.6978  0.1537 -0.4997
  177MOL0     H23848   3.851   1.513   3.985  0.1208  0.9647 -0.0449
  177MOL0     H23849   3.803   1.709   3.848 -0.0644  1.3054  0.4456
  177MOL0     H23850   3.702   1.769   3.984  0.3161  0.9312  1.7002
  177MOL0     H23851   3.957   1.840   3.948 -0.8385  1.3292 -0.2624
  177MOL0     H23852   3.993   1.671   4.004 -1.1128 -0.9551  0.9562
  177MOL0     H23853   3.865   1.903   4.162 -0.1028 -0.3488  1.1110
  177MOL0     H23854   4.024   1.829   4.198 -0.8286  1.6194  1.4461
  177MOL0     H23855   3.720   1.848   4.400 -1.9034  0.5401  3.3577
  177MOL0     H23856   3.776   1.930   4.626 -2.4750 -0.7047 -2.3370
  177MOL0     H23857   4.136   1.757   5.104 -0.8627 -0.8050 -2.2614
  177MOL0     H23858   4.227   1.908   5.293 -1.0368  1.7105  0.5492
  177MOL0     H23859   4.423   2.263   5.205 -0.8339 -2.0292 -0.6860
  177MOL0     H23860   4.274   2.347   5.200 -0.0752  0.8028  0.5606
  177MOL0     H23861   4.263   2.417   5.435 -0.8205 -1.9107  0.5547
  177MOL0     H23862   4.369   2.281   5.475 -1.0080 -0.3777 -0.5080
  177MOL0     H23863   4.563   2.384   5.371  1.2710  3.5656 -0.4564
  177MOL0     H23864   4.455   2.496   5.294  1.8602 -1.8744 -1.0926
  177MOL0     H23865   4.597   2.578   5.515  0.8125 -1.1739  3.5439
  177MOL0     H23866   4.498   2.464   5.597  0.7989 -2.7588 -1.9139
  177MOL0     H23867   4.314   2.576   5.587  0.6284 -2.2756 -1.8128
  177MOL0     H23868   4.337   2.667   5.437 -0.3944  0.7219  0.0170
  177MOL0     H23869   4.438   2.716   5.727  4.4453 -0.6226 -1.3168
  177MOL0     H23870   4.518   2.786   5.584  0.8633 -0.8939  0.7136
  177MOL0     H23871   4.230   2.832   5.684  0.6882  2.8651  2.0636
  177MOL0     H23872   4.283   2.862   5.511  1.9836  0.8262 -0.2056
  177MOL0     H23873   4.277   3.075   5.663  0.4376  0.1257  2.7506
  177MOL0     H23874   4.405   2.996   5.759  1.4610  0.1361 -0.8676
  177MOL0     H23875   4.271   2.226   5.021 -0.7311 -0.1365 -0.6406
  177MOL0     H23876   4.144   2.097   4.853 -0.1646 -0.3301  0.0064
  177MOL0     H23877   4.138   1.683   4.634 -1.3268 -0.7271  1.7568
  177MOL0     H23878   4.085   1.605   4.409  2.7099  1.2360 -0.3199
  177MOL0     H23879   2.503   0.771   3.482  0.7591 -0.5134 -0.7316
  177MOL0     H23880   2.312   0.655   3.366  0.2704 -1.2650  0.5333
  177MOL0     H23881   2.262   0.500   2.899  0.3416 -0.5364  2.7443
  177MOL0     H23882   2.115   0.425   2.715 -0.7797  2.3120  0.2739
  177MOL0     H23883   1.785   0.142   2.832  0.1371 -1.1986 -0.1319
  177MOL0     H23884   1.929   0.035   2.820 -0.9270 -0.7215 -0.0863
  177MOL0     H23885   1.715   0.119   2.622 -2.4009 -1.8223  1.3671
  177MOL0     H23886   1.740  -0.048   2.675 -2.3709  0.5880 -1.5003
  177MOL0     H23887   1.881   0.126   2.481 -2.4366  1.3708  2.1942
  177MOL0     H23888   1.810  -0.039   2.452  1.4896 -1.2332 -0.3380
  177MOL0     H23889   2.062  -0.043   2.434  1.0743  0.3859  1.3352
  177MOL0     H23890   2.058   0.017   2.609  2.4261 -0.7500  0.0070
  177MOL0     H23891   1.965  -0.391   2.644 -2.5832  2.0099  3.0409
  177MOL0     H23892   1.925   0.166   3.004  0.9143 -1.2900 -2.4442
  177MOL0     H23893   2.003   0.133   3.222  2.1660  0.1439  2.7461
  177MOL0     H23894   2.148   0.215   3.277  1.0744 -0.1070 -0.6182
  177MOL0     H23895   1.977   0.287   3.277  1.3181  0.1483  1.0733
  178MOL0     O23896   4.991   5.416   2.585  0.3242  0.1831  0.3538
  178MOL0     C23897   4.926   5.317   2.623 -0.4611 -0.1657 -0.3378
  178MOL0     O23898   4.972   5.216   2.709 -0.1171  0.3638  0.6049
  178MOL0     C23899   5.105   5.213   2.745 -0.1456  0.7436 -0.6570
  178MOL0     C23900   5.130   5.194   2.880 -0.2608 -0.2668 -0.6012
  178MOL0     C23901   5.253   5.185   2.943  0.0492 -0.0239 -0.1160
  178MOL0     C23902   5.356   5.197   2.856 -0.7008  0.2660 -0.1648
  178MOL0     O23903   5.484   5.188   2.926  0.5681 -0.6873 -0.1078
  178MOL0     C23904   5.529   5.320   2.966 -0.1815  0.3149  0.7478
  178MOL0     C23905   5.680   5.303   3.013  1.0827  0.0897 -0.8471
  178MOL0     C23906   5.750   5.434   3.024 -0.1868  0.9165  0.5269
  178MOL0     C23907   5.756   5.484   3.169  0.5714 -0.6433 -0.0254
  178MOL0     C23908   5.775   5.624   3.190 -0.5841 -0.0827  0.2269
  178MOL0     C23909   5.913   5.685   3.170 -0.2753 -1.1281  0.4324
  178MOL0     C23910   5.927   5.841   3.199  0.5508  0.0464  0.5371
  178MOL0     C23911   5.838   5.926   3.114  0.3126  0.0120  0.3447
  178MOL0     N23912   5.847   5.910   2.974  0.3436  0.1504  0.1379
  178MOL0     C23913   5.939   5.954   2.886  0.7453  0.5114 -0.1731
  178MOL0     C23914   5.896   5.904   2.763 -0.0478 -0.6075  0.1192
  178MOL0     C23915   5.959   5.965   2.639  0.1448 -0.1206 -0.5797
  178MOL0     C23916   5.882   5.955   2.501 -0.1833 -0.8206 -0.4681
  178MOL0     C23917   5.888   5.819   2.436  0.6505  0.5242 -1.2561
  178MOL0     C23918   5.819   5.822   2.303  1.1104  1.0249  0.1109
  178MOL0     O23919   5.889   5.869   2.186 -0.0385  0.1858  0.2768
  178MOL0     C23920   5.839   5.834   2.064  0.4578  0.3637 -1.3664
  178MOL0     C23921   5.931   5.851   1.969 -0.3092  0.1622  0.9894
  178MOL0     C23922   5.888   5.823   1.837  0.0585  0.4873  0.4543
  178MOL0     C23923   5.749   5.790   1.802 -0.5419  0.1452  0.3944
  178MOL0     C23924   5.713   5.788   1.664  0.8138 -0.0441  0.1583
  178MOL0     O23925   5.804   5.776   1.566 -0.4951 -0.5372  0.1590
  178MOL0     C23926   5.772   5.764   1.437  0.4639 -0.2160  0.5206
  178MOL0     C23927   5.673   5.688   1.379  0.7919  0.4294 -0.5311
  178MOL0     C23928   5.659   5.675   1.244  0.3713 -0.0326  0.8886
  178MOL0     C23929   5.744   5.743   1.166  0.3076 -0.6234  1.2256
  178MOL0     O23930   5.715   5.752   1.035  0.4631  0.1260  0.2270
  178MOL0     C23931   5.822   5.749   0.939  0.0331  0.6783  0.0013
  178MOL0     C23932   5.901   5.614   0.949  0.2569  0.5620 -0.4256
  178MOL0     C23933   6.018   5.599   0.843  0.1057  0.7062  0.0363
  178MOL0     C23934   6.097   5.465   0.862 -0.5401  0.3115 -0.3252
  178MOL0     C23935   6.007   5.351   0.811  0.2688  0.5507  0.6806
  178MOL0     C23936   6.074   5.213   0.812  0.1163  0.8742  0.2442
  178MOL0     C23937   5.975   5.102   0.833  0.0496 -0.5271  0.3629
  178MOL0     C23938   5.870   5.084   0.716 -0.0387  0.0826  0.9638
  178MOL0    Cl23939   5.720   5.145   0.785 -0.1234 -0.0726  0.2814
  178MOL0     C23940   5.849   5.814   1.219  0.9320  0.2807  0.2717
  178MOL0     C23941   5.868   5.818   1.352  1.1225  0.6840  0.2677
  178MOL0     O23942   5.590   5.802   1.646  0.1080  0.1443  0.2560
  178MOL0     C23943   5.664   5.783   1.911  0.5985 -0.1727  0.3334
  178MOL0     C23944   5.700   5.798   2.042 -0.7379  0.9477  0.4566
  178MOL0     N23945   5.775   5.836   2.778  0.2443  0.4227  0.3332
  178MOL0     N23946   5.751   5.839   2.901  0.5532  0.1453  0.2573
  178MOL0     C23947   5.340   5.217   2.718  0.7891 -0.3722  0.0929
  178MOL0     C23948   5.212   5.215   2.662 -0.2277  0.0156 -1.0640
  178MOL0     C23949   4.794   5.306   2.579 -0.5750 -0.6628 -1.0712
  178MOL0     C23950   4.720   5.421   2.548  0.5083 -0.3038  0.6147
  178MOL0     C23951   4.589   5.417   2.495  0.5514 -0.1381  0.3300
  178MOL0     C23952   4.531   5.298   2.468 -0.7050 -0.2952 -0.2207
  178MOL0     O23953   4.395   5.300   2.440 -0.3083  0.4329  0.7842
  178MOL0     C23954   4.309   5.179   2.464 -0.2883 -0.3180  0.0977
  178MOL0     C23955   4.167   5.222   2.457  0.0174 -0.0471  0.7484
  178MOL0     C23956   4.126   5.317   2.350 -0.0594 -1.1400 -0.6978
  178MOL0     C23957   3.982   5.365   2.349 -0.1255 -0.0739 -0.7072
  178MOL0     C23958   3.903   5.379   2.219  0.0671  0.0595  0.7441
  178MOL0     C23959   3.832   5.394   2.127  0.4342 -0.2857  0.8797
  178MOL0     C23960   4.602   5.180   2.498  0.2477  0.0636  0.5916
  178MOL0     C23961   4.737   5.183   2.543  0.3413 -0.0079 -0.3830
  178MOL0     C23962   4.810   5.048   2.546 -0.2038  1.3520 -0.1006
  178MOL0     H23963   5.038   5.196   2.938  0.5039  1.3250  0.6290
  178MOL0     H23964   5.261   5.180   3.051  0.3280  1.1634 -0.0622
  178MOL0     H23965   5.536   5.396   2.887  0.4794 -0.6994 -0.2061
  178MOL0     H23966   5.463   5.360   3.044  2.9511  1.0484  3.2175
  178MOL0     H23967   5.729   5.241   2.937  2.6512  0.2653 -0.0204
  178MOL0     H23968   5.697   5.260   3.112  1.3418  1.6551 -0.1876
  178MOL0     H23969   5.701   5.508   2.960  4.9661  1.3585 -3.5057
  178MOL0     H23970   5.847   5.414   2.978 -1.1776 -0.2915 -1.1459
  178MOL0     H23971   5.654   5.453   3.192  0.3123  0.9548  1.1877
  178MOL0     H23972   5.817   5.422   3.234 -0.6445 -1.2584  0.5592
  178MOL0     H23973   5.690   5.675   3.142 -0.4281  1.3444  1.4039
  178MOL0     H23974   5.749   5.631   3.296  1.9758 -2.2026  1.1024
  178MOL0     H23975   5.992   5.639   3.230 -0.2290  0.3720  1.6140
  178MOL0     H23976   5.934   5.665   3.065 -1.0132 -0.4123  0.1366
  178MOL0     H23977   6.027   5.878   3.174 -0.8798  5.7860  2.0318
  178MOL0     H23978   5.922   5.856   3.308 -1.0162 -0.2837  0.5297
  178MOL0     H23979   5.737   5.901   3.149  0.2558 -2.3650 -1.2261
  178MOL0     H23980   5.861   6.028   3.145  0.9181 -0.1438  0.4158
  178MOL0     H23981   6.022   6.017   2.914 -0.0390  0.4282  2.7801
  178MOL0     H23982   5.983   6.070   2.656  1.1993 -0.2775 -1.0561
  178MOL0     H23983   6.050   5.908   2.620 -3.0656 -4.7573 -4.6553
  178MOL0     H23984   5.777   5.983   2.517  0.5505  0.2860  3.5438
  178MOL0     H23985   5.930   6.029   2.437 -1.0657 -0.6844 -0.9864
  178MOL0     H23986   5.834   5.747   2.498  0.9042 -0.4658 -2.1607
  178MOL0     H23987   5.994   5.804   2.415  0.5213  0.2490 -1.7208
  178MOL0     H23988   5.731   5.886   2.313 -0.4066 -0.8186 -0.8452
  178MOL0     H23989   5.780   5.721   2.288  0.9869  1.3098 -1.6389
  178MOL0     H23990   6.034   5.877   1.990 -0.3523  3.4535 -2.0372
  178MOL0     H23991   5.967   5.833   1.762  1.4234  2.0346  2.0017
  178MOL0     H23992   5.602   5.638   1.444 -1.1215  1.7676 -1.4915
  178MOL0     H23993   5.577   5.613   1.209  1.8397 -0.6039 -1.7657
  178MOL0     H23994   5.774   5.735   0.842 -2.0498 -3.8228  1.3880
  178MOL0     H23995   5.881   5.840   0.929 -2.3126  2.1168 -2.2783
  178MOL0     H23996   5.956   5.607   1.043 -1.5903 -0.9564  0.6205
  178MOL0     H23997   5.831   5.530   0.939  1.6693 -0.4690 -2.3659
  178MOL0     H23998   5.990   5.598   0.738  0.3840 -3.3974 -0.1723
  178MOL0     H23999   6.076   5.691   0.854 -1.2624  1.6727 -0.5885
  178MOL0     H24000   6.132   5.450   0.965 -4.6439  2.1560  1.5737
  178MOL0     H24001   6.186   5.475   0.799  0.4419 -0.5590  0.8743
  178MOL0     H24002   5.987   5.369   0.705 -0.5273  3.0367  1.1842
  178MOL0     H24003   5.921   5.342   0.877 -0.4588  1.8146 -0.0528
  178MOL0     H24004   6.133   5.203   0.721 -1.3367  0.0353 -0.6521
  178MOL0     H24005   6.154   5.211   0.887  1.6218 -0.2107 -1.3305
  178MOL0     H24006   5.930   5.112   0.932  0.0806  0.3361  0.3020
  178MOL0     H24007   6.027   5.006   0.843 -0.1091 -0.7664 -0.8983
  178MOL0     H24008   5.900   5.136   0.626  0.4103 -1.9483 -0.1251
  178MOL0     H24009   5.850   4.976   0.707  2.5545 -0.3179 -1.0389
  178MOL0     H24010   5.902   5.872   1.144  0.4657 -0.7606 -0.9038
  178MOL0     H24011   5.958   5.868   1.389  2.0969 -0.4521 -0.5066
  178MOL0     H24012   5.557   5.771   1.901  0.6445 -2.3921  1.6634
  178MOL0     H24013   5.633   5.787   2.127 -1.1699 -2.3175 -0.1637
  178MOL0     H24014   5.432   5.212   2.661 -0.3505 -1.4339 -1.7973
  178MOL0     H24015   5.198   5.234   2.556  3.6952  1.3421 -1.5271
  178MOL0     H24016   4.766   5.517   2.571 -0.9548  0.4699  0.4708
  178MOL0     H24017   4.533   5.509   2.482  0.2524 -0.4327 -0.5523
  178MOL0     H24018   4.338   5.142   2.563  1.4469  3.7719  1.3547
  178MOL0     H24019   4.337   5.115   2.380 -0.8077 -0.7580  0.2562
  178MOL0     H24020   4.147   5.272   2.552  0.6992 -1.9379  1.9342
  178MOL0     H24021   4.106   5.133   2.440  2.9514 -1.8692 -1.0941
  178MOL0     H24022   4.158   5.259   2.263  1.6120  0.3574 -1.1577
  178MOL0     H24023   4.187   5.408   2.344 -1.2033 -0.1845  1.2635
  178MOL0     H24024   3.921   5.307   2.419  1.8022 -1.5456 -0.1499
  178MOL0     H24025   3.974   5.464   2.395 -1.3100 -0.0300 -0.9597
  178MOL0     H24026   3.778   5.381   2.035 -2.1966 -2.0047  2.5261
  178MOL0     H24027   4.550   5.086   2.478  1.9247 -0.8209  0.1785
  178MOL0     H24028   4.905   5.050   2.493 -0.9036  0.0314 -1.4805
  178MOL0     H24029   4.818   5.028   2.653  0.5748  0.3841 -0.3308
  178MOL0     H24030   4.740   4.981   2.494 -1.3732  2.2962  0.1942
  179MOL0     O24031   1.315   9.241   2.163  1.1173 -0.6014  0.7474
  179MOL0     C24032   1.372   9.143   2.138  0.4385  0.2867  0.0656
  179MOL0     O24033   1.307   9.036   2.077 -0.6407 -0.8169  0.0554
  179MOL0     C24034   1.179   9.059   2.041  0.2020  0.3770 -0.5244
  179MOL0     C24035   1.083   9.015   2.133 -0.2574  0.7313 -0.0604
  179MOL0     C24036   0.951   9.008   2.091  0.6272  0.2584 -0.2459
  179MOL0     C24037   0.910   9.051   1.972  0.3071  0.4823 -0.6160
  179MOL0     O24038   0.779   9.049   1.948 -0.0596  0.5207 -0.4079
  179MOL0     C24039   0.721   9.073   1.816 -0.0154 -0.2282  0.2344
  179MOL0     C24040   0.697   8.950   1.733  0.4437  0.5984 -0.1916
  179MOL0     C24041   0.640   8.834   1.807 -0.5339 -0.7627  0.2913
  179MOL0     C24042   0.750   8.724   1.840 -0.9812 -0.1668  0.1098
  179MOL0     C24043   0.680   8.592   1.869  0.5923 -0.9514  0.2332
  179MOL0     C24044   0.578   8.592   1.991  0.2334 -0.7568 -0.1699
  179MOL0     C24045   0.535   8.450   2.032  0.5034 -0.2088  0.2701
  179MOL0     C24046   0.453   8.468   2.164 -0.0537  0.3592  0.1676
  179MOL0     N24047   0.553   8.458   2.262 -0.1919 -0.0457 -0.5562
  179MOL0     C24048   0.576   8.343   2.330 -0.2815  1.2035 -0.8671
  179MOL0     C24049   0.681   8.369   2.409  1.1415 -0.8999  0.1936
  179MOL0     C24050   0.757   8.284   2.511  0.7381 -0.3968  0.9419
  179MOL0     C24051   0.671   8.245   2.632 -1.0780  0.0160  0.1406
  179MOL0     C24052   0.739   8.130   2.720  0.1012 -0.0502  0.0765
  179MOL0     C24053   0.894   8.157   2.750 -0.6197  0.9900  0.3385
  179MOL0     O24054   0.927   8.052   2.848 -0.0892 -0.9196  0.2817
  179MOL0     C24055   0.923   8.083   2.980  0.3550  1.2146 -0.8252
  179MOL0     C24056   0.918   7.971   3.059 -0.6099  0.9224 -0.3823
  179MOL0     C24057   0.916   7.986   3.201  0.0188  0.0380 -0.4358
  179MOL0     C24058   0.934   8.111   3.264  0.0863 -0.6809 -0.7452
  179MOL0     C24059   0.934   8.123   3.416 -1.0022 -1.1919 -0.4128
  179MOL0     O24060   0.937   8.007   3.479  0.3764 -0.3264  0.0615
  179MOL0     C24061   1.021   7.992   3.592  0.1215 -0.4156  0.3856
  179MOL0     C24062   1.004   7.868   3.651 -0.9699  0.4602 -0.6901
  179MOL0     C24063   1.089   7.839   3.765  0.0776 -0.1354 -0.3234
  179MOL0     C24064   1.189   7.926   3.810 -0.4375 -0.4618  0.2339
  179MOL0     O24065   1.278   7.894   3.913 -0.3284 -0.3104 -0.6411
  179MOL0     C24066   1.222   7.925   4.048  0.1449 -0.1777 -0.3821
  179MOL0     C24067   1.318   7.910   4.166  0.1304  0.0973  0.1452
  179MOL0     C24068   1.416   8.034   4.149  0.5857  0.5768  1.0818
  179MOL0     C24069   1.361   8.160   4.224  0.2494  0.3699 -0.5062
  179MOL0     C24070   1.462   8.273   4.220  0.6226 -0.6206  0.0739
  179MOL0     C24071   1.428   8.405   4.293 -0.5300 -0.1520  0.3835
  179MOL0     C24072   1.277   8.424   4.321 -1.0883 -0.0270  0.0578
  179MOL0     C24073   1.205   8.456   4.194 -0.4414  0.4740  0.3809
  179MOL0    Cl24074   1.211   8.601   4.096  0.1189  0.0031  0.2039
  179MOL0     C24075   1.204   8.037   3.738  0.6555  0.3365 -0.7131
  179MOL0     C24076   1.122   8.074   3.634 -1.4071 -0.8663 -0.2260
  179MOL0     O24077   0.922   8.234   3.469  0.2887  0.5528 -0.0033
  179MOL0     C24078   0.914   8.224   3.176  0.0009  0.6659 -0.1183
  179MOL0     C24079   0.893   8.207   3.039 -0.1459 -0.4535 -0.0435
  179MOL0     N24080   0.704   8.499   2.396  0.1739  1.0256  0.2420
  179MOL0     N24081   0.631   8.557   2.308  0.0149  1.2260  0.3834
  179MOL0     C24082   1.005   9.101   1.881 -0.0551  1.1950  0.0022
  179MOL0     C24083   1.144   9.093   1.904  0.3295 -0.7045  0.4521
  179MOL0     C24084   1.505   9.156   2.188 -0.2716 -0.3372 -0.7106
  179MOL0     C24085   1.568   9.283   2.200 -0.1772 -0.0361  0.0824
  179MOL0     C24086   1.701   9.293   2.243  0.1107 -0.9819  0.6547
  179MOL0     C24087   1.778   9.187   2.290  0.2605 -0.0374  0.4711
  179MOL0     O24088   1.901   9.209   2.348 -0.8292  0.1275 -0.3475
  179MOL0     C24089   1.999   9.106   2.333 -0.1344  0.0529 -0.3086
  179MOL0     C24090   2.133   9.176   2.322  0.0143  0.1906 -0.6066
  179MOL0     C24091   2.165   9.271   2.442 -0.6001  0.0814  0.9238
  179MOL0     C24092   2.160   9.417   2.391  0.2242 -0.6264 -0.0266
  179MOL0     C24093   2.149   9.509   2.503  0.7410 -0.0239  0.2333
  179MOL0     C24094   2.148   9.586   2.596  0.5596  0.7251 -0.2799
  179MOL0     C24095   1.712   9.066   2.287 -1.1148  0.8628  0.1712
  179MOL0     C24096   1.584   9.043   2.233 -0.4083 -0.0626  0.3131
  179MOL0     C24097   1.540   8.898   2.221 -0.6321  0.5000  0.2292
  179MOL0     H24098   1.119   8.986   2.231  2.2314  3.1509 -0.1427
  179MOL0     H24099   0.877   8.966   2.157 -1.5110  3.4811 -0.3517
  179MOL0     H24100   0.627   9.120   1.847  0.5188  0.0970  1.4008
  179MOL0     H24101   0.776   9.144   1.753 -0.8653  0.4549  0.2473
  179MOL0     H24102   0.791   8.915   1.691  1.2789  1.4056  0.9163
  179MOL0     H24103   0.633   8.977   1.648  1.7793 -1.5766 -1.9928
  179MOL0     H24104   0.560   8.793   1.744  1.7399  0.4209 -3.7273
  179MOL0     H24105   0.588   8.849   1.902  0.6552 -3.9589  1.5798
  179MOL0     H24106   0.802   8.711   1.745  0.0533  0.2820  0.5991
  179MOL0     H24107   0.820   8.745   1.922  1.9111  0.6959 -2.4083
  179MOL0     H24108   0.629   8.565   1.776 -0.7776 -0.9968  0.9752
  179MOL0     H24109   0.763   8.522   1.885 -0.3187 -1.4447  3.4134
  179MOL0     H24110   0.625   8.647   2.073 -0.7957  1.1570 -0.8125
  179MOL0     H24111   0.490   8.653   1.969  0.8486  1.0407  1.9479
  179MOL0     H24112   0.610   8.371   2.037  3.0863  2.0307 -0.8900
  179MOL0     H24113   0.469   8.428   1.948 -0.1077 -1.2529  1.0019
  179MOL0     H24114   0.403   8.565   2.164 -2.4844 -0.6354 -3.6997
  179MOL0     H24115   0.379   8.389   2.183 -0.1721  0.9572  2.4510
  179MOL0     H24116   0.519   8.251   2.317  1.0129  0.1225  0.7153
  179MOL0     H24117   0.787   8.190   2.463  2.5525  1.1050 -1.0118
  179MOL0     H24118   0.842   8.336   2.556 -0.6844  0.4730  2.7542
  179MOL0     H24119   0.640   8.326   2.698 -0.0377  0.2726  0.3156
  179MOL0     H24120   0.584   8.197   2.586 -0.7043  1.2721 -2.0104
  179MOL0     H24121   0.731   8.037   2.663 -0.5506  0.7373 -1.1739
  179MOL0     H24122   0.681   8.112   2.811  0.3093  2.3197  0.7410
  179MOL0     H24123   0.934   8.254   2.779  5.7079 -0.6121 -1.4845
  179MOL0     H24124   0.942   8.127   2.656 -2.1234  1.4081 -0.6170
  179MOL0     H24125   0.915   7.868   3.025 -1.4102  0.1153  1.9300
  179MOL0     H24126   0.904   7.903   3.270 -1.4159  0.7045  0.1517
  179MOL0     H24127   0.924   7.809   3.607 -0.4043  0.7195 -2.1319
  179MOL0     H24128   1.062   7.750   3.822  0.4758 -0.0180  0.0588
  179MOL0     H24129   1.177   8.025   4.046 -2.0034 -0.9217  3.1545
  179MOL0     H24130   1.134   7.861   4.057 -0.5082  0.8850  1.3615
  179MOL0     H24131   1.272   7.922   4.264  0.5015  1.7492  0.1534
  179MOL0     H24132   1.375   7.818   4.150 -1.1000 -0.6541 -0.0124
  179MOL0     H24133   1.516   8.004   4.183  1.1730  1.8420  0.5204
  179MOL0     H24134   1.431   8.061   4.045  0.6971 -3.1118  0.0080
  179MOL0     H24135   1.346   8.130   4.328  2.6298  1.2528  0.1595
  179MOL0     H24136   1.268   8.186   4.173  2.1087  0.7061 -3.9994
  179MOL0     H24137   1.481   8.288   4.113  1.9192 -0.1957  0.3563
  179MOL0     H24138   1.556   8.236   4.261  1.7635  4.3541  2.6690
  179MOL0     H24139   1.495   8.401   4.380 -0.2633  0.1443  0.1918
  179MOL0     H24140   1.457   8.490   4.231 -2.7885  0.2599 -0.1948
  179MOL0     H24141   1.263   8.500   4.398 -5.0905  0.4283 -0.9376
  179MOL0     H24142   1.229   8.333   4.359 -1.8442  0.2410 -0.2397
  179MOL0     H24143   1.226   8.377   4.121  1.1273  0.3253  0.9534
  179MOL0     H24144   1.098   8.451   4.217 -0.2458  1.6298  1.6557
  179MOL0     H24145   1.279   8.114   3.756  0.5677  1.2067 -3.5651
  179MOL0     H24146   1.144   8.175   3.600  1.2365 -0.6382  1.7862
  179MOL0     H24147   0.906   8.324   3.216 -2.7651  0.9872 -1.2405
  179MOL0     H24148   0.878   8.301   2.987 -0.4107 -0.2607  0.3811
  179MOL0     H24149   0.981   9.146   1.785 -0.0335 -1.9535 -1.6208
  179MOL0     H24150   1.223   9.123   1.837  0.7396 -0.7425  0.9176
  179MOL0     H24151   1.510   9.374   2.189  1.6429  1.2888  0.9215
  179MOL0     H24152   1.753   9.388   2.248  0.9447 -0.9873 -3.6991
  179MOL0     H24153   1.986   9.062   2.233  0.8939 -3.4057  0.9225
  179MOL0     H24154   1.998   9.020   2.401  1.9664 -0.6527 -1.0740
  179MOL0     H24155   2.138   9.231   2.228  1.8565 -0.2691 -0.8262
  179MOL0     H24156   2.217   9.106   2.312  0.7080  1.0601 -0.9680
  179MOL0     H24157   2.263   9.240   2.480 -2.0852 -2.1552  3.2524
  179MOL0     H24158   2.093   9.265   2.524  0.9883  2.8794  2.6768
  179MOL0     H24159   2.238   9.463   2.330  0.8760 -0.3704  0.9723
  179MOL0     H24160   2.067   9.425   2.334 -0.7387 -1.7282  1.3266
  179MOL0     H24161   2.136   9.653   2.679 -0.7334  1.5582 -1.1002
  179MOL0     H24162   1.763   8.978   2.326  0.6474  1.3887 -0.8367
  179MOL0     H24163   1.487   8.866   2.131 -0.1081 -2.7817  0.9506
  179MOL0     H24164   1.620   8.825   2.235 -3.0829 -2.2231  0.9326
  179MOL0     H24165   1.470   8.878   2.304 -1.5804  0.3629 -0.5852
  180MOL0     O24166  10.944  10.917   4.167 -0.1226 -1.1828  0.1777
  180MOL0     C24167  10.991  10.811   4.138  0.7019 -0.1245  0.7599
  180MOL0     O24168  11.114  10.790   4.069 -0.5293  0.2691 -0.1374
  180MOL0     C24169  11.187  10.886   4.008 -1.3822 -0.3497 -1.2611
  180MOL0     C24170  11.328  10.878   4.017 -1.5348  0.1920  0.0112
  180MOL0     C24171  11.405  10.970   3.946 -0.3822  0.1003 -0.2868
  180MOL0     C24172  11.355  11.080   3.879  1.3432 -0.0551  0.3041
  180MOL0     O24173  11.442  11.170   3.819  0.0691  0.4173 -0.1326
  180MOL0     C24174  11.566  11.126   3.753  0.4490 -1.3784 -0.5964
  180MOL0     C24175  11.619  11.224   3.642 -0.0822  0.1191  0.2972
  180MOL0     C24176  11.585  11.191   3.499  0.4356 -0.0765  0.1741
  180MOL0     C24177  11.696  11.103   3.436 -0.1824  0.3406  0.4464
  180MOL0     C24178  11.820  11.172   3.378  0.2251 -0.2277  0.3109
  180MOL0     C24179  11.809  11.228   3.226  0.3929  1.0512  0.5598
  180MOL0     C24180  11.868  11.135   3.125 -0.2911  0.3335 -0.4663
  180MOL0     C24181  11.788  11.002   3.091  0.1463  0.1679  0.3421
  180MOL0     N24182  11.654  11.021   3.028  0.0789  0.6932  1.6850
  180MOL0     C24183  11.613  11.130   2.947 -0.1327 -0.4766  0.5115
  180MOL0     C24184  11.485  11.098   2.909 -0.0601 -0.3384  0.8255
  180MOL0     C24185  11.402  11.175   2.812 -0.4804 -0.3738  0.0430
  180MOL0     C24186  11.267  11.224   2.855 -0.3460  0.2613  0.4218
  180MOL0     C24187  11.269  11.292   3.000  0.2255 -0.4233 -0.2174
  180MOL0     C24188  11.145  11.372   3.031 -0.6878 -0.3985 -0.0427
  180MOL0     O24189  11.146  11.411   3.176 -0.0000 -1.1455  0.7400
  180MOL0     C24190  11.221  11.501   3.243 -1.1679 -0.6427  0.2572
  180MOL0     C24191  11.211  11.492   3.379  0.2403  0.3763  0.4545
  180MOL0     C24192  11.279  11.571   3.471  0.7351 -0.4490 -0.5558
  180MOL0     C24193  11.375  11.661   3.415 -0.4694  0.2084 -0.6149
  180MOL0     C24194  11.442  11.765   3.498 -0.3756 -0.9911 -0.6010
  180MOL0     O24195  11.560  11.805   3.461 -0.0053  0.4434  0.2046
  180MOL0     C24196  11.640  11.887   3.539  0.2631  0.8428 -0.2019
  180MOL0     C24197  11.658  11.868   3.681  0.1581  0.1444  0.0130
  180MOL0     C24198  11.752  11.944   3.749 -0.0833  0.5213  0.0151
  180MOL0     C24199  11.833  12.039   3.688  0.2713  0.4635 -0.3750
  180MOL0     O24200  11.950  12.079   3.756  0.2103 -0.4212 -0.1625
  180MOL0     C24201  11.961  12.102   3.895 -0.6231 -0.4244 -0.2220
  180MOL0     C24202  12.039  11.990   3.964  0.2497 -0.6120  0.3089
  180MOL0     C24203  12.173  11.956   3.884 -0.0252  0.5456 -0.0021
  180MOL0     C24204  12.178  11.815   3.827  0.2734 -0.4196 -0.8133
  180MOL0     C24205  12.314  11.785   3.778 -0.3938 -0.9061  0.7314
  180MOL0     C24206  12.300  11.677   3.671  1.0603  0.9787  0.6994
  180MOL0     C24207  12.432  11.633   3.609  0.6900  0.7215  0.1399
  180MOL0     C24208  12.448  11.697   3.466 -0.0437  0.2244 -0.3148
  180MOL0    Cl24209  12.582  11.619   3.374 -0.3573  0.0564  0.0019
  180MOL0     C24210  11.816  12.063   3.553  0.8757  0.5062  0.2521
  180MOL0     C24211  11.730  11.982   3.482  0.2077  1.5478  0.3099
  180MOL0     O24212  11.390  11.791   3.606 -0.3929  0.1546 -0.0792
  180MOL0     C24213  11.384  11.682   3.274 -0.3389 -1.0852  0.1575
  180MOL0     C24214  11.305  11.603   3.194  0.4198 -0.4333  0.3225
  180MOL0     N24215  11.453  10.982   2.981  0.5075 -0.2884  0.1335
  180MOL0     N24216  11.556  10.931   3.041  0.2003  0.2594  0.2242
  180MOL0     C24217  11.216  11.085   3.871 -0.3129 -0.2568 -0.1146
  180MOL0     C24218  11.135  10.999   3.937 -0.3710 -0.4650 -0.1071
  180MOL0     C24219  10.899  10.700   4.172  0.8136  0.7586  0.0239
  180MOL0     C24220  10.758  10.710   4.159  0.6303  0.5504 -0.7786
  180MOL0     C24221  10.672  10.604   4.193 -1.1283 -0.6414 -0.2463
  180MOL0     C24222  10.727  10.481   4.237 -0.5255  0.0259  0.1907
  180MOL0     O24223  10.646  10.377   4.266 -0.2012 -0.0142  0.1852
  180MOL0     C24224  10.583  10.299   4.159  0.2746 -0.9326  0.4170
  180MOL0     C24225  10.686  10.237   4.066 -0.2014  0.2775 -0.3078
  180MOL0     C24226  10.797  10.148   4.116 -0.2066  0.4081  0.5406
  180MOL0     C24227  10.852  10.029   4.035 -0.7451  0.0162 -0.5002
  180MOL0     C24228  10.943   9.970   4.121 -0.9379  0.5828 -0.7711
  180MOL0     C24229  11.020   9.913   4.197 -0.7618 -0.7375  0.2853
  180MOL0     C24230  10.865  10.469   4.263 -0.9419  0.1739  0.2477
  180MOL0     C24231  10.949  10.576   4.226 -0.3901 -1.2721 -0.2625
  180MOL0     C24232  11.100  10.551   4.245  0.7196  0.3047  0.4989
  180MOL0     H24233  11.371  10.798   4.076 -3.6419 -0.0299  1.3332
  180MOL0     H24234  11.510  10.947   3.938 -0.4274 -1.8657  2.8415
  180MOL0     H24235  11.634  11.113   3.838 -0.4601 -2.2529  0.0117
  180MOL0     H24236  11.547  11.024   3.718  1.4619 -1.8003  0.0478
  180MOL0     H24237  11.728  11.232   3.653 -0.1533  1.9344  0.0113
  180MOL0     H24238  11.582  11.325   3.663 -0.4132 -0.3371  2.1073
  180MOL0     H24239  11.569  11.280   3.438  0.2183 -1.1691 -1.4181
  180MOL0     H24240  11.491  11.137   3.494 -0.7148  1.7654  0.9167
  180MOL0     H24241  11.736  11.046   3.520  0.5194  0.5083  0.2406
  180MOL0     H24242  11.653  11.036   3.361 -0.7852  2.4703 -1.2276
  180MOL0     H24243  11.861  11.248   3.444  0.8514  1.4412 -1.8650
  180MOL0     H24244  11.904  11.102   3.369 -1.0163 -1.9616  1.5893
  180MOL0     H24245  11.704  11.252   3.207  0.9272  3.0595 -0.0601
  180MOL0     H24246  11.859  11.323   3.206  1.7230  0.2969  0.2045
  180MOL0     H24247  11.974  11.115   3.142 -0.2705 -0.5582 -1.5405
  180MOL0     H24248  11.863  11.186   3.029 -0.6532 -1.3631 -1.3888
  180MOL0     H24249  11.830  10.933   3.018  0.4044  1.0627 -0.3615
  180MOL0     H24250  11.777  10.947   3.185  1.2163  2.0342  1.6198
  180MOL0     H24251  11.676  11.209   2.907 -2.3986 -0.0989 -2.6969
  180MOL0     H24252  11.457  11.259   2.768 -0.2648 -0.7394 -0.3946
  180MOL0     H24253  11.387  11.114   2.722  0.2096 -2.1318  1.0760
  180MOL0     H24254  11.233  11.296   2.780  1.4875  1.1173  0.3711
  180MOL0     H24255  11.188  11.148   2.853 -0.3951  0.2645 -2.5536
  180MOL0     H24256  11.360  11.352   3.003 -0.5109  0.8881 -2.2910
  180MOL0     H24257  11.280  11.211   3.074 -1.1629 -0.3915  0.0551
  180MOL0     H24258  11.052  11.319   3.007 -1.3960  0.8966 -0.2424
  180MOL0     H24259  11.156  11.461   2.969  1.5527  0.6203  1.6700
  180MOL0     H24260  11.161  11.400   3.409  2.2244 -1.3693 -1.2455
  180MOL0     H24261  11.286  11.554   3.578  3.5367 -1.6025 -0.8440
  180MOL0     H24262  11.600  11.793   3.733  0.3995  0.5925  0.9408
  180MOL0     H24263  11.758  11.921   3.855  0.8990  0.9349  0.0600
  180MOL0     H24264  12.012  12.196   3.917  1.7021 -2.0370  1.8310
  180MOL0     H24265  11.866  12.122   3.945  0.0053 -0.1197  0.8818
  180MOL0     H24266  12.075  12.026   4.061  1.5762  0.3262 -0.5009
  180MOL0     H24267  11.975  11.902   3.979  0.2981 -1.5238 -3.7086
  180MOL0     H24268  12.184  12.028   3.803 -0.6998  0.1189 -0.4799
  180MOL0     H24269  12.264  11.958   3.945  0.3542 -2.0617 -0.3544
  180MOL0     H24270  12.109  11.826   3.743 -2.2896  3.0474  1.5039
  180MOL0     H24271  12.144  11.735   3.894  0.5599  0.5321  0.5174
  180MOL0     H24272  12.377  11.753   3.862  2.8356  0.3663 -1.0236
  180MOL0     H24273  12.366  11.865   3.723 -3.8624  1.2513  0.3025
  180MOL0     H24274  12.251  11.596   3.726  0.3782  2.1068  1.7854
  180MOL0     H24275  12.227  11.697   3.591  1.0268 -0.1933  0.4182
  180MOL0     H24276  12.442  11.525   3.599 -0.1538  0.6007  0.5341
  180MOL0     H24277  12.518  11.663   3.671  0.0729  0.3490  1.2156
  180MOL0     H24278  12.358  11.689   3.405  1.4607  0.8886 -2.8090
  180MOL0     H24279  12.470  11.804   3.478  3.5342 -0.5976  1.7082
  180MOL0     H24280  11.861  12.150   3.506 -1.2559  0.3269 -2.4012
  180MOL0     H24281  11.703  12.018   3.383 -1.6680  1.3645  0.7127
  180MOL0     H24282  11.450  11.760   3.238  1.6948 -0.6801  4.1808
  180MOL0     H24283  11.311  11.621   3.087 -1.9349  2.7375  0.5924
  180MOL0     H24284  11.167  11.168   3.821 -0.0717 -0.3986 -0.5925
  180MOL0     H24285  11.027  11.005   3.925 -0.7279 -2.3869  1.4395
  180MOL0     H24286  10.709  10.803   4.133  1.2066  1.1918  0.3728
  180MOL0     H24287  10.563  10.605   4.186 -1.1673  1.4925 -0.0034
  180MOL0     H24288  10.516  10.363   4.102 -0.8572 -1.6740  0.8768
  180MOL0     H24289  10.519  10.222   4.203 -0.0330 -0.1098  1.4550
  180MOL0     H24290  10.728  10.316   4.004 -1.6947  0.2502 -1.3996
  180MOL0     H24291  10.626  10.172   4.002 -1.1613  2.1854 -1.4069
  180MOL0     H24292  10.767  10.112   4.214  3.3037  3.7138  3.1172
  180MOL0     H24293  10.889  10.203   4.134  0.5379 -1.1360  1.5620
  180MOL0     H24294  10.777   9.961   3.994  0.4629 -2.6282  1.3767
  180MOL0     H24295  10.898  10.082   3.951 -2.4220  0.6253 -1.0732
  180MOL0     H24296  11.104   9.869   4.247  2.2528  1.2535 -2.6733
  180MOL0     H24297  10.895  10.378   4.312 -0.6378  0.2119  0.1337
  180MOL0     H24298  11.142  10.578   4.342  1.7290 -2.1207  0.8006
  180MOL0     H24299  11.119  10.445   4.228  1.0346  0.6068 -1.2135
  180MOL0     H24300  11.176  10.594   4.179  2.9738 -3.1643  0.6103
  181MOL0     O24301   7.846   6.721   7.597 -0.0092  0.1844 -0.8714
  181MOL0     C24302   7.808   6.599   7.587  0.1379 -0.4376  0.0741
  181MOL0     O24303   7.889   6.489   7.538  0.3195  0.0884 -0.5728
  181MOL0     C24304   7.992   6.503   7.449 -0.3817 -0.9410  0.0780
  181MOL0     C24305   8.065   6.617   7.408  0.1261  0.0208  0.8137
  181MOL0     C24306   8.177   6.606   7.326 -0.5355  0.1906  0.9936
  181MOL0     C24307   8.223   6.481   7.283  1.4379 -0.0353 -0.3078
  181MOL0     O24308   8.335   6.490   7.207  0.1844 -0.3078  0.9590
  181MOL0     C24309   8.414   6.370   7.174 -0.2054 -0.4244 -0.3679
  181MOL0     C24310   8.564   6.403   7.177  0.8914  0.3997  0.2262
  181MOL0     C24311   8.646   6.275   7.166  0.4000  0.4604 -0.5756
  181MOL0     C24312   8.648   6.194   7.029  0.2424 -0.7304 -0.6514
  181MOL0     C24313   8.765   6.107   7.024 -0.9736 -0.7006 -0.8645
  181MOL0     C24314   8.773   6.027   6.885 -0.4793 -0.4347  0.8746
  181MOL0     C24315   8.901   5.945   6.867 -0.2177 -0.0987 -0.0214
  181MOL0     C24316   8.899   5.795   6.863 -0.0171  0.3053  0.8041
  181MOL0     N24317   9.032   5.741   6.825 -0.5383 -0.2106 -0.0245
  181MOL0     C24318   9.064   5.689   6.704 -0.5429 -0.1008 -0.6129
  181MOL0     C24319   9.194   5.651   6.724 -0.2024 -0.2075  0.0649
  181MOL0     C24320   9.290   5.591   6.622  0.2951 -0.1400 -0.6803
  181MOL0     C24321   9.404   5.694   6.591  0.7394  0.5171 -0.7923
  181MOL0     C24322   9.522   5.627   6.498 -0.7560  0.0907 -0.4892
  181MOL0     C24323   9.598   5.738   6.427  0.2694  1.2354 -0.9202
  181MOL0     O24324   9.676   5.682   6.318  0.0661 -0.0848 -0.2440
  181MOL0     C24325   9.806   5.653   6.352 -0.4584  0.1545 -0.1800
  181MOL0     C24326   9.843   5.540   6.423 -0.8667  1.1197  0.6684
  181MOL0     C24327   9.980   5.516   6.437 -0.3815  0.2547  0.2625
  181MOL0     C24328  10.078   5.610   6.392  0.1936  0.8861  1.1094
  181MOL0     C24329  10.221   5.590   6.417 -0.0642  0.0505 -0.0969
  181MOL0     O24330  10.260   5.459   6.425  0.6202 -0.0402  0.9412
  181MOL0     C24331  10.391   5.436   6.429  0.5145  1.2043  0.8297
  181MOL0     C24332  10.436   5.366   6.538 -0.8025  0.4266 -0.2191
  181MOL0     C24333  10.569   5.334   6.565  1.1631  0.1214  0.4975
  181MOL0     C24334  10.666   5.370   6.474 -0.2182  0.1010 -0.0031
  181MOL0     O24335  10.787   5.332   6.508 -0.1664  0.5960  0.7374
  181MOL0     C24336  10.895   5.360   6.417  0.7422 -0.1988 -0.5818
  181MOL0     C24337  11.031   5.316   6.479  0.7585  0.4849 -0.5991
  181MOL0     C24338  11.143   5.261   6.377  0.0680  0.8242  0.4855
  181MOL0     C24339  11.121   5.306   6.235 -0.5466  0.2656 -0.5331
  181MOL0     C24340  11.242   5.285   6.147  0.2317  0.9722 -0.8506
  181MOL0     C24341  11.363   5.374   6.179 -0.5646 -0.6379 -0.6815
  181MOL0     C24342  11.483   5.325   6.086 -0.1565  0.2191  0.0090
  181MOL0     C24343  11.455   5.359   5.939  0.1023 -0.4322  0.0289
  181MOL0    Cl24344  11.574   5.261   5.845  0.3879  0.3921 -0.2038
  181MOL0     C24345  10.629   5.452   6.359 -0.4094  0.1033 -0.2128
  181MOL0     C24346  10.492   5.481   6.342  0.7455 -0.0197  1.0840
  181MOL0     O24347  10.284   5.693   6.457 -1.2291 -0.0411  0.0909
  181MOL0     C24348  10.040   5.731   6.339  0.0013 -0.9684  0.4606
  181MOL0     C24349   9.900   5.751   6.313 -0.4106  0.1717  0.9899
  181MOL0     N24350   9.228   5.681   6.855 -0.8773  0.6005  0.9057
  181MOL0     N24351   9.130   5.726   6.919  0.3120  0.1599 -0.2182
  181MOL0     C24352   8.149   6.361   7.325 -0.3193 -0.3405 -0.4579
  181MOL0     C24353   8.043   6.375   7.417 -0.2633 -0.1824  0.6454
  181MOL0     C24354   7.684   6.545   7.659 -0.6974 -0.9200 -0.3349
  181MOL0     C24355   7.682   6.411   7.698  0.2318  1.0803  0.0469
  181MOL0     C24356   7.577   6.357   7.766 -0.0391  0.0930  0.6630
  181MOL0     C24357   7.458   6.426   7.781 -0.1537  0.3553  0.0578
  181MOL0     O24358   7.353   6.353   7.833 -0.2518 -0.2843  0.0132
  181MOL0     C24359   7.223   6.418   7.845 -0.4510  0.4869 -0.0641
  181MOL0     C24360   7.104   6.317   7.868  0.1203 -0.5162 -0.0773
  181MOL0     C24361   6.974   6.396   7.848 -0.7606  0.2163 -0.0614
  181MOL0     C24362   6.845   6.304   7.847 -0.0280  0.4755  0.1184
  181MOL0     C24363   6.727   6.392   7.861 -0.3471  1.0855  0.5076
  181MOL0     C24364   6.619   6.440   7.861 -0.5027 -0.1933  0.0405
  181MOL0     C24365   7.453   6.558   7.727 -1.1189 -0.5994 -0.4176
  181MOL0     C24366   7.566   6.617   7.676 -0.0649 -0.2967  0.6582
  181MOL0     C24367   7.560   6.760   7.650  1.1711  0.0216  1.1327
  181MOL0     H24368   8.028   6.718   7.417 -2.2364 -0.4827 -1.7196
  181MOL0     H24369   8.236   6.693   7.298 -2.1511  0.8888 -0.4002
  181MOL0     H24370   8.411   6.296   7.255  0.2645  0.3982  0.4300
  181MOL0     H24371   8.382   6.339   7.075 -2.5959  2.0853 -0.5168
  181MOL0     H24372   8.591   6.462   7.265 -2.8871  3.5649 -0.4562
  181MOL0     H24373   8.594   6.459   7.088  2.7447 -0.3574  0.3390
  181MOL0     H24374   8.621   6.201   7.243 -1.5024 -1.8955 -3.2294
  181MOL0     H24375   8.747   6.312   7.184 -0.3038  1.7686  1.0097
  181MOL0     H24376   8.554   6.143   7.009 -1.0286  1.7303 -1.3665
  181MOL0     H24377   8.662   6.265   6.947 -1.5752 -0.0359 -0.3933
  181MOL0     H24378   8.858   6.165   7.033 -0.1806 -2.1676  4.7904
  181MOL0     H24379   8.773   6.042   7.112 -0.4560  0.2576 -0.1800
  181MOL0     H24380   8.680   5.971   6.871 -1.5446  1.5029 -0.2610
  181MOL0     H24381   8.772   6.098   6.801 -0.1536 -0.9256  0.4508
  181MOL0     H24382   8.971   5.975   6.946 -0.0154  2.4655 -1.0696
  181MOL0     H24383   8.958   5.990   6.786  1.7612  1.2047  1.9768
  181MOL0     H24384   8.855   5.755   6.955  1.0111  0.2819  1.3052
  181MOL0     H24385   8.833   5.766   6.781  0.7160  0.0868  0.2837
  181MOL0     H24386   9.009   5.688   6.610  1.0596  1.2455 -1.6417
  181MOL0     H24387   9.333   5.500   6.666 -0.2957  0.2921  0.8824
  181MOL0     H24388   9.241   5.573   6.526 -0.3817  0.4423 -0.4587
  181MOL0     H24389   9.354   5.783   6.550 -1.4761 -1.1126 -1.8170
  181MOL0     H24390   9.458   5.733   6.678  2.7412  0.5848 -1.9986
  181MOL0     H24391   9.487   5.551   6.428 -0.9147  0.0445 -0.3598
  181MOL0     H24392   9.589   5.585   6.573  0.4466 -2.8989 -3.0400
  181MOL0     H24393   9.657   5.793   6.500  1.5373 -1.5790  0.3106
  181MOL0     H24394   9.521   5.804   6.386 -1.1279 -1.4539 -2.9862
  181MOL0     H24395   9.783   5.475   6.485  0.2641 -0.3713  0.2436
  181MOL0     H24396  10.020   5.431   6.491  0.7160  0.6420  0.0907
  181MOL0     H24397  10.369   5.323   6.612  0.2915 -0.2074  0.4211
  181MOL0     H24398  10.594   5.268   6.648 -2.6281 -3.1405 -0.6106
  181MOL0     H24399  10.873   5.304   6.326 -0.8825  0.0766 -0.3901
  181MOL0     H24400  10.898   5.465   6.389 -3.3643  0.9757  2.4225
  181MOL0     H24401  11.079   5.392   6.541  0.9279 -1.5403  1.9094
  181MOL0     H24402  11.014   5.225   6.536  1.2216 -0.1797 -1.4992
  181MOL0     H24403  11.236   5.289   6.428 -0.3141 -1.8401  2.9259
  181MOL0     H24404  11.146   5.152   6.381  1.6434  0.8670  2.3595
  181MOL0     H24405  11.104   5.413   6.250  0.7289  0.9621 -3.3905
  181MOL0     H24406  11.038   5.261   6.180  1.0765 -2.5469 -0.9012
  181MOL0     H24407  11.198   5.319   6.052 -2.0941  2.2534  0.6075
  181MOL0     H24408  11.263   5.178   6.138 -2.1479  0.2158  1.5180
  181MOL0     H24409  11.347   5.480   6.157 -0.1724 -0.4562 -0.1268
  181MOL0     H24410  11.393   5.358   6.283  0.2562 -2.0920 -1.1094
  181MOL0     H24411  11.507   5.218   6.091  0.7311  0.3803 -0.6361
  181MOL0     H24412  11.579   5.371   6.109  0.2983  0.0436 -1.4286
  181MOL0     H24413  11.356   5.335   5.897 -0.5357  2.1697 -0.1255
  181MOL0     H24414  11.456   5.465   5.914 -2.9140 -0.3153 -0.0601
  181MOL0     H24415  10.709   5.500   6.303 -1.2970  0.2230 -1.4132
  181MOL0     H24416  10.464   5.557   6.270  4.3682  2.0519  1.6093
  181MOL0     H24417  10.103   5.815   6.315 -1.4584  0.4752  1.3965
  181MOL0     H24418   9.863   5.831   6.249 -2.4924 -2.5565 -1.4915
  181MOL0     H24419   8.177   6.263   7.286  0.6414 -0.3611  0.2660
  181MOL0     H24420   8.003   6.283   7.457  2.1625 -2.2224 -1.3065
  181MOL0     H24421   7.753   6.330   7.685 -1.6654 -0.5674 -0.4408
  181MOL0     H24422   7.565   6.261   7.814 -0.3518  0.5844  1.5862
  181MOL0     H24423   7.193   6.465   7.751 -0.1613 -3.5709 -2.4249
  181MOL0     H24424   7.228   6.499   7.918 -0.0146  0.1017  0.3367
  181MOL0     H24425   7.107   6.265   7.964  0.0520  2.2763  1.5280
  181MOL0     H24426   7.102   6.236   7.794  1.2278 -1.1772  0.5973
  181MOL0     H24427   6.972   6.449   7.752  2.0403 -0.7137 -0.7243
  181MOL0     H24428   6.969   6.462   7.935 -1.4536 -2.4510  2.0482
  181MOL0     H24429   6.842   6.246   7.755 -1.3945  0.6188  0.0642
  181MOL0     H24430   6.845   6.235   7.933 -1.5898  1.8262  1.2719
  181MOL0     H24431   6.530   6.496   7.882  0.5865  1.9334 -0.7767
  181MOL0     H24432   7.360   6.614   7.733  0.1968  1.7501 -0.8396
  181MOL0     H24433   7.603   6.785   7.552 -0.8476 -4.0059 -1.0315
  181MOL0     H24434   7.455   6.793   7.649  1.0818 -0.1237 -1.2850
  181MOL0     H24435   7.611   6.813   7.731 -0.7675  0.0168  2.4094
  182MOL0     O24436   5.856   2.068   3.308 -0.4711 -0.0651 -0.4767
  182MOL0     C24437   5.748   2.043   3.249 -0.3611 -0.0764 -0.4019
  182MOL0     O24438   5.713   1.920   3.198  0.2236 -0.8673  1.0468
  182MOL0     C24439   5.774   1.808   3.241 -0.1118  0.0225 -0.0975
  182MOL0     C24440   5.749   1.748   3.366 -0.7827 -0.5582  0.3777
  182MOL0     C24441   5.784   1.616   3.389 -0.6368 -0.2951  0.4158
  182MOL0     C24442   5.858   1.543   3.293  0.1316  0.5641 -0.2127
  182MOL0     O24443   5.891   1.409   3.290 -0.3680 -0.1508 -0.3599
  182MOL0     C24444   5.815   1.323   3.370  0.2161  0.4145 -0.7692
  182MOL0     C24445   5.668   1.289   3.316  0.1550 -0.5749 -0.3001
  182MOL0     C24446   5.624   1.155   3.380 -0.6371 -0.5936 -0.2528
  182MOL0     C24447   5.502   1.091   3.311 -0.3109 -0.2191  2.0693
  182MOL0     C24448   5.441   0.960   3.376 -1.3494 -0.4309  0.0724
  182MOL0     C24449   5.316   0.901   3.307 -0.4068  0.1359  0.4380
  182MOL0     C24450   5.230   0.813   3.399 -0.1342 -0.6925  0.1978
  182MOL0     C24451   5.291   0.665   3.392  0.1818 -0.3097 -0.5075
  182MOL0     N24452   5.191   0.582   3.460  0.6193 -0.0862  0.4263
  182MOL0     C24453   5.095   0.509   3.396  0.1141 -0.7116 -0.9953
  182MOL0     C24454   5.018   0.449   3.492 -0.0229  0.6663  0.2975
  182MOL0     C24455   4.884   0.368   3.474 -0.9135 -0.3469  0.1127
  182MOL0     C24456   4.852   0.277   3.596 -0.1571 -0.1128 -0.1476
  182MOL0     C24457   4.696   0.234   3.596  0.6763  0.3186  0.5069
  182MOL0     C24458   4.628   0.228   3.731  0.1785  0.1988 -0.8620
  182MOL0     O24459   4.712   0.149   3.811  0.5941 -0.2959  0.0733
  182MOL0     C24460   4.685   0.122   3.944  1.3009  0.0562 -0.8509
  182MOL0     C24461   4.573   0.171   4.016  0.2098  0.5038  0.1341
  182MOL0     C24462   4.555   0.112   4.142  0.3266  0.7249  0.0237
  182MOL0     C24463   4.647   0.018   4.207  0.4613 -1.3529  0.2682
  182MOL0     C24464   4.619  -0.044   4.334  0.7902  0.5284  0.6533
  182MOL0     O24465   4.697  -0.149   4.384  0.1816  0.8145  0.6340
  182MOL0     C24466   4.676  -0.186   4.509 -1.0282  0.9375 -0.1796
  182MOL0     C24467   4.552  -0.219   4.562 -0.7650 -0.4577  0.0839
  182MOL0     C24468   4.555  -0.253   4.698  0.2570  0.6126 -0.4594
  182MOL0     C24469   4.674  -0.275   4.774  1.0696 -0.4636 -0.2157
  182MOL0     O24470   4.682  -0.321   4.900  0.4438  0.6907 -0.0543
  182MOL0     C24471   4.569  -0.318   4.992  0.2195 -0.1724 -0.5061
  182MOL0     C24472   4.609  -0.341   5.144  0.7666 -0.5042 -0.4625
  182MOL0     C24473   4.666  -0.482   5.150 -0.6345  0.3341  0.3605
  182MOL0     C24474   4.699  -0.527   5.294  0.6051  0.1520 -1.0439
  182MOL0     C24475   4.759  -0.675   5.308  0.8430  0.4462 -0.0692
  182MOL0     C24476   4.902  -0.693   5.328  0.8576  0.6025  0.2525
  182MOL0     C24477   4.973  -0.685   5.193  0.6325 -0.3203 -1.0173
  182MOL0     C24478   5.086  -0.576   5.211  0.3227 -0.4427  1.1577
  182MOL0    Cl24479   5.022  -0.397   5.201 -0.0168 -0.5783 -0.0105
  182MOL0     C24480   4.790  -0.261   4.707 -0.5561 -0.2315 -0.1347
  182MOL0     C24481   4.798  -0.218   4.580  0.2430 -1.2705 -0.7400
  182MOL0     O24482   4.526   0.008   4.400  0.2903 -0.0914 -0.5464
  182MOL0     C24483   4.765  -0.012   4.141 -0.6154  0.8309 -0.6754
  182MOL0     C24484   4.783   0.046   4.011  0.3871  0.7823  0.7298
  182MOL0     N24485   5.082   0.476   3.613 -0.5645  1.0278  0.5823
  182MOL0     N24486   5.178   0.549   3.591 -0.1582 -0.4112  0.3043
  182MOL0     C24487   5.899   1.605   3.176 -0.3414 -0.1769 -0.3319
  182MOL0     C24488   5.855   1.737   3.146  0.3071 -0.6520  0.7305
  182MOL0     C24489   5.673   2.164   3.204 -0.3782 -0.1691 -0.6134
  182MOL0     C24490   5.595   2.139   3.086 -0.4284 -0.3418 -0.7808
  182MOL0     C24491   5.518   2.241   3.029  0.2751 -0.0731 -0.0117
  182MOL0     C24492   5.511   2.364   3.096  0.0384  1.4177  0.5799
  182MOL0     O24493   5.421   2.456   3.049 -0.2336 -0.0615  0.1107
  182MOL0     C24494   5.477   2.535   2.948 -0.0633  1.0568 -0.0852
  182MOL0     C24495   5.408   2.662   2.936  0.2938 -0.4614  0.1505
  182MOL0     C24496   5.440   2.752   3.057  0.3875 -0.3116 -0.2062
  182MOL0     C24497   5.394   2.900   3.037  0.6389  0.5988 -0.4770
  182MOL0     C24498   5.380   2.953   3.181 -0.3773 -0.1864  0.3946
  182MOL0     C24499   5.360   2.992   3.293 -0.2829  0.1299  0.0748
  182MOL0     C24500   5.592   2.390   3.206  0.7572 -0.5785 -0.0063
  182MOL0     C24501   5.674   2.293   3.264  0.2562  0.3166 -0.4945
  182MOL0     C24502   5.750   2.338   3.378 -0.3542  0.9041 -0.5663
  182MOL0     H24503   5.689   1.797   3.442 -0.2713 -0.1013  0.4937
  182MOL0     H24504   5.745   1.577   3.483  1.3562  0.9448  1.8494
  182MOL0     H24505   5.869   1.229   3.376 -0.5450  0.0508  3.0724
  182MOL0     H24506   5.801   1.355   3.474 -0.7527 -0.2830 -0.6653
  182MOL0     H24507   5.678   1.269   3.209  1.2723 -2.8199  0.1546
  182MOL0     H24508   5.605   1.373   3.346  1.0161 -0.5201  1.4755
  182MOL0     H24509   5.606   1.169   3.487  3.7971  0.4063  0.5835
  182MOL0     H24510   5.708   1.086   3.369  0.4539  0.5000  0.7582
  182MOL0     H24511   5.421   1.161   3.290  1.1629  1.0650  0.2395
  182MOL0     H24512   5.547   1.072   3.213  0.3516 -0.3019  2.3829
  182MOL0     H24513   5.516   0.880   3.376 -1.1788 -0.2709  0.0677
  182MOL0     H24514   5.420   0.979   3.481  0.6626  0.5219  0.3463
  182MOL0     H24515   5.257   0.987   3.275  1.3367  0.5060 -2.0798
  182MOL0     H24516   5.345   0.847   3.216 -1.5008  0.3205 -0.0345
  182MOL0     H24517   5.128   0.806   3.363  0.5933  0.2049 -2.2105
  182MOL0     H24518   5.225   0.864   3.496  3.0361  2.2989 -0.9877
  182MOL0     H24519   5.314   0.615   3.298  2.2269 -1.1881  0.3807
  182MOL0     H24520   5.382   0.675   3.452 -0.5455 -2.0864  0.9857
  182MOL0     H24521   5.067   0.502   3.291  0.1621 -0.2595 -1.0405
  182MOL0     H24522   4.803   0.441   3.467 -2.1462 -1.8148 -2.0370
  182MOL0     H24523   4.869   0.309   3.383  1.0124  1.0778 -1.2110
  182MOL0     H24524   4.911   0.185   3.593  0.3579  0.1786  0.8233
  182MOL0     H24525   4.874   0.341   3.682  0.0333 -1.5567  0.9079
  182MOL0     H24526   4.679   0.137   3.550  1.4071  0.6590 -0.5230
  182MOL0     H24527   4.631   0.296   3.533 -0.3883 -0.6030  0.6742
  182MOL0     H24528   4.531   0.179   3.720 -0.1091  0.5827 -0.1019
  182MOL0     H24529   4.611   0.327   3.774  1.6335 -1.0353  2.9788
  182MOL0     H24530   4.499   0.233   3.967 -0.4016 -0.7445 -0.5490
  182MOL0     H24531   4.473   0.139   4.207  2.2277 -0.0172  2.9310
  182MOL0     H24532   4.457  -0.192   4.515 -1.6634  1.2490  2.6369
  182MOL0     H24533   4.464  -0.261   4.756 -0.1763 -1.0311 -1.3244
  182MOL0     H24534   4.514  -0.223   4.994  1.8265  0.7944  0.2488
  182MOL0     H24535   4.498  -0.398   4.971 -1.2270  0.9917 -0.2102
  182MOL0     H24536   4.677  -0.261   5.173 -2.5700  2.4735 -0.2882
  182MOL0     H24537   4.525  -0.334   5.214  3.0051 -2.0409  2.5989
  182MOL0     H24538   4.591  -0.551   5.111  1.9990 -3.6103  1.6621
  182MOL0     H24539   4.747  -0.488   5.076 -1.2268  0.9253 -0.3614
  182MOL0     H24540   4.618  -0.511   5.367  2.4212  1.1127  0.8639
  182MOL0     H24541   4.780  -0.464   5.332 -1.1611  0.8557  1.9852
  182MOL0     H24542   4.737  -0.726   5.213  3.4769 -0.8042 -0.1063
  182MOL0     H24543   4.719  -0.720   5.399  1.1965  1.8276  0.8072
  182MOL0     H24544   4.928  -0.621   5.406 -3.1107  0.4974  1.8627
  182MOL0     H24545   4.935  -0.790   5.365  4.2845  1.0199 -1.3014
  182MOL0     H24546   4.896  -0.642   5.128 -1.7034 -0.9275  1.1709
  182MOL0     H24547   5.009  -0.784   5.165  4.5523  0.5165  0.5247
  182MOL0     H24548   5.126  -0.590   5.312  0.0842  3.8495  2.0506
  182MOL0     H24549   5.168  -0.593   5.140  0.3082  1.0792  0.7256
  182MOL0     H24550   4.882  -0.282   4.761 -0.3847 -1.4550 -0.8764
  182MOL0     H24551   4.888  -0.207   4.519 -0.3174  1.2776 -1.2472
  182MOL0     H24552   4.849  -0.064   4.185 -0.2993  1.4451 -0.5330
  182MOL0     H24553   4.872   0.012   3.960 -0.4222 -2.7193  1.3923
  182MOL0     H24554   5.972   1.556   3.113  1.7111 -0.2595  1.9652
  182MOL0     H24555   5.870   1.782   3.048  0.7090 -1.9307  0.1759
  182MOL0     H24556   5.596   2.040   3.040 -1.1335 -0.3734 -0.7436
  182MOL0     H24557   5.448   2.240   2.945 -1.3309 -1.4172  1.2673
  182MOL0     H24558   5.464   2.473   2.859  1.5578  0.7788 -0.1589
  182MOL0     H24559   5.586   2.545   2.949  0.1080 -0.4155  1.5711
  182MOL0     H24560   5.302   2.648   2.915  0.4745 -1.1878 -0.3234
  182MOL0     H24561   5.458   2.709   2.850  0.7660 -4.3406 -1.9191
  182MOL0     H24562   5.548   2.757   3.071  1.0397 -2.4676 -3.3276
  182MOL0     H24563   5.389   2.705   3.142 -2.7976  1.4379 -0.9823
  182MOL0     H24564   5.466   2.957   2.977 -0.4805  2.3707 -0.2095
  182MOL0     H24565   5.296   2.898   2.989  1.5939 -0.5058 -2.4865
  182MOL0     H24566   5.353   3.024   3.395  5.2572  0.5386  0.6322
  182MOL0     H24567   5.582   2.481   3.265  0.4793 -0.3538 -0.3971
  182MOL0     H24568   5.714   2.285   3.467 -0.6401  0.7027 -0.8014
  182MOL0     H24569   5.856   2.313   3.363  0.4731  0.5310  4.2456
  182MOL0     H24570   5.735   2.444   3.399 -1.2078  0.0858  4.1190
  183MOL0     O24571   5.314   6.232   4.911  0.0091  0.4184  0.3608
  183MOL0     C24572   5.241   6.134   4.928  0.1837 -0.5187  0.5542
  183MOL0     O24573   5.280   6.003   4.935 -0.6513 -0.9274  0.2336
  183MOL0     C24574   5.406   5.969   4.877  0.3450 -1.2290  0.3311
  183MOL0     C24575   5.452   6.020   4.755  0.7788 -0.0435 -0.1418
  183MOL0     C24576   5.575   5.983   4.710  0.4194  0.7892  0.3201
  183MOL0     C24577   5.662   5.891   4.775 -0.2764  0.5052 -0.5257
  183MOL0     O24578   5.788   5.870   4.722 -0.6075 -0.6436  0.5947
  183MOL0     C24579   5.873   5.773   4.796  0.0029 -0.5261  0.7863
  183MOL0     C24580   5.830   5.628   4.772  0.0473  0.1991 -0.3844
  183MOL0     C24581   5.945   5.532   4.805  0.3389 -0.9062  0.8251
  183MOL0     C24582   5.966   5.421   4.707  0.0609  0.5251  0.2785
  183MOL0     C24583   6.058   5.473   4.588 -0.3485 -0.3078  0.3811
  183MOL0     C24584   6.053   5.373   4.479  0.2490 -0.2805  0.1931
  183MOL0     C24585   6.157   5.381   4.369 -0.4795 -0.1115 -0.3578
  183MOL0     C24586   6.141   5.274   4.257 -0.5394  0.2649 -0.1619
  183MOL0     N24587   6.123   5.133   4.302  0.1703  0.0552  0.2974
  183MOL0     C24588   6.045   5.036   4.240 -0.4061 -0.5965 -0.1096
  183MOL0     C24589   6.084   4.918   4.293 -0.3835 -0.5700  0.1932
  183MOL0     C24590   6.041   4.787   4.243  0.2955 -0.4800  0.5539
  183MOL0     C24591   6.103   4.678   4.320  0.5075  0.1409  0.3176
  183MOL0     C24592   6.051   4.534   4.294  0.6919  0.3627 -0.2273
  183MOL0     C24593   5.919   4.522   4.369  0.2996  0.7845 -0.3657
  183MOL0     O24594   5.834   4.421   4.313 -0.1757  0.2829  0.1539
  183MOL0     C24595   5.759   4.345   4.408  0.0281  0.7863  0.5455
  183MOL0     C24596   5.691   4.406   4.517 -1.3292  0.5361  0.0668
  183MOL0     C24597   5.628   4.323   4.612 -0.4419 -1.2585 -0.6614
  183MOL0     C24598   5.636   4.178   4.608 -0.3917 -1.0322  0.4207
  183MOL0     C24599   5.578   4.088   4.702 -0.4673 -0.7376 -0.3446
  183MOL0     O24600   5.587   3.951   4.674  0.8046  0.2584 -0.2041
  183MOL0     C24601   5.547   3.855   4.762 -0.3773  0.3936  0.2944
  183MOL0     C24602   5.533   3.735   4.694 -0.3004 -0.6099  1.4494
  183MOL0     C24603   5.485   3.621   4.749 -0.4304  0.7978 -0.6617
  183MOL0     C24604   5.435   3.626   4.884  0.1901  0.4444  0.1319
  183MOL0     O24605   5.367   3.536   4.959  1.0554 -0.6049 -0.3056
  183MOL0     C24606   5.328   3.409   4.897 -0.4497 -1.0729  0.6000
  183MOL0     C24607   5.280   3.317   5.000  0.3110  0.2360  0.9427
  183MOL0     C24608   5.208   3.190   4.941  0.5030  0.2008 -0.1970
  183MOL0     C24609   5.191   3.088   5.054 -0.2903  0.6192 -0.5485
  183MOL0     C24610   5.074   3.123   5.152  1.2390 -0.3354 -0.3382
  183MOL0     C24611   5.050   3.012   5.267  0.2069 -0.0128 -0.9040
  183MOL0     C24612   4.944   3.042   5.371 -0.0317  0.0759  0.1596
  183MOL0     C24613   4.897   2.920   5.447  0.8147  0.1928  0.3235
  183MOL0    Cl24614   4.806   2.798   5.354 -0.1172  0.2115 -0.1840
  183MOL0     C24615   5.443   3.753   4.952 -0.2559  0.7260 -0.2749
  183MOL0     C24616   5.497   3.866   4.895 -0.5206  0.4784 -0.3702
  183MOL0     O24617   5.536   4.143   4.802 -0.2334  0.8080  0.3526
  183MOL0     C24618   5.715   4.128   4.505  0.4487 -0.8420  0.3498
  183MOL0     C24619   5.767   4.207   4.403 -0.8716 -0.0370 -0.0751
  183MOL0     N24620   6.173   4.942   4.393 -0.0246 -0.1192 -0.7956
  183MOL0     N24621   6.200   5.068   4.391  0.2301  0.0084  0.4238
  183MOL0     C24622   5.619   5.849   4.901  0.4059 -0.5438  0.3339
  183MOL0     C24623   5.487   5.884   4.945 -0.5215  0.5492 -0.5282
  183MOL0     C24624   5.100   6.168   4.943 -0.2630  0.2846 -0.5224
  183MOL0     C24625   5.055   6.293   4.883  0.3518 -0.3304 -1.0227
  183MOL0     C24626   4.926   6.338   4.914  0.6518  0.1300  0.1315
  183MOL0     C24627   4.834   6.257   4.981 -0.5360  0.3574  0.7619
  183MOL0     O24628   4.707   6.301   4.985  0.1464  0.6400  0.7115
  183MOL0     C24629   4.601   6.212   5.026 -0.6979  0.4884  0.5907
  183MOL0     C24630   4.578   6.210   5.176  0.8955  1.3232  0.4759
  183MOL0     C24631   4.530   6.343   5.228  0.1412 -0.7020  0.7378
  183MOL0     C24632   4.544   6.356   5.382  0.2293  0.1688 -0.2304
  183MOL0     C24633   4.683   6.375   5.425 -0.4026  0.0552 -0.6832
  183MOL0     C24634   4.802   6.404   5.430 -0.0638 -0.0257  0.2868
  183MOL0     C24635   4.875   6.134   5.033  0.2753  0.3074  0.0395
  183MOL0     C24636   5.010   6.086   5.020  0.0200 -0.8225 -0.1344
  183MOL0     C24637   5.046   5.973   5.111  0.6072 -0.0451 -0.3371
  183MOL0     H24638   5.385   6.083   4.697  0.4639  0.3969  0.6824
  183MOL0     H24639   5.611   6.026   4.617 -0.4104 -0.1699 -0.4612
  183MOL0     H24640   5.974   5.784   4.755 -0.5595  0.4642 -0.3953
  183MOL0     H24641   5.881   5.796   4.903  0.4308 -1.2563  0.9200
  183MOL0     H24642   5.788   5.614   4.672 -1.0329  1.0108 -0.0633
  183MOL0     H24643   5.757   5.599   4.849  1.7298  0.3812  1.3754
  183MOL0     H24644   5.913   5.492   4.901 -2.1609 -0.1981  0.3693
  183MOL0     H24645   6.033   5.590   4.831 -0.7157  2.4178 -2.1511
  183MOL0     H24646   6.011   5.333   4.754 -2.1027 -0.5896  0.3409
  183MOL0     H24647   5.870   5.388   4.667 -0.4490  2.4458 -0.1996
  183MOL0     H24648   6.026   5.573   4.556 -0.7670 -0.5415  0.0580
  183MOL0     H24649   6.158   5.501   4.622  0.3806  0.6475 -2.3144
  183MOL0     H24650   6.050   5.272   4.521  1.3767  0.7693  3.0212
  183MOL0     H24651   5.956   5.399   4.434 -0.3806  2.4145  2.7919
  183MOL0     H24652   6.253   5.352   4.411 -0.5299  1.8982  1.2983
  183MOL0     H24653   6.155   5.482   4.327  3.3795 -0.3967 -1.5684
  183MOL0     H24654   6.057   5.304   4.194 -0.6711  4.9304  1.8412
  183MOL0     H24655   6.239   5.281   4.209 -0.3049  0.5366  0.3518
  183MOL0     H24656   5.982   5.070   4.159  1.6705  4.3960  0.0298
  183MOL0     H24657   5.932   4.783   4.234  0.2554  1.8595 -0.8343
  183MOL0     H24658   6.080   4.774   4.141 -1.1611 -0.3230 -0.0585
  183MOL0     H24659   6.208   4.671   4.290  0.8605  0.3948  1.4422
  183MOL0     H24660   6.106   4.698   4.428 -0.0591 -0.9747  0.5493
  183MOL0     H24661   6.118   4.462   4.342  0.6811  0.4910 -0.0194
  183MOL0     H24662   6.033   4.512   4.188 -2.4615  0.2141  0.2320
  183MOL0     H24663   5.863   4.617   4.366 -0.1763  0.4935 -0.9332
  183MOL0     H24664   5.944   4.503   4.474 -1.4838  0.1131 -0.0166
  183MOL0     H24665   5.695   4.514   4.524  2.2121  0.5298 -0.3499
  183MOL0     H24666   5.575   4.368   4.695 -3.6877 -3.7430 -1.2123
  183MOL0     H24667   5.563   3.714   4.592 -3.2912 -4.1051  1.0879
  183MOL0     H24668   5.480   3.524   4.702 -0.2150  0.3540  0.2123
  183MOL0     H24669   5.263   3.442   4.815 -0.8561 -1.3848  0.7993
  183MOL0     H24670   5.419   3.380   4.844  0.8625  4.5989 -0.9530
  183MOL0     H24671   5.352   3.283   5.074 -0.3066 -0.9450  1.0236
  183MOL0     H24672   5.207   3.382   5.050 -1.0012  1.2689 -2.0846
  183MOL0     H24673   5.104   3.212   4.914 -0.7324 -1.1494  2.9798
  183MOL0     H24674   5.262   3.146   4.857 -1.3277 -0.2369 -1.2180
  183MOL0     H24675   5.288   3.069   5.102  0.0358 -3.3974 -2.3579
  183MOL0     H24676   5.149   2.993   5.019  1.0305 -0.1161 -0.2477
  183MOL0     H24677   4.979   3.122   5.099  1.0978 -1.0064 -0.0808
  183MOL0     H24678   5.083   3.225   5.190  0.9042 -0.9173  1.4130
  183MOL0     H24679   5.037   2.911   5.227  0.1136 -1.6106  2.7527
  183MOL0     H24680   5.142   3.006   5.326 -1.5606 -2.3473  1.9092
  183MOL0     H24681   4.855   3.082   5.321  0.7178 -1.0197 -2.1806
  183MOL0     H24682   4.977   3.124   5.436 -2.2732 -0.4136  2.0353
  183MOL0     H24683   4.988   2.880   5.493  0.2746 -2.8218 -1.0097
  183MOL0     H24684   4.828   2.958   5.524 -1.3774 -2.4019 -0.2061
  183MOL0     H24685   5.406   3.761   5.054  1.9831 -0.4262  0.6765
  183MOL0     H24686   5.494   3.953   4.959 -0.8743 -0.5851  1.1079
  183MOL0     H24687   5.730   4.020   4.500 -2.2011 -1.3718  1.7591
  183MOL0     H24688   5.829   4.167   4.324  0.8185  1.1213  0.6121
  183MOL0     H24689   5.683   5.787   4.965 -0.6759 -0.6970  1.2980
  183MOL0     H24690   5.460   5.851   5.045 -3.4702  1.3940 -0.9259
  183MOL0     H24691   5.126   6.359   4.835  0.4606  1.0588  0.9249
  183MOL0     H24692   4.900   6.439   4.882  0.1579 -0.7772 -2.6169
  183MOL0     H24693   4.625   6.112   4.986  0.8897  1.1292 -0.1353
  183MOL0     H24694   4.511   6.241   4.970 -0.4191  3.8661  1.6946
  183MOL0     H24695   4.678   6.189   5.216  0.1508 -3.2469  0.4453
  183MOL0     H24696   4.518   6.132   5.222  3.3240 -1.0354 -0.1019
  183MOL0     H24697   4.426   6.336   5.196  1.3895 -0.3162 -4.2963
  183MOL0     H24698   4.562   6.422   5.160 -2.7382 -1.4970 -1.7388
  183MOL0     H24699   4.481   6.442   5.404  0.6056  0.2729  0.4627
  183MOL0     H24700   4.494   6.272   5.431 -1.0124  2.2943  2.4345
  183MOL0     H24701   4.907   6.425   5.432  0.7623 -1.6686 -5.6829
  183MOL0     H24702   4.799   6.077   5.085 -2.4649  2.6100 -1.2228
  183MOL0     H24703   4.985   5.968   5.202  2.6745 -0.9384  1.0812
  183MOL0     H24704   5.042   5.872   5.069  1.5818 -0.7933  1.2767
  183MOL0     H24705   5.150   5.994   5.137  0.1204  0.5618  1.2584
  184MOL0     O24706   6.872   6.822   0.088 -0.2575 -0.2594 -0.7571
  184MOL0     C24707   6.967   6.791   0.018  1.0640  0.3956 -1.0018
  184MOL0     O24708   6.973   6.806  -0.117  0.6745  1.2146  0.2115
  184MOL0     C24709   6.851   6.847  -0.184 -0.7266  0.8856 -0.5429
  184MOL0     C24710   6.793   6.775  -0.283 -0.3321 -0.2843 -1.1798
  184MOL0     C24711   6.684   6.825  -0.358  0.0634  0.8265 -0.2649
  184MOL0     C24712   6.628   6.957  -0.339 -0.6964 -0.3096  0.1786
  184MOL0     O24713   6.525   7.014  -0.413 -0.3826  0.1732  0.1575
  184MOL0     C24714   6.410   6.928  -0.450  0.0897 -0.4168  0.2673
  184MOL0     C24715   6.280   6.981  -0.382 -0.7622 -0.5325  0.0998
  184MOL0     C24716   6.244   7.125  -0.402 -0.3970  0.1745  1.2958
  184MOL0     C24717   6.209   7.152  -0.548  0.1160 -0.2652  0.9731
  184MOL0     C24718   6.218   7.298  -0.581  0.1362  0.1019 -0.1223
  184MOL0     C24719   6.373   7.337  -0.599  0.2911  0.0622  0.6164
  184MOL0     C24720   6.395   7.488  -0.626  0.8817  0.5367 -0.3229
  184MOL0     C24721   6.380   7.501  -0.781  0.0780  0.1117 -0.1744
  184MOL0     N24722   6.318   7.629  -0.824  0.3200  1.4045  0.3756
  184MOL0     C24723   6.341   7.747  -0.764 -1.3360 -0.0755  0.2955
  184MOL0     C24724   6.250   7.827  -0.826 -0.6840  0.1791  0.5505
  184MOL0     C24725   6.205   7.965  -0.787 -0.4521  0.4657 -1.6087
  184MOL0     C24726   6.139   7.949  -0.650  0.4203  0.7481  0.1912
  184MOL0     C24727   6.108   8.087  -0.603 -0.4096 -0.1944 -0.1992
  184MOL0     C24728   6.001   8.094  -0.492  0.1923 -0.6991  0.8096
  184MOL0     O24729   6.048   8.026  -0.371 -0.0573 -0.7078  0.4978
  184MOL0     C24730   6.012   7.895  -0.353 -0.4276 -0.4220  0.1050
  184MOL0     C24731   5.885   7.856  -0.369  0.6653  0.0652  0.9707
  184MOL0     C24732   5.849   7.720  -0.346 -0.8545 -0.3145 -0.5962
  184MOL0     C24733   5.943   7.618  -0.316 -0.4769 -0.7897  0.4564
  184MOL0     C24734   5.910   7.477  -0.303  0.3805  1.1656 -0.0866
  184MOL0     O24735   5.804   7.437  -0.386 -0.4202 -0.5258  0.3308
  184MOL0     C24736   5.767   7.306  -0.403  0.2142 -0.3869 -0.0789
  184MOL0     C24737   5.858   7.207  -0.403  0.1145 -0.9289 -0.4317
  184MOL0     C24738   5.815   7.078  -0.436 -0.3729  0.2650  0.4670
  184MOL0     C24739   5.681   7.042  -0.471  0.3103  0.4745 -0.0587
  184MOL0     O24740   5.657   6.910  -0.492 -0.4821 -0.7560  0.3270
  184MOL0     C24741   5.534   6.851  -0.442 -0.1327  0.0875 -0.5653
  184MOL0     C24742   5.525   6.717  -0.511 -0.6937 -0.6976  0.5441
  184MOL0     C24743   5.505   6.724  -0.666 -0.5396 -0.1488 -0.7824
  184MOL0     C24744   5.489   6.587  -0.724  0.0667  0.5537 -0.3993
  184MOL0     C24745   5.627   6.505  -0.732  0.8779 -0.7472 -0.3488
  184MOL0     C24746   5.604   6.356  -0.752  0.7044 -0.1106 -0.1880
  184MOL0     C24747   5.513   6.332  -0.870  0.0922 -0.0269  0.6098
  184MOL0     C24748   5.492   6.185  -0.892  1.2080 -0.1064 -0.2750
  184MOL0    Cl24749   5.642   6.085  -0.880  0.1062  0.4063 -0.8235
  184MOL0     C24750   5.592   7.150  -0.475 -0.6668 -0.3812 -0.6164
  184MOL0     C24751   5.630   7.276  -0.437  0.6922  0.4190 -0.1016
  184MOL0     O24752   5.970   7.403  -0.225 -0.5309  0.0605 -0.9255
  184MOL0     C24753   6.065   7.669  -0.282  0.5941  0.0138 -0.8894
  184MOL0     C24754   6.101   7.804  -0.307 -0.3106  0.7123  0.2704
  184MOL0     N24755   6.190   7.763  -0.927 -0.1683  0.0683 -0.3872
  184MOL0     N24756   6.232   7.640  -0.927  0.0289 -0.1753  0.1337
  184MOL0     C24757   6.694   7.033  -0.241 -0.5326 -0.6306 -0.7578
  184MOL0     C24758   6.797   6.975  -0.161  0.7358 -0.7526  0.0750
  184MOL0     C24759   7.084   6.716   0.089  0.8917 -0.2288  0.2471
  184MOL0     C24760   7.212   6.754   0.043  0.3050  0.5835  0.8338
  184MOL0     C24761   7.334   6.741   0.111  0.5555 -0.2808  0.3555
  184MOL0     C24762   7.335   6.658   0.222 -0.5035  0.2805  0.4306
  184MOL0     O24763   7.454   6.638   0.287  0.4689  1.0049  1.0138
  184MOL0     C24764   7.481   6.498   0.316 -0.3138  0.3474 -0.3823
  184MOL0     C24765   7.481   6.475   0.472  0.5823  0.9643 -0.5149
  184MOL0     C24766   7.569   6.574   0.552  0.2538  0.7400 -0.1958
  184MOL0     C24767   7.525   6.567   0.703  0.7141  0.0525  0.9879
  184MOL0     C24768   7.394   6.634   0.722  0.5761 -0.4447  0.0991
  184MOL0     C24769   7.299   6.708   0.748 -0.2846 -0.3527 -0.3058
  184MOL0     C24770   7.208   6.617   0.277 -0.2022 -1.0439 -0.7508
  184MOL0     C24771   7.080   6.638   0.214  0.8624 -0.0577  0.2912
  184MOL0     C24772   6.950   6.589   0.270  0.3649  0.7885  1.1176
  184MOL0     H24773   6.831   6.674  -0.295  0.0793 -0.3219  0.2038
  184MOL0     H24774   6.647   6.766  -0.441  1.0103 -0.5242  0.2442
  184MOL0     H24775   6.393   6.938  -0.557  0.4278  1.1957  0.3407
  184MOL0     H24776   6.425   6.827  -0.410 -1.2119  0.8094  4.4292
  184MOL0     H24777   6.297   6.974  -0.274  1.1652 -3.0085 -0.2656
  184MOL0     H24778   6.186   6.928  -0.398 -1.9941  1.7441 -0.6182
  184MOL0     H24779   6.323   7.196  -0.377 -1.1750  0.6747  2.4052
  184MOL0     H24780   6.163   7.152  -0.333 -0.9987 -0.3758  0.8147
  184MOL0     H24781   6.273   7.100  -0.620  1.6407  0.6267  1.6287
  184MOL0     H24782   6.105   7.118  -0.549 -0.3720  1.1350  0.6440
  184MOL0     H24783   6.173   7.325  -0.678 -1.8644  1.0231  0.9942
  184MOL0     H24784   6.170   7.350  -0.498  1.0867 -0.9158  1.1006
  184MOL0     H24785   6.423   7.309  -0.506  0.4949 -2.7032 -0.2414
  184MOL0     H24786   6.413   7.270  -0.676 -4.6001 -0.7656 -1.5988
  184MOL0     H24787   6.486   7.533  -0.584  0.3873 -0.8518  2.5280
  184MOL0     H24788   6.318   7.538  -0.567 -0.8402  0.1676 -2.1466
  184MOL0     H24789   6.481   7.488  -0.820 -0.5577 -0.4348 -1.7624
  184MOL0     H24790   6.315   7.424  -0.824 -1.7601  1.3902  0.1823
  184MOL0     H24791   6.419   7.771  -0.692 -0.2744  2.5240 -1.5647
  184MOL0     H24792   6.288   8.036  -0.784  0.3967 -0.3978  2.8639
  184MOL0     H24793   6.138   8.000  -0.867 -0.3024  1.1020 -1.4649
  184MOL0     H24794   6.050   7.886  -0.644  2.7014 -2.6421  3.4063
  184MOL0     H24795   6.212   7.913  -0.577  1.0413  2.5909  0.5479
  184MOL0     H24796   6.058   8.135  -0.688 -2.2471 -1.4498  0.1050
  184MOL0     H24797   6.189   8.155  -0.575 -2.9784  1.3683  4.5932
  184MOL0     H24798   5.907   8.060  -0.536  0.6210 -0.9977  0.1051
  184MOL0     H24799   5.977   8.198  -0.469  0.7801 -0.9698  2.8473
  184MOL0     H24800   5.804   7.929  -0.374  2.8464  2.7349  1.7605
  184MOL0     H24801   5.748   7.683  -0.358 -0.8095 -1.4013  1.8757
  184MOL0     H24802   5.963   7.219  -0.381 -0.1049  1.5904 -0.4410
  184MOL0     H24803   5.889   6.998  -0.440 -2.9385 -2.2158  0.1244
  184MOL0     H24804   5.534   6.845  -0.333 -0.0906 -0.1633 -0.5791
  184MOL0     H24805   5.437   6.896  -0.465 -1.7337 -1.4904  2.4098
  184MOL0     H24806   5.621   6.667  -0.496 -0.9458 -1.4381 -0.2418
  184MOL0     H24807   5.454   6.645  -0.470 -1.3582 -0.6475 -0.4770
  184MOL0     H24808   5.413   6.773  -0.699  0.6483 -0.1524 -4.5907
  184MOL0     H24809   5.592   6.775  -0.707  1.1191 -2.5614 -0.5142
  184MOL0     H24810   5.439   6.595  -0.820 -0.7182 -1.3825 -0.1903
  184MOL0     H24811   5.420   6.528  -0.663  0.5020 -1.9025 -2.1347
  184MOL0     H24812   5.701   6.522  -0.654  4.4705  0.8773 -3.7558
  184MOL0     H24813   5.673   6.544  -0.823  0.5000 -0.7569 -0.5477
  184MOL0     H24814   5.701   6.305  -0.764 -0.3615 -2.1639 -0.4907
  184MOL0     H24815   5.552   6.321  -0.662  0.1719 -0.1604 -0.5158
  184MOL0     H24816   5.564   6.368  -0.959  1.3955  0.1174  1.4004
  184MOL0     H24817   5.412   6.371  -0.851 -0.3335 -1.1081  0.6739
  184MOL0     H24818   5.437   6.147  -0.805  2.2428 -0.5409  0.2155
  184MOL0     H24819   5.440   6.159  -0.984  0.4186  0.2730  0.0549
  184MOL0     H24820   5.484   7.133  -0.470 -0.6508 -0.5144 -0.7217
  184MOL0     H24821   5.552   7.350  -0.447 -1.4443 -1.6755  0.2641
  184MOL0     H24822   6.136   7.594  -0.251  1.6944  0.1208 -2.9629
  184MOL0     H24823   6.205   7.834  -0.300  0.1083 -0.6138 -0.0662
  184MOL0     H24824   6.671   7.138  -0.223  0.4703 -0.0037 -2.9016
  184MOL0     H24825   6.835   7.037  -0.080 -0.9335 -0.6412  0.8209
  184MOL0     H24826   7.216   6.813  -0.048  1.0112 -0.2788  0.2875
  184MOL0     H24827   7.421   6.790   0.068  1.0276 -1.8907 -0.6225
  184MOL0     H24828   7.578   6.469   0.273 -0.4522  0.0084 -0.4745
  184MOL0     H24829   7.403   6.435   0.273 -0.6496  1.4348 -1.4222
  184MOL0     H24830   7.517   6.374   0.492  0.1516  0.8521 -0.2941
  184MOL0     H24831   7.382   6.467   0.516  1.1123 -0.6044  0.4603
  184MOL0     H24832   7.564   6.675   0.509 -0.6672  0.0996 -1.6820
  184MOL0     H24833   7.676   6.561   0.538  0.0204 -2.2285  0.1194
  184MOL0     H24834   7.533   6.466   0.746 -1.0331 -0.2017  0.7853
  184MOL0     H24835   7.596   6.627   0.761  0.2080 -0.0328  1.7052
  184MOL0     H24836   7.214   6.758   0.790  1.1408 -0.2075  2.6467
  184MOL0     H24837   7.209   6.578   0.378 -3.1121 -0.4921 -0.4284
  184MOL0     H24838   6.868   6.595   0.197  0.3967 -1.0738  0.8858
  184MOL0     H24839   6.967   6.482   0.282 -1.0679 -0.0303 -2.6459
  184MOL0     H24840   6.917   6.655   0.351 -0.6410  4.2886 -1.8516
  185MOL0     O24841   7.305   1.978   6.640 -0.8702  0.0504 -0.1868
  185MOL0     C24842   7.297   2.104   6.633 -0.0889  0.3058 -0.1935
  185MOL0     O24843   7.375   2.194   6.696 -0.3739 -0.1024  0.0348
  185MOL0     C24844   7.459   2.149   6.790  0.7073  0.0868  0.9818
  185MOL0     C24845   7.560   2.061   6.764 -0.6624 -0.3267 -0.1125
  185MOL0     C24846   7.648   2.034   6.876 -0.2625 -0.8270 -0.1742
  185MOL0     C24847   7.627   2.077   7.002  0.2146 -0.2275 -0.0012
  185MOL0     O24848   7.693   2.038   7.115  0.5622  0.6880 -0.8975
  185MOL0     C24849   7.825   1.986   7.100 -1.9103 -0.1178  0.5965
  185MOL0     C24850   7.894   1.977   7.231  0.5299 -0.3658 -0.1833
  185MOL0     C24851   7.948   2.120   7.267  0.2306  0.0104 -0.2372
  185MOL0     C24852   8.024   2.149   7.400  0.5963  0.2162  0.7725
  185MOL0     C24853   8.079   2.293   7.399  0.2129  0.6749  0.6898
  185MOL0     C24854   8.169   2.315   7.523 -1.0201 -0.1810 -0.0614
  185MOL0     C24855   8.297   2.226   7.521  0.3265 -0.2909  0.2214
  185MOL0     C24856   8.407   2.237   7.633  1.1164  0.4310 -0.9865
  185MOL0     N24857   8.517   2.142   7.601  0.7723 -0.5219 -0.3495
  185MOL0     C24858   8.518   2.008   7.628 -0.6956 -0.4976  1.0292
  185MOL0     C24859   8.642   1.974   7.579  0.0575  0.1088 -0.8322
  185MOL0     C24860   8.692   1.835   7.594  0.6918  0.5057  0.2110
  185MOL0     C24861   8.809   1.816   7.684  0.0166  0.8515 -0.3729
  185MOL0     C24862   8.940   1.885   7.621  0.2899 -0.2909 -0.1658
  185MOL0     C24863   9.079   1.846   7.683  0.1090 -0.3992  0.2198
  185MOL0     O24864   9.137   1.754   7.586  0.8140  0.3741 -0.0119
  185MOL0     C24865   9.229   1.666   7.635  0.0704  0.1969  0.0834
  185MOL0     C24866   9.182   1.552   7.703 -0.0169 -0.6073  0.6419
  185MOL0     C24867   9.278   1.460   7.751  0.0832  0.6097  0.2238
  185MOL0     C24868   9.411   1.485   7.737 -0.2947  0.3383 -0.0762
  185MOL0     C24869   9.516   1.380   7.779 -0.2803 -0.7835 -1.8253
  185MOL0     O24870   9.472   1.266   7.844  0.2805 -0.0436  0.4252
  185MOL0     C24871   9.558   1.170   7.886 -0.4516 -0.2314  0.9010
  185MOL0     C24872   9.624   1.082   7.789 -0.1445  0.1065 -0.2148
  185MOL0     C24873   9.699   0.983   7.834 -0.0121 -0.5592  0.0716
  185MOL0     C24874   9.736   0.974   7.969  0.0137 -0.2654  0.7669
  185MOL0     O24875   9.833   0.899   8.015 -0.2460  0.6495 -0.5532
  185MOL0     C24876   9.900   0.789   7.943 -0.6216  0.0030 -0.6871
  185MOL0     C24877   9.997   0.737   8.048  0.3473 -0.9261  0.7665
  185MOL0     C24878  10.093   0.634   7.986  0.4004 -0.1354  0.2039
  185MOL0     C24879  10.229   0.705   7.967  1.7767  0.0150  0.7254
  185MOL0     C24880  10.303   0.714   8.108  0.6790 -0.1660 -0.1703
  185MOL0     C24881  10.370   0.578   8.147  0.3044 -0.6600 -0.1580
  185MOL0     C24882  10.400   0.552   8.297  1.0381  0.0152  0.0339
  185MOL0     C24883  10.292   0.599   8.400  0.6064 -0.0862  0.2611
  185MOL0    Cl24884  10.335   0.570   8.559 -0.2692  0.2194  0.3457
  185MOL0     C24885   9.676   1.063   8.063 -0.3568 -0.3811  0.1974
  185MOL0     C24886   9.585   1.154   8.021 -0.5123 -0.3422  1.1395
  185MOL0     O24887   9.635   1.408   7.782 -0.5265 -0.0546 -0.4422
  185MOL0     C24888   9.450   1.606   7.677 -0.8111 -0.3822 -0.0242
  185MOL0     C24889   9.367   1.689   7.615  0.3863  0.1465 -0.2752
  185MOL0     N24890   8.697   2.081   7.507 -0.9309  0.0508 -0.3228
  185MOL0     N24891   8.629   2.185   7.525  0.0364  0.1950 -0.5150
  185MOL0     C24892   7.523   2.170   7.020  0.2046 -0.3227  0.2442
  185MOL0     C24893   7.447   2.208   6.913  0.6955 -0.8076 -1.5772
  185MOL0     C24894   7.189   2.160   6.554 -1.2856 -1.1993  0.4154
  185MOL0     C24895   7.233   2.256   6.464  0.6201 -0.6681 -0.2085
  185MOL0     C24896   7.139   2.309   6.371 -0.3659  0.3310 -1.0594
  185MOL0     C24897   7.007   2.279   6.364 -0.2510 -0.3326  0.7667
  185MOL0     O24898   6.934   2.335   6.265 -0.0021 -0.1556 -0.0710
  185MOL0     C24899   6.786   2.344   6.281  0.1697  0.0116 -0.0674
  185MOL0     C24900   6.741   2.370   6.129 -0.1848 -0.2951 -0.9128
  185MOL0     C24901   6.789   2.510   6.086 -0.2273 -0.8060 -0.7204
  185MOL0     C24902   6.898   2.495   5.982  0.4647  0.8593  0.0512
  185MOL0     C24903   6.902   2.622   5.899  1.2156  0.0151  0.1270
  185MOL0     C24904   6.912   2.727   5.839 -0.1114  0.1301  0.2584
  185MOL0     C24905   6.964   2.180   6.463  0.3967 -0.7948  0.1082
  185MOL0     C24906   7.057   2.118   6.552  0.0732 -0.1777  1.3279
  185MOL0     C24907   6.991   2.028   6.650  0.4977 -0.6303 -0.0282
  185MOL0     H24908   7.568   2.005   6.671 -1.2740  2.1880 -1.7645
  185MOL0     H24909   7.722   1.955   6.861  4.5723  2.7940  1.8363
  185MOL0     H24910   7.820   1.886   7.055  1.1157  0.9768 -2.5568
  185MOL0     H24911   7.893   2.039   7.033 -1.7826 -3.8124 -2.5739
  185MOL0     H24912   7.978   1.906   7.235  0.7257 -0.3232 -2.2358
  185MOL0     H24913   7.822   1.944   7.306  0.7812 -2.4172 -0.7791
  185MOL0     H24914   7.866   2.192   7.276  0.0572 -0.0424 -1.2442
  185MOL0     H24915   8.013   2.151   7.185  0.6624 -0.0653  0.0736
  185MOL0     H24916   7.954   2.135   7.483 -0.1381  0.1152  0.1514
  185MOL0     H24917   8.102   2.072   7.401 -0.0180 -0.5670 -2.3166
  185MOL0     H24918   8.135   2.310   7.307  3.3408 -3.6295  1.4916
  185MOL0     H24919   8.008   2.375   7.405  5.7211  6.2649  0.1446
  185MOL0     H24920   8.205   2.418   7.535 -1.4454 -0.0821  0.4327
  185MOL0     H24921   8.135   2.287   7.623 -2.5349  1.7890  0.0622
  185MOL0     H24922   8.352   2.254   7.431 -0.7582  0.0915 -0.3340
  185MOL0     H24923   8.278   2.118   7.528  0.1179 -0.1613  2.6360
  185MOL0     H24924   8.455   2.335   7.639  0.1785  0.8272  0.7739
  185MOL0     H24925   8.363   2.215   7.731  2.1637 -0.5203 -0.7151
  185MOL0     H24926   8.444   1.943   7.673 -3.6063  0.7681 -1.5783
  185MOL0     H24927   8.608   1.772   7.626 -0.8251  0.9548 -2.5641
  185MOL0     H24928   8.710   1.807   7.490  0.4126  2.5759 -0.4573
  185MOL0     H24929   8.780   1.862   7.779  1.7993  1.0622  0.0979
  185MOL0     H24930   8.825   1.709   7.698 -2.6302  0.3081 -0.8564
  185MOL0     H24931   8.931   1.993   7.627  0.6744 -0.3317  1.9391
  185MOL0     H24932   8.939   1.865   7.513  0.3836 -0.3901 -0.1478
  185MOL0     H24933   9.061   1.801   7.781 -0.5599 -0.5326  0.0424
  185MOL0     H24934   9.153   1.925   7.702  0.2714  0.1822 -2.5050
  185MOL0     H24935   9.077   1.529   7.691 -0.2325  1.0041 -1.1242
  185MOL0     H24936   9.245   1.369   7.801 -0.0559  0.2910 -0.4465
  185MOL0     H24937   9.608   1.103   7.684 -0.7923 -3.2823 -0.9094
  185MOL0     H24938   9.756   0.925   7.762 -0.1577  2.3582 -2.6502
  185MOL0     H24939   9.822   0.720   7.911 -0.9238 -0.9369  1.8457
  185MOL0     H24940   9.964   0.823   7.861  1.9476 -1.4416  0.5890
  185MOL0     H24941  10.057   0.820   8.087 -0.4651  0.4629 -0.8323
  185MOL0     H24942   9.951   0.696   8.139  1.2867 -0.8699  1.2782
  185MOL0     H24943  10.102   0.537   8.035 -2.7358 -2.0524 -2.5725
  185MOL0     H24944  10.053   0.608   7.887 -0.5883 -1.1862  0.8576
  185MOL0     H24945  10.223   0.808   7.931  2.6295 -0.5088 -0.9919
  185MOL0     H24946  10.284   0.642   7.897  1.6886  1.4673 -0.7208
  185MOL0     H24947  10.229   0.741   8.184 -0.0324 -2.7460  0.1476
  185MOL0     H24948  10.377   0.795   8.101 -1.3611  1.6634 -1.8935
  185MOL0     H24949  10.307   0.498   8.107  1.6524 -1.1149 -1.4859
  185MOL0     H24950  10.460   0.560   8.088  0.4624 -1.3150  0.2793
  185MOL0     H24951  10.488   0.610   8.327  0.9306 -1.3672  3.5099
  185MOL0     H24952  10.415   0.444   8.308 -2.4133 -0.8359 -2.0626
  185MOL0     H24953  10.280   0.707   8.399  1.5777  0.0621  1.7276
  185MOL0     H24954  10.196   0.550   8.382  0.4044  1.1943 -2.8660
  185MOL0     H24955   9.693   1.049   8.169  1.3936 -3.7925 -0.3859
  185MOL0     H24956   9.538   1.206   8.103 -0.8885  0.5070  0.4054
  185MOL0     H24957   9.557   1.625   7.684 -1.0650  1.1479  0.0416
  185MOL0     H24958   9.392   1.787   7.576  0.3297  0.5882  0.7790
  185MOL0     H24959   7.502   2.209   7.119 -1.2418  1.1187 -0.5809
  185MOL0     H24960   7.369   2.282   6.924 -0.1723 -1.9065  0.1312
  185MOL0     H24961   7.337   2.283   6.452  0.0067  2.3511  0.4569
  185MOL0     H24962   7.177   2.381   6.299 -3.5100  0.5318 -2.7080
  185MOL0     H24963   6.747   2.416   6.353  1.6132 -1.7591  2.6716
  185MOL0     H24964   6.742   2.249   6.313  0.9230 -0.0671  0.7701
  185MOL0     H24965   6.634   2.356   6.110 -1.1177  1.1451  2.5045
  185MOL0     H24966   6.786   2.292   6.066 -1.5877 -0.6069 -1.5599
  185MOL0     H24967   6.833   2.566   6.169  1.2833  0.1612 -2.1105
  185MOL0     H24968   6.704   2.562   6.041 -1.2493 -1.5875  0.2644
  185MOL0     H24969   6.997   2.495   6.029 -0.5428  0.0934  2.3242
  185MOL0     H24970   6.888   2.402   5.925  0.7868  0.4323  0.6724
  185MOL0     H24971   6.937   2.817   5.786  0.5352 -1.1464 -1.7225
  185MOL0     H24972   6.859   2.152   6.472  0.7835 -2.5878 -0.4145
  185MOL0     H24973   6.950   2.097   6.724 -0.3243 -0.5052 -0.5845
  185MOL0     H24974   6.918   1.970   6.592  1.6372 -2.0607 -0.0798
  185MOL0     H24975   7.067   1.959   6.687  1.2491  0.8892  1.4416
  186MOL0     O24976   6.612   3.846   4.849  0.2114  0.7205 -0.2818
  186MOL0     C24977   6.596   3.914   4.748 -0.5260 -0.1925 -0.0642
  186MOL0     O24978   6.578   4.049   4.756 -0.8522  0.3559 -1.0330
  186MOL0     C24979   6.577   4.116   4.870  0.4792 -0.6666  0.0567
  186MOL0     C24980   6.693   4.121   4.945  0.1122 -0.5012 -0.4940
  186MOL0     C24981   6.698   4.193   5.057 -0.3715 -0.7961  0.5277
  186MOL0     C24982   6.590   4.273   5.105 -0.7411 -0.1610  0.3118
  186MOL0     O24983   6.594   4.340   5.222 -0.5255  0.4727  0.4479
  186MOL0     C24984   6.711   4.431   5.233 -0.2439 -0.1695  0.3875
  186MOL0     C24985   6.678   4.562   5.165  0.8522 -0.5999 -0.4521
  186MOL0     C24986   6.541   4.610   5.183 -0.1389  0.0947  0.2987
  186MOL0     C24987   6.493   4.604   5.324 -0.0160  0.3965 -0.2616
  186MOL0     C24988   6.357   4.657   5.352  1.1645 -0.4128  0.3057
  186MOL0     C24989   6.296   4.601   5.481  0.7328  0.5360  0.2122
  186MOL0     C24990   6.191   4.709   5.533 -0.1673 -0.6566  0.0045
  186MOL0     C24991   6.126   4.662   5.662 -0.3764 -0.7280  0.7053
  186MOL0     N24992   6.059   4.775   5.727 -0.3612  0.4083  0.9790
  186MOL0     C24993   6.129   4.884   5.775  0.4262  0.6096  0.3153
  186MOL0     C24994   6.028   4.973   5.795  0.1023  0.2086 -0.4110
  186MOL0     C24995   6.062   5.106   5.845 -0.6109 -0.0858 -0.2868
  186MOL0     C24996   6.065   5.216   5.737  0.5217 -0.1320  1.2818
  186MOL0     C24997   6.138   5.351   5.776  0.4613  0.3775  0.7650
  186MOL0     C24998   6.154   5.454   5.664 -0.0978  0.6172 -0.6675
  186MOL0     O24999   6.269   5.423   5.596 -0.3172  0.0767 -0.1506
  186MOL0     C25000   6.320   5.487   5.486  0.4087  1.0571 -0.9566
  186MOL0     C25001   6.454   5.521   5.479  0.6612  0.1302  0.2417
  186MOL0     C25002   6.515   5.562   5.358 -0.2253 -0.0319 -0.6448
  186MOL0     C25003   6.442   5.572   5.241 -0.2375 -0.1218  0.0883
  186MOL0     C25004   6.514   5.602   5.118 -1.0022  0.1899 -0.8325
  186MOL0     O25005   6.438   5.637   5.015  0.6461 -0.5316  1.2623
  186MOL0     C25006   6.484   5.667   4.895  0.1622 -0.5756 -0.4780
  186MOL0     C25007   6.609   5.719   4.873 -0.5676  0.5577 -0.3905
  186MOL0     C25008   6.649   5.754   4.746 -1.5648 -0.2967 -0.4568
  186MOL0     C25009   6.563   5.746   4.648 -0.6791 -0.1929 -0.4524
  186MOL0     O25010   6.613   5.787   4.526 -0.3097 -0.3380 -0.8334
  186MOL0     C25011   6.679   5.912   4.521  0.5235 -0.1890 -0.2787
  186MOL0     C25012   6.659   5.992   4.400 -0.1468  0.2405 -0.0703
  186MOL0     C25013   6.749   6.122   4.386  0.2644 -0.5025  0.2351
  186MOL0     C25014   6.899   6.098   4.359  0.1846 -0.2989  0.1579
  186MOL0     C25015   6.943   6.004   4.230  0.2107 -0.6540 -0.4180
  186MOL0     C25016   7.095   6.020   4.202  0.6279  0.3965 -0.3187
  186MOL0     C25017   7.132   5.968   4.069  0.5448  0.9679  0.2857
  186MOL0     C25018   7.277   5.977   4.061 -0.2539  1.1764 -0.1112
  186MOL0    Cl25019   7.308   5.880   3.915  0.2438  0.1597 -0.9966
  186MOL0     C25020   6.437   5.697   4.665  0.2575 -0.9000 -0.2616
  186MOL0     C25021   6.388   5.662   4.787 -0.6756  0.6659 -0.3836
  186MOL0     O25022   6.636   5.564   5.117 -1.0110  0.2316  0.4912
  186MOL0     C25023   6.306   5.552   5.250  0.0729  0.0290  0.8201
  186MOL0     C25024   6.240   5.514   5.374  0.5351  0.9117 -0.3008
  186MOL0     N25025   5.908   4.916   5.765  0.3249 -0.3922  0.0975
  186MOL0     N25026   5.925   4.800   5.714  0.2328  0.8712 -0.3945
  186MOL0     C25027   6.463   4.255   5.039 -0.0282 -0.9619 -1.1070
  186MOL0     C25028   6.459   4.180   4.917 -0.1256 -0.9529  0.1943
  186MOL0     C25029   6.585   3.855   4.611  0.2275 -0.2768 -0.3367
  186MOL0     C25030   6.539   3.932   4.508 -0.2718 -0.0729  0.3211
  186MOL0     C25031   6.523   3.884   4.373  0.3427  0.3183  0.6574
  186MOL0     C25032   6.549   3.743   4.345 -1.0178  0.4778 -0.1323
  186MOL0     O25033   6.549   3.682   4.229  0.2477 -0.1171  0.1938
  186MOL0     C25034   6.476   3.728   4.118  0.9089  0.1502 -0.3992
  186MOL0     C25035   6.332   3.667   4.130 -0.4107  0.0084  0.4489
  186MOL0     C25036   6.271   3.674   3.985  0.9542 -0.3108  0.0721
  186MOL0     C25037   6.120   3.620   3.980  0.0570 -0.3288  0.4464
  186MOL0     C25038   6.088   3.487   4.034 -0.4929 -0.3667 -0.3648
  186MOL0     C25039   6.052   3.378   4.077  0.8368 -0.4750 -0.1609
  186MOL0     C25040   6.588   3.661   4.461  0.5245 -0.9292 -0.1095
  186MOL0     C25041   6.595   3.713   4.589  0.0309  0.1886 -1.7145
  186MOL0     C25042   6.638   3.610   4.701  0.6942  0.1970  0.2332
  186MOL0     H25043   6.786   4.068   4.921  4.0661  4.3879  2.1841
  186MOL0     H25044   6.781   4.195   5.126 -1.5849 -0.7683  2.0384
  186MOL0     H25045   6.733   4.455   5.338 -1.0509  0.5166  0.4091
  186MOL0     H25046   6.803   4.387   5.192 -1.6742 -1.9713 -1.0957
  186MOL0     H25047   6.697   4.544   5.059  1.2487 -6.9394  0.3502
  186MOL0     H25048   6.752   4.628   5.211  1.5807 -0.8772 -1.2036
  186MOL0     H25049   6.470   4.554   5.121 -0.0587  0.2055  0.1028
  186MOL0     H25050   6.538   4.712   5.144  0.6500 -0.6274 -1.8291
  186MOL0     H25051   6.503   4.502   5.362  0.4826 -0.7166 -3.1219
  186MOL0     H25052   6.567   4.664   5.378 -0.6440 -0.0902  1.1909
  186MOL0     H25053   6.365   4.761   5.384  1.2616  0.0971 -1.3103
  186MOL0     H25054   6.290   4.641   5.267 -0.5773 -1.3086  1.7804
  186MOL0     H25055   6.249   4.509   5.446  0.9544  1.3542 -2.4225
  186MOL0     H25056   6.372   4.586   5.558  1.7638 -2.1107 -1.2046
  186MOL0     H25057   6.120   4.739   5.456 -1.8408  1.7332  2.3214
  186MOL0     H25058   6.254   4.793   5.564 -0.0938 -1.2594  1.6042
  186MOL0     H25059   6.045   4.596   5.630 -0.6772  0.3728 -0.9112
  186MOL0     H25060   6.202   4.615   5.725 -0.9545 -0.1018  1.9134
  186MOL0     H25061   6.231   4.899   5.808  1.2980 -1.1318 -1.3903
  186MOL0     H25062   5.983   5.140   5.912 -0.1347  2.5420 -0.9359
  186MOL0     H25063   6.158   5.103   5.898 -0.3830 -0.1039 -0.6964
  186MOL0     H25064   6.119   5.167   5.656  2.5361  0.0159  2.4731
  186MOL0     H25065   5.962   5.236   5.705  0.0760 -0.9121  2.2058
  186MOL0     H25066   6.236   5.323   5.817 -0.0106 -0.0667  1.6159
  186MOL0     H25067   6.078   5.384   5.862 -0.7047 -1.2480  0.6059
  186MOL0     H25068   6.172   5.553   5.708 -0.5047  0.2326  0.4174
  186MOL0     H25069   6.070   5.456   5.595 -1.3231 -1.4572  0.6397
  186MOL0     H25070   6.512   5.489   5.565 -0.6822  0.1342  1.1769
  186MOL0     H25071   6.623   5.576   5.356 -0.0727 -0.8271  0.9044
  186MOL0     H25072   6.681   5.741   4.952 -0.3616 -0.3795 -0.3089
  186MOL0     H25073   6.749   5.796   4.751 -2.1332  1.0213  0.5393
  186MOL0     H25074   6.642   5.975   4.602  1.3998  1.1836 -0.9072
  186MOL0     H25075   6.785   5.896   4.542  1.1736 -1.3031 -3.8297
  186MOL0     H25076   6.675   5.936   4.308  2.4175 -0.4025  0.6753
  186MOL0     H25077   6.554   6.021   4.395 -0.1629  0.1816 -0.0766
  186MOL0     H25078   6.699   6.181   4.309 -1.5997 -2.3066 -0.0418
  186MOL0     H25079   6.745   6.174   4.482  1.5927 -0.5402  0.3175
  186MOL0     H25080   6.944   6.051   4.448 -2.1130  1.7580  2.5679
  186MOL0     H25081   6.945   6.196   4.351 -0.9882  0.1622 -1.2415
  186MOL0     H25082   6.888   6.054   4.150 -3.2395  1.7703  3.0990
  186MOL0     H25083   6.905   5.903   4.242 -1.3433 -0.2473 -1.6413
  186MOL0     H25084   7.114   6.128   4.207 -1.9606  0.8498  1.5538
  186MOL0     H25085   7.145   5.970   4.285  2.1644 -2.5827 -2.8649
  186MOL0     H25086   7.084   6.016   3.983 -1.8698 -2.7744 -0.7064
  186MOL0     H25087   7.093   5.867   4.059 -3.9558  2.4496  0.4448
  186MOL0     H25088   7.324   6.076   4.053  2.1102  0.2042  0.6967
  186MOL0     H25089   7.320   5.928   4.150  1.1692 -0.9795 -1.8827
  186MOL0     H25090   6.373   5.683   4.579  1.5690 -2.1209 -1.0815
  186MOL0     H25091   6.289   5.626   4.814 -1.9829  3.3687 -1.2272
  186MOL0     H25092   6.244   5.572   5.163 -0.1691 -0.2769  0.9216
  186MOL0     H25093   6.133   5.493   5.373  0.8659 -1.6256  2.4853
  186MOL0     H25094   6.370   4.292   5.079  0.0718  0.0388 -1.7766
  186MOL0     H25095   6.369   4.175   4.857  1.4683  1.6596 -2.7248
  186MOL0     H25096   6.516   4.038   4.520 -1.7510 -0.2272 -0.8059
  186MOL0     H25097   6.493   3.937   4.283  1.0292  2.6834  1.7179
  186MOL0     H25098   6.518   3.698   4.021 -3.9915 -0.0889 -2.7514
  186MOL0     H25099   6.470   3.837   4.110  1.5792  0.0717 -2.9488
  186MOL0     H25100   6.274   3.724   4.203 -1.0302 -0.1614  0.1034
  186MOL0     H25101   6.327   3.560   4.148 -0.2910 -0.1514 -0.4134
  186MOL0     H25102   6.329   3.614   3.914 -0.9401  0.2841 -2.0931
  186MOL0     H25103   6.267   3.777   3.948 -0.7867 -0.1176  0.7308
  186MOL0     H25104   6.065   3.696   4.036 -1.0093 -0.5309 -0.2949
  186MOL0     H25105   6.071   3.618   3.883 -1.1326  2.3153  0.9067
  186MOL0     H25106   6.036   3.278   4.111  3.0577 -0.8454 -0.0143
  186MOL0     H25107   6.592   3.555   4.441  4.0651 -0.7648 -0.8151
  186MOL0     H25108   6.677   3.518   4.659 -0.7005 -2.3819  4.0034
  186MOL0     H25109   6.708   3.651   4.776 -1.8652  0.6048  2.5808
  186MOL0     H25110   6.546   3.583   4.754 -1.0538 -3.0371 -3.9053
  187MOL0     O25111   8.572   0.448   0.447  0.1475 -0.5679  0.5858
  187MOL0     C25112   8.539   0.565   0.424  0.7312 -0.1394  0.6076
  187MOL0     O25113   8.466   0.608   0.317  0.1978 -0.8207  0.0559
  187MOL0     C25114   8.447   0.510   0.216  0.1717 -1.5228 -0.4480
  187MOL0     C25115   8.375   0.392   0.234 -0.4553  0.9328 -0.6248
  187MOL0     C25116   8.356   0.308   0.118  0.3562  0.0628  0.3745
  187MOL0     C25117   8.393   0.343  -0.012 -0.1537 -0.0898 -0.1654
  187MOL0     O25118   8.388   0.249  -0.117 -0.0380 -0.3053 -0.0305
  187MOL0     C25119   8.273   0.162  -0.129 -0.0564  0.0331  0.9263
  187MOL0     C25120   8.223   0.136  -0.269  0.1559 -0.5484 -1.0491
  187MOL0     C25121   8.137   0.255  -0.317  1.2347 -0.3354 -0.3694
  187MOL0     C25122   8.211   0.384  -0.365  0.1752  0.2015 -0.4100
  187MOL0     C25123   8.111   0.493  -0.413  0.7895  0.6026  0.2730
  187MOL0     C25124   8.195   0.617  -0.459 -0.7590 -0.1626  0.8357
  187MOL0     C25125   8.141   0.752  -0.419  0.0173  0.8623  0.2219
  187MOL0     C25126   8.201   0.870  -0.501 -0.6880 -0.2588  0.2478
  187MOL0     N25127   8.103   0.988  -0.492 -0.2903  0.0742 -0.7660
  187MOL0     C25128   8.075   1.071  -0.388 -0.2692  0.2620  0.3785
  187MOL0     C25129   7.998   1.169  -0.436 -0.6068  0.0655 -1.0498
  187MOL0     C25130   7.942   1.276  -0.334  0.3221  0.2206 -0.2958
  187MOL0     C25131   8.046   1.319  -0.230 -0.0220 -1.4995  0.1643
  187MOL0     C25132   8.174   1.391  -0.288 -0.4960  0.0537  0.5879
  187MOL0     C25133   8.291   1.308  -0.352 -0.2838 -1.4535 -0.5795
  187MOL0     O25134   8.411   1.396  -0.344  0.3555  0.0200 -0.0670
  187MOL0     C25135   8.517   1.375  -0.430 -0.2693  0.5664  0.2488
  187MOL0     C25136   8.636   1.447  -0.402  0.4778  0.8045  0.1108
  187MOL0     C25137   8.746   1.445  -0.494 -0.3190 -0.0421  0.3998
  187MOL0     C25138   8.759   1.355  -0.603 -0.0297 -0.7127  0.2558
  187MOL0     C25139   8.884   1.347  -0.675 -0.3602 -0.2564  0.1851
  187MOL0     O25140   8.890   1.262  -0.781  0.6736 -0.1093 -0.6189
  187MOL0     C25141   9.015   1.243  -0.848 -0.2961 -0.1739 -0.7991
  187MOL0     C25142   9.122   1.170  -0.795  0.6287  0.4848 -0.4957
  187MOL0     C25143   9.228   1.117  -0.871 -0.2462 -0.1843  0.5472
  187MOL0     C25144   9.218   1.142  -1.011  0.5993 -0.3821 -0.1738
  187MOL0     O25145   9.315   1.079  -1.087 -0.0322  0.7418 -0.4513
  187MOL0     C25146   9.360   1.156  -1.200 -0.2663 -0.8309  0.2025
  187MOL0     C25147   9.437   1.062  -1.272 -0.6490  0.7734  0.5042
  187MOL0     C25148   9.510   1.124  -1.382  0.1359  0.8789 -1.2601
  187MOL0     C25149   9.590   1.018  -1.464 -0.1935 -0.4139  0.0897
  187MOL0     C25150   9.607   1.084  -1.604 -1.1670  0.6318  0.0286
  187MOL0     C25151   9.663   0.989  -1.715 -0.0567  0.8687 -0.2838
  187MOL0     C25152   9.565   0.900  -1.793  0.5100 -0.7121 -0.1913
  187MOL0     C25153   9.498   0.780  -1.719  0.7871  0.4111 -0.1830
  187MOL0    Cl25154   9.434   0.655  -1.824 -0.1262  0.2149  0.3701
  187MOL0     C25155   9.115   1.217  -1.072  0.5743 -0.1999 -0.9606
  187MOL0     C25156   9.012   1.268  -0.990  0.4756 -0.8493  0.6855
  187MOL0     O25157   8.981   1.419  -0.646  0.4218  0.4877  0.0804
  187MOL0     C25158   8.642   1.290  -0.630 -0.1627  0.1045  1.0304
  187MOL0     C25159   8.522   1.294  -0.548 -1.0254  0.5031  0.0728
  187MOL0     N25160   8.005   1.167  -0.571  0.6491  0.4446  0.3546
  187MOL0     N25161   8.054   1.049  -0.605  0.7975 -1.1452 -0.3094
  187MOL0     C25162   8.461   0.466  -0.018  0.5268  0.3771  0.6352
  187MOL0     C25163   8.484   0.554   0.086 -0.6798  1.1570 -0.4256
  187MOL0     C25164   8.588   0.662   0.520  0.6238 -0.0817 -0.4090
  187MOL0     C25165   8.620   0.786   0.478  0.9102 -0.2754 -0.3003
  187MOL0     C25166   8.665   0.877   0.572  0.9416 -0.3281  0.0240
  187MOL0     C25167   8.646   0.846   0.714  0.0114 -0.2769 -0.0554
  187MOL0     O25168   8.682   0.937   0.811 -0.5565  0.3623 -0.3257
  187MOL0     C25169   8.648   1.072   0.792  0.1211 -0.0699 -0.4841
  187MOL0     C25170   8.759   1.159   0.733 -0.8188  0.4427 -0.2163
  187MOL0     C25171   8.698   1.310   0.725 -0.2273  0.5172  0.0076
  187MOL0     C25172   8.803   1.411   0.672  0.1460 -0.8712  0.7313
  187MOL0     C25173   8.835   1.392   0.531 -1.0110 -0.3489 -0.4188
  187MOL0     C25174   8.855   1.356   0.419  0.5122 -0.3599  0.3716
  187MOL0     C25175   8.604   0.719   0.757  0.1241 -0.6452  0.4383
  187MOL0     C25176   8.579   0.625   0.658 -0.0342 -0.3259  0.1260
  187MOL0     C25177   8.509   0.504   0.703 -0.1838  0.0215 -0.0616
  187MOL0     H25178   8.343   0.372   0.335 -0.4033 -0.3030 -0.8373
  187MOL0     H25179   8.309   0.211   0.135 -2.3384  1.2292  0.0712
  187MOL0     H25180   8.308   0.073  -0.076 -2.2940 -1.6863 -0.3132
  187MOL0     H25181   8.193   0.195  -0.063  1.1338  1.7417  1.6051
  187MOL0     H25182   8.161   0.046  -0.275  0.8677 -0.9876 -2.1531
  187MOL0     H25183   8.309   0.129  -0.336  0.7876 -1.0061 -0.2053
  187MOL0     H25184   8.064   0.279  -0.240  1.1382 -1.9557  0.0852
  187MOL0     H25185   8.077   0.238  -0.407  0.9196  1.4376 -0.5380
  187MOL0     H25186   8.272   0.423  -0.284 -1.8016  2.5731  0.0644
  187MOL0     H25187   8.282   0.356  -0.443  0.3670 -0.3449 -0.0484
  187MOL0     H25188   8.045   0.451  -0.490  2.5190 -2.1959  0.1558
  187MOL0     H25189   8.049   0.530  -0.331 -1.2615  1.7416 -1.6684
  187MOL0     H25190   8.296   0.601  -0.421 -0.7805  0.3801  1.1360
  187MOL0     H25191   8.202   0.611  -0.568  1.1854  2.7257  0.6992
  187MOL0     H25192   8.161   0.773  -0.314 -0.0660 -0.8604  0.6166
  187MOL0     H25193   8.035   0.751  -0.448  0.3631 -0.0648 -1.0750
  187MOL0     H25194   8.302   0.899  -0.470  0.5187 -2.6348 -1.1768
  187MOL0     H25195   8.212   0.840  -0.605 -1.8624  0.4599 -0.0988
  187MOL0     H25196   8.100   1.054  -0.283  1.3981 -0.4895 -0.1109
  187MOL0     H25197   7.895   1.359  -0.388 -0.9782 -1.0757 -1.2557
  187MOL0     H25198   7.865   1.223  -0.278  1.9444 -0.5505  1.3195
  187MOL0     H25199   8.004   1.395  -0.164 -0.5744 -0.2431 -1.5859
  187MOL0     H25200   8.079   1.237  -0.166 -0.6992 -0.6426  1.6669
  187MOL0     H25201   8.223   1.456  -0.214  0.0286  0.7585 -0.3595
  187MOL0     H25202   8.131   1.464  -0.356  0.2966  0.0511  0.0658
  187MOL0     H25203   8.264   1.279  -0.454 -2.1893  0.1734 -0.6030
  187MOL0     H25204   8.300   1.220  -0.289  0.2553 -0.4269  0.8351
  187MOL0     H25205   8.622   1.503  -0.310 -2.0974  2.6937 -1.3108
  187MOL0     H25206   8.829   1.508  -0.463 -0.0245  0.5365 -1.4276
  187MOL0     H25207   9.120   1.157  -0.687  0.0842  4.1723  0.0422
  187MOL0     H25208   9.288   1.038  -0.826  1.5218  0.4668 -0.5611
  187MOL0     H25209   9.282   1.190  -1.269  0.6857 -0.1266 -0.5512
  187MOL0     H25210   9.421   1.240  -1.167 -0.4240 -1.2348  1.5706
  187MOL0     H25211   9.523   1.022  -1.218  1.0503  1.4196 -1.5745
  187MOL0     H25212   9.381   0.980  -1.316 -0.5426  0.9442  0.0513
  187MOL0     H25213   9.435   1.169  -1.449  0.4929  2.8434 -0.4161
  187MOL0     H25214   9.581   1.198  -1.345  0.8734  1.4018 -3.5485
  187MOL0     H25215   9.531   0.926  -1.456 -1.0549  0.3057  3.7647
  187MOL0     H25216   9.689   0.988  -1.429  0.6194  0.2884 -1.5343
  187MOL0     H25217   9.679   1.166  -1.602  0.8831 -1.0616 -0.0128
  187MOL0     H25218   9.513   1.120  -1.644 -0.1585  2.3980 -0.8516
  187MOL0     H25219   9.714   1.051  -1.789 -1.5086  2.9272  0.3653
  187MOL0     H25220   9.745   0.930  -1.672  1.0098  0.3691 -2.8540
  187MOL0     H25221   9.610   0.856  -1.882  2.4324 -2.2642  1.4672
  187MOL0     H25222   9.482   0.967  -1.821  2.1029  2.2022  1.5036
  187MOL0     H25223   9.575   0.738  -1.653 -0.0381 -0.3412  0.3227
  187MOL0     H25224   9.421   0.822  -1.654  0.1951 -2.0814  0.8081
  187MOL0     H25225   9.105   1.222  -1.180  0.1771 -0.8409 -0.9604
  187MOL0     H25226   8.927   1.317  -1.036  2.3375  0.7082 -1.2625
  187MOL0     H25227   8.641   1.233  -0.722 -0.4914  1.2311  0.3189
  187MOL0     H25228   8.435   1.236  -0.579 -0.0643 -0.4067 -1.0561
  187MOL0     H25229   8.504   0.489  -0.115 -0.1389 -1.7659 -0.2199
  187MOL0     H25230   8.535   0.650   0.088 -0.7859  1.2062  0.4803
  187MOL0     H25231   8.606   0.812   0.374 -0.3650  0.6792  0.0820
  187MOL0     H25232   8.695   0.972   0.529  0.3081 -0.9751 -1.9488
  187MOL0     H25233   8.608   1.109   0.887 -0.2632 -1.3255 -0.1421
  187MOL0     H25234   8.566   1.066   0.720  0.4233 -0.8388 -0.7753
  187MOL0     H25235   8.797   1.116   0.640 -3.9766  0.0081 -1.4426
  187MOL0     H25236   8.833   1.156   0.813 -2.1033  0.3106  1.0222
  187MOL0     H25237   8.671   1.335   0.828 -1.2724 -0.2621 -0.0586
  187MOL0     H25238   8.604   1.317   0.669  0.3555 -0.3724 -1.1467
  187MOL0     H25239   8.748   1.506   0.674  0.9906 -0.3846  1.4528
  187MOL0     H25240   8.892   1.402   0.734  0.6456 -3.3319 -0.2085
  187MOL0     H25241   8.873   1.344   0.314  0.0087 -0.7865  0.3297
  187MOL0     H25242   8.592   0.698   0.862 -0.3106 -0.5865  0.4009
  187MOL0     H25243   8.487   0.507   0.810  1.2948 -0.8288  0.2929
  187MOL0     H25244   8.415   0.480   0.653 -1.0151 -2.4305  2.3820
  187MOL0     H25245   8.575   0.419   0.682  2.7686  1.8969  1.0632
  188MOL0     O25246   5.327   3.931  10.870  0.7386  0.1910  0.1694
  188MOL0     C25247   5.432   3.998  10.853  1.4016  0.2086 -1.0142
  188MOL0     O25248   5.538   3.959  10.777 -0.1571  1.1412  0.3780
  188MOL0     C25249   5.527   3.856  10.684  0.0846  1.1395  0.1696
  188MOL0     C25250   5.429   3.852  10.580 -0.2468 -0.0847 -0.2804
  188MOL0     C25251   5.424   3.754  10.478 -0.4386 -0.2936 -0.4142
  188MOL0     C25252   5.507   3.639  10.492  0.3417 -1.0266  0.3136
  188MOL0     O25253   5.520   3.536  10.399 -0.7360  0.3681  0.7489
  188MOL0     C25254   5.420   3.506  10.298  0.6779 -0.2614  0.1999
  188MOL0     C25255   5.454   3.385  10.211 -0.2552 -0.3452  0.8718
  188MOL0     C25256   5.448   3.429  10.063 -0.7761  0.3437 -0.2027
  188MOL0     C25257   5.475   3.302   9.979 -0.4449  0.4439 -0.9830
  188MOL0     C25258   5.418   3.333   9.841  0.4920  0.7852 -0.0302
  188MOL0     C25259   5.425   3.206   9.758 -0.5973 -0.0311 -0.9742
  188MOL0     C25260   5.346   3.220   9.627 -0.5990 -0.1770  0.1036
  188MOL0     C25261   5.420   3.141   9.516  0.4055 -1.4690 -0.4890
  188MOL0     N25262   5.523   3.223   9.440  0.5389  0.5876 -0.7881
  188MOL0     C25263   5.646   3.262   9.485  0.5594  0.3781  0.1150
  188MOL0     C25264   5.699   3.335   9.384 -0.2034 -0.0282  0.2766
  188MOL0     C25265   5.833   3.399   9.385 -0.0282 -0.2238  0.6224
  188MOL0     C25266   5.867   3.484   9.264 -0.0239  0.1496 -1.0233
  188MOL0     C25267   5.817   3.629   9.259  0.1378 -0.9690  0.0240
  188MOL0     C25268   5.893   3.705   9.141 -0.2415 -0.6931 -1.1370
  188MOL0     O25269   5.944   3.617   9.036  0.5523 -0.0014 -0.1717
  188MOL0     C25270   6.004   3.671   8.924  0.1434 -0.2531 -0.4456
  188MOL0     C25271   6.024   3.814   8.904  0.0683 -0.5443  0.0481
  188MOL0     C25272   6.075   3.872   8.784  0.3306 -0.0795 -0.2162
  188MOL0     C25273   6.104   3.788   8.676 -0.8305 -0.6192  0.4422
  188MOL0     C25274   6.169   3.842   8.550  0.7941 -0.3512 -0.6580
  188MOL0     O25275   6.239   3.754   8.466  0.5482 -0.0353 -0.5941
  188MOL0     C25276   6.297   3.811   8.358  0.0720 -0.2405  0.3301
  188MOL0     C25277   6.233   3.807   8.236  0.0346  0.3738 -0.2957
  188MOL0     C25278   6.289   3.859   8.123  0.1854 -0.5177 -0.0896
  188MOL0     C25279   6.420   3.906   8.123 -0.1498 -0.1391  0.2522
  188MOL0     O25280   6.491   3.945   8.017  0.0922  0.2666 -0.3052
  188MOL0     C25281   6.547   3.830   7.956  0.1461 -0.0175  0.6098
  188MOL0     C25282   6.575   3.864   7.802  0.3796  0.5291 -0.0543
  188MOL0     C25283   6.689   3.766   7.759  0.4049  0.3958  0.2930
  188MOL0     C25284   6.711   3.786   7.614 -0.5861  0.2889 -0.4756
  188MOL0     C25285   6.812   3.697   7.543  0.8392 -0.0580 -0.1095
  188MOL0     C25286   6.752   3.561   7.503 -0.3420 -0.4832  1.0418
  188MOL0     C25287   6.713   3.465   7.609  0.4305 -0.1463 -0.2715
  188MOL0     C25288   6.827   3.430   7.708  0.1153  0.0007 -0.6261
  188MOL0    Cl25289   6.796   3.272   7.796  0.0129  0.2771  0.2779
  188MOL0     C25290   6.481   3.905   8.243  0.2286 -0.8021 -0.2383
  188MOL0     C25291   6.430   3.861   8.363  0.4428  0.1497 -0.2467
  188MOL0     O25292   6.153   3.963   8.532  0.4833  0.8587 -0.1833
  188MOL0     C25293   6.103   3.647   8.702 -0.2529  0.1516 -0.8117
  188MOL0     C25294   6.054   3.592   8.823 -0.9225  0.1827  0.3658
  188MOL0     N25295   5.607   3.355   9.284  0.0596 -0.1673 -0.2426
  188MOL0     N25296   5.508   3.280   9.312 -0.0571 -0.2714  0.0651
  188MOL0     C25297   5.612   3.652  10.586  0.3068  0.0234  0.7689
  188MOL0     C25298   5.612   3.746  10.685  0.0291  0.9314  0.1016
  188MOL0     C25299   5.452   4.118  10.946  0.4008  0.2306 -0.0911
  188MOL0     C25300   5.580   4.150  10.993  0.1446  0.5789  0.0714
  188MOL0     C25301   5.600   4.260  11.073  0.7797  0.7016 -0.6315
  188MOL0     C25302   5.494   4.348  11.109 -0.8541  0.8024 -0.5130
  188MOL0     O25303   5.524   4.453  11.192  0.5214 -0.0520  0.5952
  188MOL0     C25304   5.427   4.541  11.237 -0.0915  0.2170 -0.8672
  188MOL0     C25305   5.383   4.661  11.146 -0.7715  0.3635 -0.0695
  188MOL0     C25306   5.227   4.663  11.146  0.0232  0.4213 -0.0863
  188MOL0     C25307   5.174   4.800  11.114 -0.2474 -1.4011  0.1364
  188MOL0     C25308   5.033   4.819  11.152 -0.0106  0.0082  0.7158
  188MOL0     C25309   4.924   4.840  11.185  0.0710 -1.2929  0.2493
  188MOL0     C25310   5.369   4.329  11.048  0.1160 -0.1209  0.5054
  188MOL0     C25311   5.348   4.211  10.969 -0.0542  0.6874 -0.4229
  188MOL0     C25312   5.211   4.199  10.915  0.8915 -0.6424  0.0891
  188MOL0     H25313   5.362   3.937  10.569 -3.8272 -2.5743  0.6126
  188MOL0     H25314   5.344   3.769  10.406 -0.0905  0.3971 -0.6683
  188MOL0     H25315   5.332   3.475  10.355  2.1712 -0.4638  2.5451
  188MOL0     H25316   5.390   3.587  10.231 -2.0026 -1.1329  0.2354
  188MOL0     H25317   5.382   3.304  10.224 -1.0465  0.1214 -0.3999
  188MOL0     H25318   5.555   3.352  10.235  0.3885  0.1747 -0.9214
  188MOL0     H25319   5.536   3.495  10.063 -0.6817  0.2432  0.6813
  188MOL0     H25320   5.359   3.488  10.040 -1.0463  0.2796  0.6268
  188MOL0     H25321   5.582   3.279   9.981 -1.0528 -3.3852  2.9600
  188MOL0     H25322   5.409   3.226  10.020 -2.5728  1.5427 -2.1853
  188MOL0     H25323   5.310   3.355   9.841 -0.2393 -2.2934  0.4165
  188MOL0     H25324   5.464   3.419   9.791  0.6722  1.9567  2.0629
  188MOL0     H25325   5.531   3.196   9.731 -0.9018 -1.9011 -1.6051
  188MOL0     H25326   5.407   3.115   9.815 -0.8818 -0.4957 -1.7859
  188MOL0     H25327   5.330   3.321   9.590 -1.7688 -1.3358 -2.9282
  188MOL0     H25328   5.248   3.177   9.649 -0.6720 -0.2947 -0.4430
  188MOL0     H25329   5.460   3.045   9.549 -2.4374 -2.6470 -0.1052
  188MOL0     H25330   5.349   3.108   9.439  1.0659  0.1122 -1.8373
  188MOL0     H25331   5.676   3.234   9.586 -2.6960  1.9064  1.6624
  188MOL0     H25332   5.848   3.457   9.476  3.1153  1.9580 -1.1379
  188MOL0     H25333   5.907   3.319   9.393 -2.6080 -2.9443 -0.3557
  188MOL0     H25334   5.976   3.483   9.253  0.3715  2.8519  1.6120
  188MOL0     H25335   5.829   3.439   9.172 -2.4306  0.5338 -0.2864
  188MOL0     H25336   5.833   3.673   9.358  2.3783 -0.5700 -0.4521
  188MOL0     H25337   5.712   3.630   9.230 -0.2052 -3.1658  0.9297
  188MOL0     H25338   5.973   3.764   9.187  1.2359 -3.6775  0.5077
  188MOL0     H25339   5.828   3.784   9.104 -0.6951  0.9613  2.7340
  188MOL0     H25340   6.000   3.877   8.990  0.4369  0.1243 -0.3318
  188MOL0     H25341   6.099   3.978   8.793 -0.4368  0.1961 -1.1912
  188MOL0     H25342   6.131   3.768   8.241 -1.0848  2.9805 -0.9841
  188MOL0     H25343   6.233   3.867   8.031 -1.2483 -0.5198  0.7402
  188MOL0     H25344   6.640   3.806   8.008 -1.4948 -2.5566  2.6112
  188MOL0     H25345   6.476   3.748   7.940 -0.0727  0.7545 -3.5250
  188MOL0     H25346   6.479   3.852   7.750 -0.5388 -2.5516  2.0808
  188MOL0     H25347   6.607   3.967   7.786  1.2178  0.8337  3.0041
  188MOL0     H25348   6.774   3.792   7.822  1.4896 -0.6669 -0.6718
  188MOL0     H25349   6.659   3.664   7.786  0.6241 -0.2501 -1.7089
  188MOL0     H25350   6.758   3.884   7.608  0.5125 -0.2001 -0.0259
  188MOL0     H25351   6.617   3.781   7.557  0.2836 -1.8287 -1.8518
  188MOL0     H25352   6.898   3.679   7.608  0.7477  0.8812  0.2877
  188MOL0     H25353   6.848   3.743   7.450 -1.8453  2.2322 -0.1462
  188MOL0     H25354   6.665   3.579   7.439  0.4083 -1.4681 -0.2922
  188MOL0     H25355   6.826   3.514   7.438  0.7199  2.6534 -0.1972
  188MOL0     H25356   6.687   3.374   7.555 -1.4758  1.4484 -2.2553
  188MOL0     H25357   6.617   3.487   7.656 -1.9074 -5.5851 -1.7371
  188MOL0     H25358   6.917   3.419   7.646  1.3688  1.1417  0.9079
  188MOL0     H25359   6.857   3.519   7.764  0.6304 -0.4703 -0.1495
  188MOL0     H25360   6.583   3.943   8.238  1.6259 -4.2090 -0.4873
  188MOL0     H25361   6.473   3.885   8.460 -0.4912  1.6703 -0.1706
  188MOL0     H25362   6.150   3.576   8.636  2.1571  0.5568  0.3686
  188MOL0     H25363   6.039   3.485   8.839  1.5961 -0.4389 -0.9579
  188MOL0     H25364   5.693   3.582  10.568 -0.1159 -0.1164 -0.6585
  188MOL0     H25365   5.690   3.744  10.760 -0.2336 -0.8159  0.3771
  188MOL0     H25366   5.660   4.078  10.976  0.6248  0.1616  3.4060
  188MOL0     H25367   5.697   4.272  11.122 -0.0291 -3.3419  2.5376
  188MOL0     H25368   5.456   4.579  11.335 -2.0996  1.0550 -0.5314
  188MOL0     H25369   5.341   4.476  11.257  0.0656 -0.0382 -1.0303
  188MOL0     H25370   5.420   4.644  11.044 -0.6710 -3.2695  0.4509
  188MOL0     H25371   5.427   4.755  11.181 -1.9759  1.6250 -1.7374
  188MOL0     H25372   5.200   4.647  11.250  0.4513 -0.9395 -0.1610
  188MOL0     H25373   5.193   4.593  11.069  4.7792 -1.8400 -0.4915
  188MOL0     H25374   5.212   4.877  11.182 -2.0875 -1.7907  1.6800
  188MOL0     H25375   5.199   4.839  11.015 -0.9202  2.8886  1.4453
  188MOL0     H25376   4.823   4.873  11.199  0.7473 -0.0783  2.7564
  188MOL0     H25377   5.292   4.403  11.069  0.5371  0.0820  1.4301
  188MOL0     H25378   5.212   4.157  10.814  3.2210  0.4251 -0.4204
  188MOL0     H25379   5.152   4.129  10.975  1.3047 -1.5327 -0.5273
  188MOL0     H25380   5.157   4.294  10.913 -1.1882 -1.7808 -0.3809
  189MOL0     O25381   1.773   0.422   1.084  0.0857 -0.5893 -0.1254
  189MOL0     C25382   1.833   0.340   1.016  0.9583 -0.3345  0.6714
  189MOL0     O25383   1.884   0.369   0.887 -0.2680 -0.1080 -0.7719
  189MOL0     C25384   1.887   0.499   0.838  0.1884 -0.0508  0.4154
  189MOL0     C25385   1.947   0.598   0.911  0.1608  0.3865  0.5822
  189MOL0     C25386   1.929   0.726   0.875  1.0022  0.9140 -0.2890
  189MOL0     C25387   1.875   0.758   0.752 -0.3591 -0.4751 -0.1578
  189MOL0     O25388   1.885   0.883   0.691  0.0340  1.1202 -0.1412
  189MOL0     C25389   1.867   0.991   0.777 -0.2257 -0.4914 -0.1470
  189MOL0     C25390   1.850   1.126   0.693  0.0242  0.0429  0.5394
  189MOL0     C25391   1.796   1.244   0.768 -0.1050  0.3712 -0.1500
  189MOL0     C25392   1.890   1.302   0.862 -1.3583  0.4846 -0.5321
  189MOL0     C25393   1.849   1.418   0.952  0.8441  0.9741 -0.1631
  189MOL0     C25394   1.807   1.538   0.868  0.1195 -0.4860 -0.1076
  189MOL0     C25395   1.764   1.654   0.950 -0.5396 -0.5800 -0.1097
  189MOL0     C25396   1.764   1.786   0.867 -0.4230  0.3304  0.4300
  189MOL0     N25397   1.884   1.811   0.800 -0.7985 -0.1358 -0.3178
  189MOL0     C25398   2.004   1.843   0.875 -1.0297  0.8124 -0.1418
  189MOL0     C25399   2.093   1.856   0.769 -0.2619  0.1233  0.6889
  189MOL0     C25400   2.240   1.893   0.789 -0.4011  0.2708  0.5580
  189MOL0     C25401   2.336   1.799   0.715 -0.1178  0.1375  0.4260
  189MOL0     C25402   2.440   1.882   0.634 -0.6456  0.4457  0.7766
  189MOL0     C25403   2.542   1.797   0.568 -0.4222  0.9204  1.0623
  189MOL0     O25404   2.606   1.737   0.674  0.2401 -0.3756  0.0699
  189MOL0     C25405   2.689   1.630   0.658 -0.8278  0.2748 -0.5332
  189MOL0     C25406   2.720   1.577   0.531  0.6266  0.1861 -0.2708
  189MOL0     C25407   2.802   1.473   0.510  0.8921  1.1385 -0.0118
  189MOL0     C25408   2.878   1.425   0.626  0.2413  0.0569 -0.0292
  189MOL0     C25409   2.962   1.304   0.621 -0.8159  0.0967 -0.4961
  189MOL0     O25410   2.947   1.226   0.516  0.1088  1.4183  1.2381
  189MOL0     C25411   3.046   1.138   0.479  1.4853  0.5723 -0.1085
  189MOL0     C25412   3.170   1.109   0.543  0.1797  0.3606 -0.4074
  189MOL0     C25413   3.260   1.013   0.484 -0.1611 -0.3593  0.0064
  189MOL0     C25414   3.225   0.936   0.383 -0.3789  0.0191 -0.5134
  189MOL0     O25415   3.310   0.837   0.348  0.4011 -0.2892 -0.1759
  189MOL0     C25416   3.311   0.735   0.451 -0.4433 -0.1360 -0.0418
  189MOL0     C25417   3.463   0.690   0.460 -0.5327 -0.7445 -0.3130
  189MOL0     C25418   3.532   0.737   0.592 -0.1507 -0.1607 -0.1275
  189MOL0     C25419   3.680   0.678   0.608  0.7939 -0.2349  0.5611
  189MOL0     C25420   3.682   0.534   0.645  0.4636 -0.0661 -0.1504
  189MOL0     C25421   3.781   0.502   0.735 -0.2220  1.0424 -0.4894
  189MOL0     C25422   3.784   0.361   0.797 -0.1017  0.0269  0.3575
  189MOL0     C25423   3.825   0.256   0.703  0.1921 -0.1828  0.6423
  189MOL0    Cl25424   3.696   0.181   0.613  0.0565 -0.0673  0.0477
  189MOL0     C25425   3.105   0.963   0.312 -0.6071  0.3824 -0.0958
  189MOL0     C25426   3.019   1.064   0.368 -0.3414 -0.1141  0.0834
  189MOL0     O25427   3.038   1.281   0.719 -0.3309 -0.7207  0.6777
  189MOL0     C25428   2.870   1.503   0.755  0.7799 -1.0735  0.2352
  189MOL0     C25429   2.762   1.594   0.769  0.9144  0.0821  0.1621
  189MOL0     N25430   2.037   1.838   0.639  0.6242 -0.3138 -0.1689
  189MOL0     N25431   1.909   1.816   0.661  0.3464 -0.3805  0.1814
  189MOL0     C25432   1.843   0.655   0.670  0.6367  0.2179  0.2030
  189MOL0     C25433   1.836   0.522   0.714  0.7685  0.1776  0.2285
  189MOL0     C25434   1.852   0.209   1.084  0.1666 -0.0613 -0.5254
  189MOL0     C25435   1.982   0.152   1.092  0.0536 -0.2855 -0.5028
  189MOL0     C25436   2.002   0.028   1.158 -0.7036  0.3759  0.5630
  189MOL0     C25437   1.899  -0.030   1.224 -0.5261  0.1986 -1.0056
  189MOL0     O25438   1.914  -0.142   1.301  0.5876  0.4279  0.1869
  189MOL0     C25439   1.938  -0.261   1.224  0.7381 -0.1818 -0.2257
  189MOL0     C25440   2.065  -0.332   1.266 -1.3290 -0.3806 -0.6730
  189MOL0     C25441   2.114  -0.433   1.157 -0.2301 -0.1798 -0.1555
  189MOL0     C25442   2.178  -0.557   1.218 -0.6732  0.0667  0.8550
  189MOL0     C25443   2.260  -0.631   1.113 -0.2729  1.0681  0.6591
  189MOL0     C25444   2.342  -0.698   1.044 -0.5657 -0.5630  0.3252
  189MOL0     C25445   1.773   0.019   1.206  0.6444  0.1260 -0.3528
  189MOL0     C25446   1.747   0.134   1.135  0.1694  0.0995  0.8028
  189MOL0     C25447   1.603   0.181   1.124  0.8057 -0.6623  0.1192
  189MOL0     H25448   1.969   0.573   1.014 -3.0068 -3.4038  0.5500
  189MOL0     H25449   1.936   0.805   0.949  0.4155  2.0531 -1.4017
  189MOL0     H25450   1.784   0.975   0.846  1.2007  1.6108  2.1988
  189MOL0     H25451   1.958   1.014   0.833  0.4847  0.3707 -1.5870
  189MOL0     H25452   1.780   1.119   0.609  4.2721  3.8706 -3.8646
  189MOL0     H25453   1.940   1.145   0.635 -0.5165 -2.7414 -1.4694
  189MOL0     H25454   1.707   1.213   0.825  0.1897  1.0948  0.7358
  189MOL0     H25455   1.766   1.321   0.696 -0.1982 -0.3287 -0.8577
  189MOL0     H25456   1.917   1.226   0.937 -1.8009 -2.0647 -2.7835
  189MOL0     H25457   1.984   1.330   0.814 -0.8594  0.3939  0.3698
  189MOL0     H25458   1.766   1.383   1.014  3.7291 -2.3878  2.2231
  189MOL0     H25459   1.930   1.449   1.019  1.1522 -0.7760  0.3406
  189MOL0     H25460   1.892   1.564   0.804  0.7379 -0.5033  0.6830
  189MOL0     H25461   1.718   1.516   0.808 -1.4492 -0.9550  2.2444
  189MOL0     H25462   1.832   1.671   1.033 -2.2324 -0.0683  1.2216
  189MOL0     H25463   1.668   1.636   1.000 -1.1992 -0.6609 -1.3435
  189MOL0     H25464   1.685   1.782   0.791 -1.4220  0.6304  1.4241
  189MOL0     H25465   1.741   1.866   0.938  0.9334 -0.4872  1.8670
  189MOL0     H25466   2.012   1.864   0.981  3.7167  2.1218 -0.5306
  189MOL0     H25467   2.254   1.996   0.754  0.5638 -0.0987 -0.1603
  189MOL0     H25468   2.289   1.898   0.887  0.8044 -0.9400  0.0400
  189MOL0     H25469   2.389   1.733   0.784 -0.3286 -1.3111 -0.7330
  189MOL0     H25470   2.284   1.746   0.635  0.9059 -0.4732  0.1478
  189MOL0     H25471   2.502   1.946   0.698  1.3210  0.1782 -0.7410
  189MOL0     H25472   2.389   1.945   0.561 -0.6621 -0.7504 -0.2780
  189MOL0     H25473   2.608   1.855   0.503 -0.9719 -1.3651 -1.6924
  189MOL0     H25474   2.487   1.721   0.512 -0.6119  1.1290  0.9630
  189MOL0     H25475   2.664   1.615   0.446 -1.4845  0.9310  1.3432
  189MOL0     H25476   2.812   1.438   0.408  0.1393 -0.6040  0.4724
  189MOL0     H25477   3.208   1.143   0.639 -0.2396  2.1732 -0.8428
  189MOL0     H25478   3.355   1.008   0.537  1.3796  3.5964 -1.9826
  189MOL0     H25479   3.286   0.772   0.551 -0.3051 -1.3925  0.4740
  189MOL0     H25480   3.241   0.654   0.432 -1.5775 -0.1175  3.3836
  189MOL0     H25481   3.467   0.581   0.458  1.6648 -0.7320 -3.4522
  189MOL0     H25482   3.528   0.728   0.381  2.8925 -0.0309  2.5708
  189MOL0     H25483   3.544   0.845   0.604 -0.6074 -0.3765  3.4139
  189MOL0     H25484   3.473   0.712   0.680  0.8475  1.0299  0.9359
  189MOL0     H25485   3.729   0.741   0.683  1.9745  0.4702 -0.7506
  189MOL0     H25486   3.730   0.702   0.514 -0.7789 -0.4023 -0.3403
  189MOL0     H25487   3.689   0.472   0.555 -2.4770 -1.2213  0.2972
  189MOL0     H25488   3.587   0.510   0.693  1.7365 -1.5372  1.7921
  189MOL0     H25489   3.882   0.519   0.696  0.3679 -0.2230  0.4396
  189MOL0     H25490   3.779   0.567   0.823  1.5411 -1.2542  1.3610
  189MOL0     H25491   3.688   0.336   0.843 -0.3650 -1.1748 -0.8148
  189MOL0     H25492   3.857   0.357   0.879 -0.0918  1.0326  0.4177
  189MOL0     H25493   3.897   0.298   0.633  0.1070 -1.5394 -0.2825
  189MOL0     H25494   3.880   0.172   0.748  3.0067 -0.8131 -3.4421
  189MOL0     H25495   3.076   0.911   0.222  0.8593  2.0140 -1.6006
  189MOL0     H25496   2.938   1.106   0.310 -1.5190  0.5391  2.0719
  189MOL0     H25497   2.933   1.486   0.841  2.2097 -0.2190 -0.6144
  189MOL0     H25498   2.750   1.677   0.839 -1.8241  1.6285 -1.9220
  189MOL0     H25499   1.802   0.679   0.573  0.8028 -3.0577 -0.8166
  189MOL0     H25500   1.806   0.440   0.650 -0.5224 -0.3830  1.4876
  189MOL0     H25501   2.065   0.195   1.039  1.0496  3.2588  3.4100
  189MOL0     H25502   2.105  -0.008   1.159 -1.5691 -2.3252  1.9140
  189MOL0     H25503   1.938  -0.265   1.115 -0.9154 -0.4258 -0.2421
  189MOL0     H25504   1.858  -0.332   1.248 -0.6240  0.4708 -2.5756
  189MOL0     H25505   2.021  -0.387   1.349 -1.5044 -1.2618 -1.3360
  189MOL0     H25506   2.144  -0.262   1.297 -0.4793 -0.9700 -1.4564
  189MOL0     H25507   2.187  -0.382   1.094 -1.3074  2.2107  0.3647
  189MOL0     H25508   2.035  -0.473   1.093 -0.7921 -4.2769  2.7317
  189MOL0     H25509   2.241  -0.518   1.299  0.7963  0.8269 -0.5975
  189MOL0     H25510   2.088  -0.608   1.255  0.9434 -1.9337  2.2672
  189MOL0     H25511   2.407  -0.752   0.978  0.3258  0.0049  0.7067
  189MOL0     H25512   1.689  -0.043   1.236  0.1377  0.7645 -0.4215
  189MOL0     H25513   1.590   0.265   1.055 -0.5863  0.5735  1.7937
  189MOL0     H25514   1.535   0.099   1.101 -1.3671  1.0242  0.1849
  189MOL0     H25515   1.558   0.212   1.219 -3.1666 -1.9716 -1.1474
  190MOL0     O25516   3.976   2.249   7.094 -0.7567  0.0956 -0.0346
  190MOL0     C25517   4.078   2.206   7.147  0.6905  0.9417 -0.7942
  190MOL0     O25518   4.108   2.204   7.277 -0.2050  0.0940 -0.0445
  190MOL0     C25519   4.061   2.300   7.362  0.3407  0.0758  1.0440
  190MOL0     C25520   4.136   2.408   7.400  0.1339  0.3716  0.3139
  190MOL0     C25521   4.084   2.507   7.486  0.3503  0.2197 -0.4577
  190MOL0     C25522   3.949   2.486   7.534  0.2225 -0.1339  0.5704
  190MOL0     O25523   3.886   2.570   7.632  0.0600 -0.1145  0.2901
  190MOL0     C25524   3.967   2.647   7.720 -0.3467  0.0098 -0.1054
  190MOL0     C25525   3.888   2.739   7.802 -0.1009  0.0423  0.3718
  190MOL0     C25526   3.830   2.692   7.940  0.3396 -0.7232  0.2295
  190MOL0     C25527   3.739   2.807   7.986 -0.7495  0.1908 -0.2913
  190MOL0     C25528   3.681   2.792   8.132  0.5708 -0.0166 -0.3294
  190MOL0     C25529   3.566   2.893   8.156 -0.0678 -0.2881  0.0582
  190MOL0     C25530   3.507   2.883   8.299 -0.4346 -0.9177 -0.5096
  190MOL0     C25531   3.357   2.929   8.296  0.5015 -0.8968  0.2119
  190MOL0     N25532   3.288   2.927   8.425 -0.5698  0.7962 -0.9565
  190MOL0     C25533   3.246   3.022   8.510  1.0789 -0.4416 -0.2321
  190MOL0     C25534   3.209   2.970   8.630 -0.0713  0.3427 -0.4112
  190MOL0     C25535   3.158   3.039   8.756 -0.0341  0.1781  0.4728
  190MOL0     C25536   3.272   3.045   8.857 -0.5427  1.1526 -0.0906
  190MOL0     C25537   3.210   3.114   8.982  0.7255 -0.0505 -0.1520
  190MOL0     C25538   3.290   3.115   9.112 -1.1134  0.3306  0.1290
  190MOL0     O25539   3.278   2.977   9.175  0.6501 -0.3276 -0.4337
  190MOL0     C25540   3.190   2.969   9.281  0.1448 -0.8745 -0.0052
  190MOL0     C25541   3.077   3.055   9.322  0.2730  0.0192  0.6880
  190MOL0     C25542   3.011   3.041   9.444 -0.3375  0.9032  0.3026
  190MOL0     C25543   3.043   2.940   9.536 -0.7762  0.1578 -0.5702
  190MOL0     C25544   2.976   2.927   9.669  0.7242  0.5759 -0.0833
  190MOL0     O25545   2.869   3.006   9.688 -0.3738  0.6721  0.8727
  190MOL0     C25546   2.803   2.996   9.809  0.9999  0.1129  0.1301
  190MOL0     C25547   2.875   3.009   9.925  1.3217  0.2500 -1.0451
  190MOL0     C25548   2.807   3.021  10.052  0.5537 -0.0346  0.6530
  190MOL0     C25549   2.666   3.007  10.061  0.0001 -0.6877  0.1675
  190MOL0     O25550   2.609   3.035  10.181  0.1780 -0.5879  0.4297
  190MOL0     C25551   2.473   3.003  10.216 -0.8153  0.0284 -1.0043
  190MOL0     C25552   2.443   3.061  10.357  0.2753  0.3998 -0.6363
  190MOL0     C25553   2.294   3.055  10.400 -0.1792  0.2291  0.5501
  190MOL0     C25554   2.285   3.125  10.534  0.4375 -0.7615  0.1298
  190MOL0     C25555   2.142   3.136  10.576  0.4367  0.1763 -0.4770
  190MOL0     C25556   2.125   3.213  10.708 -0.4389  0.3557 -0.3446
  190MOL0     C25557   1.983   3.203  10.758  0.1923 -0.9289  0.2746
  190MOL0     C25558   1.973   3.243  10.904  0.5324 -0.4752 -0.1065
  190MOL0    Cl25559   1.994   3.417  10.933  0.3286  0.2103  0.4511
  190MOL0     C25560   2.602   2.969   9.946 -0.5669 -0.6912  0.3316
  190MOL0     C25561   2.670   2.963   9.828  0.3180 -0.2663  0.8957
  190MOL0     O25562   3.030   2.855   9.758 -0.3699 -0.1750  0.1236
  190MOL0     C25563   3.146   2.857   9.503  0.0209 -0.3437 -0.1416
  190MOL0     C25564   3.223   2.884   9.389 -0.7459 -0.2391 -0.2930
  190MOL0     N25565   3.240   2.836   8.622 -0.1449 -0.3611 -0.1256
  190MOL0     N25566   3.287   2.814   8.501 -0.2247  0.0558  0.3665
  190MOL0     C25567   3.871   2.382   7.489  0.3109 -0.6016 -0.1544
  190MOL0     C25568   3.925   2.291   7.404  0.6723  0.1139 -0.1569
  190MOL0     C25569   4.164   2.122   7.063 -0.2441 -1.2897 -0.5643
  190MOL0     C25570   4.105   2.054   6.956 -0.0243  0.2680 -0.2991
  190MOL0     C25571   4.188   1.980   6.873  0.1931 -0.3888 -0.6495
  190MOL0     C25572   4.330   1.961   6.896  0.4190  0.0881  0.0331
  190MOL0     O25573   4.420   1.894   6.825 -0.4352  0.6079  0.4468
  190MOL0     C25574   4.383   1.856   6.692 -0.5212 -0.9721  0.3567
  190MOL0     C25575   4.496   1.804   6.621  0.4316  0.9959 -0.8623
  190MOL0     C25576   4.546   1.670   6.685 -0.4541  0.6377  0.2057
  190MOL0     C25577   4.666   1.604   6.611  0.5640  0.1334  0.7430
  190MOL0     C25578   4.606   1.564   6.475 -1.1817 -0.3016 -1.2337
  190MOL0     C25579   4.577   1.500   6.374 -0.1171 -0.6469  0.1834
  190MOL0     C25580   4.379   2.030   6.999 -1.1144  0.5870  0.2996
  190MOL0     C25581   4.311   2.122   7.076  0.5611  0.2942 -0.3753
  190MOL0     C25582   4.381   2.210   7.179  0.6065  0.0631  0.6407
  190MOL0     H25583   4.240   2.402   7.370 -0.2788 -0.7961 -0.9787
  190MOL0     H25584   4.151   2.584   7.523 -0.3806 -0.4852  2.5597
  190MOL0     H25585   4.009   2.576   7.792 -1.3838  0.2378  0.7485
  190MOL0     H25586   4.049   2.695   7.667  1.3438 -2.5195  0.0604
  190MOL0     H25587   3.803   2.762   7.737 -0.1077  0.8471  0.6584
  190MOL0     H25588   3.950   2.828   7.810  2.9166 -1.5698 -2.4755
  190MOL0     H25589   3.906   2.670   8.016 -0.4568 -1.8258  0.7249
  190MOL0     H25590   3.765   2.605   7.948  1.5782 -1.5125  2.4247
  190MOL0     H25591   3.797   2.899   7.980 -0.3658 -0.1546 -3.0988
  190MOL0     H25592   3.645   2.804   7.929 -0.8683  1.5808 -0.1912
  190MOL0     H25593   3.651   2.688   8.141  0.8602 -0.6196 -4.3750
  190MOL0     H25594   3.744   2.828   8.214 -1.9663  0.0752  1.6823
  190MOL0     H25595   3.594   2.993   8.121 -0.8829  0.2339  0.8651
  190MOL0     H25596   3.485   2.863   8.089  0.0977 -0.9285  0.1374
  190MOL0     H25597   3.563   2.940   8.373  1.7611 -2.3979 -0.9514
  190MOL0     H25598   3.500   2.779   8.331 -3.2869  0.3969  4.1042
  190MOL0     H25599   3.357   3.029   8.253  0.8078 -0.7782  0.4884
  190MOL0     H25600   3.294   2.867   8.231 -1.6005 -1.4708  2.6307
  190MOL0     H25601   3.247   3.127   8.483  1.2925 -1.1529 -3.2844
  190MOL0     H25602   3.124   3.139   8.727 -0.6099 -0.2936 -0.4800
  190MOL0     H25603   3.080   2.978   8.802  0.8717 -2.1521 -0.9411
  190MOL0     H25604   3.318   2.948   8.877 -4.6589 -1.4404 -1.8376
  190MOL0     H25605   3.345   3.113   8.812 -0.2670 -0.4508 -2.2556
  190MOL0     H25606   3.111   3.076   9.008  0.5425  0.8839  0.5510
  190MOL0     H25607   3.181   3.215   8.953 -3.5290 -0.5251  1.8058
  190MOL0     H25608   3.256   3.191   9.182 -1.2866 -0.2118  0.6414
  190MOL0     H25609   3.389   3.150   9.081 -0.2577 -2.9654 -1.3456
  190MOL0     H25610   3.057   3.141   9.258 -0.3974 -0.4840  0.2082
  190MOL0     H25611   2.927   3.107   9.467  0.0651  1.4837  0.1356
  190MOL0     H25612   2.980   3.033   9.911  1.2231  2.8435  1.7319
  190MOL0     H25613   2.863   3.037  10.143  0.7620 -2.2604  0.9700
  190MOL0     H25614   2.406   3.055  10.147 -0.8145 -0.5659 -1.4583
  190MOL0     H25615   2.450   2.897  10.207 -3.0598  0.3219  0.4591
  190MOL0     H25616   2.512   3.011  10.427  1.5261 -0.7013 -2.5606
  190MOL0     H25617   2.466   3.168  10.364  1.6929  0.0094  2.6565
  190MOL0     H25618   2.243   3.114  10.323 -1.3822  0.5342  1.5584
  190MOL0     H25619   2.258   2.952  10.406  0.7965 -0.3039 -1.6708
  190MOL0     H25620   2.330   3.223  10.545 -0.0612 -0.1596 -2.3682
  190MOL0     H25621   2.330   3.050  10.600 -4.0936 -4.0236  0.0073
  190MOL0     H25622   2.101   3.034  10.581  0.0742  0.2617 -1.5938
  190MOL0     H25623   2.083   3.190  10.502 -0.7223  0.6328  0.7411
  190MOL0     H25624   2.183   3.166  10.787 -0.7050 -0.2082 -0.4778
  190MOL0     H25625   2.149   3.320  10.706  0.1260  0.5221  4.3602
  190MOL0     H25626   1.953   3.098  10.752 -2.7694 -0.1361 -0.5895
  190MOL0     H25627   1.912   3.270  10.708 -1.2258 -1.1766  1.8720
  190MOL0     H25628   1.887   3.198  10.954  0.3542 -3.9116 -3.0782
  190MOL0     H25629   2.056   3.183  10.941 -1.8553 -3.3197  1.0304
  190MOL0     H25630   2.495   2.954   9.937 -0.3156 -2.1313 -0.4200
  190MOL0     H25631   2.616   2.935   9.739  4.1346 -1.8025 -1.1508
  190MOL0     H25632   3.182   2.778   9.569  2.4617  0.5174 -0.3677
  190MOL0     H25633   3.324   2.844   9.381 -1.1330 -1.1109 -1.1934
  190MOL0     H25634   3.766   2.384   7.513 -1.1807  3.0435 -5.1887
  190MOL0     H25635   3.872   2.206   7.363  0.4219  1.0490 -1.8751
  190MOL0     H25636   4.003   2.081   6.929 -0.1185  0.2621  0.0456
  190MOL0     H25637   4.140   1.928   6.790  1.1516 -1.4721 -0.5557
  190MOL0     H25638   4.338   1.936   6.632  1.2232 -0.3157 -0.1294
  190MOL0     H25639   4.296   1.789   6.700 -1.1977 -0.3173 -1.1192
  190MOL0     H25640   4.579   1.874   6.623  0.2810  1.2013  1.9026
  190MOL0     H25641   4.462   1.782   6.519 -5.9109 -3.3761  1.5331
  190MOL0     H25642   4.463   1.599   6.682 -0.9248  1.1444  0.7740
  190MOL0     H25643   4.573   1.681   6.791  1.0856 -2.3080  0.2440
  190MOL0     H25644   4.737   1.683   6.584  0.4995  0.2222  0.8341
  190MOL0     H25645   4.707   1.512   6.652 -0.2691 -0.5326  0.1079
  190MOL0     H25646   4.550   1.443   6.288  2.7494 -3.2523  0.8458
  190MOL0     H25647   4.481   2.001   7.023 -0.3501  1.6715 -1.4606
  190MOL0     H25648   4.330   2.307   7.178 -5.1841 -2.5402  2.2924
  190MOL0     H25649   4.378   2.163   7.277 -4.2743  0.8401  1.0871
  190MOL0     H25650   4.485   2.217   7.145  0.1494  0.3561 -0.7727
  191MOL0     O25651   8.371   5.352   3.370  0.1416 -0.0901 -0.2089
  191MOL0     C25652   8.482   5.343   3.306  0.4256 -0.1121  0.1008
  191MOL0     O25653   8.578   5.247   3.322  0.3091 -0.7888 -0.0641
  191MOL0     C25654   8.583   5.142   3.410 -0.2116  0.0608  0.3652
  191MOL0     C25655   8.526   5.145   3.535  0.7759  0.2777 -0.7837
  191MOL0     C25656   8.536   5.033   3.627 -0.0918  0.6752  0.2067
  191MOL0     C25657   8.597   4.916   3.583  0.6529  0.2653  0.1950
  191MOL0     O25658   8.602   4.809   3.665  0.2771  0.3659 -0.0098
  191MOL0     C25659   8.649   4.827   3.801  0.2153 -0.2865 -0.8359
  191MOL0     C25660   8.733   4.720   3.859 -0.0707 -0.4377  0.1610
  191MOL0     C25661   8.659   4.583   3.882 -0.7433 -0.4807  0.7681
  191MOL0     C25662   8.767   4.477   3.907 -0.4233  0.6343  0.0218
  191MOL0     C25663   8.699   4.336   3.938  0.4240 -0.2467 -0.5332
  191MOL0     C25664   8.758   4.237   3.850 -0.3833 -0.6615 -0.2858
  191MOL0     C25665   8.682   4.098   3.859  0.6435  0.3366  0.0095
  191MOL0     C25666   8.735   4.013   3.750 -0.7289 -0.6177 -0.1830
  191MOL0     N25667   8.852   3.936   3.785  0.5029 -0.8777  0.1394
  191MOL0     C25668   8.984   3.974   3.785 -0.3390  0.2550 -0.0933
  191MOL0     C25669   9.050   3.859   3.804 -0.0631  0.8208  1.0335
  191MOL0     C25670   9.205   3.836   3.800  0.9852 -0.8422 -0.0443
  191MOL0     C25671   9.256   3.787   3.664  0.6313 -0.2885  0.2052
  191MOL0     C25672   9.205   3.846   3.533  0.0143 -0.4125  0.6523
  191MOL0     C25673   9.213   3.746   3.416 -0.8353  0.8936 -0.5527
  191MOL0     O25674   9.161   3.814   3.303  0.5940  0.5936  0.1972
  191MOL0     C25675   9.161   3.733   3.188 -0.2352  0.7144 -0.8601
  191MOL0     C25676   9.141   3.805   3.071  0.2313  0.9703 -0.5281
  191MOL0     C25677   9.117   3.736   2.951 -0.4175 -1.1639 -0.6270
  191MOL0     C25678   9.111   3.597   2.948  0.5210 -0.0113  1.0993
  191MOL0     C25679   9.043   3.532   2.830 -0.4338  0.5979  0.5115
  191MOL0     O25680   9.012   3.405   2.857 -0.1018  0.1436  0.2980
  191MOL0     C25681   8.919   3.336   2.782  0.4109  1.2653 -0.2453
  191MOL0     C25682   8.789   3.382   2.794  0.5708  0.6610 -0.3782
  191MOL0     C25683   8.685   3.314   2.722  0.7054  1.1277 -1.5129
  191MOL0     C25684   8.728   3.205   2.633  0.1990 -0.3729  0.1549
  191MOL0     O25685   8.630   3.144   2.563 -0.1486  0.2058  1.0843
  191MOL0     C25686   8.659   3.096   2.433 -0.0990  0.4581  0.0117
  191MOL0     C25687   8.677   3.217   2.346 -0.0411  0.1012 -0.3237
  191MOL0     C25688   8.689   3.170   2.212 -0.2084  1.1783 -0.2907
  191MOL0     C25689   8.833   3.151   2.166  0.0466  1.0173  0.4938
  191MOL0     C25690   8.849   3.113   2.023 -0.5395  0.2927 -0.3848
  191MOL0     C25691   8.988   3.149   1.961 -0.4669  0.3626 -0.1935
  191MOL0     C25692   8.987   3.126   1.811  0.3851  0.0269  0.3883
  191MOL0     C25693   9.007   2.979   1.773 -0.6927 -1.2281 -0.6813
  191MOL0    Cl25694   9.152   2.916   1.858 -0.1216  0.0164 -0.1811
  191MOL0     C25695   8.857   3.162   2.628 -0.2551  0.8566 -0.0655
  191MOL0     C25696   8.956   3.232   2.703 -0.3064  0.2409 -0.4837
  191MOL0     O25697   9.007   3.596   2.732 -0.0950  0.0447  0.0163
  191MOL0     C25698   9.151   3.519   3.064 -0.2042 -0.1127 -0.5205
  191MOL0     C25699   9.177   3.593   3.179 -1.4399  0.3024 -0.4601
  191MOL0     N25700   8.957   3.757   3.810  0.0614  0.8772 -0.6214
  191MOL0     N25701   8.844   3.802   3.809  0.0020 -0.2681  0.7420
  191MOL0     C25702   8.674   4.925   3.460 -0.2638  0.7591  0.1607
  191MOL0     C25703   8.665   5.035   3.374  0.7203 -0.3908 -0.9258
  191MOL0     C25704   8.507   5.432   3.196 -0.3046 -0.5449 -0.3657
  191MOL0     C25705   8.466   5.561   3.222 -0.3247 -0.1935 -0.6389
  191MOL0     C25706   8.497   5.660   3.128 -0.6576 -0.2688 -0.0276
  191MOL0     C25707   8.553   5.623   2.997  0.9498  0.0429  0.3065
  191MOL0     O25708   8.580   5.698   2.880  0.6420 -0.3242 -0.6666
  191MOL0     C25709   8.584   5.831   2.920 -0.2794 -1.0798  1.2413
  191MOL0     C25710   8.626   5.924   2.801  0.0759  0.1273 -1.0476
  191MOL0     C25711   8.517   5.956   2.705  0.5179  0.1458  0.2314
  191MOL0     C25712   8.433   6.080   2.762  1.0937  0.4486  0.2972
  191MOL0     C25713   8.375   6.067   2.889  0.3905 -0.2035  0.5602
  191MOL0     C25714   8.329   6.062   3.003 -0.6561 -0.3186 -1.0611
  191MOL0     C25715   8.574   5.487   2.972 -0.9667 -0.5312  0.4680
  191MOL0     C25716   8.560   5.395   3.071 -0.9798  0.4627  1.0606
  191MOL0     C25717   8.608   5.255   3.033  0.1293  0.4718 -0.0632
  191MOL0     H25718   8.466   5.227   3.572 -1.5569 -1.8077  0.4109
  191MOL0     H25719   8.477   5.042   3.717 -0.6519  1.0623 -0.1923
  191MOL0     H25720   8.710   4.917   3.802  1.9865 -1.4267  1.0258
  191MOL0     H25721   8.567   4.848   3.870 -1.1190 -0.7445 -2.1936
  191MOL0     H25722   8.767   4.761   3.955  0.2600  1.7155 -0.8308
  191MOL0     H25723   8.817   4.706   3.791  0.9161  0.7888  1.0750
  191MOL0     H25724   8.592   4.553   3.801 -0.0962 -4.0531  1.4086
  191MOL0     H25725   8.587   4.577   3.964 -0.6665 -0.8548  0.8103
  191MOL0     H25726   8.832   4.463   3.820  0.9377 -1.2708  1.2683
  191MOL0     H25727   8.840   4.497   3.986  0.0113  0.7025 -0.3920
  191MOL0     H25728   8.734   4.306   4.037  1.1739 -0.6984 -0.9259
  191MOL0     H25729   8.590   4.348   3.933  0.2979  0.3565  2.1492
  191MOL0     H25730   8.762   4.279   3.748  0.9747 -0.3463 -0.1210
  191MOL0     H25731   8.860   4.231   3.887 -0.9312 -2.4161  1.0700
  191MOL0     H25732   8.574   4.113   3.853 -0.2460 -3.4655  2.9301
  191MOL0     H25733   8.691   4.046   3.955  3.4255  0.3403 -0.1680
  191MOL0     H25734   8.651   3.944   3.734 -0.6300 -1.0865  1.1759
  191MOL0     H25735   8.740   4.070   3.657 -3.4347  2.0505  1.1271
  191MOL0     H25736   9.037   4.068   3.770  0.2354  0.7015  3.6577
  191MOL0     H25737   9.244   3.937   3.810 -1.5504  0.4356 -1.9621
  191MOL0     H25738   9.230   3.766   3.881 -1.0867 -1.1702  0.3586
  191MOL0     H25739   9.365   3.794   3.654  0.4577  1.2568 -1.2137
  191MOL0     H25740   9.239   3.680   3.648  3.1958 -0.5042 -1.9650
  191MOL0     H25741   9.248   3.946   3.520  0.6602 -0.6462  0.9740
  191MOL0     H25742   9.097   3.857   3.542 -0.1404  0.5630 -1.6458
  191MOL0     H25743   9.145   3.663   3.437 -2.9370  2.0326 -2.3190
  191MOL0     H25744   9.313   3.705   3.399 -2.4548 -3.6555 -0.4930
  191MOL0     H25745   9.152   3.913   3.081  3.5209  0.6975 -0.3155
  191MOL0     H25746   9.088   3.790   2.862  4.1023  3.2279  0.1289
  191MOL0     H25747   8.769   3.475   2.846  2.0841  1.8129 -1.7345
  191MOL0     H25748   8.582   3.347   2.730  0.6003  0.5563 -0.1816
  191MOL0     H25749   8.739   3.022   2.427 -0.8783 -0.4612  0.6272
  191MOL0     H25750   8.571   3.039   2.402  0.6128  0.1899 -1.5978
  191MOL0     H25751   8.595   3.290   2.353  0.2918  0.6943 -2.0693
  191MOL0     H25752   8.772   3.267   2.367 -1.2377  2.3454  0.1470
  191MOL0     H25753   8.637   3.077   2.189 -0.9748  1.1566  1.3522
  191MOL0     H25754   8.635   3.252   2.164 -1.3573 -0.4041 -1.7671
  191MOL0     H25755   8.875   3.065   2.219 -3.6379 -0.6645  0.9968
  191MOL0     H25756   8.895   3.241   2.176  1.7698 -0.1864  1.0971
  191MOL0     H25757   8.767   3.161   1.968  0.0469  3.9026  1.5985
  191MOL0     H25758   8.825   3.009   1.998 -0.8303  0.6916 -1.8632
  191MOL0     H25759   9.017   3.252   1.981 -1.5656  0.5045  0.7252
  191MOL0     H25760   9.070   3.092   2.007 -0.2944 -0.3700 -1.3666
  191MOL0     H25761   9.064   3.178   1.752  2.7632 -1.3991  2.0257
  191MOL0     H25762   8.889   3.151   1.770 -0.0094 -0.2204  1.1657
  191MOL0     H25763   8.924   2.923   1.816 -3.3076  1.0922 -2.4051
  191MOL0     H25764   9.004   2.961   1.665 -0.4386 -2.6444 -0.4661
  191MOL0     H25765   8.904   3.077   2.582  0.1252  0.8002  0.4198
  191MOL0     H25766   9.056   3.189   2.696 -0.9743 -1.3176 -0.8765
  191MOL0     H25767   9.178   3.414   3.058 -1.4977 -0.4702 -0.2550
  191MOL0     H25768   9.211   3.538   3.266  3.2159 -0.4658 -2.4446
  191MOL0     H25769   8.741   4.842   3.443 -1.4872 -0.6354  1.7128
  191MOL0     H25770   8.732   5.032   3.288  0.0371 -1.5025 -1.4515
  191MOL0     H25771   8.429   5.593   3.319  1.4711 -1.4761  0.5341
  191MOL0     H25772   8.489   5.766   3.149  2.4445  0.4664 -1.8784
  191MOL0     H25773   8.658   5.863   2.994 -1.4931  2.9491  0.9857
  191MOL0     H25774   8.481   5.854   2.950 -0.1766  0.7682  0.3503
  191MOL0     H25775   8.708   5.877   2.746  3.8870  4.1183  0.6145
  191MOL0     H25776   8.670   6.009   2.855  1.0262 -0.7988 -0.2967
  191MOL0     H25777   8.460   5.865   2.681  2.1800 -0.5024 -1.5876
  191MOL0     H25778   8.565   5.995   2.614  2.7201 -3.6063 -0.4503
  191MOL0     H25779   8.497   6.168   2.750  0.3223  0.7934 -1.7019
  191MOL0     H25780   8.349   6.100   2.694  0.8653  2.3599  1.0717
  191MOL0     H25781   8.287   6.063   3.101 -1.1877  0.8966 -1.2862
  191MOL0     H25782   8.610   5.449   2.877  0.6625  0.4287  0.6553
  191MOL0     H25783   8.649   5.250   2.932  0.7710  1.8100  0.0970
  191MOL0     H25784   8.686   5.229   3.105 -0.5218  1.8758  1.2183
  191MOL0     H25785   8.524   5.187   3.050 -0.5624  0.6541 -2.3761
  192MOL0     O25786   7.758   3.552   0.049  0.3460 -0.2392  0.1583
  192MOL0     C25787   7.776   3.568   0.167 -0.3238  0.2879 -0.1125
  192MOL0     O25788   7.874   3.519   0.240 -0.1449 -0.6236 -0.2271
  192MOL0     C25789   7.959   3.425   0.191 -0.6207  0.9367 -0.1456
  192MOL0     C25790   7.996   3.395   0.063 -1.0048  0.6555  0.4904
  192MOL0     C25791   8.079   3.286   0.028 -0.7704 -0.2168  0.1203
  192MOL0     C25792   8.128   3.194   0.132 -0.1198  0.7185  0.4463
  192MOL0     O25793   8.214   3.088   0.118  0.2012 -0.0740 -0.2225
  192MOL0     C25794   8.301   3.082   0.008 -0.3023  0.8774  1.0052
  192MOL0     C25795   8.240   3.038  -0.131 -0.5500  0.2552  0.1143
  192MOL0     C25796   8.346   2.960  -0.216 -0.3626 -0.5664 -0.4846
  192MOL0     C25797   8.355   2.810  -0.189 -0.2324  0.4595 -1.6252
  192MOL0     C25798   8.467   2.718  -0.256 -0.6928 -0.1502 -0.4722
  192MOL0     C25799   8.474   2.744  -0.411 -0.6876  0.0635 -0.1492
  192MOL0     C25800   8.576   2.641  -0.470 -1.1076 -0.1165 -0.0125
  192MOL0     C25801   8.591   2.655  -0.623  0.2063  0.1407 -0.0799
  192MOL0     N25802   8.615   2.788  -0.680 -0.4242  1.3588 -1.0169
  192MOL0     C25803   8.672   2.895  -0.595  0.1018  0.2338  0.6169
  192MOL0     C25804   8.675   2.999  -0.682 -0.6149  0.3988  0.8271
  192MOL0     C25805   8.723   3.140  -0.650 -0.4721 -0.4548 -0.1091
  192MOL0     C25806   8.614   3.241  -0.691  0.1889 -0.6910 -0.1645
  192MOL0     C25807   8.493   3.245  -0.580 -0.9916 -0.1209  0.2981
  192MOL0     C25808   8.544   3.284  -0.436 -1.2807 -0.1624  0.1666
  192MOL0     O25809   8.424   3.318  -0.356 -0.2251 -1.0505  0.2808
  192MOL0     C25810   8.376   3.444  -0.364  0.1031  0.5795  0.1635
  192MOL0     C25811   8.253   3.463  -0.436 -0.3975  0.1386  0.5370
  192MOL0     C25812   8.197   3.593  -0.442 -0.4649  0.5641 -0.7144
  192MOL0     C25813   8.264   3.706  -0.385  0.5760 -0.2229 -0.3639
  192MOL0     C25814   8.215   3.845  -0.408 -0.0152 -0.2723  0.8902
  192MOL0     O25815   8.278   3.957  -0.362 -0.0060  0.0105  0.6301
  192MOL0     C25816   8.245   4.083  -0.401 -0.2816 -0.9698  0.6422
  192MOL0     C25817   8.298   4.189  -0.328 -0.2361 -0.4101 -0.9162
  192MOL0     C25818   8.288   4.323  -0.350 -0.5057  0.0561 -0.4876
  192MOL0     C25819   8.210   4.361  -0.460  0.1991 -0.3238 -0.0368
  192MOL0     O25820   8.193   4.481  -0.511  0.4287  0.7223 -0.0308
  192MOL0     C25821   8.127   4.566  -0.424  0.1866 -0.3004 -0.5990
  192MOL0     C25822   8.065   4.679  -0.502 -0.4146  0.4872 -0.3066
  192MOL0     C25823   7.978   4.783  -0.429 -0.9234  0.1300  0.1868
  192MOL0     C25824   7.851   4.718  -0.379 -0.0290 -0.1421 -0.7443
  192MOL0     C25825   7.774   4.804  -0.270 -1.0615 -0.0865  0.5697
  192MOL0     C25826   7.729   4.945  -0.327  0.4045  0.2454  0.0256
  192MOL0     C25827   7.672   5.030  -0.214 -0.3520 -1.3308  0.1289
  192MOL0     C25828   7.638   5.177  -0.260  1.1222  0.5193 -0.5499
  192MOL0    Cl25829   7.607   5.281  -0.129  0.6508  0.1903 -0.0615
  192MOL0     C25830   8.155   4.266  -0.545 -0.7489 -0.6467  1.1279
  192MOL0     C25831   8.177   4.130  -0.519  0.0144  0.4059 -0.0462
  192MOL0     O25832   8.110   3.840  -0.472 -0.0439 -0.5871  0.8204
  192MOL0     C25833   8.372   3.683  -0.304 -0.1842  0.1704 -0.3436
  192MOL0     C25834   8.426   3.555  -0.291  0.1215 -0.1693  0.1249
  192MOL0     N25835   8.609   2.955  -0.800  0.0505 -0.1562  0.0478
  192MOL0     N25836   8.578   2.830  -0.796 -0.0179 -0.5885 -0.3424
  192MOL0     C25837   8.093   3.231   0.260  0.6472 -0.9840  0.3111
  192MOL0     C25838   8.016   3.345   0.283 -0.8514  0.4386  0.0995
  192MOL0     C25839   7.680   3.656   0.245 -0.9898  0.3200  0.1257
  192MOL0     C25840   7.655   3.629   0.379  0.1311 -0.6897 -0.3039
  192MOL0     C25841   7.563   3.698   0.456  0.3298 -0.0857  0.9546
  192MOL0     C25842   7.502   3.813   0.399 -1.0801  1.2913  0.0120
  192MOL0     O25843   7.407   3.892   0.455 -0.5570 -0.2494  0.1010
  192MOL0     C25844   7.387   3.893   0.595  0.2850  1.0066  0.4848
  192MOL0     C25845   7.383   4.037   0.643 -0.3467  0.0696 -0.5916
  192MOL0     C25846   7.311   4.061   0.776 -0.0975  0.2954  0.5205
  192MOL0     C25847   7.378   3.980   0.889  0.0567  0.3111 -0.0860
  192MOL0     C25848   7.329   4.012   1.025  0.9804  0.2453 -0.4952
  192MOL0     C25849   7.284   4.041   1.135  0.4696  0.1840 -0.1482
  192MOL0     C25850   7.521   3.842   0.266  0.0449 -0.5766 -0.0403
  192MOL0     C25851   7.613   3.767   0.194 -0.8448  0.3901 -0.0505
  192MOL0     C25852   7.619   3.807   0.046 -0.2223  1.0745 -0.8800
  192MOL0     H25853   7.962   3.455  -0.021 -3.1627 -1.1704 -0.0448
  192MOL0     H25854   8.116   3.264  -0.072  2.3870  2.0970  0.6316
  192MOL0     H25855   8.349   3.178  -0.014  2.0396 -0.4711 -0.0651
  192MOL0     H25856   8.381   3.011   0.029 -1.9096 -0.7333  1.9807
  192MOL0     H25857   8.213   3.122  -0.197  0.7279  0.4098 -0.2539
  192MOL0     H25858   8.154   2.972  -0.120 -1.1279  0.5806 -1.9232
  192MOL0     H25859   8.446   3.001  -0.202 -0.3189 -0.3044 -1.4593
  192MOL0     H25860   8.322   2.968  -0.323  4.2290 -0.3276 -1.7130
  192MOL0     H25861   8.390   2.801  -0.085 -0.1908  0.5855 -1.6283
  192MOL0     H25862   8.253   2.772  -0.190 -0.1446 -0.1417  1.6516
  192MOL0     H25863   8.558   2.746  -0.203 -2.4441 -0.4392  2.9305
  192MOL0     H25864   8.443   2.616  -0.226 -4.2723  0.8425  0.5392
  192MOL0     H25865   8.381   2.715  -0.461 -0.9322  0.6892 -0.0586
  192MOL0     H25866   8.492   2.849  -0.436  0.4586 -0.3587 -1.1717
  192MOL0     H25867   8.531   2.542  -0.458 -1.0363  0.0374  1.8080
  192MOL0     H25868   8.671   2.646  -0.416  0.4168  2.7925 -2.6339
  192MOL0     H25869   8.667   2.588  -0.664 -0.1122 -0.1946 -0.1288
  192MOL0     H25870   8.499   2.628  -0.676  1.7527  0.1497 -2.9136
  192MOL0     H25871   8.708   2.895  -0.493  1.3173 -0.2059  0.2040
  192MOL0     H25872   8.754   3.151  -0.546 -0.5323 -0.4106 -0.0955
  192MOL0     H25873   8.803   3.176  -0.714 -0.8538  2.0859  0.7358
  192MOL0     H25874   8.658   3.341  -0.693 -0.3474 -0.4560 -0.9412
  192MOL0     H25875   8.575   3.210  -0.788  3.8276 -1.6927 -1.4426
  192MOL0     H25876   8.449   3.145  -0.570 -1.6549 -0.2037 -2.6458
  192MOL0     H25877   8.408   3.306  -0.609 -0.4043  0.6302  0.1287
  192MOL0     H25878   8.610   3.371  -0.442  2.5774 -2.7198  1.6448
  192MOL0     H25879   8.617   3.218  -0.389 -2.1357 -2.0638 -1.0301
  192MOL0     H25880   8.194   3.380  -0.472 -1.1997  0.5171  0.9567
  192MOL0     H25881   8.104   3.611  -0.494  0.9044  0.4347 -3.3866
  192MOL0     H25882   8.377   4.157  -0.261  0.2039 -1.1618 -1.7657
  192MOL0     H25883   8.345   4.398  -0.297  1.8127 -1.2928 -0.9279
  192MOL0     H25884   8.053   4.505  -0.370 -1.6754  2.6447  0.4225
  192MOL0     H25885   8.204   4.613  -0.362 -0.2669  0.0530 -0.2941
  192MOL0     H25886   8.155   4.725  -0.543 -0.7171  0.2558 -1.2517
  192MOL0     H25887   8.005   4.636  -0.583  0.9489 -1.8457 -0.1732
  192MOL0     H25888   8.032   4.822  -0.342  0.7271 -1.7609  0.0889
  192MOL0     H25889   7.950   4.859  -0.502 -1.6231 -3.6439 -3.8876
  192MOL0     H25890   7.855   4.620  -0.330 -3.8132  0.5016  1.2802
  192MOL0     H25891   7.790   4.710  -0.468  0.5360  0.0639 -1.1549
  192MOL0     H25892   7.831   4.820  -0.178  0.8437 -2.7947 -0.0290
  192MOL0     H25893   7.680   4.752  -0.248 -1.7795  0.9903  0.1456
  192MOL0     H25894   7.817   4.999  -0.364  0.1953  1.4599  1.1833
  192MOL0     H25895   7.660   4.937  -0.411 -0.7711 -0.8011  1.0509
  192MOL0     H25896   7.745   5.033  -0.132 -0.1297 -0.8240 -0.0848
  192MOL0     H25897   7.579   4.984  -0.179 -2.2099  1.0632 -1.3442
  192MOL0     H25898   7.725   5.231  -0.299  1.4869  2.7126  2.8914
  192MOL0     H25899   7.567   5.178  -0.343  0.7749  0.1309 -0.2602
  192MOL0     H25900   8.112   4.291  -0.642  2.8248  0.0699 -0.4408
  192MOL0     H25901   8.134   4.059  -0.589  0.8040  1.1248 -1.3195
  192MOL0     H25902   8.414   3.770  -0.254 -3.1145  1.8301 -0.5322
  192MOL0     H25903   8.517   3.541  -0.235  0.1491  2.2554  0.8069
  192MOL0     H25904   8.134   3.183   0.348 -0.4648 -1.6086  0.5018
  192MOL0     H25905   8.004   3.371   0.388  1.5665  2.4711 -0.0260
  192MOL0     H25906   7.703   3.545   0.427  0.4311 -1.7014 -2.2809
  192MOL0     H25907   7.550   3.654   0.554 -1.1012 -1.7197  0.0928
  192MOL0     H25908   7.458   3.835   0.655  0.4353 -1.0919 -1.5955
  192MOL0     H25909   7.285   3.859   0.613  0.2741  1.0560  0.5171
  192MOL0     H25910   7.340   4.104   0.568 -0.8107  0.6692  0.1868
  192MOL0     H25911   7.488   4.063   0.663 -0.6951  1.4054 -0.3779
  192MOL0     H25912   7.206   4.028   0.769 -0.2026  0.4505  1.2770
  192MOL0     H25913   7.309   4.167   0.802 -3.2431  0.7743 -1.1269
  192MOL0     H25914   7.368   3.873   0.869  0.4780  0.8378 -3.6905
  192MOL0     H25915   7.485   3.999   0.891  0.4991 -1.7843 -0.9266
  192MOL0     H25916   7.281   4.076   1.237 -2.1576 -0.3025 -0.0026
  192MOL0     H25917   7.464   3.928   0.231  1.5895  0.3807 -0.3110
  192MOL0     H25918   7.550   3.889   0.025 -1.6708 -0.4492 -2.4079
  192MOL0     H25919   7.717   3.828   0.002  0.3465 -2.1719 -1.4115
  192MOL0     H25920   7.575   3.720  -0.004 -1.8729  1.1415  0.3823
  193MOL0     O25921   6.397   2.934   0.033 -0.2811  0.1018 -0.8910
  193MOL0     C25922   6.298   2.893  -0.023  0.0350  0.7807 -0.7241
  193MOL0     O25923   6.262   2.758  -0.029  0.1145  0.1369 -0.4810
  193MOL0     C25924   6.340   2.653  -0.001 -0.6712  0.2909  0.5026
  193MOL0     C25925   6.484   2.653  -0.002  1.1583 -0.1063  1.0950
  193MOL0     C25926   6.553   2.540   0.015  0.4990  0.2406  0.2658
  193MOL0     C25927   6.497   2.419   0.025 -0.1402  0.7279 -1.0403
  193MOL0     O25928   6.567   2.301   0.035  0.4818  0.9108  0.5731
  193MOL0     C25929   6.663   2.289   0.142 -0.5211 -0.4280  0.9198
  193MOL0     C25930   6.776   2.191   0.112  0.2588  0.6708  1.1727
  193MOL0     C25931   6.884   2.242   0.011  0.1142 -0.0939  0.6113
  193MOL0     C25932   7.016   2.169   0.026  0.1850  0.6684  0.2245
  193MOL0     C25933   7.099   2.187   0.159 -0.1392  0.2389  0.1379
  193MOL0     C25934   7.253   2.161   0.123 -0.5960  0.3206 -0.0018
  193MOL0     C25935   7.329   2.178   0.245 -0.3965 -0.1888  0.0830
  193MOL0     C25936   7.476   2.168   0.208  0.4064 -0.1568  0.3443
  193MOL0     N25937   7.557   2.156   0.334  0.1821 -0.2839  0.0929
  193MOL0     C25938   7.625   2.041   0.390  0.4059  0.5566  0.8188
  193MOL0     C25939   7.630   2.071   0.524  0.5366  0.2495  0.0620
  193MOL0     C25940   7.713   2.007   0.633 -0.2126  1.0467 -0.2858
  193MOL0     C25941   7.864   2.023   0.622 -0.1217  0.2320 -0.5404
  193MOL0     C25942   7.896   2.151   0.712  0.1535 -0.3061  0.5835
  193MOL0     C25943   8.049   2.179   0.705  0.1556 -0.2974 -0.6311
  193MOL0     O25944   8.083   2.281   0.800 -0.3403 -0.7146 -0.3129
  193MOL0     C25945   8.084   2.414   0.774  0.9963 -0.3363 -0.6606
  193MOL0     C25946   8.159   2.498   0.851  0.4017 -0.1319 -0.5937
  193MOL0     C25947   8.159   2.639   0.824 -0.0958  0.0486  1.2801
  193MOL0     C25948   8.088   2.696   0.717 -0.6347  0.7439 -0.2575
  193MOL0     C25949   8.111   2.838   0.691  0.9498  0.0391  0.0105
  193MOL0     O25950   8.115   2.922   0.798  0.3123 -0.3018 -0.2365
  193MOL0     C25951   8.133   3.056   0.758 -0.4887 -1.1504 -0.4012
  193MOL0     C25952   8.251   3.116   0.708 -1.0270  0.6865 -0.2074
  193MOL0     C25953   8.253   3.249   0.658  0.0793 -0.1055  0.5283
  193MOL0     C25954   8.134   3.318   0.641  0.0113 -0.2860  0.2616
  193MOL0     O25955   8.136   3.445   0.589  0.2139 -0.7900  0.3638
  193MOL0     C25956   8.239   3.494   0.502  0.1047  0.8162  0.3594
  193MOL0     C25957   8.198   3.620   0.423 -0.3237 -0.0587 -0.3075
  193MOL0     C25958   8.160   3.711   0.543 -0.1585  0.0161  0.0762
  193MOL0     C25959   8.138   3.862   0.509  0.2425  0.1256  0.0138
  193MOL0     C25960   8.030   3.881   0.390  0.2360  0.2440  0.1441
  193MOL0     C25961   8.040   4.018   0.338  0.7621 -0.3987  0.2171
  193MOL0     C25962   7.927   4.030   0.228  0.0113 -0.5501  0.5285
  193MOL0     C25963   7.779   4.064   0.283  0.4649 -0.1590  0.2094
  193MOL0    Cl25964   7.779   4.212   0.381 -0.0653 -0.1293 -0.2182
  193MOL0     C25965   8.011   3.265   0.690 -0.1859 -0.9253  0.3451
  193MOL0     C25966   8.015   3.131   0.743 -0.0689 -0.6353  0.6682
  193MOL0     O25967   8.095   2.872   0.579 -0.0705 -0.8345 -0.0694
  193MOL0     C25968   8.021   2.608   0.634  0.8016 -0.0236  0.8040
  193MOL0     C25969   8.018   2.471   0.660 -0.4184 -0.3085 -0.1748
  193MOL0     N25970   7.569   2.191   0.550  0.7520 -0.3658 -0.0104
  193MOL0     N25971   7.520   2.233   0.436  0.0590 -0.1282 -0.0062
  193MOL0     C25972   6.356   2.413   0.027  0.3103 -0.1165 -0.7003
  193MOL0     C25973   6.281   2.534   0.018 -0.6214  0.1789  0.4151
  193MOL0     C25974   6.212   3.004  -0.084 -0.4209 -0.5796 -0.8070
  193MOL0     C25975   6.085   2.962  -0.147 -0.7261 -0.4531 -1.3467
  193MOL0     C25976   5.991   3.053  -0.192 -0.1447  0.4277 -0.4068
  193MOL0     C25977   6.035   3.195  -0.190  0.1512 -0.6718  0.0694
  193MOL0     O25978   5.961   3.302  -0.244 -0.1240  0.3520 -0.2396
  193MOL0     C25979   5.825   3.298  -0.216 -0.5332  0.0989  0.4071
  193MOL0     C25980   5.767   3.437  -0.176 -0.4123  0.1867  0.2498
  193MOL0     C25981   5.848   3.478  -0.052 -0.4463 -0.5386  0.7643
  193MOL0     C25982   5.828   3.632  -0.043 -0.4575  0.0239  0.3822
  193MOL0     C25983   5.890   3.676   0.081  0.1757 -0.1777  0.7189
  193MOL0     C25984   5.941   3.723   0.179 -0.4833  0.9832 -0.9392
  193MOL0     C25985   6.150   3.231  -0.131 -0.6481  0.0601 -0.1918
  193MOL0     C25986   6.250   3.141  -0.074  0.8901  0.1455 -0.8730
  193MOL0     C25987   6.346   3.209   0.007  0.3288  0.0639  0.2051
  193MOL0     H25988   6.540   2.746  -0.007  0.3017  0.3536 -1.2682
  193MOL0     H25989   6.660   2.550   0.033  1.3421 -0.8518 -3.1539
  193MOL0     H25990   6.709   2.387   0.158 -3.4336  0.9415  1.7159
  193MOL0     H25991   6.596   2.264   0.225 -2.8268 -2.5110 -1.3741
  193MOL0     H25992   6.729   2.100   0.074 -1.2552  1.8375  0.1618
  193MOL0     H25993   6.836   2.170   0.201  1.7640  2.6025  0.6778
  193MOL0     H25994   6.898   2.347   0.038 -0.6859 -0.0809  0.9991
  193MOL0     H25995   6.849   2.244  -0.093  3.5505 -3.1135 -0.8203
  193MOL0     H25996   6.997   2.062   0.015 -1.4916  1.0099 -0.4632
  193MOL0     H25997   7.078   2.197  -0.059 -0.5063  2.4499  0.2592
  193MOL0     H25998   7.078   2.280   0.212  5.9348  0.4118  3.0374
  193MOL0     H25999   7.056   2.109   0.223  0.2811  1.2327  1.6839
  193MOL0     H26000   7.264   2.056   0.094  1.3949 -1.5520  6.0677
  193MOL0     H26001   7.278   2.229   0.040 -0.4746  0.3009  0.0178
  193MOL0     H26002   7.311   2.099   0.318  2.4533 -0.7443  0.2734
  193MOL0     H26003   7.313   2.274   0.296  2.0167 -0.7887  2.1596
  193MOL0     H26004   7.483   2.081   0.142 -0.4428 -0.7411  1.0006
  193MOL0     H26005   7.513   2.251   0.147  0.2536 -0.4042 -0.0912
  193MOL0     H26006   7.673   1.960   0.336 -2.0821 -0.8864  0.6385
  193MOL0     H26007   7.677   2.041   0.730 -2.6998 -1.5592 -0.1747
  193MOL0     H26008   7.693   1.899   0.630  1.2958  0.6621  1.6824
  193MOL0     H26009   7.909   1.935   0.669  1.2582 -0.5671 -3.1397
  193MOL0     H26010   7.916   2.024   0.525  1.2329 -1.1147  0.1251
  193MOL0     H26011   7.876   2.130   0.817  0.5899 -2.0587  0.3381
  193MOL0     H26012   7.837   2.239   0.684  4.4158  2.6040 -0.3173
  193MOL0     H26013   8.081   2.197   0.602 -1.9314 -1.5619 -1.5584
  193MOL0     H26014   8.123   2.102   0.729  1.6241  0.7180 -1.7482
  193MOL0     H26015   8.202   2.453   0.940  1.1186  0.2147 -0.7513
  193MOL0     H26016   8.216   2.697   0.896  1.4440 -1.3866  1.2688
  193MOL0     H26017   8.339   3.056   0.729 -2.7981 -0.8394  3.9762
  193MOL0     H26018   8.347   3.293   0.628  0.1089 -1.1470 -1.0451
  193MOL0     H26019   8.319   3.515   0.573 -0.4272 -1.1444  1.6331
  193MOL0     H26020   8.273   3.415   0.434  0.4693  0.1920  1.2442
  193MOL0     H26021   8.283   3.665   0.370 -0.6688  0.7545 -0.1801
  193MOL0     H26022   8.118   3.602   0.351 -1.0041 -1.3782  0.7270
  193MOL0     H26023   8.062   3.686   0.583 -0.8092  1.0543 -0.8054
  193MOL0     H26024   8.241   3.700   0.616 -0.6195 -2.5213  0.2903
  193MOL0     H26025   8.233   3.897   0.467 -0.2037 -0.2414 -1.3288
  193MOL0     H26026   8.121   3.925   0.597  1.6426  0.5192  0.0348
  193MOL0     H26027   7.928   3.860   0.420  0.4777 -1.3457 -0.0856
  193MOL0     H26028   8.040   3.806   0.311 -2.7841  0.6022 -0.6953
  193MOL0     H26029   8.041   4.100   0.410  2.1406  2.0738 -2.3860
  193MOL0     H26030   8.137   4.026   0.288 -0.2070  2.8544 -1.4803
  193MOL0     H26031   7.913   3.936   0.173 -0.7367  1.0788 -2.2433
  193MOL0     H26032   7.985   4.097   0.165  1.0533 -2.3730 -0.5562
  193MOL0     H26033   7.714   4.080   0.197  2.4664 -0.4971 -1.4322
  193MOL0     H26034   7.748   3.989   0.357 -0.2798  0.1542  0.2189
  193MOL0     H26035   7.920   3.324   0.685 -1.5435 -2.8992  0.2645
  193MOL0     H26036   7.923   3.092   0.785 -0.9247  0.2098 -0.3949
  193MOL0     H26037   7.969   2.644   0.546 -0.1999  1.1379  1.8330
  193MOL0     H26038   7.968   2.407   0.589  0.6078  0.5398 -1.7035
  193MOL0     H26039   6.296   2.323   0.027 -1.3343  0.9339 -0.6756
  193MOL0     H26040   6.173   2.528   0.004 -0.2887  0.5347 -3.0887
  193MOL0     H26041   6.064   2.855  -0.145  0.3135 -0.7428  2.8577
  193MOL0     H26042   5.891   3.019  -0.217 -0.4918  1.5092 -0.5415
  193MOL0     H26043   5.797   3.231  -0.134 -0.4147 -1.4250 -0.7443
  193MOL0     H26044   5.781   3.249  -0.304  1.3783 -1.9420  0.4818
  193MOL0     H26045   5.658   3.441  -0.178 -0.6316 -3.1198 -1.5526
  193MOL0     H26046   5.792   3.503  -0.260 -4.6043  0.8003 -0.7479
  193MOL0     H26047   5.951   3.442  -0.047 -0.4812 -0.5536  1.5786
  193MOL0     H26048   5.800   3.435   0.037  1.5839  1.8081  3.1457
  193MOL0     H26049   5.859   3.684  -0.133 -1.4315 -0.5488 -0.3088
  193MOL0     H26050   5.722   3.658  -0.033 -0.3577  1.2949 -1.4931
  193MOL0     H26051   5.985   3.764   0.268  1.9516 -1.6021 -0.8295
  193MOL0     H26052   6.170   3.338  -0.135  0.0609 -0.0263  0.6391
  193MOL0     H26053   6.442   3.198  -0.045  1.0698 -2.5758  1.9386
  193MOL0     H26054   6.331   3.316   0.020 -0.1635  0.0785 -0.4409
  193MOL0     H26055   6.354   3.160   0.104 -2.4467 -3.3013 -1.0578
  194MOL0     O26056   3.519   8.870   7.382 -0.2760  0.3479  0.2864
  194MOL0     C26057   3.468   8.923   7.280  0.7202 -0.6917 -1.5470
  194MOL0     O26058   3.405   9.050   7.279 -0.8054  0.2711  0.3397
  194MOL0     C26059   3.375   9.123   7.396  0.2972 -0.9363  0.2969
  194MOL0     C26060   3.401   9.264   7.387 -0.0891 -0.0781  1.0233
  194MOL0     C26061   3.366   9.348   7.489 -0.4762 -0.5217 -0.5762
  194MOL0     C26062   3.302   9.294   7.601  1.2400 -0.3278 -0.3195
  194MOL0     O26063   3.266   9.379   7.705  0.3296 -0.7021 -0.3259
  194MOL0     C26064   3.128   9.421   7.709  0.5083  0.8792 -0.6222
  194MOL0     C26065   3.032   9.303   7.734 -1.3889 -0.5028 -0.6262
  194MOL0     C26066   2.891   9.352   7.780  0.2909  0.0276 -0.8673
  194MOL0     C26067   2.785   9.243   7.774  0.1575  1.0251 -0.1541
  194MOL0     C26068   2.683   9.273   7.660  0.2202 -0.7620 -0.4483
  194MOL0     C26069   2.561   9.179   7.649  0.4969  0.4375 -0.6911
  194MOL0     C26070   2.436   9.240   7.724 -0.8462 -0.4605  1.1416
  194MOL0     C26071   2.304   9.185   7.691 -0.4683  0.0663 -0.7438
  194MOL0     N26072   2.240   9.230   7.565 -0.1967 -0.1871  0.5392
  194MOL0     C26073   2.117   9.300   7.557 -0.8215  0.8505 -0.6272
  194MOL0     C26074   2.074   9.282   7.436  0.7289 -0.4348  0.3233
  194MOL0     C26075   1.937   9.322   7.392 -0.4700 -0.1582  0.5086
  194MOL0     C26076   1.940   9.464   7.338  0.3105 -0.2344 -0.6466
  194MOL0     C26077   1.822   9.487   7.244  0.8641  1.1171  0.6639
  194MOL0     C26078   1.829   9.611   7.164  0.6518  0.3880  0.5107
  194MOL0     O26079   1.772   9.706   7.247  0.5975 -0.1988 -0.0874
  194MOL0     C26080   1.716   9.810   7.175  0.2394  0.5847  0.1176
  194MOL0     C26081   1.761   9.948   7.189  1.0110 -0.2507  0.0576
  194MOL0     C26082   1.705  10.057   7.127 -0.0972  0.1312  0.2999
  194MOL0     C26083   1.607  10.029   7.034 -0.7254 -1.1359 -0.1595
  194MOL0     C26084   1.538  10.135   6.966  0.7914  0.2550  0.3716
  194MOL0     O26085   1.473  10.104   6.855 -0.5258  0.4046  0.6891
  194MOL0     C26086   1.412  10.190   6.773 -0.5738  0.4500 -1.0499
  194MOL0     C26087   1.457  10.321   6.744  0.7501 -0.4766 -0.1444
  194MOL0     C26088   1.359  10.402   6.675  1.6568  0.4960  0.6914
  194MOL0     C26089   1.235  10.355   6.630  0.0233 -0.3928 -0.1373
  194MOL0     O26090   1.148  10.452   6.585  0.5355  0.5095  0.2192
  194MOL0     C26091   1.024  10.455   6.657 -0.8897 -0.8234  0.9625
  194MOL0     C26092   1.025  10.495   6.800 -0.3447  0.2696  1.0860
  194MOL0     C26093   1.121  10.609   6.833 -0.0427 -0.1491  0.1345
  194MOL0     C26094   1.084  10.662   6.967  0.2025 -0.0112 -0.3927
  194MOL0     C26095   1.058  10.809   6.971  0.1942  0.1200  0.8679
  194MOL0     C26096   0.916  10.845   6.937  0.1084  0.4984 -0.0224
  194MOL0     C26097   0.890  10.989   6.972  0.3586  0.0776  0.0875
  194MOL0     C26098   0.972  11.086   6.887 -0.2595 -0.2216  0.4130
  194MOL0    Cl26099   0.926  11.250   6.937 -0.3286 -0.6824 -0.1090
  194MOL0     C26100   1.205  10.227   6.656  0.4959  0.2093 -0.4570
  194MOL0     C26101   1.294  10.144   6.731  0.0215 -0.4515 -0.0000
  194MOL0     O26102   1.533  10.248   7.014 -0.6011 -0.6072 -0.3365
  194MOL0     C26103   1.553   9.899   7.019  0.1867  0.1636 -1.1801
  194MOL0     C26104   1.609   9.790   7.093  1.0541  0.0495  0.5745
  194MOL0     N26105   2.160   9.199   7.374  0.7530 -0.3925  1.1690
  194MOL0     N26106   2.273   9.179   7.444  0.4966 -0.3805  0.3037
  194MOL0     C26107   3.291   9.155   7.613 -0.2704 -0.2790  0.7302
  194MOL0     C26108   3.327   9.063   7.514 -1.0403  0.4470  0.7761
  194MOL0     C26109   3.475   8.862   7.147 -1.3716 -0.2353 -1.0210
  194MOL0     C26110   3.443   8.940   7.034  0.6065 -1.3757 -0.3875
  194MOL0     C26111   3.448   8.884   6.905 -0.3129 -0.3170  0.3277
  194MOL0     C26112   3.481   8.746   6.886 -0.8220 -0.6629 -0.9997
  194MOL0     O26113   3.503   8.669   6.775  0.6478 -0.2504 -0.6105
  194MOL0     C26114   3.462   8.718   6.647  0.6770  0.3027 -0.1893
  194MOL0     C26115   3.357   8.631   6.577  0.4922 -0.1898  0.0919
  194MOL0     C26116   3.379   8.646   6.423  0.1708  0.1732  0.4194
  194MOL0     C26117   3.268   8.563   6.360  0.5301 -0.6243  0.2803
  194MOL0     C26118   3.242   8.426   6.407 -0.5939  0.3441 -0.7839
  194MOL0     C26119   3.228   8.315   6.459  0.0148  0.4469  0.3931
  194MOL0     C26120   3.514   8.670   7.001  0.3926 -0.5525 -0.5678
  194MOL0     C26121   3.509   8.722   7.129 -0.0908 -0.5959 -0.1435
  194MOL0     C26122   3.555   8.626   7.234 -0.0309  0.0410 -0.6479
  194MOL0     H26123   3.441   9.299   7.292 -0.4423 -0.0207  0.8975
  194MOL0     H26124   3.378   9.456   7.487 -0.7834 -0.4922 -0.8265
  194MOL0     H26125   3.111   9.495   7.787  3.2134 -0.2818  1.2097
  194MOL0     H26126   3.103   9.466   7.612 -2.2942  2.4067  0.6702
  194MOL0     H26127   3.070   9.238   7.813 -0.2038  1.0046  0.0958
  194MOL0     H26128   3.023   9.241   7.644  1.1167 -2.4886  0.3890
  194MOL0     H26129   2.856   9.432   7.714 -1.8110 -1.1343 -1.2514
  194MOL0     H26130   2.903   9.397   7.879 -0.5333  0.5130 -0.9797
  194MOL0     H26131   2.839   9.149   7.760 -1.3053  0.0322  0.6616
  194MOL0     H26132   2.721   9.229   7.862  2.3761 -3.1536  1.0144
  194MOL0     H26133   2.642   9.375   7.662 -0.1009 -0.8864 -0.6282
  194MOL0     H26134   2.743   9.260   7.570  1.9600 -2.1011  0.8381
  194MOL0     H26135   2.542   9.183   7.541 -2.7137  0.3721 -0.2158
  194MOL0     H26136   2.583   9.074   7.668 -0.5180  0.3988  0.3551
  194MOL0     H26137   2.432   9.347   7.707 -1.3888 -0.8057 -1.1598
  194MOL0     H26138   2.450   9.225   7.832 -2.3963  3.3644  2.0356
  194MOL0     H26139   2.329   9.079   7.700  1.6763  0.3534 -2.4781
  194MOL0     H26140   2.236   9.197   7.776  2.5073  0.5660  1.7537
  194MOL0     H26141   2.049   9.346   7.628 -1.5879 -1.4573  0.2172
  194MOL0     H26142   1.912   9.259   7.306  3.0051  0.5229 -1.1633
  194MOL0     H26143   1.860   9.313   7.469 -0.2366 -1.2256  0.6325
  194MOL0     H26144   1.917   9.533   7.420  1.7285 -1.0787  0.5180
  194MOL0     H26145   2.036   9.490   7.295  0.6839 -1.9420 -0.9183
  194MOL0     H26146   1.725   9.471   7.293  0.9809  4.5100  2.3257
  194MOL0     H26147   1.837   9.407   7.171 -0.4762  1.0171  0.4718
  194MOL0     H26148   1.795   9.592   7.062  3.1172  0.3815 -0.3964
  194MOL0     H26149   1.937   9.633   7.160  0.3431  2.1893  1.0802
  194MOL0     H26150   1.854   9.961   7.243  0.3488 -3.0949  2.1109
  194MOL0     H26151   1.744  10.158   7.128 -1.1947  0.6928 -3.0405
  194MOL0     H26152   1.550  10.358   6.784 -1.3581  2.2531  2.7663
  194MOL0     H26153   1.383  10.506   6.656 -1.0252  0.9186 -0.9151
  194MOL0     H26154   0.957  10.526   6.607  0.9028 -0.6986 -1.4330
  194MOL0     H26155   0.976  10.357   6.653  0.7012 -1.5961 -0.1623
  194MOL0     H26156   0.926  10.522   6.837 -1.4288 -1.0573 -0.6440
  194MOL0     H26157   1.043  10.398   6.847 -1.6396 -0.6399 -0.1977
  194MOL0     H26158   1.220  10.564   6.828  1.7595  3.2304  1.7280
  194MOL0     H26159   1.108  10.679   6.750 -1.0680  0.4013  0.7393
  194MOL0     H26160   1.176  10.660   7.026 -1.3603  1.3752  2.3246
  194MOL0     H26161   1.011  10.604   7.024 -3.1207  3.0975 -1.1081
  194MOL0     H26162   1.134  10.853   6.905 -1.7397 -3.0341 -4.1046
  194MOL0     H26163   1.086  10.831   7.074  3.4679 -1.6281  0.4869
  194MOL0     H26164   0.906  10.827   6.829  0.2423  0.7103 -0.0706
  194MOL0     H26165   0.847  10.773   6.981  1.2106 -0.2000  0.6116
  194MOL0     H26166   0.915  11.004   7.077 -0.9663 -1.8032  0.7201
  194MOL0     H26167   0.784  11.013   6.964 -0.1139 -1.7580  0.4533
  194MOL0     H26168   1.081  11.076   6.898 -0.1307  2.2730  2.3360
  194MOL0     H26169   0.947  11.070   6.782 -0.7878  1.3671  0.2714
  194MOL0     H26170   1.106  10.196   6.623  0.0071  1.1669  0.0588
  194MOL0     H26171   1.257  10.046   6.757 -0.1816 -1.7977 -4.5796
  194MOL0     H26172   1.462   9.883   6.961  0.0005  1.2427 -1.1962
  194MOL0     H26173   1.568   9.691   7.078 -0.7015  1.0150 -1.5458
  194MOL0     H26174   3.250   9.114   7.705 -1.9295 -1.7539 -0.6078
  194MOL0     H26175   3.307   8.957   7.523  1.7338 -0.1990  0.1150
  194MOL0     H26176   3.425   9.045   7.050 -1.0703 -1.7043 -0.0095
  194MOL0     H26177   3.413   8.941   6.820  2.0122  3.4501  1.6374
  194MOL0     H26178   3.558   8.743   6.600  0.8074  3.4373  1.4813
  194MOL0     H26179   3.422   8.819   6.664 -0.6354 -0.0856 -0.9086
  194MOL0     H26180   3.252   8.652   6.597  0.6551 -0.5702  1.4543
  194MOL0     H26181   3.370   8.528   6.614 -2.7853 -0.4762  0.6797
  194MOL0     H26182   3.477   8.598   6.416  0.3381  0.3581  1.2961
  194MOL0     H26183   3.380   8.745   6.377 -3.7250  0.1485 -0.0181
  194MOL0     H26184   3.175   8.620   6.371  1.5156  0.5509  3.5724
  194MOL0     H26185   3.289   8.569   6.253  0.7633 -0.3127  0.3423
  194MOL0     H26186   3.211   8.218   6.500  0.6276  0.5395  0.8722
  194MOL0     H26187   3.553   8.573   6.974  2.8124  0.7652 -2.1870
  194MOL0     H26188   3.504   8.642   7.329 -0.8128 -0.6042 -0.9475
  194MOL0     H26189   3.546   8.519   7.215 -1.4240 -0.0301  0.2919
  194MOL0     H26190   3.660   8.642   7.262 -0.8220 -0.8657  3.3537
  195MOL0     O26191   9.096   1.260   5.714  0.2028 -0.4213 -0.4001
  195MOL0     C26192   9.182   1.173   5.731 -0.9405 -0.1766 -0.6129
  195MOL0     O26193   9.316   1.186   5.743 -0.8149 -0.0693  0.3729
  195MOL0     C26194   9.377   1.301   5.775 -0.8348 -0.2859  0.5362
  195MOL0     C26195   9.315   1.430   5.794 -0.5083 -0.2895 -0.5380
  195MOL0     C26196   9.399   1.539   5.804  1.1928 -0.4312  0.6772
  195MOL0     C26197   9.541   1.533   5.802  1.0831  1.3165  0.9020
  195MOL0     O26198   9.632   1.642   5.797 -0.3409  0.2944 -0.2534
  195MOL0     C26199   9.588   1.778   5.796 -0.9524  0.3379  0.5919
  195MOL0     C26200   9.518   1.816   5.666  0.6640  0.6794 -0.5637
  195MOL0     C26201   9.456   1.957   5.649  0.3078 -0.7265 -0.3432
  195MOL0     C26202   9.352   1.992   5.754 -0.2311 -0.0141 -0.1150
  195MOL0     C26203   9.293   2.117   5.715 -0.1805 -0.2854  0.1807
  195MOL0     C26204   9.156   2.147   5.787 -0.7456 -0.5983  0.2923
  195MOL0     C26205   9.041   2.064   5.736 -0.4383 -1.2087 -0.1717
  195MOL0     C26206   8.934   2.083   5.834  0.3390 -0.6192 -0.2647
  195MOL0     N26207   8.798   2.080   5.778  0.1707 -0.6520  0.0537
  195MOL0     C26208   8.726   2.186   5.717  0.4682 -0.2906  0.1535
  195MOL0     C26209   8.604   2.146   5.683  0.0820  0.5823 -0.5820
  195MOL0     C26210   8.479   2.218   5.655  0.0965 -0.2558  0.4051
  195MOL0     C26211   8.496   2.312   5.538  0.7673 -0.5693  0.0368
  195MOL0     C26212   8.502   2.250   5.396 -0.2709  0.2263  0.1220
  195MOL0     C26213   8.637   2.197   5.345  0.4993  0.9888 -0.0148
  195MOL0     O26214   8.651   2.064   5.371 -0.0434  0.3764  0.4293
  195MOL0     C26215   8.783   2.015   5.372  0.3596  0.2081  0.6437
  195MOL0     C26216   8.894   2.063   5.291  1.5292 -1.2072  0.1748
  195MOL0     C26217   9.022   1.997   5.280  0.5730 -0.1531 -0.6111
  195MOL0     C26218   9.038   1.878   5.360 -0.1242 -0.0669  0.1421
  195MOL0     C26219   9.150   1.788   5.328  1.5677 -0.1904 -0.0234
  195MOL0     O26220   9.206   1.721   5.436  0.6928 -0.2563  0.5847
  195MOL0     C26221   9.315   1.636   5.411  0.7044  0.8928  0.6717
  195MOL0     C26222   9.431   1.680   5.329  0.3230  0.4934  0.4674
  195MOL0     C26223   9.530   1.589   5.313 -0.9580 -0.5222  0.3848
  195MOL0     C26224   9.538   1.467   5.384  0.5851  0.0853  0.0429
  195MOL0     O26225   9.656   1.394   5.370  0.3742  0.7196 -0.0668
  195MOL0     C26226   9.637   1.253   5.404  0.0108 -0.0559 -0.1493
  195MOL0     C26227   9.766   1.176   5.401 -0.6946 -0.3390 -0.2360
  195MOL0     C26228   9.870   1.204   5.516 -0.1529 -0.7303  0.0041
  195MOL0     C26229  10.017   1.175   5.474  0.9588 -0.2161  0.9784
  195MOL0     C26230  10.116   1.156   5.591 -0.9774  0.5735  0.6072
  195MOL0     C26231  10.257   1.121   5.548  1.0675 -0.0451 -1.2677
  195MOL0     C26232  10.317   1.208   5.436 -0.5347 -0.2084  0.5151
  195MOL0     C26233  10.471   1.235   5.457  0.8530 -0.1842  0.4958
  195MOL0    Cl26234  10.543   1.325   5.326  0.1387  0.0455 -0.4422
  195MOL0     C26235   9.424   1.433   5.467 -0.9884  0.2778  0.5915
  195MOL0     C26236   9.311   1.514   5.475  1.3164  0.0491  1.1796
  195MOL0     O26237   9.190   1.788   5.214  0.2535  0.3778 -0.0265
  195MOL0     C26238   8.932   1.831   5.438  0.4082 -0.8127  0.4528
  195MOL0     C26239   8.812   1.903   5.451 -0.0334 -1.2099  1.0283
  195MOL0     N26240   8.604   2.010   5.724 -0.3384  0.3283  0.5419
  195MOL0     N26241   8.723   1.972   5.769 -0.3039 -0.0486 -0.1100
  195MOL0     C26242   9.601   1.409   5.785 -0.0510  0.0527 -0.1196
  195MOL0     C26243   9.521   1.285   5.769  0.8394 -0.5574  0.2889
  195MOL0     C26244   9.126   1.043   5.758 -0.0895 -0.2934  0.0163
  195MOL0     C26245   9.192   0.971   5.858  0.1224  0.4081  0.3174
  195MOL0     C26246   9.146   0.845   5.904 -0.9282 -0.5732  0.9837
  195MOL0     C26247   9.025   0.799   5.856  0.1773 -0.0164 -0.6758
  195MOL0     O26248   8.970   0.688   5.903 -1.0990 -0.1835 -0.3043
  195MOL0     C26249   8.845   0.643   5.871 -0.5172 -0.0721 -0.0857
  195MOL0     C26250   8.801   0.552   5.983 -0.5282 -0.1578 -0.5036
  195MOL0     C26251   8.905   0.436   5.993  0.5334 -0.8171 -0.2650
  195MOL0     C26252   8.893   0.337   6.103 -0.0071  0.0410 -0.0441
  195MOL0     C26253   9.009   0.250   6.103  0.2629 -0.9275  0.4204
  195MOL0     C26254   9.085   0.155   6.108  0.2064  0.2740 -0.0333
  195MOL0     C26255   8.963   0.873   5.751 -0.0550  0.4930 -0.6934
  195MOL0     C26256   9.009   0.995   5.697 -0.2049  0.0639 -0.3602
  195MOL0     C26257   8.944   1.050   5.568  0.4285 -0.4549 -0.4895
  195MOL0     H26258   9.207   1.437   5.789 -0.5517  1.1544  1.4101
  195MOL0     H26259   9.348   1.635   5.811  2.3306  0.3887 -1.5303
  195MOL0     H26260   9.512   1.792   5.873 -0.2777  3.2971  0.8250
  195MOL0     H26261   9.667   1.852   5.806 -3.3818  3.1844  0.2075
  195MOL0     H26262   9.439   1.742   5.654  0.9081 -0.1015  2.0295
  195MOL0     H26263   9.581   1.804   5.577  0.5127  0.1395 -0.6007
  195MOL0     H26264   9.414   1.954   5.548  1.2618 -1.3347 -0.7313
  195MOL0     H26265   9.539   2.029   5.641  0.8624 -1.3201 -0.0098
  195MOL0     H26266   9.280   1.910   5.750 -1.1303  0.4698  3.1654
  195MOL0     H26267   9.393   1.994   5.855  0.0583 -1.4889 -0.1778
  195MOL0     H26268   9.370   2.192   5.736  0.0254  0.8413 -3.8229
  195MOL0     H26269   9.281   2.126   5.607 -1.1626  0.5367  0.3360
  195MOL0     H26270   9.167   2.145   5.895 -2.0898 -1.2357  0.4338
  195MOL0     H26271   9.137   2.254   5.770 -1.5805 -1.0341 -1.9569
  195MOL0     H26272   9.069   1.959   5.732  3.9465 -0.3862  2.3772
  195MOL0     H26273   9.011   2.104   5.638  0.4577 -0.3356 -0.1099
  195MOL0     H26274   8.956   2.006   5.909 -0.7769 -0.4723  0.2309
  195MOL0     H26275   8.940   2.168   5.903 -1.2881 -3.8696  4.3920
  195MOL0     H26276   8.764   2.287   5.720  1.3930 -0.6187 -0.3496
  195MOL0     H26277   8.403   2.142   5.632  0.8147 -1.4132  1.7012
  195MOL0     H26278   8.448   2.256   5.753  0.1785 -4.2357  2.1850
  195MOL0     H26279   8.413   2.383   5.539  1.1777  0.0023  3.3247
  195MOL0     H26280   8.582   2.379   5.545  1.3783 -0.9328 -2.7241
  195MOL0     H26281   8.473   2.331   5.327 -0.8721  1.2113  1.4909
  195MOL0     H26282   8.429   2.168   5.398  0.5382 -0.5049  0.3636
  195MOL0     H26283   8.719   2.246   5.397  0.7417  0.9244 -0.3355
  195MOL0     H26284   8.637   2.211   5.236  4.3747 -2.7154 -0.7571
  195MOL0     H26285   8.885   2.156   5.237  0.2586 -0.9845  0.7274
  195MOL0     H26286   9.094   2.053   5.222 -1.0313  3.7749  0.8800
  195MOL0     H26287   9.439   1.778   5.283  1.2696  0.2996  0.1986
  195MOL0     H26288   9.609   1.609   5.240 -1.1931  1.4711  0.6266
  195MOL0     H26289   9.608   1.237   5.508  2.6432  0.9136  0.8054
  195MOL0     H26290   9.566   1.217   5.329 -0.8317  1.0326  0.1101
  195MOL0     H26291   9.745   1.069   5.395 -0.8132 -0.4382  1.3926
  195MOL0     H26292   9.799   1.201   5.300 -2.4232 -1.8668 -1.2279
  195MOL0     H26293   9.876   1.307   5.550  1.0709 -2.1493  4.9274
  195MOL0     H26294   9.841   1.144   5.602  0.8460 -0.6136  0.4366
  195MOL0     H26295  10.058   1.247   5.403  1.0169 -0.1077  1.1217
  195MOL0     H26296  10.017   1.080   5.420  1.9142  0.3229 -0.0098
  195MOL0     H26297  10.085   1.091   5.674 -0.2542  1.3193  1.4814
  195MOL0     H26298  10.104   1.259   5.625 -1.7455  0.3534  1.0331
  195MOL0     H26299  10.314   1.128   5.640 -1.4930  2.4390  0.2814
  195MOL0     H26300  10.261   1.016   5.515  3.6807 -0.3995 -0.0342
  195MOL0     H26301  10.263   1.302   5.422 -0.1938 -0.1478 -0.5127
  195MOL0     H26302  10.319   1.159   5.338  0.7056  3.1083 -1.2815
  195MOL0     H26303  10.482   1.292   5.550  0.2145 -0.8554  0.9925
  195MOL0     H26304  10.522   1.139   5.454 -0.0826 -0.8096  2.5672
  195MOL0     H26305   9.423   1.350   5.536 -2.0713 -0.2133  0.0197
  195MOL0     H26306   9.214   1.500   5.521 -0.1863 -2.4825 -2.3197
  195MOL0     H26307   8.936   1.733   5.484  1.0674 -1.0516 -0.0823
  195MOL0     H26308   8.727   1.856   5.499  0.3380 -0.5722  2.3604
  195MOL0     H26309   9.706   1.416   5.757  0.0144 -1.0296 -0.1690
  195MOL0     H26310   9.562   1.188   5.744  0.9813 -0.5203  0.3797
  195MOL0     H26311   9.286   0.994   5.906 -0.7332 -0.6809  2.6820
  195MOL0     H26312   9.195   0.781   5.976 -3.1690 -3.8754 -0.1691
  195MOL0     H26313   8.845   0.591   5.775  2.2075  3.0432 -1.9839
  195MOL0     H26314   8.774   0.726   5.875 -3.0691 -1.9858 -2.0070
  195MOL0     H26315   8.697   0.519   5.970 -0.9455 -1.1888  3.8570
  195MOL0     H26316   8.814   0.604   6.078  1.7202 -2.6197  0.6577
  195MOL0     H26317   9.009   0.469   5.993  0.9233 -1.9772  0.3384
  195MOL0     H26318   8.890   0.376   5.903  1.2798 -1.5198  0.0649
  195MOL0     H26319   8.883   0.394   6.196  1.9586  1.0219 -0.3752
  195MOL0     H26320   8.806   0.274   6.084  0.9030 -0.5433 -2.7638
  195MOL0     H26321   9.154   0.075   6.128 -1.6164 -0.9474  1.8284
  195MOL0     H26322   8.864   0.843   5.720 -0.8408 -0.0589  2.0567
  195MOL0     H26323   8.897   0.969   5.510  4.0499 -2.3667 -1.0549
  195MOL0     H26324   8.872   1.127   5.599 -0.2437 -2.0755  2.2990
  195MOL0     H26325   9.024   1.107   5.520  0.2891  4.4162  4.1725
  196MOL0     O26326   6.303   5.795   0.292  0.1103 -0.1102 -0.2450
  196MOL0     C26327   6.323   5.683   0.336 -0.8566  0.4032  0.0446
  196MOL0     O26328   6.236   5.583   0.364  0.1140 -0.1396 -0.4951
  196MOL0     C26329   6.097   5.583   0.381  0.6795  0.4823 -0.3546
  196MOL0     C26330   6.016   5.675   0.327 -0.9241 -0.6684  0.7819
  196MOL0     C26331   5.874   5.666   0.341  0.8089  0.4834 -0.3680
  196MOL0     C26332   5.809   5.564   0.411 -0.5087  0.7485  0.3572
  196MOL0     O26333   5.673   5.560   0.418  0.5223  0.2950  0.4354
  196MOL0     C26334   5.623   5.559   0.553  0.0421 -0.3041  0.0199
  196MOL0     C26335   5.508   5.465   0.564 -0.1582 -0.5387 -0.2542
  196MOL0     C26336   5.432   5.479   0.696 -0.2347 -0.0666 -0.3238
  196MOL0     C26337   5.346   5.603   0.683  0.0092  0.0759 -0.5908
  196MOL0     C26338   5.357   5.681   0.812  0.2445 -0.9872  0.5581
  196MOL0     C26339   5.285   5.630   0.939 -0.1055  0.3656 -0.2674
  196MOL0     C26340   5.268   5.478   0.968  0.8776 -1.0429 -0.8106
  196MOL0     C26341   5.178   5.451   1.093 -0.2650 -0.4846 -0.1024
  196MOL0     N26342   5.224   5.530   1.209  0.6048 -0.2197  0.5971
  196MOL0     C26343   5.174   5.650   1.242  0.6706 -0.0708 -0.5558
  196MOL0     C26344   5.214   5.668   1.371  0.3298 -0.9227 -0.0031
  196MOL0     C26345   5.179   5.787   1.463  0.2495 -0.8028  0.5665
  196MOL0     C26346   5.296   5.892   1.465  0.5968  0.1615 -0.1103
  196MOL0     C26347   5.339   5.945   1.334 -0.4369 -0.4019 -0.4468
  196MOL0     C26348   5.463   6.025   1.354 -0.3223  0.2378 -0.3653
  196MOL0     O26349   5.511   6.081   1.235  0.2778  0.5711 -0.3828
  196MOL0     C26350   5.628   6.149   1.232 -0.6186 -0.4862 -0.0806
  196MOL0     C26351   5.730   6.116   1.139 -0.2259 -0.2770  0.1755
  196MOL0     C26352   5.854   6.183   1.141  0.9948  0.2096  0.6963
  196MOL0     C26353   5.874   6.290   1.223 -0.1024 -0.7732 -0.7895
  196MOL0     C26354   6.010   6.347   1.235  0.0642 -0.4245 -0.5459
  196MOL0     O26355   6.097   6.306   1.136 -0.4523  0.2651 -0.9036
  196MOL0     C26356   6.219   6.372   1.135 -0.2836  0.5109 -0.6174
  196MOL0     C26357   6.217   6.513   1.128 -0.8541 -1.2899  0.0310
  196MOL0     C26358   6.346   6.581   1.107  0.3680  0.0958  0.7085
  196MOL0     C26359   6.463   6.512   1.110  0.2169 -0.0984  0.8133
  196MOL0     O26360   6.586   6.573   1.105 -0.1329  0.6778 -0.2101
  196MOL0     C26361   6.594   6.713   1.113  0.3611  0.0783 -0.9324
  196MOL0     C26362   6.742   6.747   1.087 -0.7954 -0.6533 -0.3202
  196MOL0     C26363   6.807   6.702   0.955  0.3023  0.3281 -0.2274
  196MOL0     C26364   6.735   6.731   0.827 -0.5134  0.4067 -1.2863
  196MOL0     C26365   6.816   6.809   0.719 -0.7582  0.8840 -0.8682
  196MOL0     C26366   6.729   6.850   0.589 -0.5288  0.3243  0.0033
  196MOL0     C26367   6.824   6.932   0.503 -0.5055  0.3991  0.6589
  196MOL0     C26368   6.765   6.977   0.382 -0.1919  0.4024 -0.4221
  196MOL0    Cl26369   6.872   7.097   0.310 -0.2360 -0.3921 -0.2542
  196MOL0     C26370   6.469   6.367   1.111  0.9627 -0.2252  0.2371
  196MOL0     C26371   6.337   6.305   1.104  0.3602  0.4090 -0.0139
  196MOL0     O26372   6.038   6.423   1.324 -0.1870  1.0542  0.1471
  196MOL0     C26373   5.770   6.339   1.298  0.3626  0.1506 -0.4767
  196MOL0     C26374   5.645   6.268   1.304  0.0491  0.9420  0.4014
  196MOL0     N26375   5.300   5.565   1.395 -0.6496  0.6444 -0.3696
  196MOL0     N26376   5.304   5.469   1.297 -0.3057 -0.9228 -0.3954
  196MOL0     C26377   5.899   5.460   0.459  0.6794  0.5041 -0.0318
  196MOL0     C26378   6.037   5.473   0.440  0.8846 -0.2273  1.1026
  196MOL0     C26379   6.462   5.647   0.376 -0.6644  0.3769  0.7923
  196MOL0     C26380   6.569   5.705   0.308 -1.5133 -0.0563 -0.4563
  196MOL0     C26381   6.705   5.665   0.333  0.3469  0.2227  0.9728
  196MOL0     C26382   6.730   5.573   0.437  1.8469 -0.1790 -0.3732
  196MOL0     O26383   6.863   5.557   0.462 -0.5246 -0.0608  0.0185
  196MOL0     C26384   6.913   5.477   0.565  0.3805  0.7529 -0.3301
  196MOL0     C26385   6.897   5.324   0.557  0.1083  0.2139 -0.2124
  196MOL0     C26386   6.878   5.270   0.699 -0.0633 -0.4306 -0.5644
  196MOL0     C26387   6.863   5.116   0.703  0.1817  0.3775 -0.0055
  196MOL0     C26388   6.980   5.048   0.642  0.4394  0.3544 -0.2353
  196MOL0     C26389   7.045   4.966   0.586  0.2634 -0.1888 -0.3379
  196MOL0     C26390   6.621   5.522   0.510  0.7030  0.7426 -0.3051
  196MOL0     C26391   6.494   5.566   0.489  1.0856 -0.1555  0.4537
  196MOL0     C26392   6.396   5.524   0.595  0.6457 -0.5897  0.1080
  196MOL0     H26393   6.045   5.771   0.287 -1.0093  0.1807  2.6239
  196MOL0     H26394   5.822   5.753   0.302 -0.4163 -1.0143 -2.1937
  196MOL0     H26395   5.693   5.531   0.632  1.6016 -0.4022 -1.3608
  196MOL0     H26396   5.581   5.656   0.582  0.0777  0.0297 -1.0190
  196MOL0     H26397   5.550   5.364   0.566  1.0865 -0.0329  0.5853
  196MOL0     H26398   5.428   5.473   0.490 -0.8956  0.2114  0.5902
  196MOL0     H26399   5.506   5.493   0.775  1.4365  2.7373 -2.2083
  196MOL0     H26400   5.378   5.385   0.713 -0.7085 -0.4734 -3.4686
  196MOL0     H26401   5.369   5.667   0.598  0.2254 -0.4380 -0.9212
  196MOL0     H26402   5.242   5.572   0.673 -0.9963  3.2742 -1.1633
  196MOL0     H26403   5.463   5.698   0.832  0.1146 -0.0903  0.5329
  196MOL0     H26404   5.312   5.780   0.796 -0.6374 -1.6688 -1.5356
  196MOL0     H26405   5.338   5.677   1.022  2.1868  0.4186 -1.6873
  196MOL0     H26406   5.186   5.675   0.934  0.0302  0.7238  0.2967
  196MOL0     H26407   5.368   5.433   0.971  1.4175  0.1499  2.0256
  196MOL0     H26408   5.224   5.425   0.883 -0.3458 -0.0142 -0.8539
  196MOL0     H26409   5.082   5.495   1.064  1.3216  2.0157 -1.9041
  196MOL0     H26410   5.158   5.345   1.109 -2.3107  0.2746  3.5888
  196MOL0     H26411   5.101   5.708   1.187  1.1332  1.0114 -0.0470
  196MOL0     H26412   5.093   5.830   1.412 -1.0697 -1.0874  2.4424
  196MOL0     H26413   5.139   5.756   1.560 -2.8327 -0.7904 -0.5984
  196MOL0     H26414   5.245   5.974   1.517 -3.5330 -0.3137 -2.9135
  196MOL0     H26415   5.382   5.851   1.517 -1.2449 -2.8563  0.8329
  196MOL0     H26416   5.275   6.018   1.284  2.4461  1.1780 -2.1181
  196MOL0     H26417   5.359   5.866   1.262  0.5944 -0.6619  0.0969
  196MOL0     H26418   5.547   5.967   1.393  0.3893  2.7652  2.2188
  196MOL0     H26419   5.449   6.105   1.428  0.9288  1.9034 -1.8688
  196MOL0     H26420   5.732   6.030   1.074  3.6232  1.8416 -2.9964
  196MOL0     H26421   5.934   6.144   1.079  0.4390  3.0873 -2.1061
  196MOL0     H26422   6.126   6.570   1.144  1.8544  2.8957  2.5241
  196MOL0     H26423   6.334   6.689   1.107 -0.8067 -0.0192  0.0498
  196MOL0     H26424   6.539   6.770   1.038 -0.1111  4.0918  2.1437
  196MOL0     H26425   6.571   6.747   1.214 -3.1345  2.4395 -2.3609
  196MOL0     H26426   6.758   6.855   1.092  0.4661 -0.8848  2.3823
  196MOL0     H26427   6.815   6.704   1.156 -0.0825  0.0017 -0.6432
  196MOL0     H26428   6.907   6.746   0.956  0.4024  0.0984 -0.2809
  196MOL0     H26429   6.818   6.593   0.958  0.2239  0.2761  3.7501
  196MOL0     H26430   6.647   6.784   0.865 -2.4540 -3.9338  1.0386
  196MOL0     H26431   6.697   6.638   0.786 -1.5343  0.4278 -0.4429
  196MOL0     H26432   6.888   6.735   0.684 -1.7858 -0.6062  0.0772
  196MOL0     H26433   6.865   6.895   0.765 -1.9826  1.8503 -1.3034
  196MOL0     H26434   6.697   6.761   0.534 -0.5778 -0.6873  1.5723
  196MOL0     H26435   6.635   6.897   0.620 -0.0755 -0.4277  2.8034
  196MOL0     H26436   6.915   6.878   0.475 -0.6957  1.2125 -1.7258
  196MOL0     H26437   6.860   7.020   0.557  0.1600  0.2630  0.4503
  196MOL0     H26438   6.749   6.896   0.310  0.5409  2.6011 -3.2722
  196MOL0     H26439   6.668   7.023   0.400 -0.9865 -1.1574 -0.5642
  196MOL0     H26440   6.563   6.314   1.108  1.6172  0.8728  0.6462
  196MOL0     H26441   6.333   6.198   1.086 -0.8279  0.5922 -1.0088
  196MOL0     H26442   5.786   6.434   1.347  0.5009  0.1909 -0.5955
  196MOL0     H26443   5.560   6.300   1.364  1.1597 -0.4419  2.8335
  196MOL0     H26444   5.853   5.371   0.500 -0.3486  0.4686 -1.2063
  196MOL0     H26445   6.108   5.395   0.466  1.0741  0.0429  1.3983
  196MOL0     H26446   6.562   5.771   0.223  0.0824 -2.0198 -2.2146
  196MOL0     H26447   6.787   5.699   0.270 -2.1296 -1.9013 -3.9056
  196MOL0     H26448   6.862   5.514   0.655  3.7207  1.2450  1.5215
  196MOL0     H26449   7.019   5.495   0.586 -0.0278  0.9499  1.7927
  196MOL0     H26450   6.977   5.277   0.499  0.3640 -0.4378  0.6358
  196MOL0     H26451   6.807   5.296   0.502 -0.7613  2.0090  0.2108
  196MOL0     H26452   6.797   5.310   0.761 -0.3666 -0.3130 -1.0319
  196MOL0     H26453   6.968   5.284   0.759 -0.1322 -0.8417 -0.3599
  196MOL0     H26454   6.853   5.095   0.810 -0.7060  3.1370  0.5174
  196MOL0     H26455   6.770   5.075   0.662  0.2861 -0.8600  0.9211
  196MOL0     H26456   7.118   4.903   0.538  0.9499  0.7133 -0.5163
  196MOL0     H26457   6.627   5.452   0.593 -0.9527  1.8588  0.8190
  196MOL0     H26458   6.342   5.431   0.576  1.9054 -1.6570  1.4082
  196MOL0     H26459   6.450   5.495   0.687  1.2169 -0.2744 -0.1211
  196MOL0     H26460   6.324   5.598   0.631 -0.4861 -2.1877  1.2912
  197MOL0     O26461   1.332   9.294   8.182  0.1216  0.0276 -0.6165
  197MOL0     C26462   1.416   9.376   8.218 -0.4078 -0.3747  0.1449
  197MOL0     O26463   1.536   9.386   8.154 -0.7754  0.3578  0.3003
  197MOL0     C26464   1.564   9.270   8.077 -0.9121 -0.2757  0.4916
  197MOL0     C26465   1.678   9.208   8.119  0.2902  0.6016  1.0217
  197MOL0     C26466   1.724   9.097   8.036  0.1427  0.2736 -0.4133
  197MOL0     C26467   1.661   9.048   7.914 -0.5520  0.7903  0.9249
  197MOL0     O26468   1.705   8.953   7.827 -0.0658  0.8801  0.3150
  197MOL0     C26469   1.842   8.903   7.832  0.8862 -0.0375  0.0636
  197MOL0     C26470   1.896   8.817   7.717  0.1612 -0.9995  0.7471
  197MOL0     C26471   1.878   8.901   7.580 -0.2337  0.1946  0.1824
  197MOL0     C26472   1.780   8.833   7.489 -0.4956  0.3416 -0.2763
  197MOL0     C26473   1.761   8.903   7.347 -0.5638  0.1358 -0.0575
  197MOL0     C26474   1.672   9.020   7.343 -1.1890 -0.2155  0.1250
  197MOL0     C26475   1.681   9.104   7.215  0.0684  0.5749 -1.2672
  197MOL0     C26476   1.578   9.214   7.219  0.8076  0.1188 -0.3868
  197MOL0     N26477   1.583   9.310   7.112 -1.3595  0.6248  0.7496
  197MOL0     C26478   1.667   9.310   6.995  0.7614  0.6942  0.5675
  197MOL0     C26479   1.621   9.411   6.923 -1.0667 -0.5049 -0.6820
  197MOL0     C26480   1.666   9.450   6.795 -0.0207  0.2932 -0.1109
  197MOL0     C26481   1.670   9.601   6.750  0.1827 -0.1028  0.2740
  197MOL0     C26482   1.527   9.660   6.727  0.1074  0.7200 -0.1985
  197MOL0     C26483   1.525   9.795   6.655  0.0183  0.1574  1.2111
  197MOL0     O26484   1.609   9.793   6.537  0.1357 -0.2907 -0.0502
  197MOL0     C26485   1.678   9.912   6.504  0.3984 -0.5518  0.4224
  197MOL0     C26486   1.806   9.898   6.448  0.1244  0.1689 -0.0861
  197MOL0     C26487   1.881  10.016   6.413 -0.3008 -0.0798 -0.2492
  197MOL0     C26488   1.827  10.144   6.426  0.8720 -0.4603 -0.4914
  197MOL0     C26489   1.913  10.254   6.381 -0.1693  0.2986 -0.3546
  197MOL0     O26490   2.005  10.254   6.283  0.5867  0.0061  0.8168
  197MOL0     C26491   2.038  10.371   6.214 -0.2296 -0.3015 -0.9549
  197MOL0     C26492   1.948  10.457   6.149 -0.2286  0.9251 -1.2835
  197MOL0     C26493   1.984  10.569   6.081 -0.2572 -0.4481  1.6439
  197MOL0     C26494   2.118  10.600   6.076 -0.3225  0.6053  0.5576
  197MOL0     O26495   2.142  10.704   6.001  0.2030 -0.3269  0.9346
  197MOL0     C26496   2.217  10.807   6.055  0.6686 -1.4569  0.1608
  197MOL0     C26497   2.211  10.945   5.971  0.3826  1.7614  0.3392
  197MOL0     C26498   2.065  10.997   5.982 -0.5013 -0.4103  0.9415
  197MOL0     C26499   2.057  11.136   6.042 -0.5485  0.1536 -0.5367
  197MOL0     C26500   1.903  11.199   6.051 -0.0958  0.0669  0.5850
  197MOL0     C26501   1.846  11.215   5.914  0.3446  0.4634  0.2199
  197MOL0     C26502   1.699  11.270   5.911  0.6798  0.6246 -0.0349
  197MOL0     C26503   1.624  11.245   5.778 -0.1142 -0.1321 -0.9092
  197MOL0    Cl26504   1.618  11.059   5.734  0.4164 -0.0923  0.1071
  197MOL0     C26505   2.214  10.523   6.141 -0.3784 -0.0521  0.2369
  197MOL0     C26506   2.174  10.401   6.208  0.7534  0.1350  0.2880
  197MOL0     O26507   1.882  10.361   6.435  0.3230 -0.3969 -0.9396
  197MOL0     C26508   1.696  10.154   6.490 -0.5722  0.0815 -0.3949
  197MOL0     C26509   1.619  10.041   6.514 -0.3936 -0.1009 -0.5246
  197MOL0     N26510   1.522   9.468   6.992 -0.0869 -0.4699 -0.4188
  197MOL0     N26511   1.503   9.412   7.104 -0.1009 -0.5610  0.7255
  197MOL0     C26512   1.545   9.122   7.883 -0.7706  0.4436 -0.5823
  197MOL0     C26513   1.489   9.221   7.965  0.3295  0.2833 -0.8521
  197MOL0     C26514   1.391   9.491   8.324 -0.0281  0.7715 -0.5725
  197MOL0     C26515   1.494   9.586   8.350 -1.6100  0.2257 -0.1258
  197MOL0     C26516   1.482   9.692   8.440  0.0622 -0.6458 -0.0178
  197MOL0     C26517   1.361   9.707   8.511 -0.2837 -0.4181  0.6200
  197MOL0     O26518   1.348   9.811   8.598 -0.0563 -0.4012 -0.2347
  197MOL0     C26519   1.400   9.803   8.731 -0.0718  0.0525  0.1132
  197MOL0     C26520   1.508   9.902   8.745  0.8832  0.8634  0.1440
  197MOL0     C26521   1.560   9.903   8.891  0.4230 -0.3273  0.4497
  197MOL0     C26522   1.683   9.981   8.907  0.1786 -0.0365 -0.6845
  197MOL0     C26523   1.646  10.123   8.899  0.1959  0.4734  0.3759
  197MOL0     C26524   1.644  10.241   8.869  0.2722  0.4038 -0.3993
  197MOL0     C26525   1.254   9.613   8.493 -1.4913 -0.0232  0.1843
  197MOL0     C26526   1.275   9.503   8.405  0.4944  0.1944  0.8421
  197MOL0     C26527   1.159   9.407   8.400  0.4555 -0.3100 -0.3261
  197MOL0     H26528   1.745   9.258   8.188  3.4814 -0.4415 -1.0804
  197MOL0     H26529   1.825   9.066   8.063  0.2768  0.6743 -0.4507
  197MOL0     H26530   1.912   8.985   7.852  1.2867 -0.3088 -0.2151
  197MOL0     H26531   1.831   8.835   7.917 -1.5805 -0.6853 -0.6878
  197MOL0     H26532   1.834   8.726   7.720 -1.0762 -0.1650  1.3154
  197MOL0     H26533   2.001   8.790   7.730  0.8888  0.6230 -1.2190
  197MOL0     H26534   1.978   8.919   7.540  0.4335 -1.5770  0.9573
  197MOL0     H26535   1.830   8.994   7.610  0.9700  0.3656  1.6954
  197MOL0     H26536   1.809   8.729   7.472 -2.6757 -0.1070 -1.6396
  197MOL0     H26537   1.679   8.837   7.529 -0.1892  0.0583  0.5444
  197MOL0     H26538   1.866   8.927   7.327  0.3266 -3.0856  0.3128
  197MOL0     H26539   1.722   8.829   7.277  0.5210  0.0271 -0.5761
  197MOL0     H26540   1.573   8.976   7.356 -0.5855 -1.1485  2.0615
  197MOL0     H26541   1.691   9.087   7.427 -0.0621  1.2019 -1.2179
  197MOL0     H26542   1.650   9.035   7.135 -0.0893 -0.6555 -0.1778
  197MOL0     H26543   1.781   9.144   7.196  2.3118 -0.9232  4.9885
  197MOL0     H26544   1.479   9.168   7.224  1.4808 -1.2448  1.9018
  197MOL0     H26545   1.586   9.267   7.313 -0.6952 -0.4288  0.0722
  197MOL0     H26546   1.757   9.250   6.992  2.9355  3.6480  1.1894
  197MOL0     H26547   1.762   9.398   6.787  0.1142  0.6350 -0.8097
  197MOL0     H26548   1.606   9.388   6.727  1.9675 -0.9426 -0.8329
  197MOL0     H26549   1.731   9.663   6.816  1.5753  1.3657 -2.2355
  197MOL0     H26550   1.723   9.604   6.654  0.7648  2.3046  0.6112
  197MOL0     H26551   1.480   9.680   6.824  2.7311  0.2097  1.2838
  197MOL0     H26552   1.464   9.592   6.670  0.7454  0.6752 -0.8750
  197MOL0     H26553   1.571   9.869   6.721  0.1865  1.6898 -0.5582
  197MOL0     H26554   1.424   9.834   6.641  0.5832  0.8548 -1.3795
  197MOL0     H26555   1.850   9.799   6.448  1.8383  0.8252  2.4391
  197MOL0     H26556   1.982   9.995   6.381 -1.0629  0.5708 -3.5078
  197MOL0     H26557   1.844  10.443   6.179  0.6509  1.2921  2.4245
  197MOL0     H26558   1.905  10.639   6.055 -0.1145 -0.9340 -0.2103
  197MOL0     H26559   2.204  10.827   6.162  2.4048 -0.0143  0.1455
  197MOL0     H26560   2.319  10.769   6.048  1.2683 -0.3469  2.0815
  197MOL0     H26561   2.293  11.006   6.009  2.6202 -0.7752 -0.1123
  197MOL0     H26562   2.230  10.907   5.870  0.0351  3.7849 -0.5264
  197MOL0     H26563   2.022  11.017   5.884 -0.7681 -4.2412  0.1023
  197MOL0     H26564   1.999  10.933   6.041 -0.8518 -0.2615  0.7100
  197MOL0     H26565   2.107  11.206   5.975 -1.8444  0.2993 -1.3876
  197MOL0     H26566   2.113  11.152   6.134 -2.0771  3.0962  0.0122
  197MOL0     H26567   1.920  11.301   6.088 -1.4701  0.6846 -0.3763
  197MOL0     H26568   1.836  11.140   6.114 -1.9096 -0.3439 -1.6175
  197MOL0     H26569   1.903  11.274   5.842 -0.8235  0.7181 -0.5218
  197MOL0     H26570   1.847  11.112   5.877 -0.4751 -0.9539  3.7063
  197MOL0     H26571   1.707  11.378   5.923 -2.4408  0.9559 -0.1241
  197MOL0     H26572   1.656  11.210   5.991  2.1972 -3.8037 -2.1721
  197MOL0     H26573   1.523  11.286   5.783 -0.3882 -0.7018 -1.6389
  197MOL0     H26574   1.693  11.290   5.705  0.9445  0.5426  0.4567
  197MOL0     H26575   2.319  10.553   6.137  0.2847 -2.0422  1.3059
  197MOL0     H26576   2.255  10.340   6.244  1.6151  0.7300 -0.5914
  197MOL0     H26577   1.655  10.254   6.500 -2.1066 -0.2885 -2.4117
  197MOL0     H26578   1.515  10.045   6.544 -0.0658 -1.1776  0.8636
  197MOL0     H26579   1.485   9.099   7.795  1.0431 -0.5687 -1.5991
  197MOL0     H26580   1.389   9.258   7.942  0.3063 -1.5389 -4.2461
  197MOL0     H26581   1.590   9.581   8.299 -2.7248 -4.0489 -2.2601
  197MOL0     H26582   1.554   9.774   8.445  1.9655 -2.2614  0.2502
  197MOL0     H26583   1.438   9.702   8.750 -2.2210 -0.5638  1.5706
  197MOL0     H26584   1.318   9.824   8.800  1.3003 -0.5113  1.9763
  197MOL0     H26585   1.477   9.996   8.699  1.1784  0.8158 -0.1624
  197MOL0     H26586   1.597   9.858   8.698 -0.2516 -0.2265 -1.0567
  197MOL0     H26587   1.579   9.799   8.920  0.3106  0.1867  2.5272
  197MOL0     H26588   1.487   9.940   8.963  1.4697 -1.2732  2.0456
  197MOL0     H26589   1.718   9.958   9.008 -0.9309 -1.7974 -0.6645
  197MOL0     H26590   1.763   9.967   8.834  1.2642 -1.9888  0.8166
  197MOL0     H26591   1.662  10.344   8.844  0.2077  0.9121  1.5365
  197MOL0     H26592   1.163   9.623   8.550 -1.0293 -0.3215  0.9912
  197MOL0     H26593   1.121   9.414   8.298 -1.3580 -2.2283  0.1380
  197MOL0     H26594   1.188   9.304   8.424  3.0383  0.9314  2.6755
  197MOL0     H26595   1.081   9.426   8.474 -0.4914 -0.7901 -1.1852
  198MOL0     O26596   2.412   1.739   8.818  0.1815 -0.6815 -0.0158
  198MOL0     C26597   2.402   1.860   8.793 -0.3379 -0.3973 -0.4693
  198MOL0     O26598   2.502   1.947   8.741  0.3249  0.3606 -0.1168
  198MOL0     C26599   2.626   1.896   8.709 -0.3047 -0.2921  0.5219
  198MOL0     C26600   2.656   1.860   8.580  0.0143 -1.2625 -0.0967
  198MOL0     C26601   2.783   1.822   8.543  0.4579 -0.2349  0.1106
  198MOL0     C26602   2.890   1.819   8.642 -0.5667  0.0923  0.4796
  198MOL0     O26603   3.016   1.776   8.618 -0.6134 -0.4443 -0.7222
  198MOL0     C26604   3.066   1.791   8.489  0.3337 -0.1015  0.6824
  198MOL0     C26605   3.208   1.732   8.473 -0.0268 -0.2794 -0.0834
  198MOL0     C26606   3.271   1.793   8.348 -0.1308  0.3343  0.4654
  198MOL0     C26607   3.414   1.746   8.311  0.5652  0.6755 -1.1054
  198MOL0     C26608   3.515   1.764   8.435 -0.3360 -0.0788 -0.4787
  198MOL0     C26609   3.652   1.712   8.406 -0.1959 -0.2145 -1.2558
  198MOL0     C26610   3.729   1.703   8.543 -0.2294  0.6192  0.3505
  198MOL0     C26611   3.834   1.808   8.574 -0.1481  0.6102 -0.1422
  198MOL0     N26612   3.813   1.891   8.694  0.1328 -0.3010 -0.8338
  198MOL0     C26613   3.692   1.948   8.723 -0.3581 -0.1443 -0.1472
  198MOL0     C26614   3.711   1.984   8.852  0.1405 -0.3909 -0.6979
  198MOL0     C26615   3.611   2.070   8.930 -0.0824 -0.1094 -0.2900
  198MOL0     C26616   3.558   1.991   9.048  0.8375 -0.4091 -0.7296
  198MOL0     C26617   3.466   2.088   9.137  1.2945 -0.3112  0.6221
  198MOL0     C26618   3.404   2.021   9.267 -0.5185 -0.0842 -0.0839
  198MOL0     O26619   3.307   1.922   9.235 -0.1461 -0.6947 -0.2635
  198MOL0     C26620   3.200   1.898   9.312 -1.1582 -0.0589  0.1776
  198MOL0     C26621   3.120   1.794   9.266 -0.0634 -0.2616  0.6127
  198MOL0     C26622   3.000   1.763   9.314  0.1414  0.4349 -1.1686
  198MOL0     C26623   2.954   1.833   9.430  0.3380  0.5859  0.1198
  198MOL0     C26624   2.827   1.802   9.481  0.4528  0.6481 -0.8491
  198MOL0     O26625   2.785   1.857   9.593 -1.2722 -0.3405 -0.4583
  198MOL0     C26626   2.655   1.842   9.629 -0.7077 -0.5850  0.0032
  198MOL0     C26627   2.620   1.748   9.724 -0.1954  0.2886  0.1644
  198MOL0     C26628   2.484   1.736   9.764 -0.1419  0.3684  0.9524
  198MOL0     C26629   2.385   1.809   9.707 -0.8541  0.9101  0.3860
  198MOL0     O26630   2.253   1.787   9.745 -0.1201 -0.3897 -0.2598
  198MOL0     C26631   2.178   1.737   9.637  0.9862  0.5435  0.2753
  198MOL0     C26632   2.043   1.787   9.638  0.9829  0.3290  0.9559
  198MOL0     C26633   1.955   1.722   9.526 -1.2306  0.0658  0.1690
  198MOL0     C26634   1.814   1.761   9.528 -0.6572 -1.0526  0.3648
  198MOL0     C26635   1.726   1.685   9.440  0.5222 -0.8353 -0.2875
  198MOL0     C26636   1.593   1.759   9.396 -0.2044 -0.0321 -0.4960
  198MOL0     C26637   1.517   1.822   9.522 -0.0790  0.1598  1.3147
  198MOL0     C26638   1.421   1.932   9.497  0.1470 -0.0873  0.2557
  198MOL0    Cl26639   1.501   2.076   9.416 -0.0973 -0.0542  0.0980
  198MOL0     C26640   2.428   1.912   9.604  0.2344  0.4347  0.0698
  198MOL0     C26641   2.565   1.929   9.571  0.5146 -0.1789  0.8102
  198MOL0     O26642   2.755   1.733   9.406  0.6016 -0.2596 -0.1824
  198MOL0     C26643   3.039   1.918   9.500 -0.9161 -0.0490 -0.2737
  198MOL0     C26644   3.160   1.956   9.435 -0.9736 -0.0394  0.6803
  198MOL0     N26645   3.839   1.963   8.896 -0.0365 -0.0002  1.0371
  198MOL0     N26646   3.898   1.892   8.798  0.5396  0.0296 -0.5095
  198MOL0     C26647   2.857   1.848   8.776 -0.0783 -0.0634 -0.2441
  198MOL0     C26648   2.725   1.887   8.809  0.0107  0.9538 -0.4841
  198MOL0     C26649   2.281   1.938   8.808  0.4750 -0.1965 -1.2856
  198MOL0     C26650   2.284   2.085   8.801 -0.0736  0.1316 -0.0640
  198MOL0     C26651   2.173   2.169   8.842  0.2835 -0.5924  0.8489
  198MOL0     C26652   2.056   2.104   8.887  0.9195 -0.3654 -0.1407
  198MOL0     O26653   1.942   2.166   8.937  0.1175 -0.3197  0.1197
  198MOL0     C26654   1.928   2.309   8.915 -0.0385 -0.5764 -0.7440
  198MOL0     C26655   1.804   2.369   9.004  0.3926  0.3245 -0.4815
  198MOL0     C26656   1.677   2.307   8.939  0.4906  0.3962 -0.4187
  198MOL0     C26657   1.551   2.386   8.981  1.0006 -0.3389 -0.1065
  198MOL0     C26658   1.549   2.511   8.902 -0.9638 -1.0921 -0.1116
  198MOL0     C26659   1.553   2.608   8.831 -0.7508  0.2187  0.3421
  198MOL0     C26660   2.055   1.967   8.887  0.9312  1.1294  0.1411
  198MOL0     C26661   2.155   1.882   8.840  0.0283  0.3920 -0.8961
  198MOL0     C26662   2.130   1.733   8.838  0.0499 -0.4778 -0.7402
  198MOL0     H26663   2.584   1.863   8.499  2.6767 -0.3803 -2.6094
  198MOL0     H26664   2.795   1.783   8.443  4.9535 -3.0681  1.4767
  198MOL0     H26665   3.004   1.742   8.414 -1.0279 -0.0726  1.7570
  198MOL0     H26666   3.067   1.896   8.457  2.8682 -0.3694 -0.3202
  198MOL0     H26667   3.197   1.623   8.460  1.3091 -0.4990  0.5006
  198MOL0     H26668   3.255   1.756   8.568  0.9533 -0.8949 -0.3914
  198MOL0     H26669   3.260   1.901   8.363  1.0407  0.1376  3.3862
  198MOL0     H26670   3.202   1.764   8.268  0.2586 -4.1729  1.5327
  198MOL0     H26671   3.415   1.639   8.289  0.4324  0.4578 -0.1105
  198MOL0     H26672   3.443   1.807   8.225  1.6644  2.7381  0.6395
  198MOL0     H26673   3.526   1.871   8.455  1.8639 -0.6273  1.8339
  198MOL0     H26674   3.464   1.719   8.521 -0.1746 -2.1545 -1.4170
  198MOL0     H26675   3.633   1.615   8.360  0.3290 -1.2576  0.6246
  198MOL0     H26676   3.705   1.776   8.335 -0.7015  2.8355  0.8709
  198MOL0     H26677   3.777   1.606   8.531  1.8927  1.7312 -0.8340
  198MOL0     H26678   3.667   1.694   8.633  2.0697 -0.5338  1.9272
  198MOL0     H26679   3.930   1.757   8.587 -0.7205 -0.1626  1.3017
  198MOL0     H26680   3.845   1.873   8.487 -0.4586  0.4965 -0.2685
  198MOL0     H26681   3.600   1.956   8.665 -0.4117 -2.4584 -0.4433
  198MOL0     H26682   3.665   2.157   8.968  1.4880 -1.2016  0.1177
  198MOL0     H26683   3.528   2.103   8.867 -0.1716  0.0974 -0.0650
  198MOL0     H26684   3.498   1.914   9.000 -0.0978  1.3843 -2.6288
  198MOL0     H26685   3.646   1.948   9.095  1.2555  1.0261 -0.1315
  198MOL0     H26686   3.388   2.130   9.073  1.6097  1.3041  1.2429
  198MOL0     H26687   3.542   2.164   9.156 -0.5164  2.9165 -3.4354
  198MOL0     H26688   3.364   2.109   9.320 -1.1791  0.9707 -2.2217
  198MOL0     H26689   3.479   1.980   9.335 -1.6299  1.3440  2.1417
  198MOL0     H26690   3.130   1.748   9.168 -0.7776 -0.9604  0.8651
  198MOL0     H26691   2.936   1.692   9.262 -0.8047 -0.5339  1.1822
  198MOL0     H26692   2.702   1.682   9.750  1.0667  1.1674 -1.3676
  198MOL0     H26693   2.454   1.658   9.834 -0.1038 -1.3926 -0.9118
  198MOL0     H26694   2.221   1.773   9.543  1.5902  0.5737  0.5538
  198MOL0     H26695   2.193   1.629   9.639  1.0581  0.5501  0.0981
  198MOL0     H26696   1.992   1.769   9.733  0.8629 -1.6531  0.5698
  198MOL0     H26697   2.046   1.892   9.608  0.5313 -0.0514 -0.4768
  198MOL0     H26698   2.008   1.750   9.434  2.2441  1.8681  2.4801
  198MOL0     H26699   1.945   1.614   9.511 -1.8640  0.2923 -1.2241
  198MOL0     H26700   1.834   1.864   9.497 -1.4016 -0.8717  0.4843
  198MOL0     H26701   1.785   1.756   9.633 -0.0299 -0.7644  0.5582
  198MOL0     H26702   1.701   1.593   9.493 -2.3652 -0.4362 -0.7685
  198MOL0     H26703   1.780   1.665   9.347 -0.6260 -5.9154 -0.1599
  198MOL0     H26704   1.623   1.835   9.323 -0.9989 -1.3718 -2.3285
  198MOL0     H26705   1.523   1.694   9.341  1.1800 -0.6493 -1.5862
  198MOL0     H26706   1.598   1.865   9.581  1.7024  1.0913 -1.5983
  198MOL0     H26707   1.453   1.748   9.571 -1.8760  1.0039  0.3384
  198MOL0     H26708   1.333   1.903   9.438  1.7058  0.5689 -2.6253
  198MOL0     H26709   1.394   1.966   9.597 -0.1945 -2.9572  1.2372
  198MOL0     H26710   2.345   1.959   9.552 -2.1022 -2.8921  0.5001
  198MOL0     H26711   2.588   2.005   9.497 -1.5845 -0.4168 -0.1478
  198MOL0     H26712   3.023   1.971   9.593  3.7391  1.6023 -0.1893
  198MOL0     H26713   3.220   2.027   9.492  0.4107  0.8447 -1.7277
  198MOL0     H26714   2.923   1.847   8.862 -1.0469  3.5324  0.6965
  198MOL0     H26715   2.701   1.912   8.912 -1.0441 -0.6318 -0.2980
  198MOL0     H26716   2.373   2.132   8.761  0.1962 -1.1484 -1.0295
  198MOL0     H26717   2.184   2.276   8.834 -0.8684 -0.4849  0.5636
  198MOL0     H26718   1.912   2.324   8.807  4.3866 -0.9147 -1.6332
  198MOL0     H26719   2.014   2.367   8.949 -0.8529  1.6919 -2.2734
  198MOL0     H26720   1.789   2.477   8.996 -1.9374  0.0106 -1.3033
  198MOL0     H26721   1.814   2.332   9.107 -1.4729  1.2818  0.0903
  198MOL0     H26722   1.680   2.203   8.973  0.3987  0.2816 -0.7635
  198MOL0     H26723   1.691   2.309   8.831 -2.0781 -1.2487 -0.8573
  198MOL0     H26724   1.466   2.333   8.936  0.1402  2.4117 -2.0070
  198MOL0     H26725   1.541   2.396   9.090  1.0522 -2.9555  0.2015
  198MOL0     H26726   1.556   2.687   8.758  1.6472 -0.5077 -0.4303
  198MOL0     H26727   1.969   1.930   8.943  0.9902  2.5393  1.2304
  198MOL0     H26728   2.187   1.676   8.911 -1.6200 -0.9270  0.2835
  198MOL0     H26729   2.026   1.721   8.872  0.1434 -1.4584 -0.7933
  198MOL0     H26730   2.141   1.689   8.738  3.2684  2.1893 -1.7502
  199MOL0     O26731   9.473   7.194   0.578  0.1861  0.1344 -0.4013
  199MOL0     C26732   9.539   7.168   0.473 -0.0838  0.1530 -0.3000
  199MOL0     O26733   9.563   7.258   0.372  0.0281 -0.5967  0.4856
  199MOL0     C26734   9.528   7.392   0.384 -0.6087  0.4552 -0.3386
  199MOL0     C26735   9.618   7.491   0.338 -0.2634 -0.0274  0.2822
  199MOL0     C26736   9.579   7.627   0.349  0.3137 -0.3788  0.6869
  199MOL0     C26737   9.451   7.664   0.383 -0.0471 -0.8592  0.2775
  199MOL0     O26738   9.409   7.798   0.386  0.6630  0.1939 -0.2475
  199MOL0     C26739   9.500   7.910   0.407 -0.1610  0.0396  0.8013
  199MOL0     C26740   9.434   8.010   0.505  0.6760  0.6256  0.0182
  199MOL0     C26741   9.490   8.146   0.531 -0.9379 -0.9826 -0.1233
  199MOL0     C26742   9.649   8.167   0.526  0.6724 -0.4295  0.1677
  199MOL0     C26743   9.695   8.317   0.525 -0.2030  0.1945 -0.3361
  199MOL0     C26744   9.846   8.319   0.562  0.6930  0.2635  0.3289
  199MOL0     C26745   9.925   8.264   0.442  0.2354 -0.1724 -0.2184
  199MOL0     C26746  10.074   8.304   0.455  0.0990  0.1712  0.7730
  199MOL0     N26747  10.123   8.292   0.319  0.0462 -0.3501 -0.3386
  199MOL0     C26748  10.163   8.170   0.265 -0.2984  0.1656  0.5420
  199MOL0     C26749  10.191   8.199   0.136  0.3294  0.4577  0.0347
  199MOL0     C26750  10.239   8.123   0.010  0.7692  0.3569  0.1962
  199MOL0     C26751  10.292   7.980   0.040  0.3783 -0.0296  0.3868
  199MOL0     C26752  10.181   7.885   0.084 -0.2205 -0.1732  0.9302
  199MOL0     C26753  10.239   7.741   0.085 -0.0824 -0.3111  0.5573
  199MOL0     O26754  10.352   7.720   0.164  0.3387 -0.0043  0.3301
  199MOL0     C26755  10.402   7.596   0.160 -1.1505 -0.6964 -0.1677
  199MOL0     C26756  10.344   7.481   0.108  0.2493  0.1374  0.6055
  199MOL0     C26757  10.414   7.357   0.127  0.0822 -0.4049  0.3594
  199MOL0     C26758  10.534   7.350   0.193  0.1382 -0.3749 -1.2621
  199MOL0     C26759  10.592   7.222   0.227  0.7940 -0.8323  0.3066
  199MOL0     O26760  10.700   7.236   0.305 -0.1072  0.1586 -0.0742
  199MOL0     C26761  10.748   7.139   0.385  1.4073  1.5008  0.3035
  199MOL0     C26762  10.877   7.157   0.443 -0.9510 -0.2461  0.3448
  199MOL0     C26763  10.934   7.059   0.520  0.4211 -0.3751 -0.1660
  199MOL0     C26764  10.857   6.948   0.565  0.6944 -0.7783 -0.8280
  199MOL0     O26765  10.899   6.872   0.672  1.3164 -0.7000 -0.3822
  199MOL0     C26766  10.992   6.916   0.776  0.2891 -0.0612 -0.0619
  199MOL0     C26767  10.930   6.894   0.917 -0.4933 -0.8240  0.9064
  199MOL0     C26768  11.040   6.897   1.023 -0.2070  0.6563  1.2516
  199MOL0     C26769  11.136   7.018   1.008 -0.3915  0.0220 -0.4455
  199MOL0     C26770  11.067   7.160   1.012  0.3833 -0.3822  0.4974
  199MOL0     C26771  11.155   7.270   0.951 -0.8409 -0.7531  0.5785
  199MOL0     C26772  11.084   7.401   0.909  0.0028  0.4168  0.6682
  199MOL0     C26773  11.004   7.385   0.776 -0.6182  0.9182 -0.0900
  199MOL0    Cl26774  11.125   7.401   0.652  0.6653  0.3655  0.1365
  199MOL0     C26775  10.727   6.927   0.518  0.3740 -0.4352 -0.2796
  199MOL0     C26776  10.681   7.018   0.418  0.2519  0.1306  0.1236
  199MOL0     O26777  10.545   7.110   0.190  0.4401 -0.6386 -0.4738
  199MOL0     C26778  10.587   7.460   0.252  0.7156  0.0222  0.3266
  199MOL0     C26779  10.527   7.582   0.227  0.5518 -0.3821  0.3284
  199MOL0     N26780  10.159   8.333   0.119  0.4949 -0.3291 -0.0641
  199MOL0     N26781  10.121   8.394   0.229  0.1838  0.2221 -0.3258
  199MOL0     C26782   9.354   7.567   0.403  0.2774 -0.7873  0.2081
  199MOL0     C26783   9.397   7.433   0.421 -0.0208 -0.1453 -0.1643
  199MOL0     C26784   9.573   7.025   0.450  0.9784 -0.7428  0.4964
  199MOL0     C26785   9.557   6.983   0.322 -0.5525  0.5984  0.4736
  199MOL0     C26786   9.580   6.846   0.291  0.1203 -0.4449  1.0230
  199MOL0     C26787   9.644   6.754   0.373 -0.6128 -0.7132 -0.0906
  199MOL0     O26788   9.681   6.628   0.334  0.1951 -0.7101  0.4168
  199MOL0     C26789   9.617   6.577   0.214 -0.1415  0.2170 -0.7205
  199MOL0     C26790   9.674   6.448   0.170 -0.5961  0.3923  0.2748
  199MOL0     C26791   9.631   6.333   0.265 -0.8437  0.6936 -0.5455
  199MOL0     C26792   9.593   6.204   0.188  0.5258 -0.4211  0.3225
  199MOL0     C26793   9.718   6.142   0.133  0.1426 -0.2657  1.0090
  199MOL0     C26794   9.813   6.080   0.083 -0.1172  0.1126 -0.6469
  199MOL0     C26795   9.668   6.807   0.501 -0.4256 -0.1688  0.3144
  199MOL0     C26796   9.628   6.935   0.540 -0.0074  0.4099 -0.2431
  199MOL0     C26797   9.632   6.965   0.681  0.1707  0.7330  0.6553
  199MOL0     H26798   9.721   7.464   0.315  0.0330 -0.0053  1.5204
  199MOL0     H26799   9.644   7.713   0.345 -0.2147 -0.0098 -3.0447
  199MOL0     H26800   9.598   7.885   0.448  2.5564  3.3676 -2.8617
  199MOL0     H26801   9.530   7.953   0.311  0.6936 -1.4138  0.3897
  199MOL0     H26802   9.439   7.957   0.601 -2.0541 -1.3923 -0.8347
  199MOL0     H26803   9.327   8.026   0.489 -0.1695 -3.8296 -0.0153
  199MOL0     H26804   9.471   8.180   0.633  0.9243  1.0480 -0.3810
  199MOL0     H26805   9.431   8.217   0.472 -2.2525 -2.3904 -0.5682
  199MOL0     H26806   9.696   8.092   0.590 -2.5999 -2.3935  0.5214
  199MOL0     H26807   9.685   8.125   0.432 -0.7305 -0.4234 -0.4076
  199MOL0     H26808   9.679   8.345   0.421 -0.0199  3.1157  0.3333
  199MOL0     H26809   9.630   8.384   0.583 -0.6664  1.6093 -2.3740
  199MOL0     H26810   9.887   8.417   0.588 -0.7852  1.0100 -0.0512
  199MOL0     H26811   9.865   8.263   0.654  1.4286  3.0153  1.9715
  199MOL0     H26812   9.879   8.298   0.348  0.6616 -1.6252 -0.9870
  199MOL0     H26813   9.918   8.155   0.444 -1.3479 -0.1192 -1.0677
  199MOL0     H26814  10.082   8.406   0.494 -2.4818  0.5213  0.5715
  199MOL0     H26815  10.116   8.224   0.517  1.0674  0.0990  0.0418
  199MOL0     H26816  10.173   8.070   0.306 -0.6534  1.0915  3.0859
  199MOL0     H26817  10.153   8.119  -0.057  0.5031 -3.1128  0.5629
  199MOL0     H26818  10.315   8.175  -0.050 -0.0707  0.8511 -0.4622
  199MOL0     H26819  10.335   7.935  -0.050 -2.2031  0.3965 -1.1682
  199MOL0     H26820  10.371   7.987   0.115 -0.8946  2.8174  1.5902
  199MOL0     H26821  10.100   7.891   0.011  0.7244 -0.0972 -0.1261
  199MOL0     H26822  10.148   7.898   0.188  3.0961 -1.9286  2.3648
  199MOL0     H26823  10.259   7.710  -0.017  3.2158  1.9673  0.3607
  199MOL0     H26824  10.152   7.684   0.120 -2.1866  1.3825 -1.6293
  199MOL0     H26825  10.248   7.471   0.059  2.0266  1.7882 -3.6887
  199MOL0     H26826  10.362   7.266   0.097 -0.0575 -2.0774  4.9003
  199MOL0     H26827  10.933   7.243   0.408 -0.6698  0.0322  1.4250
  199MOL0     H26828  11.032   7.072   0.564  0.2443  2.0341 -0.3180
  199MOL0     H26829  11.085   6.860   0.768 -1.3414 -2.8540 -0.9432
  199MOL0     H26830  11.019   7.020   0.757  1.8250 -0.8075 -2.3845
  199MOL0     H26831  10.846   6.964   0.928 -1.0625 -1.3304 -0.0622
  199MOL0     H26832  10.887   6.795   0.933  0.5633 -1.1389  1.9700
  199MOL0     H26833  10.993   6.904   1.121 -1.3622 -1.5062  0.9174
  199MOL0     H26834  11.108   6.812   1.012 -2.5484 -1.4018  2.0286
  199MOL0     H26835  11.182   6.990   0.913 -1.8321  1.5076 -1.6460
  199MOL0     H26836  11.206   7.020   1.092 -2.8555  0.1434  1.7283
  199MOL0     H26837  11.055   7.191   1.117 -1.7230 -0.0448  0.2066
  199MOL0     H26838  10.971   7.151   0.960  2.1473 -1.3977 -2.8364
  199MOL0     H26839  11.234   7.292   1.023 -0.9512 -0.3274  0.5734
  199MOL0     H26840  11.212   7.231   0.865  0.3051  0.7856  0.5877
  199MOL0     H26841  11.151   7.487   0.914 -1.9889  2.0062  1.7523
  199MOL0     H26842  11.018   7.428   0.993  0.7549  0.2531  1.3247
  199MOL0     H26843  10.967   7.284   0.757  2.0268  0.2630 -2.3404
  199MOL0     H26844  10.929   7.463   0.756 -0.1667  1.4580  0.2601
  199MOL0     H26845  10.675   6.840   0.555  0.3099 -0.6974 -0.9799
  199MOL0     H26846  10.576   7.000   0.396 -0.3728  2.0549  1.2842
  199MOL0     H26847  10.679   7.458   0.309  1.2370  0.9046 -0.4456
  199MOL0     H26848  10.569   7.679   0.249 -0.3322  0.9345 -3.1081
  199MOL0     H26849   9.255   7.610   0.417  1.3598  2.7705 -1.8504
  199MOL0     H26850   9.325   7.356   0.447  1.9785 -3.0774 -2.6343
  199MOL0     H26851   9.511   7.055   0.255 -0.8506  1.0293  1.1393
  199MOL0     H26852   9.548   6.817   0.192 -3.2651  0.4514  1.7161
  199MOL0     H26853   9.653   6.639   0.132 -1.1053 -0.0267 -1.3322
  199MOL0     H26854   9.508   6.587   0.219 -0.0323  1.0356  0.9977
  199MOL0     H26855   9.782   6.450   0.157 -0.8675  0.7931 -2.5130
  199MOL0     H26856   9.631   6.420   0.073 -2.3581 -0.4545  1.2343
  199MOL0     H26857   9.550   6.362   0.333 -0.2934 -3.0528  2.0113
  199MOL0     H26858   9.707   6.311   0.341 -2.7393  0.8931  1.5187
  199MOL0     H26859   9.536   6.138   0.255 -0.1183 -0.1964  0.0111
  199MOL0     H26860   9.531   6.223   0.100 -0.5983 -2.2450  0.6644
  199MOL0     H26861   9.902   6.050   0.031  0.0360  1.5167 -1.2311
  199MOL0     H26862   9.708   6.740   0.576 -1.8334 -1.4237  0.0039
  199MOL0     H26863   9.706   6.904   0.733 -0.3758 -0.1467  0.4196
  199MOL0     H26864   9.651   7.070   0.703  0.5877  1.1945 -1.6333
  199MOL0     H26865   9.529   6.952   0.715 -0.7092 -0.6348 -2.2381
  200MOL0     O26866   9.213   4.427   1.996  0.3195  0.0900 -0.2789
  200MOL0     C26867   9.238   4.518   2.078 -0.3248  0.1096 -0.5402
  200MOL0     O26868   9.197   4.641   2.070 -0.2932 -0.0971  0.9205
  200MOL0     C26869   9.117   4.682   1.968 -0.7394  0.8837  0.3717
  200MOL0     C26870   8.986   4.701   2.000 -0.1837  1.2673 -0.1622
  200MOL0     C26871   8.892   4.723   1.898 -0.2768 -1.3961 -0.4741
  200MOL0     C26872   8.930   4.721   1.765  0.3836  0.2371 -0.0639
  200MOL0     O26873   8.833   4.756   1.673  0.0546  0.3188 -0.3453
  200MOL0     C26874   8.874   4.826   1.558 -1.3277  1.1800  1.0894
  200MOL0     C26875   8.755   4.871   1.474  0.7660 -0.4896  0.0846
  200MOL0     C26876   8.704   5.004   1.525 -1.2045  0.1023  1.0418
  200MOL0     C26877   8.595   5.058   1.435 -0.1510  1.0541 -1.0888
  200MOL0     C26878   8.523   5.182   1.483  0.2387 -1.6431 -0.5213
  200MOL0     C26879   8.622   5.303   1.501  1.0589  0.4824  0.0611
  200MOL0     C26880   8.550   5.440   1.487  0.9344  0.3806 -0.4367
  200MOL0     C26881   8.626   5.559   1.533 -0.4920 -0.5019 -0.4947
  200MOL0     N26882   8.545   5.684   1.520  0.5853  0.6262 -0.7503
  200MOL0     C26883   8.428   5.716   1.584 -0.4468 -0.0020  1.3066
  200MOL0     C26884   8.376   5.830   1.528 -1.0641  0.8523 -0.6634
  200MOL0     C26885   8.246   5.903   1.556  0.2480  0.3045  0.8753
  200MOL0     C26886   8.116   5.834   1.497  0.0312 -0.1198 -1.0320
  200MOL0     C26887   8.097   5.887   1.354  0.0930 -0.7752 -0.0208
  200MOL0     C26888   7.975   5.819   1.301 -0.1830 -0.3003  0.3063
  200MOL0     O26889   7.861   5.890   1.360  0.0541  0.2260 -0.1302
  200MOL0     C26890   7.742   5.846   1.315 -0.8636  0.7091  1.2256
  200MOL0     C26891   7.639   5.930   1.318  0.0909 -0.3144 -0.8464
  200MOL0     C26892   7.513   5.896   1.269  0.0456 -0.1449  0.2560
  200MOL0     C26893   7.473   5.773   1.234  0.4436  0.7704 -0.3150
  200MOL0     C26894   7.338   5.729   1.194  0.1308  0.3238 -0.0029
  200MOL0     O26895   7.300   5.608   1.229 -0.7891  0.2274  0.4135
  200MOL0     C26896   7.178   5.559   1.195  0.6813 -0.8695 -0.2973
  200MOL0     C26897   7.167   5.484   1.079 -0.5336 -1.1554 -0.3465
  200MOL0     C26898   7.042   5.450   1.022 -0.8874  0.5849 -0.7667
  200MOL0     C26899   6.929   5.489   1.085 -0.1372  0.7988  0.2306
  200MOL0     O26900   6.814   5.456   1.011 -0.4619 -1.3566  0.6573
  200MOL0     C26901   6.686   5.494   1.067 -0.0196 -0.1843  0.4172
  200MOL0     C26902   6.585   5.508   0.950  0.5221  1.4145 -0.1936
  200MOL0     C26903   6.437   5.484   0.992 -0.6370 -0.0557 -0.6280
  200MOL0     C26904   6.399   5.343   1.025  0.4872 -0.3362 -0.8397
  200MOL0     C26905   6.342   5.338   1.168  0.6477  0.3936  0.4976
  200MOL0     C26906   6.310   5.180   1.202 -0.6832 -0.1688 -0.0593
  200MOL0     C26907   6.213   5.147   1.320 -0.6661 -1.3784 -0.1288
  200MOL0     C26908   6.295   5.124   1.443 -0.2241 -0.7610 -0.3927
  200MOL0    Cl26909   6.202   5.082   1.594  0.6178 -0.0111 -0.3778
  200MOL0     C26910   6.939   5.558   1.212 -0.0001 -0.4098 -0.3145
  200MOL0     C26911   7.060   5.590   1.261 -0.5939 -0.1725 -0.4211
  200MOL0     O26912   7.266   5.808   1.132  0.0253  0.4177  0.8257
  200MOL0     C26913   7.578   5.681   1.234 -0.9191 -0.1371  0.3637
  200MOL0     C26914   7.712   5.717   1.272 -0.3441 -0.5136 -0.1089
  200MOL0     N26915   8.474   5.867   1.433  1.3839 -0.3907  0.5226
  200MOL0     N26916   8.577   5.790   1.438  0.3166  0.0234 -0.0007
  200MOL0     C26917   9.070   4.723   1.733 -0.1387 -0.4116 -0.3512
  200MOL0     C26918   9.162   4.700   1.841 -0.4369 -0.2455  0.3475
  200MOL0     C26919   9.316   4.469   2.205  0.5245  0.1085  1.2820
  200MOL0     C26920   9.297   4.339   2.247 -0.9171  1.2662 -0.1260
  200MOL0     C26921   9.383   4.288   2.336 -0.7986 -0.6154 -0.6966
  200MOL0     C26922   9.480   4.363   2.401 -0.9810 -0.2454  0.4274
  200MOL0     O26923   9.552   4.312   2.511  0.3790 -0.9108 -0.1222
  200MOL0     C26924   9.695   4.309   2.491  0.9506 -0.2527 -1.1159
  200MOL0     C26925   9.748   4.227   2.376  0.0691 -0.0663 -0.2495
  200MOL0     C26926   9.713   4.082   2.386 -1.0051  0.6095  0.8556
  200MOL0     C26927   9.777   3.988   2.284 -0.1165 -0.2724 -0.2749
  200MOL0     C26928   9.713   4.004   2.158 -0.5087  1.6797 -0.1185
  200MOL0     C26929   9.662   4.005   2.045  0.9560 -1.0947 -0.4311
  200MOL0     C26930   9.483   4.503   2.373 -0.0259  0.2105  0.8494
  200MOL0     C26931   9.414   4.546   2.268  1.4001 -0.6878 -0.3944
  200MOL0     C26932   9.427   4.695   2.228 -1.1894 -0.1055  0.1370
  200MOL0     H26933   8.952   4.700   2.103  2.2729 -1.0772  0.7190
  200MOL0     H26934   8.789   4.714   1.931  0.6139 -2.7459  2.2611
  200MOL0     H26935   8.944   4.906   1.583 -1.4219  1.2790  1.0373
  200MOL0     H26936   8.926   4.748   1.502 -0.7715  0.7457  2.1864
  200MOL0     H26937   8.670   4.804   1.487  1.3953 -0.9894  2.0120
  200MOL0     H26938   8.779   4.882   1.368  0.4317 -0.4789  0.0112
  200MOL0     H26939   8.787   5.074   1.510  1.3579 -3.1603 -1.3405
  200MOL0     H26940   8.671   5.009   1.629  1.1748  1.7241  1.8046
  200MOL0     H26941   8.638   5.079   1.337  1.1487  0.8996 -0.5762
  200MOL0     H26942   8.513   4.987   1.419 -0.3817  1.1526 -0.3842
  200MOL0     H26943   8.448   5.213   1.411  0.8259  0.6192 -0.2630
  200MOL0     H26944   8.483   5.163   1.583 -1.4094 -2.3161 -1.2727
  200MOL0     H26945   8.677   5.308   1.596  2.7706  2.1663 -0.9574
  200MOL0     H26946   8.698   5.299   1.423  3.3447  5.7937  1.5446
  200MOL0     H26947   8.458   5.434   1.545  2.0489 -0.4157  1.3291
  200MOL0     H26948   8.524   5.474   1.386  1.6463 -0.0964 -0.7908
  200MOL0     H26949   8.673   5.538   1.630 -0.7504  1.1018  0.0044
  200MOL0     H26950   8.704   5.573   1.458  0.5779 -1.8728  0.3021
  200MOL0     H26951   8.389   5.641   1.653  2.4162 -4.4158 -1.3844
  200MOL0     H26952   8.224   5.929   1.660 -3.8147 -1.0518  0.5467
  200MOL0     H26953   8.250   6.001   1.508 -2.8602  0.3196  0.4434
  200MOL0     H26954   8.122   5.725   1.493 -0.8770 -0.1582 -1.6020
  200MOL0     H26955   8.029   5.851   1.561 -0.6134 -0.9633 -1.6586
  200MOL0     H26956   8.184   5.859   1.293 -0.7268  0.2415 -1.7290
  200MOL0     H26957   8.087   5.996   1.362  0.6099 -0.8523  2.5889
  200MOL0     H26958   7.989   5.715   1.332  2.3033 -1.0449 -2.7509
  200MOL0     H26959   7.983   5.817   1.192 -0.3596 -0.8256  0.2961
  200MOL0     H26960   7.666   6.032   1.344  2.5768 -1.5612  2.1675
  200MOL0     H26961   7.441   5.977   1.262 -2.9086 -2.5974  0.2832
  200MOL0     H26962   7.260   5.449   1.035 -0.2183  0.9223 -1.4499
  200MOL0     H26963   7.027   5.393   0.931 -5.3588 -0.2624  0.2251
  200MOL0     H26964   6.645   5.414   1.129 -1.5785 -0.7081 -1.2188
  200MOL0     H26965   6.681   5.575   1.140 -1.9028  0.6677 -0.5882
  200MOL0     H26966   6.590   5.602   0.895 -2.4363  1.2218 -0.9501
  200MOL0     H26967   6.610   5.430   0.877  0.0373  1.2135 -0.1506
  200MOL0     H26968   6.396   5.566   1.051 -1.0105 -0.3756 -0.4430
  200MOL0     H26969   6.386   5.505   0.898 -2.1787  2.4227  0.6690
  200MOL0     H26970   6.481   5.272   1.026  0.8781 -0.0019  2.4306
  200MOL0     H26971   6.315   5.325   0.957  0.3800  1.5617 -1.2645
  200MOL0     H26972   6.249   5.397   1.162  0.3206 -0.2280 -2.3112
  200MOL0     H26973   6.415   5.382   1.236  2.5167  0.9832 -1.7737
  200MOL0     H26974   6.260   5.133   1.117 -3.4418  3.3276 -0.6339
  200MOL0     H26975   6.402   5.127   1.223 -0.7697  0.9802  4.0924
  200MOL0     H26976   6.155   5.057   1.298 -1.2582 -0.8835 -0.6339
  200MOL0     H26977   6.149   5.232   1.347 -0.8192 -1.4213 -0.3536
  200MOL0     H26978   6.367   5.046   1.418 -0.5773 -0.0206 -4.4693
  200MOL0     H26979   6.359   5.211   1.459 -0.5037 -0.7110  0.5046
  200MOL0     H26980   6.848   5.572   1.270 -2.1484 -2.6298 -2.8394
  200MOL0     H26981   7.062   5.637   1.359  0.2523 -1.2779  0.1203
  200MOL0     H26982   7.545   5.580   1.217 -1.8891  0.2735 -0.3033
  200MOL0     H26983   7.787   5.638   1.272  0.5257  0.2836 -1.3082
  200MOL0     H26984   9.113   4.730   1.633 -1.5642  0.4884 -0.9374
  200MOL0     H26985   9.268   4.699   1.818 -1.0484 -0.6097 -2.9537
  200MOL0     H26986   9.222   4.278   2.197  0.7776 -0.7542 -0.3406
  200MOL0     H26987   9.374   4.183   2.363 -1.1088 -0.2527  0.6938
  200MOL0     H26988   9.736   4.283   2.589 -0.9968  0.1772 -0.1498
  200MOL0     H26989   9.732   4.411   2.472 -1.0049  0.4467 -1.4086
  200MOL0     H26990   9.854   4.244   2.355 -0.1415 -0.8882 -2.1225
  200MOL0     H26991   9.703   4.269   2.286  0.9069 -2.1554 -1.7022
  200MOL0     H26992   9.606   4.077   2.365 -0.9810  0.1051  0.8374
  200MOL0     H26993   9.730   4.049   2.488 -0.4596  1.9197  1.2079
  200MOL0     H26994   9.881   4.020   2.272 -0.5409  1.9454  1.2708
  200MOL0     H26995   9.763   3.881   2.298 -2.4794  0.1464  1.0162
  200MOL0     H26996   9.615   4.010   1.949  1.6460  1.6234 -0.7323
  200MOL0     H26997   9.531   4.573   2.441 -1.0440  2.9938 -1.1219
  200MOL0     H26998   9.436   4.701   2.119  1.0217 -5.4770 -0.2397
  200MOL0     H26999   9.352   4.764   2.269  1.4101  1.2917  2.8750
  200MOL0     H27000   9.520   4.737   2.266 -1.8873  3.9026 -1.9405
  201MOL0     O27001   5.929   2.198   5.594 -0.2743 -0.4416  0.1093
  201MOL0     C27002   6.019   2.285   5.607  0.5316 -0.4282 -1.1349
  201MOL0     O27003   6.150   2.279   5.582  0.5340 -0.2640  0.2403
  201MOL0     C27004   6.176   2.164   5.501 -0.0458 -0.6003  0.6005
  201MOL0     C27005   6.232   2.046   5.553 -0.3691 -0.6518 -0.5044
  201MOL0     C27006   6.265   1.932   5.471 -0.2041 -0.7949 -0.8021
  201MOL0     C27007   6.228   1.940   5.345 -0.2805 -0.6618  0.8386
  201MOL0     O27008   6.256   1.831   5.273 -0.2163 -0.1236  0.2159
  201MOL0     C27009   6.387   1.814   5.222 -1.2967  0.6913  0.4426
  201MOL0     C27010   6.443   1.674   5.264  0.1304  0.4769  0.5296
  201MOL0     C27011   6.499   1.598   5.142 -0.9473 -0.5594  0.6263
  201MOL0     C27012   6.632   1.648   5.073 -0.6378 -0.2395  0.7091
  201MOL0     C27013   6.757   1.598   5.143  0.6603  0.5488 -0.0740
  201MOL0     C27014   6.882   1.645   5.071  0.0360 -0.8134  1.1332
  201MOL0     C27015   6.906   1.793   5.054 -0.1537  0.6819 -0.2976
  201MOL0     C27016   6.898   1.877   5.185  1.1935 -0.7264 -1.1986
  201MOL0     N27017   6.974   1.823   5.297 -0.4565 -0.0199 -0.2311
  201MOL0     C27018   7.113   1.828   5.311  0.1417 -0.2034 -0.0974
  201MOL0     C27019   7.140   1.809   5.440  0.3153 -0.0556 -0.4730
  201MOL0     C27020   7.275   1.760   5.499  0.7814 -0.0533 -0.3154
  201MOL0     C27021   7.316   1.851   5.622  0.4769 -0.9572 -0.1363
  201MOL0     C27022   7.389   1.760   5.703 -0.0913  0.0589 -0.6571
  201MOL0     C27023   7.472   1.843   5.814 -0.5912  0.2118  0.0055
  201MOL0     O27024   7.574   1.756   5.873 -0.0313 -0.4101 -0.6375
  201MOL0     C27025   7.628   1.805   5.984  0.4239 -1.2962 -0.5183
  201MOL0     C27026   7.712   1.912   5.977 -0.0134 -0.0964 -0.3405
  201MOL0     C27027   7.758   1.957   6.098 -0.1679 -0.7989  0.9475
  201MOL0     C27028   7.717   1.919   6.219  0.5270 -0.0018  1.4024
  201MOL0     C27029   7.765   1.968   6.351 -0.1361 -1.0002 -0.0274
  201MOL0     O27030   7.889   2.035   6.343 -0.0508  0.1774 -0.3145
  201MOL0     C27031   7.952   2.049   6.464 -0.8686 -1.2200  0.6997
  201MOL0     C27032   7.997   1.928   6.527  0.4037 -0.4143  0.4414
  201MOL0     C27033   8.074   1.932   6.646  0.6355 -0.5902 -0.1124
  201MOL0     C27034   8.095   2.054   6.706 -0.4149 -0.7362  0.8156
  201MOL0     O27035   8.150   2.069   6.827 -0.1329  0.0082 -0.4090
  201MOL0     C27036   8.271   2.141   6.831 -0.1509  0.3886 -1.2283
  201MOL0     C27037   8.376   2.047   6.877  0.2323  0.3011 -0.9822
  201MOL0     C27038   8.353   2.020   7.027 -0.4304 -0.1785 -0.4365
  201MOL0     C27039   8.470   1.931   7.074  0.0420 -0.2134  0.1731
  201MOL0     C27040   8.477   1.935   7.226 -0.2290  0.3520 -0.0346
  201MOL0     C27041   8.351   1.864   7.281  0.3671 -0.6374 -0.5881
  201MOL0     C27042   8.312   1.723   7.253  0.1816  0.6421  0.5197
  201MOL0     C27043   8.415   1.623   7.312 -0.4706 -1.0536 -0.8821
  201MOL0    Cl27044   8.333   1.467   7.308  0.0204  0.2714 -0.4241
  201MOL0     C27045   8.054   2.170   6.638  0.0312  0.2569 -0.3526
  201MOL0     C27046   7.984   2.171   6.517 -0.2446 -0.2091  1.0295
  201MOL0     O27047   7.699   1.930   6.453 -0.4148 -0.1036 -0.3339
  201MOL0     C27048   7.620   1.821   6.220  0.8523  0.4770  0.3466
  201MOL0     C27049   7.571   1.762   6.099 -1.1159  0.3854  0.8438
  201MOL0     N27050   7.021   1.805   5.513 -0.0109  0.3045 -0.1456
  201MOL0     N27051   6.919   1.803   5.423 -0.2020  0.2363 -0.4313
  201MOL0     C27052   6.171   2.055   5.283 -0.2057 -0.5741 -0.7080
  201MOL0     C27053   6.145   2.165   5.360 -0.2944 -0.9822  0.0529
  201MOL0     C27054   5.978   2.418   5.649 -0.4485 -0.4477 -0.0305
  201MOL0     C27055   5.888   2.422   5.757 -0.0023 -1.0431 -0.4295
  201MOL0     C27056   5.850   2.547   5.805 -0.3168  0.3107 -0.1302
  201MOL0     C27057   5.886   2.667   5.753  0.4487  0.6078  0.0314
  201MOL0     O27058   5.837   2.786   5.790 -0.0397 -0.5829  0.7116
  201MOL0     C27059   5.748   2.792   5.900 -0.0015  0.3135  0.5850
  201MOL0     C27060   5.705   2.936   5.933  0.0810  0.0482 -0.2819
  201MOL0     C27061   5.815   2.998   6.026 -0.2902  0.3909  0.3171
  201MOL0     C27062   5.778   3.142   6.050  0.2705  1.0205  1.1697
  201MOL0     C27063   5.658   3.157   6.139 -0.9491  0.2082  0.2777
  201MOL0     C27064   5.585   3.193   6.226  0.3287  0.1100  0.8467
  201MOL0     C27065   5.976   2.666   5.644  0.0426  0.2740 -0.9731
  201MOL0     C27066   6.029   2.539   5.598 -0.7759 -0.8576 -0.4529
  201MOL0     C27067   6.131   2.550   5.482 -1.0368  0.4095  0.4642
  201MOL0     H27068   6.250   2.041   5.660 -0.4118 -5.6390 -0.5219
  201MOL0     H27069   6.305   1.842   5.518 -0.0048  0.4204  1.4726
  201MOL0     H27070   6.370   1.827   5.114  0.8376 -0.1261 -0.0487
  201MOL0     H27071   6.463   1.889   5.247  1.0987 -1.6573  0.6227
  201MOL0     H27072   6.366   1.605   5.299 -2.8584  3.7347  0.8667
  201MOL0     H27073   6.527   1.677   5.334  0.2210  2.9868  0.3755
  201MOL0     H27074   6.422   1.602   5.065 -1.7321  1.9345  1.4409
  201MOL0     H27075   6.514   1.496   5.179 -0.4085 -0.4375  0.7489
  201MOL0     H27076   6.632   1.634   4.964 -1.6832  1.0681  0.5261
  201MOL0     H27077   6.622   1.756   5.088 -0.0169  0.1784 -1.4754
  201MOL0     H27078   6.755   1.625   5.249  1.9181 -4.2774  1.4143
  201MOL0     H27079   6.753   1.489   5.151  1.1386  0.2968 -2.6223
  201MOL0     H27080   6.959   1.603   5.136 -0.3981 -0.5106  1.8611
  201MOL0     H27081   6.880   1.604   4.970 -2.7245  0.3791  0.6123
  201MOL0     H27082   6.837   1.839   4.982 -1.2631 -0.1751  0.1953
  201MOL0     H27083   7.009   1.790   5.018  0.0951 -1.0278  0.4438
  201MOL0     H27084   6.940   1.978   5.176  1.5470 -0.6107  1.2078
  201MOL0     H27085   6.794   1.890   5.215  1.2175 -0.6168 -1.1616
  201MOL0     H27086   7.180   1.835   5.226  1.9752 -2.4729  1.0378
  201MOL0     H27087   7.263   1.656   5.528  0.2796 -0.4741 -1.9340
  201MOL0     H27088   7.346   1.768   5.416 -2.4979  1.9792 -3.2381
  201MOL0     H27089   7.395   1.911   5.576  1.1074 -2.5235 -1.1811
  201MOL0     H27090   7.243   1.903   5.684 -1.2384 -0.1541 -2.6767
  201MOL0     H27091   7.466   1.707   5.647 -0.1376 -0.8938  0.1537
  201MOL0     H27092   7.320   1.689   5.750  0.1044 -0.5761 -1.3063
  201MOL0     H27093   7.399   1.865   5.892 -1.3754 -1.2163 -0.2815
  201MOL0     H27094   7.518   1.931   5.767 -3.4059  0.0833 -3.3928
  201MOL0     H27095   7.756   1.943   5.883  0.9449 -2.5752 -0.7756
  201MOL0     H27096   7.841   2.026   6.091 -0.1565 -0.9484 -1.3127
  201MOL0     H27097   7.956   1.835   6.487  1.1410 -0.9904  0.9813
  201MOL0     H27098   8.110   1.842   6.696  0.3464 -2.1138 -2.4680
  201MOL0     H27099   8.293   2.179   6.731  6.5033  2.0796  0.4347
  201MOL0     H27100   8.273   2.220   6.906 -0.9510 -0.8190  0.1189
  201MOL0     H27101   8.368   1.948   6.831  0.1725 -1.1134  1.9084
  201MOL0     H27102   8.469   2.098   6.846 -0.6635  1.2528 -2.2372
  201MOL0     H27103   8.360   2.105   7.095  0.9557  0.5746 -1.4536
  201MOL0     H27104   8.253   1.976   7.028 -0.6028  0.1577 -1.4980
  201MOL0     H27105   8.558   1.969   7.020 -1.1389  2.2227 -0.1915
  201MOL0     H27106   8.454   1.832   7.031 -1.7036  1.0732 -2.3748
  201MOL0     H27107   8.487   2.037   7.266  0.8161  0.4529 -0.5347
  201MOL0     H27108   8.563   1.881   7.265  0.3484  2.1117  1.2997
  201MOL0     H27109   8.370   1.871   7.389 -2.3273 -0.3498 -0.0576
  201MOL0     H27110   8.263   1.923   7.254 -1.1512 -0.8720  3.2256
  201MOL0     H27111   8.289   1.711   7.147  0.5438  0.4274  0.4637
  201MOL0     H27112   8.219   1.704   7.306 -0.0607 -0.1394 -0.1616
  201MOL0     H27113   8.498   1.619   7.242 -0.2556 -1.2437 -0.6175
  201MOL0     H27114   8.440   1.651   7.415  0.2360 -3.2612 -0.4161
  201MOL0     H27115   8.077   2.261   6.693  1.3268 -0.7538  0.8417
  201MOL0     H27116   7.954   2.261   6.463  0.1679 -0.9719 -0.5346
  201MOL0     H27117   7.563   1.798   6.310 -1.8249  0.2710 -1.2837
  201MOL0     H27118   7.493   1.690   6.077 -0.1908 -0.4770  0.3138
  201MOL0     H27119   6.142   2.058   5.178 -0.0556  1.2193 -0.7375
  201MOL0     H27120   6.097   2.246   5.306 -0.3920 -1.2209 -0.2188
  201MOL0     H27121   5.844   2.329   5.792 -3.0262  0.2555 -0.4198
  201MOL0     H27122   5.778   2.536   5.886  0.6134 -2.1047  0.4601
  201MOL0     H27123   5.781   2.737   5.989  1.1764 -0.0831 -0.0835
  201MOL0     H27124   5.653   2.753   5.863 -0.3334  0.8566  0.8471
  201MOL0     H27125   5.605   2.933   5.977  1.1487 -1.8965  2.2015
  201MOL0     H27126   5.679   2.981   5.836 -0.2348  1.1173  0.2787
  201MOL0     H27127   5.913   2.978   5.981 -0.8573 -4.1270  0.5904
  201MOL0     H27128   5.810   2.933   6.114 -1.5346 -1.3277 -0.9492
  201MOL0     H27129   5.862   3.187   6.103  1.3342  1.3979 -0.7478
  201MOL0     H27130   5.760   3.196   5.956  0.3174  0.1123  0.6277
  201MOL0     H27131   5.497   3.223   6.280 -0.0928  0.7426 -0.1495
  201MOL0     H27132   6.006   2.766   5.615 -1.1055  1.1973  0.8323
  201MOL0     H27133   6.230   2.513   5.512 -0.9442  0.9810  0.8729
  201MOL0     H27134   6.105   2.491   5.394  2.1301  0.1502 -0.4199
  201MOL0     H27135   6.141   2.656   5.456  0.4157  0.0114 -0.6843
  202MOL0     O27136   6.657   4.419   7.468  0.3757  0.1252 -0.0888
  202MOL0     C27137   6.609   4.363   7.571 -0.5297  0.1262 -0.0640
  202MOL0     O27138   6.488   4.307   7.576 -0.4825  1.3086 -0.3952
  202MOL0     C27139   6.419   4.297   7.465  0.2710 -0.1246  0.2668
  202MOL0     C27140   6.434   4.188   7.383  0.9443  0.1580  0.9685
  202MOL0     C27141   6.370   4.187   7.255  0.4342  1.3821  0.2425
  202MOL0     C27142   6.274   4.292   7.224 -0.7002  0.9370 -0.5913
  202MOL0     O27143   6.194   4.293   7.119  0.6080 -0.2577  0.1151
  202MOL0     C27144   6.205   4.187   7.020 -0.4326 -0.5560 -0.3536
  202MOL0     C27145   6.087   4.198   6.926 -0.9563  0.0518  0.3143
  202MOL0     C27146   6.097   4.083   6.818  0.3695  0.3624 -0.0717
  202MOL0     C27147   6.037   3.951   6.882  0.5044  0.3656  0.0895
  202MOL0     C27148   5.915   3.892   6.811 -0.8473 -0.0547 -0.0264
  202MOL0     C27149   5.868   3.758   6.854  0.1904  0.5066 -0.6688
  202MOL0     C27150   5.757   3.711   6.769  0.3526  0.4641  0.2982
  202MOL0     C27151   5.700   3.581   6.816  0.0807 -0.6163 -0.5724
  202MOL0     N27152   5.786   3.464   6.775  1.2675 -1.3467  0.3257
  202MOL0     C27153   5.821   3.432   6.647 -0.1314  0.4896 -0.0993
  202MOL0     C27154   5.901   3.321   6.661  0.5934  0.2257  0.4007
  202MOL0     C27155   5.963   3.264   6.530 -0.1622 -0.5860 -0.3488
  202MOL0     C27156   5.952   3.113   6.534 -0.2200  0.6723  0.2898
  202MOL0     C27157   6.054   3.052   6.438 -0.5834 -0.0643  0.7728
  202MOL0     C27158   6.031   2.902   6.448  0.2562 -0.1633 -0.0242
  202MOL0     O27159   6.081   2.835   6.335 -0.2712  0.2815  0.2345
  202MOL0     C27160   6.018   2.713   6.306  0.0601  0.8045 -0.4298
  202MOL0     C27161   6.041   2.653   6.182  0.1129 -0.6327  0.4439
  202MOL0     C27162   5.967   2.539   6.144 -0.6986 -0.7038 -0.0238
  202MOL0     C27163   5.896   2.468   6.238 -0.9005  0.5147 -0.1743
  202MOL0     C27164   5.832   2.343   6.203  0.1094 -0.8023  0.7811
  202MOL0     O27165   5.899   2.260   6.118  0.1535  0.8079  0.5674
  202MOL0     C27166   5.818   2.164   6.048 -0.4496  0.3182 -0.3303
  202MOL0     C27167   5.871   2.036   6.039  0.3810 -0.0723  0.6646
  202MOL0     C27168   5.807   1.934   5.966 -0.5555  0.6204  0.1544
  202MOL0     C27169   5.679   1.947   5.909 -0.0512 -0.8199  0.8118
  202MOL0     O27170   5.625   1.840   5.848  0.4918  0.4213  0.2625
  202MOL0     C27171   5.487   1.840   5.808 -0.5331  0.4855 -0.2337
  202MOL0     C27172   5.445   1.702   5.750  0.2032  0.5970 -0.4284
  202MOL0     C27173   5.511   1.673   5.609  0.9880  0.0717  0.6662
  202MOL0     C27174   5.458   1.534   5.565 -0.8019 -0.4194 -0.5651
  202MOL0     C27175   5.503   1.506   5.424  0.2036 -0.0745 -0.2775
  202MOL0     C27176   5.442   1.377   5.362 -0.3187  0.2917  0.4267
  202MOL0     C27177   5.489   1.242   5.425  1.3388  0.2969  0.2542
  202MOL0     C27178   5.400   1.130   5.364 -0.2170  0.5861  0.8620
  202MOL0    Cl27179   5.459   1.084   5.203 -0.1772 -0.3658 -0.7424
  202MOL0     C27180   5.634   2.081   5.912 -0.1035 -0.0321 -0.5027
  202MOL0     C27181   5.689   2.183   5.994  0.3858 -0.5161 -0.2753
  202MOL0     O27182   5.716   2.335   6.238  0.8240 -0.1703 -0.6972
  202MOL0     C27183   5.883   2.517   6.370 -0.2165  1.1784  0.5044
  202MOL0     C27184   5.945   2.638   6.406 -0.4729 -0.7307  0.3784
  202MOL0     N27185   5.917   3.292   6.798 -0.2026 -0.3768 -0.3478
  202MOL0     N27186   5.854   3.385   6.860  0.3890 -0.3331 -0.8879
  202MOL0     C27187   6.268   4.404   7.312 -0.2359 -0.2314  0.3446
  202MOL0     C27188   6.337   4.408   7.436 -1.2257  0.1275  1.0778
  202MOL0     C27189   6.681   4.368   7.697 -0.0762 -0.3661  1.0827
  202MOL0     C27190   6.622   4.298   7.804 -0.2630 -0.2437 -0.4511
  202MOL0     C27191   6.692   4.257   7.917  0.0724  0.4404  0.4675
  202MOL0     C27192   6.824   4.305   7.928 -0.2062 -0.2349 -1.2660
  202MOL0     O27193   6.875   4.289   8.055  0.3327 -0.1354 -0.0417
  202MOL0     C27194   7.017   4.283   8.067 -0.0377 -0.6137 -0.5803
  202MOL0     C27195   7.078   4.151   8.114  0.2953  0.6029  0.7847
  202MOL0     C27196   7.134   4.046   8.013 -0.0742  0.3211 -0.9372
  202MOL0     C27197   7.036   3.980   7.925 -0.0637 -0.1044  0.0520
  202MOL0     C27198   7.105   3.868   7.857  0.6206 -0.2350  0.9381
  202MOL0     C27199   7.165   3.775   7.808  1.2346  0.4719  0.5207
  202MOL0     C27200   6.876   4.395   7.840  0.9605 -0.5082 -0.0913
  202MOL0     C27201   6.807   4.433   7.721 -0.8720  0.5623 -0.4554
  202MOL0     C27202   6.885   4.518   7.625 -0.4823  0.6147 -0.3187
  202MOL0     H27203   6.493   4.098   7.402  1.6639  0.7511  1.5842
  202MOL0     H27204   6.389   4.106   7.185  3.2268  1.4751  0.7614
  202MOL0     H27205   6.299   4.199   6.965 -0.2824  2.2646  0.3284
  202MOL0     H27206   6.198   4.087   7.064  0.3160  0.2368  1.7165
  202MOL0     H27207   6.091   4.300   6.886  1.3207 -0.7984 -1.9427
  202MOL0     H27208   5.989   4.185   6.972 -0.8519 -1.2115  0.2137
  202MOL0     H27209   6.196   4.064   6.775  0.1343 -1.1903 -0.0072
  202MOL0     H27210   6.029   4.099   6.734 -1.5921  0.6910  1.5047
  202MOL0     H27211   6.108   3.870   6.863 -1.7564 -1.4755 -1.1934
  202MOL0     H27212   6.020   3.958   6.990 -0.1241  3.0852 -0.1336
  202MOL0     H27213   5.826   3.955   6.810 -0.6071  0.2796 -0.2395
  202MOL0     H27214   5.946   3.888   6.706  3.9634  2.0072  1.0353
  202MOL0     H27215   5.945   3.679   6.859  0.2994  0.6965  2.8070
  202MOL0     H27216   5.835   3.760   6.958  0.6814 -1.2579 -0.4453
  202MOL0     H27217   5.795   3.691   6.669 -0.8780 -2.9853  0.3812
  202MOL0     H27218   5.680   3.788   6.767  0.4294  0.5759  1.1303
  202MOL0     H27219   5.701   3.582   6.925  0.1059 -1.3480 -0.5608
  202MOL0     H27220   5.604   3.564   6.766 -0.6918 -2.9763  1.5272
  202MOL0     H27221   5.775   3.478   6.560  2.9796 -0.5832 -2.4747
  202MOL0     H27222   5.910   3.295   6.439  0.6353  3.8487  0.4724
  202MOL0     H27223   6.069   3.290   6.519  0.8294 -3.2076  1.8362
  202MOL0     H27224   5.974   3.080   6.636  3.2152 -0.4700 -0.6907
  202MOL0     H27225   5.851   3.083   6.504  0.7249 -2.8143  0.2003
  202MOL0     H27226   6.158   3.067   6.469  0.8189 -2.0761 -2.4461
  202MOL0     H27227   6.034   3.082   6.334  4.9009  0.3697 -0.4507
  202MOL0     H27228   5.922   2.895   6.447  0.1408  1.2283 -0.2829
  202MOL0     H27229   6.069   2.848   6.535  1.0101 -2.2304 -1.5544
  202MOL0     H27230   6.109   2.705   6.116 -2.1305  1.8020 -0.1096
  202MOL0     H27231   5.964   2.506   6.040 -2.2102  4.3644 -1.8990
  202MOL0     H27232   5.956   2.009   6.101 -0.7490 -2.0600  1.4575
  202MOL0     H27233   5.857   1.838   5.964 -1.7197  0.0070 -0.2891
  202MOL0     H27234   5.424   1.864   5.894 -2.5140 -3.6959 -0.2218
  202MOL0     H27235   5.479   1.910   5.724 -2.4626  1.7760  0.9526
  202MOL0     H27236   5.466   1.618   5.817  0.3694  1.0097  0.0435
  202MOL0     H27237   5.336   1.700   5.739 -0.1754 -2.4851  2.3555
  202MOL0     H27238   5.476   1.746   5.535 -0.3279 -2.1357 -1.0348
  202MOL0     H27239   5.618   1.674   5.629  0.7279  2.2692  2.2277
  202MOL0     H27240   5.349   1.537   5.562 -0.7773  0.7548 -1.0718
  202MOL0     H27241   5.499   1.460   5.634  1.3944  1.4641  0.3016
  202MOL0     H27242   5.612   1.502   5.416  0.3273  3.4008 -2.1415
  202MOL0     H27243   5.474   1.590   5.360 -1.8307  0.2892  1.0402
  202MOL0     H27244   5.333   1.374   5.348 -0.1187 -2.5085 -1.1493
  202MOL0     H27245   5.484   1.376   5.261  2.6350 -0.3114  1.5743
  202MOL0     H27246   5.485   1.244   5.534  1.4470 -1.9607  0.3415
  202MOL0     H27247   5.590   1.211   5.396  1.5108  1.5157 -0.5325
  202MOL0     H27248   5.412   1.038   5.422 -1.1344  0.5204  0.9611
  202MOL0     H27249   5.294   1.157   5.374  0.0356  2.0950 -0.2055
  202MOL0     H27250   5.547   2.123   5.862 -0.4843 -0.5631 -0.2988
  202MOL0     H27251   5.642   2.281   5.997  0.2260 -0.5195  3.7493
  202MOL0     H27252   5.814   2.471   6.441  0.0835  1.1780  0.7974
  202MOL0     H27253   5.920   2.671   6.506  1.3127  1.8363  0.0853
  202MOL0     H27254   6.208   4.492   7.291 -1.7148 -0.6957  2.3614
  202MOL0     H27255   6.343   4.487   7.509 -1.4988 -0.2123  1.4684
  202MOL0     H27256   6.520   4.265   7.818 -0.1765 -0.6200 -0.6837
  202MOL0     H27257   6.651   4.208   8.005 -2.3962  0.6985 -0.4659
  202MOL0     H27258   7.035   4.361   8.142 -3.5264 -0.3761  0.1561
  202MOL0     H27259   7.075   4.307   7.977  3.0797  2.2267  1.8986
  202MOL0     H27260   6.992   4.115   8.172 -0.8947  0.4811 -0.9627
  202MOL0     H27261   7.159   4.178   8.182 -1.1551  4.2807  1.2780
  202MOL0     H27262   7.171   3.965   8.076 -4.8516  0.0726  2.0134
  202MOL0     H27263   7.213   4.099   7.959  0.1451  0.4519 -0.4912
  202MOL0     H27264   6.961   3.925   7.982  0.0822 -0.0605  0.2853
  202MOL0     H27265   6.999   4.056   7.856  1.0649  1.6510  1.3100
  202MOL0     H27266   7.227   3.695   7.774  3.3427  2.7406 -1.3044
  202MOL0     H27267   6.976   4.435   7.856  1.6453 -0.6579 -3.2705
  202MOL0     H27268   6.989   4.537   7.654  0.8484 -1.4440 -3.2388
  202MOL0     H27269   6.879   4.479   7.523  1.6255 -2.0204  0.4226
  202MOL0     H27270   6.825   4.609   7.620 -0.7718  0.5866  1.6764
  203MOL0     O27271   2.159   5.446   6.101 -0.5109 -0.2859  0.1370
  203MOL0     C27272   2.141   5.374   6.203  0.4125 -0.1099 -1.4807
  203MOL0     O27273   2.123   5.239   6.200 -1.2842  0.2370 -0.4439
  203MOL0     C27274   2.146   5.164   6.085 -0.6358  0.4198  0.3485
  203MOL0     C27275   2.064   5.192   5.973  0.2910  0.2704 -0.0934
  203MOL0     C27276   2.106   5.131   5.855  0.5116  0.1063  0.5885
  203MOL0     C27277   2.207   5.032   5.849  0.7270 -0.1122  0.7367
  203MOL0     O27278   2.221   4.960   5.728  0.4309  0.2218 -0.5418
  203MOL0     C27279   2.232   4.814   5.751  0.4062 -0.1913  1.4173
  203MOL0     C27280   2.204   4.748   5.617 -1.2350 -0.1094 -0.3888
  203MOL0     C27281   2.059   4.785   5.582  0.7521 -0.2314 -0.1117
  203MOL0     C27282   2.041   4.875   5.460  0.1921 -0.5346  0.2287
  203MOL0     C27283   1.888   4.887   5.427 -1.6466  0.9184 -0.4631
  203MOL0     C27284   1.848   4.999   5.330  0.4369 -0.5255 -0.2889
  203MOL0     C27285   1.909   4.987   5.193 -0.4462  1.0272  0.0306
  203MOL0     C27286   1.897   5.110   5.111 -0.3935  0.1769 -0.0100
  203MOL0     N27287   1.754   5.149   5.090 -0.6745 -0.3044  0.0570
  203MOL0     C27288   1.649   5.083   5.032 -1.6806  0.3114  0.3218
  203MOL0     C27289   1.540   5.168   5.034  0.0449 -0.1024  0.8297
  203MOL0     C27290   1.401   5.133   5.008 -0.3986 -0.4105  0.9658
  203MOL0     C27291   1.301   5.126   5.124  0.6345  0.3356 -0.0911
  203MOL0     C27292   1.251   5.270   5.167  1.1303  1.2007 -0.8999
  203MOL0     C27293   1.152   5.253   5.269  0.2619  0.9132 -0.7575
  203MOL0     O27294   1.196   5.202   5.391 -1.0444 -0.1617  0.7766
  203MOL0     C27295   1.135   5.219   5.515 -0.5185  0.2023 -0.6320
  203MOL0     C27296   1.202   5.154   5.615  1.3715  0.3207  0.0944
  203MOL0     C27297   1.160   5.159   5.743 -0.2334  0.7775  0.1046
  203MOL0     C27298   1.035   5.221   5.781 -0.0863  0.5066  0.1347
  203MOL0     C27299   0.988   5.217   5.922  0.4046 -0.9023  1.1246
  203MOL0     O27300   0.858   5.233   5.937  0.2564 -0.5845 -0.5574
  203MOL0     C27301   0.809   5.233   6.063 -0.9952 -1.1164  1.2234
  203MOL0     C27302   0.787   5.349   6.129  0.8599 -0.6950  0.2796
  203MOL0     C27303   0.726   5.360   6.253 -0.1599 -0.1532 -0.2757
  203MOL0     C27304   0.686   5.244   6.319 -0.2889  0.3823 -0.4685
  203MOL0     O27305   0.644   5.229   6.455 -0.0604  0.5653 -0.1959
  203MOL0     C27306   0.664   5.333   6.550 -0.0548 -0.8629  0.7731
  203MOL0     C27307   0.616   5.290   6.683 -0.1826  0.3900  0.0654
  203MOL0     C27308   0.590   5.397   6.784 -0.3872 -0.0311 -0.2768
  203MOL0     C27309   0.530   5.332   6.909  0.2586 -0.0477  0.2485
  203MOL0     C27310   0.542   5.430   7.028 -0.5017 -0.4385 -0.6393
  203MOL0     C27311   0.494   5.374   7.164 -0.1900 -0.0153  0.1350
  203MOL0     C27312   0.555   5.236   7.199  0.1440  0.5228 -0.1969
  203MOL0     C27313   0.519   5.196   7.348  0.1240 -0.2449 -0.3943
  203MOL0    Cl27314   0.570   5.029   7.370  0.3659  0.2156 -0.0590
  203MOL0     C27315   0.724   5.123   6.252 -0.1092 -0.2091 -0.1484
  203MOL0     C27316   0.785   5.111   6.123 -0.3971 -0.5057 -0.2909
  203MOL0     O27317   1.066   5.187   6.012  0.0958 -0.2498  0.2493
  203MOL0     C27318   0.962   5.283   5.673  0.3879 -0.5667  0.0678
  203MOL0     C27319   1.010   5.288   5.537 -0.4826 -0.7929 -0.0907
  203MOL0     N27320   1.593   5.291   5.081 -0.5236 -0.6716  0.6562
  203MOL0     N27321   1.716   5.279   5.108 -0.2883  0.9114 -0.4994
  203MOL0     C27322   2.280   4.997   5.966 -0.4022 -0.3066  0.1487
  203MOL0     C27323   2.253   5.073   6.085  0.3494 -0.9711 -0.1147
  203MOL0     C27324   2.088   5.446   6.323  0.4028  0.3914 -0.6471
  203MOL0     C27325   2.000   5.377   6.417  0.1744 -0.0351 -0.1123
  203MOL0     C27326   1.952   5.441   6.540 -0.1083 -0.5214 -0.2912
  203MOL0     C27327   1.985   5.576   6.558 -0.3016 -0.4853 -0.1854
  203MOL0     O27328   1.943   5.654   6.658 -0.2736 -0.3474  0.0433
  203MOL0     C27329   1.877   5.597   6.767 -0.1363 -0.2291 -0.2214
  203MOL0     C27330   1.858   5.712   6.863 -0.1342 -0.0843  0.9299
  203MOL0     C27331   1.973   5.809   6.889 -0.5386  0.8702 -0.0464
  203MOL0     C27332   1.912   5.935   6.950 -0.1929  0.1125  1.0813
  203MOL0     C27333   1.847   5.904   7.080 -0.1436  0.5648  0.7516
  203MOL0     C27334   1.792   5.871   7.182  0.5070  1.1263 -0.4302
  203MOL0     C27335   2.057   5.648   6.462 -0.9449  0.1544  0.7030
  203MOL0     C27336   2.109   5.582   6.346 -0.0695  0.1852 -0.0573
  203MOL0     C27337   2.207   5.671   6.268  0.1604 -0.0364 -0.1744
  203MOL0     H27338   1.995   5.276   5.972 -0.3549 -0.1821  1.7111
  203MOL0     H27339   2.067   5.166   5.760  2.1441  2.8323  0.8310
  203MOL0     H27340   2.337   4.787   5.763  0.6641 -2.5461 -3.5475
  203MOL0     H27341   2.170   4.786   5.836 -2.3981  0.0908 -0.4020
  203MOL0     H27342   2.214   4.640   5.630  0.3550  0.1607  1.1030
  203MOL0     H27343   2.274   4.774   5.537  0.4509 -0.4348  0.9194
  203MOL0     H27344   2.001   4.830   5.664  1.9476  1.3724 -0.0949
  203MOL0     H27345   2.000   4.694   5.570  1.2920 -0.6658  0.4699
  203MOL0     H27346   2.088   4.972   5.478 -2.4493  1.5625 -2.8523
  203MOL0     H27347   2.100   4.838   5.375 -0.1999  0.4027 -0.4666
  203MOL0     H27348   1.850   4.788   5.399 -0.2079 -1.3448  4.4362
  203MOL0     H27349   1.840   4.899   5.525 -1.8034  2.2171 -0.6836
  203MOL0     H27350   1.739   5.010   5.326  0.3210 -0.9906  1.0928
  203MOL0     H27351   1.891   5.090   5.372  5.8051 -1.1777 -3.4650
  203MOL0     H27352   1.866   4.909   5.130  1.9826  0.0871 -0.5667
  203MOL0     H27353   2.011   4.953   5.211  0.3353  2.9673 -0.5463
  203MOL0     H27354   1.947   5.193   5.162 -1.8822  0.9327  0.2740
  203MOL0     H27355   1.933   5.088   5.010 -3.3564 -0.1004 -1.0923
  203MOL0     H27356   1.644   4.978   5.006  0.9520  0.6422 -1.9646
  203MOL0     H27357   1.374   5.222   4.952  0.6568  1.1408  2.7932
  203MOL0     H27358   1.377   5.044   4.948  0.0918  0.3603 -0.3956
  203MOL0     H27359   1.221   5.065   5.080  2.9007  0.3858 -4.9051
  203MOL0     H27360   1.345   5.078   5.211 -0.1143 -3.7122 -1.7317
  203MOL0     H27361   1.207   5.316   5.078  0.3080 -0.1895 -1.2459
  203MOL0     H27362   1.332   5.329   5.211  2.5464 -1.6110  0.5488
  203MOL0     H27363   1.080   5.175   5.242  2.2137 -1.5368  0.6566
  203MOL0     H27364   1.105   5.347   5.297 -4.2176 -0.9825 -0.9622
  203MOL0     H27365   1.289   5.092   5.598  0.7784 -0.5084 -0.0219
  203MOL0     H27366   1.218   5.103   5.815  0.1473  0.6014 -0.3283
  203MOL0     H27367   0.820   5.440   6.078 -0.4018 -1.7186 -2.6031
  203MOL0     H27368   0.728   5.458   6.299  1.0728 -0.1456 -0.3216
  203MOL0     H27369   0.768   5.369   6.554 -0.5294  0.6986 -0.0949
  203MOL0     H27370   0.602   5.417   6.519  2.4104  1.6926  2.2747
  203MOL0     H27371   0.532   5.223   6.661  0.4842  0.2052 -2.1786
  203MOL0     H27372   0.702   5.234   6.720  0.9861  1.5849 -0.7590
  203MOL0     H27373   0.692   5.432   6.804  1.3175 -3.5410 -1.8069
  203MOL0     H27374   0.523   5.471   6.741  0.6788  0.9009 -0.3945
  203MOL0     H27375   0.581   5.237   6.926 -0.0769 -0.1478  0.7330
  203MOL0     H27376   0.423   5.309   6.900  0.3044 -0.9238  1.5809
  203MOL0     H27377   0.501   5.530   7.011 -0.8772 -0.3151  0.8333
  203MOL0     H27378   0.651   5.440   7.032 -0.3814 -2.0075  1.7701
  203MOL0     H27379   0.525   5.449   7.237  0.5187  1.8099 -1.9152
  203MOL0     H27380   0.386   5.356   7.166 -0.1425 -0.5808 -1.2808
  203MOL0     H27381   0.664   5.235   7.189  0.1216 -3.3048 -1.6483
  203MOL0     H27382   0.522   5.164   7.124 -1.1925  0.8727  0.0245
  203MOL0     H27383   0.564   5.268   7.417  2.2665 -0.9990 -0.9018
  203MOL0     H27384   0.412   5.206   7.366  0.4551  2.5491  0.5797
  203MOL0     H27385   0.705   5.030   6.305  1.8127 -0.2171  0.5977
  203MOL0     H27386   0.795   5.019   6.066  0.7098  0.5691 -1.9004
  203MOL0     H27387   0.865   5.327   5.691  0.6823  0.6844 -1.2407
  203MOL0     H27388   0.956   5.316   5.447  2.3794  1.8651 -1.1918
  203MOL0     H27389   2.362   4.926   5.961 -0.4721 -0.4689  1.0903
  203MOL0     H27390   2.306   5.038   6.173  5.3651  0.2409 -2.3124
  203MOL0     H27391   1.963   5.276   6.399 -1.5980  0.2508  1.6603
  203MOL0     H27392   1.881   5.399   6.610 -0.0382  2.2899  1.6319
  203MOL0     H27393   1.934   5.517   6.814  0.7858  1.6228  1.9572
  203MOL0     H27394   1.784   5.561   6.721  0.3061  0.2142 -1.5272
  203MOL0     H27395   1.837   5.663   6.958 -1.6544  1.4116  1.4137
  203MOL0     H27396   1.771   5.766   6.822  1.1907 -1.2003 -4.0861
  203MOL0     H27397   2.024   5.833   6.795 -0.7648 -0.6433 -0.5794
  203MOL0     H27398   2.051   5.776   6.958 -0.2673 -2.0727 -1.5953
  203MOL0     H27399   1.986   6.013   6.965  2.9278 -2.6731  1.3354
  203MOL0     H27400   1.846   5.982   6.876  1.9254  0.5830 -0.6137
  203MOL0     H27401   1.765   5.841   7.281  0.8550 -1.4720 -1.0333
  203MOL0     H27402   2.068   5.755   6.474 -0.6942  0.5816 -2.4352
  203MOL0     H27403   2.223   5.763   6.326 -0.6374 -0.0290  0.0405
  203MOL0     H27404   2.302   5.623   6.244  1.4758  2.0154  0.6301
  203MOL0     H27405   2.158   5.701   6.175 -0.6704 -2.8817 -0.7463
  204MOL0     O27406   9.287   3.328   8.975  0.4595  0.6562 -0.2262
  204MOL0     C27407   9.282   3.260   8.867 -1.0545 -0.5627 -0.9494
  204MOL0     O27408   9.354   3.296   8.755  0.8431 -0.0320 -0.1358
  204MOL0     C27409   9.406   3.423   8.768  0.8444  0.3689 -0.2749
  204MOL0     C27410   9.532   3.445   8.817 -0.4444  0.2628  0.0131
  204MOL0     C27411   9.590   3.569   8.791  0.5194 -0.4413 -0.9397
  204MOL0     C27412   9.522   3.674   8.726 -0.3044  0.1169 -0.7537
  204MOL0     O27413   9.584   3.790   8.690  0.2085 -0.3150 -0.1558
  204MOL0     C27414   9.704   3.829   8.753  0.6540  0.3669  0.1850
  204MOL0     C27415   9.730   3.979   8.725  0.3208 -0.5644  0.0912
  204MOL0     C27416   9.670   4.073   8.827 -0.0711  0.1742 -0.5854
  204MOL0     C27417   9.624   4.194   8.765  0.5373 -0.4173  0.6045
  204MOL0     C27418   9.719   4.288   8.680 -0.0956 -0.7665  0.6528
  204MOL0     C27419   9.644   4.413   8.639 -0.3474  0.4918 -0.1428
  204MOL0     C27420   9.751   4.513   8.574 -0.1798  0.8272 -1.8447
  204MOL0     C27421   9.659   4.625   8.535 -0.0739  0.6034 -0.3953
  204MOL0     N27422   9.591   4.686   8.652  0.7511 -0.0742 -0.0393
  204MOL0     C27423   9.452   4.709   8.668 -0.0819 -0.9698  0.3249
  204MOL0     C27424   9.447   4.773   8.790  0.4288 -0.1335 -0.1986
  204MOL0     C27425   9.329   4.836   8.856  0.6479  0.5326  0.1164
  204MOL0     C27426   9.208   4.735   8.875  1.5012 -0.0572 -0.7946
  204MOL0     C27427   9.099   4.816   8.944 -0.5822 -0.3450  0.6581
  204MOL0     C27428   8.987   4.718   8.992 -0.2212  0.3278  0.5588
  204MOL0     O27429   8.917   4.660   8.878  1.2898 -0.2182 -0.3858
  204MOL0     C27430   8.778   4.638   8.890 -0.3214 -0.2887  0.6980
  204MOL0     C27431   8.685   4.715   8.960 -0.3563  0.0708 -0.3236
  204MOL0     C27432   8.554   4.694   8.965 -0.4561 -0.4373  0.3356
  204MOL0     C27433   8.502   4.573   8.915 -0.5267 -0.1929  0.5746
  204MOL0     C27434   8.353   4.544   8.906  0.5093 -0.1047  0.0134
  204MOL0     O27435   8.315   4.430   8.841 -0.9867 -0.5879 -0.1066
  204MOL0     C27436   8.181   4.412   8.815 -0.5879  0.0159  0.4139
  204MOL0     C27437   8.088   4.392   8.920 -1.0608 -0.3894 -0.0961
  204MOL0     C27438   7.950   4.368   8.895 -0.8019  0.4850  0.7150
  204MOL0     C27439   7.905   4.362   8.767  1.3892 -0.8185 -0.5597
  204MOL0     O27440   7.765   4.334   8.768 -0.0882  0.3620 -0.1377
  204MOL0     C27441   7.688   4.356   8.649 -0.2901 -0.3778 -0.0578
  204MOL0     C27442   7.542   4.324   8.684  0.4524 -0.2610  0.1510
  204MOL0     C27443   7.467   4.299   8.554  0.1468 -1.0555 -0.0489
  204MOL0     C27444   7.317   4.287   8.582 -0.0826 -0.8710  0.1398
  204MOL0     C27445   7.235   4.253   8.459 -1.4871 -0.2094 -0.1434
  204MOL0     C27446   7.092   4.212   8.494  0.3676  0.4920  0.5960
  204MOL0     C27447   7.075   4.069   8.519  0.2846  0.1889  0.2648
  204MOL0     C27448   6.961   4.020   8.601  0.2059 -0.7771  0.5644
  204MOL0    Cl27449   6.814   4.027   8.520 -0.3281 -0.0179  0.4129
  204MOL0     C27450   7.992   4.386   8.662 -0.2928 -0.4270 -0.5838
  204MOL0     C27451   8.127   4.415   8.686 -0.1463  0.1512 -0.2922
  204MOL0     O27452   8.275   4.638   8.934  0.1790  0.3218  0.2006
  204MOL0     C27453   8.590   4.483   8.838  0.3403 -0.4919 -0.1167
  204MOL0     C27454   8.725   4.517   8.831  0.0119 -0.2547  0.4344
  204MOL0     N27455   9.582   4.786   8.843  0.2709  0.8889 -1.3963
  204MOL0     N27456   9.665   4.728   8.759  0.4035 -0.1023 -0.1822
  204MOL0     C27457   9.394   3.659   8.688 -0.0312 -0.5499 -0.2480
  204MOL0     C27458   9.331   3.535   8.718  0.2692 -0.0079  0.2727
  204MOL0     C27459   9.203   3.136   8.879 -0.1127 -1.0240 -0.0178
  204MOL0     C27460   9.244   3.035   8.797  0.2152 -0.3163  0.2070
  204MOL0     C27461   9.179   2.905   8.796 -0.2465 -0.6323  0.2267
  204MOL0     C27462   9.071   2.889   8.883 -0.5624 -0.0686  0.3563
  204MOL0     O27463   9.016   2.766   8.889  0.5334  0.3146 -0.2200
  204MOL0     C27464   8.951   2.740   9.019 -0.4158 -0.3295 -0.2938
  204MOL0     C27465   8.936   2.584   9.052  0.1937 -0.4237  0.5092
  204MOL0     C27466   9.072   2.507   9.044  0.5981 -0.3779 -0.2458
  204MOL0     C27467   9.045   2.359   9.043 -0.1614  0.6920  0.0315
  204MOL0     C27468   9.026   2.310   8.908 -0.3880 -0.2123 -1.0889
  204MOL0     C27469   9.003   2.288   8.791 -0.5383 -0.2763 -0.4284
  204MOL0     C27470   9.025   3.004   8.947 -0.0334  0.4541 -0.8684
  204MOL0     C27471   9.090   3.122   8.961  0.7958 -0.3170 -0.1487
  204MOL0     C27472   9.035   3.233   9.054 -0.3697  1.6464  0.9515
  204MOL0     H27473   9.588   3.357   8.848 -0.1176 -0.4997 -2.5059
  204MOL0     H27474   9.695   3.572   8.818  0.0036  2.6240  1.2783
  204MOL0     H27475   9.700   3.811   8.861  0.7354  1.6464  0.4123
  204MOL0     H27476   9.793   3.776   8.717  0.3501  0.6709 -1.0939
  204MOL0     H27477   9.691   4.003   8.626 -1.5250  3.7099  1.6236
  204MOL0     H27478   9.838   3.992   8.714  0.1768  0.7638  0.1676
  204MOL0     H27479   9.748   4.094   8.901 -0.4552  1.0012 -0.3917
  204MOL0     H27480   9.582   4.039   8.882 -0.5934 -0.4247 -1.7543
  204MOL0     H27481   9.550   4.169   8.689  1.6429  1.6228 -1.2890
  204MOL0     H27482   9.568   4.244   8.843 -1.4435 -0.2424 -0.8644
  204MOL0     H27483   9.808   4.305   8.741 -0.3150 -2.0895  1.3872
  204MOL0     H27484   9.763   4.237   8.594 -0.3618  0.8322 -0.4931
  204MOL0     H27485   9.559   4.384   8.578 -2.8447  2.1409  2.2820
  204MOL0     H27486   9.606   4.458   8.731  1.2025 -1.8254  1.7522
  204MOL0     H27487   9.798   4.455   8.495  1.1496 -1.5840  0.5601
  204MOL0     H27488   9.834   4.538   8.640  0.7861  0.3756 -2.8546
  204MOL0     H27489   9.719   4.701   8.483  1.7095 -0.5169 -0.0752
  204MOL0     H27490   9.594   4.578   8.461  2.6201 -3.5403 -0.4693
  204MOL0     H27491   9.364   4.693   8.606  1.2898  2.0518 -2.6784
  204MOL0     H27492   9.365   4.876   8.951  0.6506  2.3746 -0.6303
  204MOL0     H27493   9.294   4.923   8.800  0.0826  1.0794  1.2784
  204MOL0     H27494   9.175   4.703   8.775 -0.0972  3.1453 -1.3989
  204MOL0     H27495   9.235   4.648   8.936  2.8093  0.2231 -0.9303
  204MOL0     H27496   9.059   4.897   8.882  3.7082 -0.8248 -3.2686
  204MOL0     H27497   9.142   4.855   9.037 -1.5371 -0.3494  1.1091
  204MOL0     H27498   8.919   4.747   9.072 -1.9497  1.0765 -1.1240
  204MOL0     H27499   9.045   4.635   9.032  1.6151  2.7292  3.3141
  204MOL0     H27500   8.718   4.801   9.019 -0.6247 -0.7233  1.0343
  204MOL0     H27501   8.484   4.768   9.002  1.0956  1.1994  0.1225
  204MOL0     H27502   8.112   4.415   9.023  2.0268  0.2128 -0.8661
  204MOL0     H27503   7.890   4.360   8.985 -1.0529 -1.5700  0.3950
  204MOL0     H27504   7.714   4.453   8.606  3.2686 -1.4791 -0.6416
  204MOL0     H27505   7.726   4.278   8.583  0.5306 -0.5724  0.6385
  204MOL0     H27506   7.549   4.243   8.758  0.3231  1.8031  2.5318
  204MOL0     H27507   7.494   4.414   8.722  0.5851  0.6278 -1.6963
  204MOL0     H27508   7.484   4.385   8.488 -0.8448 -0.1728  0.8111
  204MOL0     H27509   7.502   4.206   8.508 -1.1939 -1.4001 -0.4429
  204MOL0     H27510   7.268   4.370   8.633  1.9558  0.5600 -0.1141
  204MOL0     H27511   7.303   4.204   8.653  1.7622  1.7718  3.9284
  204MOL0     H27512   7.279   4.170   8.403 -0.9307  0.0769 -0.1343
  204MOL0     H27513   7.245   4.346   8.401 -0.6007 -1.1304 -1.5534
  204MOL0     H27514   7.050   4.261   8.582 -3.4012 -0.2767 -0.5768
  204MOL0     H27515   7.022   4.245   8.416 -1.0583 -3.5455 -0.0499
  204MOL0     H27516   7.158   4.026   8.576 -0.8845 -1.4783  0.7832
  204MOL0     H27517   7.069   4.024   8.419  1.5351 -0.0224  0.2715
  204MOL0     H27518   6.984   3.916   8.627  1.4629 -0.9986 -1.2216
  204MOL0     H27519   6.942   4.074   8.694  0.1359 -2.1028  1.3389
  204MOL0     H27520   7.943   4.407   8.568 -1.9127 -0.9107  0.1079
  204MOL0     H27521   8.202   4.429   8.608  2.5832  0.3288  2.1742
  204MOL0     H27522   8.546   4.396   8.789  1.3790 -2.1950  1.8255
  204MOL0     H27523   8.804   4.459   8.783  0.5512  0.4712  0.4180
  204MOL0     H27524   9.348   3.744   8.639  1.9364  1.3941  1.0309
  204MOL0     H27525   9.225   3.531   8.694  0.7586 -0.8202 -1.9969
  204MOL0     H27526   9.325   3.054   8.728 -1.0404  1.0743 -0.9818
  204MOL0     H27527   9.206   2.827   8.726 -0.4800  1.8727 -2.8722
  204MOL0     H27528   8.847   2.776   9.015 -0.1691  0.2427 -2.6146
  204MOL0     H27529   9.010   2.774   9.105  1.5424 -0.8770 -1.3763
  204MOL0     H27530   8.868   2.541   8.979  0.3270 -0.6361  0.5102
  204MOL0     H27531   8.896   2.583   9.154 -1.6660  1.7963 -0.1184
  204MOL0     H27532   9.132   2.527   9.133 -0.0142  1.3064 -0.1731
  204MOL0     H27533   9.125   2.534   8.952  1.1805 -1.4483 -0.2371
  204MOL0     H27534   9.129   2.305   9.088 -1.7983  0.9765  3.8086
  204MOL0     H27535   8.953   2.317   9.084  0.4816 -1.9446 -1.0163
  204MOL0     H27536   8.989   2.292   8.685 -0.1258  2.1073 -0.4415
  204MOL0     H27537   8.935   2.978   9.002  0.1171  2.1695  0.2564
  204MOL0     H27538   9.079   3.240   9.154 -1.8018  0.2463  1.7250
  204MOL0     H27539   9.037   3.330   9.003 -2.0834  1.0131 -0.4275
  204MOL0     H27540   8.928   3.215   9.072  0.4339 -2.5323  2.6011
  205MOL0     O27541   3.168   7.340   0.852 -0.9746 -0.3861 -0.3998
  205MOL0     C27542   3.206   7.449   0.810 -0.3643 -0.1796  0.6563
  205MOL0     O27543   3.308   7.528   0.850  0.4918 -0.3256 -0.9614
  205MOL0     C27544   3.340   7.520   0.979 -0.2668 -0.1568 -0.5536
  205MOL0     C27545   3.248   7.546   1.093  0.3719 -0.1394  0.3086
  205MOL0     C27546   3.298   7.553   1.224  0.5973  0.4736  0.8632
  205MOL0     C27547   3.434   7.534   1.246 -0.5559  0.0227  0.5992
  205MOL0     O27548   3.495   7.532   1.370  1.5358  0.8699  0.0435
  205MOL0     C27549   3.409   7.533   1.490 -0.2499 -0.1264  0.3385
  205MOL0     C27550   3.513   7.494   1.599  0.0264 -0.2003  0.1907
  205MOL0     C27551   3.440   7.467   1.732 -0.4353 -0.8465 -0.3033
  205MOL0     C27552   3.518   7.365   1.819 -0.0452  0.4370 -0.0740
  205MOL0     C27553   3.485   7.364   1.972  0.2025  0.8291 -0.6470
  205MOL0     C27554   3.491   7.495   2.047 -0.1778 -0.3998  0.3647
  205MOL0     C27555   3.419   7.483   2.188 -0.2144  0.0407 -0.4159
  205MOL0     C27556   3.329   7.600   2.228 -0.6948  0.2846 -0.2892
  205MOL0     N27557   3.336   7.607   2.375  0.8146  0.6695 -0.3547
  205MOL0     C27558   3.309   7.501   2.458  0.6288  0.3948 -1.9960
  205MOL0     C27559   3.319   7.555   2.588  0.5004  1.1182 -0.1922
  205MOL0     C27560   3.300   7.504   2.723  0.5281  0.9748  0.0279
  205MOL0     C27561   3.418   7.451   2.801  0.5954  0.4493 -0.5461
  205MOL0     C27562   3.494   7.567   2.871 -0.1188 -1.2003  0.0598
  205MOL0     C27563   3.625   7.524   2.933  1.2223  0.1702  0.8135
  205MOL0     O27564   3.619   7.431   3.044 -0.5799  0.0167  0.2786
  205MOL0     C27565   3.677   7.475   3.161 -0.2230 -0.0982  0.6098
  205MOL0     C27566   3.606   7.498   3.278 -0.0646 -0.4434 -0.6024
  205MOL0     C27567   3.652   7.538   3.396 -0.1001  0.8592 -1.2162
  205MOL0     C27568   3.794   7.524   3.421  0.6536 -0.4173 -0.4120
  205MOL0     C27569   3.866   7.532   3.554  1.0566  0.7772 -0.2891
  205MOL0     O27570   3.987   7.577   3.564 -0.4943 -0.5391 -0.4861
  205MOL0     C27571   4.011   7.606   3.690 -0.8488  0.0125 -0.0125
  205MOL0     C27572   4.088   7.514   3.766  0.7591 -0.1203  0.2568
  205MOL0     C27573   4.122   7.548   3.889  0.3460 -0.2997 -0.0603
  205MOL0     C27574   4.098   7.674   3.947  0.2784 -0.4904  0.2615
  205MOL0     O27575   4.135   7.716   4.069 -0.1825  0.5257  0.2290
  205MOL0     C27576   4.103   7.625   4.175 -0.6279 -0.0067  0.6711
  205MOL0     C27577   4.212   7.611   4.286  0.1540  0.0348 -0.5095
  205MOL0     C27578   4.231   7.731   4.377  0.7620  0.1908  0.3905
  205MOL0     C27579   4.344   7.737   4.475 -0.7783  0.6182 -0.0048
  205MOL0     C27580   4.333   7.861   4.567  0.0002  0.9596 -0.3847
  205MOL0     C27581   4.419   7.833   4.696  0.8707 -0.8992  0.8536
  205MOL0     C27582   4.401   7.955   4.791 -0.0722  0.6382  0.2078
  205MOL0     C27583   4.505   7.953   4.888  0.4868  0.2884 -0.0843
  205MOL0    Cl27584   4.488   7.818   5.005 -0.3689 -0.0356  0.2597
  205MOL0     C27585   4.038   7.767   3.865 -0.1021 -0.1713 -0.4634
  205MOL0     C27586   3.987   7.735   3.741  0.6338  0.2465  0.4181
  205MOL0     O27587   3.799   7.467   3.641  0.2332  0.1136  0.0380
  205MOL0     C27588   3.872   7.505   3.315  0.2777  0.0723 -0.0643
  205MOL0     C27589   3.819   7.484   3.179  0.5314  0.2366 -0.1223
  205MOL0     N27590   3.335   7.689   2.574 -0.6213  0.0614 -0.1042
  205MOL0     N27591   3.356   7.715   2.451 -0.5359 -0.7595 -0.4555
  205MOL0     C27592   3.520   7.527   1.136 -0.6529  0.5671  0.1615
  205MOL0     C27593   3.478   7.523   1.010 -0.8334 -0.0448  0.0681
  205MOL0     C27594   3.135   7.508   0.695  0.6104 -0.2542 -0.8557
  205MOL0     C27595   3.209   7.556   0.584  0.3224 -0.1973  0.1957
  205MOL0     C27596   3.143   7.596   0.466 -0.4786 -0.4879 -0.5557
  205MOL0     C27597   3.003   7.628   0.472 -1.2534 -0.7317  0.3952
  205MOL0     O27598   2.942   7.669   0.355  0.4620 -0.2912  0.2455
  205MOL0     C27599   2.836   7.771   0.369  0.2539  0.3626 -0.7514
  205MOL0     C27600   2.810   7.850   0.240  0.7122  1.1904  0.2173
  205MOL0     C27601   2.733   7.767   0.135 -0.0088  0.0498 -0.3235
  205MOL0     C27602   2.583   7.758   0.171  0.8439 -0.4441  0.1255
  205MOL0     C27603   2.502   7.810   0.062  0.1159  0.0582  0.7460
  205MOL0     C27604   2.435   7.845  -0.031 -0.5185 -0.5153 -0.0611
  205MOL0     C27605   2.929   7.587   0.581  0.0334  0.2770 -1.1290
  205MOL0     C27606   2.995   7.529   0.694  0.4977 -0.6790  0.1032
  205MOL0     C27607   2.906   7.472   0.807  0.6555 -0.3378 -0.0455
  205MOL0     H27608   3.143   7.557   1.068  0.3333  0.1474  0.5948
  205MOL0     H27609   3.223   7.570   1.300 -1.0708  0.7076 -0.7559
  205MOL0     H27610   3.374   7.636   1.506  0.1290 -0.1814  1.5809
  205MOL0     H27611   3.320   7.469   1.489 -0.5585  0.3048 -0.2246
  205MOL0     H27612   3.585   7.576   1.595 -2.4696  2.1029 -1.3862
  205MOL0     H27613   3.563   7.401   1.568 -2.2693 -2.3432  2.4409
  205MOL0     H27614   3.343   7.418   1.729 -0.4504 -0.8330 -0.0929
  205MOL0     H27615   3.411   7.555   1.791  0.7986  0.3511 -1.4232
  205MOL0     H27616   3.529   7.263   1.782  1.1595  0.7441 -0.6168
  205MOL0     H27617   3.620   7.405   1.812 -0.1961  1.3027  2.0824
  205MOL0     H27618   3.384   7.322   1.982  0.0624  0.7735 -2.0567
  205MOL0     H27619   3.553   7.290   2.015  0.9625  1.1907 -1.2092
  205MOL0     H27620   3.592   7.537   2.056 -0.4152 -0.0428  1.4228
  205MOL0     H27621   3.441   7.573   1.989  1.6686 -0.5385 -1.5676
  205MOL0     H27622   3.506   7.480   2.254 -0.5007  1.1094  0.0428
  205MOL0     H27623   3.357   7.393   2.189 -2.0955  1.2866 -0.2794
  205MOL0     H27624   3.366   7.696   2.190  2.8274 -0.0516  1.7973
  205MOL0     H27625   3.228   7.576   2.193 -0.0336 -3.2148 -0.1411
  205MOL0     H27626   3.309   7.395   2.436  1.8926 -0.0555 -0.1003
  205MOL0     H27627   3.238   7.578   2.774 -0.9618  0.0271 -0.3469
  205MOL0     H27628   3.230   7.420   2.730 -0.0742  1.4783  0.1494
  205MOL0     H27629   3.383   7.386   2.882  1.2521  0.4016 -0.2994
  205MOL0     H27630   3.476   7.386   2.735 -0.4505 -2.3791  1.1292
  205MOL0     H27631   3.427   7.619   2.940  2.5190  3.7879 -0.6724
  205MOL0     H27632   3.534   7.639   2.799  4.7274 -3.4589  0.0891
  205MOL0     H27633   3.679   7.618   2.952 -2.3695  3.1203 -1.8922
  205MOL0     H27634   3.677   7.474   2.851 -0.2436 -0.2249  0.0881
  205MOL0     H27635   3.500   7.482   3.258 -0.1057 -0.5044 -0.3384
  205MOL0     H27636   3.598   7.557   3.489  2.1409 -1.4386  0.7130
  205MOL0     H27637   4.123   7.424   3.717  3.2733  0.9796 -0.1484
  205MOL0     H27638   4.181   7.468   3.935  0.5299 -0.2634 -0.2349
  205MOL0     H27639   4.013   7.675   4.212 -2.2934 -1.0885 -1.6787
  205MOL0     H27640   4.090   7.523   4.137  1.0943 -0.0014 -0.0269
  205MOL0     H27641   4.162   7.539   4.352  0.2566 -2.1160 -2.6559
  205MOL0     H27642   4.302   7.568   4.241  0.3407  0.3832 -0.4676
  205MOL0     H27643   4.234   7.814   4.305 -0.0042  1.6179  1.9301
  205MOL0     H27644   4.134   7.745   4.426  0.9506 -1.2576  1.2326
  205MOL0     H27645   4.436   7.723   4.417 -1.1146 -0.0787 -0.3742
  205MOL0     H27646   4.322   7.641   4.523  0.5929 -1.2670 -2.9062
  205MOL0     H27647   4.225   7.868   4.583 -0.3702 -2.2137 -0.8997
  205MOL0     H27648   4.358   7.954   4.514 -2.5103  1.6032 -0.6093
  205MOL0     H27649   4.401   7.739   4.751  2.6987 -2.4436 -1.0234
  205MOL0     H27650   4.519   7.826   4.653 -0.5202  0.0250 -2.9686
  205MOL0     H27651   4.302   7.953   4.839  0.0276  1.1849  0.4356
  205MOL0     H27652   4.401   8.034   4.717  0.2855  0.5348  0.0948
  205MOL0     H27653   4.596   7.958   4.827  0.6475 -2.9160 -0.2891
  205MOL0     H27654   4.497   8.046   4.944  1.9861 -0.0311  0.7115
  205MOL0     H27655   4.023   7.870   3.896 -1.0864 -0.1904 -0.8417
  205MOL0     H27656   3.937   7.811   3.681  1.7084  0.4711 -0.2347
  205MOL0     H27657   3.977   7.487   3.335  0.8745  1.3565 -1.7621
  205MOL0     H27658   3.870   7.465   3.085 -0.8004  0.7255 -0.9821
  205MOL0     H27659   3.622   7.502   1.163 -1.5589 -3.4759  0.4528
  205MOL0     H27660   3.554   7.507   0.934  0.2784  1.6477  0.7624
  205MOL0     H27661   3.317   7.557   0.592  0.2336  2.2367  2.6918
  205MOL0     H27662   3.208   7.635   0.389 -0.7679 -2.0633 -1.6372
  205MOL0     H27663   2.864   7.837   0.452  3.4266 -1.5912 -0.0990
  205MOL0     H27664   2.748   7.724   0.412  1.2284 -0.0583  0.9013
  205MOL0     H27665   2.909   7.876   0.201  0.2044  1.4445 -0.9763
  205MOL0     H27666   2.760   7.941   0.275 -0.1119  0.4383  1.0611
  205MOL0     H27667   2.768   7.663   0.137  1.1764  0.2348 -3.7226
  205MOL0     H27668   2.749   7.814   0.037 -3.0506 -0.2890 -1.0908
  205MOL0     H27669   2.545   7.656   0.184  1.6361 -0.9809 -1.5249
  205MOL0     H27670   2.565   7.820   0.259 -0.1672  1.9010 -1.6174
  205MOL0     H27671   2.390   7.882  -0.120  2.0059 -2.2920 -2.2748
  205MOL0     H27672   2.820   7.588   0.585  0.0647  1.2710  2.0430
  205MOL0     H27673   2.947   7.489   0.907  1.7383  0.8488 -0.6740
  205MOL0     H27674   2.807   7.520   0.810  0.2279 -1.2420  0.5289
  205MOL0     H27675   2.881   7.366   0.795 -1.4856 -0.1053  1.7772
  206MOL0     O27676   2.088   2.383   2.019 -0.8490  0.4727 -0.6437
  206MOL0     C27677   1.995   2.313   2.072  0.0175  0.3785  0.3642
  206MOL0     O27678   2.002   2.189   2.126 -0.0333 -0.1165  0.5624
  206MOL0     C27679   2.126   2.136   2.124 -0.1231 -0.7786 -0.0517
  206MOL0     C27680   2.179   2.085   2.007  0.4561  0.0125 -1.0215
  206MOL0     C27681   2.304   2.041   2.013 -0.2241 -0.2571 -0.5696
  206MOL0     C27682   2.381   2.028   2.130 -0.2729 -0.2911  0.0402
  206MOL0     O27683   2.505   1.978   2.114 -0.3842 -0.0062 -0.8445
  206MOL0     C27684   2.551   1.875   2.209  0.0963 -0.7363  0.3834
  206MOL0     C27685   2.450   1.765   2.233  1.5052  0.3653  0.6189
  206MOL0     C27686   2.441   1.664   2.109  0.4069 -0.2184  0.5195
  206MOL0     C27687   2.569   1.619   2.053 -0.4748  0.3466 -0.2760
  206MOL0     C27688   2.652   1.522   2.143 -0.4359 -0.9695  0.2187
  206MOL0     C27689   2.791   1.491   2.080 -0.1082 -1.0555 -0.1685
  206MOL0     C27690   2.858   1.348   2.103 -0.4663 -0.2819  0.3506
  206MOL0     C27691   2.996   1.328   2.041 -0.7710 -0.5544  0.1597
  206MOL0     N27692   3.001   1.317   1.894  0.1058 -0.3312  0.0148
  206MOL0     C27693   2.997   1.193   1.828  0.2804 -0.6509  0.5534
  206MOL0     C27694   3.032   1.234   1.694  1.1469 -0.1661  0.1959
  206MOL0     C27695   3.029   1.150   1.568 -0.2568  0.1944  0.1831
  206MOL0     C27696   2.930   1.205   1.471 -0.8646 -0.4329  0.8687
  206MOL0     C27697   2.938   1.111   1.345  1.0867 -1.3715 -0.2532
  206MOL0     C27698   2.823   1.144   1.241  0.5653  1.3449  0.8791
  206MOL0     O27699   2.817   1.286   1.203 -0.1736  0.2775  0.0227
  206MOL0     C27700   2.929   1.345   1.141  0.0583  0.0381 -0.5485
  206MOL0     C27701   2.968   1.479   1.164 -0.3022 -0.0411  0.9985
  206MOL0     C27702   3.076   1.533   1.095  0.5373 -0.2202 -0.1525
  206MOL0     C27703   3.168   1.463   1.027 -0.5433  0.9709 -0.3048
  206MOL0     C27704   3.285   1.514   0.940  0.3685  0.2232 -0.5984
  206MOL0     O27705   3.378   1.422   0.902 -0.5081 -0.2912  0.3307
  206MOL0     C27706   3.498   1.477   0.866  0.2850 -0.3938  0.7515
  206MOL0     C27707   3.510   1.548   0.743 -0.1900  0.0848 -0.9830
  206MOL0     C27708   3.635   1.598   0.707 -0.3233  0.3508  0.0462
  206MOL0     C27709   3.756   1.577   0.783  0.5165 -0.1175 -0.0606
  206MOL0     O27710   3.877   1.616   0.731 -0.6599  0.9563  0.0737
  206MOL0     C27711   4.003   1.583   0.796 -0.1779  0.1678  0.0853
  206MOL0     C27712   4.114   1.657   0.717  0.6777 -0.3502 -0.9355
  206MOL0     C27713   4.146   1.600   0.579  0.6442 -0.2637 -1.6323
  206MOL0     C27714   4.266   1.663   0.523  0.1589  0.6413  0.0842
  206MOL0     C27715   4.287   1.619   0.371  0.0068  0.5170  0.6207
  206MOL0     C27716   4.428   1.651   0.308  0.7112  0.2569 -0.0776
  206MOL0     C27717   4.539   1.623   0.409 -0.6219 -0.5996  0.0190
  206MOL0     C27718   4.668   1.628   0.341  0.1641 -0.1006 -0.2808
  206MOL0    Cl27719   4.805   1.643   0.445 -0.2307  0.0447  0.3032
  206MOL0     C27720   3.738   1.503   0.903 -0.1526 -0.5330 -0.5925
  206MOL0     C27721   3.615   1.457   0.947  0.8152 -0.0979  1.2152
  206MOL0     O27722   3.288   1.637   0.939  0.0849 -0.3169 -0.1074
  206MOL0     C27723   3.145   1.323   1.014 -0.2285  0.7696  0.2130
  206MOL0     C27724   3.033   1.269   1.077  0.2243 -0.5245  0.7227
  206MOL0     N27725   3.062   1.370   1.703  0.0177 -0.2098  0.2912
  206MOL0     N27726   3.031   1.423   1.810 -0.6564  0.8889  0.4580
  206MOL0     C27727   2.324   2.082   2.245  0.6046  0.5579 -0.0259
  206MOL0     C27728   2.196   2.134   2.247  0.7228 -0.2652 -0.3124
  206MOL0     C27729   1.863   2.359   2.034  0.2490 -0.1367  0.7997
  206MOL0     C27730   1.819   2.368   1.906 -0.5846  0.5197 -0.2567
  206MOL0     C27731   1.686   2.389   1.882  0.3826 -0.2794  0.7893
  206MOL0     C27732   1.597   2.412   1.983 -0.6287  0.6092  0.5454
  206MOL0     O27733   1.475   2.465   1.967  0.4402  0.5055 -0.1104
  206MOL0     C27734   1.400   2.476   1.849 -0.1421 -0.0063  0.1211
  206MOL0     C27735   1.426   2.616   1.790  0.1255  0.6393  0.3562
  206MOL0     C27736   1.313   2.653   1.697 -0.2521 -0.9095 -0.5702
  206MOL0     C27737   1.336   2.798   1.653 -0.3897 -1.1614  1.5186
  206MOL0     C27738   1.229   2.818   1.555  0.7774  0.0325 -0.5719
  206MOL0     C27739   1.128   2.808   1.485  0.4485 -0.4856 -0.4615
  206MOL0     C27740   1.635   2.410   2.119 -0.2055 -1.0180  0.5181
  206MOL0     C27741   1.771   2.374   2.140 -0.1945  0.8003 -0.4324
  206MOL0     C27742   1.806   2.372   2.285  0.4068 -0.2101  0.6739
  206MOL0     H27743   2.139   2.107   1.908  2.2049 -0.9420 -1.9939
  206MOL0     H27744   2.365   2.017   1.926  1.3559  0.2405  0.3549
  206MOL0     H27745   2.652   1.840   2.186  1.5943  1.6583  2.7545
  206MOL0     H27746   2.555   1.931   2.303 -1.7038  4.9457 -2.5132
  206MOL0     H27747   2.352   1.815   2.235  0.0856 -1.3598 -5.1802
  206MOL0     H27748   2.472   1.717   2.328 -0.8464  1.5293  1.8497
  206MOL0     H27749   2.374   1.705   2.033  2.7100 -0.6638 -1.9048
  206MOL0     H27750   2.390   1.573   2.141  0.1589  0.2696  1.5377
  206MOL0     H27751   2.541   1.561   1.965 -0.8698  0.6997 -0.3861
  206MOL0     H27752   2.618   1.712   2.020  0.4091  0.5874  1.5881
  206MOL0     H27753   2.674   1.562   2.242 -0.1817 -1.8415  0.5297
  206MOL0     H27754   2.593   1.430   2.150 -1.2170 -0.4723  0.3291
  206MOL0     H27755   2.781   1.512   1.973 -1.2895  0.9143  0.2669
  206MOL0     H27756   2.864   1.567   2.110 -2.0827  0.7522  0.3235
  206MOL0     H27757   2.803   1.262   2.065 -1.0114  0.9606 -1.8411
  206MOL0     H27758   2.863   1.325   2.210 -0.8099  0.4407  0.5302
  206MOL0     H27759   3.047   1.421   2.070 -0.0573 -0.8939  0.0049
  206MOL0     H27760   3.046   1.251   2.100 -0.8713 -3.1034 -2.8463
  206MOL0     H27761   2.966   1.090   1.838  2.9349 -1.6558 -0.4258
  206MOL0     H27762   3.133   1.141   1.536 -0.2382 -0.8331  0.4937
  206MOL0     H27763   2.999   1.049   1.598  1.5837  0.1008  1.8174
  206MOL0     H27764   2.829   1.203   1.513 -0.9569  0.3027  0.7047
  206MOL0     H27765   2.958   1.306   1.441 -4.1431 -0.1212 -1.8087
  206MOL0     H27766   2.929   1.005   1.370 -2.1537 -0.8030  1.5358
  206MOL0     H27767   3.037   1.133   1.303  0.6941  2.5955  0.5336
  206MOL0     H27768   2.722   1.113   1.268  0.6077  2.1666  2.0695
  206MOL0     H27769   2.849   1.082   1.156 -1.3489  4.0330 -1.8777
  206MOL0     H27770   2.910   1.555   1.214 -2.6003 -0.9020 -0.2403
  206MOL0     H27771   3.077   1.642   1.101 -1.4299 -0.2520  2.5640
  206MOL0     H27772   3.418   1.558   0.686 -1.1418 -1.1547  0.2879
  206MOL0     H27773   3.657   1.644   0.612  0.7733 -4.4986 -2.3654
  206MOL0     H27774   3.997   1.615   0.900 -0.8901  0.6507 -0.0957
  206MOL0     H27775   4.035   1.478   0.794  4.7420  1.4003  1.2990
  206MOL0     H27776   4.092   1.764   0.708  0.6804 -0.4427 -2.2441
  206MOL0     H27777   4.209   1.644   0.770 -0.5390  1.8241  2.0352
  206MOL0     H27778   4.159   1.492   0.572 -0.6694 -0.6826  1.1533
  206MOL0     H27779   4.062   1.615   0.510 -1.2496 -1.6802  0.2446
  206MOL0     H27780   4.348   1.623   0.584  0.3017 -1.2614 -1.2627
  206MOL0     H27781   4.254   1.772   0.521 -1.5668  0.4919  1.1646
  206MOL0     H27782   4.218   1.672   0.304  0.5496 -0.4978 -0.8014
  206MOL0     H27783   4.269   1.512   0.354  1.4221  0.6764 -2.5719
  206MOL0     H27784   4.441   1.605   0.209  1.0444  1.4827 -0.6164
  206MOL0     H27785   4.426   1.757   0.283 -1.3757 -0.2440 -2.4994
  206MOL0     H27786   4.529   1.520   0.446 -1.1778 -0.1218  1.2522
  206MOL0     H27787   4.538   1.698   0.489  0.7232  0.2509 -0.7337
  206MOL0     H27788   4.678   1.536   0.283  2.8257 -0.2622  0.2978
  206MOL0     H27789   4.651   1.712   0.272  0.7488 -1.7409 -2.5672
  206MOL0     H27790   3.828   1.471   0.956 -0.2909  0.1416  0.0482
  206MOL0     H27791   3.586   1.411   1.041 -2.6675  0.2838  0.4710
  206MOL0     H27792   3.209   1.254   0.960 -0.4313 -0.2623  1.2592
  206MOL0     H27793   3.015   1.162   1.086 -1.8111 -0.0527  3.3284
  206MOL0     H27794   2.380   2.073   2.338  0.7146  0.9938 -0.0488
  206MOL0     H27795   2.146   2.159   2.339  2.0769  0.5564  0.2333
  206MOL0     H27796   1.885   2.358   1.820 -0.6727  1.2706 -0.4167
  206MOL0     H27797   1.640   2.403   1.784 -0.4119 -2.0567  0.8889
  206MOL0     H27798   1.297   2.459   1.880  1.1199 -1.4082  4.2432
  206MOL0     H27799   1.426   2.403   1.772  4.1780 -0.4489  1.6982
  206MOL0     H27800   1.524   2.635   1.746 -0.1519 -2.7406 -2.0662
  206MOL0     H27801   1.402   2.684   1.872 -1.6696  1.5729 -0.8516
  206MOL0     H27802   1.224   2.631   1.757  0.4330  1.4525  1.5483
  206MOL0     H27803   1.316   2.582   1.615  1.8889 -0.9342 -0.5348
  206MOL0     H27804   1.313   2.872   1.729 -2.8056 -0.9228  0.6214
  206MOL0     H27805   1.435   2.816   1.609 -1.1431 -0.6781 -0.0710
  206MOL0     H27806   1.042   2.803   1.420  1.2844 -1.6533 -1.5254
  206MOL0     H27807   1.569   2.417   2.204  2.9869 -1.8940  3.3130
  206MOL0     H27808   1.831   2.477   2.306 -1.7802  0.6180 -0.5254
  206MOL0     H27809   1.718   2.348   2.346 -0.8629  1.0094 -0.6077
  206MOL0     H27810   1.886   2.301   2.310 -0.0977 -1.2607 -0.6129
  207MOL0     O27811   0.660   2.530   5.284  0.0125 -0.2372 -0.7386
  207MOL0     C27812   0.558   2.577   5.223 -0.7466  0.2856  0.2823
  207MOL0     O27813   0.432   2.570   5.260  0.7878  0.0935  0.3663
  207MOL0     C27814   0.382   2.611   5.382  0.6087  0.3948 -0.4338
  207MOL0     C27815   0.450   2.706   5.456 -0.0801  0.6984 -0.7359
  207MOL0     C27816   0.392   2.777   5.560  0.8210  0.1258 -0.0729
  207MOL0     C27817   0.266   2.737   5.609  0.4790 -0.5969  0.0911
  207MOL0     O27818   0.198   2.813   5.706 -0.5369  0.2742  0.3978
  207MOL0     C27819   0.076   2.760   5.770 -0.0995 -0.6277  1.1066
  207MOL0     C27820   0.012   2.877   5.844  0.2139 -0.6253 -0.9956
  207MOL0     C27821   0.099   2.929   5.956 -0.7833 -0.3726 -0.0730
  207MOL0     C27822   0.038   3.059   6.002 -0.0995  0.0406  0.7878
  207MOL0     C27823   0.121   3.116   6.111  0.5919  0.7942 -0.3458
  207MOL0     C27824   0.084   3.262   6.148  0.1823  0.5345 -0.1394
  207MOL0     C27825   0.150   3.317   6.272  0.4177 -0.5073  0.4579
  207MOL0     C27826   0.112   3.467   6.273 -0.4628  0.8118  0.0436
  207MOL0     N27827   0.167   3.510   6.395 -1.1464 -0.1977 -0.4362
  207MOL0     C27828   0.134   3.486   6.528  0.2288 -0.3778 -0.8527
  207MOL0     C27829   0.218   3.569   6.602  0.5027  0.3803 -0.4466
  207MOL0     C27830   0.191   3.587   6.749 -0.2528 -0.3996  0.2698
  207MOL0     C27831   0.327   3.608   6.835  0.1783 -0.4023  0.8128
  207MOL0     C27832   0.420   3.490   6.829 -0.0673 -1.2169  1.0127
  207MOL0     C27833   0.530   3.505   6.930 -0.2753 -0.6590 -0.0265
  207MOL0     O27834   0.491   3.475   7.064 -0.0091 -0.6513  0.7100
  207MOL0     C27835   0.585   3.495   7.156  0.4634 -0.5903  0.3760
  207MOL0     C27836   0.547   3.517   7.293  0.8280  0.1768  0.7922
  207MOL0     C27837   0.639   3.552   7.394 -0.2339  0.7881 -0.3448
  207MOL0     C27838   0.779   3.555   7.363 -0.4662 -0.1418  0.3264
  207MOL0     C27839   0.868   3.591   7.475 -0.7139  0.1987 -0.2147
  207MOL0     O27840   0.814   3.603   7.602 -0.0607  0.4645  0.4526
  207MOL0     C27841   0.883   3.613   7.720  0.5847  0.6632 -0.1233
  207MOL0     C27842   0.794   3.623   7.832  1.0081 -0.4969  0.2298
  207MOL0     C27843   0.849   3.644   7.962  0.0599  0.7850  0.5852
  207MOL0     C27844   0.982   3.631   7.984 -0.4358  0.5948  1.0832
  207MOL0     O27845   1.058   3.657   8.099  0.4883  0.5075 -0.8976
  207MOL0     C27846   0.994   3.715   8.209  0.7189 -0.8260  0.6578
  207MOL0     C27847   1.100   3.755   8.309 -0.4462  0.2886  0.0181
  207MOL0     C27848   1.036   3.804   8.439  0.8088 -0.4461  0.9296
  207MOL0     C27849   1.128   3.892   8.511 -0.6740  0.0635 -0.4946
  207MOL0     C27850   1.214   3.820   8.626  0.7916 -1.0314  0.3042
  207MOL0     C27851   1.346   3.884   8.670 -0.6772 -0.8774 -0.2182
  207MOL0     C27852   1.352   4.037   8.679 -1.1492  0.2560  0.4977
  207MOL0     C27853   1.475   4.112   8.747  0.7655  1.3024  0.4052
  207MOL0    Cl27854   1.470   4.071   8.923  0.2667 -0.2575 -0.3086
  207MOL0     C27855   1.069   3.631   7.866  0.1654 -0.0751  1.1213
  207MOL0     C27856   1.015   3.621   7.733 -0.3976  0.0489  0.4035
  207MOL0     O27857   0.988   3.572   7.448 -0.0127 -0.4942  0.8198
  207MOL0     C27858   0.814   3.525   7.233 -0.1082  0.6486 -0.2235
  207MOL0     C27859   0.720   3.497   7.131 -0.5218  0.2758  1.1368
  207MOL0     N27860   0.299   3.631   6.514 -0.8257  0.0679 -0.4453
  207MOL0     N27861   0.271   3.599   6.392  0.3393  0.4854 -0.9746
  207MOL0     C27862   0.203   2.627   5.548  0.0971  1.1546  0.5004
  207MOL0     C27863   0.259   2.564   5.434 -0.3855  0.6959  0.5036
  207MOL0     C27864   0.581   2.636   5.090 -0.0709  0.4969  0.6081
  207MOL0     C27865   0.505   2.586   4.979 -0.3790 -0.1280 -0.6735
  207MOL0     C27866   0.529   2.622   4.847  0.2668  0.1757 -0.3460
  207MOL0     C27867   0.633   2.720   4.818  0.2820  0.7572 -0.4116
  207MOL0     O27868   0.669   2.766   4.695  0.0987  0.2940 -0.9967
  207MOL0     C27869   0.636   2.683   4.572 -0.0686  0.6700  0.4924
  207MOL0     C27870   0.736   2.563   4.562  0.1130  0.4747  1.4440
  207MOL0     C27871   0.704   2.455   4.462 -0.2391  0.1465  0.0457
  207MOL0     C27872   0.696   2.313   4.524  0.3096  0.9982 -0.3227
  207MOL0     C27873   0.563   2.290   4.590 -0.5883 -0.2087 -1.2773
  207MOL0     C27874   0.467   2.266   4.660 -0.0392  0.2348 -0.2976
  207MOL0     C27875   0.691   2.782   4.932  0.0900  0.1979 -0.3044
  207MOL0     C27876   0.673   2.747   5.066 -0.1255  0.1042 -0.0266
  207MOL0     C27877   0.748   2.808   5.181  1.0750 -0.1731  0.8073
  207MOL0     H27878   0.553   2.727   5.428 -0.0969  2.3271  0.2832
  207MOL0     H27879   0.455   2.850   5.609  2.0130 -1.0430  0.2109
  207MOL0     H27880   0.002   2.724   5.698  2.8893 -4.4554 -0.4305
  207MOL0     H27881   0.101   2.683   5.843  0.7708  0.3190  1.8366
  207MOL0     H27882  -0.079   2.838   5.889  0.0574  0.7522 -0.0750
  207MOL0     H27883  -0.008   2.956   5.771  2.2259  1.8210  0.8987
  207MOL0     H27884   0.206   2.938   5.936 -1.1533 -0.1829 -2.1463
  207MOL0     H27885   0.091   2.860   6.041 -1.9796  2.3120  2.1671
  207MOL0     H27886   0.037   3.138   5.926  4.1159 -0.8343 -0.4210
  207MOL0     H27887  -0.064   3.039   6.037  0.4835 -2.4976  1.2208
  207MOL0     H27888   0.111   3.046   6.195 -0.1422  0.4067 -0.7399
  207MOL0     H27889   0.224   3.118   6.075  0.8575  1.1379  0.4351
  207MOL0     H27890   0.114   3.328   6.067  1.0661  1.1114  0.6420
  207MOL0     H27891  -0.026   3.261   6.151  0.0951 -3.0785 -0.2372
  207MOL0     H27892   0.258   3.300   6.272  0.3389 -1.0639  1.4574
  207MOL0     H27893   0.115   3.264   6.361 -3.4178  2.3411  0.9416
  207MOL0     H27894   0.173   3.493   6.187 -1.2336 -1.6393 -1.3597
  207MOL0     H27895   0.003   3.474   6.276 -0.5709 -0.7112  2.1146
  207MOL0     H27896   0.049   3.431   6.566  0.5236 -0.9163 -0.9658
  207MOL0     H27897   0.125   3.674   6.758 -1.4319 -1.2072 -0.3028
  207MOL0     H27898   0.139   3.498   6.784  0.8358 -1.2666 -0.2762
  207MOL0     H27899   0.382   3.689   6.787  0.7778 -0.2569  1.7202
  207MOL0     H27900   0.311   3.635   6.939  0.0958 -0.3440  0.7849
  207MOL0     H27901   0.456   3.500   6.727 -0.4764  2.8790  1.0887
  207MOL0     H27902   0.372   3.393   6.840 -2.0070 -0.6815 -1.8536
  207MOL0     H27903   0.568   3.607   6.933 -0.3911 -0.5918  3.9203
  207MOL0     H27904   0.603   3.432   6.895  0.4848 -0.0992  0.3680
  207MOL0     H27905   0.446   3.487   7.320  1.2994 -1.3356  1.0048
  207MOL0     H27906   0.600   3.563   7.494  1.7330 -0.5107  0.6467
  207MOL0     H27907   0.687   3.626   7.814  0.6416 -0.1370  2.2459
  207MOL0     H27908   0.778   3.648   8.044  0.3803  0.1000  0.9061
  207MOL0     H27909   0.937   3.805   8.183  1.8774  0.1478  1.3492
  207MOL0     H27910   0.915   3.650   8.248  2.5208 -1.5032  3.4759
  207MOL0     H27911   1.160   3.668   8.334  0.5655  1.0336  0.2618
  207MOL0     H27912   1.153   3.832   8.252 -0.0206 -0.7859 -1.0618
  207MOL0     H27913   0.947   3.861   8.410 -1.6076 -1.5790  5.1560
  207MOL0     H27914   0.989   3.723   8.496 -1.5681  0.0264 -0.2185
  207MOL0     H27915   1.065   3.969   8.557 -1.5219 -0.1150 -1.3142
  207MOL0     H27916   1.207   3.938   8.452 -1.1907  1.2338 -0.3202
  207MOL0     H27917   1.238   3.722   8.585 -0.5963 -0.7340 -1.3388
  207MOL0     H27918   1.147   3.819   8.713  0.7055 -1.1637  0.2361
  207MOL0     H27919   1.361   3.862   8.776  0.5485 -0.3160 -0.2580
  207MOL0     H27920   1.425   3.827   8.621 -0.9937 -3.0810  1.6675
  207MOL0     H27921   1.259   4.060   8.732 -0.7549 -0.3404  1.4838
  207MOL0     H27922   1.348   4.066   8.574 -0.3173  1.2567  0.7175
  207MOL0     H27923   1.569   4.084   8.699 -0.0806 -0.0308 -0.5242
  207MOL0     H27924   1.457   4.218   8.727  0.5040  0.9038 -1.7525
  207MOL0     H27925   1.177   3.636   7.878  0.4730  1.5224 -1.6323
  207MOL0     H27926   1.089   3.638   7.656  0.2311  2.4527  1.4355
  207MOL0     H27927   0.919   3.522   7.208 -0.4436 -1.0867 -1.6547
  207MOL0     H27928   0.756   3.472   7.032 -0.6879 -4.3892  2.0432
  207MOL0     H27929   0.096   2.618   5.562  0.2506  1.6255  2.2185
  207MOL0     H27930   0.208   2.481   5.387  0.3724 -0.5039  1.7237
  207MOL0     H27931   0.432   2.509   5.000  0.4374 -0.2769  2.0021
  207MOL0     H27932   0.461   2.591   4.768 -2.1858  3.4419  0.2644
  207MOL0     H27933   0.660   2.745   4.485  2.4145 -2.4170 -1.2303
  207MOL0     H27934   0.535   2.642   4.573 -0.7110  2.1174  2.6287
  207MOL0     H27935   0.740   2.515   4.661 -3.7000 -3.0071  0.1795
  207MOL0     H27936   0.828   2.614   4.532 -1.7781  2.1160 -2.0821
  207MOL0     H27937   0.789   2.449   4.392 -0.7096  1.2625 -0.6539
  207MOL0     H27938   0.615   2.470   4.401  1.1383 -2.9683 -3.1161
  207MOL0     H27939   0.696   2.243   4.440  4.0104  2.0154 -1.3838
  207MOL0     H27940   0.774   2.305   4.601  0.7115  4.1841 -0.2740
  207MOL0     H27941   0.393   2.245   4.734  0.5974 -0.5075  0.1373
  207MOL0     H27942   0.776   2.848   4.915  0.6125 -0.1638  0.8361
  207MOL0     H27943   0.799   2.896   5.141 -1.1980  0.1779 -1.5696
  207MOL0     H27944   0.679   2.853   5.253  0.1426 -1.7430  0.9322
  207MOL0     H27945   0.813   2.730   5.220  1.7108  0.0429  0.1933
  208MOL0     O27946   0.837   5.422   5.255  0.3169  0.3042 -0.2319
  208MOL0     C27947   0.786   5.537   5.245  0.6210  0.1562 -0.6687
  208MOL0     O27948   0.852   5.639   5.252  0.5562 -0.0282 -0.6879
  208MOL0     C27949   0.986   5.636   5.278  0.2983  0.0964 -0.7110
  208MOL0     C27950   1.022   5.598   5.411 -0.6917 -0.8461 -0.4002
  208MOL0     C27951   1.158   5.581   5.434  0.5445 -0.2726 -0.4525
  208MOL0     C27952   1.260   5.597   5.339 -0.2782  0.6094  0.4710
  208MOL0     O27953   1.390   5.567   5.368 -0.8049 -0.3128  0.1770
  208MOL0     C27954   1.422   5.459   5.458 -0.6990  0.2401 -0.3815
  208MOL0     C27955   1.561   5.397   5.436 -0.0690 -0.0271 -0.6625
  208MOL0     C27956   1.578   5.264   5.520 -0.4795  0.5183 -0.4049
  208MOL0     C27957   1.591   5.283   5.664  0.0420 -0.0618 -0.7619
  208MOL0     C27958   1.615   5.161   5.749 -0.6969  0.5065 -0.9392
  208MOL0     C27959   1.685   5.173   5.881  0.5669 -0.2841 -0.3026
  208MOL0     C27960   1.647   5.290   5.970  0.0230  0.6041 -0.7746
  208MOL0     C27961   1.730   5.278   6.100  0.7061  0.6592  0.2174
  208MOL0     N27962   1.651   5.285   6.221 -0.2090 -0.0901  0.0144
  208MOL0     C27963   1.577   5.182   6.274  0.1154 -0.0444 -0.3639
  208MOL0     C27964   1.493   5.242   6.368 -0.2739 -0.3060 -0.2700
  208MOL0     C27965   1.394   5.159   6.452 -0.0660  1.0688 -0.4678
  208MOL0     C27966   1.258   5.148   6.383  0.2891 -0.4545 -0.1689
  208MOL0     C27967   1.201   5.292   6.347  1.4678 -0.4034 -0.3767
  208MOL0     C27968   1.137   5.371   6.469 -1.2249 -0.4138  0.4409
  208MOL0     O27969   1.008   5.337   6.491 -0.1080  0.4331  0.2504
  208MOL0     C27970   0.988   5.226   6.567  0.5326  0.1982  0.3248
  208MOL0     C27971   0.998   5.225   6.706  0.8423 -0.3072 -0.3244
  208MOL0     C27972   0.987   5.095   6.770  0.0729  0.0738 -0.2687
  208MOL0     C27973   0.945   4.974   6.700  0.0148 -0.3351  0.3982
  208MOL0     C27974   0.950   4.850   6.775 -0.5215  1.3396  0.2796
  208MOL0     O27975   0.929   4.740   6.692 -0.5493 -0.4462 -0.0111
  208MOL0     C27976   0.908   4.616   6.740  0.0123 -0.2328  0.1074
  208MOL0     C27977   1.017   4.536   6.783 -0.3142  0.6675  1.0716
  208MOL0     C27978   0.989   4.412   6.841 -0.9741 -0.0676 -0.4041
  208MOL0     C27979   0.858   4.362   6.852  0.2215  0.3877  0.2418
  208MOL0     O27980   0.823   4.233   6.894  0.3599  0.1655  0.0662
  208MOL0     C27981   0.926   4.142   6.939  0.8265  0.1212  0.1795
  208MOL0     C27982   0.851   4.030   7.019 -0.8716  0.7456  0.3515
  208MOL0     C27983   0.964   3.946   7.084  0.1020  0.2363 -0.9631
  208MOL0     C27984   0.975   3.961   7.234  0.1847  0.6448  0.8512
  208MOL0     C27985   1.093   3.884   7.307  0.1183  0.1007  1.2898
  208MOL0     C27986   1.215   3.968   7.274 -0.2371  0.6946  1.2163
  208MOL0     C27987   1.346   3.892   7.296 -0.3968 -0.1347 -0.5928
  208MOL0     C27988   1.416   3.934   7.423  0.0492  0.0571 -0.6618
  208MOL0    Cl27989   1.554   3.824   7.444  0.1224  0.0203  0.0396
  208MOL0     C27990   0.756   4.449   6.814 -0.0555  0.0595  1.1972
  208MOL0     C27991   0.784   4.572   6.752 -0.4643 -0.1770  0.3430
  208MOL0     O27992   0.954   4.840   6.897 -0.0045  0.4076 -0.3039
  208MOL0     C27993   0.922   4.992   6.566  0.1871  0.0743 -0.2783
  208MOL0     C27994   0.941   5.113   6.500  0.7071  0.6623  0.4292
  208MOL0     N27995   1.533   5.375   6.381 -0.2032  0.6650 -1.1114
  208MOL0     N27996   1.635   5.400   6.295  0.3909 -0.2260  1.4427
  208MOL0     C27997   1.220   5.633   5.216 -0.0076  0.2142  1.0872
  208MOL0     C27998   1.084   5.659   5.191 -0.0992  0.1558  0.3895
  208MOL0     C27999   0.644   5.551   5.221 -0.0371  0.0775 -0.7514
  208MOL0     C28000   0.550   5.456   5.266 -0.0714 -0.1130  0.2407
  208MOL0     C28001   0.418   5.453   5.249  0.5228  0.8403 -0.2329
  208MOL0     C28002   0.350   5.550   5.175 -0.1794 -0.8238  0.1582
  208MOL0     O28003   0.214   5.563   5.172  0.6501  0.0855 -0.0078
  208MOL0     C28004   0.165   5.657   5.257  0.0590 -0.5784  0.3586
  208MOL0     C28005   0.071   5.587   5.347  0.4056 -0.3634  0.1089
  208MOL0     C28006   0.135   5.553   5.479 -1.0385 -0.7505  0.5798
  208MOL0     C28007   0.050   5.499   5.580  1.2896 -0.4796  0.5259
  208MOL0     C28008   0.015   5.367   5.538 -0.7585  0.7099 -0.6254
  208MOL0     C28009  -0.027   5.251   5.512 -0.6080 -0.3294  0.3035
  208MOL0     C28010   0.438   5.647   5.121  0.7949 -1.1531  0.5267
  208MOL0     C28011   0.585   5.647   5.135  0.7298 -0.5256  0.1381
  208MOL0     C28012   0.666   5.753   5.062  0.0643  0.5361 -0.4888
  208MOL0     H28013   0.947   5.583   5.488 -2.9245  0.5568 -2.1646
  208MOL0     H28014   1.184   5.560   5.538  2.2906 -0.0929 -0.8218
  208MOL0     H28015   1.414   5.498   5.560  1.8429  1.7783 -0.7122
  208MOL0     H28016   1.354   5.374   5.441  2.5729 -2.2154 -2.3667
  208MOL0     H28017   1.644   5.465   5.458  0.2956 -1.0367  1.3756
  208MOL0     H28018   1.562   5.366   5.331 -2.3834 -2.5550 -0.0608
  208MOL0     H28019   1.668   5.215   5.484 -0.5734 -0.9442  1.2342
  208MOL0     H28020   1.496   5.195   5.496  0.3095 -0.0073 -1.7102
  208MOL0     H28021   1.675   5.351   5.683 -3.2342  3.8943  1.2252
  208MOL0     H28022   1.501   5.336   5.694 -1.4121 -1.9604 -1.5843
  208MOL0     H28023   1.518   5.113   5.766 -1.0527  1.2783 -0.7208
  208MOL0     H28024   1.669   5.093   5.683 -1.8054 -0.9611 -0.3912
  208MOL0     H28025   1.670   5.085   5.944 -0.8011  1.3048  1.7607
  208MOL0     H28026   1.791   5.184   5.855  0.1382  1.7394 -1.4199
  208MOL0     H28027   1.539   5.283   5.988 -0.0991 -0.8031 -1.8739
  208MOL0     H28028   1.668   5.386   5.921 -0.9145  0.9131 -0.6066
  208MOL0     H28029   1.800   5.193   6.103  3.3643  2.7088  0.3855
  208MOL0     H28030   1.791   5.367   6.117 -1.3946  2.4474 -1.1356
  208MOL0     H28031   1.571   5.077   6.246  0.2995 -0.0875 -0.2435
  208MOL0     H28032   1.428   5.056   6.465 -2.2972  0.0541 -2.1114
  208MOL0     H28033   1.388   5.209   6.549 -1.1977 -0.3581  0.2511
  208MOL0     H28034   1.268   5.088   6.292  0.8472  1.5854 -1.5435
  208MOL0     H28035   1.186   5.092   6.444 -0.4565 -1.0222 -1.5229
  208MOL0     H28036   1.122   5.278   6.273 -2.1122  3.2378  2.3540
  208MOL0     H28037   1.284   5.343   6.297  2.0408 -1.3368 -0.4173
  208MOL0     H28038   1.142   5.476   6.439 -0.0354 -1.2585 -2.6600
  208MOL0     H28039   1.191   5.364   6.564 -1.4026 -0.5154  0.5367
  208MOL0     H28040   1.041   5.312   6.754 -2.4089  1.1470  0.2185
  208MOL0     H28041   1.002   5.091   6.878  1.8773 -1.9777 -0.5190
  208MOL0     H28042   1.117   4.578   6.775 -0.4348  0.7956  0.1925
  208MOL0     H28043   1.069   4.344   6.865 -0.7892  0.0831 -0.5883
  208MOL0     H28044   0.978   4.096   6.855  0.9372  0.1083  0.2548
  208MOL0     H28045   1.004   4.186   7.002 -0.0017  0.8923  0.6850
  208MOL0     H28046   0.792   4.075   7.099 -0.7024  2.3078 -0.3688
  208MOL0     H28047   0.797   3.963   6.951  2.9556 -0.6536 -1.5604
  208MOL0     H28048   0.930   3.842   7.073 -0.7535  0.1728  1.5807
  208MOL0     H28049   1.058   3.960   7.029  0.2282 -0.6850 -1.0075
  208MOL0     H28050   0.884   3.920   7.279 -1.8967  0.1434 -3.3158
  208MOL0     H28051   0.982   4.069   7.249  0.3591  0.3233  3.5005
  208MOL0     H28052   1.092   3.777   7.282  0.2716  0.3407  0.2268
  208MOL0     H28053   1.079   3.898   7.415  0.8450  1.0565  1.2687
  208MOL0     H28054   1.210   4.003   7.171 -0.7180  0.0356  1.0109
  208MOL0     H28055   1.210   4.050   7.347 -0.7796  0.9019  0.9478
  208MOL0     H28056   1.413   3.924   7.215  0.3880  0.6878  0.3571
  208MOL0     H28057   1.338   3.783   7.288 -1.5726 -0.3637  2.4063
  208MOL0     H28058   1.447   4.039   7.425  1.2798 -0.2495 -1.9962
  208MOL0     H28059   1.349   3.919   7.508  0.2826  1.7250 -0.1590
  208MOL0     H28060   0.657   4.413   6.840 -1.9240  4.0721  0.3738
  208MOL0     H28061   0.716   4.648   6.716  1.2675  1.0995 -0.3917
  208MOL0     H28062   0.892   4.904   6.509  1.7664 -1.7204  1.5173
  208MOL0     H28063   0.937   5.132   6.394  2.2039  2.0509  0.5742
  208MOL0     H28064   1.297   5.630   5.139  1.2608 -1.6756  2.3411
  208MOL0     H28065   1.046   5.695   5.096 -0.0444 -0.4418  0.1352
  208MOL0     H28066   0.580   5.377   5.335 -0.4046  1.3929  2.2044
  208MOL0     H28067   0.372   5.365   5.291 -0.9373  1.8923  0.4791
  208MOL0     H28068   0.128   5.742   5.199 -1.0413 -0.2161  1.5408
  208MOL0     H28069   0.242   5.705   5.318  1.0482 -1.5027 -0.1273
  208MOL0     H28070   0.030   5.494   5.305 -1.2252  0.3973 -0.0473
  208MOL0     H28071  -0.004   5.663   5.370  1.8077  0.3944  2.4512
  208MOL0     H28072   0.180   5.640   5.526 -1.8179 -1.7743  3.4075
  208MOL0     H28073   0.205   5.474   5.451  2.1076  2.2723 -0.6976
  208MOL0     H28074   0.102   5.489   5.675 -0.3836 -3.7211  1.2186
  208MOL0     H28075  -0.036   5.565   5.599  2.1994  1.0354 -0.3815
  208MOL0     H28076  -0.060   5.155   5.480 -3.0600 -0.0307  1.6957
  208MOL0     H28077   0.401   5.723   5.054  2.5344 -0.1305  0.6618
  208MOL0     H28078   0.599   5.806   4.993  1.1198  2.0572 -0.4135
  208MOL0     H28079   0.723   5.820   5.127  1.4396 -2.4674  1.5787
  208MOL0     H28080   0.731   5.701   4.992  0.1495  0.1194 -0.1026
  209MOL0     O28081   0.327   8.556   3.467 -0.3805 -0.3118 -0.5722
  209MOL0     C28082   0.337   8.467   3.389 -0.4736 -0.2471 -0.6727
  209MOL0     O28083   0.283   8.468   3.263  0.4035 -0.6269  0.2932
  209MOL0     C28084   0.256   8.581   3.197 -0.7828 -0.5608 -0.5871
  209MOL0     C28085   0.199   8.568   3.076 -0.0424  0.1487 -0.3253
  209MOL0     C28086   0.166   8.682   2.998  0.3001  0.0036 -0.5535
  209MOL0     C28087   0.187   8.817   3.040  0.0608 -0.1413  0.0998
  209MOL0     O28088   0.137   8.914   2.962  1.1392  0.8620 -0.4040
  209MOL0     C28089   0.226   9.015   2.934  0.0808  0.1726 -0.3249
  209MOL0     C28090   0.153   9.132   2.869  0.5969 -0.1098 -0.7693
  209MOL0     C28091   0.026   9.166   2.954 -0.0284 -1.8080 -0.4990
  209MOL0     C28092  -0.050   9.296   2.907 -0.0466  0.0361 -0.0167
  209MOL0     C28093  -0.166   9.333   2.999 -0.0482  1.0080  0.0678
  209MOL0     C28094  -0.270   9.220   3.011 -0.3976 -1.1014  0.0508
  209MOL0     C28095  -0.395   9.275   3.090  0.0485  0.1624 -0.6675
  209MOL0     C28096  -0.368   9.293   3.248  0.2045 -0.4685  0.2163
  209MOL0     N28097  -0.360   9.162   3.315  0.9062 -0.0706 -0.6703
  209MOL0     C28098  -0.255   9.075   3.341 -0.6280 -0.3368  0.0194
  209MOL0     C28099  -0.295   8.997   3.447  0.8817  0.0508  0.8848
  209MOL0     C28100  -0.221   8.885   3.519  1.0506  0.7811  0.7740
  209MOL0     C28101  -0.130   8.805   3.429 -0.7482 -0.3443  0.3016
  209MOL0     C28102  -0.191   8.705   3.321 -0.0014  0.0312  0.2035
  209MOL0     C28103  -0.072   8.624   3.257  1.0849 -0.9053 -1.0018
  209MOL0     O28104  -0.118   8.521   3.158  0.4016 -0.3546 -0.6903
  209MOL0     C28105  -0.192   8.417   3.184  0.4210  0.2477 -0.1303
  209MOL0     C28106  -0.248   8.329   3.084 -0.5258  0.5466  0.0774
  209MOL0     C28107  -0.284   8.198   3.114  0.6133  0.0525  0.9431
  209MOL0     C28108  -0.285   8.146   3.247  0.2194  0.1208 -0.2494
  209MOL0     C28109  -0.333   8.012   3.273 -0.1425 -0.5890 -0.4009
  209MOL0     O28110  -0.316   7.957   3.403  0.6523  0.2499 -0.3306
  209MOL0     C28111  -0.366   7.837   3.442 -0.5823 -0.1990  0.3437
  209MOL0     C28112  -0.393   7.826   3.585  0.4310 -0.0707  0.3845
  209MOL0     C28113  -0.453   7.709   3.638 -1.0786  1.1235  0.8227
  209MOL0     C28114  -0.474   7.597   3.551  0.6759 -0.3478 -0.3976
  209MOL0     O28115  -0.515   7.481   3.615 -0.0990 -0.5675 -0.0874
  209MOL0     C28116  -0.604   7.395   3.536 -0.1114 -0.3171 -0.2178
  209MOL0     C28117  -0.695   7.340   3.644  1.3338  0.1012 -0.2074
  209MOL0     C28118  -0.778   7.216   3.602 -0.5369 -0.6905  0.1513
  209MOL0     C28119  -0.869   7.158   3.713 -0.1099 -0.0395 -0.1229
  209MOL0     C28120  -0.782   7.123   3.837 -0.2743 -0.5575  0.0603
  209MOL0     C28121  -0.827   6.990   3.891  0.0625 -0.4221 -0.1095
  209MOL0     C28122  -0.751   6.941   4.019 -0.6102 -0.3595 -0.0267
  209MOL0     C28123  -0.781   6.792   4.053 -1.0842 -0.6095 -0.0202
  209MOL0    Cl28124  -0.931   6.785   4.162  0.1743  0.0065  0.0146
  209MOL0     C28125  -0.455   7.617   3.418  0.6318  0.4870  0.4670
  209MOL0     C28126  -0.399   7.731   3.359 -0.3036 -0.6490 -0.2984
  209MOL0     O28127  -0.389   7.960   3.180  0.4525 -0.9612 -0.4284
  209MOL0     C28128  -0.232   8.229   3.347  0.9509  0.5101 -0.1415
  209MOL0     C28129  -0.193   8.361   3.319 -0.8665 -0.0838 -0.0179
  209MOL0     N28130  -0.429   9.016   3.470  0.2425 -0.0877 -0.4648
  209MOL0     N28131  -0.461   9.117   3.393  0.0944  0.1531  0.1395
  209MOL0     C28132   0.273   8.817   3.153  0.3748 -0.1021 -0.2537
  209MOL0     C28133   0.313   8.711   3.229  0.7731  0.4562 -0.3421
  209MOL0     C28134   0.406   8.341   3.440 -0.1579 -0.5577 -0.8005
  209MOL0     C28135   0.410   8.309   3.583 -0.0473 -0.3000  0.5697
  209MOL0     C28136   0.464   8.192   3.627 -0.0550 -0.0578  0.4493
  209MOL0     C28137   0.521   8.097   3.545 -0.0103 -0.3300  0.6448
  209MOL0     O28138   0.571   7.987   3.597 -0.6645 -0.2455 -0.4549
  209MOL0     C28139   0.576   7.873   3.514  0.6593  0.8261  0.0509
  209MOL0     C28140   0.593   7.758   3.613 -0.1502 -0.4818 -0.0941
  209MOL0     C28141   0.456   7.729   3.670  0.0879  0.4292 -0.3943
  209MOL0     C28142   0.461   7.650   3.805 -0.6660 -1.1263  0.6641
  209MOL0     C28143   0.518   7.736   3.907 -0.1427 -0.9816  0.5596
  209MOL0     C28144   0.564   7.824   3.988 -0.0648 -0.1274 -0.0058
  209MOL0     C28145   0.527   8.137   3.410 -0.8390 -1.2228 -0.0161
  209MOL0     C28146   0.467   8.247   3.355 -0.3438  0.2655 -0.4544
  209MOL0     C28147   0.488   8.260   3.205 -0.2930 -0.7557  0.8976
  209MOL0     H28148   0.170   8.472   3.035  4.3276 -1.8049  0.6210
  209MOL0     H28149   0.123   8.662   2.900  0.6029  0.8991 -0.8839
  209MOL0     H28150   0.263   9.052   3.031 -0.6201  0.9512 -0.3465
  209MOL0     H28151   0.311   8.975   2.878 -1.7606 -0.3224 -2.9104
  209MOL0     H28152   0.117   9.107   2.768  2.8570 -3.0649 -0.9987
  209MOL0     H28153   0.228   9.211   2.865 -0.6634  1.2426  0.8419
  209MOL0     H28154   0.060   9.175   3.058 -2.1043 -1.0048  0.1504
  209MOL0     H28155  -0.052   9.091   2.966 -1.4970 -0.1360  1.1203
  209MOL0     H28156   0.018   9.380   2.894 -1.6941  1.4095 -0.0720
  209MOL0     H28157  -0.099   9.280   2.810 -2.0226 -1.1540  1.1198
  209MOL0     H28158  -0.114   9.347   3.094  0.3565 -4.4084  0.9647
  209MOL0     H28159  -0.213   9.427   2.970 -0.2891  1.3626  1.5642
  209MOL0     H28160  -0.283   9.176   2.912  1.0192 -1.4033 -0.0184
  209MOL0     H28161  -0.225   9.133   3.059  1.2301 -0.6808 -0.6563
  209MOL0     H28162  -0.475   9.201   3.078  0.5011 -0.4227 -0.1684
  209MOL0     H28163  -0.425   9.373   3.051 -0.0199  0.8899  1.0962
  209MOL0     H28164  -0.277   9.352   3.263  0.5441 -0.3132 -2.0700
  209MOL0     H28165  -0.450   9.352   3.289  2.6907  3.3571  0.2042
  209MOL0     H28166  -0.153   9.074   3.306  0.0759  0.4818  1.9175
  209MOL0     H28167  -0.184   8.925   3.614 -3.6742  1.6458  2.5757
  209MOL0     H28168  -0.291   8.808   3.552 -0.0990  0.5418 -1.9747
  209MOL0     H28169  -0.062   8.866   3.370  0.4725  1.1177  3.0215
  209MOL0     H28170  -0.050   8.759   3.487  3.2275  2.9011 -2.0518
  209MOL0     H28171  -0.255   8.755   3.248  0.8426  1.6983  0.5531
  209MOL0     H28172  -0.253   8.641   3.384  0.3898  0.3978  0.9908
  209MOL0     H28173  -0.020   8.574   3.339 -0.5163  0.9754  1.2905
  209MOL0     H28174  -0.014   8.703   3.209  0.6822 -1.1545 -1.9170
  209MOL0     H28175  -0.219   8.346   2.981 -0.4140 -0.9487 -0.1600
  209MOL0     H28176  -0.310   8.140   3.027 -0.2458  1.7468  0.0091
  209MOL0     H28177  -0.345   7.895   3.653  0.5724  1.1751 -0.9310
  209MOL0     H28178  -0.481   7.692   3.741 -4.7495 -0.2558 -0.2293
  209MOL0     H28179  -0.654   7.462   3.465 -1.6993  1.8113  2.7042
  209MOL0     H28180  -0.567   7.304   3.488 -1.3654 -2.0332  1.8758
  209MOL0     H28181  -0.637   7.319   3.734 -1.1592 -2.4779  0.9266
  209MOL0     H28182  -0.770   7.415   3.670  0.6557 -1.0925  1.4935
  209MOL0     H28183  -0.830   7.230   3.507  1.2795 -3.3370 -1.3339
  209MOL0     H28184  -0.701   7.142   3.582 -0.1967 -0.0343 -1.0570
  209MOL0     H28185  -0.907   7.064   3.670 -3.3483  1.9695 -2.0660
  209MOL0     H28186  -0.955   7.219   3.743 -1.2371 -2.0313  0.8937
  209MOL0     H28187  -0.782   7.203   3.912  1.7249 -0.7382  0.2944
  209MOL0     H28188  -0.676   7.124   3.812 -0.0214 -0.6392  1.0880
  209MOL0     H28189  -0.930   7.004   3.925  1.0936  6.1093  1.7687
  209MOL0     H28190  -0.834   6.914   3.813 -3.0503  1.3133 -1.6781
  209MOL0     H28191  -0.764   7.014   4.099  1.6887 -0.2651  0.3391
  209MOL0     H28192  -0.644   6.949   3.998 -1.2193  1.6155 -2.9540
  209MOL0     H28193  -0.792   6.731   3.964  5.0008 -3.1489  0.4705
  209MOL0     H28194  -0.692   6.751   4.103  0.3582 -0.7984 -2.5797
  209MOL0     H28195  -0.465   7.525   3.361  0.9151  0.4160  0.5289
  209MOL0     H28196  -0.386   7.733   3.252 -1.4103  2.9627 -0.5262
  209MOL0     H28197  -0.220   8.186   3.446  2.0981  1.1930  0.0322
  209MOL0     H28198  -0.166   8.423   3.404 -0.9007 -1.7874  1.2770
  209MOL0     H28199   0.294   8.914   3.197  1.3802  1.4843 -3.8322
  209MOL0     H28200   0.374   8.728   3.317  1.0534  1.6067 -0.7413
  209MOL0     H28201   0.361   8.370   3.658 -2.6401 -1.2102 -0.2481
  209MOL0     H28202   0.465   8.169   3.733  3.4565  0.8092  0.7392
  209MOL0     H28203   0.666   7.878   3.452 -0.1049 -0.1238 -1.1995
  209MOL0     H28204   0.485   7.858   3.455  0.1215 -2.2105  1.4102
  209MOL0     H28205   0.661   7.782   3.695 -3.7042 -0.1598  3.0113
  209MOL0     H28206   0.638   7.672   3.563  0.1492 -2.7130  3.6731
  209MOL0     H28207   0.399   7.669   3.599 -1.9466 -0.2665  1.6857
  209MOL0     H28208   0.396   7.820   3.680  1.2635  1.1756  0.0463
  209MOL0     H28209   0.360   7.633   3.843 -0.1178  0.9023  3.3059
  209MOL0     H28210   0.513   7.554   3.800  1.7830  0.1723 -0.8557
  209MOL0     H28211   0.591   7.907   4.050 -0.5073 -1.0776  1.5230
  209MOL0     H28212   0.575   8.075   3.334  0.3587  0.4165 -0.6533
  209MOL0     H28213   0.575   8.197   3.184 -1.5478 -1.9837 -0.7991
  209MOL0     H28214   0.409   8.226   3.138  2.3615 -0.7425 -2.4926
  209MOL0     H28215   0.513   8.364   3.180 -2.6304 -0.7883 -2.1478
  210MOL0     O28216   5.823   5.821   5.158  0.2791 -1.5836 -0.7530
  210MOL0     C28217   5.923   5.847   5.225  0.3665  0.7386  0.3486
  210MOL0     O28218   5.922   5.841   5.361  0.1997 -0.1183  0.0382
  210MOL0     C28219   5.817   5.801   5.443 -0.2124 -0.2960  0.6758
  210MOL0     C28220   5.829   5.672   5.504  0.3755 -0.4339  0.1346
  210MOL0     C28221   5.732   5.629   5.595  0.2455 -1.9794  0.3540
  210MOL0     C28222   5.620   5.713   5.620  0.4424 -0.1190  0.1001
  210MOL0     O28223   5.519   5.690   5.712  0.3445 -0.2880  0.1885
  210MOL0     C28224   5.504   5.556   5.767 -0.5420 -0.1499 -0.0780
  210MOL0     C28225   5.592   5.530   5.887  0.0223  1.4400 -1.1184
  210MOL0     C28226   5.604   5.395   5.943  0.3501 -0.4870  0.1448
  210MOL0     C28227   5.724   5.396   6.047  0.3000  0.4330 -0.0412
  210MOL0     C28228   5.727   5.259   6.112  0.4821  0.3229  0.1095
  210MOL0     C28229   5.815   5.267   6.238 -0.5958  0.7659  0.2864
  210MOL0     C28230   5.968   5.267   6.199 -0.0207  0.9982 -0.1243
  210MOL0     C28231   6.049   5.166   6.287 -0.1524  0.2547  0.4179
  210MOL0     N28232   5.982   5.043   6.302  0.1946 -0.3450 -0.2042
  210MOL0     C28233   5.928   4.971   6.200  0.9206 -0.2426  0.0972
  210MOL0     C28234   5.901   4.858   6.269 -0.5869 -0.4267 -0.0746
  210MOL0     C28235   5.845   4.739   6.197 -0.1640  0.5582  0.2642
  210MOL0     C28236   5.712   4.778   6.122 -0.9142 -0.3839  0.1522
  210MOL0     C28237   5.682   4.663   6.021 -0.9357  1.0755  1.2585
  210MOL0     C28238   5.573   4.703   5.921  0.3271  0.3565  0.2327
  210MOL0     O28239   5.531   4.592   5.841 -0.4978  0.2868 -0.5732
  210MOL0     C28240   5.618   4.540   5.746 -0.8659  0.5516  0.1325
  210MOL0     C28241   5.642   4.410   5.756 -0.0304  0.5044 -0.2009
  210MOL0     C28242   5.710   4.340   5.655 -1.0498 -0.1542 -0.2677
  210MOL0     C28243   5.756   4.412   5.540 -0.2338 -0.1241 -0.7766
  210MOL0     C28244   5.845   4.348   5.444  0.2427  0.1932  0.3022
  210MOL0     O28245   5.892   4.223   5.470  0.5526  0.6473  0.0825
  210MOL0     C28246   5.987   4.175   5.386  0.0109  0.7607 -0.4790
  210MOL0     C28247   5.972   4.037   5.355 -0.3032 -0.2422  0.1298
  210MOL0     C28248   6.069   3.971   5.291 -0.9186 -0.4978  0.2266
  210MOL0     C28249   6.191   4.041   5.258 -0.0222  0.4714 -0.3851
  210MOL0     O28250   6.294   3.977   5.185 -0.0670 -0.0158 -0.0283
  210MOL0     C28251   6.345   3.854   5.239  0.0064 -0.3945  1.6561
  210MOL0     C28252   6.496   3.873   5.232 -0.9242  0.5084 -0.5591
  210MOL0     C28253   6.579   3.756   5.299 -0.2148  0.0077  0.4509
  210MOL0     C28254   6.533   3.621   5.236 -0.6140  0.9880 -0.3493
  210MOL0     C28255   6.614   3.507   5.287  0.6477 -0.6225  0.0131
  210MOL0     C28256   6.651   3.396   5.186 -0.1007  0.4440  1.1790
  210MOL0     C28257   6.722   3.287   5.269 -0.4727 -0.6832  0.1416
  210MOL0     C28258   6.806   3.207   5.171  0.0220  0.0668 -0.5411
  210MOL0    Cl28259   6.730   3.061   5.089  0.0165 -0.4861  0.0554
  210MOL0     C28260   6.210   4.172   5.294 -0.3986 -0.3118  0.1974
  210MOL0     C28261   6.106   4.246   5.339  0.5285 -0.2413 -0.5520
  210MOL0     O28262   5.880   4.419   5.346  0.4308  0.6176  0.6735
  210MOL0     C28263   5.735   4.546   5.538 -0.0281 -0.2484  0.1876
  210MOL0     C28264   5.671   4.613   5.640  0.3625  0.2039 -0.2665
  210MOL0     N28265   5.932   4.863   6.400 -0.8995  0.2878  0.6585
  210MOL0     N28266   5.982   4.980   6.423  0.4160  0.1115 -0.4667
  210MOL0     C28267   5.610   5.836   5.558  0.1870  0.6204  0.0545
  210MOL0     C28268   5.713   5.876   5.468  0.4572 -1.2521  0.8464
  210MOL0     C28269   6.048   5.903   5.165 -0.9756  0.0217 -0.6786
  210MOL0     C28270   6.168   5.849   5.211 -0.2302 -0.4494  0.2883
  210MOL0     C28271   6.292   5.876   5.144 -0.7488  0.1130 -0.3696
  210MOL0     C28272   6.291   5.965   5.032  0.1806  0.5227  0.2614
  210MOL0     O28273   6.417   5.989   4.969 -0.0208  0.3914  0.2284
  210MOL0     C28274   6.436   6.111   4.893 -0.0728 -0.6185 -0.5915
  210MOL0     C28275   6.583   6.139   4.879  0.6627  0.6107 -0.1628
  210MOL0     C28276   6.616   6.278   4.832 -0.3938  0.1735  0.2311
  210MOL0     C28277   6.757   6.327   4.843  0.0268 -0.4371 -0.0674
  210MOL0     C28278   6.854   6.230   4.793 -0.2325 -0.1203 -0.1576
  210MOL0     C28279   6.942   6.159   4.750  0.2046  0.0984  0.2888
  210MOL0     C28280   6.175   6.024   4.985  0.3379  1.1191  0.5393
  210MOL0     C28281   6.049   5.988   5.047 -0.4055 -0.2742 -0.8186
  210MOL0     C28282   5.925   6.070   5.011  0.1755  0.0243 -0.4157
  210MOL0     H28283   5.905   5.603   5.470  1.3462  1.3241 -1.4422
  210MOL0     H28284   5.737   5.527   5.632 -0.7346 -2.4536 -0.7503
  210MOL0     H28285   5.399   5.544   5.793 -0.5287  0.1648  0.1285
  210MOL0     H28286   5.526   5.480   5.692 -0.9882  0.4260 -0.8089
  210MOL0     H28287   5.540   5.582   5.969 -0.7914 -1.9098  0.6809
  210MOL0     H28288   5.691   5.573   5.867 -0.3363  2.4458 -0.8016
  210MOL0     H28289   5.624   5.322   5.864  0.0033  0.0134 -0.4070
  210MOL0     H28290   5.513   5.354   5.989 -0.0123  1.5054  1.3168
  210MOL0     H28291   5.816   5.413   5.989 -1.3190  0.8521 -2.6208
  210MOL0     H28292   5.714   5.468   6.129  0.3930 -0.0045  0.3587
  210MOL0     H28293   5.628   5.240   6.154  0.4273  0.4815  0.0523
  210MOL0     H28294   5.761   5.176   6.049  3.3365  1.4003  0.1101
  210MOL0     H28295   5.791   5.354   6.301  0.3825  1.9248 -0.8916
  210MOL0     H28296   5.784   5.198   6.317  1.2269  1.2059  1.4660
  210MOL0     H28297   6.026   5.360   6.203  0.1331  0.9331 -0.8056
  210MOL0     H28298   5.986   5.236   6.096  0.1774  1.4681 -0.2312
  210MOL0     H28299   6.142   5.154   6.231  0.6361  1.0523  1.5310
  210MOL0     H28300   6.067   5.214   6.383  2.2638  3.3131 -1.3703
  210MOL0     H28301   5.928   4.999   6.095 -2.1224 -1.9120 -0.4711
  210MOL0     H28302   5.917   4.697   6.126 -3.7021 -1.8095 -2.2312
  210MOL0     H28303   5.836   4.664   6.276  1.7168 -0.1173 -0.0920
  210MOL0     H28304   5.628   4.797   6.190 -1.3276 -2.4119  0.2621
  210MOL0     H28305   5.739   4.876   6.082 -0.7624  0.1514  1.4993
  210MOL0     H28306   5.645   4.577   6.077  1.5897 -1.9735 -1.4032
  210MOL0     H28307   5.771   4.637   5.963 -1.5969  1.5309  0.0035
  210MOL0     H28308   5.606   4.790   5.863  2.2923 -0.8056 -0.4805
  210MOL0     H28309   5.482   4.733   5.973 -1.8237 -2.4641 -1.5795
  210MOL0     H28310   5.598   4.350   5.834  1.8264  1.0285  1.3470
  210MOL0     H28311   5.724   4.233   5.667  1.4810  0.4050  4.0859
  210MOL0     H28312   5.893   3.985   5.407 -1.9315  2.9882  1.1849
  210MOL0     H28313   6.062   3.865   5.266  1.0113 -0.8051  0.8268
  210MOL0     H28314   6.316   3.843   5.344 -0.9671  0.6413  1.5109
  210MOL0     H28315   6.309   3.773   5.174  1.2765  0.4966 -0.2377
  210MOL0     H28316   6.542   3.879   5.133  0.9616 -1.6698  0.0804
  210MOL0     H28317   6.535   3.962   5.281 -0.2894 -0.5550  0.9416
  210MOL0     H28318   6.682   3.768   5.265 -1.4175 -0.5933 -4.1059
  210MOL0     H28319   6.582   3.755   5.408  1.2188 -0.6194  0.4259
  210MOL0     H28320   6.528   3.628   5.127 -1.0754 -2.1129 -0.6316
  210MOL0     H28321   6.435   3.592   5.275 -0.5658 -0.8792 -1.4758
  210MOL0     H28322   6.574   3.462   5.378  1.7387  0.6497  1.1616
  210MOL0     H28323   6.696   3.556   5.340  1.0035 -1.8954  0.6863
  210MOL0     H28324   6.561   3.344   5.151  1.0944 -1.9315  1.4572
  210MOL0     H28325   6.708   3.443   5.106 -1.1323 -1.0548 -0.5099
  210MOL0     H28326   6.642   3.228   5.315 -1.8796 -0.1705 -1.5265
  210MOL0     H28327   6.786   3.325   5.349  0.1570 -2.9809  0.8079
  210MOL0     H28328   6.835   3.269   5.086  0.4785  1.2555  0.4448
  210MOL0     H28329   6.902   3.180   5.217 -0.2699 -0.1139 -0.0288
  210MOL0     H28330   6.300   4.228   5.270 -0.5520 -0.8349 -1.8129
  210MOL0     H28331   6.113   4.353   5.350 -0.7085  0.1099 -2.6945
  210MOL0     H28332   5.786   4.604   5.461  1.6072 -0.5217  1.0134
  210MOL0     H28333   5.639   4.716   5.651  1.0530  0.1395  5.0268
  210MOL0     H28334   5.524   5.899   5.579  0.6016  1.3186 -0.3211
  210MOL0     H28335   5.708   5.974   5.421  0.7970 -1.3900  0.5166
  210MOL0     H28336   6.178   5.783   5.296 -0.4166  0.9751  1.4569
  210MOL0     H28337   6.379   5.833   5.191 -1.1459  0.0114  0.2849
  210MOL0     H28338   6.389   6.199   4.938 -1.0092 -1.2830 -0.2410
  210MOL0     H28339   6.396   6.098   4.792 -0.2852  1.6373 -0.8564
  210MOL0     H28340   6.610   6.058   4.810  1.8998  0.1278  0.8240
  210MOL0     H28341   6.636   6.118   4.973 -2.6208 -1.8199  1.3561
  210MOL0     H28342   6.552   6.352   4.880  2.3147  2.4992  0.4962
  210MOL0     H28343   6.585   6.268   4.728 -3.3759  1.1187  0.9350
  210MOL0     H28344   6.767   6.424   4.793 -0.4660  0.9632  2.3530
  210MOL0     H28345   6.792   6.359   4.942  0.7197 -1.0847 -0.0927
  210MOL0     H28346   7.009   6.096   4.696 -0.0088 -0.2230  0.3948
  210MOL0     H28347   6.167   6.090   4.900 -3.0151  0.4578  0.2022
  210MOL0     H28348   5.863   6.093   5.098  0.4662 -1.8057  0.3215
  210MOL0     H28349   5.957   6.169   4.975 -1.3720  0.5155 -0.4970
  210MOL0     H28350   5.861   6.008   4.948  0.2172 -3.3071  2.5229
  211MOL0     O28351   5.391   5.690   9.679  0.2881  0.2324 -0.9537
  211MOL0     C28352   5.405   5.611   9.580  0.6272 -0.1996  0.3076
  211MOL0     O28353   5.313   5.551   9.506 -0.8423 -0.1829 -0.4455
  211MOL0     C28354   5.224   5.484   9.576  1.1666 -0.2351 -0.5713
  211MOL0     C28355   5.090   5.521   9.571 -0.0643 -0.1532 -0.0464
  211MOL0     C28356   4.984   5.440   9.614 -0.0354  0.1516  0.1211
  211MOL0     C28357   5.011   5.319   9.683  1.4208 -1.2321  1.1815
  211MOL0     O28358   4.913   5.225   9.707 -0.3970 -0.3798  0.3104
  211MOL0     C28359   4.780   5.266   9.709  0.1312  0.4883  0.6919
  211MOL0     C28360   4.750   5.331   9.847  1.1944  0.7826  0.3046
  211MOL0     C28361   4.608   5.389   9.854 -0.5033  0.1152 -0.9050
  211MOL0     C28362   4.577   5.424  10.004  0.8400 -0.6982  0.4135
  211MOL0     C28363   4.467   5.327  10.051 -0.7417  0.7114 -0.5933
  211MOL0     C28364   4.416   5.365  10.188  0.1443  0.9811 -0.3864
  211MOL0     C28365   4.317   5.268  10.264 -0.4394  0.0524 -0.8311
  211MOL0     C28366   4.333   5.309  10.411 -0.4833  0.0680 -0.0351
  211MOL0     N28367   4.238   5.225  10.492  0.4521 -1.2356 -0.8537
  211MOL0     C28368   4.172   5.287  10.596 -0.6608  0.5254  0.1625
  211MOL0     C28369   4.080   5.201  10.638 -0.1082  1.1658 -0.8200
  211MOL0     C28370   3.980   5.203  10.738  0.3188  0.7788 -0.5196
  211MOL0     C28371   3.978   5.308  10.843 -0.3710  0.5634 -0.4641
  211MOL0     C28372   3.845   5.297  10.906  0.2504  0.6741 -0.0226
  211MOL0     C28373   3.823   5.352  11.043 -0.1525  0.3275 -0.5951
  211MOL0     O28374   3.885   5.261  11.141  0.4219  0.4262 -0.1905
  211MOL0     C28375   3.865   5.299  11.265 -0.1633  0.2407 -0.4352
  211MOL0     C28376   3.758   5.366  11.331 -0.7407 -0.2264  0.3985
  211MOL0     C28377   3.752   5.394  11.467  1.2837 -0.0783  0.4576
  211MOL0     C28378   3.862   5.364  11.550 -0.3363 -0.0070 -0.4040
  211MOL0     C28379   3.871   5.411  11.690 -0.2494  0.0841 -0.0174
  211MOL0     O28380   3.757   5.468  11.749  0.3433  0.0540 -0.6376
  211MOL0     C28381   3.757   5.496  11.883  0.0981 -0.4576  0.3336
  211MOL0     C28382   3.662   5.424  11.970 -0.1725  0.0557  0.1589
  211MOL0     C28383   3.629   5.478  12.097 -0.6372 -0.6842  0.3579
  211MOL0     C28384   3.706   5.581  12.156 -0.2661 -0.3250  0.0558
  211MOL0     O28385   3.686   5.634  12.285  0.5315  0.1202 -0.5706
  211MOL0     C28386   3.596   5.568  12.367 -0.6190  0.3187 -0.9028
  211MOL0     C28387   3.635   5.626  12.512 -0.9077  0.0823 -1.0847
  211MOL0     C28388   3.785   5.593  12.552  0.6018  0.4225  0.2827
  211MOL0     C28389   3.855   5.709  12.620  0.7950  0.6368 -0.3951
  211MOL0     C28390   3.793   5.769  12.744 -0.2301  0.3960 -0.1266
  211MOL0     C28391   3.793   5.695  12.876  0.6352 -0.0845  0.0909
  211MOL0     C28392   3.682   5.736  12.980 -0.7189 -0.3028  0.2340
  211MOL0     C28393   3.715   5.764  13.122 -0.2269  0.0575  0.0252
  211MOL0    Cl28394   3.788   5.932  13.109 -0.1132 -0.0763  0.2522
  211MOL0     C28395   3.806   5.637  12.075 -0.2681 -0.6638 -0.9603
  211MOL0     C28396   3.828   5.606  11.939 -0.5645  0.7772  0.4220
  211MOL0     O28397   3.981   5.388  11.745 -0.5812  0.9111  0.2935
  211MOL0     C28398   3.963   5.286  11.487  0.1148  0.5978 -0.8777
  211MOL0     C28399   3.966   5.261  11.347 -0.4737  1.7012 -0.4540
  211MOL0     N28400   4.097   5.083  10.560 -0.0796  0.4064 -0.5930
  211MOL0     N28401   4.187   5.102  10.474  0.4911 -0.4442 -0.3315
  211MOL0     C28402   5.139   5.282   9.709  0.4596  0.2877 -0.2286
  211MOL0     C28403   5.241   5.364   9.646  0.2221 -0.4852  0.0825
  211MOL0     C28404   5.544   5.583   9.539  0.0203 -0.2851  0.2478
  211MOL0     C28405   5.575   5.452   9.484  0.9210 -0.2434  0.0202
  211MOL0     C28406   5.707   5.423   9.442 -0.2043 -0.0377 -0.8630
  211MOL0     C28407   5.808   5.520   9.464  0.1523 -0.0510 -0.9147
  211MOL0     O28408   5.937   5.473   9.431  0.0650  0.0445  0.5489
  211MOL0     C28409   6.046   5.563   9.450 -0.4247 -0.0223 -0.9354
  211MOL0     C28410   6.181   5.505   9.394  0.6973  0.1077 -0.1834
  211MOL0     C28411   6.240   5.385   9.471 -0.5426 -0.0845  0.3823
  211MOL0     C28412   6.391   5.378   9.465  0.5131  0.2183  0.6534
  211MOL0     C28413   6.461   5.498   9.537  0.4293  1.0860  0.5120
  211MOL0     C28414   6.519   5.583   9.602  0.2585 -0.3415  0.4497
  211MOL0     C28415   5.776   5.642   9.521  0.5424 -0.3647 -0.9068
  211MOL0     C28416   5.645   5.673   9.550 -0.9850  0.2295  0.3259
  211MOL0     C28417   5.623   5.818   9.593 -0.0408 -0.4890  0.1619
  211MOL0     H28418   5.069   5.615   9.522  1.7024  0.2610 -0.0533
  211MOL0     H28419   4.882   5.477   9.616 -0.4322 -0.8332  2.6417
  211MOL0     H28420   4.757   5.332   9.625 -0.2065  2.4760  2.2693
  211MOL0     H28421   4.709   5.183   9.700 -0.1345  0.8889 -1.1562
  211MOL0     H28422   4.815   5.417   9.868  0.7219  1.2924 -0.2840
  211MOL0     H28423   4.755   5.253   9.923  0.2336 -0.9773 -1.3581
  211MOL0     H28424   4.536   5.323   9.804 -1.4113  0.1921  0.2477
  211MOL0     H28425   4.601   5.481   9.796 -3.9508 -1.6275 -3.6609
  211MOL0     H28426   4.659   5.427  10.076  2.9146  1.4539 -1.8527
  211MOL0     H28427   4.531   5.524   9.998 -1.3352 -1.6957 -1.0687
  211MOL0     H28428   4.380   5.320   9.986 -2.0407  0.9334  1.0586
  211MOL0     H28429   4.504   5.225  10.059 -0.9376  0.6516 -0.4653
  211MOL0     H28430   4.504   5.386  10.249  1.7011  0.6150 -2.3780
  211MOL0     H28431   4.372   5.464  10.178  0.8210  1.1719 -1.8419
  211MOL0     H28432   4.364   5.170  10.259 -1.0423 -0.2951  0.1957
  211MOL0     H28433   4.215   5.265  10.224 -1.7723  2.2454  2.0536
  211MOL0     H28434   4.432   5.296  10.453 -0.2368  0.7998 -0.3668
  211MOL0     H28435   4.300   5.414  10.414 -0.5466  0.0396  0.3054
  211MOL0     H28436   4.185   5.390  10.629  2.7495 -0.4002  2.1832
  211MOL0     H28437   3.889   5.217  10.680  1.0130  0.6921 -1.6592
  211MOL0     H28438   3.979   5.103  10.783  2.7362  1.3772  1.1056
  211MOL0     H28439   4.077   5.310  10.890  0.5544 -0.6544 -2.2571
  211MOL0     H28440   3.977   5.403  10.791 -1.9349 -0.9942 -3.5425
  211MOL0     H28441   3.794   5.200  10.905 -4.1415  2.7358 -1.7678
  211MOL0     H28442   3.784   5.363  10.843 -0.3008  2.6279  2.3931
  211MOL0     H28443   3.716   5.362  11.062  0.2357  3.3132  0.5756
  211MOL0     H28444   3.873   5.449  11.052  0.1336  0.2394 -1.1806
  211MOL0     H28445   3.676   5.393  11.265  1.1117  2.6114 -0.9265
  211MOL0     H28446   3.669   5.445  11.516  0.7967 -0.5296  0.1127
  211MOL0     H28447   3.613   5.335  11.932 -2.9223  1.6357 -0.2784
  211MOL0     H28448   3.548   5.421  12.141 -1.1964 -1.3952 -1.4849
  211MOL0     H28449   3.492   5.591  12.346 -0.6979  0.7988 -0.0389
  211MOL0     H28450   3.612   5.460  12.370 -0.2317  0.3820 -0.5951
  211MOL0     H28451   3.620   5.733  12.499  0.0696  0.0779 -2.4462
  211MOL0     H28452   3.569   5.592  12.592  1.5926 -1.6267  0.3929
  211MOL0     H28453   3.790   5.510  12.624 -0.0632  1.8671  2.0886
  211MOL0     H28454   3.844   5.578  12.462  1.1206  1.0684  0.5126
  211MOL0     H28455   3.864   5.790  12.547 -1.1913  0.5091 -0.8284
  211MOL0     H28456   3.954   5.671  12.646 -0.4503 -4.2402 -1.8296
  211MOL0     H28457   3.693   5.793  12.708  0.6308  0.8608 -2.3213
  211MOL0     H28458   3.841   5.862  12.776 -1.7501  0.4996  2.0789
  211MOL0     H28459   3.757   5.596  12.847 -3.3948  1.2246  0.0525
  211MOL0     H28460   3.893   5.674  12.916  0.3064 -2.4753 -0.2048
  211MOL0     H28461   3.610   5.654  12.986 -0.1535 -0.7160  1.9579
  211MOL0     H28462   3.614   5.811  12.939  0.4224  0.3961 -0.4354
  211MOL0     H28463   3.627   5.769  13.186 -1.2455 -0.8019 -1.2457
  211MOL0     H28464   3.780   5.687  13.164  1.6298  1.7608  0.4233
  211MOL0     H28465   3.858   5.709  12.137  0.1029  0.0618 -2.0794
  211MOL0     H28466   3.895   5.651  11.866 -1.7355 -1.5658 -2.2939
  211MOL0     H28467   4.052   5.262  11.544 -0.0100  1.6280 -0.2257
  211MOL0     H28468   4.044   5.187  11.330 -1.6646  0.0621  0.7932
  211MOL0     H28469   5.168   5.211   9.786 -0.1090  0.3957  0.0923
  211MOL0     H28470   5.344   5.338   9.670 -0.1008 -0.7492  1.2311
  211MOL0     H28471   5.494   5.380   9.473  1.2188 -0.4239 -1.2218
  211MOL0     H28472   5.719   5.322   9.403 -1.0815 -0.6016  0.2594
  211MOL0     H28473   6.058   5.594   9.554  0.4209  1.2817 -1.3923
  211MOL0     H28474   6.012   5.644   9.385 -2.0338  0.8969  0.9660
  211MOL0     H28475   6.255   5.584   9.398  1.1733 -0.3736  1.0362
  211MOL0     H28476   6.179   5.479   9.288  1.7530  0.1153 -0.2141
  211MOL0     H28477   6.195   5.296   9.427 -0.1238 -1.7485  3.0880
  211MOL0     H28478   6.212   5.385   9.577 -2.0864 -0.9656  0.0043
  211MOL0     H28479   6.443   5.290   9.503  0.5944  0.7704  1.8518
  211MOL0     H28480   6.417   5.382   9.358 -1.2703  0.5505  0.1881
  211MOL0     H28481   6.550   5.658   9.672  1.5291  0.5790 -1.0342
  211MOL0     H28482   5.856   5.711   9.546  0.5053 -1.2313  1.9517
  211MOL0     H28483   5.571   5.868   9.511  0.1570 -0.9883 -0.2743
  211MOL0     H28484   5.566   5.838   9.684 -0.2832  1.4183 -0.3694
  211MOL0     H28485   5.715   5.876   9.603  0.9784 -1.9259 -0.5327
  212MOL0     O28486   5.669   2.741   2.723  0.4256  0.1428 -0.5228
  212MOL0     C28487   5.698   2.855   2.683  0.3737  0.9948  1.1282
  212MOL0     O28488   5.613   2.935   2.615 -0.6604 -0.1543 -0.4174
  212MOL0     C28489   5.496   2.878   2.567 -1.0438 -0.6319  0.4390
  212MOL0     C28490   5.369   2.911   2.613  0.0327  0.6107 -1.1748
  212MOL0     C28491   5.260   2.835   2.564  0.4111  0.3140 -0.9167
  212MOL0     C28492   5.279   2.736   2.473 -0.1813  0.9758 -0.8049
  212MOL0     O28493   5.171   2.652   2.440 -0.6014 -0.1080  0.1594
  212MOL0     C28494   5.155   2.543   2.533  1.3444  0.4715 -0.1605
  212MOL0     C28495   5.010   2.497   2.534 -0.2280 -0.3620  0.4328
  212MOL0     C28496   4.917   2.625   2.565  0.3917  0.1249 -0.4374
  212MOL0     C28497   4.790   2.588   2.631  0.2750 -0.6669 -0.0950
  212MOL0     C28498   4.717   2.534   2.516  0.3588  0.0486 -0.3386
  212MOL0     C28499   4.586   2.483   2.577 -0.2319 -0.3535 -0.6153
  212MOL0     C28500   4.506   2.438   2.463  1.3117 -0.3919  0.0053
  212MOL0     C28501   4.355   2.418   2.483 -0.2908 -0.8393 -0.9195
  212MOL0     N28502   4.297   2.311   2.396 -0.7596 -0.3086  0.9088
  212MOL0     C28503   4.278   2.182   2.446  0.8408  0.6504  0.4718
  212MOL0     C28504   4.191   2.131   2.356 -0.0706 -0.3439 -0.1132
  212MOL0     C28505   4.144   1.989   2.373 -0.2095  0.6949 -1.6406
  212MOL0     C28506   3.997   1.987   2.313 -0.3863 -0.5157 -0.6260
  212MOL0     C28507   3.901   1.878   2.361 -0.7978 -0.3761  0.7196
  212MOL0     C28508   3.774   1.873   2.272 -0.1330 -0.2567  0.2609
  212MOL0     O28509   3.721   2.002   2.257 -0.5638  0.7809 -0.2055
  212MOL0     C28510   3.621   2.049   2.344 -0.6804 -0.1028 -0.5251
  212MOL0     C28511   3.562   1.967   2.439 -0.4539  0.2470 -0.0538
  212MOL0     C28512   3.469   2.031   2.523  0.3407 -0.5670 -0.5261
  212MOL0     C28513   3.415   2.161   2.503  0.0395  0.7496  1.3961
  212MOL0     C28514   3.290   2.213   2.562 -0.0707  0.5451  0.6870
  212MOL0     O28515   3.199   2.116   2.601  0.6947 -0.3359 -0.7256
  212MOL0     C28516   3.120   2.147   2.709 -0.7871 -0.3470  0.0663
  212MOL0     C28517   2.987   2.118   2.704  0.2400 -0.1426  0.1055
  212MOL0     C28518   2.898   2.131   2.807  0.3948 -0.4521  0.0666
  212MOL0     C28519   2.952   2.178   2.926  0.6463  0.4573 -0.6027
  212MOL0     O28520   2.879   2.190   3.036 -0.4119 -0.7840 -0.0915
  212MOL0     C28521   2.744   2.246   3.023 -0.6110 -0.7540 -0.3131
  212MOL0     C28522   2.669   2.210   3.158 -0.4599 -0.6537  0.7984
  212MOL0     C28523   2.520   2.224   3.144 -0.4976  0.2715 -0.1549
  212MOL0     C28524   2.476   2.358   3.108  0.1980  1.0554 -0.1277
  212MOL0     C28525   2.525   2.462   3.210 -0.4204  0.7678  0.4187
  212MOL0     C28526   2.491   2.431   3.356  0.6536 -0.3211  0.2041
  212MOL0     C28527   2.529   2.561   3.435 -0.1455  0.2146  0.2732
  212MOL0     C28528   2.465   2.559   3.572  0.3138 -0.3016  0.6506
  212MOL0    Cl28529   2.505   2.730   3.633  0.0234  0.5342  0.3958
  212MOL0     C28530   3.092   2.212   2.939  1.0274 -0.3654 -0.0969
  212MOL0     C28531   3.172   2.206   2.825  0.0451  0.2233  0.3183
  212MOL0     O28532   3.277   2.333   2.565 -0.1204  0.4752  0.0748
  212MOL0     C28533   3.487   2.234   2.406  0.3700  1.2778 -0.4239
  212MOL0     C28534   3.589   2.185   2.332 -1.4127 -0.1178 -0.6124
  212MOL0     N28535   4.166   2.220   2.255  0.2345 -0.1088  0.5517
  212MOL0     N28536   4.230   2.330   2.282 -0.1263 -0.2991 -0.1903
  212MOL0     C28537   5.407   2.708   2.422 -0.1053 -0.1175  0.2978
  212MOL0     C28538   5.519   2.778   2.469 -0.8792 -1.1850  0.5628
  212MOL0     C28539   5.817   2.922   2.745 -0.5388 -0.2797  0.4874
  212MOL0     C28540   5.839   2.919   2.884  0.4582 -0.1953 -0.3759
  212MOL0     C28541   5.947   2.992   2.925  0.2654  0.0282 -0.0209
  212MOL0     C28542   6.037   3.066   2.839  0.1802  0.7076 -0.0820
  212MOL0     O28543   6.117   3.152   2.906  0.1727 -0.0690 -0.8360
  212MOL0     C28544   6.207   3.251   2.845  0.1513 -1.1963  0.4838
  212MOL0     C28545   6.319   3.283   2.945 -1.1085  0.9283 -0.3062
  212MOL0     C28546   6.419   3.392   2.903  0.4474  0.0766  0.6846
  212MOL0     C28547   6.493   3.459   3.018  0.0853 -0.2793  0.4284
  212MOL0     C28548   6.396   3.540   3.093 -0.0637 -1.2395  0.2641
  212MOL0     C28549   6.342   3.639   3.150  0.1453  0.5380  0.0163
  212MOL0     C28550   6.016   3.046   2.699 -0.5026 -1.2865  0.0814
  212MOL0     C28551   5.908   2.978   2.648  0.2722 -0.1656  0.1637
  212MOL0     C28552   5.875   2.997   2.500 -0.1471 -1.0566 -0.2555
  212MOL0     H28553   5.346   2.971   2.701 -1.6141 -1.1959 -0.3050
  212MOL0     H28554   5.162   2.843   2.609  1.1056 -1.5592  1.1588
  212MOL0     H28555   5.213   2.460   2.490  1.5398 -0.5108  1.8908
  212MOL0     H28556   5.186   2.569   2.634  4.0253 -3.6622  0.3328
  212MOL0     H28557   5.008   2.426   2.617 -1.6532 -0.4280  0.3767
  212MOL0     H28558   4.986   2.455   2.435 -0.4629  0.6260  0.0593
  212MOL0     H28559   4.895   2.679   2.473  1.4241 -0.0880 -0.8271
  212MOL0     H28560   4.981   2.688   2.628 -0.0780  1.6944 -1.4881
  212MOL0     H28561   4.806   2.511   2.708  1.6241  0.1834  0.5098
  212MOL0     H28562   4.740   2.674   2.676 -0.3435 -1.6126  1.1010
  212MOL0     H28563   4.694   2.612   2.442  0.8480  0.3478 -0.1757
  212MOL0     H28564   4.776   2.460   2.461  0.2730 -0.4868  0.2745
  212MOL0     H28565   4.613   2.396   2.638 -2.0726  0.1016  0.9580
  212MOL0     H28566   4.533   2.552   2.644  1.0696  0.0870 -0.0026
  212MOL0     H28567   4.565   2.357   2.418  1.8885  2.1412 -4.3565
  212MOL0     H28568   4.508   2.508   2.380 -0.3746 -2.1274 -1.5882
  212MOL0     H28569   4.320   2.396   2.585  0.8203 -1.3481 -0.6354
  212MOL0     H28570   4.302   2.509   2.454  0.0750 -1.1753 -2.7460
  212MOL0     H28571   4.318   2.143   2.538  0.5077  4.5124  2.4668
  212MOL0     H28572   4.208   1.924   2.314  0.1878 -1.4939  0.9848
  212MOL0     H28573   4.155   1.960   2.478 -1.6541  0.8582 -1.4108
  212MOL0     H28574   3.954   2.084   2.339  1.4629 -0.2621  1.8903
  212MOL0     H28575   4.001   1.992   2.204  0.3800  1.1753 -0.5477
  212MOL0     H28576   3.879   1.892   2.467  1.6585 -1.8113  1.4884
  212MOL0     H28577   3.962   1.788   2.347 -1.2406 -0.5883  0.0735
  212MOL0     H28578   3.699   1.802   2.308 -3.5516  3.2151  0.7117
  212MOL0     H28579   3.807   1.848   2.171  0.7156  0.8584  0.2450
  212MOL0     H28580   3.586   1.861   2.452 -1.0852  0.0118 -0.7541
  212MOL0     H28581   3.425   1.976   2.606  0.7211 -1.1453 -0.6958
  212MOL0     H28582   2.932   2.078   2.619 -2.5982 -1.8110  2.5244
  212MOL0     H28583   2.797   2.097   2.788  0.6966 -0.1182 -2.4929
  212MOL0     H28584   2.750   2.354   3.004  0.8750 -1.2677 -3.4928
  212MOL0     H28585   2.683   2.198   2.945  1.0453 -2.4830 -0.6250
  212MOL0     H28586   2.693   2.107   3.184 -2.7433 -0.9588  1.9348
  212MOL0     H28587   2.710   2.267   3.242 -1.2254 -2.5645  2.5473
  212MOL0     H28588   2.478   2.151   3.074 -1.0873  1.0729 -0.6456
  212MOL0     H28589   2.482   2.196   3.243 -0.7361  1.3078  0.0543
  212MOL0     H28590   2.367   2.366   3.105 -0.2802  0.2491  4.9242
  212MOL0     H28591   2.525   2.384   3.014  1.4016 -2.0137 -0.4603
  212MOL0     H28592   2.489   2.559   3.173  2.2149  1.1537 -1.3809
  212MOL0     H28593   2.634   2.470   3.207 -0.2566 -0.2690 -4.1093
  212MOL0     H28594   2.385   2.408   3.350  0.4760  0.7529 -1.8243
  212MOL0     H28595   2.551   2.356   3.408 -0.3217 -2.0573 -1.0900
  212MOL0     H28596   2.493   2.653   3.388  1.7436  1.4403  1.0695
  212MOL0     H28597   2.635   2.579   3.454 -0.2955  1.3443  0.1197
  212MOL0     H28598   2.356   2.553   3.559  0.3514  1.2487 -0.5954
  212MOL0     H28599   2.513   2.484   3.636 -0.9129  0.3296  2.4114
  212MOL0     H28600   3.131   2.240   3.036  1.5345 -0.2951 -0.3172
  212MOL0     H28601   3.269   2.249   2.846 -0.2470  0.9245  0.2480
  212MOL0     H28602   3.451   2.333   2.379  1.0607  0.8064 -3.4804
  212MOL0     H28603   3.645   2.252   2.267 -1.0744 -0.1226 -0.3276
  212MOL0     H28604   5.433   2.634   2.348 -0.6465 -1.7210  1.6458
  212MOL0     H28605   5.623   2.757   2.448  0.5375  2.4800  2.9061
  212MOL0     H28606   5.776   2.869   2.956  1.3783  0.9554  1.2906
  212MOL0     H28607   5.955   3.007   3.032 -1.1855 -0.5394  0.1848
  212MOL0     H28608   6.157   3.343   2.812  1.5841  0.4608  2.5972
  212MOL0     H28609   6.259   3.221   2.754 -1.1331  3.7052 -2.2727
  212MOL0     H28610   6.371   3.191   2.975 -0.9486  0.6423 -1.4431
  212MOL0     H28611   6.272   3.317   3.038 -0.2399  0.8428  0.1724
  212MOL0     H28612   6.363   3.473   2.855 -0.3788 -0.1592  1.2453
  212MOL0     H28613   6.484   3.346   2.828 -2.0363 -3.5677  0.5058
  212MOL0     H28614   6.543   3.388   3.084 -0.3877 -2.3873 -1.3920
  212MOL0     H28615   6.568   3.528   2.978  1.6241 -1.1861  1.6621
  212MOL0     H28616   6.280   3.713   3.196 -1.4258 -0.8580  0.2315
  212MOL0     H28617   6.078   3.105   2.631  1.6456 -3.1293  0.3078
  212MOL0     H28618   5.819   2.914   2.456  0.3176 -0.1400 -2.7389
  212MOL0     H28619   5.825   3.090   2.471  0.3130 -0.3900  1.0248
  212MOL0     H28620   5.971   2.996   2.447  0.4029  1.0536  0.6206
  213MOL0     O28621   5.430   0.636   6.695  0.6419 -0.5867 -0.5179
  213MOL0     C28622   5.352   0.543   6.687 -0.1292 -0.5143  0.8490
  213MOL0     O28623   5.237   0.529   6.763 -0.1605 -0.8990 -0.9381
  213MOL0     C28624   5.194   0.636   6.848 -0.0617  0.4108  0.6395
  213MOL0     C28625   5.062   0.679   6.840 -0.4301  1.2895  1.1546
  213MOL0     C28626   5.014   0.790   6.913  0.2486  0.3639  0.2673
  213MOL0     C28627   5.091   0.850   7.017  0.4041  0.4330 -0.0514
  213MOL0     O28628   5.035   0.952   7.094 -0.2034 -0.0913  0.7959
  213MOL0     C28629   5.124   1.054   7.135  0.4505  0.1725 -0.0899
  213MOL0     C28630   5.079   1.191   7.073  0.1453 -0.0018 -0.5262
  213MOL0     C28631   4.939   1.223   7.131  0.9209 -0.1855 -0.2222
  213MOL0     C28632   4.909   1.378   7.120 -0.0802 -0.0008 -0.0961
  213MOL0     C28633   4.902   1.460   6.988  0.2594 -0.8425  0.0778
  213MOL0     C28634   4.920   1.613   7.027 -0.8388  0.5398 -0.1524
  213MOL0     C28635   4.960   1.692   6.902  0.3346  0.1261 -0.4324
  213MOL0     C28636   5.003   1.832   6.931  0.3437 -0.2136 -0.9370
  213MOL0     N28637   5.047   1.901   6.808  0.1800  0.0135  0.5904
  213MOL0     C28638   5.169   1.912   6.749 -0.3781  0.3181  0.9850
  213MOL0     C28639   5.157   1.963   6.628  0.5633  0.7486 -0.8799
  213MOL0     C28640   5.278   2.002   6.547  0.2725  0.5152 -0.0468
  213MOL0     C28641   5.309   1.906   6.433 -0.4864 -0.5309 -0.0435
  213MOL0     C28642   5.201   1.906   6.332  0.2116 -0.6149  0.1065
  213MOL0     C28643   5.237   1.821   6.210 -0.4636  0.6030 -0.0274
  213MOL0     O28644   5.281   1.690   6.256  0.9109 -0.8813  0.8680
  213MOL0     C28645   5.275   1.582   6.163  0.7516 -0.0336 -0.0431
  213MOL0     C28646   5.243   1.599   6.022  0.0984  0.4266  0.4883
  213MOL0     C28647   5.247   1.486   5.931  0.2304 -0.9061 -0.8228
  213MOL0     C28648   5.288   1.360   5.974 -0.0315  0.2779 -1.0369
  213MOL0     C28649   5.277   1.252   5.885 -0.3211  1.1033  0.2146
  213MOL0     O28650   5.291   1.124   5.937 -0.6020 -0.1979 -0.1426
  213MOL0     C28651   5.327   1.019   5.850 -0.1262 -1.0664 -0.4545
  213MOL0     C28652   5.257   0.901   5.854  0.1940  0.7579  0.3840
  213MOL0     C28653   5.281   0.796   5.775  0.4686 -0.1974 -0.2586
  213MOL0     C28654   5.382   0.793   5.682 -0.3514 -0.1089  1.1327
  213MOL0     O28655   5.423   0.690   5.602 -0.2156  0.3393  0.5882
  213MOL0     C28656   5.365   0.559   5.605 -0.3414  0.0851  0.4453
  213MOL0     C28657   5.417   0.464   5.496  0.6251  0.5563 -0.3787
  213MOL0     C28658   5.345   0.333   5.511  0.2498  0.2852  0.3248
  213MOL0     C28659   5.364   0.239   5.393  0.0712 -0.6470 -0.6956
  213MOL0     C28660   5.260   0.123   5.401  0.1119 -0.1026  0.7915
  213MOL0     C28661   5.276   0.049   5.273 -0.5812  0.4110  0.5289
  213MOL0     C28662   5.398  -0.033   5.248  0.5996  0.2207 -0.5008
  213MOL0     C28663   5.375  -0.153   5.150 -0.5736 -0.9198 -0.2262
  213MOL0    Cl28664   5.327  -0.098   4.991  0.4370  0.6049  0.4037
  213MOL0     C28665   5.455   0.911   5.668  1.1580  0.1731  0.9194
  213MOL0     C28666   5.434   1.024   5.755  0.5088 -0.1407  0.0260
  213MOL0     O28667   5.272   1.288   5.767  0.1959  0.9267  0.0885
  213MOL0     C28668   5.323   1.344   6.112  0.5255 -0.1992  0.4037
  213MOL0     C28669   5.313   1.453   6.208  0.3695 -0.8284 -0.3415
  213MOL0     N28670   5.026   1.988   6.614  0.5933 -0.5149 -0.6521
  213MOL0     N28671   4.959   1.964   6.721  0.6801  0.2398  0.2212
  213MOL0     C28672   5.220   0.798   7.027  0.4767 -0.1388 -0.5787
  213MOL0     C28673   5.274   0.694   6.945 -0.4219  0.3189  0.5757
  213MOL0     C28674   5.373   0.440   6.583 -0.1207 -0.1287 -0.4977
  213MOL0     C28675   5.311   0.318   6.617  0.2876  0.1497 -0.2198
  213MOL0     C28676   5.296   0.215   6.523  0.1318  0.3976 -0.8782
  213MOL0     C28677   5.344   0.232   6.400  0.3989  0.2470  0.0493
  213MOL0     O28678   5.324   0.138   6.296 -0.1877 -0.5059 -0.3343
  213MOL0     C28679   5.396   0.010   6.308  0.6163 -0.0566  0.3688
  213MOL0     C28680   5.541   0.029   6.259 -0.0155 -0.1497 -0.9363
  213MOL0     C28681   5.616  -0.107   6.254 -0.0074 -0.4058  0.2231
  213MOL0     C28682   5.541  -0.227   6.192  0.2196  0.2720 -0.7462
  213MOL0     C28683   5.509  -0.325   6.296 -1.1615  1.2493 -0.5901
  213MOL0     C28684   5.510  -0.397   6.399  0.6661 -0.2583  0.7227
  213MOL0     C28685   5.413   0.344   6.365  0.3545  0.3982 -0.3465
  213MOL0     C28686   5.433   0.451   6.458  0.9304 -0.1961 -0.2823
  213MOL0     C28687   5.527   0.569   6.419  1.0286 -0.0593 -0.0563
  213MOL0     H28688   5.006   0.628   6.762  1.7096 -0.3041  0.5490
  213MOL0     H28689   4.916   0.834   6.892 -0.0826  0.4713  1.9359
  213MOL0     H28690   5.127   1.061   7.244 -0.5459 -0.5743  0.0033
  213MOL0     H28691   5.231   1.048   7.112  1.4424 -2.3574  4.1096
  213MOL0     H28692   5.073   1.171   6.966 -0.0666  1.8631 -0.8910
  213MOL0     H28693   5.146   1.274   7.096 -0.0957  0.0875 -0.1317
  213MOL0     H28694   4.935   1.173   7.228  0.6537 -3.4124 -1.7690
  213MOL0     H28695   4.858   1.168   7.082  0.4927  0.1971  0.0467
  213MOL0     H28696   4.815   1.405   7.170 -1.5287 -1.3567 -1.9337
  213MOL0     H28697   4.987   1.421   7.183 -0.5544 -1.8667  1.8837
  213MOL0     H28698   4.982   1.440   6.916 -0.9644  3.0256 -2.6609
  213MOL0     H28699   4.811   1.428   6.937  1.0940 -1.5467 -1.0384
  213MOL0     H28700   4.836   1.659   7.080  0.4814  1.6544  1.0183
  213MOL0     H28701   4.999   1.627   7.101 -0.3414  1.2161 -0.7972
  213MOL0     H28702   4.881   1.696   6.827 -0.8229  2.5591  0.7781
  213MOL0     H28703   5.048   1.645   6.859  1.0294  0.1792  0.8700
  213MOL0     H28704   4.916   1.872   6.983 -0.0736 -0.7899 -1.1745
  213MOL0     H28705   5.089   1.844   6.998 -1.4620 -1.8738  1.8652
  213MOL0     H28706   5.263   1.871   6.785 -0.4630 -0.2249  0.6002
  213MOL0     H28707   5.241   2.094   6.499  1.3557  0.2707 -1.4229
  213MOL0     H28708   5.374   2.021   6.595  0.3221  0.6006 -0.1786
  213MOL0     H28709   5.401   1.934   6.382 -0.2796 -1.3252 -0.1150
  213MOL0     H28710   5.326   1.807   6.476  0.6842 -0.1430  0.4397
  213MOL0     H28711   5.179   2.009   6.302  2.4703  0.1730  0.9231
  213MOL0     H28712   5.106   1.872   6.373  0.4693 -1.0921  0.3141
  213MOL0     H28713   5.325   1.858   6.157  1.5163  0.2698  2.7931
  213MOL0     H28714   5.147   1.822   6.148 -1.3301  2.3202  1.1676
  213MOL0     H28715   5.214   1.691   5.972 -0.0180 -0.4697 -1.1828
  213MOL0     H28716   5.210   1.504   5.831 -1.3376 -0.8967 -0.2818
  213MOL0     H28717   5.182   0.892   5.932  1.8642 -1.5367  1.8384
  213MOL0     H28718   5.220   0.706   5.782  1.4725 -0.9916 -1.3133
  213MOL0     H28719   5.383   0.518   5.705 -3.7028 -0.2949  1.0130
  213MOL0     H28720   5.257   0.570   5.590 -0.0254  1.1743 -1.2584
  213MOL0     H28721   5.408   0.503   5.394 -0.4036  2.2756  0.3268
  213MOL0     H28722   5.522   0.458   5.525  0.3065  3.5259  1.8968
  213MOL0     H28723   5.373   0.282   5.603 -0.7586  0.8100  0.9457
  213MOL0     H28724   5.239   0.362   5.515  0.1256 -0.0367 -0.5328
  213MOL0     H28725   5.465   0.200   5.404 -0.0659 -0.7850  0.1564
  213MOL0     H28726   5.357   0.298   5.301 -1.1297  0.1573 -0.1235
  213MOL0     H28727   5.160   0.168   5.400 -0.1664 -0.4574 -3.5168
  213MOL0     H28728   5.278   0.068   5.494 -3.7531 -2.2751  0.4803
  213MOL0     H28729   5.208  -0.036   5.265  2.2269 -1.8619 -4.5767
  213MOL0     H28730   5.254   0.112   5.186  0.8834 -0.4014 -0.4840
  213MOL0     H28731   5.433  -0.061   5.348  0.4025 -0.4044 -0.5990
  213MOL0     H28732   5.476   0.034   5.212  1.5844  0.2677  1.5705
  213MOL0     H28733   5.462  -0.216   5.128 -0.5616 -1.0555  0.2007
  213MOL0     H28734   5.299  -0.221   5.189 -0.8077 -0.6162 -0.1508
  213MOL0     H28735   5.528   0.923   5.589 -2.2273  2.0461 -2.2308
  213MOL0     H28736   5.498   1.110   5.735  0.8733 -1.0060 -2.8372
  213MOL0     H28737   5.364   1.248   6.142  0.9479 -0.2274 -0.2464
  213MOL0     H28738   5.344   1.446   6.311  1.0429 -1.3031 -0.5710
  213MOL0     H28739   5.279   0.845   7.106 -1.5618  2.1489 -0.3043
  213MOL0     H28740   5.374   0.653   6.953 -0.6282 -0.2068  0.4929
  213MOL0     H28741   5.262   0.292   6.710  0.3687  1.2739  0.1538
  213MOL0     H28742   5.239   0.124   6.542  1.0444  0.2397  1.3250
  213MOL0     H28743   5.335  -0.065   6.257 -0.1968 -0.0371  1.2829
  213MOL0     H28744   5.384  -0.035   6.407 -4.5682  3.0274  1.5458
  213MOL0     H28745   5.596   0.106   6.314 -1.9679  1.5813 -1.2451
  213MOL0     H28746   5.525   0.075   6.161 -1.1303  0.5469 -0.4496
  213MOL0     H28747   5.648  -0.114   6.358 -1.5696  0.5254  0.8055
  213MOL0     H28748   5.699  -0.088   6.185 -0.1465 -4.3293 -1.2399
  213MOL0     H28749   5.442  -0.204   6.152  0.2553 -0.4861 -1.3014
  213MOL0     H28750   5.599  -0.282   6.117  0.7780 -2.6230  1.5741
  213MOL0     H28751   5.488  -0.459   6.483 -5.4765 -1.4148 -1.2487
  213MOL0     H28752   5.445   0.359   6.262  3.4847  1.6040  0.6971
  213MOL0     H28753   5.534   0.578   6.310  0.7562 -0.5124 -0.1176
  213MOL0     H28754   5.494   0.668   6.452 -1.6480 -0.7700 -0.3061
  213MOL0     H28755   5.625   0.552   6.463  1.5965 -0.1645 -1.3057
  214MOL0     O28756   5.209   7.762   6.837 -0.3349  0.5776  0.9979
  214MOL0     C28757   5.207   7.814   6.944 -0.4476  0.3266 -0.0315
  214MOL0     O28758   5.145   7.755   7.054  0.1859  0.0660  0.0289
  214MOL0     C28759   5.055   7.654   7.033  0.3372  0.8630 -0.2990
  214MOL0     C28760   4.919   7.696   7.036 -0.8069  0.6865 -0.3621
  214MOL0     C28761   4.817   7.599   7.028  0.8060 -1.1448 -0.5198
  214MOL0     C28762   4.843   7.469   7.050 -0.1866  0.5810  0.5542
  214MOL0     O28763   4.740   7.384   7.066 -0.0875  0.0935  0.1756
  214MOL0     C28764   4.739   7.334   7.199 -0.5331  0.5835 -0.3619
  214MOL0     C28765   4.614   7.253   7.229  0.4284  0.2213 -0.3553
  214MOL0     C28766   4.480   7.323   7.251 -0.0110  0.1782  0.3876
  214MOL0     C28767   4.444   7.422   7.130 -0.4529  0.1828  0.2213
  214MOL0     C28768   4.304   7.483   7.163  0.9429  0.7917 -1.0628
  214MOL0     C28769   4.284   7.599   7.056 -1.0482  0.7011  0.1984
  214MOL0     C28770   4.162   7.683   7.083 -0.6466 -0.0703 -0.3034
  214MOL0     C28771   4.024   7.619   7.111 -0.6559 -0.1181 -0.4257
  214MOL0     N28772   3.959   7.564   6.993 -0.5088  0.9337  0.7777
  214MOL0     C28773   3.941   7.636   6.879  0.9030  0.4885  1.3369
  214MOL0     C28774   3.926   7.547   6.779 -0.3504 -0.0379 -0.7379
  214MOL0     C28775   3.904   7.585   6.638  0.0364  0.7979 -0.2575
  214MOL0     C28776   4.017   7.528   6.550 -0.9135 -0.3768  0.0978
  214MOL0     C28777   3.989   7.549   6.405 -0.7483  1.0386 -0.5043
  214MOL0     C28778   4.029   7.435   6.297 -0.2134 -0.2223 -0.1623
  214MOL0     O28779   3.954   7.452   6.177  0.5958  0.1309  0.5449
  214MOL0     C28780   4.008   7.540   6.082  0.3770  0.4981  0.2423
  214MOL0     C28781   3.940   7.545   5.956 -0.6022  0.4191 -0.2077
  214MOL0     C28782   3.977   7.639   5.861  0.0109 -0.0699 -0.6675
  214MOL0     C28783   4.083   7.735   5.898 -0.2947 -0.7359 -1.1172
  214MOL0     C28784   4.131   7.830   5.798  0.5161 -0.5730  0.3039
  214MOL0     O28785   4.045   7.861   5.696  0.3838 -0.1399 -0.0814
  214MOL0     C28786   4.077   7.949   5.600 -0.3890 -0.2489 -0.8208
  214MOL0     C28787   4.010   8.069   5.601 -0.2189  0.0361  0.5956
  214MOL0     C28788   4.063   8.175   5.520 -0.0270 -0.4491  0.6099
  214MOL0     C28789   4.170   8.155   5.431 -1.7651  0.1120 -0.1344
  214MOL0     O28790   4.203   8.262   5.349  0.1056 -0.5854 -0.2259
  214MOL0     C28791   4.349   8.270   5.317  0.9391 -0.2349  0.5306
  214MOL0     C28792   4.392   8.397   5.237 -0.6249 -0.0639 -0.5483
  214MOL0     C28793   4.542   8.433   5.230 -0.0801  0.1157 -0.5512
  214MOL0     C28794   4.626   8.327   5.150  0.2928  0.1177 -0.2378
  214MOL0     C28795   4.781   8.358   5.167 -0.2750  0.0429 -0.1230
  214MOL0     C28796   4.874   8.244   5.112  0.1835 -1.3608 -0.5943
  214MOL0     C28797   4.869   8.229   4.966  0.5141  0.0985 -0.0497
  214MOL0     C28798   4.894   8.084   4.917  0.1329  0.0693 -0.8109
  214MOL0    Cl28799   4.917   8.067   4.748 -0.0786  0.2174  0.6813
  214MOL0     C28800   4.234   8.030   5.432  0.5234  0.0161 -0.0959
  214MOL0     C28801   4.186   7.924   5.513 -0.5478 -0.6980 -0.0641
  214MOL0     O28802   4.244   7.883   5.809  0.3013  0.2332 -0.4141
  214MOL0     C28803   4.149   7.727   6.020 -0.9334  0.0008 -0.8510
  214MOL0     C28804   4.108   7.631   6.105 -0.2431 -0.2299 -0.3792
  214MOL0     N28805   3.931   7.418   6.827  0.1476 -0.1076  0.9186
  214MOL0     N28806   3.957   7.434   6.952 -0.5311 -0.0695 -0.2680
  214MOL0     C28807   4.978   7.428   7.040  0.4599 -0.5584 -0.6436
  214MOL0     C28808   5.083   7.514   7.039  0.6152 -0.0074 -1.1085
  214MOL0     C28809   5.266   7.951   6.963 -0.7677 -0.7822 -0.7409
  214MOL0     C28810   5.287   8.027   6.841 -0.3176 -0.8387 -0.7710
  214MOL0     C28811   5.335   8.156   6.844 -0.1935  0.1511  1.1132
  214MOL0     C28812   5.403   8.196   6.958  0.5365 -1.0989  0.4629
  214MOL0     O28813   5.467   8.314   6.972 -0.0446 -0.8051  1.2997
  214MOL0     C28814   5.499   8.392   6.854  0.0758  0.2353 -0.3309
  214MOL0     C28815   5.632   8.464   6.877  0.1144  1.5262  0.0227
  214MOL0     C28816   5.614   8.594   6.951  0.8143 -0.6285 -0.3592
  214MOL0     C28817   5.623   8.559   7.104 -0.0553 -0.2965 -0.9456
  214MOL0     C28818   5.764   8.599   7.142  0.3785  0.0879 -0.0582
  214MOL0     C28819   5.879   8.611   7.167 -0.5075  0.2310  0.2900
  214MOL0     C28820   5.387   8.125   7.079 -0.2009  0.8417  0.7461
  214MOL0     C28821   5.321   8.005   7.084 -0.1973  0.0143  1.0330
  214MOL0     C28822   5.313   7.948   7.206  0.1473  0.9585  0.9651
  214MOL0     H28823   4.897   7.800   7.016 -0.4672  1.0364  1.0242
  214MOL0     H28824   4.713   7.629   7.026  1.2504  0.8179  1.3825
  214MOL0     H28825   4.822   7.264   7.213 -1.7354 -0.6950  0.6480
  214MOL0     H28826   4.742   7.420   7.268  1.4971  1.5127 -1.5046
  214MOL0     H28827   4.634   7.205   7.325 -1.2348  1.5824  0.7409
  214MOL0     H28828   4.608   7.178   7.150  2.4064 -1.8288  1.2857
  214MOL0     H28829   4.482   7.378   7.345  1.0759 -1.5585  1.4278
  214MOL0     H28830   4.401   7.247   7.260  1.0243 -1.1055 -0.7384
  214MOL0     H28831   4.526   7.494   7.122 -0.4948  0.2211  0.1478
  214MOL0     H28832   4.441   7.365   7.037  3.3107  2.7605 -1.7241
  214MOL0     H28833   4.213   7.423   7.169  1.5425 -0.3943 -2.9625
  214MOL0     H28834   4.306   7.534   7.260  0.1307 -0.4951 -0.3540
  214MOL0     H28835   4.375   7.658   7.044  0.4609 -1.7438 -1.3666
  214MOL0     H28836   4.271   7.552   6.958 -0.2549 -0.7137  0.7403
  214MOL0     H28837   4.153   7.752   6.999 -1.9804  0.7298  0.4568
  214MOL0     H28838   4.187   7.735   7.176 -0.4249 -0.4551 -0.1415
  214MOL0     H28839   4.026   7.548   7.194 -1.9176  1.2464  0.8274
  214MOL0     H28840   3.960   7.700   7.148 -1.1021 -0.8301  0.3875
  214MOL0     H28841   3.944   7.742   6.854  0.0466 -0.0412 -1.4262
  214MOL0     H28842   3.808   7.533   6.632 -1.2030  2.4996  2.7741
  214MOL0     H28843   3.888   7.691   6.617  0.7302  1.0783  0.5816
  214MOL0     H28844   4.109   7.582   6.575 -1.0216 -0.3927  0.5497
  214MOL0     H28845   4.036   7.423   6.573  0.6682  0.0048  0.6842
  214MOL0     H28846   4.027   7.641   6.359  2.0484  1.0974  1.6657
  214MOL0     H28847   3.880   7.561   6.401 -0.7909  1.7167  1.5500
  214MOL0     H28848   4.020   7.332   6.331  3.8421 -0.2602  1.3737
  214MOL0     H28849   4.136   7.438   6.274 -0.4847  0.5063 -1.4216
  214MOL0     H28850   3.862   7.476   5.923  0.0651 -0.8783  0.8121
  214MOL0     H28851   3.932   7.642   5.763 -1.4106  0.5651 -0.0371
  214MOL0     H28852   3.938   8.088   5.680  1.1368 -2.0393  2.4404
  214MOL0     H28853   4.011   8.270   5.525 -0.5211 -0.7143  0.6609
  214MOL0     H28854   4.405   8.265   5.411  0.7563 -0.6593  0.6153
  214MOL0     H28855   4.382   8.199   5.241  0.1419  0.5569 -0.5744
  214MOL0     H28856   4.361   8.367   5.136 -1.5831  0.0184 -0.2862
  214MOL0     H28857   4.339   8.487   5.267  0.0310  0.5299 -1.1313
  214MOL0     H28858   4.560   8.531   5.183  0.6420 -0.0593 -0.6452
  214MOL0     H28859   4.576   8.443   5.333 -1.1819 -0.3305 -0.1309
  214MOL0     H28860   4.598   8.352   5.047  0.9019 -0.1152 -0.4652
  214MOL0     H28861   4.603   8.222   5.174 -0.4525  0.5758  1.1148
  214MOL0     H28862   4.813   8.386   5.268 -1.7534 -0.2942  0.4595
  214MOL0     H28863   4.810   8.439   5.100 -0.3285 -1.1362 -1.6391
  214MOL0     H28864   4.980   8.256   5.136  0.3197 -0.3712 -1.6097
  214MOL0     H28865   4.852   8.153   5.168  1.9547 -1.5360 -0.1144
  214MOL0     H28866   4.947   8.286   4.915  2.6680 -1.1925  1.6484
  214MOL0     H28867   4.768   8.252   4.932 -0.1473 -1.4277  0.7861
  214MOL0     H28868   4.987   8.043   4.957 -1.8900 -2.2020  1.9329
  214MOL0     H28869   4.811   8.019   4.946  1.6349 -1.5956 -0.0963
  214MOL0     H28870   4.328   8.022   5.379  0.4064 -0.3026 -0.2547
  214MOL0     H28871   4.245   7.834   5.498 -0.4541 -0.7002  0.2949
  214MOL0     H28872   4.228   7.797   6.044 -0.4373 -1.1747  1.1739
  214MOL0     H28873   4.163   7.636   6.199  0.2198 -0.6002 -0.6294
  214MOL0     H28874   4.998   7.321   7.036 -1.5338 -1.0465  0.8340
  214MOL0     H28875   5.180   7.467   7.028  1.2156  0.9271 -0.0013
  214MOL0     H28876   5.256   7.984   6.746 -3.3902 -1.9790  0.6283
  214MOL0     H28877   5.344   8.209   6.749  0.9444 -1.5124  0.2466
  214MOL0     H28878   5.414   8.458   6.838 -2.4161 -2.9151 -1.1154
  214MOL0     H28879   5.510   8.333   6.762 -1.5636  0.4808 -0.7117
  214MOL0     H28880   5.700   8.478   6.792  2.8981 -2.1755  1.3528
  214MOL0     H28881   5.685   8.397   6.946 -1.9732  3.1049  3.3892
  214MOL0     H28882   5.521   8.644   6.924 -0.2433 -0.8993  2.4483
  214MOL0     H28883   5.695   8.656   6.912 -0.6307  1.1985 -0.5963
  214MOL0     H28884   5.559   8.628   7.160 -0.8408  1.5208 -3.8632
  214MOL0     H28885   5.588   8.457   7.123  4.3055 -2.2883 -2.3515
  214MOL0     H28886   5.982   8.616   7.198  0.5314 -3.4097 -2.0134
  214MOL0     H28887   5.433   8.171   7.166  1.5457 -0.3229  0.4944
  214MOL0     H28888   5.384   7.978   7.284  2.0068 -1.0407  0.1494
  214MOL0     H28889   5.215   7.968   7.249 -3.0214 -0.6639 -4.5413
  214MOL0     H28890   5.318   7.839   7.192 -0.5776  0.3264  4.5778
  215MOL0     O28891   2.841   1.470   7.793  0.2617  0.0164  0.6084
  215MOL0     C28892   2.896   1.499   7.900  0.2720  0.4517 -0.5708
  215MOL0     O28893   2.899   1.614   7.966 -0.1873 -0.4819 -0.2191
  215MOL0     C28894   2.849   1.725   7.906  0.9890 -0.3083 -0.1747
  215MOL0     C28895   2.850   1.741   7.764  0.6524  0.6920 -0.0828
  215MOL0     C28896   2.783   1.850   7.707  0.0910 -0.8850  1.2627
  215MOL0     C28897   2.725   1.956   7.786  0.1764 -0.2281  0.9821
  215MOL0     O28898   2.683   2.083   7.750  0.9823 -0.5670 -0.1095
  215MOL0     C28899   2.660   2.092   7.608 -1.2702 -0.1386  0.9631
  215MOL0     C28900   2.577   2.208   7.561 -0.5360  1.0419 -1.2239
  215MOL0     C28901   2.570   2.218   7.408 -0.4138  0.0379 -1.1437
  215MOL0     C28902   2.479   2.333   7.353  0.1376  0.3911 -0.0529
  215MOL0     C28903   2.472   2.330   7.199  0.0101 -0.5943  0.7100
  215MOL0     C28904   2.409   2.465   7.151 -0.6211  0.0260 -0.8537
  215MOL0     C28905   2.367   2.468   6.999 -0.7347  0.9215  0.1550
  215MOL0     C28906   2.461   2.403   6.900 -1.0422 -0.3585 -0.3976
  215MOL0     N28907   2.591   2.463   6.912 -0.6216  1.4938  0.3628
  215MOL0     C28908   2.629   2.593   6.908 -0.4681 -0.2422  0.4519
  215MOL0     C28909   2.762   2.576   6.902 -1.0374 -0.2805 -0.7239
  215MOL0     C28910   2.850   2.684   6.845  0.1020 -0.2046  0.0978
  215MOL0     C28911   2.983   2.709   6.918 -0.3378  0.2112  0.1007
  215MOL0     C28912   2.954   2.739   7.065 -0.8142  0.3572 -0.2712
  215MOL0     C28913   3.056   2.850   7.115 -0.0489  0.4646  0.7556
  215MOL0     O28914   3.034   2.898   7.246 -0.3361  0.4463 -0.2139
  215MOL0     C28915   3.051   3.035   7.253  1.6615  0.3856  0.8430
  215MOL0     C28916   3.151   3.085   7.330  0.2095  0.4950  0.2898
  215MOL0     C28917   3.181   3.221   7.318 -0.6620 -0.1661  0.5185
  215MOL0     C28918   3.099   3.314   7.257 -0.1278  0.2491  0.3056
  215MOL0     C28919   3.116   3.459   7.277 -0.2816  0.4090 -0.3665
  215MOL0     O28920   3.208   3.491   7.369 -0.7591  0.6514  0.3686
  215MOL0     C28921   3.240   3.624   7.390 -0.4648  0.3879 -0.6416
  215MOL0     C28922   3.322   3.622   7.502  0.1561 -0.0109 -0.2438
  215MOL0     C28923   3.367   3.740   7.560 -0.6360 -0.3906 -0.5858
  215MOL0     C28924   3.315   3.856   7.514 -0.5929  0.8554 -0.8735
  215MOL0     O28925   3.361   3.976   7.568 -0.7224  0.4036  0.3017
  215MOL0     C28926   3.252   4.057   7.603 -0.5037  0.8524  0.3810
  215MOL0     C28927   3.266   4.179   7.511 -0.8429  1.6190 -0.3734
  215MOL0     C28928   3.403   4.244   7.542  0.8125 -0.6174 -0.2388
  215MOL0     C28929   3.437   4.351   7.436 -0.8346 -0.0094  0.6136
  215MOL0     C28930   3.590   4.399   7.452  0.8449  0.0219  1.4748
  215MOL0     C28931   3.688   4.284   7.421  0.1749 -0.7110  0.5511
  215MOL0     C28932   3.821   4.333   7.363  0.4531 -0.5270  0.2478
  215MOL0     C28933   3.903   4.210   7.345  0.3018  0.7113  0.4682
  215MOL0    Cl28934   3.980   4.159   7.499  0.2284  0.4145 -0.2773
  215MOL0     C28935   3.225   3.864   7.407  0.4506  0.0283 -0.7104
  215MOL0     C28936   3.182   3.747   7.341  0.2901 -0.1981  0.2895
  215MOL0     O28937   3.043   3.528   7.210  0.0821  0.2841 -0.2697
  215MOL0     C28938   2.983   3.259   7.197 -0.7765  1.0178 -0.3405
  215MOL0     C28939   2.958   3.122   7.188 -0.6085  0.1416 -0.8259
  215MOL0     N28940   2.798   2.451   6.923 -0.7531 -0.3114  0.0703
  215MOL0     N28941   2.698   2.381   6.937  0.8865 -0.4870 -0.1663
  215MOL0     C28942   2.732   1.945   7.929  0.0366  0.2127 -1.0642
  215MOL0     C28943   2.792   1.831   7.987  0.5966  0.2417 -0.3600
  215MOL0     C28944   2.985   1.392   7.961  0.5976 -0.5652 -1.5381
  215MOL0     C28945   3.074   1.330   7.875 -0.3640 -0.2660  1.4613
  215MOL0     C28946   3.159   1.236   7.924 -0.9493 -0.2647  0.7153
  215MOL0     C28947   3.146   1.191   8.052 -0.9957 -1.3146  0.2283
  215MOL0     O28948   3.220   1.087   8.101 -0.7051  0.0403  0.1666
  215MOL0     C28949   3.278   0.997   8.005 -0.3149 -0.0457  0.5944
  215MOL0     C28950   3.353   0.875   8.066 -0.1843  1.0937  0.1055
  215MOL0     C28951   3.445   0.894   8.191  0.7981 -0.2381 -0.9216
  215MOL0     C28952   3.484   0.759   8.247 -0.2405 -0.6523  0.9622
  215MOL0     C28953   3.599   0.707   8.174  1.2110 -0.8618  0.2466
  215MOL0     C28954   3.691   0.646   8.129  0.1858 -1.0024  0.7925
  215MOL0     C28955   3.065   1.258   8.145  0.2908  0.5757 -0.2781
  215MOL0     C28956   2.988   1.362   8.093 -0.0606 -0.3631 -1.0906
  215MOL0     C28957   2.903   1.425   8.198  0.4039 -0.0691 -0.9982
  215MOL0     H28958   2.891   1.686   7.680  0.4725  2.0368 -1.0787
  215MOL0     H28959   2.777   1.856   7.599  3.2238  0.3079  1.0239
  215MOL0     H28960   2.759   2.104   7.563 -1.6398 -2.3642 -0.5768
  215MOL0     H28961   2.599   2.011   7.567 -1.1079  0.0888  0.2540
  215MOL0     H28962   2.629   2.299   7.595 -2.3031  1.4618  0.5831
  215MOL0     H28963   2.480   2.195   7.609 -0.4717 -3.0322 -1.8773
  215MOL0     H28964   2.544   2.119   7.367  1.3462  0.0591 -2.4647
  215MOL0     H28965   2.667   2.231   7.360  0.6240 -1.7912  0.3141
  215MOL0     H28966   2.379   2.313   7.393  1.5616 -1.4143  2.9677
  215MOL0     H28967   2.518   2.429   7.388 -0.8117  1.8153 -2.7000
  215MOL0     H28968   2.569   2.299   7.158  1.6790  0.5004  3.5258
  215MOL0     H28969   2.403   2.247   7.180 -1.6427  0.2784  2.5793
  215MOL0     H28970   2.319   2.481   7.211 -0.4019  0.9300 -0.7644
  215MOL0     H28971   2.479   2.548   7.159 -2.9381  1.9493  0.5633
  215MOL0     H28972   2.354   2.571   6.965  2.2030  0.2942 -3.4047
  215MOL0     H28973   2.273   2.413   6.986  2.3100 -4.7280 -1.6106
  215MOL0     H28974   2.451   2.294   6.906 -0.7216 -0.4139 -0.7854
  215MOL0     H28975   2.424   2.428   6.800  1.1466  3.0037 -0.5317
  215MOL0     H28976   2.564   2.681   6.913 -0.2251 -0.1188  2.3547
  215MOL0     H28977   2.870   2.672   6.738 -1.2914 -1.5075 -0.0496
  215MOL0     H28978   2.792   2.776   6.849  0.3590  0.3441 -4.0871
  215MOL0     H28979   3.054   2.626   6.911 -2.8542 -1.9514 -1.2115
  215MOL0     H28980   3.042   2.781   6.861 -0.6862  0.8524  0.5340
  215MOL0     H28981   2.974   2.660   7.137 -1.8316  2.7274  2.8459
  215MOL0     H28982   2.854   2.777   7.086  0.3408  2.4403  2.0800
  215MOL0     H28983   3.073   2.923   7.034  2.1276  1.1795  1.7931
  215MOL0     H28984   3.152   2.801   7.126 -0.1884  0.1544  0.5848
  215MOL0     H28985   3.206   3.016   7.392 -0.7926 -0.9774 -0.4034
  215MOL0     H28986   3.264   3.263   7.373  1.0560 -0.7067 -1.5086
  215MOL0     H28987   3.370   3.533   7.542 -0.0034 -0.6653 -1.4545
  215MOL0     H28988   3.459   3.743   7.617 -1.2993  3.1967  0.5592
  215MOL0     H28989   3.150   4.018   7.591 -0.6609  0.0910  3.4841
  215MOL0     H28990   3.260   4.108   7.699  2.3094  3.6222 -1.1353
  215MOL0     H28991   3.267   4.162   7.403 -0.3256  1.7107 -0.3891
  215MOL0     H28992   3.177   4.240   7.529 -1.7236  0.2219  0.1277
  215MOL0     H28993   3.388   4.297   7.637 -2.3305  0.3794 -1.1882
  215MOL0     H28994   3.492   4.181   7.551  4.4616  4.1269  1.5875
  215MOL0     H28995   3.368   4.433   7.457 -1.8920 -1.2784  2.3770
  215MOL0     H28996   3.423   4.311   7.336  1.6297 -0.2107  0.2957
  215MOL0     H28997   3.609   4.439   7.552 -0.7567 -1.1576  2.3088
  215MOL0     H28998   3.613   4.485   7.389  1.4564  0.4854  2.3142
  215MOL0     H28999   3.694   4.225   7.513  2.7000 -1.8607 -0.2588
  215MOL0     H29000   3.645   4.216   7.348  1.5465  0.5382 -1.5072
  215MOL0     H29001   3.868   4.409   7.426  0.3199 -0.7255  0.5889
  215MOL0     H29002   3.785   4.376   7.269 -3.7333  0.6755  2.1561
  215MOL0     H29003   3.857   4.125   7.294  0.8488 -0.6808  2.2027
  215MOL0     H29004   3.985   4.238   7.278  0.9082 -0.1042  0.8610
  215MOL0     H29005   3.167   3.954   7.389  1.4013  0.7253 -0.3518
  215MOL0     H29006   3.110   3.748   7.260  0.1493 -1.0834  0.3919
  215MOL0     H29007   2.921   3.339   7.157 -1.2317 -0.5523 -3.0381
  215MOL0     H29008   2.872   3.077   7.139 -0.4591 -2.7427  1.2705
  215MOL0     H29009   2.678   2.015   7.992 -0.7807 -2.5260  1.5280
  215MOL0     H29010   2.802   1.825   8.095 -1.4813  0.2112 -0.1164
  215MOL0     H29011   3.070   1.353   7.769  0.3605  0.6072  1.6027
  215MOL0     H29012   3.221   1.186   7.851 -0.2908  3.0853 -1.1920
  215MOL0     H29013   3.347   1.063   7.951 -0.2682 -1.8077 -1.6342
  215MOL0     H29014   3.198   0.957   7.942  0.6731  1.6992 -1.9321
  215MOL0     H29015   3.402   0.815   7.989 -1.7751 -0.4210  0.2168
  215MOL0     H29016   3.273   0.814   8.108  0.0998  0.8142  0.2453
  215MOL0     H29017   3.398   0.947   8.275 -0.5615  0.4721 -2.0881
  215MOL0     H29018   3.529   0.960   8.165 -0.9134  1.8855 -1.2792
  215MOL0     H29019   3.517   0.795   8.345 -1.2073  5.0556 -0.4392
  215MOL0     H29020   3.403   0.685   8.254 -0.1163 -1.1944 -2.1429
  215MOL0     H29021   3.770   0.587   8.087 -0.2290 -2.3900  1.9129
  215MOL0     H29022   3.057   1.223   8.248 -1.0617 -3.1606 -1.4764
  215MOL0     H29023   2.884   1.532   8.185  2.6791  0.4683 -0.3098
  215MOL0     H29024   2.807   1.374   8.191 -1.3491  2.7371  0.5353
  215MOL0     H29025   2.952   1.407   8.293  1.7564  0.3847 -1.5839
  216MOL0     O29026   1.014   3.796   4.405  0.6234  0.6671  0.5188
  216MOL0     C29027   1.062   3.908   4.389 -0.6672  0.2443 -0.7286
  216MOL0     O29028   1.063   3.983   4.272 -0.3700 -0.4792 -0.2011
  216MOL0     C29029   1.061   3.916   4.154  0.0081 -1.3064 -0.4288
  216MOL0     C29030   0.974   3.965   4.056  0.1580  0.4532 -0.0605
  216MOL0     C29031   0.967   3.918   3.924 -0.6742 -0.9904 -0.4344
  216MOL0     C29032   1.065   3.826   3.892  0.0270  0.1060  0.0571
  216MOL0     O29033   1.060   3.772   3.760 -0.3101 -0.0117 -0.1954
  216MOL0     C29034   0.952   3.807   3.669 -0.3131 -0.0576  0.3834
  216MOL0     C29035   0.977   3.739   3.524  0.0786  0.4015 -1.0415
  216MOL0     C29036   0.980   3.580   3.537  0.3224  0.3486 -0.2382
  216MOL0     C29037   0.856   3.511   3.568 -0.1003  0.0642  0.3392
  216MOL0     C29038   0.889   3.376   3.643  0.3156  0.6303  0.1837
  216MOL0     C29039   0.935   3.258   3.537 -0.2299 -0.1538  0.0698
  216MOL0     C29040   0.952   3.123   3.601 -0.1437 -0.3274 -0.6087
  216MOL0     C29041   0.979   3.016   3.496  0.7780  0.7130 -0.3550
  216MOL0     N29042   0.975   2.879   3.550  0.0879  0.1432 -0.3955
  216MOL0     C29043   1.082   2.819   3.596 -0.0999 -0.4571  0.1887
  216MOL0     C29044   1.032   2.700   3.635  0.1395 -0.7925 -0.6195
  216MOL0     C29045   1.102   2.590   3.694  0.6250  0.5600 -0.6641
  216MOL0     C29046   1.224   2.557   3.611 -0.6007 -0.2883 -0.6409
  216MOL0     C29047   1.275   2.417   3.634 -1.0425  0.0370 -0.2378
  216MOL0     C29048   1.316   2.382   3.776  0.6028  0.4248  0.9043
  216MOL0     O29049   1.417   2.469   3.820 -0.4937 -0.6071 -0.3261
  216MOL0     C29050   1.455   2.443   3.947  0.0365  0.9755 -0.1882
  216MOL0     C29051   1.587   2.412   3.966  0.0749  0.2527 -0.3438
  216MOL0     C29052   1.625   2.382   4.095 -0.1449 -0.7211  1.2582
  216MOL0     C29053   1.545   2.389   4.209 -0.8601 -0.6727 -0.4278
  216MOL0     C29054   1.598   2.351   4.341  0.1291  0.5697 -0.7541
  216MOL0     O29055   1.729   2.305   4.339 -0.6288  0.3991 -0.0171
  216MOL0     C29056   1.800   2.276   4.450  1.5711  1.1526  0.0072
  216MOL0     C29057   1.744   2.233   4.576  0.0981  1.0142  0.1974
  216MOL0     C29058   1.822   2.218   4.695 -1.1268 -0.6275  0.8364
  216MOL0     C29059   1.958   2.242   4.680 -0.1548  0.5070  0.2074
  216MOL0     O29060   2.057   2.242   4.774  0.4587 -0.4697  0.1911
  216MOL0     C29061   2.039   2.185   4.902  0.1263 -0.5322  0.8156
  216MOL0     C29062   2.112   2.054   4.901  0.2224 -0.5406 -0.1684
  216MOL0     C29063   2.271   2.066   4.873  0.5099  0.4631 -0.1351
  216MOL0     C29064   2.346   1.932   4.857  0.7869 -0.1285  0.0582
  216MOL0     C29065   2.482   1.939   4.809 -1.0643 -0.8684  0.6630
  216MOL0     C29066   2.531   1.800   4.754  0.8062 -0.2037 -0.5489
  216MOL0     C29067   2.664   1.815   4.687 -0.6124  0.7302  0.3905
  216MOL0     C29068   2.697   1.682   4.624 -0.4445  0.1373 -0.0710
  216MOL0    Cl29069   2.716   1.549   4.742 -0.0391  0.3365 -0.1971
  216MOL0     C29070   2.009   2.281   4.556 -0.7546  0.3483  0.0020
  216MOL0     C29071   1.932   2.290   4.439 -0.1343 -0.2762  0.0669
  216MOL0     O29072   1.527   2.352   4.441 -0.5983  0.5505 -0.0931
  216MOL0     C29073   1.414   2.429   4.192 -1.3434 -0.2856 -0.2815
  216MOL0     C29074   1.372   2.449   4.062  0.1256 -0.8901  0.0707
  216MOL0     N29075   0.902   2.686   3.600  0.2385  0.0551 -0.0071
  216MOL0     N29076   0.866   2.796   3.545  0.8355  0.3487  0.0883
  216MOL0     C29077   1.152   3.777   3.991 -0.6050 -0.7134 -0.5354
  216MOL0     C29078   1.146   3.814   4.128  0.2841 -0.0253  0.3990
  216MOL0     C29079   1.111   3.983   4.503 -0.4783  0.3141 -0.1244
  216MOL0     C29080   1.014   4.074   4.555 -0.3611 -0.2194 -0.5010
  216MOL0     C29081   1.050   4.158   4.663  0.3326  0.2670  0.3279
  216MOL0     C29082   1.181   4.142   4.721 -0.0520 -0.1895 -0.3442
  216MOL0     O29083   1.217   4.206   4.835 -0.9178 -0.0982  0.5964
  216MOL0     C29084   1.156   4.332   4.864  0.1339  0.3119 -0.7452
  216MOL0     C29085   1.057   4.332   4.975 -0.3341 -0.1167  0.3132
  216MOL0     C29086   1.133   4.330   5.112  0.2149  0.6993  0.8260
  216MOL0     C29087   1.047   4.388   5.215  0.3128 -0.3411  0.3934
  216MOL0     C29088   1.110   4.402   5.347 -0.1521 -0.3036  0.2548
  216MOL0     C29089   1.158   4.405   5.451 -0.6650 -0.9494 -0.4012
  216MOL0     C29090   1.279   4.050   4.664  0.6315 -1.1097 -0.1190
  216MOL0     C29091   1.237   3.970   4.556 -0.0845  0.4024 -0.0239
  216MOL0     C29092   1.350   3.876   4.514  0.0165  0.4998  0.2523
  216MOL0     H29093   0.919   4.056   4.075  2.6481  1.4973  3.0354
  216MOL0     H29094   0.888   3.966   3.867 -1.5894 -0.3372  1.3013
  216MOL0     H29095   0.863   3.763   3.715 -0.3595  2.5801  3.1627
  216MOL0     H29096   0.938   3.916   3.667 -1.3480 -0.1897 -0.9136
  216MOL0     H29097   1.073   3.763   3.478  1.8398 -1.3852  1.4603
  216MOL0     H29098   0.895   3.774   3.460  1.5118 -0.8547 -3.7182
  216MOL0     H29099   1.055   3.567   3.615  0.8897  0.3904 -0.7698
  216MOL0     H29100   1.006   3.534   3.441 -0.9234 -1.7663  0.3888
  216MOL0     H29101   0.785   3.574   3.623 -1.5103 -1.5871  0.4974
  216MOL0     H29102   0.806   3.499   3.472 -1.5645 -0.4150  1.1358
  216MOL0     H29103   0.962   3.393   3.723  2.4879 -2.1788 -1.0355
  216MOL0     H29104   0.797   3.342   3.692 -0.3508  1.9592 -0.0871
  216MOL0     H29105   0.869   3.246   3.450  2.2740 -0.5901 -1.8955
  216MOL0     H29106   1.031   3.287   3.494 -1.6670 -1.1049 -4.2763
  216MOL0     H29107   0.855   3.097   3.645  0.4549  1.0337  1.6920
  216MOL0     H29108   1.033   3.124   3.674 -0.2604  0.2527 -0.4838
  216MOL0     H29109   0.908   3.023   3.413 -1.2829 -1.8074  1.0376
  216MOL0     H29110   1.080   3.025   3.456  1.2261 -0.4599  0.4614
  216MOL0     H29111   1.163   2.871   3.645  0.6943  0.2230 -1.7680
  216MOL0     H29112   1.133   2.606   3.797  0.4480  1.8252 -0.7854
  216MOL0     H29113   1.031   2.507   3.689  1.8373 -0.4310 -1.9789
  216MOL0     H29114   1.203   2.563   3.504 -1.2262 -0.6569 -0.5459
  216MOL0     H29115   1.306   2.622   3.645 -0.0014 -0.8254 -1.0245
  216MOL0     H29116   1.357   2.401   3.564  2.7465 -0.2756  3.8930
  216MOL0     H29117   1.200   2.345   3.601 -1.4040  0.8398 -1.2262
  216MOL0     H29118   1.364   2.284   3.787 -0.4110  0.0773  2.3895
  216MOL0     H29119   1.225   2.386   3.836 -1.9282  3.7978 -2.6084
  216MOL0     H29120   1.663   2.410   3.889  0.1471 -2.3105 -0.2871
  216MOL0     H29121   1.731   2.362   4.104 -0.2322 -0.7660  2.4302
  216MOL0     H29122   1.640   2.217   4.601  0.0510  1.5760  0.3837
  216MOL0     H29123   1.774   2.187   4.787  0.6922 -0.8306  1.7536
  216MOL0     H29124   2.082   2.242   4.985 -1.3524  2.5328 -0.3318
  216MOL0     H29125   1.933   2.175   4.929 -0.8618  0.8643 -2.0713
  216MOL0     H29126   2.103   2.017   5.004  0.2490  1.9234  0.7929
  216MOL0     H29127   2.059   1.986   4.835 -0.9075  0.0182  0.1370
  216MOL0     H29128   2.290   2.123   4.781 -1.1846 -0.4667 -1.1041
  216MOL0     H29129   2.304   2.123   4.960 -0.6434 -0.0829  0.6832
  216MOL0     H29130   2.296   1.859   4.792  2.1500 -3.1224  2.1357
  216MOL0     H29131   2.359   1.883   4.954 -3.7665 -1.8720  0.0379
  216MOL0     H29132   2.546   1.973   4.891  0.9913 -0.3934 -1.0761
  216MOL0     H29133   2.488   2.009   4.725 -0.1266 -0.7871  0.7926
  216MOL0     H29134   2.526   1.730   4.838  0.1550  0.0895 -0.3403
  216MOL0     H29135   2.457   1.785   4.675  0.0840 -0.7535  0.2226
  216MOL0     H29136   2.747   1.843   4.752 -1.1583 -1.0168  1.9341
  216MOL0     H29137   2.669   1.886   4.604  3.7597 -1.6760 -1.7167
  216MOL0     H29138   2.627   1.668   4.542  2.1160 -1.3461 -2.1671
  216MOL0     H29139   2.786   1.683   4.561 -3.4275  5.0403 -5.1297
  216MOL0     H29140   2.113   2.310   4.542 -0.6436  0.5172  1.1160
  216MOL0     H29141   1.977   2.326   4.347  1.6813 -3.4083 -0.4245
  216MOL0     H29142   1.347   2.451   4.275  0.5816  1.5632  0.8808
  216MOL0     H29143   1.269   2.467   4.035  0.4401  1.5240  0.2850
  216MOL0     H29144   1.232   3.711   3.959 -0.1284 -0.5603  0.3152
  216MOL0     H29145   1.214   3.780   4.205 -0.0148  0.3386  0.8239
  216MOL0     H29146   0.919   4.075   4.504 -1.1620 -2.8363  0.7602
  216MOL0     H29147   0.981   4.233   4.700  0.5241  0.3471  0.5192
  216MOL0     H29148   1.107   4.385   4.782 -2.0112 -0.7178 -0.2069
  216MOL0     H29149   1.241   4.400   4.875 -1.8091  2.6209  1.1432
  216MOL0     H29150   0.996   4.248   4.940 -0.6763 -0.2735  1.2628
  216MOL0     H29151   0.993   4.420   4.967 -2.1971 -1.2760  1.7660
  216MOL0     H29152   1.217   4.400   5.118 -1.9875  3.5111  0.4392
  216MOL0     H29153   1.169   4.232   5.147  1.9975  1.2048  0.5084
  216MOL0     H29154   1.020   4.491   5.189  3.6020  0.2042 -1.4678
  216MOL0     H29155   0.962   4.320   5.227  0.3843 -0.7809 -1.3383
  216MOL0     H29156   1.204   4.432   5.544  0.0059  0.7718 -1.1845
  216MOL0     H29157   1.381   4.048   4.701  2.2796  4.3241 -3.1275
  216MOL0     H29158   1.350   3.875   4.404 -1.5744  0.3597  0.2292
  216MOL0     H29159   1.454   3.899   4.537  0.1336  2.9569 -2.2088
  216MOL0     H29160   1.328   3.774   4.546 -3.5822  0.4119 -1.9680
  217MOL0     O29161   2.081   6.347   0.100  0.5769  0.3417 -0.2943
  217MOL0     C29162   2.132   6.238   0.124 -0.4183  0.2396  0.0022
  217MOL0     O29163   2.264   6.217   0.147 -0.1842 -0.5569 -0.2015
  217MOL0     C29164   2.348   6.326   0.144  0.7741 -0.0212 -0.5562
  217MOL0     C29165   2.351   6.425   0.046 -0.3018 -0.7160  1.0983
  217MOL0     C29166   2.441   6.532   0.055  0.2267 -0.6812 -0.5634
  217MOL0     C29167   2.535   6.538   0.160 -0.4444 -0.3078  0.0497
  217MOL0     O29168   2.627   6.639   0.180 -0.1854 -0.1884 -0.2001
  217MOL0     C29169   2.624   6.764   0.103  0.7549 -0.3640  0.7726
  217MOL0     C29170   2.683   6.874   0.194 -0.2460 -1.2059 -0.5277
  217MOL0     C29171   2.608   6.910   0.326 -0.1098  0.0368 -0.4845
  217MOL0     C29172   2.456   6.890   0.304 -0.1346 -0.4569 -0.2205
  217MOL0     C29173   2.375   6.970   0.410 -0.3106  0.6031 -1.1739
  217MOL0     C29174   2.350   6.885   0.543  0.0213  0.7821 -0.0879
  217MOL0     C29175   2.477   6.877   0.644  0.3222  0.4488  0.4293
  217MOL0     C29176   2.440   6.896   0.793  0.4295  0.0378 -0.0307
  217MOL0     N29177   2.324   6.803   0.834 -0.8039  0.2260 -0.2440
  217MOL0     C29178   2.196   6.842   0.834  0.3718  0.5908  0.4930
  217MOL0     C29179   2.125   6.724   0.867 -0.0218  0.4425  0.1659
  217MOL0     C29180   1.980   6.688   0.868 -0.2334 -0.0053  0.2338
  217MOL0     C29181   1.897   6.767   0.967  0.4425  0.4731 -0.7321
  217MOL0     C29182   1.842   6.899   0.918  0.4249 -0.4038  0.3710
  217MOL0     C29183   1.761   6.975   1.024 -0.0083 -0.0468  0.8644
  217MOL0     O29184   1.730   7.108   0.965  0.3833  0.3584  0.0075
  217MOL0     C29185   1.685   7.208   1.047 -0.0805 -0.0055  0.0115
  217MOL0     C29186   1.714   7.340   1.012 -0.5411 -0.7305  0.3374
  217MOL0     C29187   1.678   7.448   1.098 -1.2922 -0.1388  0.2281
  217MOL0     C29188   1.619   7.417   1.221  0.1376  0.7852 -0.1739
  217MOL0     C29189   1.543   7.529   1.281  0.1370 -0.5003 -0.5863
  217MOL0     O29190   1.430   7.498   1.361 -0.9013  0.0664 -0.8246
  217MOL0     C29191   1.330   7.583   1.399 -0.5608 -0.2062  0.4719
  217MOL0     C29192   1.258   7.640   1.299 -0.0609  0.6331 -0.3040
  217MOL0     C29193   1.161   7.732   1.330  0.6701 -1.2637  0.0070
  217MOL0     C29194   1.141   7.772   1.466  0.3591 -0.5703 -0.2730
  217MOL0     O29195   1.073   7.880   1.507 -0.3368  0.2193 -0.1263
  217MOL0     C29196   0.984   7.964   1.426 -0.5258  0.3681 -0.3500
  217MOL0     C29197   1.070   8.077   1.381 -0.0659  0.1885  0.6514
  217MOL0     C29198   1.025   8.201   1.304  0.3105 -0.7124 -0.0287
  217MOL0     C29199   1.144   8.255   1.233  0.4498  1.0836 -0.3836
  217MOL0     C29200   1.122   8.394   1.182  0.0062  0.8894  0.0322
  217MOL0     C29201   0.991   8.417   1.099  0.1095  0.8418 -0.0765
  217MOL0     C29202   0.949   8.308   0.998 -0.6900 -0.4722 -0.6163
  217MOL0     C29203   0.858   8.368   0.893  0.5001  0.0906  0.5756
  217MOL0    Cl29204   0.950   8.499   0.804 -0.0039  0.2448  0.4511
  217MOL0     C29205   1.219   7.720   1.562 -0.7547 -0.3917  0.3477
  217MOL0     C29206   1.325   7.627   1.526  1.3302 -0.3100 -0.7652
  217MOL0     O29207   1.586   7.644   1.259  0.5272 -0.2988 -0.2571
  217MOL0     C29208   1.595   7.291   1.263 -0.0219 -0.3001  0.6121
  217MOL0     C29209   1.642   7.188   1.181  0.6325 -0.1972  0.8976
  217MOL0     N29210   2.221   6.624   0.875  0.0875 -1.0719  0.4470
  217MOL0     N29211   2.341   6.673   0.861 -0.4227  0.3881  0.2651
  217MOL0     C29212   2.527   6.444   0.259 -0.4808  0.5097 -0.0920
  217MOL0     C29213   2.442   6.333   0.256  0.8740  0.7853  0.7121
  217MOL0     C29214   2.051   6.109   0.114 -0.3986 -0.1136  0.3350
  217MOL0     C29215   2.121   5.987   0.079  0.2123 -0.8792  0.4066
  217MOL0     C29216   2.061   5.860   0.070 -0.9184 -0.0063  1.1442
  217MOL0     C29217   1.928   5.853   0.063 -0.2656 -0.3935  0.9826
  217MOL0     O29218   1.867   5.727   0.050 -0.3640 -0.1460 -0.5698
  217MOL0     C29219   1.878   5.632   0.162  0.7039 -0.6673 -0.2975
  217MOL0     C29220   1.738   5.616   0.239 -0.6114  1.1129  0.2680
  217MOL0     C29221   1.761   5.526   0.366 -0.4016 -0.1233 -1.0485
  217MOL0     C29222   1.766   5.605   0.501  1.2860 -0.6182 -0.4304
  217MOL0     C29223   1.870   5.706   0.504  0.0262 -0.2472 -0.2128
  217MOL0     C29224   1.970   5.772   0.490  0.6449 -1.0147 -1.2280
  217MOL0     C29225   1.858   5.959   0.091 -0.1714 -0.2600  0.5354
  217MOL0     C29226   1.905   6.091   0.125  0.5975  1.6486 -0.1378
  217MOL0     C29227   1.813   6.199   0.156  0.7874  0.4213  0.0343
  217MOL0     H29228   2.291   6.425  -0.044 -0.9831  1.4833  1.5015
  217MOL0     H29229   2.431   6.605  -0.024 -0.3474 -1.3575 -1.1372
  217MOL0     H29230   2.674   6.765   0.006 -1.6762 -1.6440 -0.5901
  217MOL0     H29231   2.526   6.792   0.063  0.7827  0.8642  1.5107
  217MOL0     H29232   2.675   6.967   0.139  0.8734  0.3221  1.7207
  217MOL0     H29233   2.788   6.849   0.216 -0.3512  0.6783  2.7772
  217MOL0     H29234   2.632   7.011   0.359  5.2176 -1.4070  1.2008
  217MOL0     H29235   2.640   6.847   0.410 -1.5688 -1.6217 -1.1187
  217MOL0     H29236   2.426   6.917   0.203  0.0718 -1.1244 -0.4627
  217MOL0     H29237   2.432   6.783   0.301 -1.5659 -0.1429 -0.7364
  217MOL0     H29238   2.425   7.056   0.455  1.0215 -0.3847 -0.7100
  217MOL0     H29239   2.283   7.000   0.359  0.5720  1.1880 -2.4709
  217MOL0     H29240   2.268   6.933   0.597 -0.8088 -2.3881  1.7020
  217MOL0     H29241   2.317   6.783   0.522 -0.4288  0.7446  0.7814
  217MOL0     H29242   2.530   6.969   0.618  1.7239 -0.9668 -2.0591
  217MOL0     H29243   2.528   6.781   0.639  2.3997  1.5624 -2.1409
  217MOL0     H29244   2.524   6.877   0.860 -0.0896 -2.3868  0.0278
  217MOL0     H29245   2.401   6.996   0.815 -2.6772 -0.4364 -2.5785
  217MOL0     H29246   2.159   6.944   0.826 -2.6715 -0.5390 -1.5631
  217MOL0     H29247   1.946   6.715   0.768 -1.1810  0.7230  0.7336
  217MOL0     H29248   1.976   6.579   0.874  0.7872  0.0035  1.5732
  217MOL0     H29249   1.820   6.696   0.998  2.1632 -0.7145  1.0859
  217MOL0     H29250   1.960   6.786   1.055 -2.2878 -1.9049  2.0020
  217MOL0     H29251   1.761   6.882   0.846 -0.0442  0.7833  0.5850
  217MOL0     H29252   1.922   6.959   0.874  0.1092  1.8841  2.7058
  217MOL0     H29253   1.827   6.983   1.112 -0.1101  2.3152  0.7763
  217MOL0     H29254   1.671   6.926   1.062 -0.7215  0.7760  0.2463
  217MOL0     H29255   1.767   7.360   0.920  1.1091 -0.5340  1.2916
  217MOL0     H29256   1.704   7.550   1.071  1.9170 -0.4716  1.6176
  217MOL0     H29257   1.283   7.618   1.196  2.0321 -1.6298  0.5823
  217MOL0     H29258   1.125   7.783   1.242  0.5241 -2.0683 -0.4145
  217MOL0     H29259   0.934   7.911   1.345  0.2645  1.3620 -1.5224
  217MOL0     H29260   0.910   8.016   1.487 -0.0818  2.4928 -1.5398
  217MOL0     H29261   1.123   8.105   1.472 -3.3666 -2.3645  3.6587
  217MOL0     H29262   1.144   8.028   1.318 -0.0108 -4.0385  3.5492
  217MOL0     H29263   0.951   8.160   1.233  2.3862 -1.8407 -1.6667
  217MOL0     H29264   0.982   8.278   1.368  2.7675  1.4492 -0.8064
  217MOL0     H29265   1.161   8.188   1.148  2.5885  1.0129  0.0369
  217MOL0     H29266   1.238   8.263   1.288 -0.5500 -1.5044  1.8749
  217MOL0     H29267   1.204   8.412   1.113  1.2301 -3.1912  0.1711
  217MOL0     H29268   1.129   8.469   1.261  3.4960  1.6262 -0.8069
  217MOL0     H29269   0.907   8.428   1.169 -1.5749 -0.0076 -1.8453
  217MOL0     H29270   1.005   8.514   1.052 -2.3366  2.0372  1.4530
  217MOL0     H29271   0.892   8.231   1.049 -0.8576  0.3403  0.4623
  217MOL0     H29272   1.040   8.267   0.953  1.4492  0.3766  2.5643
  217MOL0     H29273   0.825   8.297   0.817  2.0939  1.4961 -1.5578
  217MOL0     H29274   0.768   8.397   0.947 -0.5296  0.4325 -1.2358
  217MOL0     H29275   1.201   7.753   1.664 -5.7521 -4.3149  1.0826
  217MOL0     H29276   1.393   7.589   1.602 -0.3761  0.4181  1.2385
  217MOL0     H29277   1.553   7.253   1.355  1.2439 -1.0930  0.8898
  217MOL0     H29278   1.631   7.085   1.211 -3.4596 -1.2161 -2.8906
  217MOL0     H29279   2.599   6.446   0.340  2.2592 -2.1620 -2.2083
  217MOL0     H29280   2.450   6.253   0.328 -0.5360  0.2125  0.2548
  217MOL0     H29281   2.226   5.982   0.055 -0.3436 -1.0543 -2.3703
  217MOL0     H29282   2.109   5.769   0.035 -0.0300  1.1424 -0.8036
  217MOL0     H29283   1.959   5.658   0.232  0.2528 -1.4250  0.5363
  217MOL0     H29284   1.896   5.530   0.125  1.2932 -0.4632 -0.5903
  217MOL0     H29285   1.651   5.579   0.183 -0.3887 -0.3514  0.8524
  217MOL0     H29286   1.712   5.718   0.268  0.8125  2.3017 -2.2601
  217MOL0     H29287   1.862   5.484   0.363  0.7424  2.4573 -1.0007
  217MOL0     H29288   1.689   5.444   0.373 -0.0804 -0.2641  1.3400
  217MOL0     H29289   1.670   5.651   0.526  1.7308  0.3466 -0.4529
  217MOL0     H29290   1.795   5.538   0.583 -2.1461 -2.9105 -0.8890
  217MOL0     H29291   2.058   5.832   0.494 -0.7776  1.1416  0.4726
  217MOL0     H29292   1.752   5.942   0.077  0.1592 -1.8471 -0.3392
  217MOL0     H29293   1.850   6.281   0.217  1.3848 -1.1391  1.8889
  217MOL0     H29294   1.783   6.238   0.058  0.6259 -0.9910 -0.5101
  217MOL0     H29295   1.722   6.156   0.199  0.0873  1.8597  0.0581
  218MOL0     O29296   7.279   1.279   7.257 -0.2121 -0.0549  0.4810
  218MOL0     C29297   7.379   1.347   7.234  0.6658  0.9883  0.2251
  218MOL0     O29298   7.499   1.289   7.193 -1.1698 -0.5976  0.8145
  218MOL0     C29299   7.517   1.154   7.213  0.2401  0.1419  0.4537
  218MOL0     C29300   7.510   1.065   7.098 -0.1263 -0.0183 -0.2435
  218MOL0     C29301   7.533   0.931   7.117  0.3712 -0.9351  0.1907
  218MOL0     C29302   7.588   0.877   7.234  1.1012 -0.0352  0.6025
  218MOL0     O29303   7.624   0.742   7.263  0.2223 -0.3013 -0.5715
  218MOL0     C29304   7.516   0.649   7.247 -0.6995 -0.7882  0.1239
  218MOL0     C29305   7.527   0.544   7.350 -0.0392  0.0668 -0.4208
  218MOL0     C29306   7.503   0.603   7.491  0.3912  0.4195 -0.8984
  218MOL0     C29307   7.555   0.510   7.601 -0.1139  1.0752 -0.7064
  218MOL0     C29308   7.557   0.586   7.736  0.1525  1.3437  0.0491
  218MOL0     C29309   7.417   0.570   7.806 -0.3158  0.4932  0.0818
  218MOL0     C29310   7.407   0.689   7.906 -0.0602  0.0793  0.1675
  218MOL0     C29311   7.285   0.695   8.005  0.0075  0.1640 -0.0551
  218MOL0     N29312   7.144   0.720   7.947  0.8826 -0.0764  0.9317
  218MOL0     C29313   7.032   0.641   7.959  0.9128  0.5381  0.4853
  218MOL0     C29314   6.930   0.719   7.903 -0.0618  1.2142 -0.2678
  218MOL0     C29315   6.786   0.683   7.871 -0.5339  1.3408  0.6978
  218MOL0     C29316   6.689   0.726   7.974 -0.6396  0.1709  0.7587
  218MOL0     C29317   6.709   0.639   8.099 -0.6203  0.7597  0.9341
  218MOL0     C29318   6.582   0.578   8.155  0.0925 -0.4243  0.7160
  218MOL0     O29319   6.569   0.448   8.092 -0.5482  0.3117 -0.2246
  218MOL0     C29320   6.457   0.366   8.119  0.3455  0.0667  0.2177
  218MOL0     C29321   6.340   0.406   8.186 -0.4189 -0.2429 -0.0639
  218MOL0     C29322   6.241   0.319   8.227 -0.3650  0.2529  0.2467
  218MOL0     C29323   6.240   0.183   8.188 -0.0531 -0.3612  1.1994
  218MOL0     C29324   6.133   0.090   8.223  0.2604  0.3831 -0.0754
  218MOL0     O29325   6.131  -0.037   8.181  0.6604 -0.3739 -0.1408
  218MOL0     C29326   6.049  -0.125   8.250 -0.1291  0.5383  0.0496
  218MOL0     C29327   6.093  -0.189   8.367 -0.3679  1.2582 -0.9505
  218MOL0     C29328   6.011  -0.293   8.422  0.0249 -0.0839  0.3626
  218MOL0     C29329   5.891  -0.334   8.365  0.6665 -0.1512 -0.0956
  218MOL0     O29330   5.817  -0.443   8.410  0.1099  0.3476  0.7075
  218MOL0     C29331   5.882  -0.571   8.396  0.3423  0.7448 -0.0314
  218MOL0     C29332   5.780  -0.679   8.419  0.1784 -0.0575  0.2263
  218MOL0     C29333   5.847  -0.821   8.424 -0.2664 -0.7814 -0.3215
  218MOL0     C29334   5.737  -0.925   8.451  1.2988 -0.3289 -0.4059
  218MOL0     C29335   5.792  -1.064   8.445 -0.8179  0.8870  0.0128
  218MOL0     C29336   5.687  -1.162   8.495  0.4269 -0.7392 -0.8765
  218MOL0     C29337   5.759  -1.279   8.556 -0.1794  1.1218  0.1166
  218MOL0     C29338   5.654  -1.376   8.622  0.0920  0.3779  0.2270
  218MOL0    Cl29339   5.554  -1.467   8.503 -0.0080 -0.0242 -0.5304
  218MOL0     C29340   5.856  -0.280   8.238  0.0523 -0.0990  0.5226
  218MOL0     C29341   5.934  -0.177   8.186  0.4217 -0.1095  0.0572
  218MOL0     O29342   6.052   0.139   8.308 -0.3214 -0.2413  0.9159
  218MOL0     C29343   6.351   0.144   8.101  0.3927  0.3873  0.5847
  218MOL0     C29344   6.456   0.233   8.078 -1.2174 -0.4260 -0.0691
  218MOL0     N29345   6.977   0.833   7.870  0.0302  0.1226  1.0086
  218MOL0     N29346   7.101   0.838   7.898  0.5074 -0.0966 -0.4325
  218MOL0     C29347   7.599   0.966   7.335 -0.0850  0.4583 -0.4832
  218MOL0     C29348   7.559   1.102   7.331  0.2435 -0.8315  0.1383
  218MOL0     C29349   7.381   1.490   7.265  0.0863 -0.2595  0.7889
  218MOL0     C29350   7.504   1.554   7.297  0.0129  0.4793 -0.0561
  218MOL0     C29351   7.513   1.697   7.311 -0.0144  0.2024 -0.1949
  218MOL0     C29352   7.396   1.776   7.310 -0.3010  0.4949 -0.0340
  218MOL0     O29353   7.394   1.920   7.332  0.0814  0.0796  0.6674
  218MOL0     C29354   7.500   1.976   7.407 -0.1671  0.1973  0.3915
  218MOL0     C29355   7.514   1.937   7.551  0.9545  0.4732 -1.0123
  218MOL0     C29356   7.642   1.977   7.621 -0.5174 -0.7467  0.0915
  218MOL0     C29357   7.659   2.118   7.674  0.3307  0.1818 -0.3278
  218MOL0     C29358   7.572   2.175   7.783 -0.3761  0.9090  0.1919
  218MOL0     C29359   7.512   2.238   7.864  0.0084 -0.4539 -0.8646
  218MOL0     C29360   7.273   1.713   7.274 -0.0867 -0.1582  0.9448
  218MOL0     C29361   7.264   1.573   7.244 -0.1060 -0.2963 -0.3695
  218MOL0     C29362   7.138   1.511   7.190  0.3225 -0.9402 -0.1585
  218MOL0     H29363   7.471   1.106   7.005  0.1103  0.2403 -0.2304
  218MOL0     H29364   7.524   0.872   7.027  0.2905  0.7643 -0.9387
  218MOL0     H29365   7.427   0.712   7.258  1.2558  2.5584 -1.4084
  218MOL0     H29366   7.522   0.595   7.152 -0.3859  0.2950 -0.4909
  218MOL0     H29367   7.627   0.499   7.343 -0.5124 -1.5971  2.1901
  218MOL0     H29368   7.455   0.468   7.318 -1.4780  2.3591 -3.0638
  218MOL0     H29369   7.394   0.613   7.498  0.4312  0.5326 -0.3754
  218MOL0     H29370   7.547   0.703   7.496 -1.8285  1.4036  1.5802
  218MOL0     H29371   7.502   0.414   7.592  0.9425  0.3624  0.2909
  218MOL0     H29372   7.659   0.489   7.576 -0.6999 -1.0769 -1.5998
  218MOL0     H29373   7.638   0.544   7.796  1.5009 -0.8665 -3.0341
  218MOL0     H29374   7.571   0.694   7.723  2.6059  1.1473  0.5263
  218MOL0     H29375   7.335   0.575   7.734  1.0374  0.0318 -1.5549
  218MOL0     H29376   7.413   0.477   7.863 -0.6250  1.4859  1.7588
  218MOL0     H29377   7.406   0.783   7.850  3.0626 -0.1817 -0.5176
  218MOL0     H29378   7.498   0.679   7.966 -0.5113  1.4347  1.1219
  218MOL0     H29379   7.284   0.608   8.070  0.3908 -1.2030 -1.7963
  218MOL0     H29380   7.308   0.778   8.072  0.5723 -1.0493  1.2958
  218MOL0     H29381   7.020   0.537   7.987 -3.3751 -0.1711 -2.8725
  218MOL0     H29382   6.756   0.709   7.769  1.8693  1.9037  0.0730
  218MOL0     H29383   6.796   0.574   7.869 -2.5587  1.1155 -1.3295
  218MOL0     H29384   6.687   0.834   7.992 -1.4389  0.2705  0.1775
  218MOL0     H29385   6.595   0.686   7.935  0.0618 -0.9401  0.1673
  218MOL0     H29386   6.751   0.699   8.180  1.6325  1.3189 -0.5631
  218MOL0     H29387   6.774   0.553   8.079 -1.1675  0.3565  0.8414
  218MOL0     H29388   6.500   0.644   8.128  0.1482  0.2826  2.1612
  218MOL0     H29389   6.585   0.577   8.265 -1.3239  2.2582  0.8534
  218MOL0     H29390   6.341   0.509   8.219  3.7501 -0.2844  0.4563
  218MOL0     H29391   6.165   0.359   8.293  1.7562  0.7753  2.5051
  218MOL0     H29392   6.192  -0.178   8.410  1.8270  0.1883 -5.1926
  218MOL0     H29393   6.042  -0.349   8.510 -2.7334  1.2001  2.3314
  218MOL0     H29394   5.921  -0.580   8.294 -0.6163 -1.6624 -0.2653
  218MOL0     H29395   5.963  -0.579   8.470 -1.2722 -1.9393  1.6237
  218MOL0     H29396   5.745  -0.666   8.522  0.8919 -0.3130  0.5027
  218MOL0     H29397   5.690  -0.664   8.358  0.4727  1.7186  0.1883
  218MOL0     H29398   5.892  -0.844   8.327  1.4344 -0.5327  0.3736
  218MOL0     H29399   5.932  -0.828   8.493 -0.0402  1.3025 -0.3281
  218MOL0     H29400   5.659  -0.917   8.375  0.2164 -2.3370  0.4500
  218MOL0     H29401   5.682  -0.903   8.542  0.6343  1.6643 -1.2208
  218MOL0     H29402   5.877  -1.064   8.513 -0.0739 -1.7438 -0.7928
  218MOL0     H29403   5.819  -1.099   8.345 -1.4046 -3.0246  1.0768
  218MOL0     H29404   5.615  -1.123   8.569  0.0522 -1.3880 -0.8894
  218MOL0     H29405   5.628  -1.199   8.411 -0.1487  0.0271 -0.8248
  218MOL0     H29406   5.829  -1.238   8.629  2.9938  1.5890 -2.9147
  218MOL0     H29407   5.821  -1.327   8.479  2.6531  0.2736  2.6970
  218MOL0     H29408   5.713  -1.442   8.686 -2.6663 -2.1253  0.3848
  218MOL0     H29409   5.591  -1.323   8.694  2.3817  0.1544  2.5549
  218MOL0     H29410   5.765  -0.297   8.183  0.4714  1.0132 -0.5637
  218MOL0     H29411   5.894  -0.139   8.093 -2.4705 -6.3850 -1.7790
  218MOL0     H29412   6.360   0.048   8.051 -2.2938  1.5677 -2.5643
  218MOL0     H29413   6.535   0.192   8.015 -1.8489 -2.9186  0.6328
  218MOL0     H29414   7.641   0.922   7.425  1.2951  0.4292 -1.1147
  218MOL0     H29415   7.591   1.165   7.414  0.4190 -2.4813  1.3663
  218MOL0     H29416   7.595   1.501   7.322  0.0008 -0.8218 -2.5227
  218MOL0     H29417   7.616   1.732   7.306 -0.2712  0.8423 -1.3304
  218MOL0     H29418   7.482   2.084   7.398  2.3323  0.6934  0.3859
  218MOL0     H29419   7.591   1.957   7.348  0.6443  1.0592  1.3227
  218MOL0     H29420   7.496   1.829   7.554 -1.6872  0.7908  3.6820
  218MOL0     H29421   7.427   1.957   7.614 -0.3362 -3.5580 -1.2310
  218MOL0     H29422   7.729   1.953   7.560 -1.1827  0.8544 -1.6115
  218MOL0     H29423   7.644   1.926   7.718 -2.2063  2.3316  1.9203
  218MOL0     H29424   7.767   2.131   7.688  0.9567 -4.6632  0.8795
  218MOL0     H29425   7.638   2.174   7.582 -1.5647  1.3666  0.7670
  218MOL0     H29426   7.472   2.305   7.937  2.3528 -0.0372  0.1451
  218MOL0     H29427   7.201   1.793   7.264  1.3823  1.0995 -0.1078
  218MOL0     H29428   7.093   1.443   7.263  1.6453  0.2720  1.8846
  218MOL0     H29429   7.066   1.590   7.166 -1.0492 -1.7347  1.1555
  218MOL0     H29430   7.167   1.468   7.094 -1.3582  1.2028 -1.7408
  219MOL0     O29431  10.719   9.294   4.485 -0.2974 -0.1844  0.4430
  219MOL0     C29432  10.650   9.207   4.427  0.1259  0.6723 -0.0928
  219MOL0     O29433  10.592   9.105   4.497 -0.1460  0.0958  0.3944
  219MOL0     C29434  10.588   9.108   4.638 -0.4761  0.0884 -0.0987
  219MOL0     C29435  10.580   8.984   4.698  0.5260 -0.0296 -0.9005
  219MOL0     C29436  10.558   8.968   4.835 -0.7528  0.5999 -0.6348
  219MOL0     C29437  10.530   9.083   4.922  0.9025  0.2408 -0.1110
  219MOL0     O29438  10.527   9.058   5.050  0.3859 -0.4251 -0.5093
  219MOL0     C29439  10.553   9.157   5.145  0.0256 -0.1144  0.6182
  219MOL0     C29440  10.532   9.087   5.282  0.2720 -1.2083 -0.0452
  219MOL0     C29441  10.383   9.070   5.329  1.1532 -0.7342 -0.3836
  219MOL0     C29442  10.360   8.919   5.369 -1.5147  0.1475  0.5825
  219MOL0     C29443  10.205   8.882   5.378  0.5264  0.1444 -0.4130
  219MOL0     C29444  10.197   8.751   5.446  0.8116  0.2572 -0.5368
  219MOL0     C29445  10.289   8.640   5.396  1.2271  0.2033  1.4552
  219MOL0     C29446  10.232   8.494   5.397 -0.5011  0.6589  0.7886
  219MOL0     N29447  10.209   8.458   5.538  0.1598  0.5096  0.4559
  219MOL0     C29448  10.267   8.352   5.601 -0.3549 -0.8649 -0.3181
  219MOL0     C29449  10.219   8.353   5.735  0.7409 -0.6144 -0.4730
  219MOL0     C29450  10.252   8.277   5.854  0.5702  0.1797 -0.1173
  219MOL0     C29451  10.122   8.199   5.904 -0.5990  0.1071 -0.4343
  219MOL0     C29452  10.008   8.274   5.974  0.6867  0.3966  0.4082
  219MOL0     C29453  10.064   8.352   6.083 -1.1066 -0.2635 -0.4955
  219MOL0     O29454  10.147   8.268   6.168 -0.1014  0.2110  0.9535
  219MOL0     C29455  10.190   8.309   6.293 -0.0850 -0.6320  0.5798
  219MOL0     C29456  10.163   8.444   6.331 -0.4583  1.1896  0.3741
  219MOL0     C29457  10.207   8.496   6.457  0.8310 -0.1807  0.5394
  219MOL0     C29458  10.281   8.414   6.543 -0.3017 -0.2384 -0.2276
  219MOL0     C29459  10.322   8.459   6.683 -0.1528  0.5025  0.0717
  219MOL0     O29460  10.343   8.370   6.784  0.0415 -0.4798 -0.8724
  219MOL0     C29461  10.358   8.413   6.917  0.0824 -0.0189 -0.4884
  219MOL0     C29462  10.285   8.356   7.017  0.8831 -0.3305 -0.9727
  219MOL0     C29463  10.298   8.383   7.153  0.2221  0.6749  0.5555
  219MOL0     C29464  10.406   8.462   7.194  0.7823  0.2195  0.1670
  219MOL0     O29465  10.433   8.490   7.325  0.1165  0.0985 -0.9478
  219MOL0     C29466  10.351   8.430   7.435 -1.0519 -0.1293  0.1658
  219MOL0     C29467  10.404   8.474   7.588 -0.5026 -0.0289  0.0354
  219MOL0     C29468  10.432   8.628   7.592 -0.8433 -0.1151  0.8604
  219MOL0     C29469  10.459   8.678   7.742 -0.6825 -0.4294  0.5174
  219MOL0     C29470  10.335   8.674   7.835 -0.1097  0.0633  0.4813
  219MOL0     C29471  10.360   8.752   7.966  0.3343  0.2007  1.0356
  219MOL0     C29472  10.464   8.685   8.070 -0.0554 -0.2285 -0.2328
  219MOL0     C29473  10.482   8.763   8.196 -0.5016  0.7212  0.7451
  219MOL0    Cl29474  10.585   8.662   8.306 -0.2172  0.0584 -0.0021
  219MOL0     C29475  10.484   8.522   7.096 -0.4615 -0.9162  0.3923
  219MOL0     C29476  10.468   8.494   6.958 -0.4885 -0.3571  0.5172
  219MOL0     O29477  10.314   8.580   6.699  0.4015 -0.0532 -0.2552
  219MOL0     C29478  10.299   8.282   6.495 -0.0736 -0.6599  0.5200
  219MOL0     C29479  10.265   8.233   6.371 -0.3458  0.7473  0.6106
  219MOL0     N29480  10.124   8.451   5.736  0.5564  0.5575 -0.3004
  219MOL0     N29481  10.123   8.516   5.623 -0.1751  0.2139 -1.0004
  219MOL0     C29482  10.536   9.214   4.862  0.3055 -0.5530  0.1844
  219MOL0     C29483  10.569   9.223   4.722  0.8142 -0.4190 -0.7624
  219MOL0     C29484  10.627   9.206   4.287 -0.1703 -1.0001  0.2090
  219MOL0     C29485  10.517   9.131   4.241  0.9270  0.2322  1.2465
  219MOL0     C29486  10.501   9.114   4.104 -0.0528 -0.6723  0.6370
  219MOL0     C29487  10.584   9.179   4.002 -0.2006  0.6220 -0.6057
  219MOL0     O29488  10.537   9.175   3.876 -0.3231  0.2555 -0.4174
  219MOL0     C29489  10.591   9.254   3.766 -0.4390  0.3546 -0.0472
  219MOL0     C29490  10.589   9.178   3.631  0.1031  0.0310 -0.9035
  219MOL0     C29491  10.687   9.066   3.642 -0.0473 -0.3161 -0.1798
  219MOL0     C29492  10.710   8.987   3.510 -1.1589 -0.6271  0.3619
  219MOL0     C29493  10.587   8.936   3.454  0.7583  0.4904  0.9450
  219MOL0     C29494  10.472   8.896   3.425  0.4949 -0.4357  0.6745
  219MOL0     C29495  10.683   9.265   4.058  0.4409  0.0244  1.2576
  219MOL0     C29496  10.712   9.276   4.198  0.4101  0.2178  0.5658
  219MOL0     C29497  10.822   9.380   4.224 -0.3305 -0.1264  0.5152
  219MOL0     H29498  10.581   8.899   4.630  0.5607 -1.2836  0.6162
  219MOL0     H29499  10.566   8.870   4.880 -0.7327  0.5382 -0.7733
  219MOL0     H29500  10.656   9.193   5.155  0.3295 -0.6562 -0.3970
  219MOL0     H29501  10.476   9.235   5.146 -0.2651 -0.3048 -1.4720
  219MOL0     H29502  10.566   9.153   5.362 -1.9009 -0.0193 -0.0322
  219MOL0     H29503  10.595   8.997   5.289 -1.0737 -2.0627  3.1169
  219MOL0     H29504  10.315   9.098   5.248  0.4799 -1.2513 -0.0014
  219MOL0     H29505  10.363   9.134   5.415  0.8927 -0.0872 -0.9146
  219MOL0     H29506  10.392   8.869   5.276 -0.5864  1.0926  0.3691
  219MOL0     H29507  10.420   8.883   5.452 -1.3428 -0.0458  0.3781
  219MOL0     H29508  10.148   8.948   5.444 -0.6735 -2.2517  1.1066
  219MOL0     H29509  10.163   8.883   5.277 -1.8402 -0.5740  0.4880
  219MOL0     H29510  10.209   8.756   5.555  0.6346 -1.1426 -0.4358
  219MOL0     H29511  10.096   8.714   5.425  1.3216 -0.8799 -1.0609
  219MOL0     H29512  10.392   8.638   5.434  1.6218  0.7931  0.4685
  219MOL0     H29513  10.305   8.659   5.290 -3.4114 -0.5794  0.3931
  219MOL0     H29514  10.146   8.475   5.333  0.4728  1.5085 -0.8572
  219MOL0     H29515  10.305   8.430   5.347  1.2496  0.2968  3.5854
  219MOL0     H29516  10.347   8.284   5.573  1.1546  0.5937  0.2430
  219MOL0     H29517  10.331   8.205   5.833 -0.1136 -0.4659 -0.5126
  219MOL0     H29518  10.307   8.347   5.918  0.0687  1.2059 -0.7742
  219MOL0     H29519  10.073   8.148   5.820  0.1060 -0.0114 -0.7840
  219MOL0     H29520  10.151   8.116   5.969 -0.9491  3.0925  3.9633
  219MOL0     H29521   9.939   8.203   6.021  0.3746 -0.1089 -0.7648
  219MOL0     H29522   9.946   8.330   5.904  0.2340  0.8000  1.1291
  219MOL0     H29523   9.974   8.385   6.137  0.0927  0.2476  1.3001
  219MOL0     H29524  10.117   8.440   6.045  1.3440 -2.5609 -2.7739
  219MOL0     H29525  10.094   8.511   6.281 -0.3904 -0.9032 -2.7558
  219MOL0     H29526  10.177   8.598   6.482 -1.3035 -0.9493  1.3978
  219MOL0     H29527  10.211   8.281   6.989  0.3167  0.1223 -0.7083
  219MOL0     H29528  10.227   8.340   7.223  0.1463  1.9566  1.2994
  219MOL0     H29529  10.249   8.469   7.427 -1.0727 -0.4775 -1.6087
  219MOL0     H29530  10.347   8.321   7.425 -1.6975  0.1374 -4.1980
  219MOL0     H29531  10.327   8.445   7.660  0.5432 -1.1450  0.7448
  219MOL0     H29532  10.493   8.416   7.613 -0.5255  0.6784  1.8728
  219MOL0     H29533  10.523   8.653   7.536 -0.4769 -1.1461  0.9677
  219MOL0     H29534  10.347   8.678   7.545 -0.9555 -0.8277  0.2775
  219MOL0     H29535  10.480   8.785   7.737 -0.9333 -0.3014  1.7856
  219MOL0     H29536  10.540   8.619   7.786 -1.0891  0.5702  2.7433
  219MOL0     H29537  10.286   8.578   7.850  1.0331 -0.3668  1.6836
  219MOL0     H29538  10.260   8.734   7.782 -0.6290  1.7969  2.9843
  219MOL0     H29539  10.385   8.852   7.930 -3.2545  0.7207 -0.4204
  219MOL0     H29540  10.258   8.745   8.006 -0.9441  1.6610 -1.7118
  219MOL0     H29541  10.562   8.690   8.022  0.6111 -2.2218  0.8137
  219MOL0     H29542  10.432   8.583   8.091 -0.8325 -0.1153 -0.8185
  219MOL0     H29543  10.524   8.862   8.178  1.1912 -0.0548  0.2351
  219MOL0     H29544  10.383   8.782   8.239 -2.4307  3.4806 -4.0181
  219MOL0     H29545  10.569   8.589   7.111 -0.2885 -1.0897  0.1954
  219MOL0     H29546  10.525   8.540   6.878 -0.5557  0.4439  0.9251
  219MOL0     H29547  10.340   8.216   6.571 -0.5180  1.1245  2.3952
  219MOL0     H29548  10.295   8.131   6.348  2.0080  1.4526  0.2748
  219MOL0     H29549  10.533   9.305   4.921  2.1369 -0.5898  0.3973
  219MOL0     H29550  10.568   9.318   4.670  2.4683  0.8270  1.3317
  219MOL0     H29551  10.450   9.078   4.308  2.2490 -1.2688  1.4226
  219MOL0     H29552  10.407   9.076   4.066  0.3690 -4.4671  2.8308
  219MOL0     H29553  10.690   9.293   3.793 -1.1969  2.3792 -0.0294
  219MOL0     H29554  10.517   9.330   3.738 -1.2043 -1.0526 -2.0853
  219MOL0     H29555  10.616   9.255   3.559 -0.1012 -0.4932 -1.5496
  219MOL0     H29556  10.488   9.138   3.616 -0.4357  0.7578  0.5860
  219MOL0     H29557  10.646   8.997   3.717  1.2637 -1.8471 -0.7986
  219MOL0     H29558  10.786   9.108   3.662 -0.0716 -0.5103  0.3643
  219MOL0     H29559  10.766   9.048   3.438 -2.2232 -1.2275 -1.0231
  219MOL0     H29560  10.776   8.900   3.521  0.9826  0.8926  0.1468
  219MOL0     H29561  10.379   8.865   3.383  0.3921 -2.9059  2.5309
  219MOL0     H29562  10.736   9.326   3.986 -1.5943  0.9643  0.4570
  219MOL0     H29563  10.894   9.344   4.299 -0.4381 -0.7795  0.3141
  219MOL0     H29564  10.881   9.395   4.133 -2.9660  2.9384 -0.8941
  219MOL0     H29565  10.774   9.471   4.261 -1.7235 -0.3509 -0.6706
  220MOL0     O29566   6.511   1.246   0.979 -1.0806  0.3079  0.5309
  220MOL0     C29567   6.613   1.174   0.994 -0.4197 -0.2042  0.5355
  220MOL0     O29568   6.617   1.044   1.044 -0.1212 -0.1741  0.2061
  220MOL0     C29569   6.518   1.000   1.128  0.4015 -0.0716 -0.3762
  220MOL0     C29570   6.431   1.085   1.201  0.3528 -0.8860  0.0262
  220MOL0     C29571   6.332   1.020   1.281  0.4695 -0.2476  0.3673
  220MOL0     C29572   6.331   0.880   1.306 -0.5266  0.1148 -0.5784
  220MOL0     O29573   6.238   0.826   1.391  0.9420  0.3135 -0.1415
  220MOL0     C29574   6.285   0.760   1.505  0.5603  0.0672 -0.2135
  220MOL0     C29575   6.300   0.851   1.628  0.3404 -0.4011 -0.3772
  220MOL0     C29576   6.181   0.837   1.722  0.1420  0.6050 -0.4893
  220MOL0     C29577   6.206   0.921   1.846  0.3466 -0.5168 -0.1386
  220MOL0     C29578   6.094   0.908   1.955  1.0307  0.5451  0.1221
  220MOL0     C29579   5.951   0.899   1.899 -0.4240 -0.0056 -0.3100
  220MOL0     C29580   5.910   1.027   1.820  0.0504  1.5284  0.2039
  220MOL0     C29581   5.758   1.042   1.795 -0.2481 -0.8475 -0.4374
  220MOL0     N29582   5.712   0.967   1.673 -0.7862 -0.1452 -0.6480
  220MOL0     C29583   5.769   0.847   1.620  0.1036 -0.0346  0.0191
  220MOL0     C29584   5.712   0.830   1.491 -0.3027 -0.2267 -0.6581
  220MOL0     C29585   5.732   0.714   1.402  0.2416  0.3947 -0.9243
  220MOL0     C29586   5.608   0.624   1.417 -0.4381  0.1696  0.6975
  220MOL0     C29587   5.625   0.498   1.323  0.1489  0.2465 -0.1107
  220MOL0     C29588   5.753   0.418   1.339 -0.9008  0.4746 -0.0139
  220MOL0     O29589   5.769   0.406   1.477  0.4829  0.1278 -0.9997
  220MOL0     C29590   5.818   0.287   1.510 -0.5355 -0.5329  0.9031
  220MOL0     C29591   5.954   0.263   1.519 -0.4351 -0.1687  0.6157
  220MOL0     C29592   6.017   0.142   1.563 -0.2856  0.2104 -0.3427
  220MOL0     C29593   5.936   0.030   1.593  0.5803  0.5736  0.4956
  220MOL0     C29594   5.984  -0.097   1.644 -0.6488 -0.6410 -0.2986
  220MOL0     O29595   5.897  -0.180   1.717  0.0238  0.3717  0.0584
  220MOL0     C29596   5.948  -0.279   1.794 -0.0607 -0.2208  0.3828
  220MOL0     C29597   5.884  -0.400   1.802 -0.0361 -1.0739 -0.4816
  220MOL0     C29598   5.918  -0.494   1.893 -0.5752 -0.0605 -0.4008
  220MOL0     C29599   6.030  -0.479   1.986  0.0930 -0.0911 -0.4860
  220MOL0     O29600   6.066  -0.573   2.083  0.2759 -0.3152 -0.1348
  220MOL0     C29601   6.053  -0.550   2.224  0.2841 -0.7867  0.8629
  220MOL0     C29602   6.058  -0.691   2.279 -0.5238  0.5539 -0.4132
  220MOL0     C29603   5.939  -0.787   2.249 -0.5583 -0.0436 -0.2531
  220MOL0     C29604   5.967  -0.936   2.275  0.1650 -0.6363  0.1905
  220MOL0     C29605   5.854  -1.012   2.337 -0.2560  0.4061  0.8043
  220MOL0     C29606   5.856  -1.163   2.317  0.5420 -0.3282 -0.6848
  220MOL0     C29607   5.803  -1.228   2.182  0.9231 -0.3583 -0.4682
  220MOL0     C29608   5.662  -1.182   2.147 -0.2458 -0.5404  0.4396
  220MOL0    Cl29609   5.537  -1.219   2.252  0.5539 -0.0401 -0.0100
  220MOL0     C29610   6.088  -0.352   1.982 -0.6644 -0.4960 -0.1919
  220MOL0     C29611   6.056  -0.254   1.886  0.4425 -0.0807 -0.5412
  220MOL0     O29612   6.102  -0.125   1.621 -0.2834  0.1239 -0.8431
  220MOL0     C29613   5.806   0.044   1.566 -0.7032  0.7569  0.3974
  220MOL0     C29614   5.744   0.168   1.531  0.6886 -1.7630  0.2265
  220MOL0     N29615   5.626   0.933   1.474 -0.6141 -0.5074 -0.4656
  220MOL0     N29616   5.634   1.012   1.571  0.6384 -1.4333 -0.0160
  220MOL0     C29617   6.420   0.805   1.234 -0.2882  0.5389  1.3134
  220MOL0     C29618   6.520   0.865   1.154  1.2351  0.2576  0.6252
  220MOL0     C29619   6.737   1.224   0.939 -0.3408  0.6387  1.2973
  220MOL0     C29620   6.827   1.127   0.881 -0.2420 -0.4694  0.3149
  220MOL0     C29621   6.956   1.160   0.824 -0.7660 -0.4838 -0.3617
  220MOL0     C29622   6.999   1.298   0.824  0.7590 -0.2914 -1.0231
  220MOL0     O29623   7.119   1.351   0.770 -0.6058  0.0212  0.4756
  220MOL0     C29624   7.222   1.265   0.715  0.4089 -0.3570  0.4651
  220MOL0     C29625   7.323   1.224   0.825 -0.6147  0.2477 -0.5964
  220MOL0     C29626   7.446   1.158   0.744  0.2619  0.0934  0.1762
  220MOL0     C29627   7.530   1.090   0.844  0.3560  0.5487  0.5334
  220MOL0     C29628   7.625   1.164   0.918  0.2133  0.1444 -0.2948
  220MOL0     C29629   7.709   1.188   1.004  0.3331 -0.1073 -0.1630
  220MOL0     C29630   6.905   1.392   0.878  0.1866  0.3180  0.1266
  220MOL0     C29631   6.778   1.359   0.933 -0.2355  0.5244 -0.0198
  220MOL0     C29632   6.697   1.468   0.990 -0.5107  0.1800  0.1016
  220MOL0     H29633   6.436   1.191   1.178  1.0846 -0.3035  2.4944
  220MOL0     H29634   6.269   1.095   1.328  0.8102  0.8321 -0.8475
  220MOL0     H29635   6.223   0.673   1.531  0.7104 -0.5849 -1.8724
  220MOL0     H29636   6.384   0.718   1.484  2.1082  2.7672  1.2050
  220MOL0     H29637   6.322   0.954   1.601  1.4154 -0.3154  0.7253
  220MOL0     H29638   6.397   0.839   1.677  0.6429  4.6354  0.7359
  220MOL0     H29639   6.172   0.734   1.759  2.2525  0.6565  0.2646
  220MOL0     H29640   6.082   0.843   1.675 -0.7345 -3.0517  0.4955
  220MOL0     H29641   6.299   0.889   1.894 -0.2250 -2.8731 -0.4481
  220MOL0     H29642   6.208   1.028   1.823 -4.3761 -0.0260  0.6123
  220MOL0     H29643   6.114   0.809   1.996  0.2765 -0.4604 -1.8448
  220MOL0     H29644   6.101   0.987   2.031 -0.2912  0.1037  0.7351
  220MOL0     H29645   5.937   0.808   1.839  0.1247  1.6442 -3.1505
  220MOL0     H29646   5.890   0.896   1.989 -0.2724  0.6121 -0.1832
  220MOL0     H29647   5.969   1.046   1.731  1.3658  2.0742  1.1559
  220MOL0     H29648   5.950   1.106   1.885  2.8812  0.6980 -0.3964
  220MOL0     H29649   5.700   1.022   1.885 -0.2241 -1.4016 -0.5400
  220MOL0     H29650   5.742   1.147   1.768 -0.4016 -0.1295  2.2056
  220MOL0     H29651   5.842   0.780   1.663 -0.3757 -0.1494  0.6902
  220MOL0     H29652   5.754   0.752   1.302  3.8180  1.8207  0.2366
  220MOL0     H29653   5.823   0.668   1.440  0.0619 -1.3545 -2.4749
  220MOL0     H29654   5.605   0.594   1.522  2.9736  1.1546  1.1832
  220MOL0     H29655   5.515   0.678   1.398 -1.9681 -1.8793  1.8668
  220MOL0     H29656   5.636   0.540   1.223  0.1025  1.4899  0.3758
  220MOL0     H29657   5.540   0.429   1.322  2.5918 -3.0971  1.7106
  220MOL0     H29658   5.845   0.463   1.300 -0.5456 -2.0283 -2.3563
  220MOL0     H29659   5.738   0.323   1.287 -3.3201  1.3534 -1.0247
  220MOL0     H29660   6.022   0.343   1.490 -0.2820  0.2926  2.1813
  220MOL0     H29661   6.123   0.122   1.571 -0.1462 -1.2282 -3.7779
  220MOL0     H29662   5.802  -0.413   1.733 -3.0634 -1.2239  2.8469
  220MOL0     H29663   5.865  -0.588   1.903 -1.5839  0.3675 -1.5563
  220MOL0     H29664   6.151  -0.506   2.245  0.2814  0.0740 -0.7537
  220MOL0     H29665   5.975  -0.484   2.262  0.3954 -0.6998  0.9386
  220MOL0     H29666   6.150  -0.732   2.235  0.1477  2.3241 -0.7334
  220MOL0     H29667   6.056  -0.690   2.389  1.1940  0.3328 -0.3372
  220MOL0     H29668   5.846  -0.769   2.305 -0.3688 -2.8491  1.1301
  220MOL0     H29669   5.918  -0.778   2.142 -1.4028 -0.8087 -0.1673
  220MOL0     H29670   6.060  -0.944   2.333  0.1652  1.5672  0.5571
  220MOL0     H29671   5.986  -0.979   2.177  0.4637 -1.4814  0.6042
  220MOL0     H29672   5.760  -0.979   2.294 -1.3053 -1.4032  1.5714
  220MOL0     H29673   5.852  -0.993   2.445  0.1194 -0.3886  0.9632
  220MOL0     H29674   5.954  -1.204   2.341  1.3473  0.8468 -1.8126
  220MOL0     H29675   5.776  -1.192   2.386  0.5165  0.4394 -0.3844
  220MOL0     H29676   5.798  -1.337   2.187 -2.2856 -0.3920 -2.1288
  220MOL0     H29677   5.866  -1.186   2.103  0.6848  4.0211  1.3765
  220MOL0     H29678   5.667  -1.073   2.137  2.8904 -0.7267 -1.3445
  220MOL0     H29679   5.639  -1.217   2.046 -0.1433  3.4940 -1.1693
  220MOL0     H29680   6.152  -0.319   2.063 -2.1858 -1.0913  1.3046
  220MOL0     H29681   6.112  -0.163   1.904 -0.5679 -0.1031  3.6589
  220MOL0     H29682   5.744  -0.045   1.565  2.2996 -1.4750 -0.8118
  220MOL0     H29683   5.636   0.173   1.524  0.5996 -0.5453  1.7325
  220MOL0     H29684   6.439   0.698   1.234  0.8787  0.6649 -1.5141
  220MOL0     H29685   6.587   0.799   1.100 -1.5683 -1.0867 -1.4825
  220MOL0     H29686   6.813   1.019   0.876  2.0960 -0.8144 -0.2775
  220MOL0     H29687   7.028   1.088   0.787 -1.3872 -1.9920  1.2077
  220MOL0     H29688   7.274   1.335   0.649 -0.2748  1.5243  1.8169
  220MOL0     H29689   7.176   1.177   0.668  0.3294 -0.2944  0.4263
  220MOL0     H29690   7.296   1.136   0.885  0.9703  0.4334  0.4359
  220MOL0     H29691   7.349   1.312   0.884 -1.8853 -0.1839  0.6582
  220MOL0     H29692   7.496   1.236   0.687 -2.9751  1.3338 -1.2119
  220MOL0     H29693   7.406   1.084   0.674  1.8890  0.5235 -1.2644
  220MOL0     H29694   7.482   1.035   0.925  0.3463  1.6165  1.2716
  220MOL0     H29695   7.594   1.012   0.802 -0.3478  0.1022  0.2672
  220MOL0     H29696   7.787   1.194   1.077  1.6890 -3.4920 -1.1339
  220MOL0     H29697   6.930   1.497   0.873 -0.0749  0.3089 -2.1416
  220MOL0     H29698   6.736   1.563   0.953  0.2525  0.6245  1.9477
  220MOL0     H29699   6.589   1.471   0.971 -0.6776 -0.1607  0.9607
  220MOL0     H29700   6.719   1.476   1.096 -0.2187 -1.1096  0.1608
  221MOL0     O29701  11.154   3.416   7.754  0.3170  0.0024  0.5432
  221MOL0     C29702  11.142   3.475   7.859 -1.1500 -0.7321 -0.9318
  221MOL0     O29703  11.154   3.617   7.883 -0.5676  0.0109  0.2817
  221MOL0     C29704  11.239   3.699   7.806 -0.0920 -1.0179  0.4190
  221MOL0     C29705  11.237   3.840   7.832  0.1356  0.1486 -0.4049
  221MOL0     C29706  11.312   3.933   7.764  0.3931 -0.6398  0.7183
  221MOL0     C29707  11.410   3.894   7.671  0.2152 -0.1390  0.0421
  221MOL0     O29708  11.504   3.979   7.618 -0.0066  0.0548 -0.9189
  221MOL0     C29709  11.463   4.106   7.572  0.3651 -0.3443 -1.0959
  221MOL0     C29710  11.586   4.187   7.586 -0.4019  0.1155 -0.8142
  221MOL0     C29711  11.642   4.204   7.733  0.2113  0.4540  0.0442
  221MOL0     C29712  11.804   4.205   7.724 -0.7720  0.1095  0.0382
  221MOL0     C29713  11.859   4.165   7.863  0.2732 -0.6165 -1.1332
  221MOL0     C29714  12.009   4.159   7.885 -0.0124 -0.0218  0.4315
  221MOL0     C29715  12.075   4.301   7.878  0.2078 -0.6445 -1.1357
  221MOL0     C29716  12.018   4.395   7.982  0.6133  0.8289  0.3924
  221MOL0     N29717  12.078   4.526   8.003 -0.9585  0.2775 -0.1793
  221MOL0     C29718  12.209   4.546   8.004  0.9071  0.3713 -1.0633
  221MOL0     C29719  12.217   4.678   8.006 -0.2282 -0.0649  0.6797
  221MOL0     C29720  12.337   4.759   7.985  0.3373 -1.5342  0.4216
  221MOL0     C29721  12.405   4.797   8.121 -0.1395  0.0634  0.5641
  221MOL0     C29722  12.331   4.883   8.217 -0.4165  0.7270 -0.5705
  221MOL0     C29723  12.429   4.992   8.286  0.6462 -0.9208 -0.9824
  221MOL0     O29724  12.367   5.032   8.413  0.2193 -0.4161  0.0018
  221MOL0     C29725  12.391   5.167   8.444 -0.3644 -0.5226 -0.3943
  221MOL0     C29726  12.485   5.255   8.381 -0.2304 -0.7809  0.3173
  221MOL0     C29727  12.494   5.388   8.409 -0.0740 -0.8217  0.1983
  221MOL0     C29728  12.402   5.452   8.503  0.0142 -0.6487 -0.7323
  221MOL0     C29729  12.404   5.596   8.532  0.6209  0.5318  0.5806
  221MOL0     O29730  12.292   5.652   8.593 -0.5820  0.4090 -0.6160
  221MOL0     C29731  12.282   5.787   8.624  1.2046 -0.5127 -0.3260
  221MOL0     C29732  12.160   5.858   8.599 -0.4908 -0.3103  0.7165
  221MOL0     C29733  12.142   5.995   8.637 -0.1270  0.2064 -0.6066
  221MOL0     C29734  12.248   6.055   8.702  1.3603 -0.5166 -0.7699
  221MOL0     O29735  12.260   6.178   8.751  1.3277 -0.5201  0.0329
  221MOL0     C29736  12.173   6.277   8.688  0.3529 -0.3899 -0.2285
  221MOL0     C29737  12.241   6.396   8.637 -1.0355 -0.3966  0.8696
  221MOL0     C29738  12.365   6.377   8.548  0.9121 -0.5011 -0.3015
  221MOL0     C29739  12.347   6.339   8.391 -0.2792  1.0798 -0.1443
  221MOL0     C29740  12.325   6.194   8.347 -0.0496  0.3810  0.9875
  221MOL0     C29741  12.447   6.098   8.374  0.1524 -0.6174 -0.3460
  221MOL0     C29742  12.411   5.965   8.321  0.5991 -0.4510  0.0994
  221MOL0     C29743  12.506   5.918   8.208  0.3436  0.2291 -0.0418
  221MOL0    Cl29744  12.473   5.999   8.059 -0.1313 -0.2159 -0.1684
  221MOL0     C29745  12.359   5.984   8.736 -0.1547  0.4353 -0.1161
  221MOL0     C29746  12.386   5.855   8.689  0.4547  0.4837 -0.3390
  221MOL0     O29747  12.503   5.659   8.493 -0.3507  0.1263 -0.2419
  221MOL0     C29748  12.304   5.376   8.561 -1.0378  0.4639 -0.3861
  221MOL0     C29749  12.292   5.234   8.527  0.2872  0.2746 -0.6078
  221MOL0     N29750  12.094   4.732   8.025  0.4508 -0.1367 -0.1580
  221MOL0     N29751  12.006   4.639   8.013 -0.3787 -1.2748  0.5561
  221MOL0     C29752  11.413   3.755   7.643 -0.0383 -0.5090  0.3112
  221MOL0     C29753  11.328   3.666   7.700  0.4065 -0.4554 -1.1950
  221MOL0     C29754  11.112   3.394   7.987 -0.0744  0.2470 -0.5865
  221MOL0     C29755  11.179   3.430   8.095 -0.2072  0.1575 -0.1786
  221MOL0     C29756  11.171   3.360   8.218  0.0032  0.7596  0.2653
  221MOL0     C29757  11.089   3.253   8.232 -0.5439  0.5427  0.2085
  221MOL0     O29758  11.074   3.180   8.347 -0.3309  0.8339 -0.1580
  221MOL0     C29759  11.098   3.226   8.479  0.7411 -0.1654 -0.4964
  221MOL0     C29760  11.047   3.121   8.588  0.4345  0.2702  0.6115
  221MOL0     C29761  11.142   3.003   8.609 -0.0935  0.2943  0.7902
  221MOL0     C29762  11.291   3.019   8.643  0.1764  0.2972 -0.4527
  221MOL0     C29763  11.305   3.012   8.795  0.6358 -0.4526 -0.2059
  221MOL0     C29764  11.327   3.018   8.918  0.3389 -1.0765 -0.0900
  221MOL0     C29765  11.025   3.204   8.120  0.2999 -0.4969  0.3307
  221MOL0     C29766  11.030   3.280   8.002 -0.1547 -0.3340  0.2072
  221MOL0     C29767  10.945   3.215   7.889 -0.8864 -0.4068 -0.4287
  221MOL0     H29768  11.170   3.873   7.910 -1.0355 -1.3040 -0.7604
  221MOL0     H29769  11.310   4.038   7.791 -0.5791 -0.4332 -0.0756
  221MOL0     H29770  11.431   4.119   7.468 -1.2995  2.0209 -0.3806
  221MOL0     H29771  11.380   4.135   7.637  0.6923  1.2345 -1.3364
  221MOL0     H29772  11.558   4.287   7.553  2.7979 -0.0426 -4.8423
  221MOL0     H29773  11.666   4.157   7.517 -0.1774 -0.6535 -0.2290
  221MOL0     H29774  11.598   4.124   7.794 -2.3907  0.2201 -1.9422
  221MOL0     H29775  11.617   4.303   7.771 -1.7280  1.6056 -3.7116
  221MOL0     H29776  11.833   4.124   7.656  0.9669 -1.1130  2.1239
  221MOL0     H29777  11.850   4.295   7.683 -0.4199 -0.4584 -0.8494
  221MOL0     H29778  11.821   4.234   7.939  0.1242 -2.1002  0.1998
  221MOL0     H29779  11.815   4.072   7.901  1.2341 -0.8616 -0.6015
  221MOL0     H29780  12.042   4.108   7.976  2.3078  0.1252 -0.2637
  221MOL0     H29781  12.048   4.089   7.810 -0.0552 -0.4558  0.8090
  221MOL0     H29782  12.049   4.353   7.786  2.8098 -0.1399 -1.6779
  221MOL0     H29783  12.182   4.280   7.889 -0.2911 -2.0363  2.2316
  221MOL0     H29784  11.920   4.425   7.944  1.6785  1.7669 -1.7701
  221MOL0     H29785  12.014   4.346   8.080  1.6529  4.6354  2.5527
  221MOL0     H29786  12.283   4.473   7.974  0.3368  0.4489 -2.7957
  221MOL0     H29787  12.408   4.708   7.919  1.6834  0.6082  0.1353
  221MOL0     H29788  12.324   4.858   7.941 -0.8332 -1.8547  0.0070
  221MOL0     H29789  12.428   4.709   8.181  0.0691 -0.8443 -0.7966
  221MOL0     H29790  12.498   4.852   8.101 -1.4516  2.6179  0.9534
  221MOL0     H29791  12.287   4.817   8.292  2.0400  0.4025  0.6947
  221MOL0     H29792  12.251   4.932   8.160 -2.2386 -1.6093 -0.1653
  221MOL0     H29793  12.435   5.070   8.210  2.5596 -0.5663 -0.5287
  221MOL0     H29794  12.528   4.959   8.321  0.4449  1.6665  2.6516
  221MOL0     H29795  12.559   5.200   8.323  0.7308 -1.9090  2.5093
  221MOL0     H29796  12.582   5.438   8.369  1.8262 -1.6415  3.0185
  221MOL0     H29797  12.091   5.797   8.541  1.6267 -0.9080 -1.3448
  221MOL0     H29798  12.047   6.045   8.623  0.6854  1.3370 -2.4467
  221MOL0     H29799  12.125   6.233   8.600  0.3742  0.6975 -0.7958
  221MOL0     H29800  12.099   6.310   8.761  1.4417  1.7983 -0.0592
  221MOL0     H29801  12.172   6.453   8.574 -2.6779  0.4325  3.2645
  221MOL0     H29802  12.263   6.450   8.729 -1.4262  0.4921  0.4484
  221MOL0     H29803  12.406   6.478   8.555  0.1294 -0.1967  0.1272
  221MOL0     H29804  12.423   6.301   8.600  1.3688 -0.2381 -0.4188
  221MOL0     H29805  12.448   6.356   8.353  0.3816 -0.7009  0.6964
  221MOL0     H29806  12.275   6.408   8.347 -1.1813 -1.6438 -3.3168
  221MOL0     H29807  12.299   6.183   8.242  1.4131 -0.8967  0.7179
  221MOL0     H29808  12.238   6.156   8.401 -0.9489  3.2364  1.7178
  221MOL0     H29809  12.538   6.141   8.331 -0.3225 -0.0174 -0.7770
  221MOL0     H29810  12.467   6.077   8.479 -2.4924  0.5453  0.4922
  221MOL0     H29811  12.306   5.964   8.287  1.0651  1.5326 -1.6052
  221MOL0     H29812  12.432   5.889   8.397  0.0288  1.0068  1.7771
  221MOL0     H29813  12.610   5.939   8.238 -1.1154  3.7762  3.5036
  221MOL0     H29814  12.496   5.814   8.175 -0.2966  1.4165 -4.2095
  221MOL0     H29815  12.437   6.020   8.802 -0.2120 -1.1039  0.8281
  221MOL0     H29816  12.482   5.810   8.713  0.4783 -0.2386 -1.6774
  221MOL0     H29817  12.233   5.431   8.623 -0.3259  1.7573 -0.6752
  221MOL0     H29818  12.208   5.179   8.567 -1.3743  3.1634  0.1583
  221MOL0     H29819  11.497   3.727   7.581 -0.3996  1.9107 -1.3741
  221MOL0     H29820  11.348   3.560   7.686 -0.3523 -0.9234  0.8075
  221MOL0     H29821  11.246   3.514   8.077 -0.5001  0.7438  1.3210
  221MOL0     H29822  11.234   3.395   8.300  0.2377 -0.1709  0.4918
  221MOL0     H29823  11.038   3.316   8.490  1.0515  0.0774 -0.7896
  221MOL0     H29824  11.202   3.254   8.495  0.4023  1.2686 -0.7136
  221MOL0     H29825  10.949   3.083   8.555  0.3697 -1.0722  2.2041
  221MOL0     H29826  11.025   3.169   8.683 -1.6299 -1.6795  1.2362
  221MOL0     H29827  11.160   2.964   8.508  1.1927  2.7863 -0.0247
  221MOL0     H29828  11.097   2.929   8.676  0.2639 -1.8807 -1.2125
  221MOL0     H29829  11.346   2.930   8.611 -1.0405  0.3297 -2.8400
  221MOL0     H29830  11.332   3.114   8.606 -3.2821  3.0947  2.1184
  221MOL0     H29831  11.330   3.034   9.024  0.1666 -0.0685 -0.2274
  221MOL0     H29832  10.964   3.115   8.136  2.3109 -2.1617 -0.7891
  221MOL0     H29833  10.862   3.169   7.943 -0.5649  0.4556  0.8548
  221MOL0     H29834  10.909   3.286   7.814  2.5679  1.0184 -0.9441
  221MOL0     H29835  10.996   3.133   7.836  1.9380 -0.0813  1.5678
  222MOL0     O29836   6.499   6.930   7.222  0.4285  0.1939 -0.2342
  222MOL0     C29837   6.454   7.022   7.154  0.0382 -0.2331  0.6537
  222MOL0     O29838   6.441   7.146   7.205  0.6067  0.6306  0.2748
  222MOL0     C29839   6.429   7.160   7.343 -0.0284 -0.5421  0.6774
  222MOL0     C29840   6.466   7.284   7.394  0.2801  1.1159 -0.0886
  222MOL0     C29841   6.445   7.323   7.530 -0.4334  1.0467  0.6243
  222MOL0     C29842   6.383   7.233   7.620 -0.2199  0.0151  0.1723
  222MOL0     O29843   6.342   7.273   7.740 -0.6367  0.0811 -0.0754
  222MOL0     C29844   6.207   7.277   7.770 -0.2743  0.5505 -0.0106
  222MOL0     C29845   6.195   7.335   7.917  0.6795  0.0933 -0.1063
  222MOL0     C29846   6.204   7.235   8.035  0.4103  0.6308 -0.6953
  222MOL0     C29847   6.264   7.090   8.001  0.0206 -0.1385  0.0522
  222MOL0     C29848   6.249   6.978   8.109 -0.7056  0.5254 -0.0658
  222MOL0     C29849   6.346   7.009   8.227  0.5703  0.0160 -0.5186
  222MOL0     C29850   6.327   6.914   8.347  0.2916 -0.4755 -0.8288
  222MOL0     C29851   6.430   6.940   8.468 -0.0646  0.5339  0.2958
  222MOL0     N29852   6.566   6.929   8.412 -0.8486  0.1946  0.1312
  222MOL0     C29853   6.636   7.027   8.342 -0.6488  1.0938  0.4838
  222MOL0     C29854   6.747   6.964   8.301  0.7187  0.1024 -0.5846
  222MOL0     C29855   6.854   7.007   8.209 -0.0738  0.8132  0.1392
  222MOL0     C29856   6.928   7.136   8.252 -1.0032  0.4107  0.3855
  222MOL0     C29857   7.056   7.089   8.318 -0.9673  0.3500 -0.1542
  222MOL0     C29858   7.132   7.229   8.369 -0.5628 -0.3485 -0.0917
  222MOL0     O29859   7.136   7.341   8.276  0.6431  0.7468 -0.1531
  222MOL0     C29860   7.182   7.460   8.324  0.2731  1.2729  0.5502
  222MOL0     C29861   7.197   7.498   8.456 -0.5869  0.3326 -0.0097
  222MOL0     C29862   7.233   7.632   8.493  1.3201  0.6025  0.3481
  222MOL0     C29863   7.257   7.723   8.384 -0.1079 -0.3744 -0.3165
  222MOL0     C29864   7.310   7.863   8.411  0.0788 -0.6394 -0.5984
  222MOL0     O29865   7.293   7.966   8.320 -0.5359  0.3440  0.4284
  222MOL0     C29866   7.349   8.086   8.355  0.2525  0.0724  1.2789
  222MOL0     C29867   7.474   8.110   8.390 -0.9926 -0.9813 -0.2021
  222MOL0     C29868   7.510   8.227   8.445  1.1031 -0.0078 -0.0887
  222MOL0     C29869   7.425   8.345   8.447  0.1584  0.2473  0.3882
  222MOL0     O29870   7.466   8.472   8.489  0.9257  0.4607  1.2754
  222MOL0     C29871   7.400   8.538   8.599 -0.5819  0.8238 -0.6395
  222MOL0     C29872   7.376   8.675   8.557  0.0014  1.0825 -0.7849
  222MOL0     C29873   7.492   8.770   8.575  0.2596  0.8127  0.0269
  222MOL0     C29874   7.502   8.814   8.723  0.6476  0.0553  1.0530
  222MOL0     C29875   7.539   8.960   8.732 -0.6802  0.8267  0.4517
  222MOL0     C29876   7.567   9.005   8.873  0.0434  0.1350  0.3097
  222MOL0     C29877   7.460   8.974   8.976 -0.2866 -0.2539  0.4048
  222MOL0     C29878   7.521   9.001   9.115  1.7899  0.7252 -0.3432
  222MOL0    Cl29879   7.587   9.159   9.131  0.5733 -0.1374 -0.2952
  222MOL0     C29880   7.298   8.319   8.393  0.2072  0.4418  0.7236
  222MOL0     C29881   7.259   8.186   8.348 -0.4112  0.0967 -0.4029
  222MOL0     O29882   7.340   7.879   8.526 -0.7749  0.1348 -0.4216
  222MOL0     C29883   7.256   7.686   8.250 -0.1677 -0.4553  0.1755
  222MOL0     C29884   7.218   7.550   8.219 -0.2217 -0.1866 -0.4852
  222MOL0     N29885   6.751   6.839   8.364 -0.0828 -0.0803  0.2145
  222MOL0     N29886   6.639   6.818   8.425 -0.1065 -0.1122  0.1897
  222MOL0     C29887   6.346   7.108   7.568  0.0606  0.4094 -0.9493
  222MOL0     C29888   6.368   7.074   7.437  0.1616  0.8837  0.2335
  222MOL0     C29889   6.438   6.996   7.013  0.6860 -0.0439 -0.5119
  222MOL0     C29890   6.492   6.877   6.961 -0.6508  0.9631 -0.6828
  222MOL0     C29891   6.483   6.850   6.822 -0.0889  1.2551 -1.2266
  222MOL0     C29892   6.425   6.941   6.734 -0.0038  0.2635 -0.9147
  222MOL0     O29893   6.426   6.931   6.596 -0.0337 -1.0321  0.9842
  222MOL0     C29894   6.406   6.805   6.535 -0.5522  0.1433 -0.5027
  222MOL0     C29895   6.390   6.830   6.385  0.3947 -0.0578  0.9372
  222MOL0     C29896   6.412   6.707   6.313 -0.1192 -0.6026  0.3062
  222MOL0     C29897   6.414   6.726   6.162  0.0831  0.1251  1.1184
  222MOL0     C29898   6.309   6.812   6.109 -0.6273  0.3109  0.4452
  222MOL0     C29899   6.230   6.896   6.076 -0.4476  0.4533 -0.0457
  222MOL0     C29900   6.378   7.061   6.787  0.0529 -0.0411  0.6583
  222MOL0     C29901   6.373   7.093   6.921  0.1890  0.7990 -1.0689
  222MOL0     C29902   6.322   7.233   6.948 -0.1910 -0.3639 -0.6065
  222MOL0     H29903   6.507   7.357   7.325  2.1147  0.0565 -0.1740
  222MOL0     H29904   6.478   7.424   7.551  3.2820 -0.1169  1.1532
  222MOL0     H29905   6.140   7.333   7.705 -0.1395  2.6870  1.6059
  222MOL0     H29906   6.173   7.173   7.759  2.4483 -0.2995 -1.1259
  222MOL0     H29907   6.105   7.398   7.921  0.9853  0.7459 -2.1663
  222MOL0     H29908   6.276   7.406   7.935 -0.2831  0.8911  1.2702
  222MOL0     H29909   6.098   7.221   8.061  1.1934 -0.7092  2.1742
  222MOL0     H29910   6.256   7.289   8.114  2.6374 -0.1956 -1.5287
  222MOL0     H29911   6.226   7.054   7.905  0.5699 -0.9146  0.1138
  222MOL0     H29912   6.368   7.115   7.983 -0.3929  0.5744 -1.5405
  222MOL0     H29913   6.144   6.973   8.140 -0.8886  2.5774 -0.2132
  222MOL0     H29914   6.286   6.884   8.067 -1.2877  1.7014 -3.5247
  222MOL0     H29915   6.446   7.004   8.183  1.2139 -1.4723  0.9939
  222MOL0     H29916   6.322   7.111   8.261 -0.3689 -0.7181  1.1628
  222MOL0     H29917   6.328   6.813   8.306 -1.1999 -0.3803 -1.1424
  222MOL0     H29918   6.230   6.922   8.398  1.0185  0.2301  0.5074
  222MOL0     H29919   6.416   7.042   8.505 -1.1455 -0.2383  2.1101
  222MOL0     H29920   6.413   6.866   8.546  0.6098 -1.0582 -1.0165
  222MOL0     H29921   6.602   7.130   8.329 -0.8832  0.9031 -0.5897
  222MOL0     H29922   6.917   6.920   8.193 -3.0312 -1.4151 -0.2289
  222MOL0     H29923   6.809   7.019   8.110  2.5180  0.7208 -1.1250
  222MOL0     H29924   6.952   7.186   8.157 -1.8804  2.4990  1.2129
  222MOL0     H29925   6.876   7.202   8.321  0.3861  1.1630  0.7562
  222MOL0     H29926   7.116   7.036   8.244 -1.3273 -0.4936  0.1564
  222MOL0     H29927   7.035   7.019   8.399  0.5498 -2.0362 -1.7107
  222MOL0     H29928   7.236   7.208   8.397  0.9864  4.4589 -1.3466
  222MOL0     H29929   7.088   7.256   8.465  3.0603  1.2437  1.2916
  222MOL0     H29930   7.172   7.431   8.538 -2.3213  1.6143  0.5688
  222MOL0     H29931   7.239   7.647   8.600 -3.7117 -4.3583  1.8495
  222MOL0     H29932   7.550   8.034   8.373  2.1907  2.1437 -1.1683
  222MOL0     H29933   7.603   8.247   8.497  1.6640  3.2283 -2.0809
  222MOL0     H29934   7.308   8.490   8.633  1.0365 -1.0406  1.3825
  222MOL0     H29935   7.472   8.541   8.681  0.8614  0.1223 -1.8481
  222MOL0     H29936   7.337   8.685   8.455 -0.9125 -2.2024 -0.8574
  222MOL0     H29937   7.302   8.707   8.630  1.6033 -1.8508  2.3918
  222MOL0     H29938   7.581   8.715   8.544  0.0406 -0.7701  2.0956
  222MOL0     H29939   7.481   8.856   8.507  0.1198 -0.0592 -1.0796
  222MOL0     H29940   7.578   8.753   8.772  0.0102 -1.7980 -0.1503
  222MOL0     H29941   7.409   8.790   8.775  0.0428 -1.6917 -0.6885
  222MOL0     H29942   7.465   9.032   8.696  0.9680  2.4358  0.1275
  222MOL0     H29943   7.626   8.983   8.669 -0.7880  2.3079  0.8253
  222MOL0     H29944   7.655   8.947   8.905  0.0023 -0.4270 -0.5512
  222MOL0     H29945   7.587   9.112   8.863 -1.9703  0.7011  1.7670
  222MOL0     H29946   7.422   8.873   8.965 -0.6047 -0.2903  1.7706
  222MOL0     H29947   7.378   9.046   8.966  1.2752  1.5776 -0.0361
  222MOL0     H29948   7.447   8.981   9.193  0.1988  2.7558 -1.2487
  222MOL0     H29949   7.600   8.928   9.131  1.0822 -0.9015 -3.5122
  222MOL0     H29950   7.222   8.393   8.367  1.8400  1.2944 -2.1212
  222MOL0     H29951   7.158   8.176   8.308 -0.7522  0.5079  0.3494
  222MOL0     H29952   7.277   7.762   8.175 -1.4007  0.2823  0.5504
  222MOL0     H29953   7.216   7.518   8.116  1.5827 -0.0302 -0.6012
  222MOL0     H29954   6.293   7.036   7.630  1.5819 -0.8028 -0.9856
  222MOL0     H29955   6.330   6.977   7.408 -0.0982  1.1317 -0.2652
  222MOL0     H29956   6.540   6.798   7.017  0.4369  2.1855  0.1756
  222MOL0     H29957   6.539   6.761   6.793  0.5552  1.1995  0.1107
  222MOL0     H29958   6.319   6.752   6.576  1.1328 -1.2053  1.5678
  222MOL0     H29959   6.502   6.755   6.552  1.4211  4.1179  1.2078
  222MOL0     H29960   6.446   6.914   6.344 -2.0290 -0.7071 -4.5554
  222MOL0     H29961   6.286   6.861   6.367  1.5410  2.8033 -1.7740
  222MOL0     H29962   6.326   6.641   6.332 -2.1400  1.7563 -0.1834
  222MOL0     H29963   6.502   6.662   6.358 -0.9722 -0.0076  2.7702
  222MOL0     H29964   6.511   6.771   6.136 -0.4339 -0.0672 -1.3823
  222MOL0     H29965   6.419   6.630   6.111  3.3041  1.3024 -1.1112
  222MOL0     H29966   6.149   6.956   6.040  0.2549  1.1424 -0.5042
  222MOL0     H29967   6.327   7.133   6.723 -0.5341 -2.5874 -1.9435
  222MOL0     H29968   6.265   7.241   7.041 -4.6932 -0.5233 -3.0426
  222MOL0     H29969   6.397   7.310   6.931 -0.1805 -0.0911  0.6306
  222MOL0     H29970   6.238   7.251   6.880 -1.6728  2.2915  1.6940
  223MOL0     O29971   9.535   1.306   2.023  1.3579 -0.3312  0.3298
  223MOL0     C29972   9.523   1.198   2.065  0.1780  0.2751 -0.0531
  223MOL0     O29973   9.396   1.138   2.111 -0.5493 -0.3963 -0.1329
  223MOL0     C29974   9.281   1.206   2.128  0.5324  0.3865 -0.1666
  223MOL0     C29975   9.255   1.342   2.114 -1.1675 -0.3527 -0.6953
  223MOL0     C29976   9.130   1.405   2.136  0.3341  0.3531 -0.1953
  223MOL0     C29977   9.030   1.319   2.201 -0.2721 -0.5418 -0.1909
  223MOL0     O29978   8.902   1.368   2.235  0.0626  0.0407 -0.4318
  223MOL0     C29979   8.828   1.453   2.143  0.3999  0.4399 -0.3980
  223MOL0     C29980   8.675   1.424   2.148 -0.4237  0.8442 -0.3419
  223MOL0     C29981   8.611   1.511   2.035  0.2184  0.1861 -0.5124
  223MOL0     C29982   8.472   1.481   1.993  0.9604 -0.2157 -0.1317
  223MOL0     C29983   8.363   1.476   2.119  0.3064  0.5382 -0.4274
  223MOL0     C29984   8.212   1.454   2.077 -1.0385 -0.0634 -0.0898
  223MOL0     C29985   8.175   1.523   1.935 -1.0037  0.0508 -0.4001
  223MOL0     C29986   8.184   1.676   1.920  0.1040  0.0889  0.5974
  223MOL0     N29987   8.087   1.740   2.008 -0.1584 -0.3352 -0.1796
  223MOL0     C29988   8.110   1.792   2.132  0.3304  0.1374  0.4755
  223MOL0     C29989   8.010   1.881   2.153  0.3284 -0.0873  0.9971
  223MOL0     C29990   7.980   1.947   2.289 -0.0320  0.0982 -0.3796
  223MOL0     C29991   7.996   2.104   2.300 -0.7433  0.0971  0.7019
  223MOL0     C29992   7.885   2.189   2.221  1.4637  0.1778 -0.4069
  223MOL0     C29993   7.753   2.160   2.295 -0.5303 -0.1996 -0.5798
  223MOL0     O29994   7.641   2.227   2.233 -0.2287  0.7809 -0.8814
  223MOL0     C29995   7.570   2.165   2.130 -0.8754  1.3502  0.6157
  223MOL0     C29996   7.606   2.036   2.062 -0.0160 -0.0215 -0.2450
  223MOL0     C29997   7.529   1.996   1.951  1.5078  0.3171  0.0819
  223MOL0     C29998   7.422   2.079   1.900 -0.3470 -0.2035 -0.3397
  223MOL0     C29999   7.339   2.059   1.782  0.5558 -0.8135 -0.3970
  223MOL0     O30000   7.211   2.109   1.788 -0.6519  0.4518  0.7967
  223MOL0     C30001   7.121   2.095   1.682  0.8112 -0.0780  0.0004
  223MOL0     C30002   7.098   1.981   1.601  0.1568 -0.0759  0.0389
  223MOL0     C30003   6.979   1.982   1.515 -0.1750 -0.5354  1.1549
  223MOL0     C30004   6.898   2.090   1.488  0.2990  1.0677 -0.3936
  223MOL0     O30005   6.799   2.085   1.396 -0.1578  0.5940  0.0417
  223MOL0     C30006   6.823   2.040   1.261 -0.2531  0.1505 -0.8842
  223MOL0     C30007   6.765   1.908   1.224  0.2079 -0.3062  0.8607
  223MOL0     C30008   6.613   1.927   1.191 -0.0493 -0.6918 -0.0640
  223MOL0     C30009   6.523   1.803   1.230 -0.4486 -0.5503 -0.2414
  223MOL0     C30010   6.385   1.812   1.165 -0.5965 -0.0667 -0.0680
  223MOL0     C30011   6.302   1.684   1.189  0.0006 -0.4507  0.2719
  223MOL0     C30012   6.283   1.656   1.335  0.5558 -0.1599 -0.4972
  223MOL0     C30013   6.182   1.543   1.358  0.4279  0.5796 -0.2019
  223MOL0    Cl30014   6.237   1.373   1.326 -0.2784 -0.1950 -0.1605
  223MOL0     C30015   6.916   2.196   1.576 -0.2839 -0.0723 -0.8645
  223MOL0     C30016   7.027   2.200   1.664  0.3605 -0.5369  0.8374
  223MOL0     O30017   7.389   1.993   1.693 -0.2155 -0.6231 -0.8109
  223MOL0     C30018   7.397   2.197   1.965  0.5886 -0.7164 -0.5694
  223MOL0     C30019   7.461   2.236   2.082 -0.1001  0.3088  0.2876
  223MOL0     N30020   7.930   1.892   2.040  0.4713 -0.3337 -0.5868
  223MOL0     N30021   7.980   1.815   1.949  0.1980 -0.4936 -0.1622
  223MOL0     C30022   9.061   1.180   2.219  0.8369 -0.1373 -0.2523
  223MOL0     C30023   9.181   1.125   2.174 -0.3253 -0.3063 -0.0219
  223MOL0     C30024   9.636   1.111   2.089 -0.5154  0.4124  0.0410
  223MOL0     C30025   9.618   0.980   2.157  0.4327 -0.4599 -0.4302
  223MOL0     C30026   9.724   0.894   2.197 -0.9294  0.1817 -0.3656
  223MOL0     C30027   9.853   0.922   2.150 -0.5876  0.1246 -0.3103
  223MOL0     O30028   9.949   0.822   2.154 -0.8237  0.0670 -0.4325
  223MOL0     C30029   9.951   0.727   2.270  1.2994 -1.4301  0.1528
  223MOL0     C30030  10.010   0.808   2.388  0.2813 -0.1699 -0.6639
  223MOL0     C30031   9.988   0.717   2.517 -0.3744 -0.9284  0.2620
  223MOL0     C30032   9.847   0.733   2.577 -0.1853 -0.3180 -0.2884
  223MOL0     C30033   9.823   0.615   2.667  0.9753 -0.3804 -0.4308
  223MOL0     C30034   9.790   0.535   2.739  0.2875 -0.1598 -0.5490
  223MOL0     C30035   9.878   1.042   2.090 -0.6252 -0.6680 -0.1149
  223MOL0     C30036   9.777   1.141   2.058 -0.5153  1.4037 -0.8358
  223MOL0     C30037   9.818   1.265   1.981  0.0471  1.1273  0.1222
  223MOL0     H30038   9.335   1.411   2.088 -1.1791 -0.7470 -1.8633
  223MOL0     H30039   9.109   1.511   2.136 -1.6930 -0.0045  0.5479
  223MOL0     H30040   8.856   1.551   2.183  0.5163 -0.0256  0.7109
  223MOL0     H30041   8.857   1.440   2.038 -2.9043 -1.4756 -1.2340
  223MOL0     H30042   8.635   1.449   2.247 -0.5563 -0.3716 -0.0609
  223MOL0     H30043   8.657   1.318   2.125 -0.5085  1.0265 -1.1187
  223MOL0     H30044   8.680   1.510   1.950  0.0755  0.2642 -0.6299
  223MOL0     H30045   8.605   1.618   2.059  0.3722  1.0586 -3.9269
  223MOL0     H30046   8.448   1.562   1.924  4.8065  0.4223 -0.9626
  223MOL0     H30047   8.456   1.379   1.957 -1.5097 -0.3822  1.2211
  223MOL0     H30048   8.394   1.397   2.188 -0.3577 -2.6645 -3.4702
  223MOL0     H30049   8.371   1.568   2.177 -0.5588 -0.3516  1.1607
  223MOL0     H30050   8.188   1.348   2.078 -1.0346 -0.1279  2.9340
  223MOL0     H30051   8.141   1.505   2.143  0.2655  0.9955  0.5544
  223MOL0     H30052   8.080   1.478   1.906  0.8251 -4.0367 -0.6944
  223MOL0     H30053   8.241   1.488   1.855 -0.6158  1.6707 -0.8229
  223MOL0     H30054   8.287   1.710   1.936  1.3272 -3.6610  1.6529
  223MOL0     H30055   8.156   1.701   1.817 -0.7595 -1.0809  0.5357
  223MOL0     H30056   8.197   1.752   2.183  0.6373 -0.2395 -0.3219
  223MOL0     H30057   7.876   1.928   2.319 -0.4592 -2.1509 -2.8324
  223MOL0     H30058   8.048   1.897   2.359  0.3189  1.0056 -0.0564
  223MOL0     H30059   8.003   2.135   2.404 -0.6050 -1.7980  1.3008
  223MOL0     H30060   8.093   2.128   2.256 -1.5092  1.5032 -0.2833
  223MOL0     H30061   7.884   2.167   2.114  1.8832 -1.4176 -0.1053
  223MOL0     H30062   7.909   2.295   2.234 -0.4031  0.7558 -1.3138
  223MOL0     H30063   7.754   2.204   2.395  0.4912 -1.9556  0.2159
  223MOL0     H30064   7.720   2.056   2.300 -1.5718 -0.0191 -2.7112
  223MOL0     H30065   7.700   1.990   2.091 -0.3551 -0.7284 -0.2262
  223MOL0     H30066   7.568   1.910   1.898  2.1312 -0.5976  1.9264
  223MOL0     H30067   7.164   1.895   1.597 -0.7546 -0.7448 -2.4292
  223MOL0     H30068   6.964   1.893   1.455 -2.0966  1.5056 -1.6481
  223MOL0     H30069   6.801   2.122   1.191 -4.1847  0.7584  0.8253
  223MOL0     H30070   6.931   2.026   1.249  0.1100  0.1824  1.7173
  223MOL0     H30071   6.809   1.850   1.142 -1.1303 -1.7269  1.1049
  223MOL0     H30072   6.772   1.845   1.313  4.2773 -0.9170  0.3215
  223MOL0     H30073   6.566   2.020   1.226 -0.8711 -1.1132 -0.0192
  223MOL0     H30074   6.617   1.927   1.081  0.0007 -3.2537 -0.1081
  223MOL0     H30075   6.493   1.800   1.335  1.5088  1.5958  0.4471
  223MOL0     H30076   6.577   1.710   1.210 -3.0604 -1.7052 -2.5344
  223MOL0     H30077   6.389   1.826   1.056  0.8144 -0.9014 -0.1445
  223MOL0     H30078   6.339   1.904   1.203  1.9805  0.8675  1.0130
  223MOL0     H30079   6.201   1.698   1.149 -0.4167  1.7263  1.9060
  223MOL0     H30080   6.346   1.600   1.135 -0.5260  0.6803 -2.0539
  223MOL0     H30081   6.249   1.747   1.387  2.1624 -0.3709  1.0048
  223MOL0     H30082   6.372   1.621   1.386 -0.5224  0.1613  1.7345
  223MOL0     H30083   6.151   1.542   1.463 -0.0203 -0.4528 -0.3290
  223MOL0     H30084   6.088   1.544   1.302 -1.4372  0.2768  2.6929
  223MOL0     H30085   6.843   2.277   1.579 -1.4345 -0.9666  3.9423
  223MOL0     H30086   7.043   2.286   1.728 -2.5366 -0.8540  2.1521
  223MOL0     H30087   7.333   2.273   1.922 -1.2729 -2.3354 -0.7858
  223MOL0     H30088   7.435   2.336   2.116 -0.3946  0.2898  0.1248
  223MOL0     H30089   8.976   1.135   2.269 -0.0824  2.1745  0.3827
  223MOL0     H30090   9.206   1.020   2.190 -1.5602 -0.5210  0.5854
  223MOL0     H30091   9.514   0.951   2.174  1.0807 -1.7406  1.7409
  223MOL0     H30092   9.689   0.803   2.246 -1.1044 -0.6292 -1.9504
  223MOL0     H30093  10.033   0.655   2.253  4.2261  1.9715 -1.6118
  223MOL0     H30094   9.851   0.687   2.285 -0.4608  1.5217 -2.4437
  223MOL0     H30095   9.949   0.899   2.392 -1.0780 -1.0822 -0.1014
  223MOL0     H30096  10.112   0.842   2.368  0.1068  1.3763  0.7926
  223MOL0     H30097  10.063   0.753   2.589 -1.2428  0.3129  0.5671
  223MOL0     H30098  10.016   0.617   2.482 -2.0250 -0.7713 -1.6547
  223MOL0     H30099   9.841   0.827   2.633 -0.0044  0.2708 -1.2344
  223MOL0     H30100   9.770   0.727   2.499  1.9756  0.2373 -2.5838
  223MOL0     H30101   9.759   0.450   2.797 -0.4136  1.2001  1.1372
  223MOL0     H30102   9.982   1.058   2.066 -1.0415  1.3604 -0.6790
  223MOL0     H30103   9.772   1.362   2.004 -3.1345 -0.3716  0.6622
  223MOL0     H30104   9.927   1.268   1.992  0.4458 -3.7566 -0.5153
  223MOL0     H30105   9.799   1.244   1.876  1.4347 -0.4853  0.1529
  224MOL0     O30106   4.396   4.781   0.858  0.2983 -0.0368  0.3092
  224MOL0     C30107   4.470   4.857   0.795  0.0621  0.4878  0.2189
  224MOL0     O30108   4.567   4.809   0.709 -0.1143 -0.3241 -0.5153
  224MOL0     C30109   4.568   4.684   0.668  0.4938  0.0248  0.4254
  224MOL0     C30110   4.670   4.607   0.721 -0.1758  0.5150  0.6056
  224MOL0     C30111   4.663   4.464   0.708 -0.2961 -0.0603  0.2826
  224MOL0     C30112   4.568   4.397   0.631 -0.1956 -0.1289 -0.6787
  224MOL0     O30113   4.566   4.263   0.624  0.3825  0.7444  0.4628
  224MOL0     C30114   4.444   4.218   0.690 -0.5492 -0.7109  0.9954
  224MOL0     C30115   4.444   4.073   0.756 -0.5630 -0.9575  0.0808
  224MOL0     C30116   4.589   4.019   0.781 -0.2174 -0.1874 -0.1981
  224MOL0     C30117   4.631   3.944   0.659  0.3657  0.1181 -0.6811
  224MOL0     C30118   4.783   3.912   0.666  0.2044 -1.1048  0.0406
  224MOL0     C30119   4.821   3.850   0.529 -0.2490  0.4673 -0.7275
  224MOL0     C30120   4.959   3.790   0.547 -0.5381 -0.1929  1.1880
  224MOL0     C30121   4.959   3.663   0.620 -0.1615  0.9251 -0.4437
  224MOL0     N30122   4.943   3.542   0.538  0.0059 -0.4953  0.1017
  224MOL0     C30123   4.955   3.415   0.587 -1.0453  0.9492  0.1816
  224MOL0     C30124   4.888   3.333   0.510 -0.3357  0.0213 -0.8890
  224MOL0     C30125   4.861   3.190   0.528  0.1808 -0.4266  0.0946
  224MOL0     C30126   4.986   3.106   0.470 -0.0301 -0.3129  0.2834
  224MOL0     C30127   4.969   2.949   0.468 -0.3325 -0.5961  0.3634
  224MOL0     C30128   4.955   2.903   0.615  0.2250  0.3256 -0.3729
  224MOL0     O30129   4.978   2.759   0.626 -0.5278  0.9480  0.3839
  224MOL0     C30130   4.868   2.680   0.622  0.6598 -0.6299  0.0290
  224MOL0     C30131   4.866   2.565   0.692  0.3858  0.1257 -0.7704
  224MOL0     C30132   4.746   2.496   0.703 -0.0163 -0.0028 -0.1461
  224MOL0     C30133   4.619   2.536   0.653 -1.4133 -0.9806  0.1409
  224MOL0     C30134   4.498   2.462   0.685  0.5939 -0.3124  0.5461
  224MOL0     O30135   4.376   2.521   0.658 -0.2877 -0.3345  0.5251
  224MOL0     C30136   4.270   2.436   0.682  0.6204 -0.1506  0.0086
  224MOL0     C30137   4.221   2.341   0.594 -0.5131  0.0885 -0.0192
  224MOL0     C30138   4.105   2.267   0.604 -0.2436  0.6075  0.6563
  224MOL0     C30139   4.026   2.289   0.721  0.6981  0.0260  0.3831
  224MOL0     O30140   3.913   2.215   0.761 -0.3465 -0.0684  0.2388
  224MOL0     C30141   3.869   2.098   0.681  0.3678 -0.2214  0.7878
  224MOL0     C30142   3.740   2.020   0.730 -0.6216  1.0606  0.0153
  224MOL0     C30143   3.755   1.972   0.880 -0.1817  0.0901 -0.5808
  224MOL0     C30144   3.625   1.925   0.929  0.2410 -0.3341 -0.7171
  224MOL0     C30145   3.612   1.896   1.083 -0.3865  0.3555  0.3712
  224MOL0     C30146   3.684   1.764   1.121  0.0002  0.3023 -1.2406
  224MOL0     C30147   3.679   1.751   1.270 -1.1462  0.4459  0.0645
  224MOL0     C30148   3.806   1.825   1.322  0.3624  0.2741  0.6613
  224MOL0    Cl30149   3.842   1.762   1.479  0.0282 -0.4718 -0.4291
  224MOL0     C30150   4.062   2.394   0.811 -0.1553 -0.2775 -0.1731
  224MOL0     C30151   4.176   2.474   0.784  0.1737 -0.2257 -0.3868
  224MOL0     O30152   4.514   2.356   0.746 -0.9820 -0.1705 -0.0346
  224MOL0     C30153   4.628   2.656   0.577  0.0025  0.4799  0.0462
  224MOL0     C30154   4.749   2.719   0.558 -0.3722  0.5708  0.3762
  224MOL0     N30155   4.832   3.408   0.411 -0.0821  0.4134  0.0269
  224MOL0     N30156   4.879   3.536   0.427 -0.1000  0.3176  0.1822
  224MOL0     C30157   4.466   4.483   0.580  0.6252  0.1928  0.3419
  224MOL0     C30158   4.460   4.619   0.613  0.4520  1.1168  0.1042
  224MOL0     C30159   4.456   5.001   0.829  0.1885  0.2162 -0.4250
  224MOL0     C30160   4.563   5.083   0.789  0.6692  0.4693 -0.2946
  224MOL0     C30161   4.553   5.218   0.807 -0.0886  0.9340 -0.2309
  224MOL0     C30162   4.455   5.284   0.891 -0.6666  0.1098 -0.2416
  224MOL0     O30163   4.450   5.424   0.909  0.1392 -0.1641 -0.8456
  224MOL0     C30164   4.364   5.493   0.809 -0.1205 -1.6466 -0.2957
  224MOL0     C30165   4.419   5.629   0.775  0.0951 -1.1531 -0.1100
  224MOL0     C30166   4.567   5.631   0.711  0.5693  0.4786 -0.3511
  224MOL0     C30167   4.561   5.623   0.563 -0.8680 -0.0317 -0.8824
  224MOL0     C30168   4.579   5.483   0.523 -0.4633  0.0482 -1.3665
  224MOL0     C30169   4.608   5.366   0.503  0.9568 -0.5001  0.0104
  224MOL0     C30170   4.350   5.202   0.926 -0.0405  0.1011 -0.0028
  224MOL0     C30171   4.353   5.064   0.909  0.2837  0.0625  0.7070
  224MOL0     C30172   4.231   4.988   0.960 -0.1283 -0.4014  0.1305
  224MOL0     H30173   4.746   4.658   0.780  1.4281 -0.1692 -0.7839
  224MOL0     H30174   4.752   4.413   0.744  0.5450 -0.7394 -2.4828
  224MOL0     H30175   4.415   4.290   0.768  1.2458  0.8604  0.2763
  224MOL0     H30176   4.361   4.222   0.618 -0.4375  1.4752  0.9086
  224MOL0     H30177   4.388   3.999   0.698 -1.3855  0.0053 -0.3801
  224MOL0     H30178   4.402   4.089   0.856  1.8625 -2.0547  1.3565
  224MOL0     H30179   4.596   3.954   0.868  0.5066 -1.0614 -0.8992
  224MOL0     H30180   4.664   4.093   0.808 -0.3957 -1.0018  2.8701
  224MOL0     H30181   4.573   3.853   0.641 -0.5683  0.4563  0.5372
  224MOL0     H30182   4.610   4.002   0.569 -0.6492 -1.4606 -1.5118
  224MOL0     H30183   4.836   4.006   0.688  0.1079 -0.8334 -0.8382
  224MOL0     H30184   4.797   3.838   0.745 -4.1389  0.0739  2.2421
  224MOL0     H30185   4.750   3.769   0.507 -0.2571  1.1995 -3.9471
  224MOL0     H30186   4.825   3.922   0.447 -1.4384  0.7722 -0.5391
  224MOL0     H30187   5.038   3.857   0.583 -1.1446  0.8184  0.6776
  224MOL0     H30188   4.998   3.776   0.446 -2.7214  1.4575  0.0288
  224MOL0     H30189   5.052   3.665   0.677  0.0391  0.2428 -0.7362
  224MOL0     H30190   4.879   3.655   0.694  0.6698  0.6045  0.4293
  224MOL0     H30191   5.001   3.391   0.682  0.4093  0.0038 -0.7319
  224MOL0     H30192   4.844   3.169   0.634 -1.0738  2.6703  0.6255
  224MOL0     H30193   4.768   3.161   0.479 -0.1962  0.6245  0.1678
  224MOL0     H30194   5.004   3.129   0.364  1.5207 -1.6853  0.2143
  224MOL0     H30195   5.078   3.130   0.523  0.2188 -1.9101  0.6189
  224MOL0     H30196   5.052   2.889   0.429  0.3509 -1.0668  2.4043
  224MOL0     H30197   4.885   2.921   0.404  2.0216 -0.0794 -3.2529
  224MOL0     H30198   4.856   2.928   0.655  1.2898  1.0716  1.9161
  224MOL0     H30199   5.028   2.955   0.676  0.4580  1.7336 -1.7908
  224MOL0     H30200   4.952   2.537   0.752 -0.8465  1.4772  1.7777
  224MOL0     H30201   4.768   2.409   0.764  3.2455 -1.3895 -2.9462
  224MOL0     H30202   4.275   2.326   0.500  2.1956  0.2842  1.3912
  224MOL0     H30203   4.073   2.192   0.532 -1.8255  1.0196  0.8849
  224MOL0     H30204   3.858   2.133   0.578 -0.9764  3.8651  2.1221
  224MOL0     H30205   3.953   2.029   0.669  0.9825  1.0386 -6.3381
  224MOL0     H30206   3.647   2.077   0.719 -1.3670  0.3613  2.1796
  224MOL0     H30207   3.736   1.932   0.666  0.8066  2.5527 -2.2633
  224MOL0     H30208   3.826   1.891   0.897  1.0262  1.2557  0.1366
  224MOL0     H30209   3.788   2.057   0.941  1.3539 -2.6750  2.7891
  224MOL0     H30210   3.607   1.830   0.876 -2.5722  0.9253 -2.2482
  224MOL0     H30211   3.533   1.978   0.903 -0.3596 -0.8635  0.2439
  224MOL0     H30212   3.505   1.882   1.101  0.0273 -1.9524  1.4603
  224MOL0     H30213   3.646   1.971   1.155  2.4402 -0.9328  0.5013
  224MOL0     H30214   3.635   1.676   1.077 -1.4444  0.5467 -0.2107
  224MOL0     H30215   3.787   1.763   1.085  0.5199  0.9353  0.1782
  224MOL0     H30216   3.699   1.648   1.303  3.6747  1.0544 -0.2610
  224MOL0     H30217   3.587   1.785   1.318 -0.3104  1.5001  0.9705
  224MOL0     H30218   3.894   1.810   1.259  1.7983  1.4544  2.2840
  224MOL0     H30219   3.781   1.932   1.328  1.7296  0.8839 -2.5678
  224MOL0     H30220   3.989   2.418   0.888 -2.0714  3.5024 -2.8161
  224MOL0     H30221   4.210   2.552   0.852 -1.3081 -1.2368  1.6059
  224MOL0     H30222   4.548   2.703   0.521  0.3221  0.5410 -0.3664
  224MOL0     H30223   4.750   2.808   0.497 -0.0305 -0.6977 -1.5651
  224MOL0     H30224   4.385   4.437   0.525  1.8212  0.3673 -1.6852
  224MOL0     H30225   4.379   4.676   0.569  1.1295  0.9143 -1.4693
  224MOL0     H30226   4.656   5.056   0.741  2.7327 -1.0922  4.0497
  224MOL0     H30227   4.633   5.282   0.772  0.5234  1.4712  2.0217
  224MOL0     H30228   4.265   5.505   0.853 -0.9891 -3.2202 -1.6875
  224MOL0     H30229   4.355   5.428   0.721  2.8008 -1.0277 -1.1553
  224MOL0     H30230   4.421   5.686   0.869  1.0141 -2.7198  0.8611
  224MOL0     H30231   4.355   5.688   0.709 -1.0893 -2.0412  0.2084
  224MOL0     H30232   4.633   5.554   0.752 -2.8752 -2.2880  0.5972
  224MOL0     H30233   4.603   5.731   0.739 -2.1148  1.2641  0.6403
  224MOL0     H30234   4.466   5.653   0.517  0.0343  3.7444 -0.5716
  224MOL0     H30235   4.638   5.687   0.520 -0.1677 -0.0647  0.2801
  224MOL0     H30236   4.625   5.263   0.480 -2.8026 -1.8270  2.2823
  224MOL0     H30237   4.283   5.255   0.992  0.1013 -1.5411  1.5392
  224MOL0     H30238   4.172   5.049   1.029  1.7846  2.5720 -0.6825
  224MOL0     H30239   4.165   4.956   0.878  0.3264  2.8531 -1.6976
  224MOL0     H30240   4.249   4.904   1.027  0.1653  0.8025  1.6159
  225MOL0     O30241   8.498   7.931   0.145 -0.3241 -0.0522  0.0840
  225MOL0     C30242   8.462   7.815   0.176  0.3343  1.1499  0.3074
  225MOL0     O30243   8.380   7.747   0.097 -0.0448  1.0866 -0.2886
  225MOL0     C30244   8.323   7.803  -0.016 -0.3983 -0.4221  0.5912
  225MOL0     C30245   8.341   7.745  -0.139  0.3379 -0.3763  0.0058
  225MOL0     C30246   8.261   7.787  -0.250  0.2178 -0.0676  0.3526
  225MOL0     C30247   8.179   7.898  -0.248 -1.6486  0.1850 -0.4545
  225MOL0     O30248   8.125   7.933  -0.367  0.4272 -0.9166  0.1323
  225MOL0     C30249   8.117   8.069  -0.384 -0.1721 -0.4766 -0.6549
  225MOL0     C30250   8.239   8.121  -0.464 -0.2028  0.1277  1.1798
  225MOL0     C30251   8.206   8.270  -0.510 -1.3845  0.3762 -0.7533
  225MOL0     C30252   8.328   8.335  -0.568  0.9768 -0.2523  0.6639
  225MOL0     C30253   8.292   8.476  -0.624 -0.0080 -0.6463 -0.2369
  225MOL0     C30254   8.235   8.567  -0.513 -0.1602 -0.5365  0.1436
  225MOL0     C30255   8.321   8.580  -0.381  0.2893 -0.0491  0.5102
  225MOL0     C30256   8.447   8.658  -0.407 -0.5534  0.2568 -0.0887
  225MOL0     N30257   8.523   8.717  -0.291  0.5864 -0.9282 -0.3413
  225MOL0     C30258   8.552   8.670  -0.168  0.1062  0.7715 -0.6412
  225MOL0     C30259   8.629   8.762  -0.112  0.6502 -0.2422 -0.2624
  225MOL0     C30260   8.686   8.759   0.032  0.1261  1.1858  0.4099
  225MOL0     C30261   8.654   8.885   0.104 -0.2519 -0.1899 -0.4230
  225MOL0     C30262   8.507   8.877   0.140 -0.1014 -0.6836  0.3408
  225MOL0     C30263   8.446   9.021   0.184 -0.3334  0.0816 -0.2239
  225MOL0     O30264   8.417   9.108   0.076  0.3712  0.4161  0.4973
  225MOL0     C30265   8.410   9.241   0.098  0.4183 -0.0248  0.4289
  225MOL0     C30266   8.409   9.313  -0.026  0.1866 -0.3001 -0.8871
  225MOL0     C30267   8.382   9.455  -0.007  0.2595 -0.6089  0.3971
  225MOL0     C30268   8.356   9.520   0.113  0.8991  0.4093 -0.3824
  225MOL0     C30269   8.337   9.665   0.120  0.1633 -0.0603 -0.4524
  225MOL0     O30270   8.414   9.735   0.213 -0.6633  1.0763  0.1785
  225MOL0     C30271   8.400   9.871   0.234 -0.3754  0.4312 -0.2289
  225MOL0     C30272   8.277   9.919   0.280  0.9278 -0.5237 -0.1520
  225MOL0     C30273   8.266  10.052   0.332  0.6505  0.5653  0.0350
  225MOL0     C30274   8.371  10.138   0.339 -0.7857  0.3604  0.0455
  225MOL0     O30275   8.358  10.269   0.374 -0.8376 -0.5513 -0.1648
  225MOL0     C30276   8.241  10.330   0.424  0.2579  0.0727 -0.0306
  225MOL0     C30277   8.281  10.466   0.474 -0.3666 -0.0591  0.3252
  225MOL0     C30278   8.362  10.453   0.598 -0.3479 -0.1527 -0.5146
  225MOL0     C30279   8.288  10.416   0.719  0.8741 -0.2230  0.2482
  225MOL0     C30280   8.387  10.432   0.836 -0.8584  0.6338  0.8832
  225MOL0     C30281   8.313  10.421   0.971 -0.5558  1.2081 -0.1381
  225MOL0     C30282   8.402  10.423   1.092 -0.0027  0.0244  0.7862
  225MOL0     C30283   8.361  10.307   1.180 -0.1120 -0.4747 -0.6023
  225MOL0    Cl30284   8.199  10.286   1.244 -0.0251 -0.3125 -0.2370
  225MOL0     C30285   8.489  10.092   0.294  0.0526 -0.1749  0.4750
  225MOL0     C30286   8.510   9.959   0.235  0.6225  0.7846  0.7313
  225MOL0     O30287   8.274   9.721   0.030  0.1878 -0.0584 -0.6240
  225MOL0     C30288   8.371   9.444   0.228 -1.0564 -0.3910  0.1463
  225MOL0     C30289   8.371   9.308   0.219 -0.7080  0.7703  0.3486
  225MOL0     N30290   8.625   8.868  -0.193 -0.3468 -0.2666 -0.2940
  225MOL0     N30291   8.561   8.847  -0.302  0.6331 -0.1045  0.7096
  225MOL0     C30292   8.165   7.965  -0.123 -0.2339 -0.6908  0.2330
  225MOL0     C30293   8.231   7.909  -0.008  0.0611  0.0826 -0.5690
  225MOL0     C30294   8.531   7.751   0.295  0.6138  0.4717 -0.6494
  225MOL0     C30295   8.461   7.640   0.350  0.6393  0.3391 -0.8349
  225MOL0     C30296   8.503   7.580   0.469  0.8334 -0.0224  0.0187
  225MOL0     C30297   8.616   7.632   0.533 -0.2691  0.2951  0.6719
  225MOL0     O30298   8.675   7.584   0.646 -0.8479  0.3413 -0.4647
  225MOL0     C30299   8.612   7.480   0.730  0.2649  0.9171  0.5824
  225MOL0     C30300   8.528   7.546   0.829 -1.0286 -1.0012  0.3787
  225MOL0     C30301   8.452   7.448   0.919  0.0466 -1.0451  0.3259
  225MOL0     C30302   8.380   7.526   1.035 -0.4354 -0.1094  0.3910
  225MOL0     C30303   8.311   7.424   1.115 -0.1373 -0.8047 -0.9846
  225MOL0     C30304   8.273   7.342   1.188 -0.1860 -0.2886  0.2684
  225MOL0     C30305   8.688   7.732   0.474  1.0561 -0.1083 -0.4575
  225MOL0     C30306   8.650   7.804   0.362  0.6830 -0.6246 -0.2831
  225MOL0     C30307   8.726   7.923   0.326  0.7847 -0.5370 -0.8675
  225MOL0     H30308   8.402   7.655  -0.142  0.8651 -0.0229  0.1419
  225MOL0     H30309   8.278   7.721  -0.335 -0.5036  1.4915 -1.0480
  225MOL0     H30310   8.026   8.081  -0.444 -1.0767 -1.9991  0.3328
  225MOL0     H30311   8.121   8.136  -0.298 -2.0375 -0.0186 -0.8873
  225MOL0     H30312   8.244   8.056  -0.551  0.1049  0.5532  0.8757
  225MOL0     H30313   8.332   8.120  -0.407  0.8029  0.4321 -0.4060
  225MOL0     H30314   8.176   8.317  -0.416 -1.0095  1.5772 -1.2152
  225MOL0     H30315   8.130   8.257  -0.588 -2.1028 -0.6818  0.0883
  225MOL0     H30316   8.395   8.325  -0.483  0.0048 -1.2947  1.3409
  225MOL0     H30317   8.375   8.276  -0.648  0.3697  1.2870 -0.9086
  225MOL0     H30318   8.375   8.539  -0.659 -0.0792 -0.1218  0.5145
  225MOL0     H30319   8.219   8.475  -0.706 -0.6541  1.7342  0.2319
  225MOL0     H30320   8.209   8.668  -0.544  1.0490  0.5559  2.4275
  225MOL0     H30321   8.135   8.528  -0.488 -0.9943  1.5050  0.2124
  225MOL0     H30322   8.331   8.483  -0.332 -4.3981  0.4832  3.0963
  225MOL0     H30323   8.252   8.629  -0.312  0.6295  0.1686  0.6999
  225MOL0     H30324   8.509   8.583  -0.456 -0.9174  1.4066 -2.4420
  225MOL0     H30325   8.436   8.743  -0.475  0.1784  0.8777  0.5580
  225MOL0     H30326   8.540   8.566  -0.140  1.8478  0.9874  1.1201
  225MOL0     H30327   8.650   8.667   0.080 -0.0751 -0.2386 -2.2710
  225MOL0     H30328   8.795   8.752   0.038  0.0533 -1.9204 -0.3013
  225MOL0     H30329   8.719   8.891   0.192 -0.4412 -1.3863 -0.1774
  225MOL0     H30330   8.690   8.968   0.043  2.0152 -1.1290 -0.4493
  225MOL0     H30331   8.491   8.806   0.222 -0.8025  0.1042  0.9034
  225MOL0     H30332   8.443   8.842   0.058 -0.3510  0.0925  0.1951
  225MOL0     H30333   8.504   9.066   0.265 -2.4244 -2.4609  3.0257
  225MOL0     H30334   8.348   8.999   0.229 -1.2385  1.6613 -1.3330
  225MOL0     H30335   8.445   9.278  -0.122 -0.8565  1.7951 -2.1117
  225MOL0     H30336   8.374   9.519  -0.095 -0.5104 -2.1571 -0.7188
  225MOL0     H30337   8.192   9.853   0.271  0.0130  0.6684 -0.5391
  225MOL0     H30338   8.168  10.087   0.364  0.6528  2.1525 -1.5194
  225MOL0     H30339   8.163  10.340   0.348  0.2666  1.6265  0.1409
  225MOL0     H30340   8.198  10.268   0.503  0.0680  1.1934  0.7713
  225MOL0     H30341   8.327  10.529   0.397 -1.4615  1.9713  1.2463
  225MOL0     H30342   8.190  10.523   0.496  0.6956  2.9635 -2.3907
  225MOL0     H30343   8.438  10.375   0.585 -0.4643 -0.3272 -0.1561
  225MOL0     H30344   8.414  10.549   0.610 -0.7201  0.0868 -0.8027
  225MOL0     H30345   8.230  10.324   0.713 -0.2711  0.4282  1.0522
  225MOL0     H30346   8.210  10.491   0.733 -0.9447 -1.5423 -2.1427
  225MOL0     H30347   8.435  10.531   0.835  2.0209 -0.6645  1.4744
  225MOL0     H30348   8.464  10.356   0.823 -0.1705  1.4415  0.1047
  225MOL0     H30349   8.249  10.510   0.970 -0.6705  1.1246 -0.6057
  225MOL0     H30350   8.247  10.334   0.971  2.0546 -0.9425  1.7130
  225MOL0     H30351   8.379  10.511   1.153  0.9004  0.5497  0.3832
  225MOL0     H30352   8.506  10.429   1.061 -0.1791 -2.4772 -0.5441
  225MOL0     H30353   8.395  10.211   1.140 -0.0526  0.9009 -4.2092
  225MOL0     H30354   8.415  10.340   1.269 -0.2535 -0.5043 -0.5045
  225MOL0     H30355   8.577  10.156   0.292 -0.2878  0.2916  0.4100
  225MOL0     H30356   8.604   9.909   0.212  1.6647  2.9881 -0.1409
  225MOL0     H30357   8.364   9.495   0.323 -1.9919  2.3746 -1.2873
  225MOL0     H30358   8.357   9.249   0.309  2.7795  0.6060  0.9265
  225MOL0     H30359   8.098   8.049  -0.130  1.0903  0.6026  2.0826
  225MOL0     H30360   8.220   7.949   0.092  1.2799 -1.6643  0.3141
  225MOL0     H30361   8.362   7.615   0.313  1.3917  0.6833 -3.2791
  225MOL0     H30362   8.440   7.504   0.514 -0.8552  1.5341  0.3434
  225MOL0     H30363   8.683   7.407   0.770 -2.1101 -3.0490 -1.7975
  225MOL0     H30364   8.557   7.407   0.670 -0.1371 -1.3247  3.4468
  225MOL0     H30365   8.468   7.614   0.767  2.6030  0.3911 -1.8953
  225MOL0     H30366   8.590   7.613   0.889 -1.8666 -0.8790  1.1314
  225MOL0     H30367   8.516   7.367   0.956  1.6102 -1.0782 -2.1693
  225MOL0     H30368   8.379   7.404   0.851 -2.5513  4.0321 -0.6411
  225MOL0     H30369   8.447   7.575   1.107  0.8533  1.3475 -1.6983
  225MOL0     H30370   8.307   7.592   0.988  0.3386 -0.2611 -1.0700
  225MOL0     H30371   8.251   7.261   1.254 -2.0999 -0.5598 -0.6242
  225MOL0     H30372   8.770   7.776   0.530 -0.0137  0.6950  0.5221
  225MOL0     H30373   8.737   7.932   0.217  1.6671 -0.6421 -0.7978
  225MOL0     H30374   8.678   8.013   0.365  1.2046  0.5569 -2.7298
  225MOL0     H30375   8.828   7.926   0.364  1.3409 -0.2786 -2.2991
  226MOL0     O30376  10.027   2.575  10.330 -0.3584  0.8303 -1.1679
  226MOL0     C30377  10.075   2.678  10.291 -0.1817 -0.0232  0.5439
  226MOL0     O30378   9.994   2.775  10.235  0.6932  1.2175  0.7793
  226MOL0     C30379   9.881   2.728  10.157  1.2522 -0.1989 -0.7614
  226MOL0     C30380   9.887   2.636  10.055 -0.5673 -0.9323  0.3173
  226MOL0     C30381   9.779   2.595   9.986  0.3230  0.4086  0.2872
  226MOL0     C30382   9.650   2.639  10.009 -0.0989  0.1173 -0.7656
  226MOL0     O30383   9.537   2.603   9.936  0.6695 -1.5179 -0.1254
  226MOL0     C30384   9.509   2.474   9.933  0.0737  0.0188  0.3756
  226MOL0     C30385   9.375   2.447   9.859  0.1213  0.3967  0.5190
  226MOL0     C30386   9.344   2.301   9.872 -0.3899 -0.2570  0.2649
  226MOL0     C30387   9.222   2.256   9.795 -0.3984 -1.1273 -0.5087
  226MOL0     C30388   9.192   2.109   9.781 -0.0804 -0.1373 -0.9207
  226MOL0     C30389   9.159   2.045   9.917  0.5689  0.0227 -0.1571
  226MOL0     C30390   9.019   2.073   9.975  0.6002 -0.1526 -0.8057
  226MOL0     C30391   8.905   2.055   9.870 -0.4059  0.0276  0.7719
  226MOL0     N30392   8.775   2.044   9.937 -0.5570 -0.1402  0.3779
  226MOL0     C30393   8.705   2.150   9.995  0.2867 -0.1827 -0.3421
  226MOL0     C30394   8.590   2.093  10.019 -1.0489  0.4758 -0.3189
  226MOL0     C30395   8.468   2.170  10.062 -1.2591  0.3484 -0.0860
  226MOL0     C30396   8.367   2.168   9.954 -0.3001  0.1849  0.7024
  226MOL0     C30397   8.395   2.279   9.851 -0.2363 -0.1042 -0.0983
  226MOL0     C30398   8.406   2.234   9.705  1.1430 -0.5938  1.1345
  226MOL0     O30399   8.543   2.212   9.668 -0.3812  0.1044  0.5697
  226MOL0     C30400   8.578   2.148   9.548  0.4824 -0.6009 -0.0098
  226MOL0     C30401   8.702   2.085   9.543 -0.6503 -0.6780  0.0803
  226MOL0     C30402   8.727   2.008   9.424 -0.2042  0.5753  0.1915
  226MOL0     C30403   8.636   1.989   9.318 -0.8588  0.5149  0.1613
  226MOL0     C30404   8.680   1.909   9.201 -0.8803 -0.6381  0.2444
  226MOL0     O30405   8.588   1.898   9.103 -0.1729  0.2682  0.5816
  226MOL0     C30406   8.614   1.865   8.978  0.5303  0.0016  0.7420
  226MOL0     C30407   8.651   1.970   8.896 -0.2694 -0.1671  1.0505
  226MOL0     C30408   8.679   1.935   8.761  0.4437  0.0992  0.4763
  226MOL0     C30409   8.664   1.807   8.718  0.5087 -0.4139 -0.4723
  226MOL0     O30410   8.712   1.785   8.591 -0.8565 -0.0667 -1.2219
  226MOL0     C30411   8.659   1.677   8.515  0.4799  0.1427  0.4310
  226MOL0     C30412   8.769   1.625   8.420 -0.8669  0.2474 -0.5624
  226MOL0     C30413   8.734   1.513   8.327  0.5756 -0.2429  0.0574
  226MOL0     C30414   8.861   1.441   8.282 -0.2860 -0.1525 -0.1542
  226MOL0     C30415   8.833   1.346   8.174 -1.1381 -0.1087  1.1712
  226MOL0     C30416   8.950   1.252   8.120 -0.2254 -0.0045 -0.0375
  226MOL0     C30417   8.996   1.143   8.216 -0.2874 -0.0948 -0.2628
  226MOL0     C30418   9.109   1.065   8.145  0.4685  0.2943  0.1243
  226MOL0    Cl30419   9.256   1.175   8.146  0.4233  0.3255 -0.0122
  226MOL0     C30420   8.627   1.697   8.807 -0.1994  0.6098 -0.4384
  226MOL0     C30421   8.595   1.730   8.936 -1.0515 -0.2092 -0.2305
  226MOL0     O30422   8.778   1.840   9.212  0.6735  0.9796  0.3163
  226MOL0     C30423   8.511   2.040   9.341  0.1792  0.6483  0.5907
  226MOL0     C30424   8.489   2.125   9.445 -0.6892  0.0018  0.6718
  226MOL0     N30425   8.598   1.955   9.997  0.5040  0.0121  0.5871
  226MOL0     N30426   8.710   1.923   9.948  0.7774  0.2135  0.4935
  226MOL0     C30427   9.639   2.728  10.110  0.2859 -0.4900 -0.4736
  226MOL0     C30428   9.745   2.767  10.181  0.1059 -0.4404  1.0310
  226MOL0     C30429  10.216   2.715  10.310 -1.1828 -0.4181 -0.6963
  226MOL0     C30430  10.274   2.656  10.423 -0.4661 -0.4315 -0.0752
  226MOL0     C30431  10.406   2.697  10.460  0.0049 -0.1146  0.7140
  226MOL0     C30432  10.487   2.782  10.377 -1.1037 -0.3593  0.2110
  226MOL0     O30433  10.617   2.800  10.418 -0.5047 -0.6176  0.0163
  226MOL0     C30434  10.705   2.873  10.329 -0.1767 -0.1584 -0.4588
  226MOL0     C30435  10.817   2.913  10.415 -1.0628 -0.3595 -0.0293
  226MOL0     C30436  10.787   3.039  10.496 -0.0802 -0.1282  0.0786
  226MOL0     C30437  10.917   3.120  10.531 -0.6347  0.7864  0.5268
  226MOL0     C30438  11.008   3.044  10.621  0.1601 -0.4229  0.4297
  226MOL0     C30439  11.086   2.992  10.693 -0.6537  1.2815 -0.4077
  226MOL0     C30440  10.422   2.859  10.284 -0.0108  0.4178 -0.1820
  226MOL0     C30441  10.288   2.820  10.242 -0.5843  0.0716  0.3436
  226MOL0     C30442  10.245   2.892  10.120 -0.2831  0.0709  0.1276
  226MOL0     H30443   9.989   2.608  10.032 -0.1222  0.6575  0.2731
  226MOL0     H30444   9.785   2.530   9.899 -2.1459  3.3845 -2.3445
  226MOL0     H30445   9.596   2.417   9.900  1.2292 -0.4032  3.7898
  226MOL0     H30446   9.484   2.449  10.036 -0.6696 -2.3270 -0.3107
  226MOL0     H30447   9.378   2.477   9.754  4.6367 -1.6611 -0.1612
  226MOL0     H30448   9.301   2.507   9.912 -0.5054 -1.5789  2.0047
  226MOL0     H30449   9.318   2.286   9.977  0.5996  0.0505  0.5745
  226MOL0     H30450   9.430   2.236   9.852 -2.5996 -3.1569 -0.4561
  226MOL0     H30451   9.138   2.295   9.854  2.2677  3.0595  1.0488
  226MOL0     H30452   9.234   2.309   9.700 -1.5645 -0.8329 -0.5014
  226MOL0     H30453   9.121   2.083   9.701 -0.0606 -2.2651 -0.3058
  226MOL0     H30454   9.277   2.056   9.737  0.0547  0.3152 -1.2142
  226MOL0     H30455   9.146   1.937   9.901 -0.5991 -0.1265  1.5655
  226MOL0     H30456   9.237   2.079   9.986 -2.0675  3.3363  1.5040
  226MOL0     H30457   9.009   2.179  10.000  0.1900  0.8485 -4.5566
  226MOL0     H30458   9.000   2.006  10.059  2.5726 -1.3587 -1.2560
  226MOL0     H30459   8.908   2.147   9.810 -0.2449 -1.2575 -1.3187
  226MOL0     H30460   8.935   1.976   9.801  1.5419  1.0041  0.4183
  226MOL0     H30461   8.713   2.257   9.978 -0.6608  0.1814  1.3435
  226MOL0     H30462   8.433   2.119  10.152  5.9212  0.1898  3.3112
  226MOL0     H30463   8.495   2.268  10.102 -0.9821 -0.6357  2.2858
  226MOL0     H30464   8.352   2.068   9.914  0.4391  0.5305 -0.5097
  226MOL0     H30465   8.275   2.188  10.009 -0.3845  0.6379  0.4077
  226MOL0     H30466   8.483   2.339   9.877  1.2424 -1.7735 -1.0932
  226MOL0     H30467   8.320   2.358   9.863  2.7079  3.0911 -1.1127
  226MOL0     H30468   8.362   2.304   9.634  6.2025  0.2973 -1.5991
  226MOL0     H30469   8.341   2.147   9.687  0.3160 -0.0295  1.3451
  226MOL0     H30470   8.774   2.092   9.624 -1.1077 -2.3433  0.6819
  226MOL0     H30471   8.824   1.961   9.418 -0.8641 -1.1270  1.9491
  226MOL0     H30472   8.658   2.071   8.935  0.6896  1.2816 -2.4825
  226MOL0     H30473   8.728   2.009   8.698  1.1069 -0.4497  0.3401
  226MOL0     H30474   8.619   1.589   8.566  1.0097 -3.0461 -4.0741
  226MOL0     H30475   8.570   1.713   8.462  1.0931  0.0618 -0.6889
  226MOL0     H30476   8.811   1.709   8.364  2.2600 -0.9116 -0.1493
  226MOL0     H30477   8.850   1.602   8.491  1.1274 -0.0269 -2.7988
  226MOL0     H30478   8.677   1.444   8.389  1.9147  1.5467  3.5822
  226MOL0     H30479   8.667   1.544   8.246 -0.9400 -1.6675  0.7037
  226MOL0     H30480   8.901   1.384   8.367  0.8201 -0.2179 -0.7038
  226MOL0     H30481   8.926   1.524   8.255 -0.6878 -0.9570 -4.1416
  226MOL0     H30482   8.795   1.406   8.091  2.4703  1.2698  0.3422
  226MOL0     H30483   8.749   1.284   8.206 -2.5542  1.4030  0.4901
  226MOL0     H30484   8.918   1.207   8.025  0.4327 -0.6424  0.0339
  226MOL0     H30485   9.029   1.312   8.074  0.5011 -1.9094 -1.4033
  226MOL0     H30486   8.907   1.084   8.242  0.7944 -0.0522  4.2013
  226MOL0     H30487   9.043   1.179   8.307 -0.0880 -3.9171  1.2988
  226MOL0     H30488   9.136   0.973   8.197 -0.5654 -0.3001 -0.3638
  226MOL0     H30489   9.086   1.043   8.040 -2.1047  2.1541  0.2171
  226MOL0     H30490   8.626   1.592   8.780  1.3502  1.3290 -3.8144
  226MOL0     H30491   8.565   1.659   9.013 -1.9433  1.6370  1.2057
  226MOL0     H30492   8.426   2.007   9.282  1.5580 -2.1168  0.0035
  226MOL0     H30493   8.390   2.160   9.474 -0.6627 -2.7966  5.0469
  226MOL0     H30494   9.540   2.760  10.139  0.7066  1.4763 -1.0140
  226MOL0     H30495   9.717   2.842  10.255  0.4520  0.6339  0.1048
  226MOL0     H30496  10.217   2.585  10.483  1.8299  0.7057  3.8287
  226MOL0     H30497  10.453   2.653  10.547  2.2353  3.2197  1.4008
  226MOL0     H30498  10.657   2.959  10.280 -0.9111 -1.3618 -1.9425
  226MOL0     H30499  10.729   2.804  10.247  0.2247  1.1988 -1.5303
  226MOL0     H30500  10.917   2.923  10.371 -0.1116  0.0244  2.1144
  226MOL0     H30501  10.835   2.827  10.480  0.0068 -2.0211 -2.3597
  226MOL0     H30502  10.728   3.008  10.582 -1.0729 -1.2174 -0.9541
  226MOL0     H30503  10.726   3.099  10.428  0.2480  1.4182  1.0892
  226MOL0     H30504  10.983   3.161  10.453  6.2308 -2.3640  3.8170
  226MOL0     H30505  10.880   3.201  10.594  0.4548  0.8302  1.1274
  226MOL0     H30506  11.176   2.959  10.739 -0.9616 -1.2593 -1.4721
  226MOL0     H30507  10.471   2.942  10.235  3.7549 -1.3510  0.2066
  226MOL0     H30508  10.209   2.995  10.134  1.5373  0.5235  1.8329
  226MOL0     H30509  10.321   2.882  10.042 -0.0450 -3.3799  0.6621
  226MOL0     H30510  10.151   2.854  10.079  0.2176 -0.9269 -0.1055
  227MOL0     O30511   4.432   3.134   6.899  0.0779 -0.6512  0.1454
  227MOL0     C30512   4.401   3.018   6.911 -0.2808 -0.3037 -0.1295
  227MOL0     O30513   4.470   2.905   6.892  0.1749 -0.6872 -0.5888
  227MOL0     C30514   4.611   2.927   6.872 -0.2349 -0.5730 -0.8955
  227MOL0     C30515   4.708   2.926   6.970 -0.7693 -0.4470  0.9667
  227MOL0     C30516   4.852   2.921   6.937  0.6471  0.1184  0.1418
  227MOL0     C30517   4.891   2.938   6.810  0.0925 -0.8354  0.0103
  227MOL0     O30518   5.022   2.952   6.769 -0.1124  0.1779  0.2529
  227MOL0     C30519   5.110   2.852   6.827 -0.8361  0.2980 -0.2852
  227MOL0     C30520   5.256   2.876   6.775 -0.3584 -0.1725  0.2137
  227MOL0     C30521   5.267   2.941   6.632 -0.5146 -1.2819  0.0820
  227MOL0     C30522   5.227   2.844   6.526  0.1701 -0.0974 -0.2556
  227MOL0     C30523   5.237   2.904   6.387  0.2174 -0.0806 -0.1422
  227MOL0     C30524   5.175   2.819   6.274 -1.0592 -0.2906 -0.2819
  227MOL0     C30525   5.212   2.875   6.135  0.4136  0.0239 -0.4895
  227MOL0     C30526   5.156   2.802   6.014 -0.5622 -0.3904  0.3072
  227MOL0     N30527   5.207   2.862   5.893  0.3871  0.0415 -0.2475
  227MOL0     C30528   5.318   2.817   5.828 -0.8885  0.1019 -0.1895
  227MOL0     C30529   5.303   2.837   5.703 -0.4924 -1.1428  0.5878
  227MOL0     C30530   5.400   2.803   5.597 -0.1822  1.0231 -0.0771
  227MOL0     C30531   5.407   2.653   5.574  0.3233  0.2784 -0.2407
  227MOL0     C30532   5.453   2.561   5.688  0.1855 -0.3013  0.5370
  227MOL0     C30533   5.478   2.417   5.635  0.0632 -0.2554  0.4092
  227MOL0     O30534   5.362   2.374   5.575 -0.1087 -0.1198  1.3625
  227MOL0     C30535   5.363   2.269   5.491 -0.6454 -0.3158 -0.0191
  227MOL0     C30536   5.251   2.247   5.405 -0.4712  0.4732 -0.3631
  227MOL0     C30537   5.242   2.129   5.327 -0.1621  0.1403 -0.7428
  227MOL0     C30538   5.352   2.050   5.309  0.0609 -0.2261  0.6177
  227MOL0     C30539   5.341   1.930   5.234 -0.1836  0.1318  0.6021
  227MOL0     O30540   5.217   1.886   5.184  0.0727 -0.0462 -0.3240
  227MOL0     C30541   5.222   1.765   5.114 -0.2846 -0.1799  0.1583
  227MOL0     C30542   5.230   1.642   5.178  0.9653 -1.0977  1.3873
  227MOL0     C30543   5.242   1.531   5.094 -0.0261  0.2029 -0.2733
  227MOL0     C30544   5.249   1.530   4.960  0.1495  1.0540 -0.6198
  227MOL0     O30545   5.284   1.420   4.885 -0.7281 -1.0786 -0.0060
  227MOL0     C30546   5.324   1.305   4.962 -0.2792 -0.4516  0.4964
  227MOL0     C30547   5.314   1.186   4.866 -0.1141  0.1010  0.5539
  227MOL0     C30548   5.443   1.160   4.775  0.4547  0.1507  1.1359
  227MOL0     C30549   5.437   1.032   4.682 -0.6302 -0.2708 -0.0391
  227MOL0     C30550   5.566   1.022   4.607 -0.5448  0.4415 -0.0545
  227MOL0     C30551   5.545   0.913   4.501  0.4187  0.5354 -0.3897
  227MOL0     C30552   5.664   0.899   4.410 -0.4444 -0.4476  0.0953
  227MOL0     C30553   5.800   0.871   4.475 -0.5029 -0.1946  0.3554
  227MOL0    Cl30554   5.906   0.823   4.338 -0.0251 -0.2271  0.1087
  227MOL0     C30555   5.223   1.659   4.899  0.9667  0.1418 -0.2483
  227MOL0     C30556   5.219   1.777   4.976 -0.1766  0.3232 -0.6979
  227MOL0     O30557   5.453   1.868   5.218  0.0477 -0.6781 -0.6226
  227MOL0     C30558   5.465   2.075   5.394  0.3945  1.0480  0.6019
  227MOL0     C30559   5.468   2.185   5.480 -0.1316  0.9130  0.2795
  227MOL0     N30560   5.191   2.904   5.682 -0.2637  0.4725 -0.6574
  227MOL0     N30561   5.128   2.918   5.800  0.4094  0.4802 -0.3019
  227MOL0     C30562   4.798   2.939   6.708  0.1641  0.1539  0.4417
  227MOL0     C30563   4.659   2.935   6.741 -0.2146  0.4322 -0.0240
  227MOL0     C30564   4.259   3.001   6.924 -0.6024 -0.3112 -0.2091
  227MOL0     C30565   4.198   2.950   6.807  0.6741  0.4113 -0.1850
  227MOL0     C30566   4.066   2.951   6.795 -0.1917 -0.1094  0.3855
  227MOL0     C30567   3.981   3.000   6.899  0.2950  0.2322 -0.1877
  227MOL0     O30568   3.847   3.000   6.878 -0.5544 -0.4021  0.3579
  227MOL0     C30569   3.763   3.013   6.990  0.5122 -0.9921 -0.2587
  227MOL0     C30570   3.711   3.157   7.013 -0.1984 -0.0300  0.1515
  227MOL0     C30571   3.657   3.175   7.158 -0.8077  0.6414  0.4603
  227MOL0     C30572   3.533   3.084   7.191  0.4731  1.1125  0.1960
  227MOL0     C30573   3.417   3.091   7.094 -0.4400 -0.3277  0.0394
  227MOL0     C30574   3.320   3.121   7.034  0.5572  0.2206  0.0811
  227MOL0     C30575   4.048   3.038   7.022 -0.1298  0.1154  0.4545
  227MOL0     C30576   4.181   3.046   7.029 -0.2178 -0.5435  0.9092
  227MOL0     C30577   4.250   3.107   7.144  0.0733  0.6402  0.4861
  227MOL0     H30578   4.677   2.906   7.072  0.0735 -1.7868  0.9897
  227MOL0     H30579   4.921   2.897   7.017  2.7736 -0.1861 -1.6640
  227MOL0     H30580   5.116   2.864   6.936  1.1708 -0.0709 -0.3150
  227MOL0     H30581   5.080   2.751   6.797 -0.0711  0.4229 -1.5024
  227MOL0     H30582   5.302   2.778   6.789  0.4369  0.1357 -0.1662
  227MOL0     H30583   5.318   2.945   6.834 -3.0968  1.4423  1.3734
  227MOL0     H30584   5.373   2.963   6.621 -1.1515  2.2228 -0.0149
  227MOL0     H30585   5.206   3.032   6.629  2.0690  0.6939  2.7632
  227MOL0     H30586   5.290   2.755   6.534  0.3064  0.0669  0.6993
  227MOL0     H30587   5.129   2.802   6.551  1.8327 -3.1992  1.7315
  227MOL0     H30588   5.189   3.002   6.383 -0.8880 -0.4501  2.3043
  227MOL0     H30589   5.342   2.929   6.369  0.1591  0.4522  0.2460
  227MOL0     H30590   5.225   2.722   6.281  0.4633  0.6149  2.7293
  227MOL0     H30591   5.067   2.810   6.289 -0.8382 -0.3781  1.5375
  227MOL0     H30592   5.321   2.881   6.133  0.4440 -0.0410  0.4744
  227MOL0     H30593   5.166   2.975   6.141  1.5416  0.4410  2.5529
  227MOL0     H30594   5.186   2.698   6.032  0.5544 -0.1382 -0.0063
  227MOL0     H30595   5.048   2.796   6.027 -0.5960 -0.5143 -0.0386
  227MOL0     H30596   5.398   2.765   5.880 -1.3289 -0.3459  0.0434
  227MOL0     H30597   5.364   2.854   5.507 -1.2690  0.9100  0.2839
  227MOL0     H30598   5.499   2.846   5.616  0.7481 -1.5540  1.4237
  227MOL0     H30599   5.309   2.613   5.547  0.7153 -1.3481  0.6391
  227MOL0     H30600   5.486   2.641   5.500  1.1133 -1.1270  0.7794
  227MOL0     H30601   5.398   2.572   5.782  1.7245  1.6911  1.2915
  227MOL0     H30602   5.551   2.603   5.715 -0.3682  0.4922  1.3738
  227MOL0     H30603   5.511   2.351   5.716  2.0090  1.2682  0.9373
  227MOL0     H30604   5.556   2.426   5.560 -0.2952  1.2876  0.1916
  227MOL0     H30605   5.166   2.312   5.422  0.9198  1.5126  3.8093
  227MOL0     H30606   5.150   2.100   5.278  1.3930 -1.1522 -3.0710
  227MOL0     H30607   5.224   1.631   5.286 -0.3230 -0.1334  1.4424
  227MOL0     H30608   5.244   1.439   5.152 -0.3412  0.5056  0.2341
  227MOL0     H30609   5.427   1.308   4.998 -0.1321 -0.8885  0.1231
  227MOL0     H30610   5.246   1.287   5.036 -1.1552 -1.5667 -0.6550
  227MOL0     H30611   5.298   1.096   4.926  1.1185 -0.2355  0.4198
  227MOL0     H30612   5.220   1.192   4.811 -0.6588 -3.3385  0.8919
  227MOL0     H30613   5.461   1.252   4.719 -0.4057 -0.1223  0.3942
  227MOL0     H30614   5.531   1.164   4.841  1.2090 -0.4192  0.1822
  227MOL0     H30615   5.362   1.050   4.605 -0.5767 -3.2142 -0.8947
  227MOL0     H30616   5.408   0.944   4.741  1.6197  0.3351  2.1777
  227MOL0     H30617   5.640   0.979   4.676  0.4459 -0.7949 -1.8092
  227MOL0     H30618   5.596   1.116   4.561  2.9415 -1.8702 -3.1271
  227MOL0     H30619   5.527   0.817   4.550  1.1966  0.7365  0.3075
  227MOL0     H30620   5.457   0.940   4.441  0.5038 -1.2615 -1.3798
  227MOL0     H30621   5.657   0.988   4.347 -2.4187 -2.7746 -3.2930
  227MOL0     H30622   5.637   0.824   4.335 -0.2483  1.6955 -2.2699
  227MOL0     H30623   5.846   0.955   4.527  0.0484  1.2673 -2.3317
  227MOL0     H30624   5.784   0.794   4.551 -4.5319 -1.5304 -1.5418
  227MOL0     H30625   5.213   1.663   4.791 -2.0810 -1.0758 -0.0975
  227MOL0     H30626   5.212   1.877   4.935 -0.5651  2.9897  4.9718
  227MOL0     H30627   5.548   2.007   5.380 -1.4021 -1.0372 -0.4172
  227MOL0     H30628   5.557   2.204   5.539  0.2530 -1.3476  0.4993
  227MOL0     H30629   4.837   2.944   6.607  2.2985  3.8631  1.2834
  227MOL0     H30630   4.594   2.924   6.655 -0.8125 -3.0174  0.7144
  227MOL0     H30631   4.259   2.935   6.719 -1.3257 -0.1810 -1.5287
  227MOL0     H30632   4.017   2.933   6.700 -1.4355  1.9157  0.5926
  227MOL0     H30633   3.814   2.978   7.080 -0.9795  0.0750  1.0555
  227MOL0     H30634   3.676   2.950   6.969  0.8434 -1.1635 -1.1431
  227MOL0     H30635   3.623   3.174   6.950 -0.7536  0.4728  1.0255
  227MOL0     H30636   3.787   3.234   7.001  0.0186  0.2092  2.4757
  227MOL0     H30637   3.618   3.277   7.168 -0.2792  0.9882 -0.8005
  227MOL0     H30638   3.741   3.167   7.227  1.1641  1.5284 -1.7059
  227MOL0     H30639   3.562   2.979   7.190 -1.6357  0.4449  1.7118
  227MOL0     H30640   3.497   3.100   7.293  1.7608  0.3342  0.7871
  227MOL0     H30641   3.231   3.143   6.979  0.3002 -2.7224 -0.8720
  227MOL0     H30642   3.994   3.076   7.108 -3.3777 -0.2874 -1.2501
  227MOL0     H30643   4.325   3.033   7.175 -2.4457 -2.7104 -0.8575
  227MOL0     H30644   4.303   3.200   7.121 -0.5988  0.6173 -1.2959
  227MOL0     H30645   4.185   3.128   7.229 -0.9413  0.4273 -0.2130
  228MOL0     O30646   4.922   8.159   8.269 -1.0391 -0.5238  0.9782
  228MOL0     C30647   4.908   8.191   8.153  0.6925  0.0522  0.2839
  228MOL0     O30648   4.877   8.101   8.045 -0.0993  0.0011  0.1561
  228MOL0     C30649   4.811   7.986   8.061  0.1392  0.0860 -1.4181
  228MOL0     C30650   4.709   7.962   7.972 -0.2737  0.6913 -0.3794
  228MOL0     C30651   4.629   7.846   7.978  0.1308  0.8625  0.3503
  228MOL0     C30652   4.647   7.752   8.083  0.6769  0.4470 -1.1295
  228MOL0     O30653   4.567   7.639   8.078 -0.5960  0.1376 -0.8131
  228MOL0     C30654   4.622   7.525   8.151  0.6885 -0.7293 -0.0341
  228MOL0     C30655   4.548   7.396   8.117  0.2885  0.4332  0.4973
  228MOL0     C30656   4.573   7.294   8.229 -0.7182 -0.0703 -0.4170
  228MOL0     C30657   4.570   7.156   8.161  0.6944  0.8134 -0.1846
  228MOL0     C30658   4.571   7.036   8.271 -0.7012 -0.3478 -1.3368
  228MOL0     C30659   4.601   6.904   8.212 -0.1369  0.0463  0.3762
  228MOL0     C30660   4.555   6.803   8.313  1.3104 -0.1587 -0.5356
  228MOL0     C30661   4.623   6.820   8.452 -0.3265 -0.2498 -0.4881
  228MOL0     N30662   4.606   6.707   8.547  0.4214 -0.6730 -1.2599
  228MOL0     C30663   4.664   6.589   8.533  1.2605 -0.4163  0.3409
  228MOL0     C30664   4.616   6.513   8.632 -1.1060 -0.8362  0.5073
  228MOL0     C30665   4.669   6.378   8.661 -0.8151  0.2639 -0.1445
  228MOL0     C30666   4.673   6.278   8.549  0.5910 -0.8884 -0.2485
  228MOL0     C30667   4.546   6.274   8.472  0.2892  0.2444 -0.4246
  228MOL0     C30668   4.421   6.239   8.561  0.7806 -0.2087 -0.8207
  228MOL0     O30669   4.448   6.119   8.630 -0.4063 -0.0330  0.0441
  228MOL0     C30670   4.357   6.066   8.718 -0.2761  0.7115 -0.4525
  228MOL0     C30671   4.385   5.944   8.783  0.5482 -1.4160 -0.1394
  228MOL0     C30672   4.292   5.894   8.882 -0.8525  0.2561  0.1417
  228MOL0     C30673   4.176   5.962   8.918  0.9777  0.6345  0.1753
  228MOL0     C30674   4.095   5.934   9.038  0.0152  0.3060  0.6912
  228MOL0     O30675   3.988   6.015   9.080 -0.1863  0.7804  0.8956
  228MOL0     C30676   3.907   5.973   9.190 -0.4601  0.4814  0.6207
  228MOL0     C30677   3.881   6.059   9.296  1.3759  0.0203  0.7455
  228MOL0     C30678   3.811   6.007   9.416 -0.4174 -0.6412 -0.2437
  228MOL0     C30679   3.785   5.873   9.431 -0.2483  0.4212 -0.3216
  228MOL0     O30680   3.724   5.808   9.535  0.2550  0.1459 -0.7637
  228MOL0     C30681   3.738   5.855   9.665 -0.4842  0.1785 -0.1931
  228MOL0     C30682   3.669   5.764   9.770 -0.3486  0.0021 -0.0833
  228MOL0     C30683   3.736   5.617   9.785 -0.3453 -0.4007  1.3365
  228MOL0     C30684   3.704   5.541   9.904  0.8549  0.4351  0.7649
  228MOL0     C30685   3.551   5.493   9.906  0.7040 -0.5433 -0.1742
  228MOL0     C30686   3.516   5.429  10.045 -0.2122 -0.0140  0.4247
  228MOL0     C30687   3.363   5.406  10.060 -0.4027  0.5116  0.4091
  228MOL0     C30688   3.334   5.343  10.191  0.9403  0.6636  0.5869
  228MOL0    Cl30689   3.166   5.298  10.196  0.0380 -0.2855 -0.2165
  228MOL0     C30690   3.804   5.794   9.322 -0.2234  0.3345 -0.3700
  228MOL0     C30691   3.868   5.833   9.200  0.8391  0.5377 -0.2473
  228MOL0     O30692   4.139   5.839   9.103  0.1797 -0.0858  0.4911
  228MOL0     C30693   4.138   6.076   8.839 -1.2683 -0.1300 -0.4054
  228MOL0     C30694   4.229   6.122   8.745 -0.2692 -0.7146  0.7891
  228MOL0     N30695   4.538   6.596   8.713 -0.4989  0.9303  0.4422
  228MOL0     N30696   4.527   6.709   8.664  0.5181 -0.2630 -0.6176
  228MOL0     C30697   4.754   7.780   8.174 -0.3125  0.0167 -0.4407
  228MOL0     C30698   4.831   7.896   8.161 -0.7083  1.1188 -0.8251
  228MOL0     C30699   4.943   8.327   8.118  0.1676  0.0885  0.0310
  228MOL0     C30700   5.066   8.376   8.155  0.5980  0.7145 -0.1162
  228MOL0     C30701   5.099   8.503   8.121 -0.7034 -0.2971 -0.2423
  228MOL0     C30702   5.016   8.588   8.043 -0.4486 -0.3714  0.6432
  228MOL0     O30703   5.035   8.719   8.011 -0.2154 -0.1468  0.7283
  228MOL0     C30704   5.156   8.789   8.047 -0.5371  0.1969 -0.3188
  228MOL0     C30705   5.136   8.948   8.048 -0.4461 -0.4070 -0.4024
  228MOL0     C30706   5.037   9.004   8.151  0.7732 -0.2000 -0.2465
  228MOL0     C30707   4.980   9.143   8.104 -0.1798  0.3530  0.3507
  228MOL0     C30708   5.082   9.247   8.122  0.1257 -1.6171 -0.4349
  228MOL0     C30709   5.164   9.334   8.135 -0.1401  0.1775  0.7716
  228MOL0     C30710   4.893   8.544   8.009 -0.1081  0.4410  0.6666
  228MOL0     C30711   4.860   8.413   8.040 -0.5151 -0.3675  0.3014
  228MOL0     C30712   4.715   8.363   8.009 -1.5075 -0.0648 -0.1750
  228MOL0     H30713   4.686   8.045   7.906  1.7650  0.8927 -0.8993
  228MOL0     H30714   4.554   7.819   7.905  1.2055  1.1826 -0.8980
  228MOL0     H30715   4.726   7.498   8.130  0.4173  0.1788 -2.9055
  228MOL0     H30716   4.598   7.542   8.257  0.0132  1.6657 -0.5061
  228MOL0     H30717   4.595   7.358   8.026  0.4122 -0.9053  1.0932
  228MOL0     H30718   4.441   7.418   8.116  0.7120  3.1088 -2.3703
  228MOL0     H30719   4.493   7.298   8.303 -1.6557 -1.4058 -1.3256
  228MOL0     H30720   4.670   7.313   8.276 -0.4872 -0.5171 -0.7164
  228MOL0     H30721   4.476   7.165   8.106 -0.9483  1.1080  2.5134
  228MOL0     H30722   4.655   7.142   8.093 -0.3839  0.0506 -1.4105
  228MOL0     H30723   4.650   7.072   8.338 -0.0295 -2.6291 -0.8071
  228MOL0     H30724   4.474   7.039   8.321  0.8417  1.7123  1.8660
  228MOL0     H30725   4.544   6.891   8.120  0.6764  0.4890 -0.2063
  228MOL0     H30726   4.707   6.902   8.185 -0.1307 -0.6193  0.4247
  228MOL0     H30727   4.578   6.704   8.273 -2.5890 -1.0934 -0.8769
  228MOL0     H30728   4.446   6.805   8.322  1.3118 -0.9030 -0.3235
  228MOL0     H30729   4.727   6.853   8.441 -0.4782  1.9210  3.0709
  228MOL0     H30730   4.570   6.900   8.505 -1.8123 -2.9533  2.4146
  228MOL0     H30731   4.730   6.567   8.449  1.1501  0.2058  0.0824
  228MOL0     H30732   4.771   6.391   8.697 -0.2347  0.7096 -1.8622
  228MOL0     H30733   4.620   6.330   8.746 -0.0114 -2.5254 -1.1586
  228MOL0     H30734   4.757   6.311   8.486 -0.2415 -1.3803 -1.6613
  228MOL0     H30735   4.694   6.181   8.593 -0.6582 -1.2565 -0.4294
  228MOL0     H30736   4.555   6.199   8.392 -0.4306  0.7049 -0.9480
  228MOL0     H30737   4.526   6.371   8.427  2.8836  0.8262 -0.4723
  228MOL0     H30738   4.328   6.244   8.503 -1.7808  0.1441  2.8993
  228MOL0     H30739   4.412   6.312   8.642  0.5896 -2.1087  0.9548
  228MOL0     H30740   4.474   5.883   8.775 -1.6077 -4.6590 -1.0271
  228MOL0     H30741   4.322   5.800   8.927  0.3433  1.0471  1.0691
  228MOL0     H30742   3.911   6.163   9.291 -1.1567  0.9585  2.6253
  228MOL0     H30743   3.793   6.072   9.501 -1.1697 -0.4566 -0.5395
  228MOL0     H30744   3.843   5.846   9.693 -1.2267 -2.7341  2.2150
  228MOL0     H30745   3.704   5.959   9.665 -1.0925  0.0254 -2.2066
  228MOL0     H30746   3.664   5.814   9.867 -0.2733  1.7589 -0.9510
  228MOL0     H30747   3.563   5.758   9.742 -0.5430  2.7411 -0.1629
  228MOL0     H30748   3.711   5.550   9.703 -1.6484  0.8493  0.6755
  228MOL0     H30749   3.843   5.633   9.802 -0.0509  0.3654 -0.9068
  228MOL0     H30750   3.717   5.597   9.997  0.3553  2.4271 -0.3229
  228MOL0     H30751   3.778   5.461   9.906  1.2182  0.6728 -1.3819
  228MOL0     H30752   3.530   5.412   9.834  2.9635 -0.3843 -1.0922
  228MOL0     H30753   3.487   5.580   9.889  3.2402  1.4113 -0.2137
  228MOL0     H30754   3.573   5.340  10.070  0.7554  0.2372 -0.7967
  228MOL0     H30755   3.544   5.498  10.125 -1.2777  1.3147 -0.3046
  228MOL0     H30756   3.336   5.332   9.984  1.4140 -0.5748  0.7508
  228MOL0     H30757   3.302   5.495  10.044 -1.4799  0.3283  3.0043
  228MOL0     H30758   3.396   5.253  10.197  2.3377  1.3179 -2.1823
  228MOL0     H30759   3.357   5.400  10.281  1.7845  0.6678  0.3754
  228MOL0     H30760   3.768   5.692   9.325 -0.1247  0.2786 -0.9407
  228MOL0     H30761   3.890   5.772   9.114 -0.2567  2.8755 -2.3153
  228MOL0     H30762   4.040   6.119   8.857 -0.8875 -0.1768  2.1343
  228MOL0     H30763   4.193   6.209   8.690  0.6619 -0.2198  0.9406
  228MOL0     H30764   4.768   7.698   8.244 -1.3892 -0.2340 -0.4986
  228MOL0     H30765   4.910   7.899   8.234 -1.6462  0.6062  0.2469
  228MOL0     H30766   5.140   8.326   8.217  1.0150  0.7969 -0.5395
  228MOL0     H30767   5.195   8.534   8.161 -1.1882 -0.3242  0.9823
  228MOL0     H30768   5.243   8.769   7.984 -0.9711  0.3537 -0.9775
  228MOL0     H30769   5.173   8.766   8.153 -1.2809  2.7739  0.4450
  228MOL0     H30770   5.125   8.983   7.945 -4.2839 -3.0029 -1.0892
  228MOL0     H30771   5.233   8.993   8.071 -0.5214  0.6601 -2.0063
  228MOL0     H30772   5.081   9.013   8.251 -1.9635  2.6484  0.9011
  228MOL0     H30773   4.949   8.941   8.170 -1.2425  2.0882 -1.4180
  228MOL0     H30774   4.969   9.119   7.997 -0.0584  0.1982  0.3735
  228MOL0     H30775   4.876   9.166   8.127 -1.1874 -0.6370 -2.6681
  228MOL0     H30776   5.237   9.411   8.123  0.1864  0.3865  3.3735
  228MOL0     H30777   4.831   8.613   7.953  1.1030  1.1926  0.2246
  228MOL0     H30778   4.683   8.289   8.082  3.5536 -3.0281 -0.5122
  228MOL0     H30779   4.654   8.452   8.025  1.5944  2.4884 -1.3215
  228MOL0     H30780   4.711   8.321   7.909 -1.0142  2.3619 -1.2785
  229MOL0     O30781   0.488   2.043   6.267 -0.2855  0.5704 -0.2778
  229MOL0     C30782   0.563   1.987   6.349 -0.5217  1.0348  0.4491
  229MOL0     O30783   0.548   1.989   6.478  0.1873 -0.0718 -0.4647
  229MOL0     C30784   0.463   2.081   6.541 -0.1784  0.5585 -0.8759
  229MOL0     C30785   0.333   2.034   6.582  0.1401 -0.8173 -0.1837
  229MOL0     C30786   0.250   2.097   6.673 -0.4939  0.3046 -0.1710
  229MOL0     C30787   0.297   2.214   6.734  0.1240 -0.9621  0.1431
  229MOL0     O30788   0.219   2.268   6.830 -0.5136  0.4211  0.6542
  229MOL0     C30789   0.192   2.413   6.836 -0.0715 -0.1712  0.9531
  229MOL0     C30790   0.099   2.467   6.728 -0.0804 -0.8470 -0.2729
  229MOL0     C30791  -0.043   2.406   6.729 -0.3217  0.6277 -0.1745
  229MOL0     C30792  -0.124   2.486   6.629 -0.3397  0.6910  0.4839
  229MOL0     C30793  -0.274   2.433   6.614  0.5035 -0.8065 -0.7917
  229MOL0     C30794  -0.355   2.488   6.500  0.7839  0.1386 -0.2653
  229MOL0     C30795  -0.504   2.434   6.499 -0.8635  0.8914 -0.0979
  229MOL0     C30796  -0.503   2.311   6.418 -0.0109 -0.6834  0.8940
  229MOL0     N30797  -0.611   2.220   6.451  0.4482 -0.0849 -0.7973
  229MOL0     C30798  -0.722   2.194   6.372  0.4503 -0.1917 -0.4756
  229MOL0     C30799  -0.801   2.118   6.449  0.0895  0.1895  0.3585
  229MOL0     C30800  -0.935   2.088   6.391  0.3598 -0.3293  0.6605
  229MOL0     C30801  -1.000   1.996   6.496  1.3656  0.2835  0.0864
  229MOL0     C30802  -1.101   2.059   6.590 -1.2344  0.0301  0.1173
  229MOL0     C30803  -1.160   1.966   6.704  0.1054  0.1401 -0.0858
  229MOL0     O30804  -1.229   2.024   6.812 -0.2154 -0.0356  0.3032
  229MOL0     C30805  -1.155   2.070   6.912 -0.5591  0.3778 -0.9108
  229MOL0     C30806  -1.139   1.985   7.026 -0.2550  0.1574 -0.2781
  229MOL0     C30807  -1.081   2.032   7.144 -0.1988 -0.8582  0.9181
  229MOL0     C30808  -1.033   2.164   7.152  0.3263 -0.3195 -0.3669
  229MOL0     C30809  -0.977   2.214   7.282  0.8420  0.2326  0.5914
  229MOL0     O30810  -0.920   2.339   7.268  0.2375  0.1278 -1.1780
  229MOL0     C30811  -0.838   2.390   7.366 -0.5505 -0.3436 -0.3804
  229MOL0     C30812  -0.710   2.441   7.336 -0.1884 -0.2683  0.1306
  229MOL0     C30813  -0.633   2.507   7.427  0.9650 -0.7646 -0.0461
  229MOL0     C30814  -0.680   2.515   7.556 -0.1985  0.2729 -0.2800
  229MOL0     O30815  -0.626   2.600   7.656  0.0115 -0.3433 -0.3708
  229MOL0     C30816  -0.486   2.643   7.640  1.3414 -1.2273  0.5303
  229MOL0     C30817  -0.440   2.728   7.766  0.1095 -0.5181 -1.0211
  229MOL0     C30818  -0.478   2.667   7.909  1.0647 -0.5412 -0.3899
  229MOL0     C30819  -0.427   2.765   8.017 -0.0425 -0.3697  0.0916
  229MOL0     C30820  -0.439   2.694   8.157  0.1690 -0.4653  0.0410
  229MOL0     C30821  -0.390   2.780   8.280 -0.2215  0.4886 -0.6688
  229MOL0     C30822  -0.244   2.812   8.278 -0.5135 -0.1874  0.3490
  229MOL0     C30823  -0.193   2.961   8.264 -0.4037  0.2061 -0.4246
  229MOL0    Cl30824  -0.026   2.985   8.340  0.3679  0.3811  0.0667
  229MOL0     C30825  -0.801   2.462   7.593 -0.3534 -0.6651 -0.4996
  229MOL0     C30826  -0.879   2.402   7.496  0.2765 -0.3134  0.1875
  229MOL0     O30827  -0.981   2.142   7.381  0.4106  0.0695 -0.0999
  229MOL0     C30828  -1.043   2.242   7.040 -0.2339 -1.1414  0.2209
  229MOL0     C30829  -1.110   2.199   6.926  1.0930 -0.2321  0.4103
  229MOL0     N30830  -0.734   2.083   6.563 -0.2525 -0.2566  0.2209
  229MOL0     N30831  -0.619   2.140   6.562  0.7806 -0.5292  1.1871
  229MOL0     C30832   0.429   2.262   6.710  0.7699 -0.6525  0.6652
  229MOL0     C30833   0.504   2.192   6.613  0.4695  0.0265  0.0712
  229MOL0     C30834   0.668   1.890   6.299  0.7832 -0.0459  0.4419
  229MOL0     C30835   0.736   1.810   6.397 -0.1490  0.1498 -0.1561
  229MOL0     C30836   0.831   1.718   6.360 -0.8489  1.0294 -0.2532
  229MOL0     C30837   0.874   1.705   6.232 -0.2187 -0.5205  0.2793
  229MOL0     O30838   0.977   1.625   6.222  0.5502  0.3901  0.0816
  229MOL0     C30839   1.078   1.649   6.129 -0.0664 -0.0866  0.5873
  229MOL0     C30840   1.159   1.771   6.174  1.0783 -0.7734  0.7644
  229MOL0     C30841   1.234   1.776   6.313  0.5295  0.3245 -0.1140
  229MOL0     C30842   1.355   1.681   6.319 -0.8351  0.4338  0.3624
  229MOL0     C30843   1.377   1.665   6.462 -0.0422 -0.5342  0.0331
  229MOL0     C30844   1.397   1.647   6.581  0.4021 -0.4946  0.1410
  229MOL0     C30845   0.827   1.794   6.139 -0.4058 -0.8011  0.8664
  229MOL0     C30846   0.718   1.880   6.167 -0.3875  1.2660  0.7659
  229MOL0     C30847   0.697   1.975   6.051  0.1049 -0.5523 -0.6919
  229MOL0     H30848   0.294   1.939   6.546 -0.7630 -0.5235 -0.0148
  229MOL0     H30849   0.151   2.061   6.698 -0.5399  0.6509  0.1607
  229MOL0     H30850   0.145   2.421   6.935  3.0382  0.8525  2.4562
  229MOL0     H30851   0.286   2.469   6.837  0.9484 -1.6726 -1.4842
  229MOL0     H30852   0.142   2.437   6.631  0.8679 -3.0334  0.7510
  229MOL0     H30853   0.097   2.575   6.745  1.9100 -0.8918  0.5496
  229MOL0     H30854  -0.090   2.415   6.828  0.2101  0.5756  0.0924
  229MOL0     H30855  -0.040   2.301   6.699 -1.6741  0.8547 -1.1698
  229MOL0     H30856  -0.118   2.595   6.641 -1.8212  0.7811  0.6161
  229MOL0     H30857  -0.075   2.461   6.534  1.4913 -1.0347  1.8038
  229MOL0     H30858  -0.275   2.327   6.587 -0.5494 -0.3285 -2.8340
  229MOL0     H30859  -0.326   2.455   6.708  1.1801  1.1075 -0.8095
  229MOL0     H30860  -0.367   2.597   6.501 -0.4544  0.0525  2.2864
  229MOL0     H30861  -0.313   2.453   6.405  2.8660 -1.7612  1.2634
  229MOL0     H30862  -0.557   2.522   6.462  0.9173  1.8585 -0.4667
  229MOL0     H30863  -0.520   2.422   6.606  0.6255 -2.6508 -0.1296
  229MOL0     H30864  -0.522   2.336   6.313 -2.5506  0.5881  1.5539
  229MOL0     H30865  -0.409   2.258   6.434  2.3764  2.0902 -2.6622
  229MOL0     H30866  -0.742   2.224   6.270 -2.3545  3.7080  0.9794
  229MOL0     H30867  -0.989   2.181   6.370  2.5996  0.3450 -3.0004
  229MOL0     H30868  -0.922   2.038   6.294  2.8202 -0.0450  0.7795
  229MOL0     H30869  -1.065   1.940   6.428  1.2467 -0.0242  0.4422
  229MOL0     H30870  -0.930   1.925   6.541 -1.1619 -3.0520 -0.7624
  229MOL0     H30871  -1.181   2.112   6.537 -1.6428 -0.7484 -0.0645
  229MOL0     H30872  -1.048   2.142   6.639 -0.0270  1.6125 -3.5626
  229MOL0     H30873  -1.084   1.906   6.756  0.2756  2.4149  2.5070
  229MOL0     H30874  -1.219   1.887   6.657 -3.4572  1.3547  1.9880
  229MOL0     H30875  -1.182   1.886   7.027 -2.3353  0.9388 -2.5325
  229MOL0     H30876  -1.081   1.957   7.223 -0.5693 -2.1310 -0.2607
  229MOL0     H30877  -0.675   2.426   7.234  0.1530 -4.1936  0.6568
  229MOL0     H30878  -0.546   2.554   7.381 -0.2158 -0.1630 -1.7445
  229MOL0     H30879  -0.438   2.545   7.639  1.8308 -1.0329 -2.3401
  229MOL0     H30880  -0.463   2.706   7.553  1.2624 -1.2578  0.4877
  229MOL0     H30881  -0.331   2.731   7.763  0.0754 -0.0525 -2.3353
  229MOL0     H30882  -0.485   2.824   7.739 -4.4805 -2.4897 -1.3480
  229MOL0     H30883  -0.585   2.648   7.923  1.7308 -2.6876  2.6646
  229MOL0     H30884  -0.430   2.569   7.913  3.4214  0.5395 -0.7488
  229MOL0     H30885  -0.495   2.850   8.019  1.6328  1.0909 -1.5257
  229MOL0     H30886  -0.327   2.805   7.997  0.2564  0.7773  3.3491
  229MOL0     H30887  -0.378   2.603   8.156  0.1739 -0.4761 -1.4435
  229MOL0     H30888  -0.536   2.647   8.174 -0.4981  0.0780 -1.9951
  229MOL0     H30889  -0.449   2.871   8.291  0.6237  0.9319  0.4710
  229MOL0     H30890  -0.397   2.724   8.374  0.7150  2.7446  0.8418
  229MOL0     H30891  -0.192   2.750   8.204 -1.8578 -0.5465 -0.3123
  229MOL0     H30892  -0.192   2.778   8.368 -0.7789 -0.9126  0.2362
  229MOL0     H30893  -0.188   2.992   8.160  1.2575  0.8151 -0.1877
  229MOL0     H30894  -0.256   3.041   8.305  0.1782  1.9019 -2.6343
  229MOL0     H30895  -0.819   2.462   7.700 -1.5995 -0.8220 -0.6888
  229MOL0     H30896  -0.978   2.361   7.512 -0.3989  1.7689  1.9087
  229MOL0     H30897  -1.021   2.348   7.037  1.0192 -1.3208  1.7379
  229MOL0     H30898  -1.123   2.278   6.852 -1.3900 -0.8240  0.1419
  229MOL0     H30899   0.457   2.354   6.761  0.1541 -0.8522  1.3850
  229MOL0     H30900   0.608   2.220   6.597  1.0333 -0.2132  2.8597
  229MOL0     H30901   0.696   1.806   6.498  0.0510  1.5742 -0.0017
  229MOL0     H30902   0.881   1.656   6.434  1.8772  0.4743 -2.4196
  229MOL0     H30903   1.040   1.659   6.027 -1.3894 -0.0241  1.0538
  229MOL0     H30904   1.144   1.562   6.136 -0.0792 -0.3127 -1.3736
  229MOL0     H30905   1.084   1.852   6.181  1.0551 -0.4679 -2.0146
  229MOL0     H30906   1.218   1.810   6.090  1.8663  0.1607  1.7249
  229MOL0     H30907   1.163   1.755   6.393  0.8395  0.6098  0.2421
  229MOL0     H30908   1.277   1.876   6.326 -0.3484  1.1373 -2.9421
  229MOL0     H30909   1.333   1.579   6.286  0.1620  0.5700 -0.7773
  229MOL0     H30910   1.450   1.719   6.280  0.6731 -4.1232 -1.0481
  229MOL0     H30911   1.404   1.624   6.685  0.8249  1.0174  0.4720
  229MOL0     H30912   0.873   1.781   6.042  2.7382  1.3882  1.8928
  229MOL0     H30913   0.775   1.967   5.974  0.2833  2.1484 -0.8905
  229MOL0     H30914   0.602   1.938   6.011 -1.1631  1.4993  0.3096
  229MOL0     H30915   0.679   2.069   6.103 -1.0962 -2.4144  2.5867
  230MOL0     O30916   5.148   8.380  11.123  0.0212  0.6033  0.2993
  230MOL0     C30917   5.036   8.374  11.075  0.8185 -0.2644  0.2855
  230MOL0     O30918   4.942   8.280  11.111 -0.5093  0.4458 -0.8056
  230MOL0     C30919   4.970   8.191  11.216  0.6321  0.3825  0.2426
  230MOL0     C30920   4.988   8.230  11.348 -0.1158  0.1274 -0.0726
  230MOL0     C30921   5.059   8.145  11.430 -0.4704 -0.3522  0.2654
  230MOL0     C30922   5.092   8.013  11.398  0.2372  1.5430 -0.2944
  230MOL0     O30923   5.166   7.928  11.487  0.7619  0.2677  0.1731
  230MOL0     C30924   5.107   7.902  11.615  0.0735  0.1838  0.1363
  230MOL0     C30925   5.020   7.775  11.616 -0.9312  0.0995 -0.0071
  230MOL0     C30926   5.099   7.647  11.602 -0.5620 -1.0875  0.5015
  230MOL0     C30927   5.009   7.525  11.579 -0.0270 -0.3977  0.7541
  230MOL0     C30928   5.077   7.384  11.570  0.3020  0.2881  0.8106
  230MOL0     C30929   4.966   7.276  11.552  0.6660  0.9700 -0.1729
  230MOL0     C30930   5.037   7.136  11.519  0.2903 -0.2883 -0.2570
  230MOL0     C30931   5.134   7.100  11.640 -0.1991  0.1418  0.4659
  230MOL0     N30932   5.054   7.092  11.760 -0.1344 -1.3169 -0.2048
  230MOL0     C30933   5.037   7.191  11.856  0.2187 -0.1658 -0.7826
  230MOL0     C30934   4.946   7.151  11.942  0.6176  0.4928  0.0444
  230MOL0     C30935   4.893   7.230  12.060  0.3539 -0.0404  1.0894
  230MOL0     C30936   4.842   7.368  12.011  0.0048  0.1645 -0.9386
  230MOL0     C30937   4.716   7.346  11.930 -0.3772 -1.4538  0.0953
  230MOL0     C30938   4.621   7.453  11.979 -0.0361  0.3588  0.3887
  230MOL0     O30939   4.484   7.417  11.943 -1.0580 -0.4875  0.5851
  230MOL0     C30940   4.408   7.504  11.859 -1.3223  0.2109 -0.1550
  230MOL0     C30941   4.348   7.468  11.747  0.0149  0.1522 -0.1351
  230MOL0     C30942   4.298   7.559  11.652  0.8122  0.0017 -0.8598
  230MOL0     C30943   4.292   7.694  11.685  0.6026 -0.7820 -0.0626
  230MOL0     C30944   4.228   7.783  11.585 -1.1483  0.1030  1.1808
  230MOL0     O30945   4.207   7.917  11.624  0.4697 -0.8823  0.1566
  230MOL0     C30946   4.130   8.003  11.543 -1.1069 -0.1566  0.3099
  230MOL0     C30947   4.152   8.134  11.581  0.7953  0.9284 -0.7524
  230MOL0     C30948   4.079   8.230  11.534  0.4145 -0.5964  1.0509
  230MOL0     C30949   3.982   8.207  11.442  1.5759 -0.6430  0.3686
  230MOL0     O30950   3.895   8.307  11.400 -0.3032 -0.0563  0.5791
  230MOL0     C30951   3.794   8.269  11.302 -0.7135 -1.0209 -0.5713
  230MOL0     C30952   3.699   8.385  11.274 -0.0734 -0.2512 -0.3682
  230MOL0     C30953   3.591   8.366  11.381  0.5918  0.0726  0.1659
  230MOL0     C30954   3.496   8.481  11.378 -0.3783 -0.8362  0.7303
  230MOL0     C30955   3.375   8.461  11.468 -0.4764  1.0049 -0.7385
  230MOL0     C30956   3.274   8.570  11.488  0.3634 -0.4731 -0.1416
  230MOL0     C30957   3.319   8.679  11.581  0.3893  0.8168  0.2465
  230MOL0     C30958   3.212   8.773  11.637 -0.4920  0.5391 -1.4605
  230MOL0    Cl30959   3.115   8.863  11.517  0.3776 -0.0838 -0.1147
  230MOL0     C30960   3.980   8.078  11.385  0.0758  0.8674  0.4886
  230MOL0     C30961   4.053   7.972  11.436 -0.3436 -0.0599 -0.5554
  230MOL0     O30962   4.197   7.731  11.475 -0.0429 -0.1088 -0.2481
  230MOL0     C30963   4.350   7.740  11.804 -0.9525 -0.3175 -0.3838
  230MOL0     C30964   4.403   7.638  11.897 -0.2283  0.3625 -0.0506
  230MOL0     N30965   4.910   7.026  11.900  0.1581  0.4579 -0.8170
  230MOL0     N30966   4.958   6.999  11.794 -0.7150  0.1139  0.0935
  230MOL0     C30967   5.056   7.968  11.275  0.4355  0.4894  0.5073
  230MOL0     C30968   5.001   8.057  11.187 -0.2488 -0.3695 -0.6213
  230MOL0     C30969   4.998   8.428  10.941 -0.2345  0.0726  0.0151
  230MOL0     C30970   4.923   8.350  10.852 -0.5986  0.0010 -1.0869
  230MOL0     C30971   4.858   8.398  10.747  0.2855 -0.6220  0.8161
  230MOL0     C30972   4.873   8.540  10.717 -0.1441 -0.1704 -0.1301
  230MOL0     O30973   4.811   8.616  10.615 -0.4344 -0.0324  0.1562
  230MOL0     C30974   4.741   8.557  10.502 -0.6965  0.7263  1.1797
  230MOL0     C30975   4.635   8.655  10.449  0.0343  0.2393 -0.7957
  230MOL0     C30976   4.562   8.610  10.317  0.2831 -0.3137  0.3850
  230MOL0     C30977   4.499   8.725  10.242 -1.0585  0.4832 -0.4150
  230MOL0     C30978   4.470   8.690  10.109 -0.3589 -0.1884  0.2431
  230MOL0     C30979   4.481   8.647   9.997  0.0421  0.5524 -0.1571
  230MOL0     C30980   4.947   8.618  10.807 -0.7214 -0.4890  1.7478
  230MOL0     C30981   5.013   8.564  10.923 -0.5451 -1.5150  0.4369
  230MOL0     C30982   5.073   8.646  11.025  0.4736  0.8036  0.0065
  230MOL0     H30983   4.974   8.335  11.375  1.8620  0.1596  0.9635
  230MOL0     H30984   5.102   8.170  11.526  0.8480  0.2956 -0.4674
  230MOL0     H30985   5.192   7.887  11.682 -0.9715  0.3869  1.5474
  230MOL0     H30986   5.047   7.978  11.665  1.4348  1.4417 -0.0756
  230MOL0     H30987   4.945   7.792  11.538 -0.2880 -0.0703 -0.6749
  230MOL0     H30988   4.973   7.770  11.714  1.5451 -3.6227  1.2329
  230MOL0     H30989   5.155   7.635  11.695 -1.0764 -3.7120  0.5530
  230MOL0     H30990   5.165   7.652  11.514 -0.8668 -1.2125  0.2642
  230MOL0     H30991   4.937   7.521  11.662 -1.6345  0.0911 -0.5603
  230MOL0     H30992   4.951   7.547  11.489  1.9773 -4.1794 -1.6930
  230MOL0     H30993   5.145   7.377  11.484 -0.3202 -0.5644  0.3631
  230MOL0     H30994   5.130   7.371  11.664  1.3979  1.2232  0.3425
  230MOL0     H30995   4.914   7.287  11.648  2.3629  0.7427  0.8178
  230MOL0     H30996   4.905   7.303  11.466  0.1846 -1.4309 -0.6435
  230MOL0     H30997   5.084   7.129  11.421  0.6960 -1.9132  0.0245
  230MOL0     H30998   4.967   7.052  11.522  0.7843 -0.6867  1.1743
  230MOL0     H30999   5.183   7.004  11.621  0.2110  0.0528  1.8827
  230MOL0     H31000   5.215   7.172  11.653  0.6173 -0.7761  0.5515
  230MOL0     H31001   5.069   7.294  11.868 -2.1988  0.4590  1.3445
  230MOL0     H31002   4.829   7.180  12.132  0.3931  0.6285  1.6026
  230MOL0     H31003   4.979   7.242  12.127  1.1747 -0.3517  0.1162
  230MOL0     H31004   4.827   7.421  12.106  1.8631  1.5166 -1.3367
  230MOL0     H31005   4.919   7.433  11.967  0.1954  0.4347 -0.2194
  230MOL0     H31006   4.687   7.240  11.937 -0.3104 -1.5422 -0.7634
  230MOL0     H31007   4.742   7.364  11.825  1.2313 -2.2519  0.3163
  230MOL0     H31008   4.654   7.553  11.950 -2.1622  0.8389 -0.5741
  230MOL0     H31009   4.617   7.464  12.088 -0.6858  2.5140  0.2039
  230MOL0     H31010   4.352   7.369  11.702  0.1832  0.9832 -2.0599
  230MOL0     H31011   4.254   7.516  11.563 -1.3172  5.1577 -2.6522
  230MOL0     H31012   4.235   8.156  11.646  1.6778  0.6132 -1.7478
  230MOL0     H31013   4.115   8.328  11.563  2.6371 -2.0623  3.7340
  230MOL0     H31014   3.842   8.240  11.207  1.0752  2.1188 -0.7580
  230MOL0     H31015   3.740   8.179  11.331  1.7127 -1.5072  2.9750
  230MOL0     H31016   3.747   8.482  11.266  0.5267 -0.6281 -1.5052
  230MOL0     H31017   3.649   8.367  11.178  1.9412  0.2468 -1.5743
  230MOL0     H31018   3.527   8.278  11.373 -1.2532  0.9090  3.8136
  230MOL0     H31019   3.646   8.359  11.475  0.4315 -0.9797  0.1911
  230MOL0     H31020   3.467   8.515  11.278 -0.0243 -2.0206  0.2088
  230MOL0     H31021   3.556   8.559  11.426 -0.2555  0.1716 -0.9862
  230MOL0     H31022   3.418   8.451  11.568  1.2636  2.2094 -1.3156
  230MOL0     H31023   3.314   8.377  11.434  0.3395  0.7075 -1.5380
  230MOL0     H31024   3.247   8.615  11.392 -1.8133 -0.1096  0.6015
  230MOL0     H31025   3.181   8.526  11.525 -0.4037  2.1665  1.3743
  230MOL0     H31026   3.378   8.737  11.510  1.0080  1.0705  0.9536
  230MOL0     H31027   3.379   8.630  11.659  2.0798 -2.0660 -2.6114
  230MOL0     H31028   3.148   8.699  11.689  2.5122 -0.8995  0.4727
  230MOL0     H31029   3.244   8.837  11.719 -1.5165  2.1778 -2.2953
  230MOL0     H31030   3.923   8.057  11.295 -2.1652  1.1704  1.7638
  230MOL0     H31031   4.034   7.872  11.398 -3.2553 -0.4017  1.4606
  230MOL0     H31032   4.328   7.845  11.822 -2.0161 -0.6518  0.3368
  230MOL0     H31033   4.452   7.667  11.990  1.4446 -0.0241 -0.7699
  230MOL0     H31034   5.069   7.862  11.253 -3.2697  0.5083 -3.0206
  230MOL0     H31035   4.981   8.025  11.085 -1.9282  0.6308 -0.6512
  230MOL0     H31036   4.906   8.245  10.876 -0.6094  0.3653  0.6193
  230MOL0     H31037   4.811   8.322  10.687  0.6890  1.6864 -2.7312
  230MOL0     H31038   4.691   8.463  10.525  2.5144 -0.5620  3.8389
  230MOL0     H31039   4.812   8.535  10.422 -3.6300 -0.4110 -1.2476
  230MOL0     H31040   4.694   8.742  10.420  1.1335 -1.3774 -3.8352
  230MOL0     H31041   4.568   8.670  10.535  1.2566 -1.0607  0.4418
  230MOL0     H31042   4.483   8.543  10.352  0.1942  0.4036  1.5994
  230MOL0     H31043   4.619   8.553  10.243 -0.8811 -1.7734  0.5644
  230MOL0     H31044   4.416   8.761  10.303  1.3216  2.4358  1.9042
  230MOL0     H31045   4.579   8.800  10.239  2.0022 -2.5173  0.0696
  230MOL0     H31046   4.487   8.634   9.890  0.8911 -0.7969  0.0359
  230MOL0     H31047   4.950   8.726  10.799  1.0737 -0.6371 -0.3740
  230MOL0     H31048   5.032   8.613  11.121  0.2591 -0.4458 -0.4891
  230MOL0     H31049   5.179   8.623  11.036  0.5374  0.8907 -0.3840
  230MOL0     H31050   5.061   8.754  11.014 -0.3911  0.6444 -0.7441
  231MOL0     O31051   8.678   6.439  11.258  0.8091  0.0318  0.2814
  231MOL0     C31052   8.651   6.538  11.327  0.4917  0.5280 -0.2976
  231MOL0     O31053   8.714   6.574  11.440  0.1973  0.4618  0.0110
  231MOL0     C31054   8.830   6.505  11.477 -0.1634  1.0057 -0.2956
  231MOL0     C31055   8.901   6.404  11.407 -0.2963  0.4805 -0.0846
  231MOL0     C31056   8.986   6.308  11.476  0.5466 -0.8705  0.7264
  231MOL0     C31057   9.006   6.317  11.612  0.2332  0.2458 -0.0940
  231MOL0     O31058   9.087   6.226  11.678  0.3815 -0.4628  0.3263
  231MOL0     C31059   9.025   6.092  11.669 -0.6184  0.3599  1.2468
  231MOL0     C31060   9.120   5.982  11.714 -0.4166 -0.0230 -0.2084
  231MOL0     C31061   9.244   5.980  11.639  0.6398 -0.1944  0.2002
  231MOL0     C31062   9.287   5.839  11.614  1.0449  0.1453 -0.3406
  231MOL0     C31063   9.422   5.839  11.547 -1.0959 -0.5136  0.7751
  231MOL0     C31064   9.500   5.705  11.566  0.7224  0.2536  0.2717
  231MOL0     C31065   9.630   5.696  11.498 -0.1528 -0.2210  0.6878
  231MOL0     C31066   9.683   5.553  11.490 -0.7521 -0.8397 -0.1822
  231MOL0     N31067   9.660   5.492  11.365  0.6428  0.2189 -0.0611
  231MOL0     C31068   9.748   5.429  11.284 -0.0561  0.4126  0.0656
  231MOL0     C31069   9.678   5.379  11.181 -0.0624  0.2002 -0.0445
  231MOL0     C31070   9.734   5.299  11.065  0.5243  0.5078  0.5463
  231MOL0     C31071   9.753   5.371  10.930  0.3344  0.1232  1.6462
  231MOL0     C31072   9.627   5.424  10.856  0.0560  0.1261 -0.5771
  231MOL0     C31073   9.653   5.465  10.711  0.4999 -0.5685  0.0025
  231MOL0     O31074   9.681   5.347  10.639 -0.0022  0.3288 -0.2808
  231MOL0     C31075   9.814   5.322  10.600 -0.7391  0.8838  0.8661
  231MOL0     C31076   9.825   5.188  10.540 -0.1466  0.8952  0.9304
  231MOL0     C31077   9.952   5.148  10.501  0.0796 -0.1295  0.4223
  231MOL0     C31078  10.063   5.235  10.507  0.2137 -0.1284 -0.4746
  231MOL0     C31079  10.199   5.176  10.470 -0.7211 -1.0672 -0.6075
  231MOL0     O31080  10.302   5.264  10.463  0.1000 -1.6844  0.0871
  231MOL0     C31081  10.425   5.217  10.420 -1.0158  0.4557  0.5672
  231MOL0     C31082  10.502   5.144  10.523  0.0462 -1.1038 -0.0230
  231MOL0     C31083  10.631   5.095  10.481  0.2840 -0.0804  0.9142
  231MOL0     C31084  10.675   5.085  10.346  0.4620  0.0606  0.5077
  231MOL0     O31085  10.787   5.003  10.318  0.4022 -0.5087 -0.1244
  231MOL0     C31086  10.850   5.014  10.189  1.1561  0.1159  1.3916
  231MOL0     C31087  10.785   4.926  10.078 -0.3830 -0.1037 -0.6438
  231MOL0     C31088  10.818   4.968   9.940 -0.3315  0.0908 -0.0841
  231MOL0     C31089  10.787   4.864   9.832  0.3628  0.2651 -0.1152
  231MOL0     C31090  10.856   4.730   9.852  0.5913  0.0085 -0.2984
  231MOL0     C31091  10.791   4.616   9.774  0.3962  0.0873  0.2092
  231MOL0     C31092  10.769   4.656   9.618 -0.9485 -1.1712 -0.1804
  231MOL0     C31093  10.726   4.547   9.539  0.2893  0.1308  0.3599
  231MOL0    Cl31094  10.681   4.620   9.385 -0.2753  0.1502 -0.4708
  231MOL0     C31095  10.595   5.151  10.253  0.6314  0.3908  0.0917
  231MOL0     C31096  10.478   5.212  10.284  0.3305 -1.1453  0.1618
  231MOL0     O31097  10.207   5.055  10.443  0.2993 -0.4068 -0.3380
  231MOL0     C31098  10.049   5.364  10.552 -0.2996  1.0035  0.1779
  231MOL0     C31099   9.924   5.400  10.599 -0.2599 -0.1248 -0.3375
  231MOL0     N31100   9.550   5.409  11.210  1.2861 -0.3292  0.3943
  231MOL0     N31101   9.537   5.478  11.317 -0.5967  0.4425  0.5667
  231MOL0     C31102   8.944   6.422  11.683  0.2113 -0.2487  0.0794
  231MOL0     C31103   8.863   6.516  11.614  0.3976 -0.4414  0.3186
  231MOL0     C31104   8.529   6.615  11.290 -0.6665  0.4150 -0.0778
  231MOL0     C31105   8.420   6.556  11.236 -0.3393  0.5187 -0.1403
  231MOL0     C31106   8.307   6.632  11.205  0.6410  0.9263  0.0832
  231MOL0     C31107   8.305   6.767  11.213 -0.4404  0.7685 -0.1884
  231MOL0     O31108   8.193   6.850  11.181 -0.0537 -0.4414 -0.2322
  231MOL0     C31109   8.222   6.970  11.108  0.0003  0.0575  0.4581
  231MOL0     C31110   8.312   6.942  10.976  0.5659  0.0073 -0.2937
  231MOL0     C31111   8.232   6.854  10.875 -0.5038  0.4177  0.6065
  231MOL0     C31112   8.325   6.845  10.755  0.7427  0.4195 -0.5047
  231MOL0     C31113   8.282   6.740  10.653 -0.5180  0.3822 -0.2821
  231MOL0     C31114   8.239   6.668  10.566 -0.3031  1.0708  0.3168
  231MOL0     C31115   8.416   6.827  11.259 -0.5931 -0.4060 -0.7307
  231MOL0     C31116   8.536   6.760  11.297 -0.0330  0.4299 -0.1264
  231MOL0     C31117   8.649   6.841  11.352  0.9680  0.9070  0.2753
  231MOL0     H31118   8.892   6.397  11.299  0.2227  3.1656 -0.3553
  231MOL0     H31119   9.037   6.233  11.417  0.4554 -1.4064  1.3233
  231MOL0     H31120   8.931   6.074  11.722 -1.6723  0.4009 -0.5476
  231MOL0     H31121   8.991   6.071  11.567 -1.8017  1.9465  1.2684
  231MOL0     H31122   9.063   5.890  11.697 -3.0356  0.9742  2.2590
  231MOL0     H31123   9.136   6.004  11.820 -1.0262  1.3994 -0.3795
  231MOL0     H31124   9.323   6.037  11.688  0.2411  0.4181  0.1391
  231MOL0     H31125   9.213   6.027  11.545 -0.3495 -4.0471 -1.6034
  231MOL0     H31126   9.298   5.791  11.712  0.4090  1.2571  0.3067
  231MOL0     H31127   9.215   5.788  11.549 -1.7883  0.1835  2.5257
  231MOL0     H31128   9.418   5.864  11.441 -1.0367  0.9993  1.0988
  231MOL0     H31129   9.493   5.911  11.590 -0.6550 -1.4585  1.6972
  231MOL0     H31130   9.507   5.674  11.670  1.2943  0.0746  0.1807
  231MOL0     H31131   9.428   5.638  11.517 -3.2808  2.1234  3.0548
  231MOL0     H31132   9.708   5.759  11.542  0.0126  0.2895 -0.3187
  231MOL0     H31133   9.630   5.729  11.394  1.5599  1.9480  1.2983
  231MOL0     H31134   9.792   5.549  11.500 -0.5787  1.7109 -0.3793
  231MOL0     H31135   9.642   5.493  11.572 -2.5192 -1.7898 -1.6801
  231MOL0     H31136   9.856   5.439  11.286 -0.0664  0.9402 -1.2051
  231MOL0     H31137   9.833   5.265  11.097  0.6922 -0.0515 -0.5064
  231MOL0     H31138   9.667   5.215  11.044  0.5083  0.4503  0.8369
  231MOL0     H31139   9.828   5.450  10.932 -1.3969  1.9206  0.3440
  231MOL0     H31140   9.793   5.287  10.874 -1.8272  0.7292 -1.0348
  231MOL0     H31141   9.573   5.501  10.911  0.5694 -0.6429  1.0733
  231MOL0     H31142   9.562   5.336  10.850  0.5594 -0.5147  1.9178
  231MOL0     H31143   9.734   5.538  10.711  1.3294 -1.4476 -1.6897
  231MOL0     H31144   9.573   5.524  10.665  0.5748 -0.1709  0.3784
  231MOL0     H31145   9.734   5.129  10.530 -1.8304  3.2385  1.5988
  231MOL0     H31146   9.937   5.043  10.477  1.0213  0.0959 -1.2619
  231MOL0     H31147  10.449   5.137  10.618 -4.5887 -0.1838 -2.2666
  231MOL0     H31148  10.691   5.053  10.560  0.7333  1.1816  1.2635
  231MOL0     H31149  10.839   5.116  10.152 -1.4333  0.1237  1.9619
  231MOL0     H31150  10.954   4.980  10.189  1.2917  0.5110  2.4931
  231MOL0     H31151  10.801   4.823  10.110 -1.0552 -1.4818 -4.2944
  231MOL0     H31152  10.676   4.932  10.081 -0.3931 -0.5923  0.0033
  231MOL0     H31153  10.771   5.061   9.906  0.0439  0.0266 -0.8105
  231MOL0     H31154  10.923   4.999   9.929 -0.5542  0.9151  0.0217
  231MOL0     H31155  10.806   4.914   9.737  3.2310  3.5341  1.9373
  231MOL0     H31156  10.678   4.857   9.833  0.3498  0.1900 -1.1155
  231MOL0     H31157  10.857   4.702   9.958  2.8594  0.4736 -0.1615
  231MOL0     H31158  10.961   4.727   9.823 -0.4353 -1.1048 -4.5592
  231MOL0     H31159  10.856   4.528   9.774  3.0628  1.8110 -3.5080
  231MOL0     H31160  10.700   4.571   9.815  0.8848  0.9258  2.3563
  231MOL0     H31161  10.857   4.718   9.596 -1.4072 -0.4448 -0.0151
  231MOL0     H31162  10.681   4.721   9.618 -0.4961 -0.5255 -1.0810
  231MOL0     H31163  10.815   4.485   9.522  0.5244  1.1885 -2.8143
  231MOL0     H31164  10.640   4.500   9.588  0.6767  0.9600  1.8722
  231MOL0     H31165  10.617   5.149  10.147 -2.5293  1.3756 -0.7118
  231MOL0     H31166  10.413   5.261  10.212  1.8385  1.4408  0.4300
  231MOL0     H31167  10.142   5.417  10.571 -1.6649  2.8266  2.2046
  231MOL0     H31168   9.925   5.494  10.652 -0.3495 -0.6684  0.6564
  231MOL0     H31169   8.974   6.445  11.785 -1.8555  2.8964  0.1447
  231MOL0     H31170   8.812   6.592  11.673  2.6161 -0.1004  1.8941
  231MOL0     H31171   8.425   6.448  11.235 -1.2417  0.4461  0.9730
  231MOL0     H31172   8.207   6.596  11.184  0.6344  1.4266 -0.7890
  231MOL0     H31173   8.281   7.033  11.175  3.2993 -1.3373 -0.8898
  231MOL0     H31174   8.123   7.012  11.092 -0.9659 -2.4083 -0.6128
  231MOL0     H31175   8.403   6.891  11.009  0.9777  1.8362  1.6445
  231MOL0     H31176   8.333   7.037  10.925 -0.7421 -0.1322 -1.1551
  231MOL0     H31177   8.143   6.913  10.852 -0.5234  1.0850  2.2315
  231MOL0     H31178   8.200   6.758  10.918 -2.2496  0.3501 -0.7236
  231MOL0     H31179   8.327   6.946  10.714  0.9925  0.1348 -1.2207
  231MOL0     H31180   8.421   6.806  10.791 -1.0676 -1.9276  2.2404
  231MOL0     H31181   8.197   6.598  10.497  1.3846  0.2031  0.1183
  231MOL0     H31182   8.414   6.935  11.269  1.1602 -0.4879  1.2637
  231MOL0     H31183   8.642   6.945  11.318 -0.7385  0.4639 -0.8696
  231MOL0     H31184   8.635   6.839  11.460 -0.8318 -0.0638  0.0568
  231MOL0     H31185   8.746   6.797  11.329  1.1480  1.4343  0.0023
  232MOL0     O31186  10.360   0.659   0.907  0.1563 -0.0242 -0.9251
  232MOL0     C31187  10.452   0.694   0.835 -0.5154  0.4017 -0.1777
  232MOL0     O31188  10.576   0.656   0.855 -0.6156  0.5422  0.0492
  232MOL0     C31189  10.633   0.589   0.969  1.6022 -1.0426  0.3422
  232MOL0     C31190  10.773   0.590   0.978 -0.2511  0.0127 -0.0356
  232MOL0     C31191  10.842   0.522   1.083  0.6203 -0.7993  0.4566
  232MOL0     C31192  10.775   0.446   1.170  0.8127  0.2226 -0.6481
  232MOL0     O31193  10.829   0.363   1.269 -0.1563 -0.0009 -0.5147
  232MOL0     C31194  10.973   0.367   1.301 -0.0433  0.1656  0.3046
  232MOL0     C31195  10.984   0.291   1.434  0.8380  0.3966  0.2974
  232MOL0     C31196  11.123   0.298   1.486 -0.0611  0.1393  0.0130
  232MOL0     C31197  11.157   0.201   1.608 -0.8920 -0.3337 -0.3948
  232MOL0     C31198  11.287   0.214   1.691 -0.4755 -0.4100  0.1335
  232MOL0     C31199  11.412   0.271   1.611  0.2217  0.3489  0.4903
  232MOL0     C31200  11.490   0.393   1.687 -0.0654  0.5480 -0.0958
  232MOL0     C31201  11.415   0.528   1.674  0.9775  1.4295  0.4660
  232MOL0     N31202  11.401   0.567   1.533  0.3920 -0.0230 -0.4974
  232MOL0     C31203  11.499   0.578   1.437  0.3367 -0.3277  0.4050
  232MOL0     C31204  11.437   0.616   1.324 -0.0774 -0.3694 -0.1899
  232MOL0     C31205  11.507   0.645   1.196  0.1962 -0.2137 -0.3454
  232MOL0     C31206  11.564   0.782   1.202 -0.5689 -0.3582  0.0692
  232MOL0     C31207  11.455   0.887   1.156  1.2729  0.6134  0.2929
  232MOL0     C31208  11.513   1.031   1.159 -0.3736 -1.0531 -0.4707
  232MOL0     O31209  11.603   1.050   1.266 -0.1394 -0.2202 -0.1281
  232MOL0     C31210  11.624   1.184   1.318 -0.6555 -0.0724  0.1424
  232MOL0     C31211  11.595   1.296   1.239 -0.3655  0.3491 -0.1704
  232MOL0     C31212  11.603   1.423   1.296  0.2535  0.4671 -0.0620
  232MOL0     C31213  11.638   1.441   1.438  0.0987  0.2307  0.3402
  232MOL0     C31214  11.644   1.575   1.499  0.1250  0.7819  1.1128
  232MOL0     O31215  11.667   1.675   1.416 -0.2239 -0.1125  0.6874
  232MOL0     C31216  11.651   1.799   1.454  1.4305  0.2073 -0.0369
  232MOL0     C31217  11.545   1.855   1.526  0.2957 -0.5295  0.2255
  232MOL0     C31218  11.543   1.994   1.553  0.8272 -0.2815  0.0529
  232MOL0     C31219  11.652   2.075   1.530  0.1143 -0.1124 -0.9329
  232MOL0     O31220  11.645   2.205   1.566 -0.0695 -0.1370 -0.4696
  232MOL0     C31221  11.541   2.296   1.520  0.3151  0.0215 -0.1313
  232MOL0     C31222  11.442   2.262   1.408 -0.3325 -0.4225  0.7775
  232MOL0     C31223  11.374   2.398   1.362  0.0615 -0.6868 -0.0282
  232MOL0     C31224  11.268   2.377   1.251 -0.7970  0.0059 -0.6405
  232MOL0     C31225  11.319   2.343   1.100  0.3917  0.6839 -1.2195
  232MOL0     C31226  11.420   2.440   1.050 -0.8867 -0.4216 -0.5859
  232MOL0     C31227  11.364   2.577   1.039 -0.1417  0.4613  0.4543
  232MOL0     C31228  11.461   2.681   0.992  0.4327 -0.2840 -0.4949
  232MOL0    Cl31229  11.480   2.658   0.813  0.0790  0.6574 -0.0862
  232MOL0     C31230  11.762   2.023   1.457 -0.3882  0.2076 -0.5534
  232MOL0     C31231  11.755   1.889   1.431 -0.7101 -0.0774  0.1117
  232MOL0     O31232  11.633   1.586   1.621  0.0068  0.1945  0.1372
  232MOL0     C31233  11.676   1.325   1.508 -0.4487 -1.0765 -0.3194
  232MOL0     C31234  11.677   1.198   1.450  0.7847 -0.2678 -0.3934
  232MOL0     N31235  11.308   0.630   1.351  0.0779 -0.3998  0.1649
  232MOL0     N31236  11.286   0.604   1.469  0.2353 -0.2399 -0.8277
  232MOL0     C31237  10.636   0.417   1.145 -0.9623 -0.4506  0.9254
  232MOL0     C31238  10.565   0.501   1.052 -0.6165 -1.3396  0.3853
  232MOL0     C31239  10.420   0.764   0.707  0.0099  0.9299 -0.0096
  232MOL0     C31240  10.489   0.729   0.593 -0.7147 -0.2393 -0.5756
  232MOL0     C31241  10.466   0.794   0.477  0.1753 -0.6994 -0.1733
  232MOL0     C31242  10.374   0.896   0.471 -0.1383 -0.8112  0.3555
  232MOL0     O31243  10.349   0.971   0.361 -0.2959 -0.0706  0.4260
  232MOL0     C31244  10.433   0.938   0.248  0.0379  0.4605  0.4308
  232MOL0     C31245  10.406   1.030   0.127  0.7921  0.0114  0.4812
  232MOL0     C31246  10.522   1.041   0.029  0.4135  0.0439 -0.3408
  232MOL0     C31247  10.495   1.110  -0.103  0.0868 -0.0400  0.4670
  232MOL0     C31248  10.613   1.090  -0.186 -0.8757  0.8132  0.2232
  232MOL0     C31249  10.732   1.093  -0.214  0.6002  1.0667  0.0874
  232MOL0     C31250  10.298   0.936   0.584 -0.1608 -0.2094  0.8940
  232MOL0     C31251  10.324   0.868   0.710  0.3955 -1.0597  1.0924
  232MOL0     C31252  10.249   0.922   0.826  0.0555 -0.0724  0.7156
  232MOL0     H31253  10.834   0.650   0.910  0.0194  0.4232  0.5551
  232MOL0     H31254  10.945   0.555   1.090  0.1417  0.5286  1.4385
  232MOL0     H31255  11.044   0.330   1.227  0.8595  2.9193 -0.3336
  232MOL0     H31256  10.994   0.473   1.317 -0.0563  0.3337 -0.7339
  232MOL0     H31257  10.937   0.194   1.421 -2.9019  1.8317  1.5980
  232MOL0     H31258  10.921   0.326   1.517  0.0812 -2.6979  1.1611
  232MOL0     H31259  11.126   0.401   1.522 -1.5945  0.6399 -1.1752
  232MOL0     H31260  11.199   0.280   1.409 -0.0983  0.0566 -0.0035
  232MOL0     H31261  11.077   0.205   1.684  2.6286 -2.0080  3.8320
  232MOL0     H31262  11.157   0.097   1.574  0.4221  1.0824 -5.5083
  232MOL0     H31263  11.272   0.268   1.785 -1.3078 -1.4735  0.6411
  232MOL0     H31264  11.318   0.114   1.723  0.1221 -1.1851 -2.6229
  232MOL0     H31265  11.488   0.192   1.621 -0.5963 -0.2277  2.9959
  232MOL0     H31266  11.394   0.290   1.505  1.7145 -1.0486 -0.0463
  232MOL0     H31267  11.595   0.400   1.657 -0.2042  0.5066 -0.5913
  232MOL0     H31268  11.461   0.361   1.788 -5.4234  1.6867 -0.9520
  232MOL0     H31269  11.319   0.539   1.724  0.2101  4.0773 -1.3642
  232MOL0     H31270  11.489   0.587   1.729  3.6184 -0.7105 -0.5608
  232MOL0     H31271  11.603   0.551   1.446  0.5843  0.7134  0.7915
  232MOL0     H31272  11.589   0.575   1.180 -1.4653 -3.3248  3.1344
  232MOL0     H31273  11.428   0.635   1.121 -0.5778  0.8977  0.2698
  232MOL0     H31274  11.597   0.794   1.306 -3.1650 -2.6016  1.2952
  232MOL0     H31275  11.644   0.810   1.133 -3.5201  0.0494 -3.4610
  232MOL0     H31276  11.372   0.879   1.227 -0.1312  2.0929 -1.0881
  232MOL0     H31277  11.410   0.876   1.057 -1.1892  1.0772  1.2772
  232MOL0     H31278  11.429   1.101   1.168  1.1733  0.7416  0.7717
  232MOL0     H31279  11.563   1.064   1.068  0.8861  0.9258  0.8430
  232MOL0     H31280  11.573   1.284   1.133  1.5720 -2.6612 -0.3575
  232MOL0     H31281  11.569   1.511   1.243 -5.3335 -0.1694  1.8018
  232MOL0     H31282  11.465   1.800   1.575 -1.9538  4.4958  2.8790
  232MOL0     H31283  11.454   2.031   1.605  1.1918 -1.6927  1.7683
  232MOL0     H31284  11.482   2.336   1.604  0.6778 -0.9642  0.6079
  232MOL0     H31285  11.597   2.384   1.487 -1.7029  1.2111 -0.5945
  232MOL0     H31286  11.490   2.218   1.320 -0.4594 -0.2312  0.6109
  232MOL0     H31287  11.367   2.192   1.445 -0.4874  0.3847  2.0330
  232MOL0     H31288  11.321   2.451   1.442  3.2788  1.7772  0.6907
  232MOL0     H31289  11.441   2.473   1.320 -1.6652  0.4296 -0.9047
  232MOL0     H31290  11.219   2.475   1.244 -0.5632  0.1449 -0.3456
  232MOL0     H31291  11.207   2.297   1.293 -1.4429  0.1460 -1.2830
  232MOL0     H31292  11.230   2.325   1.040  1.1597 -2.8164 -1.5519
  232MOL0     H31293  11.375   2.249   1.093 -2.7605 -1.2617 -1.9841
  232MOL0     H31294  11.503   2.450   1.121  0.2757 -1.6144 -1.7303
  232MOL0     H31295  11.456   2.408   0.952  0.1067  1.7013 -0.9790
  232MOL0     H31296  11.339   2.607   1.141  0.4584 -0.6202  0.9326
  232MOL0     H31297  11.284   2.581   0.964 -0.9899  2.8094  1.3979
  232MOL0     H31298  11.435   2.783   1.022  1.2120 -0.7256  1.8512
  232MOL0     H31299  11.558   2.666   1.039  1.4199 -0.5799 -2.4911
  232MOL0     H31300  11.848   2.086   1.441 -0.3130  0.0445 -0.8019
  232MOL0     H31301  11.845   1.846   1.388 -0.7195  0.5066 -0.5203
  232MOL0     H31302  11.718   1.350   1.605 -1.3696  1.4800 -0.5138
  232MOL0     H31303  11.708   1.112   1.508 -2.7293  0.0900  2.4086
  232MOL0     H31304  10.583   0.358   1.220 -1.9325  0.8127  1.2590
  232MOL0     H31305  10.459   0.496   1.034 -0.4515 -0.8188 -0.8364
  232MOL0     H31306  10.564   0.651   0.603  0.7662  0.8564 -2.2703
  232MOL0     H31307  10.533   0.762   0.398 -2.0208 -2.1958 -1.5663
  232MOL0     H31308  10.432   0.841   0.198 -0.6625  0.7270 -0.1045
  232MOL0     H31309  10.535   0.961   0.278 -0.2369  1.7084  0.4949
  232MOL0     H31310  10.392   1.132   0.164  2.7511  0.4948 -0.0137
  232MOL0     H31311  10.316   1.001   0.071 -0.0640  2.9223  0.1792
  232MOL0     H31312  10.558   0.940   0.010  1.4771  0.0930  1.2644
  232MOL0     H31313  10.599   1.086   0.092  0.7994 -1.1188  0.0490
  232MOL0     H31314  10.410   1.061  -0.153  0.3559  0.3464 -0.3839
  232MOL0     H31315  10.462   1.213  -0.086  0.6139 -0.1633  2.5220
  232MOL0     H31316  10.834   1.107  -0.243  0.2423  0.7310 -1.4425
  232MOL0     H31317  10.227   1.016   0.564 -1.4941 -1.6723 -0.4626
  232MOL0     H31318  10.176   0.850   0.864 -2.5205  2.4164  0.8360
  232MOL0     H31319  10.314   0.940   0.913 -1.8676  2.8986  1.7052
  232MOL0     H31320  10.196   1.014   0.802  0.5321  0.2994  1.0609
  233MOL0     O31321   0.486   3.442   0.895 -0.1895  0.1250 -0.6778
  233MOL0     C31322   0.445   3.541   0.835  0.0365  0.9956 -0.7255
  233MOL0     O31323   0.419   3.538   0.707 -0.3160  0.0829 -0.1454
  233MOL0     C31324   0.437   3.430   0.624 -0.8681  1.0779 -0.6066
  233MOL0     C31325   0.552   3.415   0.541  0.4213 -0.4904  0.5151
  233MOL0     C31326   0.558   3.316   0.455 -0.1492  0.2190  0.7520
  233MOL0     C31327   0.462   3.216   0.455 -0.5673 -0.4205  0.9827
  233MOL0     O31328   0.464   3.097   0.384  0.8749  0.2168  0.2215
  233MOL0     C31329   0.554   2.993   0.405 -0.5366  0.3999  0.8871
  233MOL0     C31330   0.543   2.931   0.537 -1.4738  0.9028 -0.6476
  233MOL0     C31331   0.619   2.799   0.529  0.8517 -0.6916 -0.2701
  233MOL0     C31332   0.629   2.719   0.661  0.9615 -0.4955  0.5784
  233MOL0     C31333   0.738   2.610   0.638  0.6187 -0.5018 -0.2714
  233MOL0     C31334   0.882   2.656   0.608  0.0866  0.7124  0.6175
  233MOL0     C31335   0.947   2.734   0.720 -0.1186  0.9610  0.3461
  233MOL0     C31336   1.092   2.746   0.678  0.0606  0.1033 -0.5041
  233MOL0     N31337   1.170   2.819   0.776 -0.4952 -1.1436  1.0190
  233MOL0     C31338   1.247   2.933   0.755  0.0413  0.7671  0.2219
  233MOL0     C31339   1.277   2.969   0.879 -0.6214 -0.5347  0.3965
  233MOL0     C31340   1.348   3.098   0.910 -1.1492 -0.8194 -0.1285
  233MOL0     C31341   1.500   3.070   0.914 -0.3415  0.3821  0.4786
  233MOL0     C31342   1.581   3.183   0.982  0.7139  0.0238 -0.2106
  233MOL0     C31343   1.597   3.314   0.911 -0.9914 -0.0736 -0.3502
  233MOL0     O31344   1.720   3.314   0.842 -0.7446 -0.6804  0.0084
  233MOL0     C31345   1.760   3.434   0.776  0.5963 -0.0584  1.1747
  233MOL0     C31346   1.658   3.535   0.759  0.2812 -0.5479  0.9007
  233MOL0     C31347   1.694   3.656   0.687  0.0136 -0.2248  0.2902
  233MOL0     C31348   1.814   3.664   0.615  0.8435  0.5144 -0.0880
  233MOL0     C31349   1.851   3.775   0.532 -0.7403 -1.2640  0.1048
  233MOL0     O31350   1.981   3.779   0.473  0.7783  0.4412 -0.2527
  233MOL0     C31351   2.011   3.890   0.400 -0.0583  0.2515 -0.1337
  233MOL0     C31352   2.056   3.868   0.268 -0.3106 -0.7315  0.0529
  233MOL0     C31353   2.097   3.977   0.190 -0.8156 -0.6246 -0.0283
  233MOL0     C31354   2.093   4.107   0.241 -0.3766 -0.0925 -1.1365
  233MOL0     O31355   2.133   4.214   0.163  0.0792 -0.5073 -0.0467
  233MOL0     C31356   2.084   4.341   0.187 -0.2095 -0.7471 -0.1763
  233MOL0     C31357   2.073   4.423   0.066 -0.0625 -0.0948  0.0390
  233MOL0     C31358   2.006   4.554   0.104  0.5491  0.3670  0.3938
  233MOL0     C31359   1.869   4.551   0.183 -0.2491  0.2054  0.5596
  233MOL0     C31360   1.788   4.672   0.157 -0.2942  1.2341 -0.8091
  233MOL0     C31361   1.647   4.660   0.207  0.1526  0.5311  0.3585
  233MOL0     C31362   1.595   4.805   0.185 -0.1849 -0.2357 -0.0357
  233MOL0     C31363   1.445   4.817   0.225  0.1020 -0.2184  1.0413
  233MOL0    Cl31364   1.439   4.799   0.409 -0.3470 -0.2132 -0.0314
  233MOL0     C31365   2.071   4.126   0.380 -0.2384  0.6834  0.3428
  233MOL0     C31366   2.016   4.018   0.452  0.1872  0.1684 -0.2357
  233MOL0     O31367   1.769   3.876   0.531  0.0907  0.6537  0.2228
  233MOL0     C31368   1.901   3.549   0.624 -0.5011  0.0997  0.0963
  233MOL0     C31369   1.879   3.442   0.705  0.2074 -0.2436 -0.9687
  233MOL0     N31370   1.231   2.875   0.964  0.0332  0.1845 -0.8768
  233MOL0     N31371   1.153   2.791   0.899 -0.1780 -0.1320  0.0862
  233MOL0     C31372   0.360   3.231   0.538  0.8143 -0.1193 -0.3995
  233MOL0     C31373   0.341   3.334   0.629 -0.0579  0.4618 -1.5239
  233MOL0     C31374   0.431   3.672   0.899 -0.0851 -0.0517  0.6642
  233MOL0     C31375   0.394   3.778   0.814 -0.6137  0.4028 -0.2300
  233MOL0     C31376   0.351   3.907   0.852  0.8553  0.5405  0.8596
  233MOL0     C31377   0.354   3.942   0.986 -0.6886  0.4098  0.1922
  233MOL0     O31378   0.306   4.066   1.020 -0.3054  0.1262  0.0474
  233MOL0     C31379   0.331   4.126   1.153  0.3241 -0.3903  0.2688
  233MOL0     C31380   0.311   4.277   1.162 -0.1122 -0.5961  0.9957
  233MOL0     C31381   0.381   4.371   1.066  0.2819  0.0493 -1.1270
  233MOL0     C31382   0.529   4.349   1.042 -0.1813  0.8132  0.3833
  233MOL0     C31383   0.609   4.342   1.169 -0.3694  0.8734 -0.1372
  233MOL0     C31384   0.658   4.343   1.284 -0.2194 -0.4527  0.5701
  233MOL0     C31385   0.412   3.852   1.074  0.1383 -0.0764  0.3097
  233MOL0     C31386   0.457   3.722   1.033  0.2997  0.0005 -0.1947
  233MOL0     C31387   0.501   3.624   1.134  0.1353  0.1794 -0.7008
  233MOL0     H31388   0.630   3.489   0.544  0.7143 -0.5444 -2.3047
  233MOL0     H31389   0.638   3.316   0.382  0.1382 -4.0561  0.8431
  233MOL0     H31390   0.546   2.926   0.319  0.6276  1.1232  0.1703
  233MOL0     H31391   0.655   3.035   0.400 -0.4586  0.1398 -0.0445
  233MOL0     H31392   0.439   2.909   0.565 -0.7881 -1.1399  0.5569
  233MOL0     H31393   0.594   2.985   0.617 -1.7314 -0.8415  0.7755
  233MOL0     H31394   0.716   2.830   0.489  0.4773  0.7807 -0.0616
  233MOL0     H31395   0.578   2.735   0.450 -0.1245 -1.9294  1.1737
  233MOL0     H31396   0.656   2.780   0.748  1.1291  1.8757 -1.0276
  233MOL0     H31397   0.532   2.671   0.676  0.8329  0.1053  1.7084
  233MOL0     H31398   0.735   2.563   0.736  2.3495  1.1333  0.6380
  233MOL0     H31399   0.695   2.536   0.570 -1.6932 -0.8002  1.3982
  233MOL0     H31400   0.939   2.563   0.602 -3.0272 -1.2190 -1.4858
  233MOL0     H31401   0.883   2.705   0.510 -3.3219 -2.3865 -1.2194
  233MOL0     H31402   0.928   2.690   0.818  0.1247 -1.6478 -0.6926
  233MOL0     H31403   0.899   2.831   0.735  0.2804  1.2384 -0.1400
  233MOL0     H31404   1.141   2.652   0.652 -0.9977  0.3573 -4.0992
  233MOL0     H31405   1.093   2.800   0.582 -4.9226  7.5491  2.7038
  233MOL0     H31406   1.271   2.987   0.664  0.6657 -0.6939 -0.4979
  233MOL0     H31407   1.330   3.178   0.837  0.8635  0.1146  0.3397
  233MOL0     H31408   1.328   3.131   1.012 -4.1489  0.2392 -0.9373
  233MOL0     H31409   1.511   2.981   0.977 -1.0693  0.0552  0.1552
  233MOL0     H31410   1.533   3.043   0.813  2.8855  1.9848  0.9659
  233MOL0     H31411   1.674   3.126   0.987  1.1248  0.6260 -0.7783
  233MOL0     H31412   1.536   3.204   1.079 -1.7932 -0.5340 -1.1726
  233MOL0     H31413   1.596   3.402   0.977  4.0282 -1.1178  1.5972
  233MOL0     H31414   1.510   3.324   0.847  0.2466 -1.3299 -2.3185
  233MOL0     H31415   1.561   3.550   0.803 -0.0536 -1.2721  0.4278
  233MOL0     H31416   1.621   3.736   0.681 -1.0395 -1.2071 -0.4103
  233MOL0     H31417   2.058   3.773   0.217 -2.6406 -0.7079 -0.1610
  233MOL0     H31418   2.130   3.956   0.088  1.4231  1.7236  0.1016
  233MOL0     H31419   1.993   4.349   0.248 -1.2991  0.3802 -1.8722
  233MOL0     H31420   2.162   4.389   0.248 -2.3440  1.2051  1.1874
  233MOL0     H31421   2.173   4.434   0.024  1.2292 -3.0795  2.0027
  233MOL0     H31422   2.010   4.379  -0.012  0.7606 -0.4693 -0.4239
  233MOL0     H31423   2.072   4.624   0.157  0.0042  4.1080 -3.3473
  233MOL0     H31424   1.969   4.589   0.008 -3.1047  0.9514  1.8582
  233MOL0     H31425   1.884   4.557   0.291  0.1727 -1.1739  0.6006
  233MOL0     H31426   1.818   4.455   0.168  1.8186 -1.0081  0.9325
  233MOL0     H31427   1.780   4.682   0.049 -1.0891 -0.3844 -0.9355
  233MOL0     H31428   1.841   4.756   0.204  0.9029  0.1626 -0.1476
  233MOL0     H31429   1.594   4.588   0.144 -1.8268  2.1943 -0.0062
  233MOL0     H31430   1.626   4.627   0.309 -2.7143  4.2820  1.1989
  233MOL0     H31431   1.610   4.840   0.082  1.9880 -0.5360  0.1289
  233MOL0     H31432   1.648   4.877   0.249 -1.7020  4.6382 -3.6456
  233MOL0     H31433   1.410   4.916   0.195  2.7773  1.2786  2.4852
  233MOL0     H31434   1.380   4.748   0.170 -0.8769  0.7088  0.9903
  233MOL0     H31435   2.090   4.223   0.425  3.2050  0.7421 -0.9308
  233MOL0     H31436   1.985   4.026   0.556 -0.2346 -1.8651 -0.1592
  233MOL0     H31437   1.993   3.544   0.566 -1.6194 -1.2839 -1.6976
  233MOL0     H31438   1.951   3.361   0.700  0.3795 -0.0245 -3.3172
  233MOL0     H31439   0.295   3.144   0.545 -0.1491  0.6439  0.5359
  233MOL0     H31440   0.260   3.338   0.701  1.5635  2.6854  0.3610
  233MOL0     H31441   0.394   3.760   0.707  0.2272  2.2218 -0.5768
  233MOL0     H31442   0.314   3.969   0.771  3.2601  2.0174  0.8075
  233MOL0     H31443   0.436   4.108   1.175  0.5128  2.5610  2.3381
  233MOL0     H31444   0.267   4.077   1.228  1.1650 -3.9847 -1.1844
  233MOL0     H31445   0.334   4.308   1.265 -2.7264  1.1100  1.1627
  233MOL0     H31446   0.204   4.299   1.151 -0.0657 -0.4269  0.8817
  233MOL0     H31447   0.364   4.476   1.090  2.5899  0.7759 -2.3529
  233MOL0     H31448   0.325   4.358   0.973 -0.0353  1.9378 -1.2353
  233MOL0     H31449   0.521   4.251   0.994 -1.4727  0.5928  1.0112
  233MOL0     H31450   0.573   4.410   0.963 -1.7532 -2.7273 -3.6165
  233MOL0     H31451   0.701   4.364   1.379 -0.0563  1.7743  0.0560
  233MOL0     H31452   0.420   3.873   1.180  3.9612  1.0813 -0.0734
  233MOL0     H31453   0.462   3.524   1.113  0.0397 -0.3344  1.5741
  233MOL0     H31454   0.609   3.611   1.123  0.5204  2.6947 -0.4301
  233MOL0     H31455   0.483   3.655   1.238 -1.6925 -0.8821 -0.6473
  234MOL0     O31456   5.171   3.177  10.661 -0.6418  0.0175  0.5138
  234MOL0     C31457   5.217   3.094  10.739 -1.2207  0.2827  0.8256
  234MOL0     O31458   5.187   3.085  10.866 -0.3540  0.0262 -0.1194
  234MOL0     C31459   5.094   3.172  10.917  0.3594  0.5375 -0.2317
  234MOL0     C31460   5.140   3.241  11.028  0.8693  0.1954 -1.3780
  234MOL0     C31461   5.057   3.344  11.079 -1.0492  0.0205 -0.5595
  234MOL0     C31462   4.934   3.370  11.019 -0.5545 -0.0478  0.7006
  234MOL0     O31463   4.871   3.470  11.081  0.2763  0.3057 -0.5790
  234MOL0     C31464   4.772   3.542  10.999  1.2109  0.4623  0.2592
  234MOL0     C31465   4.641   3.517  11.066  0.4573  0.5673  0.1852
  234MOL0     C31466   4.561   3.390  11.015 -0.7851 -0.3037 -0.3656
  234MOL0     C31467   4.491   3.399  10.877  0.5288 -0.5716 -0.5976
  234MOL0     C31468   4.447   3.259  10.841 -0.4056  0.6688  0.1315
  234MOL0     C31469   4.356   3.194  10.956 -0.4329  0.7200  0.8796
  234MOL0     C31470   4.272   3.079  10.886  0.2505  0.0970 -0.2237
  234MOL0     C31471   4.220   2.985  10.997  1.1549 -0.3311  0.5524
  234MOL0     N31472   4.095   3.048  11.048 -0.1025  0.6074 -0.3016
  234MOL0     C31473   3.981   3.074  10.981 -0.9608 -0.1693 -0.4517
  234MOL0     C31474   3.915   3.153  11.063  0.4337 -0.5089 -0.1042
  234MOL0     C31475   3.787   3.220  11.013  0.2450 -0.0799 -0.1992
  234MOL0     C31476   3.720   3.319  11.124 -0.7505  0.1697 -0.0173
  234MOL0     C31477   3.572   3.330  11.079 -0.3142  0.2476 -0.9218
  234MOL0     C31478   3.483   3.385  11.194  0.7462  0.3486  1.0942
  234MOL0     O31479   3.347   3.410  11.151  0.3449  0.2032 -0.7979
  234MOL0     C31480   3.316   3.525  11.083 -0.0032  0.3179 -0.2103
  234MOL0     C31481   3.176   3.557  11.076 -0.0412  0.6559 -0.2113
  234MOL0     C31482   3.136   3.677  11.024  0.2578 -0.5587  0.1949
  234MOL0     C31483   3.231   3.766  10.977  0.1352  0.6072  0.0694
  234MOL0     C31484   3.187   3.900  10.936  0.0926  0.4982 -0.3290
  234MOL0     O31485   3.273   3.999  10.950 -0.1040  0.5917  0.8376
  234MOL0     C31486   3.243   4.123  10.891 -0.3925 -0.0213  0.4794
  234MOL0     C31487   3.115   4.180  10.899  0.3512  0.1925  1.2668
  234MOL0     C31488   3.087   4.305  10.848 -0.5877  0.2740 -0.9155
  234MOL0     C31489   3.194   4.386  10.798  0.6544 -0.0866 -0.5806
  234MOL0     O31490   3.153   4.515  10.747 -0.5437 -0.3694 -0.0524
  234MOL0     C31491   3.240   4.580  10.647  0.1369 -0.2251  0.1257
  234MOL0     C31492   3.183   4.703  10.586  0.1410 -0.2581 -0.6535
  234MOL0     C31493   3.157   4.811  10.695 -0.6457 -0.0316  0.7688
  234MOL0     C31494   3.110   4.935  10.613 -0.5295 -0.0395 -0.2102
  234MOL0     C31495   3.121   5.065  10.697  0.3817  0.4929  1.0147
  234MOL0     C31496   3.093   5.189  10.618 -0.1857  0.6046 -0.0203
  234MOL0     C31497   3.060   5.310  10.698 -0.7560  0.5779 -0.4308
  234MOL0     C31498   3.019   5.433  10.614 -0.7974  1.4017 -1.0496
  234MOL0    Cl31499   3.161   5.491  10.520  0.3178  0.1621 -0.5730
  234MOL0     C31500   3.325   4.342  10.802  0.2723 -0.6470  0.9841
  234MOL0     C31501   3.351   4.209  10.843 -0.6752  0.9335  0.6159
  234MOL0     O31502   3.070   3.907  10.891  0.5114  0.1126 -0.0738
  234MOL0     C31503   3.365   3.736  10.996 -1.6221 -0.3066  0.6510
  234MOL0     C31504   3.413   3.617  11.041  0.2725  1.0364  0.2654
  234MOL0     N31505   3.981   3.169  11.184 -0.5764 -0.3678  0.6380
  234MOL0     N31506   4.095   3.096  11.173  0.1863 -0.0403  0.4697
  234MOL0     C31507   4.892   3.298  10.907 -0.4641  0.0640 -0.2830
  234MOL0     C31508   4.975   3.194  10.858  0.6018  0.1995  0.0542
  234MOL0     C31509   5.309   2.978  10.685 -0.4912 -0.2759  0.5296
  234MOL0     C31510   5.329   2.873  10.762 -0.0534  1.1195 -0.5909
  234MOL0     C31511   5.424   2.776  10.738  0.2889  0.3537 -0.3958
  234MOL0     C31512   5.490   2.768  10.620  0.6181 -0.7383 -0.0663
  234MOL0     O31513   5.575   2.653  10.594 -0.3259 -0.8484 -0.0359
  234MOL0     C31514   5.582   2.536  10.679  0.7597  1.3950  0.2242
  234MOL0     C31515   5.693   2.441  10.635 -0.5572 -0.1047  0.4821
  234MOL0     C31516   5.812   2.523  10.681  0.6852 -0.6560 -0.1456
  234MOL0     C31517   5.948   2.445  10.683  0.7342 -0.1223  0.1701
  234MOL0     C31518   5.952   2.352  10.798  1.2145  0.3379 -1.1392
  234MOL0     C31519   5.960   2.273  10.890 -0.8848 -0.5541  0.8664
  234MOL0     C31520   5.464   2.878  10.527 -0.4994 -0.5100  0.4303
  234MOL0     C31521   5.376   2.981  10.557 -0.0585  1.1648 -0.1034
  234MOL0     C31522   5.363   3.103  10.458 -0.4349 -0.4719 -0.7229
  234MOL0     H31523   5.233   3.203  11.070 -1.1451 -3.0565  0.6232
  234MOL0     H31524   5.098   3.407  11.157  2.6312 -3.8288  1.0167
  234MOL0     H31525   4.791   3.650  11.007 -1.0062  0.9959 -0.8882
  234MOL0     H31526   4.786   3.515  10.894 -0.3321  0.6946 -0.0251
  234MOL0     H31527   4.580   3.606  11.047  0.7943 -0.0180 -4.6545
  234MOL0     H31528   4.646   3.503  11.175 -0.2045 -3.4990 -0.1640
  234MOL0     H31529   4.487   3.375  11.094 -0.6028 -0.0775 -0.1509
  234MOL0     H31530   4.607   3.292  11.022  0.0065 -0.0115 -1.2153
  234MOL0     H31531   4.413   3.475  10.891  2.2651  0.9161  1.6040
  234MOL0     H31532   4.562   3.438  10.804 -0.4776  1.5049 -0.5352
  234MOL0     H31533   4.387   3.266  10.750 -1.5619  1.0429  0.8939
  234MOL0     H31534   4.536   3.197  10.826 -0.9225 -0.2517  0.7801
  234MOL0     H31535   4.403   3.150  11.045  1.1462  0.5477 -0.0079
  234MOL0     H31536   4.288   3.272  10.992  0.5510  0.6414  3.0450
  234MOL0     H31537   4.339   3.014  10.829  1.4528 -1.2667  2.5144
  234MOL0     H31538   4.191   3.115  10.823 -1.5899 -0.9127  1.4378
  234MOL0     H31539   4.191   2.886  10.960  2.5562 -0.1380 -1.2128
  234MOL0     H31540   4.298   2.978  11.073  1.8564  0.0856 -0.1074
  234MOL0     H31541   3.958   3.032  10.883  2.2208 -2.5791 -0.3000
  234MOL0     H31542   3.803   3.268  10.916  0.5418 -0.3133 -0.2662
  234MOL0     H31543   3.721   3.136  10.988  0.9272 -0.1311 -1.9395
  234MOL0     H31544   3.723   3.272  11.222 -1.8260 -3.7627 -1.6564
  234MOL0     H31545   3.771   3.416  11.125  3.0817 -1.6238  1.5843
  234MOL0     H31546   3.538   3.235  11.038  2.5907  0.2247 -3.6145
  234MOL0     H31547   3.564   3.389  10.987 -0.8620 -1.5089 -2.0414
  234MOL0     H31548   3.525   3.476  11.237  0.5079 -0.2844  2.7385
  234MOL0     H31549   3.489   3.316  11.279  0.3236  0.3275  1.1066
  234MOL0     H31550   3.104   3.479  11.098  0.6900  0.7622  3.0362
  234MOL0     H31551   3.030   3.697  11.022  0.0780 -1.5198 -1.7742
  234MOL0     H31552   3.026   4.128  10.933 -0.7386  0.4025 -1.0837
  234MOL0     H31553   2.986   4.343  10.852  0.4934  3.2957  0.1428
  234MOL0     H31554   3.335   4.617  10.688 -0.0180  0.5611 -0.2096
  234MOL0     H31555   3.251   4.504  10.568 -1.1749  0.7533 -1.0313
  234MOL0     H31556   3.246   4.732  10.501 -0.3819 -0.5716 -1.1533
  234MOL0     H31557   3.080   4.684  10.555 -1.6936  3.4902  2.3403
  234MOL0     H31558   3.076   4.784  10.764 -0.6088 -0.2949  0.7081
  234MOL0     H31559   3.247   4.834  10.752 -1.1282  2.4744  0.6642
  234MOL0     H31560   3.004   4.926  10.585 -2.0385  2.7439  3.5484
  234MOL0     H31561   3.178   4.953  10.530  1.0486  1.6833  1.3642
  234MOL0     H31562   3.223   5.070  10.735 -0.0793 -0.0019  2.3702
  234MOL0     H31563   3.049   5.057  10.778 -1.2412 -2.1185 -0.5292
  234MOL0     H31564   3.190   5.207  10.570 -0.7167  2.0787 -0.6003
  234MOL0     H31565   3.020   5.156  10.542 -0.7649  0.1919  0.7026
  234MOL0     H31566   3.138   5.330  10.773 -1.4034  0.2517  0.3507
  234MOL0     H31567   2.965   5.297  10.751 -1.6216 -1.9811 -2.4223
  234MOL0     H31568   2.941   5.392  10.550  0.4044  1.7310 -2.8173
  234MOL0     H31569   2.977   5.505  10.685  0.2012 -1.6812  3.0945
  234MOL0     H31570   3.418   4.390  10.774 -0.2135  2.5160  3.9628
  234MOL0     H31571   3.451   4.168  10.837 -0.9079  0.5707 -1.4135
  234MOL0     H31572   3.445   3.804  10.970 -0.2619 -2.5263 -1.3570
  234MOL0     H31573   3.521   3.614  11.050  0.2759  0.3758  0.0725
  234MOL0     H31574   4.798   3.314  10.856  0.4584 -3.6326 -3.6053
  234MOL0     H31575   4.941   3.158  10.762 -0.8490  0.1097  0.5761
  234MOL0     H31576   5.282   2.866  10.859  0.7611  0.1708 -0.2540
  234MOL0     H31577   5.415   2.684  10.796 -1.8581  1.4971  1.2494
  234MOL0     H31578   5.493   2.472  10.673  0.3380  1.1337  4.9140
  234MOL0     H31579   5.588   2.562  10.785  1.0795  1.9566  0.0689
  234MOL0     H31580   5.699   2.409  10.530  0.3348 -1.5424  0.9405
  234MOL0     H31581   5.693   2.344  10.685 -0.4511 -2.1185 -3.1311
  234MOL0     H31582   5.802   2.560  10.783  2.7852  0.4980 -0.3192
  234MOL0     H31583   5.819   2.612  10.617 -0.1003 -0.9767 -0.7047
  234MOL0     H31584   5.958   2.383  10.593  2.1305  1.3917 -0.7782
  234MOL0     H31585   6.035   2.511  10.693  0.8143  0.3601 -2.7122
  234MOL0     H31586   5.968   2.208  10.975 -0.2923  1.1354  2.1647
  234MOL0     H31587   5.540   2.881  10.450 -0.3081 -0.4333  0.6202
  234MOL0     H31588   5.409   3.194  10.498  0.6312 -1.5169  0.5386
  234MOL0     H31589   5.407   3.084  10.360 -1.4972  0.5105 -1.4132
  234MOL0     H31590   5.258   3.125  10.436 -1.3602 -2.9301  0.7928
  235MOL0     O31591   1.176   3.158  10.851 -0.0599  0.5420 -0.3842
  235MOL0     C31592   1.137   3.105  10.744  0.7765  0.4156  0.0592
  235MOL0     O31593   1.011   3.138  10.682  0.3462 -0.7244  0.3301
  235MOL0     C31594   0.937   3.246  10.715  0.0007 -0.5703 -0.7138
  235MOL0     C31595   0.922   3.298  10.847  0.3556  0.9219 -0.0925
  235MOL0     C31596   0.835   3.409  10.867  0.3147 -0.5072 -0.2583
  235MOL0     C31597   0.775   3.480  10.762 -0.9177 -0.5806 -0.2074
  235MOL0     O31598   0.704   3.596  10.783  0.6368  0.4560 -0.8720
  235MOL0     C31599   0.593   3.627  10.692  0.5920  0.6285  0.4949
  235MOL0     C31600   0.480   3.703  10.757  0.6237  0.2030  0.0760
  235MOL0     C31601   0.396   3.615  10.843  0.0337  0.6683  0.2816
  235MOL0     C31602   0.284   3.695  10.884  0.5617 -1.3232  0.0478
  235MOL0     C31603   0.215   3.634  11.016  0.3256 -0.8401  0.9636
  235MOL0     C31604   0.116   3.733  11.075  0.2195 -0.1010 -0.2089
  235MOL0     C31605   0.044   3.688  11.201 -0.2104  0.5177 -0.2423
  235MOL0     C31606  -0.080   3.776  11.247 -0.1829 -0.3538  0.6174
  235MOL0     N31607  -0.164   3.744  11.368 -0.7208  0.1742 -0.8991
  235MOL0     C31608  -0.298   3.738  11.367 -0.0088 -0.1824  0.2383
  235MOL0     C31609  -0.333   3.725  11.495  0.2123  0.3092  0.2581
  235MOL0     C31610  -0.469   3.731  11.545 -0.4489  0.5226 -0.5518
  235MOL0     C31611  -0.472   3.767  11.701 -0.6981 -0.6221 -0.4453
  235MOL0     C31612  -0.613   3.795  11.748 -0.0973 -0.6269  0.6486
  235MOL0     C31613  -0.715   3.691  11.760 -0.6122  1.1851  0.5741
  235MOL0     O31614  -0.828   3.761  11.813  0.2640 -0.7364  0.1620
  235MOL0     C31615  -0.930   3.708  11.884  1.1592 -0.4080  0.4899
  235MOL0     C31616  -0.956   3.570  11.904 -0.1752 -0.6062 -0.6161
  235MOL0     C31617  -1.070   3.513  11.965 -0.3340 -0.9535 -0.2885
  235MOL0     C31618  -1.160   3.611  12.018  0.3043  0.4179 -1.1051
  235MOL0     C31619  -1.278   3.565  12.105  0.2246 -0.6987  1.0575
  235MOL0     O31620  -1.337   3.660  12.182 -0.3577 -0.0981  0.4847
  235MOL0     C31621  -1.444   3.637  12.266 -0.9019 -0.3085  0.2122
  235MOL0     C31622  -1.524   3.527  12.277  0.1298 -0.4448  0.3862
  235MOL0     C31623  -1.632   3.524  12.374  0.4098 -0.6051  0.6346
  235MOL0     C31624  -1.661   3.631  12.464 -0.7630 -0.1803  0.4922
  235MOL0     O31625  -1.768   3.615  12.552  0.4596  0.8946 -0.3550
  235MOL0     C31626  -1.787   3.697  12.667 -1.1676 -0.4936  0.0541
  235MOL0     C31627  -1.916   3.660  12.754  0.6486 -0.1525 -0.3426
  235MOL0     C31628  -1.955   3.751  12.868  0.4493  0.6188 -0.0190
  235MOL0     C31629  -2.092   3.713  12.930 -0.5036 -0.2714  0.1297
  235MOL0     C31630  -2.126   3.776  13.063  0.8528 -0.6669  0.3874
  235MOL0     C31631  -2.197   3.909  13.067  0.7021 -0.2677  0.0405
  235MOL0     C31632  -2.244   3.959  13.203  0.3996 -0.3638 -0.4866
  235MOL0     C31633  -2.129   3.967  13.300  0.3695  0.0732 -0.7237
  235MOL0    Cl31634  -2.084   3.802  13.371  0.1159  0.2828  0.0540
  235MOL0     C31635  -1.563   3.735  12.464  0.9005 -0.0591  1.5423
  235MOL0     C31636  -1.467   3.742  12.361 -0.1299  1.2796 -0.0490
  235MOL0     O31637  -1.316   3.453  12.084  0.5970 -0.1608 -0.1099
  235MOL0     C31638  -1.141   3.747  12.007 -0.1678  0.3575 -0.2019
  235MOL0     C31639  -1.028   3.799  11.943 -0.2182  0.4621  0.6741
  235MOL0     N31640  -0.221   3.704  11.569  0.2633  0.1209 -0.5754
  235MOL0     N31641  -0.113   3.716  11.494 -0.0331 -0.5497 -0.6725
  235MOL0     C31642   0.807   3.434  10.631  0.6099 -0.0207  1.0021
  235MOL0     C31643   0.873   3.312  10.603  0.5343 -0.4257  0.2124
  235MOL0     C31644   1.213   2.984  10.679 -0.0119  0.1801 -0.5257
  235MOL0     C31645   1.141   2.901  10.594 -0.4666 -0.9293  0.8558
  235MOL0     C31646   1.199   2.792  10.535  0.4483 -0.1403  0.3495
  235MOL0     C31647   1.334   2.764  10.551 -0.1716 -1.5901  0.2736
  235MOL0     O31648   1.383   2.667  10.473 -0.4649  0.4946  1.1933
  235MOL0     C31649   1.503   2.674  10.395 -1.0159  0.5094  0.8442
  235MOL0     C31650   1.493   2.621  10.250  0.5020  1.5070 -0.3438
  235MOL0     C31651   1.639   2.587  10.197  0.0131  0.0117  0.1545
  235MOL0     C31652   1.732   2.485  10.274  0.8155  0.2620 -0.8514
  235MOL0     C31653   1.671   2.353  10.277 -0.9528  0.3845  0.7878
  235MOL0     C31654   1.652   2.231  10.276 -0.2040  0.6856  0.4813
  235MOL0     C31655   1.412   2.837  10.642  0.2610 -0.8647 -0.7727
  235MOL0     C31656   1.346   2.947  10.710  0.5453 -0.1883  0.1562
  235MOL0     C31657   1.434   3.030  10.800 -0.0916  0.2727 -0.2964
  235MOL0     H31658   0.972   3.246  10.929 -0.2442 -0.8449 -0.8140
  235MOL0     H31659   0.795   3.449  10.960  1.8966 -0.9761  0.6533
  235MOL0     H31660   0.642   3.690  10.617  3.1391  0.2880  1.7655
  235MOL0     H31661   0.556   3.539  10.639 -0.0530 -0.0269  1.9761
  235MOL0     H31662   0.410   3.746  10.685 -0.1558  3.2287  2.3914
  235MOL0     H31663   0.519   3.790  10.811  1.1763  0.2219 -0.3446
  235MOL0     H31664   0.444   3.576  10.934 -2.1705  1.3675  1.8160
  235MOL0     H31665   0.350   3.533  10.789  2.9397 -1.8412  1.2739
  235MOL0     H31666   0.331   3.789  10.914  1.8036 -0.7128 -3.3900
  235MOL0     H31667   0.219   3.712  10.798  0.1756  0.5114  0.6420
  235MOL0     H31668   0.170   3.539  10.986 -0.9051  0.1539 -0.4745
  235MOL0     H31669   0.288   3.607  11.094 -1.2577 -2.3815  1.9811
  235MOL0     H31670   0.165   3.830  11.081 -0.6619  0.3640 -0.3304
  235MOL0     H31671   0.039   3.755  11.000 -0.0242  1.4065  0.4504
  235MOL0     H31672   0.126   3.698  11.272  0.7825  1.6526 -1.4857
  235MOL0     H31673   0.005   3.586  11.195 -0.0642  0.5434 -3.2921
  235MOL0     H31674  -0.033   3.873  11.264  2.7430 -1.3435 -1.0412
  235MOL0     H31675  -0.145   3.785  11.160  1.7690 -0.5104 -0.9286
  235MOL0     H31676  -0.358   3.744  11.277 -2.1171 -5.6997  0.8881
  235MOL0     H31677  -0.518   3.811  11.489 -2.8444  0.4871  1.3361
  235MOL0     H31678  -0.530   3.642  11.526 -0.9721  0.7961 -0.1769
  235MOL0     H31679  -0.448   3.686  11.770 -1.2565  0.3881  0.9772
  235MOL0     H31680  -0.402   3.851  11.706  2.2964 -2.6782 -3.4309
  235MOL0     H31681  -0.654   3.885  11.701  1.6448 -0.1396 -0.0220
  235MOL0     H31682  -0.592   3.830  11.850  0.7230  1.0903 -0.0678
  235MOL0     H31683  -0.686   3.615  11.834 -1.4897 -0.3562 -0.5999
  235MOL0     H31684  -0.726   3.642  11.663  0.6503  2.0934 -0.0537
  235MOL0     H31685  -0.904   3.492  11.849 -1.1530 -1.2799 -0.6043
  235MOL0     H31686  -1.096   3.407  11.965 -1.3095 -0.7302 -0.6111
  235MOL0     H31687  -1.514   3.436  12.219 -1.6622 -0.9599  0.8060
  235MOL0     H31688  -1.692   3.434  12.366 -1.3260  0.5030  0.7296
  235MOL0     H31689  -1.702   3.687  12.735  0.5150 -0.3207 -1.9073
  235MOL0     H31690  -1.784   3.797  12.623 -1.2726 -0.8185 -0.7159
  235MOL0     H31691  -2.001   3.662  12.684  2.2720 -0.4819 -2.4416
  235MOL0     H31692  -1.898   3.560  12.795 -2.1826 -0.0616  1.3529
  235MOL0     H31693  -1.876   3.751  12.943 -0.3206  1.2086  0.8122
  235MOL0     H31694  -1.973   3.854  12.834 -0.1930  0.2265 -0.9090
  235MOL0     H31695  -2.097   3.604  12.930 -2.0019 -0.2562 -1.8895
  235MOL0     H31696  -2.162   3.733  12.848  1.4340 -4.4825 -2.9315
  235MOL0     H31697  -2.031   3.783  13.117  0.9494 -0.7202  0.2298
  235MOL0     H31698  -2.194   3.700  13.101  2.2492 -1.6249  1.0469
  235MOL0     H31699  -2.122   3.969  13.015  0.8255  1.5920  2.2348
  235MOL0     H31700  -2.283   3.899  12.999  0.5744  0.9044  0.0074
  235MOL0     H31701  -2.323   3.897  13.245 -1.4821  2.5457  0.5892
  235MOL0     H31702  -2.276   4.062  13.183  1.9866  0.6226  1.6703
  235MOL0     H31703  -2.043   4.018  13.254  0.9687  0.4298  0.7465
  235MOL0     H31704  -2.140   4.035  13.384  1.9118 -2.7209  1.9537
  235MOL0     H31705  -1.570   3.825  12.523 -1.1213  0.6943  0.2490
  235MOL0     H31706  -1.408   3.831  12.341  1.9325  0.5330  2.3047
  235MOL0     H31707  -1.211   3.819  12.049 -1.6271 -0.2356 -1.5304
  235MOL0     H31708  -1.028   3.907  11.935 -1.9350  0.3968 -0.9076
  235MOL0     H31709   0.769   3.471  10.536 -1.4307 -3.8452  0.1498
  235MOL0     H31710   0.890   3.282  10.500 -3.3448 -0.4001 -0.5992
  235MOL0     H31711   1.039   2.928  10.567 -0.3393  0.3648  1.6193
  235MOL0     H31712   1.148   2.715  10.479  0.8114 -1.6214  1.9816
  235MOL0     H31713   1.583   2.627  10.454 -1.1689 -0.6930  0.1130
  235MOL0     H31714   1.540   2.777  10.388  0.1375  0.0493 -0.1426
  235MOL0     H31715   1.450   2.702  10.191 -0.0848 -0.2882 -2.4836
  235MOL0     H31716   1.423   2.537  10.243  1.8749  0.2192  0.4853
  235MOL0     H31717   1.689   2.684  10.190 -2.6753  1.3415 -3.1351
  235MOL0     H31718   1.623   2.554  10.094 -0.9264  2.4492 -0.5584
  235MOL0     H31719   1.826   2.466  10.221  1.3468 -0.7099  0.3990
  235MOL0     H31720   1.750   2.519  10.376  3.0429 -2.5423 -0.1933
  235MOL0     H31721   1.637   2.125  10.269  1.7753  0.4284 -0.7825
  235MOL0     H31722   1.520   2.838  10.653  0.2796  0.0081 -0.9768
  235MOL0     H31723   1.415   3.015  10.907 -1.8340 -0.4399 -0.6728
  235MOL0     H31724   1.540   3.012  10.777 -0.2133 -0.0328 -0.6220
  235MOL0     H31725   1.417   3.138  10.798 -1.1673  0.1750  1.6366
  236MOL0     O31726   4.420   8.496   8.205 -0.1651  0.1152 -0.2096
  236MOL0     C31727   4.434   8.505   8.323 -0.7823 -0.3884 -0.4711
  236MOL0     O31728   4.454   8.396   8.412  0.3753 -0.8783 -0.0635
  236MOL0     C31729   4.418   8.279   8.358 -0.6042 -0.3706  0.2684
  236MOL0     C31730   4.514   8.189   8.322  0.4392  0.1112 -0.4102
  236MOL0     C31731   4.481   8.069   8.265 -0.0270 -0.2413  0.5170
  236MOL0     C31732   4.347   8.038   8.233 -0.5549  0.0432 -0.1979
  236MOL0     O31733   4.329   7.916   8.169  0.8437 -0.3790  0.0337
  236MOL0     C31734   4.193   7.875   8.159  1.2370 -0.8843  0.5035
  236MOL0     C31735   4.169   7.730   8.113 -0.5398 -1.2078 -0.0146
  236MOL0     C31736   4.190   7.733   7.960  0.0754  0.6725  0.2306
  236MOL0     C31737   4.186   7.584   7.911  0.5796 -0.1097  1.0411
  236MOL0     C31738   4.188   7.577   7.754  0.6372  0.5078 -0.6253
  236MOL0     C31739   4.210   7.436   7.715  0.3861 -0.1556  0.9669
  236MOL0     C31740   4.356   7.388   7.699 -0.0204  0.3441 -0.3825
  236MOL0     C31741   4.376   7.238   7.671 -0.1437  0.1601  0.2577
  236MOL0     N31742   4.515   7.210   7.709  0.1215 -0.7053  0.7684
  236MOL0     C31743   4.606   7.153   7.621 -0.1580 -0.3650  1.0434
  236MOL0     C31744   4.695   7.092   7.688  0.2313 -0.3291 -0.1697
  236MOL0     C31745   4.804   6.999   7.646 -0.4640 -0.9348 -0.5030
  236MOL0     C31746   4.910   7.089   7.592 -0.2269 -0.3690 -0.5737
  236MOL0     C31747   5.055   7.035   7.579  0.1989  0.0612 -0.1805
  236MOL0     C31748   5.145   7.142   7.507  0.6368 -0.2961  0.9627
  236MOL0     O31749   5.178   7.252   7.594 -0.4628  0.1372 -0.2160
  236MOL0     C31750   5.166   7.385   7.566 -0.1869 -0.1105  0.9870
  236MOL0     C31751   5.135   7.437   7.437 -0.5979 -0.3164 -0.9042
  236MOL0     C31752   5.113   7.580   7.423  0.0990  0.1158 -0.0704
  236MOL0     C31753   5.138   7.665   7.533  0.1007 -0.8843  0.8561
  236MOL0     C31754   5.112   7.811   7.520 -0.8305 -0.4025 -0.0401
  236MOL0     O31755   5.130   7.902   7.621  0.6181  0.7722  0.0574
  236MOL0     C31756   5.089   8.036   7.618  0.1354  0.4107  0.5736
  236MOL0     C31757   5.006   8.080   7.719 -0.8354 -0.5472  0.4272
  236MOL0     C31758   4.983   8.218   7.729 -1.1381 -1.2864  0.0425
  236MOL0     C31759   5.045   8.320   7.650 -0.6481  0.2150  2.0744
  236MOL0     O31760   5.004   8.451   7.669  0.6164 -0.0753  0.3100
  236MOL0     C31761   5.068   8.559   7.601  0.3329  0.1414 -0.2022
  236MOL0     C31762   4.992   8.689   7.622  0.7440  0.1836 -0.1962
  236MOL0     C31763   5.056   8.810   7.559  0.1330  0.5082  0.1929
  236MOL0     C31764   5.160   8.888   7.633 -0.1759 -0.5990 -0.4243
  236MOL0     C31765   5.302   8.879   7.577  0.5666 -0.1785  1.0341
  236MOL0     C31766   5.319   8.913   7.432  0.2244 -0.5010  0.7113
  236MOL0     C31767   5.269   9.041   7.383 -0.6650 -0.2196 -0.5818
  236MOL0     C31768   5.317   9.080   7.231  0.1168 -0.3447  0.3058
  236MOL0    Cl31769   5.264   8.985   7.104  0.3594  0.3446  0.0600
  236MOL0     C31770   5.110   8.267   7.529 -0.9006 -0.3329 -0.0383
  236MOL0     C31771   5.140   8.130   7.519  0.3703  0.4254 -0.0216
  236MOL0     O31772   5.082   7.847   7.405 -0.4077  0.4437  0.6625
  236MOL0     C31773   5.185   7.608   7.657 -0.6837 -0.4573 -0.1926
  236MOL0     C31774   5.192   7.468   7.679 -0.5219 -0.6937  1.0619
  236MOL0     N31775   4.668   7.123   7.815  0.4134  1.0054 -0.6246
  236MOL0     N31776   4.565   7.195   7.831  0.5942 -0.2376  0.6087
  236MOL0     C31777   4.246   8.134   8.276 -1.0743  0.9594  0.3246
  236MOL0     C31778   4.284   8.249   8.335  0.2165 -0.6082 -0.4557
  236MOL0     C31779   4.482   8.634   8.374  0.3438 -0.7914  0.3463
  236MOL0     C31780   4.398   8.748   8.380 -0.3418  0.0348 -0.5178
  236MOL0     C31781   4.438   8.874   8.430  0.6297 -0.2998 -0.5729
  236MOL0     C31782   4.570   8.885   8.474 -0.3680 -1.3313  0.2497
  236MOL0     O31783   4.624   9.006   8.519  0.3831 -0.3576  0.0406
  236MOL0     C31784   4.607   9.128   8.434  0.0685  0.6821 -0.1217
  236MOL0     C31785   4.692   9.147   8.306 -0.5902 -0.2244 -0.9771
  236MOL0     C31786   4.604   9.214   8.200  0.5347  0.2698 -0.7728
  236MOL0     C31787   4.539   9.350   8.244 -0.3183 -0.3762  0.1275
  236MOL0     C31788   4.455   9.399   8.137 -0.1337 -1.0149 -0.1671
  236MOL0     C31789   4.375   9.451   8.059  0.7010  0.3471  0.3330
  236MOL0     C31790   4.651   8.775   8.463 -0.1739  0.8786  0.2373
  236MOL0     C31791   4.614   8.647   8.425  0.1325 -0.1076  1.5833
  236MOL0     C31792   4.721   8.541   8.411  0.6950 -0.1350 -0.6042
  236MOL0     H31793   4.618   8.214   8.340  0.2910 -0.7174  1.9218
  236MOL0     H31794   4.553   7.988   8.254 -1.1879 -1.4075  1.2322
  236MOL0     H31795   4.152   7.885   8.260  1.8669 -3.4636  1.0726
  236MOL0     H31796   4.137   7.951   8.103  1.2609  1.1354  3.0289
  236MOL0     H31797   4.067   7.694   8.134 -2.1090  3.1267  1.0308
  236MOL0     H31798   4.242   7.667   8.165  1.1794  2.4289  2.4052
  236MOL0     H31799   4.294   7.762   7.941 -0.2188  1.6745  0.0691
  236MOL0     H31800   4.119   7.789   7.898 -2.6475 -2.6240  0.0538
  236MOL0     H31801   4.262   7.520   7.956 -0.4432 -0.2302  2.7009
  236MOL0     H31802   4.090   7.538   7.938 -0.4235  0.9242 -0.5800
  236MOL0     H31803   4.090   7.611   7.719 -0.6961 -0.5983  1.7647
  236MOL0     H31804   4.253   7.656   7.714 -1.6740  1.3466 -3.0329
  236MOL0     H31805   4.157   7.368   7.783 -4.7094  0.2781 -1.9990
  236MOL0     H31806   4.170   7.426   7.613  5.1732  0.5512 -1.2407
  236MOL0     H31807   4.404   7.416   7.793  0.1809  1.8762 -0.9287
  236MOL0     H31808   4.400   7.450   7.622 -0.7304 -0.3227 -1.3477
  236MOL0     H31809   4.295   7.192   7.727 -2.9026  2.7180 -1.3052
  236MOL0     H31810   4.363   7.207   7.567 -0.4314  3.1597 -0.7006
  236MOL0     H31811   4.596   7.154   7.513  1.3326  1.4233  0.8797
  236MOL0     H31812   4.841   6.944   7.733 -1.8409  0.0167  0.7423
  236MOL0     H31813   4.761   6.936   7.568 -1.5268 -0.0144 -0.6870
  236MOL0     H31814   4.872   7.113   7.492 -0.9831  3.0465  0.3873
  236MOL0     H31815   4.915   7.185   7.644  2.7418 -0.9900  0.4754
  236MOL0     H31816   5.062   6.941   7.523 -2.7535  0.2104 -1.0128
  236MOL0     H31817   5.079   7.016   7.683  1.2212 -0.0880 -0.4304
  236MOL0     H31818   5.091   7.169   7.416  2.1342 -1.0685 -0.2135
  236MOL0     H31819   5.240   7.098   7.474  1.0196 -0.0125  1.6646
  236MOL0     H31820   5.109   7.365   7.360  0.4135 -3.0551  1.1663
  236MOL0     H31821   5.082   7.616   7.325 -1.6906  3.8852  1.6785
  236MOL0     H31822   4.968   8.004   7.787 -0.2219 -0.9683  0.3084
  236MOL0     H31823   4.935   8.261   7.817  1.8290 -0.2374  1.2978
  236MOL0     H31824   5.166   8.568   7.648 -0.8160  1.8065  2.0453
  236MOL0     H31825   5.076   8.535   7.494 -0.8459  0.3605 -0.3512
  236MOL0     H31826   4.888   8.672   7.591  1.3864  0.7355 -2.9720
  236MOL0     H31827   4.989   8.708   7.729  0.8951  0.7317 -0.2867
  236MOL0     H31828   5.097   8.779   7.463 -1.0136 -1.5398  0.3226
  236MOL0     H31829   4.971   8.872   7.528  0.1438  0.8505  0.8310
  236MOL0     H31830   5.170   8.848   7.734 -1.3670 -0.3523 -0.1927
  236MOL0     H31831   5.139   8.995   7.641  1.3535 -0.2814 -0.3242
  236MOL0     H31832   5.335   8.776   7.594  0.9982  0.2940  3.3651
  236MOL0     H31833   5.360   8.940   7.647 -1.7844  1.9123  1.3053
  236MOL0     H31834   5.426   8.906   7.412  0.7149  0.3034  2.8355
  236MOL0     H31835   5.265   8.840   7.370 -1.0711 -1.3029  2.6898
  236MOL0     H31836   5.289   9.129   7.444  0.6487 -1.2082  0.4685
  236MOL0     H31837   5.160   9.035   7.389 -0.5475 -2.6745  0.2634
  236MOL0     H31838   5.285   9.184   7.215  0.3650 -0.3799 -0.4048
  236MOL0     H31839   5.426   9.079   7.231  0.1263 -2.2401 -0.3183
  236MOL0     H31840   5.148   8.343   7.462  0.0279 -0.1568  0.6753
  236MOL0     H31841   5.216   8.106   7.446  1.9398  1.5958  1.1700
  236MOL0     H31842   5.211   7.663   7.747  2.1803 -1.1313 -0.5182
  236MOL0     H31843   5.213   7.415   7.772  2.0364 -3.7996 -1.0735
  236MOL0     H31844   4.140   8.115   8.261 -0.5162 -1.0131 -1.4526
  236MOL0     H31845   4.200   8.310   8.366  0.9727  0.8107 -1.0941
  236MOL0     H31846   4.295   8.729   8.350  0.3906 -1.6769 -2.1493
  236MOL0     H31847   4.367   8.956   8.428  0.6149 -0.0242  3.2713
  236MOL0     H31848   4.647   9.203   8.503  1.3454 -1.6012  1.7933
  236MOL0     H31849   4.500   9.138   8.416 -0.1295 -1.3888 -0.3430
  236MOL0     H31850   4.731   9.052   8.269  1.6067 -0.7206  2.1926
  236MOL0     H31851   4.776   9.215   8.326 -1.2812  0.8253 -1.5121
  236MOL0     H31852   4.525   9.144   8.170  0.4471  1.2625 -3.0870
  236MOL0     H31853   4.662   9.217   8.107  1.1174 -1.8166 -0.5313
  236MOL0     H31854   4.482   9.343   8.337 -2.9073 -2.6372 -1.4560
  236MOL0     H31855   4.611   9.430   8.263  0.3647 -1.3166  1.7088
  236MOL0     H31856   4.291   9.481   7.999 -1.3026 -0.3516  2.6091
  236MOL0     H31857   4.753   8.795   8.495 -0.1831 -0.3562  1.1150
  236MOL0     H31858   4.704   8.457   8.479  1.1109  0.1521 -0.1414
  236MOL0     H31859   4.725   8.511   8.306  2.7142  0.5070 -0.7522
  236MOL0     H31860   4.820   8.577   8.438  0.8499 -0.9036 -0.1071
  237MOL0     O31861   6.857   2.016   3.178 -0.0960 -0.4483  0.0324
  237MOL0     C31862   6.891   1.911   3.139 -0.2160  0.5111  0.5817
  237MOL0     O31863   6.972   1.820   3.208  0.1836  0.2634  0.4499
  237MOL0     C31864   6.991   1.819   3.348 -0.4163  0.3843  0.5394
  237MOL0     C31865   7.097   1.733   3.389 -0.2277  0.2318  0.1201
  237MOL0     C31866   7.115   1.700   3.530 -0.0663  1.1508  1.2504
  237MOL0     C31867   7.035   1.766   3.626 -0.3381 -0.1652  0.3000
  237MOL0     O31868   7.069   1.729   3.758 -0.3370  0.2612 -0.0154
  237MOL0     C31869   7.021   1.822   3.859 -0.3279  1.2570 -0.5843
  237MOL0     C31870   7.099   1.786   3.991  0.0425 -0.2283 -0.0885
  237MOL0     C31871   7.066   1.649   4.051 -0.2339  0.0611  0.8336
  237MOL0     C31872   7.171   1.607   4.160  0.4597  0.0454  1.1852
  237MOL0     C31873   7.120   1.489   4.238 -0.1212 -0.1434  0.0302
  237MOL0     C31874   7.013   1.524   4.340  0.0325 -0.3057 -0.3785
  237MOL0     C31875   7.063   1.606   4.456 -0.0053  0.2691 -0.2890
  237MOL0     C31876   6.972   1.591   4.571 -1.2576  0.3440 -0.0491
  237MOL0     N31877   6.996   1.458   4.638 -0.0495 -0.2766  0.5747
  237MOL0     C31878   7.057   1.440   4.756 -1.3054  0.3676  0.7807
  237MOL0     C31879   7.011   1.322   4.806 -0.2165 -0.7184  1.7703
  237MOL0     C31880   7.021   1.266   4.948 -0.8036 -0.3732 -0.1466
  237MOL0     C31881   6.893   1.205   4.996 -0.1887 -0.1968  0.1777
  237MOL0     C31882   6.910   1.121   5.131  0.5928 -0.4178  0.1763
  237MOL0     C31883   6.855   1.207   5.250 -0.6064 -0.1992 -0.1849
  237MOL0     O31884   6.947   1.319   5.262  0.1566  0.4981  1.2178
  237MOL0     C31885   7.009   1.324   5.379 -0.7166 -0.4775  0.1799
  237MOL0     C31886   6.977   1.434   5.467  0.6828 -0.4610 -0.7572
  237MOL0     C31887   7.031   1.443   5.596  0.3609 -0.1231  1.2195
  237MOL0     C31888   7.131   1.350   5.626  0.3143 -0.2786  0.7379
  237MOL0     C31889   7.202   1.356   5.754 -1.1822 -1.1940  0.8191
  237MOL0     O31890   7.330   1.297   5.756 -0.4235 -0.6517  0.2215
  237MOL0     C31891   7.419   1.293   5.860 -0.7830 -0.1535  0.1314
  237MOL0     C31892   7.497   1.179   5.867  0.3725  0.1644  0.1482
  237MOL0     C31893   7.569   1.172   5.984 -0.1916  0.5302 -1.4335
  237MOL0     C31894   7.575   1.267   6.092  0.0083  0.5674  0.4518
  237MOL0     O31895   7.653   1.230   6.201 -0.2961  0.1383  0.4936
  237MOL0     C31896   7.764   1.314   6.236  0.3010 -0.4641  0.8207
  237MOL0     C31897   7.753   1.371   6.374 -0.1720  0.4993  0.1183
  237MOL0     C31898   7.628   1.458   6.399 -0.5381  0.4113  0.2858
  237MOL0     C31899   7.589   1.482   6.549  0.6325  0.6939 -0.2931
  237MOL0     C31900   7.468   1.583   6.546  0.6140 -0.4561 -0.6367
  237MOL0     C31901   7.374   1.554   6.659  1.0269 -0.6631 -0.3045
  237MOL0     C31902   7.446   1.547   6.799 -0.3055  0.2227 -0.4669
  237MOL0     C31903   7.503   1.687   6.854 -1.6129  0.3974 -0.0639
  237MOL0    Cl31904   7.678   1.684   6.889 -0.2643 -0.5383 -0.2968
  237MOL0     C31905   7.491   1.380   6.077 -1.6349  0.8456  0.1710
  237MOL0     C31906   7.427   1.400   5.954 -0.0653  0.4058 -0.7942
  237MOL0     O31907   7.143   1.403   5.852 -0.8801 -0.3392 -0.6732
  237MOL0     C31908   7.167   1.246   5.536 -0.0260  0.0873 -1.3006
  237MOL0     C31909   7.101   1.231   5.417 -0.1875 -0.2384  0.0425
  237MOL0     N31910   6.939   1.259   4.706 -0.9777 -0.4034  0.0241
  237MOL0     N31911   6.927   1.342   4.607 -0.4434  0.6135 -0.1087
  237MOL0     C31912   6.950   1.873   3.579 -0.2136  0.9021 -0.3427
  237MOL0     C31913   6.933   1.903   3.442  0.1042 -0.4022 -0.6021
  237MOL0     C31914   6.870   1.882   2.987  1.0656  0.0699  0.2322
  237MOL0     C31915   6.947   1.775   2.943  0.3517 -0.4555  0.5955
  237MOL0     C31916   6.932   1.725   2.815  0.0224  0.2169  0.4643
  237MOL0     C31917   6.851   1.787   2.718  0.4337  0.3985 -0.3489
  237MOL0     O31918   6.857   1.732   2.591 -0.3929 -0.9390 -0.0852
  237MOL0     C31919   6.829   1.818   2.479  0.0176 -0.1105  0.7609
  237MOL0     C31920   6.721   1.760   2.383 -0.1689 -0.0553 -0.5553
  237MOL0     C31921   6.670   1.850   2.275  0.6409  0.2687 -0.7399
  237MOL0     C31922   6.598   1.977   2.319  0.4357  0.1054 -0.4688
  237MOL0     C31923   6.508   2.015   2.211 -0.0967 -1.3909  0.3161
  237MOL0     C31924   6.434   2.034   2.112  0.0723  0.1855  0.7183
  237MOL0     C31925   6.753   1.881   2.767 -1.0523 -1.1922 -0.1713
  237MOL0     C31926   6.765   1.930   2.903 -0.1289  0.3982  0.7552
  237MOL0     C31927   6.666   2.037   2.946 -0.5594  0.9478 -0.5246
  237MOL0     H31928   7.158   1.691   3.310 -2.8626 -2.7794 -0.5211
  237MOL0     H31929   7.197   1.637   3.563  0.4827  0.6301 -0.9216
  237MOL0     H31930   7.047   1.926   3.839  1.2892  1.1543  0.7234
  237MOL0     H31931   6.912   1.819   3.864 -0.3012  0.0206 -0.1702
  237MOL0     H31932   7.068   1.859   4.067 -1.1652  0.1144 -0.8913
  237MOL0     H31933   7.206   1.793   3.965  0.1588 -0.0265  0.4264
  237MOL0     H31934   7.066   1.575   3.971 -1.9475  1.4027 -0.4627
  237MOL0     H31935   6.965   1.638   4.091 -1.8119 -4.0983 -3.4394
  237MOL0     H31936   7.259   1.573   4.104  2.2754  2.7661  2.1927
  237MOL0     H31937   7.200   1.686   4.229 -0.1308  2.9398 -1.6324
  237MOL0     H31938   7.075   1.410   4.177  1.3924 -0.3836 -0.8300
  237MOL0     H31939   7.213   1.448   4.279  0.9609  1.7394 -0.4362
  237MOL0     H31940   6.925   1.577   4.302 -2.2840  0.6084  5.2022
  237MOL0     H31941   6.969   1.432   4.378  0.6360 -1.0709 -1.5115
  237MOL0     H31942   7.082   1.710   4.429  4.4571 -0.7826 -2.0427
  237MOL0     H31943   7.162   1.567   4.483 -0.3779 -0.5251 -0.0300
  237MOL0     H31944   6.993   1.666   4.648  0.3407 -1.6221  1.5473
  237MOL0     H31945   6.868   1.590   4.537 -0.6018 -2.8346 -2.3126
  237MOL0     H31946   7.134   1.503   4.798  4.1541 -3.4712 -2.2045
  237MOL0     H31947   7.100   1.190   4.953 -0.6496 -0.1720  4.2491
  237MOL0     H31948   7.058   1.346   5.012  2.0818  0.1847 -2.3278
  237MOL0     H31949   6.806   1.271   5.003 -1.8185 -2.3552  1.7302
  237MOL0     H31950   6.857   1.146   4.910 -2.8870 -0.3231  1.3057
  237MOL0     H31951   7.013   1.087   5.145  0.2338 -1.5223  0.2347
  237MOL0     H31952   6.843   1.034   5.127  0.4890 -0.3425  0.2708
  237MOL0     H31953   6.864   1.145   5.340  3.0005 -1.1342 -1.0443
  237MOL0     H31954   6.751   1.238   5.232 -0.4317 -0.2430 -1.3403
  237MOL0     H31955   6.911   1.514   5.435  2.2074  0.7259 -1.0261
  237MOL0     H31956   6.997   1.528   5.654  1.6269 -0.0489  1.8725
  237MOL0     H31957   7.496   1.104   5.789  2.8519  1.1889 -0.9857
  237MOL0     H31958   7.626   1.087   6.019  0.3176  1.5790  0.3967
  237MOL0     H31959   7.860   1.262   6.239  1.7954  2.0508 -0.3406
  237MOL0     H31960   7.771   1.394   6.162  2.4039 -1.2652  0.0780
  237MOL0     H31961   7.749   1.288   6.444  1.8753  0.9809  0.8691
  237MOL0     H31962   7.848   1.421   6.397  1.0419 -2.7774  3.1004
  237MOL0     H31963   7.651   1.559   6.366 -0.7240 -0.1024 -1.5241
  237MOL0     H31964   7.546   1.412   6.343 -0.5309  0.5936  0.1267
  237MOL0     H31965   7.667   1.533   6.606  1.1324  0.3366 -0.6483
  237MOL0     H31966   7.574   1.383   6.592  4.8267  0.0157  0.0331
  237MOL0     H31967   7.407   1.577   6.455 -0.7022  1.0891  0.1021
  237MOL0     H31968   7.501   1.687   6.549  1.6933 -0.8201  0.8804
  237MOL0     H31969   7.301   1.637   6.657 -0.8623 -2.2544 -1.0282
  237MOL0     H31970   7.318   1.463   6.637 -1.6234  0.5021  1.0839
  237MOL0     H31971   7.531   1.479   6.806  1.0919  1.9093 -0.3672
  237MOL0     H31972   7.367   1.510   6.865  0.9850 -1.7000  0.0821
  237MOL0     H31973   7.479   1.763   6.779  4.3685  0.4624 -2.5116
  237MOL0     H31974   7.461   1.720   6.949  1.4067  1.8407  0.8892
  237MOL0     H31975   7.479   1.459   6.150 -2.2290  1.4080 -0.5195
  237MOL0     H31976   7.366   1.489   5.944 -1.3321 -0.4102 -0.4738
  237MOL0     H31977   7.243   1.174   5.565 -0.4998 -0.4806 -1.4459
  237MOL0     H31978   7.132   1.152   5.350  1.0355  0.2098  0.0485
  237MOL0     H31979   6.897   1.930   3.656 -3.0432 -1.7859 -0.0954
  237MOL0     H31980   6.861   1.980   3.417 -2.1708 -2.4144 -0.6536
  237MOL0     H31981   7.024   1.729   3.005  0.1823  0.3794  1.4446
  237MOL0     H31982   7.000   1.649   2.778  1.4680  1.5718  0.2252
  237MOL0     H31983   6.919   1.819   2.417 -1.1881  0.3282 -1.0609
  237MOL0     H31984   6.798   1.919   2.508  1.2439 -0.0954  2.1700
  237MOL0     H31985   6.636   1.720   2.439 -0.3411  1.3021  0.1997
  237MOL0     H31986   6.759   1.673   2.329  1.0833  1.0062 -1.4364
  237MOL0     H31987   6.611   1.794   2.201  2.0595 -1.8909 -0.3344
  237MOL0     H31988   6.751   1.886   2.211 -1.9188  0.2015 -4.3314
  237MOL0     H31989   6.536   1.953   2.406 -2.2482  0.7391 -2.0968
  237MOL0     H31990   6.671   2.057   2.340 -1.4028  1.1233  2.7089
  237MOL0     H31991   6.378   2.035   2.021  3.3909 -1.1488 -1.5417
  237MOL0     H31992   6.681   1.931   2.704 -2.0541 -0.0974  1.7407
  237MOL0     H31993   6.600   2.069   2.864  0.8039  0.7139 -1.7739
  237MOL0     H31994   6.616   2.004   3.037 -0.1150 -1.8763 -1.2236
  237MOL0     H31995   6.738   2.117   2.969  2.4033 -0.7410 -3.1127
  238MOL0     O31996   7.505  11.455   0.139 -0.9219 -0.5301  0.1868
  238MOL0     C31997   7.515  11.372   0.047  0.3834 -0.5738 -0.3096
  238MOL0     O31998   7.436  11.362  -0.065 -0.2607  0.9950 -1.3019
  238MOL0     C31999   7.326  11.439  -0.068  0.4594  0.3332 -0.2569
  238MOL0     C32000   7.240  11.445   0.037  0.0506  0.3723  0.3252
  238MOL0     C32001   7.125  11.520   0.032 -0.6143 -0.3529 -1.1767
  238MOL0     C32002   7.088  11.568  -0.083  0.6397  0.0702  0.3894
  238MOL0     O32003   6.957  11.600  -0.094  0.3214 -0.4872  0.0390
  238MOL0     C32004   6.892  11.523  -0.189  0.7750 -0.1588  0.0726
  238MOL0     C32005   6.742  11.550  -0.194  0.1809  0.6345  0.3258
  238MOL0     C32006   6.670  11.481  -0.313 -0.5438  0.1244  0.3421
  238MOL0     C32007   6.544  11.565  -0.336  0.5765  0.3099 -0.2737
  238MOL0     C32008   6.445  11.535  -0.232  0.7507  0.3789 -1.2910
  238MOL0     C32009   6.424  11.666  -0.150 -0.3730 -0.5758  0.2733
  238MOL0     C32010   6.346  11.639  -0.017 -0.3889 -0.6467 -0.6502
  238MOL0     C32011   6.354  11.771   0.065  0.8404 -0.2760  0.6192
  238MOL0     N32012   6.273  11.886   0.015  0.0057 -0.2098  0.6763
  238MOL0     C32013   6.172  11.896  -0.076  0.4835 -0.0086 -0.7255
  238MOL0     C32014   6.126  12.029  -0.069 -0.3644  1.0783  0.8319
  238MOL0     C32015   6.007  12.076  -0.152 -1.3493  0.3649  0.0278
  238MOL0     C32016   5.894  12.106  -0.057 -1.1422  0.5532  0.5874
  238MOL0     C32017   5.913  12.254  -0.013  0.7641  0.6206  0.0844
  238MOL0     C32018   5.800  12.292   0.092  0.3715  0.1049  0.3738
  238MOL0     O32019   5.821  12.429   0.153 -0.1481 -0.0621  0.1918
  238MOL0     C32020   5.705  12.485   0.197  0.3991 -1.1093 -0.1611
  238MOL0     C32021   5.719  12.621   0.213  0.4661  0.0293 -0.0820
  238MOL0     C32022   5.602  12.704   0.249 -0.8602  0.7234  0.4149
  238MOL0     C32023   5.483  12.647   0.283 -0.3830 -0.0764 -0.0923
  238MOL0     C32024   5.375  12.727   0.332 -0.9952  0.8442 -0.2353
  238MOL0     O32025   5.413  12.851   0.367  0.1601  0.2391 -0.2659
  238MOL0     C32026   5.346  12.939   0.440 -0.0594  1.2811  0.2646
  238MOL0     C32027   5.390  13.076   0.454  0.1235  0.9474 -0.7441
  238MOL0     C32028   5.323  13.168   0.521  0.7456  1.5462 -0.7125
  238MOL0     C32029   5.205  13.129   0.587  0.9167 -0.1331  0.2911
  238MOL0     O32030   5.127  13.222   0.655 -0.3707  0.7616 -0.1375
  238MOL0     C32031   5.194  13.302   0.755 -0.6444  0.8390 -1.0717
  238MOL0     C32032   5.148  13.281   0.902  0.0408  0.3916  1.0540
  238MOL0     C32033   4.997  13.269   0.923 -0.2305 -0.1510  0.8065
  238MOL0     C32034   4.920  13.368   0.832  0.2990 -0.3768 -0.0489
  238MOL0     C32035   4.966  13.517   0.863  0.5957  0.1114  0.1776
  238MOL0     C32036   4.945  13.581   0.999 -0.8998  0.7301 -0.3951
  238MOL0     C32037   4.793  13.590   1.046  0.5171 -0.3372 -0.7048
  238MOL0     C32038   4.787  13.610   1.197  0.4624 -0.6243 -0.8197
  238MOL0    Cl32039   4.805  13.458   1.299 -0.3946  0.6671 -0.2604
  238MOL0     C32040   5.153  13.007   0.581  0.5828  0.6605  1.1213
  238MOL0     C32041   5.217  12.918   0.496  0.6998  0.8268 -0.4289
  238MOL0     O32042   5.264  12.675   0.350 -0.5142  0.3424 -0.0873
  238MOL0     C32043   5.472  12.506   0.264  0.1662 -0.6565 -0.1409
  238MOL0     C32044   5.579  12.426   0.213  0.6288  0.1828  0.1771
  238MOL0     N32045   6.203  12.100   0.024  0.3410  0.2481 -0.6834
  238MOL0     N32046   6.296  12.012   0.068  0.2318  0.1510  0.7937
  238MOL0     C32047   7.169  11.555  -0.199 -0.2877  0.4031  0.7516
  238MOL0     C32048   7.295  11.492  -0.191  0.2949  0.2065 -0.8942
  238MOL0     C32049   7.638  11.279   0.039  0.5210 -0.2463 -0.1988
  238MOL0     C32050   7.686  11.242  -0.091 -1.3808 -0.4305  0.4167
  238MOL0     C32051   7.800  11.164  -0.103 -0.1755  0.3827  0.6583
  238MOL0     C32052   7.864  11.118   0.013  0.0922 -0.5500 -0.7530
  238MOL0     O32053   7.989  11.078  -0.009 -0.4890  0.5493  0.0805
  238MOL0     C32054   8.051  10.982   0.079 -1.1412  0.2788 -0.1933
  238MOL0     C32055   8.181  10.934   0.009  0.5240  0.0226 -0.2034
  238MOL0     C32056   8.232  10.816   0.080 -0.2696 -0.2025 -0.2277
  238MOL0     C32057   8.350  10.747   0.014  0.4752 -0.1067 -0.0985
  238MOL0     C32058   8.360  10.611   0.042 -0.6129 -0.3136 -0.2492
  238MOL0     C32059   8.383  10.491   0.062  0.5352  0.1738 -0.2407
  238MOL0     C32060   7.820  11.137   0.142  1.4288 -0.2890  0.6050
  238MOL0     C32061   7.713  11.230   0.147 -0.2174 -0.0380 -0.1742
  238MOL0     C32062   7.675  11.280   0.291  0.4495  0.5761 -0.1373
  238MOL0     H32063   7.269  11.384   0.122  3.9975 -0.7582 -1.5939
  238MOL0     H32064   7.052  11.517   0.112  0.5627  1.9711  0.0844
  238MOL0     H32065   6.928  11.539  -0.291  1.1590  1.5479  0.4439
  238MOL0     H32066   6.897  11.417  -0.163 -2.8410  0.0491  2.2923
  238MOL0     H32067   6.731  11.658  -0.201  1.1475  0.7623  0.6385
  238MOL0     H32068   6.706  11.511  -0.099  3.0623  0.3176  1.3986
  238MOL0     H32069   6.641  11.379  -0.286  0.9805 -0.2309  0.7191
  238MOL0     H32070   6.736  11.482  -0.400  1.9094 -4.0603  1.8576
  238MOL0     H32071   6.562  11.672  -0.345 -1.1640  0.9221  2.4214
  238MOL0     H32072   6.506  11.524  -0.430  2.6061 -1.2235 -0.4797
  238MOL0     H32073   6.344  11.505  -0.261 -0.0667  1.0151  0.7240
  238MOL0     H32074   6.474  11.456  -0.162 -2.5030  0.8985  0.8372
  238MOL0     H32075   6.516  11.718  -0.123 -1.2980  1.5619 -0.4771
  238MOL0     H32076   6.367  11.735  -0.212  3.1725  1.7393 -0.7122
  238MOL0     H32077   6.408  11.558   0.023  0.2103 -0.2202 -0.6946
  238MOL0     H32078   6.242  11.610  -0.032 -1.1443  1.7137 -0.3245
  238MOL0     H32079   6.320  11.740   0.164  4.8819  0.6589  2.5310
  238MOL0     H32080   6.459  11.799   0.076  1.4951 -3.2643  3.3320
  238MOL0     H32081   6.126  11.813  -0.128 -2.1576 -1.2011  3.0733
  238MOL0     H32082   6.046  12.154  -0.218 -2.3827 -0.9677 -2.3010
  238MOL0     H32083   5.986  11.991  -0.217 -1.7688 -0.9606  1.8236
  238MOL0     H32084   5.796  12.095  -0.105 -0.9482 -2.1095  0.6539
  238MOL0     H32085   5.901  12.032   0.023 -2.7139  0.8821  1.0623
  238MOL0     H32086   5.918  12.321  -0.099  0.9216  1.6390  0.8774
  238MOL0     H32087   6.006  12.255   0.044  0.3832 -1.6768  0.8756
  238MOL0     H32088   5.797  12.221   0.174  2.8188  1.6960  1.9934
  238MOL0     H32089   5.706  12.291   0.037  0.6559 -2.4897 -0.1939
  238MOL0     H32090   5.816  12.666   0.197  1.2691 -1.9620 -1.2503
  238MOL0     H32091   5.601  12.812   0.257 -4.5175  0.8585 -0.3774
  238MOL0     H32092   5.486  13.093   0.406  0.4014 -0.7763 -0.8823
  238MOL0     H32093   5.346  13.274   0.527 -0.3907  1.7755 -0.1607
  238MOL0     H32094   5.299  13.271   0.752 -0.9419 -0.2009 -1.3271
  238MOL0     H32095   5.195  13.408   0.728  3.0508  0.9463 -0.9723
  238MOL0     H32096   5.185  13.188   0.945 -3.8203 -1.5195  0.6210
  238MOL0     H32097   5.188  13.364   0.962  2.8788 -0.0278 -0.0886
  238MOL0     H32098   4.973  13.172   0.878  1.7481 -0.1468 -0.3797
  238MOL0     H32099   4.958  13.287   1.024 -3.6027 -0.5762 -0.2984
  238MOL0     H32100   4.814  13.372   0.858  0.1966 -3.8850  0.5802
  238MOL0     H32101   4.929  13.345   0.726 -1.4493  1.6399 -0.7093
  238MOL0     H32102   4.901  13.577   0.798  0.1837 -2.2769 -1.7858
  238MOL0     H32103   5.068  13.544   0.836  0.6991  2.3830  2.4664
  238MOL0     H32104   4.996  13.520   1.074 -0.0846  0.8312 -0.8553
  238MOL0     H32105   4.992  13.680   1.000  0.2654  0.1935 -0.6499
  238MOL0     H32106   4.731  13.500   1.049  0.5997 -0.4720  3.4168
  238MOL0     H32107   4.739  13.671   0.997  0.6070  1.3199  1.7338
  238MOL0     H32108   4.862  13.681   1.233 -0.0009 -0.0585 -0.9561
  238MOL0     H32109   4.686  13.643   1.225  0.7643 -0.2368 -0.1822
  238MOL0     H32110   5.065  12.983   0.641 -2.0416  3.6068 -1.1828
  238MOL0     H32111   5.176  12.817   0.494 -0.2437  1.1347  1.5194
  238MOL0     H32112   5.380  12.452   0.285 -1.1860  2.0330  1.2982
  238MOL0     H32113   5.550  12.333   0.165  1.3282 -0.0796  0.2492
  238MOL0     H32114   7.140  11.610  -0.288  3.3835  0.6513 -0.4885
  238MOL0     H32115   7.374  11.499  -0.265 -1.4721  3.2990 -2.7043
  238MOL0     H32116   7.635  11.276  -0.180 -4.4494 -2.2091  1.3344
  238MOL0     H32117   7.838  11.135  -0.200 -1.5478 -3.6968  1.1059
  238MOL0     H32118   7.987  10.895   0.096  1.4477 -1.3400  2.3770
  238MOL0     H32119   8.063  11.051   0.163 -2.7877 -1.3534  1.4786
  238MOL0     H32120   8.255  11.015   0.000  0.3029  0.1969 -0.4689
  238MOL0     H32121   8.144  10.913  -0.092  1.6468 -2.0205 -0.2573
  238MOL0     H32122   8.153  10.740   0.082 -3.0347  2.4624 -0.8120
  238MOL0     H32123   8.247  10.840   0.186 -3.1219 -2.7261  0.9160
  238MOL0     H32124   8.329  10.760  -0.092 -0.3988  2.0212  0.2933
  238MOL0     H32125   8.448  10.789   0.040  0.9871 -0.2992 -1.6324
  238MOL0     H32126   8.424  10.398   0.096  0.6983  0.9112  1.7035
  238MOL0     H32127   7.863  11.097   0.233 -0.1365  0.5824  1.7834
  238MOL0     H32128   7.682  11.389   0.294 -1.2717  0.7028  1.5896
  238MOL0     H32129   7.576  11.243   0.319  0.0059  0.2475 -1.9852
  238MOL0     H32130   7.741  11.231   0.363 -0.0055 -0.3348 -0.3211
  239MOL0     O32131   8.335   6.192  11.290  0.2595  0.4856  0.2719
  239MOL0     C32132   8.260   6.093  11.300 -0.7098  0.5175 -0.0556
  239MOL0     O32133   8.133   6.083  11.340 -0.9400 -0.2487 -0.1198
  239MOL0     C32134   8.078   6.198  11.380  0.8094 -0.7065 -0.2252
  239MOL0     C32135   8.060   6.309  11.299 -0.2592 -0.8418 -0.6641
  239MOL0     C32136   8.015   6.431  11.348 -0.2059 -0.2242 -0.0866
  239MOL0     C32137   7.978   6.446  11.491 -0.1116  1.1758  0.5503
  239MOL0     O32138   7.907   6.557  11.521  0.7333  0.8133  0.2692
  239MOL0     C32139   7.803   6.552  11.613 -0.5311  0.7607  0.7712
  239MOL0     C32140   7.772   6.697  11.651  0.0321  0.3976 -0.8301
  239MOL0     C32141   7.741   6.788  11.542  0.4918 -0.0194 -1.0445
  239MOL0     C32142   7.797   6.930  11.561  0.6388  0.3256  0.6644
  239MOL0     C32143   7.762   7.045  11.460 -0.1719 -0.8168  0.1220
  239MOL0     C32144   7.831   7.015  11.324  0.7415  0.1739  0.2126
  239MOL0     C32145   7.805   7.127  11.222  0.3104  0.0693  0.6296
  239MOL0     C32146   7.672   7.111  11.156  1.0437  0.2222 -0.4578
  239MOL0     N32147   7.653   7.228  11.073 -0.1052  0.3200 -0.3900
  239MOL0     C32148   7.631   7.357  11.123  0.6404  0.0139  0.2691
  239MOL0     C32149   7.600   7.431  11.013 -0.0648 -0.0261  0.7483
  239MOL0     C32150   7.605   7.577  10.999 -1.0580 -0.6695  0.1312
  239MOL0     C32151   7.687   7.647  11.106  0.5545  0.0042 -1.1007
  239MOL0     C32152   7.674   7.801  11.105 -0.1580  0.5138 -0.1653
  239MOL0     C32153   7.811   7.873  11.072 -0.5026 -0.0131 -0.2946
  239MOL0     O32154   7.803   8.012  11.053  1.2004 -0.3463  0.3910
  239MOL0     C32155   7.723   8.064  11.149 -0.2717 -0.2917 -0.3690
  239MOL0     C32156   7.606   8.114  11.106  0.4161 -0.0995  0.3401
  239MOL0     C32157   7.509   8.153  11.199 -0.1787 -0.6421 -0.4790
  239MOL0     C32158   7.550   8.189  11.332 -0.5869  0.1642  0.5024
  239MOL0     C32159   7.460   8.242  11.437  0.2230 -0.0861  0.8631
  239MOL0     O32160   7.508   8.268  11.569 -1.3102  0.6556 -0.0790
  239MOL0     C32161   7.412   8.295  11.669  0.3530 -0.0383  0.8740
  239MOL0     C32162   7.403   8.421  11.732  0.4641  0.6144 -0.0140
  239MOL0     C32163   7.299   8.446  11.816  0.3240  0.2739 -0.6490
  239MOL0     C32164   7.203   8.354  11.856  0.7012 -0.4198 -0.1227
  239MOL0     O32165   7.110   8.377  11.955 -0.5642  0.0654  0.5607
  239MOL0     C32166   7.171   8.410  12.080  0.0963 -1.4025  0.8529
  239MOL0     C32167   7.052   8.428  12.170  0.7742 -0.3172 -0.3768
  239MOL0     C32168   6.994   8.293  12.192 -0.0054  0.0327 -0.4855
  239MOL0     C32169   6.881   8.292  12.299 -0.0556  0.2491 -0.1608
  239MOL0     C32170   6.789   8.174  12.303  0.2634  0.6076  0.5879
  239MOL0     C32171   6.692   8.173  12.415  0.1410 -0.0149 -0.3152
  239MOL0     C32172   6.754   8.141  12.554 -0.4017  0.0652  0.2537
  239MOL0     C32173   6.687   8.021  12.621  1.0422 -0.8655 -0.3003
  239MOL0    Cl32174   6.746   7.880  12.527  0.2798  0.5838 -0.7508
  239MOL0     C32175   7.223   8.228  11.811 -0.2763  0.0786 -0.3312
  239MOL0     C32176   7.323   8.198  11.716 -0.0898  0.5682 -0.3849
  239MOL0     O32177   7.344   8.266  11.403 -0.0523 -0.1764 -0.4033
  239MOL0     C32178   7.678   8.147  11.370 -0.0623 -0.1909  0.4964
  239MOL0     C32179   7.765   8.082  11.284 -0.0292 -0.1229  0.5662
  239MOL0     N32180   7.600   7.346  10.903  0.5721 -0.1661  0.2293
  239MOL0     N32181   7.629   7.224  10.942 -0.3671 -0.7334 -0.2973
  239MOL0     C32182   7.995   6.333  11.574  0.2627  0.0217  1.0608
  239MOL0     C32183   8.036   6.211  11.512 -0.9751  0.2890 -0.1612
  239MOL0     C32184   8.317   5.976  11.255  0.0285  0.1596  0.5248
  239MOL0     C32185   8.435   5.933  11.317 -0.1720 -0.3899  0.3287
  239MOL0     C32186   8.511   5.820  11.268 -0.4568  0.0937 -0.3932
  239MOL0     C32187   8.455   5.762  11.155 -0.3567 -0.0383 -0.2465
  239MOL0     O32188   8.506   5.645  11.102  0.5872  0.0790  0.7525
  239MOL0     C32189   8.600   5.566  11.169  0.1787  0.8468  0.3307
  239MOL0     C32190   8.677   5.486  11.070 -0.3178 -0.6377  0.6506
  239MOL0     C32191   8.773   5.581  10.986  0.5791  0.8252  0.0163
  239MOL0     C32192   8.815   5.517  10.851  0.0918  1.0020 -0.1347
  239MOL0     C32193   8.905   5.395  10.844  0.0135 -0.1736 -0.4606
  239MOL0     C32194   8.956   5.290  10.851  0.4240  0.8429 -0.8605
  239MOL0     C32195   8.340   5.796  11.100 -0.1968  0.0920  0.4074
  239MOL0     C32196   8.262   5.893  11.153 -0.0165 -0.2053 -0.9105
  239MOL0     C32197   8.128   5.924  11.089  1.0934 -0.1584 -0.3532
  239MOL0     H32198   8.090   6.304  11.195  2.3512  3.9455 -0.4362
  239MOL0     H32199   7.994   6.517  11.285 -3.2009  0.8981  2.2044
  239MOL0     H32200   7.709   6.502  11.587  0.0161 -0.5886  1.2713
  239MOL0     H32201   7.833   6.500  11.705 -2.1273  0.0452  0.9431
  239MOL0     H32202   7.852   6.734  11.715 -0.3344 -2.3513  1.3962
  239MOL0     H32203   7.678   6.691  11.706 -1.3253 -2.2838 -3.1957
  239MOL0     H32204   7.635   6.787  11.517  1.3702 -1.4355 -5.7830
  239MOL0     H32205   7.784   6.747  11.450 -2.3407  0.5002 -2.7198
  239MOL0     H32206   7.778   6.959  11.664 -2.4297 -2.4587  1.0504
  239MOL0     H32207   7.907   6.930  11.564  0.8617  1.1733 -2.7969
  239MOL0     H32208   7.652   7.040  11.457 -0.7685  2.8270  4.6430
  239MOL0     H32209   7.781   7.144  11.502  0.7126 -1.9531  2.5862
  239MOL0     H32210   7.937   7.006  11.346  0.5844  2.8731  2.6811
  239MOL0     H32211   7.802   6.917  11.285  3.2733 -0.6707  0.3102
  239MOL0     H32212   7.877   7.111  11.140  0.0799  0.9964  0.2314
  239MOL0     H32213   7.820   7.224  11.270 -3.5197  0.6265  0.9660
  239MOL0     H32214   7.671   7.018  11.098 -0.7688 -1.4913  2.0763
  239MOL0     H32215   7.586   7.100  11.223  1.4838 -1.5875 -0.1366
  239MOL0     H32216   7.653   7.400  11.221  1.2020 -0.4034  0.3360
  239MOL0     H32217   7.651   7.600  10.902  0.3184 -1.1200  0.6511
  239MOL0     H32218   7.505   7.621  10.999 -0.9374 -0.3905  0.5528
  239MOL0     H32219   7.663   7.612  11.207  1.1774 -0.4929 -1.1162
  239MOL0     H32220   7.791   7.617  11.088  0.4179 -0.0581 -1.8066
  239MOL0     H32221   7.644   7.840  11.202  1.5013  1.4991 -0.0117
  239MOL0     H32222   7.598   7.845  11.040  0.9447 -2.2473 -3.7331
  239MOL0     H32223   7.867   7.839  10.984 -3.1300  3.0633 -3.4293
  239MOL0     H32224   7.872   7.857  11.162 -2.3863  1.0117  1.2163
  239MOL0     H32225   7.592   8.109  10.999  1.7541 -5.7456  0.0784
  239MOL0     H32226   7.412   8.185  11.161  0.6546  1.1673 -1.2027
  239MOL0     H32227   7.481   8.490  11.699  3.5770 -1.9419  1.4438
  239MOL0     H32228   7.294   8.545  11.860 -0.0762  0.3622 -0.8931
  239MOL0     H32229   7.243   8.336  12.118  0.4550 -0.1273  2.7753
  239MOL0     H32230   7.245   8.490  12.071 -0.8391 -0.7133 -1.3466
  239MOL0     H32231   7.083   8.477  12.262 -0.1370  0.1414 -0.2958
  239MOL0     H32232   6.979   8.499  12.128  0.1684  1.5962  3.5043
  239MOL0     H32233   6.944   8.260  12.100 -0.4136  0.2029 -0.3277
  239MOL0     H32234   7.076   8.230  12.226  1.6832  1.0397 -2.4457
  239MOL0     H32235   6.825   8.385  12.294  1.5253  1.2311 -0.1949
  239MOL0     H32236   6.926   8.294  12.398  1.5902 -4.4171 -0.5363
  239MOL0     H32237   6.838   8.076  12.304  1.9168  1.4091  0.7175
  239MOL0     H32238   6.726   8.172  12.213  0.6090 -0.4856  0.3514
  239MOL0     H32239   6.651   8.274  12.421 -0.8480 -0.4528  0.5644
  239MOL0     H32240   6.606   8.110  12.391  0.6796 -1.3207  0.9770
  239MOL0     H32241   6.743   8.231  12.617  1.5034  0.2021  0.4730
  239MOL0     H32242   6.861   8.123  12.538 -0.6128  0.9467 -2.8085
  239MOL0     H32243   6.723   8.002  12.722 -1.8932  1.3074  1.3197
  239MOL0     H32244   6.578   8.018  12.627  1.1076 -4.2043  2.6437
  239MOL0     H32245   7.159   8.147  11.845  1.1248 -0.3674  1.3943
  239MOL0     H32246   7.338   8.096  11.682 -1.3011  0.2703 -0.0695
  239MOL0     H32247   7.715   8.173  11.469  1.9278 -2.9480  0.5715
  239MOL0     H32248   7.861   8.061  11.329 -0.8138 -0.2161  2.2679
  239MOL0     H32249   7.972   6.341  11.680 -1.4494  2.7504  0.5878
  239MOL0     H32250   8.037   6.119  11.569  1.9372 -2.3518 -3.9677
  239MOL0     H32251   8.474   5.994  11.398  0.4539 -0.6551  0.2354
  239MOL0     H32252   8.607   5.793  11.311  0.2446  0.2421 -1.8093
  239MOL0     H32253   8.563   5.500  11.248  2.7943  0.6495  1.5067
  239MOL0     H32254   8.675   5.629  11.217 -0.1299  0.7249  0.9834
  239MOL0     H32255   8.610   5.418  11.016  0.4295 -2.9116  2.4093
  239MOL0     H32256   8.744   5.413  11.118  0.5666  1.6625  3.1395
  239MOL0     H32257   8.859   5.615  11.045 -0.3926 -0.6090  2.4051
  239MOL0     H32258   8.704   5.657  10.948 -1.9516 -1.1588  0.3965
  239MOL0     H32259   8.735   5.483  10.784  1.5586 -0.9001 -1.0082
  239MOL0     H32260   8.860   5.604  10.803 -0.8822  1.7229  0.2089
  239MOL0     H32261   9.021   5.212  10.887 -1.5085 -0.1007  0.7868
  239MOL0     H32262   8.310   5.739  11.013  2.7143  0.7241 -1.1569
  239MOL0     H32263   8.123   6.030  11.063  1.7542 -0.1009 -0.2479
  239MOL0     H32264   8.119   5.865  10.998 -0.1330  0.6396 -0.7726
  239MOL0     H32265   8.046   5.891  11.154 -0.4134  1.0303 -1.5799
  240MOL0     O32266   7.509  11.023   9.745 -0.0479 -0.5798 -0.3017
  240MOL0     C32267   7.629  11.030   9.737  0.8869 -0.8433 -0.7531
  240MOL0     O32268   7.700  11.003   9.619 -0.3331  0.2535 -0.4199
  240MOL0     C32269   7.636  10.976   9.503 -0.0786  0.1767  0.0060
  240MOL0     C32270   7.540  11.065   9.429  0.0073  0.3508  0.1938
  240MOL0     C32271   7.481  11.038   9.305 -0.0548 -0.8187  0.8687
  240MOL0     C32272   7.498  10.903   9.262  0.4899 -0.8158 -0.9623
  240MOL0     O32273   7.422  10.870   9.147  0.1243  0.7316 -0.2950
  240MOL0     C32274   7.343  10.749   9.155  0.3969  0.1787  0.7237
  240MOL0     C32275   7.385  10.685   9.022  0.0526  0.2842 -0.8087
  240MOL0     C32276   7.260  10.609   8.973 -0.5304 -0.3648 -0.4215
  240MOL0     C32277   7.297  10.521   8.859 -0.1494  0.0501 -0.6188
  240MOL0     C32278   7.172  10.441   8.814 -0.2870  0.8489  0.0342
  240MOL0     C32279   7.164  10.428   8.668  0.1052  0.4607 -0.1036
  240MOL0     C32280   7.014  10.399   8.632 -0.3361  0.0338  0.7273
  240MOL0     C32281   6.980  10.252   8.662 -0.3077  0.5242 -0.1107
  240MOL0     N32282   6.873  10.191   8.573  0.8287  0.3500 -0.9509
  240MOL0     C32283   6.765  10.110   8.611 -1.0069 -0.7761 -0.4874
  240MOL0     C32284   6.732  10.045   8.502 -0.1188 -0.6887 -0.4396
  240MOL0     C32285   6.622   9.944   8.494  0.2833 -0.7873  0.6767
  240MOL0     C32286   6.652   9.821   8.577 -1.0571  0.8036 -0.3665
  240MOL0     C32287   6.554   9.710   8.542 -0.4194  0.2023 -0.3143
  240MOL0     C32288   6.597   9.567   8.594  0.4260  0.2417 -0.5878
  240MOL0     O32289   6.621   9.585   8.735 -0.6645 -0.0503  0.6081
  240MOL0     C32290   6.623   9.472   8.808  0.2064  0.2713 -0.2961
  240MOL0     C32291   6.621   9.333   8.763 -1.4262 -0.0968  0.0745
  240MOL0     C32292   6.622   9.227   8.853 -0.2186 -0.0432  0.2261
  240MOL0     C32293   6.607   9.253   8.990  0.4048  0.0413 -0.1678
  240MOL0     C32294   6.604   9.135   9.083  0.6732  0.4227 -0.1032
  240MOL0     O32295   6.588   9.021   9.016 -0.3095 -0.2310 -0.5472
  240MOL0     C32296   6.554   8.909   9.086  0.4252  0.3940 -0.1147
  240MOL0     C32297   6.642   8.804   9.092 -0.8103 -0.6996  0.5207
  240MOL0     C32298   6.629   8.700   9.179 -0.5266 -0.6965 -0.1142
  240MOL0     C32299   6.503   8.682   9.259 -0.4066 -1.1543  0.1071
  240MOL0     O32300   6.474   8.563   9.321 -0.4894 -0.4363 -1.5777
  240MOL0     C32301   6.571   8.456   9.332  0.4412 -0.0772  0.4379
  240MOL0     C32302   6.510   8.353   9.422  0.3322 -0.6479 -0.3115
  240MOL0     C32303   6.623   8.262   9.466  0.3881  0.0203  0.4890
  240MOL0     C32304   6.583   8.120   9.497  0.3599 -0.1610  0.5164
  240MOL0     C32305   6.698   8.025   9.494  0.0376  0.1668 -0.0486
  240MOL0     C32306   6.678   7.881   9.545 -0.7724 -0.0609 -0.0979
  240MOL0     C32307   6.541   7.821   9.505 -0.4183 -0.1420 -0.1461
  240MOL0     C32308   6.530   7.782   9.361  0.1981  0.4040  0.7450
  240MOL0    Cl32309   6.373   7.689   9.329 -0.3584 -0.1278 -0.8084
  240MOL0     C32310   6.405   8.785   9.238  0.0999  0.3003 -0.0290
  240MOL0     C32311   6.430   8.895   9.154 -0.2376  0.8769  0.6124
  240MOL0     O32312   6.598   9.149   9.209  0.4405  0.0440 -0.2901
  240MOL0     C32313   6.595   9.387   9.039  0.3234  0.3121 -0.4994
  240MOL0     C32314   6.593   9.493   8.946  0.6321  0.4490 -0.0311
  240MOL0     N32315   6.809  10.087   8.402 -0.1128 -0.3115 -0.3022
  240MOL0     N32316   6.883  10.183   8.433  0.3533 -0.0157 -1.1593
  240MOL0     C32317   7.597  10.829   9.313 -0.5738  0.1334 -1.7147
  240MOL0     C32318   7.670  10.859   9.431 -0.4676 -0.9044 -0.4908
  240MOL0     C32319   7.715  11.069   9.860  0.1031  0.9087  0.0610
  240MOL0     C32320   7.833  11.130   9.831  0.0420 -0.7851  0.2865
  240MOL0     C32321   7.906  11.180   9.927 -1.2540 -0.4000  0.7157
  240MOL0     C32322   7.863  11.184  10.056 -0.9465 -0.1839 -0.6055
  240MOL0     O32323   7.918  11.257  10.155 -0.2459 -0.4378 -0.7766
  240MOL0     C32324   8.049  11.210  10.196 -0.8602 -1.1343  0.1855
  240MOL0     C32325   8.155  11.325  10.217 -0.4925  0.3322 -0.1370
  240MOL0     C32326   8.111  11.411  10.333 -0.7414 -0.6553  0.0002
  240MOL0     C32327   8.189  11.544  10.331 -0.5158 -0.3716  0.3957
  240MOL0     C32328   8.326  11.530  10.372 -0.1544 -0.2292  0.3846
  240MOL0     C32329   8.442  11.513  10.395 -0.1021 -0.3127 -0.5636
  240MOL0     C32330   7.744  11.122  10.095  0.5768 -0.2815 -0.1960
  240MOL0     C32331   7.667  11.064   9.992 -0.6084  1.5837  0.9998
  240MOL0     C32332   7.539  10.988  10.040 -0.0625  0.1791  1.0283
  240MOL0     H32333   7.523  11.163   9.472  0.2621 -0.5208  2.4002
  240MOL0     H32334   7.431  11.111   9.243  4.3637  0.0175 -2.1793
  240MOL0     H32335   7.366  10.684   9.240 -0.1279 -0.5514  0.3208
  240MOL0     H32336   7.236  10.764   9.167  0.4946 -0.5333  2.9273
  240MOL0     H32337   7.467  10.617   9.047 -0.0444  1.0892  2.0543
  240MOL0     H32338   7.414  10.757   8.945  1.8075  0.6642  0.1406
  240MOL0     H32339   7.174  10.676   8.959 -1.3740 -1.3355 -0.0125
  240MOL0     H32340   7.230  10.544   9.055  1.3654 -0.4810  0.2139
  240MOL0     H32341   7.336  10.584   8.778  2.6018  1.0847  1.3673
  240MOL0     H32342   7.375  10.451   8.889 -1.7402 -0.6892  2.0929
  240MOL0     H32343   7.178  10.342   8.860  2.3492  0.4419 -1.0198
  240MOL0     H32344   7.080  10.484   8.856 -0.8316 -2.6774  2.9409
  240MOL0     H32345   7.185  10.525   8.623 -0.4092  0.9040  0.6045
  240MOL0     H32346   7.234  10.354   8.627  1.2237  0.5522  1.5482
  240MOL0     H32347   7.012  10.416   8.524  1.9288 -2.4770  0.1774
  240MOL0     H32348   6.946  10.469   8.680 -0.2592  1.0208 -0.5435
  240MOL0     H32349   7.063  10.185   8.637 -3.1132 -2.1234 -3.2629
  240MOL0     H32350   6.963  10.228   8.768 -0.8324  1.2441 -0.0272
  240MOL0     H32351   6.710  10.105   8.705  0.7555  2.3616  0.8436
  240MOL0     H32352   6.533  10.000   8.524  0.1002 -0.6070 -0.1776
  240MOL0     H32353   6.614   9.923   8.387 -0.1120  0.8041  0.3696
  240MOL0     H32354   6.758   9.795   8.564 -0.7628  2.6404 -2.1527
  240MOL0     H32355   6.635   9.840   8.684 -3.4565  1.0840 -0.7509
  240MOL0     H32356   6.530   9.702   8.436 -0.9545 -0.4770 -0.1498
  240MOL0     H32357   6.458   9.728   8.592  0.5034 -2.1815  2.6153
  240MOL0     H32358   6.690   9.542   8.542  0.3695 -1.2764 -0.0047
  240MOL0     H32359   6.524   9.490   8.567  0.0699  1.5533 -3.8344
  240MOL0     H32360   6.640   9.308   8.659  1.3965  2.4538 -0.1684
  240MOL0     H32361   6.631   9.125   8.816 -0.9870 -0.4271  1.0700
  240MOL0     H32362   6.727   8.817   9.027 -2.1956  1.3406 -1.0353
  240MOL0     H32363   6.709   8.627   9.187  1.2863  1.3872  2.9432
  240MOL0     H32364   6.603   8.405   9.241 -0.3851 -4.5220  2.3544
  240MOL0     H32365   6.662   8.494   9.379 -0.4482 -0.0388  2.2465
  240MOL0     H32366   6.483   8.399   9.518  2.6087 -0.5852  0.3531
  240MOL0     H32367   6.422   8.311   9.372 -0.2607 -0.9735  0.9361
  240MOL0     H32368   6.687   8.245   9.379 -2.4137 -1.2546 -1.4861
  240MOL0     H32369   6.669   8.318   9.547 -0.1631  1.9343 -0.4614
  240MOL0     H32370   6.506   8.080   9.430  1.6838 -0.1874 -1.0440
  240MOL0     H32371   6.544   8.105   9.598 -2.3842 -2.2040 -0.7194
  240MOL0     H32372   6.773   8.057   9.566 -1.3032  0.0173  1.4715
  240MOL0     H32373   6.733   8.017   9.390  1.6049 -1.6267  0.5774
  240MOL0     H32374   6.763   7.821   9.514  3.0594  3.5942  2.2660
  240MOL0     H32375   6.687   7.880   9.654  0.9082 -3.2171 -0.1532
  240MOL0     H32376   6.449   7.873   9.536 -0.4217 -1.1688  1.7314
  240MOL0     H32377   6.529   7.730   9.564 -0.7771 -0.9045 -1.3687
  240MOL0     H32378   6.517   7.873   9.302  1.0300  0.1175  0.0952
  240MOL0     H32379   6.613   7.725   9.319 -1.5126  0.6542 -3.5765
  240MOL0     H32380   6.314   8.776   9.296 -1.0360 -0.4190 -1.8495
  240MOL0     H32381   6.369   8.978   9.120  2.2346  2.5481  0.0143
  240MOL0     H32382   6.585   9.397   9.147 -1.2371 -1.7816 -0.3837
  240MOL0     H32383   6.577   9.589   8.995 -2.0744  0.3352 -0.5412
  240MOL0     H32384   7.632  10.745   9.254 -0.8764  1.5159 -4.0026
  240MOL0     H32385   7.747  10.788   9.459 -0.0299 -0.0075  0.6568
  240MOL0     H32386   7.866  11.139   9.728 -0.7983  1.5158  0.1623
  240MOL0     H32387   8.002  11.226   9.905 -1.1640 -1.0116 -0.2279
  240MOL0     H32388   8.089  11.137  10.124  1.8146  0.5005 -0.1160
  240MOL0     H32389   8.035  11.164  10.294  0.1657  1.3154  1.5517
  240MOL0     H32390   8.148  11.389  10.128 -2.7457  0.5726  0.1469
  240MOL0     H32391   8.252  11.278  10.232 -0.9051 -0.4797  0.0274
  240MOL0     H32392   8.136  11.359  10.426  3.7496  0.0026 -0.6287
  240MOL0     H32393   8.003  11.424  10.324 -0.8291 -0.8407  0.7041
  240MOL0     H32394   8.184  11.603  10.238  0.1229  0.6761  1.0031
  240MOL0     H32395   8.139  11.603  10.409 -0.3067 -0.6786  0.7619
  240MOL0     H32396   8.538  11.507  10.443  0.7061 -0.1570 -2.0926
  240MOL0     H32397   7.707  11.127  10.197 -0.7031  0.4878 -0.6834
  240MOL0     H32398   7.563  10.934  10.133 -3.4527 -0.0032  1.9495
  240MOL0     H32399   7.462  11.061  10.065 -0.5250 -0.1374  0.5379
  240MOL0     H32400   7.507  10.918   9.963 -1.1254 -0.6310  2.1605
  241MOL0     O32401  10.158   7.928  11.261 -0.6084  0.0540 -0.2823
  241MOL0     C32402  10.178   7.967  11.145  0.0644 -0.6990 -0.4938
  241MOL0     O32403  10.075   7.985  11.058 -0.0984 -0.3653  0.8522
  241MOL0     C32404   9.945   7.967  11.094 -0.5935  0.4718  0.6945
  241MOL0     C32405   9.853   8.063  11.079  0.1189  0.3629 -0.1874
  241MOL0     C32406   9.718   8.065  11.122 -0.0866 -0.4153 -0.5721
  241MOL0     C32407   9.674   7.950  11.199 -0.3470 -0.0414  0.3291
  241MOL0     O32408   9.541   7.943  11.250  0.3423  0.0431 -0.3219
  241MOL0     C32409   9.445   7.959  11.151  1.0724  0.7103  0.5842
  241MOL0     C32410   9.337   7.840  11.146 -0.3968  0.2588 -0.0484
  241MOL0     C32411   9.404   7.704  11.128  0.3509  0.1163  0.5220
  241MOL0     C32412   9.303   7.598  11.146  0.7123  0.3740 -0.0697
  241MOL0     C32413   9.356   7.457  11.117  0.4246 -0.3575  0.0634
  241MOL0     C32414   9.248   7.354  11.138 -0.2313  0.5273 -0.6552
  241MOL0     C32415   9.093   7.373  11.095 -0.4872 -0.3055 -0.7419
  241MOL0     C32416   9.025   7.237  11.096 -0.2325 -0.3173  0.3220
  241MOL0     N32417   8.886   7.252  11.070  0.6586  0.6262 -0.3732
  241MOL0     C32418   8.817   7.331  10.983  0.6030  0.2124  0.2474
  241MOL0     C32419   8.693   7.284  10.966 -0.0553 -0.0314 -0.6352
  241MOL0     C32420   8.596   7.352  10.864  0.2238  0.5061 -0.4976
  241MOL0     C32421   8.624   7.304  10.724 -0.3840  0.5990  0.0598
  241MOL0     C32422   8.614   7.156  10.704  0.6056  0.5170 -0.3261
  241MOL0     C32423   8.640   7.110  10.563 -0.1368 -0.4558  0.3217
  241MOL0     O32424   8.546   7.178  10.471  0.2759 -0.0079  0.3554
  241MOL0     C32425   8.458   7.104  10.408 -0.2472  0.4081  0.0941
  241MOL0     C32426   8.507   7.023  10.304  0.2064  0.1903 -0.0868
  241MOL0     C32427   8.426   6.921  10.245 -0.2866 -0.6466  0.4750
  241MOL0     C32428   8.291   6.913  10.295  0.9787  0.0531 -0.5209
  241MOL0     C32429   8.205   6.804  10.232  0.9258  0.1592 -0.6977
  241MOL0     O32430   8.258   6.732  10.129  0.2205  0.2760 -0.8628
  241MOL0     C32431   8.185   6.636  10.060 -0.7202  0.4955 -0.4949
  241MOL0     C32432   8.162   6.512  10.115  0.2973  0.0308  0.3827
  241MOL0     C32433   8.082   6.415  10.056 -0.3626  0.3176 -0.4061
  241MOL0     C32434   8.034   6.447   9.930  0.6085 -0.3972  0.1450
  241MOL0     O32435   7.973   6.347   9.860  0.1973 -0.6694 -0.0570
  241MOL0     C32436   7.848   6.387   9.802 -0.3034 -0.0764 -0.7016
  241MOL0     C32437   7.738   6.386   9.908 -0.1438 -0.2216 -0.2357
  241MOL0     C32438   7.688   6.240   9.933 -0.3361 -0.2417 -0.3752
  241MOL0     C32439   7.602   6.185   9.815  0.5228  0.1548  0.3516
  241MOL0     C32440   7.495   6.077   9.861 -0.3201  0.9355  0.0255
  241MOL0     C32441   7.547   5.933   9.843  1.1289  0.8239  0.2599
  241MOL0     C32442   7.440   5.837   9.883  0.4135  0.9704 -0.0690
  241MOL0     C32443   7.413   5.837  10.038 -0.4121  0.2302 -0.2734
  241MOL0    Cl32444   7.329   5.685  10.086  0.2191  0.0878 -0.0881
  241MOL0     C32445   8.065   6.569   9.869 -0.7535  0.6052  0.0197
  241MOL0     C32446   8.139   6.665   9.933  0.0433 -0.5929 -0.4838
  241MOL0     O32447   8.100   6.776  10.287 -0.2889  0.6305  0.4583
  241MOL0     C32448   8.243   6.999  10.397  0.2613  0.5669  0.4982
  241MOL0     C32449   8.329   7.092  10.460 -0.8618  0.5799 -0.6977
  241MOL0     N32450   8.681   7.180  11.059 -0.7299 -0.5881 -0.4563
  241MOL0     N32451   8.798   7.156  11.120  0.2931 -0.3041  0.9119
  241MOL0     C32452   9.766   7.850  11.215  0.3928 -0.2422  0.6732
  241MOL0     C32453   9.892   7.855  11.158  0.1834 -0.2596  0.0803
  241MOL0     C32454  10.317   8.001  11.101 -0.1985 -0.0157 -0.2895
  241MOL0     C32455  10.423   7.946  11.180  0.2071  0.6862 -0.6505
  241MOL0     C32456  10.545   7.980  11.160 -0.8623  0.1955 -0.0218
  241MOL0     C32457  10.584   8.085  11.080  0.4926  0.5361  0.0086
  241MOL0     O32458  10.704   8.144  11.068 -0.3955 -0.4119  0.0480
  241MOL0     C32459  10.831   8.089  11.130  0.3123  0.2587  0.7754
  241MOL0     C32460  10.851   8.126  11.274  0.9536  1.2406 -0.6349
  241MOL0     C32461  11.001   8.151  11.312 -0.1259  0.7324 -0.1892
  241MOL0     C32462  11.015   8.223  11.443 -0.1070  0.8967  1.0556
  241MOL0     C32463  10.911   8.178  11.535 -0.0822 -0.4194 -0.1099
  241MOL0     C32464  10.829   8.141  11.607 -0.1973  0.3287 -0.1626
  241MOL0     C32465  10.487   8.137  10.993  0.0993  0.0766 -0.4452
  241MOL0     C32466  10.348   8.100  10.998  0.5722  0.0809  0.1821
  241MOL0     C32467  10.256   8.173  10.902 -0.4557 -0.0879 -0.7769
  241MOL0     H32468   9.878   8.154  11.025  4.0191  0.6181  1.6720
  241MOL0     H32469   9.647   8.144  11.099  1.4987  1.6080  1.1272
  241MOL0     H32470   9.382   8.046  11.171 -2.4880 -0.5933 -3.4024
  241MOL0     H32471   9.481   7.960  11.048 -0.9764  2.3925 -0.2024
  241MOL0     H32472   9.268   7.848  11.061 -1.0440 -0.9834  0.3327
  241MOL0     H32473   9.290   7.855  11.244 -1.2547  0.6409 -0.5060
  241MOL0     H32474   9.476   7.692  11.210 -1.7331 -1.0872  2.2774
  241MOL0     H32475   9.450   7.706  11.029 -1.9665 -0.2779 -0.6386
  241MOL0     H32476   9.262   7.596  11.248  1.4157  0.3853  0.2239
  241MOL0     H32477   9.219   7.622  11.082  0.2203  0.7590  0.7091
  241MOL0     H32478   9.390   7.448  11.013  0.7727 -2.1868  0.3033
  241MOL0     H32479   9.444   7.441  11.179  2.1161  0.5995 -1.9744
  241MOL0     H32480   9.283   7.265  11.085 -0.9004 -0.1670  0.0495
  241MOL0     H32481   9.244   7.338  11.246 -3.8848 -0.1509 -0.7682
  241MOL0     H32482   9.090   7.410  10.992  0.3965  0.3304 -0.5498
  241MOL0     H32483   9.047   7.444  11.165  4.4322  1.0802  1.4993
  241MOL0     H32484   9.069   7.169  11.023  1.1571 -1.3031  2.0030
  241MOL0     H32485   9.034   7.195  11.196  0.2431 -2.6307 -0.6375
  241MOL0     H32486   8.862   7.401  10.913  2.6031 -3.0516 -2.0207
  241MOL0     H32487   8.492   7.333  10.892  1.0199  0.4366  2.9129
  241MOL0     H32488   8.624   7.456  10.844  1.3227 -0.3756 -4.2567
  241MOL0     H32489   8.569   7.357  10.646  3.2968  1.2295 -2.3839
  241MOL0     H32490   8.730   7.322  10.700  0.1197 -0.6652  1.1865
  241MOL0     H32491   8.510   7.129  10.723  0.3797 -0.2557 -2.4138
  241MOL0     H32492   8.669   7.090  10.771  0.3154 -1.8766 -2.3086
  241MOL0     H32493   8.645   7.001  10.554 -1.5783 -0.4831 -0.3994
  241MOL0     H32494   8.734   7.144  10.517 -0.1631  0.4364  0.9145
  241MOL0     H32495   8.605   7.049  10.265 -0.3387  1.0056 -0.9588
  241MOL0     H32496   8.463   6.839  10.185  1.3768 -0.6050  1.3736
  241MOL0     H32497   8.198   6.489  10.215 -1.3897 -1.4679  0.7004
  241MOL0     H32498   8.066   6.316  10.099 -1.7424 -0.8429 -3.3273
  241MOL0     H32499   7.846   6.486   9.756  0.8765  0.0923 -0.4065
  241MOL0     H32500   7.815   6.319   9.722 -1.7546 -1.1217  0.7131
  241MOL0     H32501   7.771   6.418  10.007 -1.9617 -0.8268  0.6249
  241MOL0     H32502   7.650   6.445   9.880 -0.4727 -0.4973  0.1925
  241MOL0     H32503   7.766   6.172   9.970  0.0762  1.6328  2.4943
  241MOL0     H32504   7.631   6.256  10.025  1.7193  1.1095  0.7381
  241MOL0     H32505   7.676   6.161   9.738  0.4699  1.1941 -0.0272
  241MOL0     H32506   7.542   6.271   9.786  0.4562 -0.4897 -1.5406
  241MOL0     H32507   7.417   6.085   9.786 -0.4628 -2.0731 -0.2730
  241MOL0     H32508   7.464   6.102   9.963 -0.9575  3.9140 -0.8167
  241MOL0     H32509   7.567   5.911   9.738 -0.9394  0.0435 -0.0194
  241MOL0     H32510   7.627   5.914   9.914 -2.7382 -4.6957  3.9080
  241MOL0     H32511   7.465   5.732   9.865 -2.7021 -0.1933  1.6828
  241MOL0     H32512   7.348   5.866   9.831  1.5866  0.0257 -2.8699
  241MOL0     H32513   7.500   5.846  10.104 -0.9752 -0.5633  0.6041
  241MOL0     H32514   7.353   5.923  10.071 -2.2288 -1.7657  1.9271
  241MOL0     H32515   8.044   6.573   9.762  0.7349 -4.7679 -0.7684
  241MOL0     H32516   8.155   6.766   9.895 -1.7818  0.6114  1.7110
  241MOL0     H32517   8.141   6.988  10.433 -1.1684  1.8426 -2.7710
  241MOL0     H32518   8.299   7.154  10.544  0.3084  2.1298 -1.3655
  241MOL0     H32519   9.728   7.760  11.264 -2.5306  0.9465  0.8184
  241MOL0     H32520   9.955   7.767  11.169  0.8093  0.1513 -0.1717
  241MOL0     H32521  10.383   7.874  11.251 -0.4416 -0.8645 -2.5069
  241MOL0     H32522  10.620   7.937  11.225  1.7144  1.0780 -2.2426
  241MOL0     H32523  10.910   8.139  11.073 -1.7597  1.6987 -1.0161
  241MOL0     H32524  10.843   7.981  11.117  0.5194  0.3066  0.5658
  241MOL0     H32525  10.821   8.043  11.339  2.3984  0.9358 -0.3375
  241MOL0     H32526  10.790   8.216  11.292 -0.4972  0.6293 -2.1483
  241MOL0     H32527  11.062   8.213  11.246 -0.4447  1.5221  0.2440
  241MOL0     H32528  11.047   8.052  11.318 -0.8746 -0.0602 -4.3444
  241MOL0     H32529  11.109   8.207  11.496 -0.1052 -3.3416  0.1455
  241MOL0     H32530  10.999   8.331  11.437  1.8762  1.3118  2.2196
  241MOL0     H32531  10.761   8.095  11.676 -0.6194 -1.6415 -1.7936
  241MOL0     H32532  10.508   8.209  10.914 -0.2419  3.4699  2.3502
  241MOL0     H32533  10.168   8.193  10.963  1.5059 -1.4640  2.8059
  241MOL0     H32534  10.300   8.267  10.867  0.2341 -0.1644 -0.1262
  241MOL0     H32535  10.235   8.107  10.817 -0.4892 -2.2375  0.8156
  242MOL0     O32536   7.454   3.616   5.290  0.1416 -0.4368  0.0280
  242MOL0     C32537   7.428   3.511   5.226  0.0269 -0.7917  0.1292
  242MOL0     O32538   7.457   3.496   5.097  0.2576  0.4972  0.5505
  242MOL0     C32539   7.530   3.600   5.044 -0.5196 -0.4049 -0.7365
  242MOL0     C32540   7.657   3.569   5.012 -0.4098 -0.7556  0.2981
  242MOL0     C32541   7.735   3.662   4.946  0.3366  0.2579  0.1979
  242MOL0     C32542   7.681   3.787   4.904  0.0383 -0.2083  0.4560
  242MOL0     O32543   7.748   3.874   4.812 -0.3434  0.1751 -0.3172
  242MOL0     C32544   7.835   3.815   4.716 -0.3000 -0.3216  0.6903
  242MOL0     C32545   7.878   3.920   4.616  0.0213  0.7152 -0.5835
  242MOL0     C32546   7.766   3.927   4.508  0.0564  0.0675  1.0231
  242MOL0     C32547   7.795   4.036   4.403  0.6661 -1.1221  0.4161
  242MOL0     C32548   7.674   4.044   4.318  1.0713 -0.0544  0.3335
  242MOL0     C32549   7.704   4.141   4.199 -0.0211 -0.3523 -0.8501
  242MOL0     C32550   7.578   4.152   4.114  0.4894  0.4338 -1.2501
  242MOL0     C32551   7.585   4.251   3.996  0.4912  0.0180 -0.1392
  242MOL0     N32552   7.625   4.380   4.038  0.6775 -0.9360  0.1741
  242MOL0     C32553   7.567   4.454   4.145 -0.0941 -0.4325  1.1208
  242MOL0     C32554   7.656   4.555   4.164  0.4890  1.1061  0.4131
  242MOL0     C32555   7.620   4.665   4.264 -0.1177  0.4729  0.4766
  242MOL0     C32556   7.630   4.620   4.413  0.0983  0.4179 -0.5267
  242MOL0     C32557   7.765   4.553   4.446  0.0599 -0.2033  0.6906
  242MOL0     C32558   7.762   4.491   4.585 -0.6080 -0.6722  0.6817
  242MOL0     O32559   7.688   4.378   4.565 -0.1948  0.0675 -0.5124
  242MOL0     C32560   7.649   4.324   4.688  0.1007 -0.1449  0.7302
  242MOL0     C32561   7.697   4.349   4.814  0.0656  0.0986 -0.5171
  242MOL0     C32562   7.629   4.305   4.924  0.6687 -0.9847  0.3263
  242MOL0     C32563   7.515   4.231   4.907 -0.8998 -0.4721 -0.1540
  242MOL0     C32564   7.449   4.172   5.019 -0.0585  0.5943 -0.0286
  242MOL0     O32565   7.316   4.175   5.014  0.1492  0.4196 -0.6937
  242MOL0     C32566   7.248   4.149   5.134  0.0761  0.9265 -0.3112
  242MOL0     C32567   7.157   4.046   5.133  0.7816 -0.9074 -1.0679
  242MOL0     C32568   7.088   4.002   5.245  0.0127  0.8724 -0.5130
  242MOL0     C32569   7.115   4.079   5.365  0.3709  0.5012  0.2130
  242MOL0     O32570   7.055   4.050   5.485  0.3138  0.4921  0.1729
  242MOL0     C32571   6.944   3.962   5.487 -0.4526  0.0533  0.6198
  242MOL0     C32572   6.917   3.959   5.640  0.1552  1.1807 -0.2177
  242MOL0     C32573   6.792   3.880   5.680 -0.6125 -0.2419 -0.5166
  242MOL0     C32574   6.796   3.735   5.656  0.2624 -0.0686 -0.5295
  242MOL0     C32575   6.677   3.664   5.723 -0.1070 -1.2493  0.0906
  242MOL0     C32576   6.687   3.517   5.729 -0.6231  1.3473 -0.1470
  242MOL0     C32577   6.542   3.464   5.781 -0.3633 -0.6418 -0.9806
  242MOL0     C32578   6.505   3.317   5.757 -0.7697  0.1616  1.0989
  242MOL0    Cl32579   6.485   3.286   5.581 -0.3135  0.1504 -0.1781
  242MOL0     C32580   7.197   4.184   5.359 -0.4256 -0.1107 -0.3406
  242MOL0     C32581   7.261   4.230   5.247  0.5285 -0.7311 -0.0829
  242MOL0     O32582   7.519   4.129   5.111 -0.5269 -0.1236  0.0106
  242MOL0     C32583   7.470   4.210   4.779  0.0245  0.0409  1.0648
  242MOL0     C32584   7.530   4.254   4.661  0.4563  0.3445 -0.3749
  242MOL0     N32585   7.768   4.533   4.088  0.4674 -0.5537 -0.6754
  242MOL0     N32586   7.748   4.437   4.016  0.1574  0.1115  0.0135
  242MOL0     C32587   7.549   3.816   4.938 -0.2080  0.0983 -0.2979
  242MOL0     C32588   7.470   3.724   5.013 -0.2545  0.0738  0.1034
  242MOL0     C32589   7.323   3.426   5.287  0.1260  0.9818 -0.1168
  242MOL0     C32590   7.250   3.335   5.198  0.5415  0.3215 -0.3416
  242MOL0     C32591   7.162   3.239   5.245  0.0246  0.1589 -0.4228
  242MOL0     C32592   7.130   3.236   5.379 -0.6659 -1.1135 -1.1186
  242MOL0     O32593   7.058   3.127   5.415  0.1197  0.4586 -0.8271
  242MOL0     C32594   6.984   3.130   5.544 -0.4361  0.3194 -0.2794
  242MOL0     C32595   6.839   3.071   5.562 -0.8521 -0.3938 -0.3735
  242MOL0     C32596   6.823   2.933   5.499  0.1257  0.3236 -0.1501
  242MOL0     C32597   6.672   2.887   5.493 -0.6403 -0.0799  1.0432
  242MOL0     C32598   6.596   2.923   5.612 -0.7386  0.0812 -0.6984
  242MOL0     C32599   6.562   2.946   5.720 -0.2663 -0.4568  0.6945
  242MOL0     C32600   7.184   3.330   5.469 -0.1607 -0.4344  1.1331
  242MOL0     C32601   7.283   3.428   5.425  0.5433  0.4714  0.0572
  242MOL0     C32602   7.346   3.511   5.534  0.1334  0.2467  0.3131
  242MOL0     H32603   7.711   3.483   5.050  0.9514  0.4095  1.0902
  242MOL0     H32604   7.837   3.638   4.917  0.3030  2.2955 -1.9571
  242MOL0     H32605   7.928   3.780   4.761  0.2152 -0.4958 -0.4841
  242MOL0     H32606   7.788   3.733   4.660 -0.2047  1.4919 -2.2188
  242MOL0     H32607   7.972   3.892   4.569 -1.9630 -3.6085 -2.5286
  242MOL0     H32608   7.906   4.015   4.663 -1.1863  1.5667 -1.4928
  242MOL0     H32609   7.670   3.947   4.556 -1.4051 -0.4572 -1.4849
  242MOL0     H32610   7.761   3.836   4.448  1.1118  1.0148 -0.5615
  242MOL0     H32611   7.822   4.135   4.442  6.5763 -2.1560 -0.0297
  242MOL0     H32612   7.884   4.002   4.348 -0.3195 -1.4070 -1.0809
  242MOL0     H32613   7.647   3.947   4.273 -2.3116  1.3089 -0.9500
  242MOL0     H32614   7.588   4.077   4.376 -0.4460 -0.8189 -1.3717
  242MOL0     H32615   7.717   4.239   4.244 -1.6141 -0.1222 -0.8389
  242MOL0     H32616   7.791   4.112   4.139 -0.4818  1.3388 -2.4170
  242MOL0     H32617   7.483   4.172   4.165 -1.6930  0.8907 -5.1201
  242MOL0     H32618   7.566   4.053   4.069  1.2895  0.6780 -2.0453
  242MOL0     H32619   7.658   4.207   3.927  0.4193 -1.5841  0.7725
  242MOL0     H32620   7.487   4.245   3.947  0.8042  1.5016 -1.0316
  242MOL0     H32621   7.478   4.426   4.201  0.2159 -2.6813  0.6128
  242MOL0     H32622   7.691   4.744   4.237 -1.2970  1.1335 -0.8538
  242MOL0     H32623   7.518   4.705   4.258 -0.2196  0.9360  3.5328
  242MOL0     H32624   7.627   4.704   4.484  3.0401  0.4632 -0.3378
  242MOL0     H32625   7.552   4.548   4.439  1.0610 -0.5663 -0.3015
  242MOL0     H32626   7.847   4.624   4.436 -0.6544  0.7866  1.6778
  242MOL0     H32627   7.778   4.473   4.372 -0.2781 -1.4557  1.9418
  242MOL0     H32628   7.730   4.567   4.657  2.9244 -0.0409  1.8239
  242MOL0     H32629   7.866   4.475   4.617  0.9610  4.8372 -0.5565
  242MOL0     H32630   7.793   4.399   4.824  0.3877 -0.3209 -1.3576
  242MOL0     H32631   7.676   4.326   5.020  0.1256  2.4943 -0.0125
  242MOL0     H32632   7.135   3.996   5.040 -2.5926 -3.2734  0.7939
  242MOL0     H32633   7.035   3.907   5.250  2.0332 -0.5996 -3.8515
  242MOL0     H32634   6.865   4.013   5.432  0.9141  1.8077  0.1771
  242MOL0     H32635   6.972   3.864   5.446 -0.0653  0.6699 -0.6340
  242MOL0     H32636   7.007   3.913   5.679 -0.0681  1.2221  0.3531
  242MOL0     H32637   6.902   4.056   5.688 -3.7868 -0.6049  2.6750
  242MOL0     H32638   6.783   3.874   5.788 -1.0531 -0.1806 -0.5475
  242MOL0     H32639   6.701   3.917   5.632 -1.8243 -1.0444  1.0637
  242MOL0     H32640   6.892   3.689   5.684 -0.8681 -2.0486  0.3115
  242MOL0     H32641   6.773   3.725   5.550 -3.8782  1.2323  0.0713
  242MOL0     H32642   6.587   3.699   5.672 -1.1358 -0.4755  2.3025
  242MOL0     H32643   6.658   3.709   5.821  1.3695  1.2582 -0.6943
  242MOL0     H32644   6.703   3.482   5.627  0.6545  0.3479  0.3697
  242MOL0     H32645   6.767   3.487   5.798 -0.8863 -1.6009 -1.0155
  242MOL0     H32646   6.465   3.534   5.747  0.3920  0.6669 -0.0853
  242MOL0     H32647   6.539   3.480   5.889  1.0302  0.9967 -1.1404
  242MOL0     H32648   6.587   3.253   5.792 -1.2756 -2.6839 -2.3004
  242MOL0     H32649   6.411   3.286   5.804 -2.4276  1.1696 -1.3291
  242MOL0     H32650   7.205   4.251   5.445 -2.6844  2.5752 -2.0525
  242MOL0     H32651   7.325   4.318   5.247  0.5553 -0.7446 -0.6222
  242MOL0     H32652   7.373   4.163   4.765 -0.0215  0.7647 -1.5880
  242MOL0     H32653   7.491   4.244   4.561  0.3268  1.0488 -0.3990
  242MOL0     H32654   7.499   3.908   4.907 -0.3120  0.9031  2.0698
  242MOL0     H32655   7.371   3.755   5.044 -0.9795 -0.1047 -1.8448
  242MOL0     H32656   7.259   3.339   5.090  0.6976 -1.5883 -0.4264
  242MOL0     H32657   7.112   3.170   5.178 -1.1281 -0.8656  1.3802
  242MOL0     H32658   6.982   3.236   5.570 -0.2519  1.0430 -2.9170
  242MOL0     H32659   7.049   3.077   5.613 -0.7459 -0.2010 -0.3866
  242MOL0     H32660   6.756   3.136   5.532 -0.5181  0.5613  0.6826
  242MOL0     H32661   6.839   3.056   5.670  0.4598 -1.9513 -0.5495
  242MOL0     H32662   6.879   2.865   5.563 -1.7626 -0.2653  0.9667
  242MOL0     H32663   6.858   2.952   5.397 -0.8909  1.6654 -0.2806
  242MOL0     H32664   6.623   2.943   5.413  3.5947  2.4367 -0.1077
  242MOL0     H32665   6.653   2.781   5.472 -0.0329 -0.6954  3.3241
  242MOL0     H32666   6.529   2.994   5.810  2.0788  6.3519 -1.4453
  242MOL0     H32667   7.172   3.320   5.577  2.1299  0.0322  1.4951
  242MOL0     H32668   7.304   3.488   5.632  1.4904  4.7123  2.1987
  242MOL0     H32669   7.455   3.495   5.537 -0.0227 -0.9519  0.1363
  242MOL0     H32670   7.333   3.617   5.513 -0.9053  0.7029  2.8743
  243MOL0     O32671   6.500   1.201   2.020 -0.7045  0.2306 -0.6274
  243MOL0     C32672   6.482   1.293   1.936 -1.3848 -0.9503 -0.1378
  243MOL0     O32673   6.587   1.360   1.880 -0.0103 -0.0543 -0.5991
  243MOL0     C32674   6.565   1.494   1.853 -0.3872 -0.1192  0.2086
  243MOL0     C32675   6.542   1.580   1.954 -0.5948  0.4003 -0.5790
  243MOL0     C32676   6.532   1.719   1.934  0.0623 -0.0356 -0.5193
  243MOL0     C32677   6.532   1.764   1.798  0.3635  0.0059 -0.2664
  243MOL0     O32678   6.501   1.901   1.776  0.8953  0.0113  0.0635
  243MOL0     C32679   6.473   1.932   1.638  0.6279 -0.1213  0.1797
  243MOL0     C32680   6.458   2.082   1.632  0.2985  0.2278 -0.7991
  243MOL0     C32681   6.445   2.149   1.505  0.7924  0.1893 -0.6834
  243MOL0     C32682   6.303   2.119   1.459 -0.2992 -0.4218  0.2837
  243MOL0     C32683   6.263   2.191   1.329  0.8411  1.3461 -0.3980
  243MOL0     C32684   6.265   2.339   1.329 -0.5054 -0.3471 -0.4251
  243MOL0     C32685   6.221   2.413   1.200  0.0502  0.5685  0.7957
  243MOL0     C32686   6.067   2.382   1.185  0.0667  0.0132 -0.6541
  243MOL0     N32687   6.007   2.461   1.074 -0.4108 -0.4626 -0.6169
  243MOL0     C32688   6.058   2.573   1.011 -1.0229 -0.8255 -0.6886
  243MOL0     C32689   5.964   2.610   0.921  0.1217  0.4630  0.0743
  243MOL0     C32690   5.978   2.733   0.837  0.7180  0.1808  0.4838
  243MOL0     C32691   5.859   2.821   0.855 -0.7361  0.1110 -0.2218
  243MOL0     C32692   5.890   2.951   0.782 -0.3104 -0.0837  0.2538
  243MOL0     C32693   5.797   2.965   0.661  0.3207 -0.4383  0.0556
  243MOL0     O32694   5.654   2.971   0.698  0.0745  0.0682  0.1455
  243MOL0     C32695   5.585   3.089   0.679  0.1093  0.8877 -0.3172
  243MOL0     C32696   5.441   3.094   0.710 -0.4352  0.8494 -0.5652
  243MOL0     C32697   5.372   3.211   0.716 -0.2590  0.2937 -0.1689
  243MOL0     C32698   5.432   3.337   0.700  0.1090  0.4793  0.2467
  243MOL0     C32699   5.367   3.467   0.708  0.3572  0.2168 -0.5532
  243MOL0     O32700   5.446   3.574   0.710  0.0651  0.3991 -0.1119
  243MOL0     C32701   5.390   3.691   0.756 -0.2333  0.4187 -0.5754
  243MOL0     C32702   5.421   3.731   0.895  0.8962 -0.3677 -0.1598
  243MOL0     C32703   5.365   3.849   0.944 -0.9592  0.4343 -0.1875
  243MOL0     C32704   5.286   3.928   0.861  0.7111  0.4443  0.1663
  243MOL0     O32705   5.242   4.054   0.910  0.4089  1.2387  0.3369
  243MOL0     C32706   5.110   4.071   0.965 -0.2852  0.2883 -0.0200
  243MOL0     C32707   5.112   4.167   1.080  0.1177  0.5821 -1.1001
  243MOL0     C32708   4.979   4.203   1.138 -0.0720  0.4129 -1.0029
  243MOL0     C32709   4.894   4.302   1.047  1.0023  1.2765 -0.1988
  243MOL0     C32710   4.744   4.283   1.089  0.2408  0.4644  0.0405
  243MOL0     C32711   4.652   4.367   0.998  0.6777 -0.4856  0.0025
  243MOL0     C32712   4.519   4.402   1.068 -0.3358  0.2537 -0.1024
  243MOL0     C32713   4.474   4.543   1.082  0.0294 -0.3647  0.4754
  243MOL0    Cl32714   4.513   4.606   1.244 -0.0767  0.3347  0.2947
  243MOL0     C32715   5.265   3.892   0.720 -1.0177 -0.7515 -0.6550
  243MOL0     C32716   5.313   3.779   0.672 -0.1253  0.2132  0.7162
  243MOL0     O32717   5.244   3.471   0.701 -0.4931  0.2754  0.0004
  243MOL0     C32718   5.574   3.335   0.671 -0.5870  0.2766  0.6195
  243MOL0     C32719   5.652   3.214   0.670  0.7716 -0.5215  0.8450
  243MOL0     N32720   5.869   2.514   0.920  0.0704  0.6038  0.4685
  243MOL0     N32721   5.895   2.434   1.015 -0.0957  0.4560 -0.1281
  243MOL0     C32722   6.552   1.672   1.697 -1.0965  0.5431 -0.4121
  243MOL0     C32723   6.584   1.536   1.730 -0.0572 -0.1503  0.9085
  243MOL0     C32724   6.350   1.350   1.923 -0.3776  0.6201 -0.3609
  243MOL0     C32725   6.271   1.368   2.036 -0.0559  0.0667  0.7888
  243MOL0     C32726   6.135   1.404   2.032  0.2982 -0.8187 -0.5573
  243MOL0     C32727   6.067   1.422   1.911 -0.1674  0.4743 -0.7103
  243MOL0     O32728   5.929   1.429   1.895  0.0305  0.6087 -0.0389
  243MOL0     C32729   5.842   1.454   2.011  0.5099  1.5687  0.3929
  243MOL0     C32730   5.696   1.497   1.968  0.0870 -0.5966 -0.0802
  243MOL0     C32731   5.640   1.391   1.880 -0.0977  0.3665 -0.2273
  243MOL0     C32732   5.490   1.396   1.881  0.8588  0.0040  0.0788
  243MOL0     C32733   5.414   1.314   1.783  1.1749  0.4680  0.3477
  243MOL0     C32734   5.344   1.250   1.713  0.1873  0.1456  1.4476
  243MOL0     C32735   6.148   1.420   1.793  0.8663 -0.3188 -0.0201
  243MOL0     C32736   6.282   1.371   1.797  0.2364  0.5851  0.8476
  243MOL0     C32737   6.334   1.326   1.656 -0.8781 -0.0139  0.6387
  243MOL0     H32738   6.546   1.551   2.058  1.6233 -0.3400 -0.8208
  243MOL0     H32739   6.527   1.790   2.015 -0.1815  1.5751 -1.8931
  243MOL0     H32740   6.565   1.913   1.581  2.2767  0.9100  2.3447
  243MOL0     H32741   6.392   1.873   1.596  0.8653  0.6528 -1.4683
  243MOL0     H32742   6.549   2.124   1.677  1.6634 -1.4960 -1.8194
  243MOL0     H32743   6.368   2.111   1.687  0.6883 -2.2089  1.3166
  243MOL0     H32744   6.517   2.101   1.438  2.6743  0.7186  0.8437
  243MOL0     H32745   6.456   2.257   1.522 -3.9011  0.5910  1.1722
  243MOL0     H32746   6.284   2.012   1.446  0.9129 -0.4497 -1.7559
  243MOL0     H32747   6.231   2.157   1.532 -0.0631  1.0954 -0.2333
  243MOL0     H32748   6.325   2.147   1.250  3.8139  1.4406  1.7045
  243MOL0     H32749   6.160   2.156   1.318  2.5713 -4.8240 -0.6432
  243MOL0     H32750   6.197   2.372   1.409 -1.9744  0.4929 -1.9551
  243MOL0     H32751   6.365   2.369   1.362  0.3209 -2.8351 -0.5080
  243MOL0     H32752   6.278   2.372   1.117  0.1885  1.2634  0.5437
  243MOL0     H32753   6.245   2.519   1.209 -2.5669  1.5752 -2.1924
  243MOL0     H32754   6.065   2.275   1.167  0.2332  0.3066 -2.5416
  243MOL0     H32755   6.025   2.403   1.284  3.8726 -3.4558  2.0505
  243MOL0     H32756   6.153   2.618   1.038 -0.3025 -1.5386 -1.9332
  243MOL0     H32757   6.075   2.781   0.855  1.7149 -0.9270 -1.5690
  243MOL0     H32758   5.988   2.702   0.733 -2.5877  1.1283 -0.2332
  243MOL0     H32759   5.767   2.774   0.818  0.1050 -1.8251  0.0195
  243MOL0     H32760   5.844   2.847   0.961 -0.8412  0.0902 -0.2322
  243MOL0     H32761   5.991   2.943   0.741 -0.4577  1.0032 -0.3599
  243MOL0     H32762   5.884   3.034   0.853 -2.6398  0.2178 -0.2064
  243MOL0     H32763   5.815   2.877   0.599  1.2411  1.9281 -3.3479
  243MOL0     H32764   5.823   3.051   0.598  1.3029 -1.5821 -1.1575
  243MOL0     H32765   5.407   2.995   0.740  1.9118  0.5574  1.5054
  243MOL0     H32766   5.263   3.213   0.714 -0.3525  2.0419  2.3034
  243MOL0     H32767   5.468   3.668   0.970 -1.4513  0.5549  2.2517
  243MOL0     H32768   5.377   3.878   1.048  0.0139  0.3943 -0.2795
  243MOL0     H32769   5.034   4.108   0.896 -0.3481 -0.6188 -0.4595
  243MOL0     H32770   5.082   3.969   0.994 -0.8477  0.2453 -0.6872
  243MOL0     H32771   5.166   4.105   1.152  0.3307 -0.6070 -2.2633
  243MOL0     H32772   5.159   4.265   1.066  0.4068  0.7853  0.9684
  243MOL0     H32773   4.925   4.112   1.164  0.5734  0.6036  1.1942
  243MOL0     H32774   5.000   4.247   1.236 -0.5093 -3.5381  1.0246
  243MOL0     H32775   4.895   4.278   0.941 -2.6934 -3.0365  0.4213
  243MOL0     H32776   4.932   4.405   1.053  2.6204  0.8442 -1.9494
  243MOL0     H32777   4.740   4.296   1.198  1.6567 -3.1356  0.6759
  243MOL0     H32778   4.712   4.179   1.074 -1.4540  0.8483  0.7850
  243MOL0     H32779   4.709   4.456   0.970  2.2853 -1.6953 -0.7339
  243MOL0     H32780   4.629   4.298   0.916 -1.1235  0.5439 -0.4018
  243MOL0     H32781   4.507   4.352   1.164  1.6573  0.0786  0.1050
  243MOL0     H32782   4.441   4.360   1.003  0.8765 -2.1510 -0.1458
  243MOL0     H32783   4.526   4.613   1.015  0.5803 -1.7060 -0.5346
  243MOL0     H32784   4.369   4.564   1.060  0.4496 -0.7929 -2.2317
  243MOL0     H32785   5.199   3.962   0.671  0.0643  3.5353  3.3604
  243MOL0     H32786   5.305   3.777   0.564  0.3791 -1.1079  0.6978
  243MOL0     H32787   5.625   3.429   0.652  0.1029 -0.1929  0.0454
  243MOL0     H32788   5.757   3.225   0.648  1.2549 -1.3027  2.5896
  243MOL0     H32789   6.540   1.692   1.591 -1.8334 -0.5043 -0.5474
  243MOL0     H32790   6.589   1.458   1.654 -1.3061 -2.8003  3.3632
  243MOL0     H32791   6.310   1.336   2.132  0.5457 -2.6424 -0.2546
  243MOL0     H32792   6.077   1.414   2.123  1.1579  1.8046 -0.2152
  243MOL0     H32793   5.876   1.532   2.080 -2.0839  0.4666  3.1454
  243MOL0     H32794   5.844   1.363   2.073 -1.7642 -1.6588 -3.8060
  243MOL0     H32795   5.686   1.588   1.908  0.9369 -0.7385 -0.4461
  243MOL0     H32796   5.637   1.514   2.059  0.5729  1.2580 -0.0766
  243MOL0     H32797   5.656   1.292   1.924 -1.5838  0.4325  0.5334
  243MOL0     H32798   5.689   1.386   1.783  2.9562  1.6673  1.1213
  243MOL0     H32799   5.455   1.374   1.982 -1.4821  2.2315 -0.1157
  243MOL0     H32800   5.464   1.500   1.858  2.1205  0.1962 -0.5644
  243MOL0     H32801   5.288   1.183   1.650  2.0287 -2.1164  2.0511
  243MOL0     H32802   6.096   1.427   1.698 -0.8639 -1.0216  0.8257
  243MOL0     H32803   6.355   1.414   1.594  0.8820  0.4415  1.8104
  243MOL0     H32804   6.426   1.268   1.667 -0.2647  0.7764 -0.1965
  243MOL0     H32805   6.258   1.263   1.609 -1.7212  2.2558 -1.2146
  244MOL0     O32806   7.298   7.711   0.869  0.1477  0.2897 -0.1208
  244MOL0     C32807   7.238   7.766   0.959  0.2220 -0.1658  0.0756
  244MOL0     O32808   7.123   7.841   0.941 -0.1625  0.0951  1.0998
  244MOL0     C32809   7.068   7.845   0.816  1.2955 -0.3113 -0.1070
  244MOL0     C32810   6.976   7.744   0.784 -0.2237 -0.1064  0.4428
  244MOL0     C32811   6.927   7.737   0.653  0.5121  0.5545  0.6563
  244MOL0     C32812   6.955   7.839   0.560 -0.1325 -0.1532  0.4584
  244MOL0     O32813   6.915   7.846   0.428  0.0165 -0.9914  1.0961
  244MOL0     C32814   6.808   7.750   0.400  0.2515  0.0310 -0.2184
  244MOL0     C32815   6.772   7.780   0.256 -0.5256  0.6768 -0.2520
  244MOL0     C32816   6.654   7.687   0.215 -0.3253 -0.4167 -0.4333
  244MOL0     C32817   6.592   7.686   0.074  0.0955 -0.7539  0.1623
  244MOL0     C32818   6.574   7.815   0.007  0.2205  0.9846  1.1313
  244MOL0     C32819   6.527   7.779  -0.138  0.0620  0.2541 -0.3927
  244MOL0     C32820   6.504   7.902  -0.223 -0.2655 -0.2017  0.2672
  244MOL0     C32821   6.639   7.961  -0.291  1.1508  0.8333 -0.3504
  244MOL0     N32822   6.617   8.034  -0.419 -0.6639  0.7267  0.7546
  244MOL0     C32823   6.551   8.156  -0.445 -0.1680  1.4108  0.3634
  244MOL0     C32824   6.543   8.162  -0.585 -0.4798 -0.0626 -0.7891
  244MOL0     C32825   6.480   8.271  -0.661 -0.1975 -0.3944  0.2149
  244MOL0     C32826   6.570   8.395  -0.665  0.4198  0.0272  0.3327
  244MOL0     C32827   6.526   8.504  -0.768 -0.0229 -0.5963 -0.3260
  244MOL0     C32828   6.403   8.566  -0.691 -0.2425  0.4883 -0.8147
  244MOL0     O32829   6.429   8.611  -0.555  0.2876  0.4777 -0.4945
  244MOL0     C32830   6.479   8.739  -0.534 -0.7122  0.2298 -0.7817
  244MOL0     C32831   6.387   8.830  -0.487  0.4784 -0.5628 -0.8824
  244MOL0     C32832   6.430   8.958  -0.468 -0.2591 -0.8407 -0.8394
  244MOL0     C32833   6.555   9.007  -0.512  0.1590  0.6657  1.9543
  244MOL0     C32834   6.594   9.148  -0.496 -0.5713 -0.1883 -0.6057
  244MOL0     O32835   6.733   9.170  -0.485  0.3457 -0.5925 -0.5378
  244MOL0     C32836   6.769   9.294  -0.436  1.2816  0.0009 -0.3157
  244MOL0     C32837   6.712   9.405  -0.498 -0.1677 -0.1417  0.0606
  244MOL0     C32838   6.752   9.527  -0.463  1.0071 -0.3939 -0.0162
  244MOL0     C32839   6.848   9.550  -0.352 -0.1572  0.7094  0.5961
  244MOL0     O32840   6.845   9.674  -0.304  0.0383  0.4772  1.0161
  244MOL0     C32841   6.899   9.684  -0.169 -0.1395 -0.4773  0.8961
  244MOL0     C32842   6.826   9.811  -0.112  0.5214 -1.2345 -0.4465
  244MOL0     C32843   6.854   9.954  -0.170  0.5989  0.1444 -0.5896
  244MOL0     C32844   6.901  10.058  -0.071 -0.2791  0.7828  0.6315
  244MOL0     C32845   6.810  10.183  -0.070  0.1439  0.1332  0.4207
  244MOL0     C32846   6.810  10.273  -0.200  0.0438  0.2739 -1.7079
  244MOL0     C32847   6.767  10.411  -0.153  0.4269  0.4482  0.3743
  244MOL0     C32848   6.811  10.518  -0.251  0.3665  0.1072  0.7124
  244MOL0    Cl32849   6.706  10.542  -0.392 -0.1421 -0.1526 -0.4804
  244MOL0     C32850   6.917   9.437  -0.302  0.3830  0.0110  0.4654
  244MOL0     C32851   6.875   9.308  -0.344 -0.1285  0.4555 -0.1118
  244MOL0     O32852   6.502   9.223  -0.452  1.0495  0.5678 -0.2320
  244MOL0     C32853   6.644   8.913  -0.570 -0.6650 -0.2082 -0.2856
  244MOL0     C32854   6.608   8.780  -0.564  0.9948  0.0604 -0.4860
  244MOL0     N32855   6.599   8.046  -0.636 -0.7024 -0.2735 -0.1892
  244MOL0     N32856   6.650   7.976  -0.544 -1.2514 -0.0536  0.0556
  244MOL0     C32857   7.042   7.944   0.602  0.4506  0.4308 -0.5934
  244MOL0     C32858   7.104   7.940   0.726  0.3612 -0.1504 -0.7009
  244MOL0     C32859   7.312   7.774   1.087  0.1161  0.1802  0.5092
  244MOL0     C32860   7.406   7.671   1.121 -0.1623 -0.3990 -0.4280
  244MOL0     C32861   7.466   7.666   1.250  0.2485 -0.1894  1.1348
  244MOL0     C32862   7.455   7.782   1.331 -1.1555  0.1307  0.5190
  244MOL0     O32863   7.514   7.775   1.447  0.8545  0.7228  0.3948
  244MOL0     C32864   7.598   7.885   1.473 -0.6827 -0.0119 -1.1687
  244MOL0     C32865   7.669   7.850   1.608 -0.4538  0.8736 -0.9818
  244MOL0     C32866   7.745   7.970   1.673  0.9661  0.4071 -0.9386
  244MOL0     C32867   7.880   8.009   1.607  0.2484  0.4436  0.0475
  244MOL0     C32868   7.926   8.138   1.666  0.0359 -0.0393  0.1138
  244MOL0     C32869   7.962   8.231   1.742  1.2740  0.0228 -1.0130
  244MOL0     C32870   7.355   7.873   1.302 -0.3601 -0.1092  1.1387
  244MOL0     C32871   7.293   7.881   1.178  0.3485 -0.2015 -0.3110
  244MOL0     C32872   7.197   7.999   1.158  0.0394 -0.0167  0.0943
  244MOL0     H32873   6.940   7.670   0.856  0.8173 -0.6753  0.3970
  244MOL0     H32874   6.858   7.655   0.637  0.8882  0.5093 -0.8099
  244MOL0     H32875   6.845   7.647   0.408 -3.0002 -1.3378 -1.0169
  244MOL0     H32876   6.722   7.756   0.467  1.3238 -3.0393  1.6332
  244MOL0     H32877   6.859   7.747   0.198  0.7984 -0.8381  2.4009
  244MOL0     H32878   6.750   7.884   0.230 -1.4623  0.5928  0.1554
  244MOL0     H32879   6.579   7.739   0.275  0.1010 -0.2976  0.0100
  244MOL0     H32880   6.686   7.588   0.248 -1.2408 -0.3390  0.7271
  244MOL0     H32881   6.665   7.638   0.009  0.7049 -1.4188  1.2986
  244MOL0     H32882   6.507   7.617   0.071  1.7968 -3.0186  1.2526
  244MOL0     H32883   6.498   7.883   0.046 -2.3713 -0.4974 -1.0373
  244MOL0     H32884   6.666   7.874  -0.005  0.4230  0.4519 -0.0499
  244MOL0     H32885   6.610   7.723  -0.181  1.9482  1.3690  1.5970
  244MOL0     H32886   6.432   7.726  -0.133 -0.5010  1.2207 -0.5708
  244MOL0     H32887   6.449   7.975  -0.164 -0.7749  0.3918 -0.9168
  244MOL0     H32888   6.446   7.859  -0.305 -1.2307  1.3794  0.0924
  244MOL0     H32889   6.680   8.035  -0.221 -2.5001  0.4847  2.4395
  244MOL0     H32890   6.719   7.887  -0.304  1.5309  0.9858  0.8966
  244MOL0     H32891   6.509   8.231  -0.378  0.2563 -0.4559  2.8446
  244MOL0     H32892   6.459   8.240  -0.764 -1.7596  1.2906 -0.0231
  244MOL0     H32893   6.382   8.283  -0.613 -1.1886  0.4235 -1.8444
  244MOL0     H32894   6.588   8.435  -0.565 -1.0652  3.2162 -0.5586
  244MOL0     H32895   6.664   8.357  -0.707 -0.8380 -1.3937 -1.3699
  244MOL0     H32896   6.508   8.466  -0.869  2.5428  2.2581 -2.0222
  244MOL0     H32897   6.614   8.568  -0.761  1.5591 -2.6955 -0.1800
  244MOL0     H32898   6.315   8.501  -0.690 -1.0459  1.5022  1.7041
  244MOL0     H32899   6.361   8.650  -0.748 -4.1271 -0.1833  0.7399
  244MOL0     H32900   6.289   8.795  -0.456  0.3566 -3.8568 -4.2798
  244MOL0     H32901   6.359   9.029  -0.428  1.9619  0.4281  1.1145
  244MOL0     H32902   6.639   9.378  -0.575  1.3105  0.0370 -1.4576
  244MOL0     H32903   6.707   9.607  -0.520  0.1117 -1.8071 -1.3819
  244MOL0     H32904   6.869   9.593  -0.116  0.9064 -1.4378 -0.1206
  244MOL0     H32905   7.008   9.694  -0.163 -0.3616  1.7784  2.6529
  244MOL0     H32906   6.719   9.798  -0.131  0.0037  1.6254  0.0523
  244MOL0     H32907   6.835   9.817  -0.004 -0.2072  0.9705 -0.4515
  244MOL0     H32908   6.925   9.928  -0.249 -0.2276 -0.6565 -1.0884
  244MOL0     H32909   6.762   9.988  -0.218 -1.6648 -0.9199  2.5959
  244MOL0     H32910   6.998  10.090  -0.108 -0.9356  4.4661  1.7717
  244MOL0     H32911   6.917  10.013   0.027  1.6225 -3.0338 -1.2153
  244MOL0     H32912   6.831  10.231   0.026 -0.9427 -3.8044  2.8340
  244MOL0     H32913   6.707  10.146  -0.070  1.2834 -3.3529  0.3162
  244MOL0     H32914   6.913  10.273  -0.237  0.8054 -2.4080  0.1246
  244MOL0     H32915   6.753  10.233  -0.284 -0.1574  0.8680 -1.8575
  244MOL0     H32916   6.823  10.439  -0.063  3.6477  2.1012 -1.9190
  244MOL0     H32917   6.658  10.404  -0.147  0.4568  0.4472  0.9149
  244MOL0     H32918   6.804  10.606  -0.187 -0.7502 -1.5675  3.0366
  244MOL0     H32919   6.916  10.520  -0.282  1.2370  2.7703  3.3279
  244MOL0     H32920   6.983   9.445  -0.216 -0.2679 -1.4688  1.1347
  244MOL0     H32921   6.930   9.222  -0.308 -2.1304 -1.1598 -0.7386
  244MOL0     H32922   6.746   8.939  -0.595 -1.4410  2.2656 -1.2005
  244MOL0     H32923   6.677   8.696  -0.576 -1.1141 -2.0469  1.1615
  244MOL0     H32924   7.064   8.017   0.525  2.1488 -1.9145 -2.4803
  244MOL0     H32925   7.181   8.012   0.750  1.8992 -1.9885  0.0985
  244MOL0     H32926   7.418   7.585   1.055 -4.0646 -3.5342  2.4644
  244MOL0     H32927   7.526   7.585   1.290  1.2252  0.1195  0.3521
  244MOL0     H32928   7.536   7.975   1.475 -0.0891  0.4225 -1.9480
  244MOL0     H32929   7.675   7.891   1.396  0.1606  0.1997 -0.3322
  244MOL0     H32930   7.732   7.760   1.611  0.4771  1.4870 -1.5969
  244MOL0     H32931   7.595   7.819   1.682 -0.3687 -2.1788 -2.0004
  244MOL0     H32932   7.780   7.944   1.773  1.7956  0.8177 -1.1168
  244MOL0     H32933   7.674   8.052   1.687  1.1962  0.1447  2.6076
  244MOL0     H32934   7.965   7.941   1.624  0.3948  0.7969  0.7615
  244MOL0     H32935   7.862   8.014   1.499 -1.9084 -0.4846  0.3284
  244MOL0     H32936   7.997   8.306   1.810 -0.1687  3.1561 -3.4236
  244MOL0     H32937   7.348   7.957   1.371 -2.3023  0.1640  0.6707
  244MOL0     H32938   7.219   8.057   1.068  0.4377 -2.5827 -1.5839
  244MOL0     H32939   7.094   7.968   1.140 -0.1905  1.7140 -1.8175
  244MOL0     H32940   7.193   8.063   1.246  1.7714 -2.1162  1.8513
  245MOL0     O32941   3.449   4.496   2.724 -0.1344  0.1141  0.7584
  245MOL0     C32942   3.471   4.537   2.839  0.2087 -0.3351 -0.0566
  245MOL0     O32943   3.506   4.663   2.874  0.1451  0.0014  0.0505
  245MOL0     C32944   3.549   4.753   2.776  0.5621  0.1286  0.4095
  245MOL0     C32945   3.527   4.895   2.797 -0.2981  0.0327 -0.2912
  245MOL0     C32946   3.567   4.985   2.700  1.0275  0.5692 -0.0128
  245MOL0     C32947   3.616   4.943   2.581 -1.6313  0.4812  0.0697
  245MOL0     O32948   3.625   5.046   2.490 -0.9207  0.5637  0.1339
  245MOL0     C32949   3.689   5.041   2.369  0.1864 -0.3394  0.1226
  245MOL0     C32950   3.569   5.064   2.262  0.2348  0.6157 -0.0461
  245MOL0     C32951   3.471   4.947   2.246  1.0361 -0.5244  0.6551
  245MOL0     C32952   3.534   4.849   2.145 -0.6333 -0.9482 -0.1358
  245MOL0     C32953   3.452   4.721   2.127  0.4044 -0.7882 -0.2552
  245MOL0     C32954   3.342   4.742   2.021 -0.5040 -0.2725 -0.3524
  245MOL0     C32955   3.243   4.626   2.024  0.1617  0.1005  0.0023
  245MOL0     C32956   3.166   4.609   2.159  0.6161  0.7025  0.7479
  245MOL0     N32957   3.075   4.726   2.183  0.3515  0.5476 -0.0320
  245MOL0     C32958   3.055   4.779   2.306 -0.2421 -0.0181 -0.5635
  245MOL0     C32959   2.970   4.874   2.294 -0.1408 -0.4089 -0.0337
  245MOL0     C32960   2.909   4.961   2.407 -0.5908  0.0073 -0.1878
  245MOL0     C32961   2.980   5.088   2.439 -0.0019  0.0361 -0.0911
  245MOL0     C32962   3.119   5.072   2.507  0.2766  0.2056 -0.9956
  245MOL0     C32963   3.153   5.196   2.561  0.2653  0.1932  0.1653
  245MOL0     O32964   3.048   5.250   2.652  0.3242  0.4212 -0.2482
  245MOL0     C32965   3.064   5.371   2.718 -0.1312 -0.1592  0.4763
  245MOL0     C32966   2.959   5.404   2.798  0.6144  0.0721 -0.2115
  245MOL0     C32967   2.974   5.524   2.876  0.0371 -1.0335  0.8259
  245MOL0     C32968   3.077   5.613   2.859  0.2160  0.3285  0.2940
  245MOL0     C32969   3.081   5.739   2.938 -0.2415  0.4519 -0.8932
  245MOL0     O32970   2.983   5.749   3.026 -0.2632 -0.8834  0.1243
  245MOL0     C32971   2.987   5.849   3.119  0.1382 -0.4026  0.6578
  245MOL0     C32972   3.096   5.894   3.199  0.2976  0.3209  1.5622
  245MOL0     C32973   3.082   5.979   3.310  1.2678 -0.2989 -0.7951
  245MOL0     C32974   2.947   6.010   3.351 -0.1295  0.4876 -1.5716
  245MOL0     O32975   2.924   6.113   3.442  0.2750  0.0449 -0.3519
  245MOL0     C32976   2.827   6.084   3.550  0.5035 -1.0100  0.4565
  245MOL0     C32977   2.786   6.210   3.621 -1.3123 -0.1595  0.1803
  245MOL0     C32978   2.679   6.194   3.725 -0.1618 -0.1081 -0.7181
  245MOL0     C32979   2.609   6.322   3.791 -0.1448  0.7757 -0.0346
  245MOL0     C32980   2.688   6.379   3.905 -0.5233  0.2464 -0.5831
  245MOL0     C32981   2.617   6.485   3.986 -0.4115  0.2385  0.0300
  245MOL0     C32982   2.605   6.623   3.910  0.1229  0.1584 -0.6187
  245MOL0     C32983   2.545   6.733   4.008  0.1300  0.0970 -0.3225
  245MOL0    Cl32984   2.415   6.674   4.117 -0.0368  0.1185  0.3372
  245MOL0     C32985   2.843   5.964   3.276 -0.1008  0.7217  0.3138
  245MOL0     C32986   2.855   5.894   3.155  0.0002  0.1773 -0.8203
  245MOL0     O32987   3.165   5.817   2.902 -0.9224  0.2107 -0.4629
  245MOL0     C32988   3.174   5.579   2.770 -0.6381  0.5369 -0.1608
  245MOL0     C32989   3.172   5.461   2.696 -0.0533  0.1156 -0.0271
  245MOL0     N32990   2.938   4.887   2.158 -0.2318 -0.7284 -0.1523
  245MOL0     N32991   3.012   4.801   2.090 -0.1357 -0.4692  0.1152
  245MOL0     C32992   3.633   4.807   2.550 -0.0486 -0.1846  0.7169
  245MOL0     C32993   3.615   4.709   2.652 -0.2433  0.3313 -0.0060
  245MOL0     C32994   3.429   4.464   2.966  0.2494  0.2262  0.4300
  245MOL0     C32995   3.432   4.524   3.092  0.2015  0.5097 -0.1264
  245MOL0     C32996   3.389   4.466   3.210 -0.5608 -0.1198 -0.4396
  245MOL0     C32997   3.341   4.339   3.204  1.0649  1.0864  0.1632
  245MOL0     O32998   3.315   4.270   3.325 -0.4709  0.4163 -0.1762
  245MOL0     C32999   3.346   4.130   3.341  0.6867  0.0035 -0.3279
  245MOL0     C33000   3.491   4.117   3.308 -0.0219 -0.4952 -0.6266
  245MOL0     C33001   3.549   3.988   3.374 -0.0467  0.1232  0.0829
  245MOL0     C33002   3.606   3.997   3.519  0.9455 -0.0765 -0.7170
  245MOL0     C33003   3.736   4.058   3.492 -0.7263  0.0167  0.1089
  245MOL0     C33004   3.853   4.081   3.458  0.7709  0.2520 -0.4378
  245MOL0     C33005   3.325   4.272   3.080 -0.1615  0.3259  0.5363
  245MOL0     C33006   3.375   4.324   2.965  0.1211 -0.1072 -1.1869
  245MOL0     C33007   3.348   4.231   2.852 -0.5856 -0.9717  0.7956
  245MOL0     H33008   3.496   4.938   2.892 -5.0440 -1.6140 -0.8190
  245MOL0     H33009   3.551   5.092   2.713 -0.6800  0.0678  3.0519
  245MOL0     H33010   3.747   5.133   2.358 -0.3621 -0.0190 -0.1280
  245MOL0     H33011   3.757   4.959   2.343 -2.0481 -2.4835  0.6943
  245MOL0     H33012   3.618   5.108   2.175 -0.9371  2.5486  0.2167
  245MOL0     H33013   3.498   5.143   2.288 -0.0779  0.2687  0.1639
  245MOL0     H33014   3.372   4.985   2.218  0.7726  0.2647  2.5215
  245MOL0     H33015   3.445   4.902   2.342 -0.8458 -0.1542  0.3701
  245MOL0     H33016   3.579   4.896   2.057  0.9987  1.3036  1.7706
  245MOL0     H33017   3.630   4.817   2.186  0.0969 -0.5870 -1.4911
  245MOL0     H33018   3.517   4.641   2.091  2.0563  0.3638  0.0306
  245MOL0     H33019   3.404   4.699   2.222 -2.1724  2.2171 -0.7081
  245MOL0     H33020   3.289   4.830   2.058  0.0552 -1.6007  4.2010
  245MOL0     H33021   3.402   4.756   1.931  2.1960  0.5804  1.4548
  245MOL0     H33022   3.302   4.536   2.005  0.9209  0.0109  2.4186
  245MOL0     H33023   3.177   4.651   1.941  0.5298  2.9779  0.4909
  245MOL0     H33024   3.096   4.527   2.140 -3.9319  3.8229  2.3495
  245MOL0     H33025   3.230   4.594   2.246  0.1659  1.4441  1.2123
  245MOL0     H33026   3.117   4.739   2.386  1.2905 -0.5338 -1.9493
  245MOL0     H33027   2.808   4.983   2.372 -2.2049 -2.0444  2.7441
  245MOL0     H33028   2.904   4.898   2.496 -1.1499 -0.7219 -0.7131
  245MOL0     H33029   2.988   5.130   2.338  0.9185  2.8468  1.0686
  245MOL0     H33030   2.915   5.145   2.505 -0.1812 -1.1115  0.7516
  245MOL0     H33031   3.187   5.056   2.423 -0.4819 -0.6268 -1.4749
  245MOL0     H33032   3.111   4.998   2.587 -0.1390 -0.1078 -1.3177
  245MOL0     H33033   3.150   5.269   2.480  1.0319  0.1336  0.0795
  245MOL0     H33034   3.257   5.203   2.592  0.0446  0.0516  0.9653
  245MOL0     H33035   2.868   5.346   2.808 -0.1793  1.0668 -1.4722
  245MOL0     H33036   2.890   5.537   2.943 -1.7095 -0.5549 -1.3464
  245MOL0     H33037   3.194   5.852   3.181  0.3752  1.6342 -1.5926
  245MOL0     H33038   3.166   6.025   3.362  1.6562 -1.6355 -0.1847
  245MOL0     H33039   2.739   6.036   3.506 -0.6072  1.9405 -0.8144
  245MOL0     H33040   2.880   6.019   3.620  0.2786  1.6252  3.3218
  245MOL0     H33041   2.877   6.244   3.671  0.7239 -1.8834 -2.1057
  245MOL0     H33042   2.765   6.295   3.556 -2.0214 -2.4819 -2.8868
  245MOL0     H33043   2.601   6.141   3.669  1.1926  0.0352 -2.8842
  245MOL0     H33044   2.707   6.129   3.809 -0.8271 -2.5057 -2.2398
  245MOL0     H33045   2.508   6.293   3.820  0.4809 -0.6177  0.8902
  245MOL0     H33046   2.596   6.392   3.708 -1.1789  0.3149 -0.2714
  245MOL0     H33047   2.786   6.413   3.870 -1.0497  2.2099 -0.2624
  245MOL0     H33048   2.713   6.290   3.964  1.7445  0.7473 -0.6839
  245MOL0     H33049   2.528   6.439   4.030  0.7202 -1.7478  0.3708
  245MOL0     H33050   2.685   6.511   4.067 -0.4003 -1.0977  0.4729
  245MOL0     H33051   2.534   6.595   3.831 -1.3261 -1.4089  1.1383
  245MOL0     H33052   2.700   6.658   3.869 -0.4085  2.4388 -0.0401
  245MOL0     H33053   2.625   6.772   4.071  0.7257  1.3170 -1.7541
  245MOL0     H33054   2.513   6.811   3.938 -0.3442  1.6999  1.5755
  245MOL0     H33055   2.745   6.006   3.296  0.5124  1.8164  1.0632
  245MOL0     H33056   2.756   5.868   3.119 -0.0166  0.0182 -0.6588
  245MOL0     H33057   3.266   5.633   2.748 -0.3375 -0.1309 -0.5748
  245MOL0     H33058   3.262   5.448   2.637 -0.2594  1.7917 -0.7745
  245MOL0     H33059   3.673   4.767   2.458 -0.6506 -3.6896  1.8253
  245MOL0     H33060   3.650   4.606   2.648 -1.0013  0.1081 -2.6785
  245MOL0     H33061   3.467   4.626   3.109 -3.4429  1.9876 -0.5332
  245MOL0     H33062   3.400   4.506   3.310 -0.2014 -0.2390 -0.4283
  245MOL0     H33063   3.281   4.075   3.272  1.9585  1.2454 -2.6576
  245MOL0     H33064   3.320   4.094   3.441  0.1612  1.6326  0.1484
  245MOL0     H33065   3.539   4.211   3.338 -0.1314 -0.8637  0.7764
  245MOL0     H33066   3.502   4.127   3.200  0.1235  0.2024 -0.5565
  245MOL0     H33067   3.614   3.950   3.296 -1.4399 -0.2235 -0.9430
  245MOL0     H33068   3.459   3.926   3.381 -0.6552  0.7665 -1.5108
  245MOL0     H33069   3.537   4.052   3.583  0.9335  0.8335 -1.4889
  245MOL0     H33070   3.606   3.897   3.563 -0.8936 -0.3744 -1.3179
  245MOL0     H33071   3.956   4.095   3.430  0.4143  1.0212 -1.3919
  245MOL0     H33072   3.294   4.168   3.090  2.2214 -0.5949 -0.6924
  245MOL0     H33073   3.390   4.261   2.756 -0.8178  3.0878  1.7733
  245MOL0     H33074   3.396   4.133   2.858  1.4859 -0.1221 -1.0209
  245MOL0     H33075   3.242   4.225   2.826 -0.3980 -1.1738  0.0470
  246MOL0     O33076   3.976   1.006   9.036  0.0929 -0.5721  0.4451
  246MOL0     C33077   3.922   1.091   9.108 -0.5578  0.5354 -0.2288
  246MOL0     O33078   3.995   1.161   9.196  0.8971  0.3742  0.7061
  246MOL0     C33079   4.128   1.141   9.207 -0.5269 -0.8124 -1.3630
  246MOL0     C33080   4.217   1.252   9.178  0.4437 -0.6042 -0.0587
  246MOL0     C33081   4.355   1.236   9.199 -0.3110 -0.0305  1.0131
  246MOL0     C33082   4.406   1.109   9.228  0.0377  0.2841  0.4303
  246MOL0     O33083   4.537   1.087   9.218 -0.1320 -0.0132 -0.7614
  246MOL0     C33084   4.608   1.094   9.343 -0.6984  0.3648  0.7409
  246MOL0     C33085   4.654   0.955   9.374 -0.6614  0.7569  0.4629
  246MOL0     C33086   4.764   0.886   9.281 -0.2778 -0.8860 -1.2015
  246MOL0     C33087   4.792   0.740   9.316 -0.3979 -0.1112 -0.0704
  246MOL0     C33088   4.868   0.675   9.196 -1.6140 -0.2915  0.5879
  246MOL0     C33089   4.884   0.521   9.212  0.0603  0.1727 -0.5755
  246MOL0     C33090   4.949   0.465   9.092 -1.1088 -0.1616  0.6173
  246MOL0     C33091   4.960   0.308   9.094 -0.2547 -0.6491  0.1179
  246MOL0     N33092   5.025   0.252   8.971  0.1787  0.3976  0.6905
  246MOL0     C33093   4.964   0.247   8.850  0.0141 -0.1852  0.5151
  246MOL0     C33094   5.061   0.171   8.780  0.1636 -0.0906  0.1070
  246MOL0     C33095   5.059   0.123   8.637  0.4279  0.0542  0.6233
  246MOL0     C33096   4.988  -0.013   8.622 -0.5307  0.2663  1.0691
  246MOL0     C33097   4.848  -0.016   8.696  0.5707 -0.0754  0.4378
  246MOL0     C33098   4.775  -0.147   8.679 -1.3119 -0.9571  0.7939
  246MOL0     O33099   4.645  -0.127   8.715  0.0496 -0.4326  0.7990
  246MOL0     C33100   4.557  -0.233   8.713  0.6238  0.0575  0.0476
  246MOL0     C33101   4.432  -0.210   8.769 -0.0761 -0.0570  0.1508
  246MOL0     C33102   4.343  -0.319   8.777  0.2883  0.2122 -0.4386
  246MOL0     C33103   4.378  -0.445   8.736  1.0229  0.5120 -0.5199
  246MOL0     C33104   4.283  -0.567   8.757 -0.5972  0.5402  0.3122
  246MOL0     O33105   4.191  -0.558   8.855  0.0216 -0.3743 -0.0633
  246MOL0     C33106   4.150  -0.669   8.922  0.7052  0.0316 -0.4939
  246MOL0     C33107   4.035  -0.643   8.989 -0.1672  0.1099 -0.4162
  246MOL0     C33108   3.980  -0.747   9.071  0.5307  0.3552  0.0016
  246MOL0     C33109   4.029  -0.877   9.070 -0.5264  0.1956  0.1630
  246MOL0     O33110   3.984  -0.984   9.138 -0.0790  0.9344 -0.2733
  246MOL0     C33111   3.841  -0.977   9.162  0.1089  0.9289 -0.8701
  246MOL0     C33112   3.801  -1.112   9.238 -0.2383 -0.0740 -0.1952
  246MOL0     C33113   3.852  -1.230   9.155  0.2956 -0.3373 -0.0052
  246MOL0     C33114   3.754  -1.344   9.174  0.0144  0.5379 -0.3706
  246MOL0     C33115   3.788  -1.487   9.128 -0.9152  0.6899 -0.8396
  246MOL0     C33116   3.811  -1.496   8.973 -0.3031 -0.5057 -0.9710
  246MOL0     C33117   3.857  -1.637   8.940 -1.0802 -0.5667  0.0193
  246MOL0     C33118   3.990  -1.668   8.993 -0.9930  0.3308  0.1204
  246MOL0    Cl33119   4.055  -1.770   8.873 -0.5981 -0.3239  0.3031
  246MOL0     C33120   4.141  -0.897   8.989  0.2592  0.2851  0.5380
  246MOL0     C33121   4.206  -0.801   8.929 -1.0397  0.7825 -0.1619
  246MOL0     O33122   4.303  -0.671   8.684  0.1320 -0.3385  0.7678
  246MOL0     C33123   4.502  -0.465   8.667  0.9232 -0.1641 -1.2264
  246MOL0     C33124   4.584  -0.357   8.663 -0.1866 -0.6982  1.0243
  246MOL0     N33125   5.165   0.134   8.861  0.2421  0.1693  0.5284
  246MOL0     N33126   5.143   0.185   8.976 -0.3081  0.7566 -0.3863
  246MOL0     C33127   4.322   1.001   9.251  0.3698 -0.9134  0.0927
  246MOL0     C33128   4.186   1.020   9.244  0.6921  1.1393  0.4583
  246MOL0     C33129   3.777   1.104   9.116 -0.4730 -0.1566  0.8890
  246MOL0     C33130   3.724   1.152   9.241  0.2007 -0.2694 -0.1807
  246MOL0     C33131   3.593   1.194   9.258 -0.3041  0.1949 -0.1855
  246MOL0     C33132   3.523   1.193   9.140  0.7933  1.1508 -0.1904
  246MOL0     O33133   3.391   1.213   9.152 -0.4083  0.2044  0.2875
  246MOL0     C33134   3.344   1.337   9.210 -0.4552 -1.5126 -0.9332
  246MOL0     C33135   3.341   1.453   9.108 -0.2298 -0.0300 -1.1124
  246MOL0     C33136   3.223   1.442   9.006  0.2770  0.2852 -0.0525
  246MOL0     C33137   3.246   1.539   8.880  0.7673  0.7701 -0.4320
  246MOL0     C33138   3.245   1.677   8.913  0.3882  0.3337 -1.3346
  246MOL0     C33139   3.242   1.793   8.945 -0.1038 -0.0039 -0.2648
  246MOL0     C33140   3.572   1.155   9.013  0.8092 -0.7821  0.2101
  246MOL0     C33141   3.697   1.113   8.997  0.0019  0.0118  0.2911
  246MOL0     C33142   3.742   1.077   8.863 -0.5613 -0.6866  0.2270
  246MOL0     H33143   4.179   1.346   9.141  0.9754  0.2620  1.4950
  246MOL0     H33144   4.446   1.295   9.199  2.8431 -4.4135  1.5753
  246MOL0     H33145   4.698   1.156   9.345 -2.7100  3.6105 -0.3859
  246MOL0     H33146   4.545   1.119   9.429  0.1079  0.5872  1.2824
  246MOL0     H33147   4.567   0.890   9.383 -1.1411  1.5017  1.2845
  246MOL0     H33148   4.706   0.966   9.469 -0.1580  4.6111 -0.1146
  246MOL0     H33149   4.856   0.944   9.286 -1.0481  0.5098 -2.4496
  246MOL0     H33150   4.732   0.894   9.177 -0.1577  3.5764 -1.1128
  246MOL0     H33151   4.853   0.737   9.407  1.2507  2.0462 -1.0208
  246MOL0     H33152   4.699   0.689   9.343 -0.2729  0.3802  1.3738
  246MOL0     H33153   4.804   0.689   9.108 -1.9623 -1.5425  0.6231
  246MOL0     H33154   4.964   0.726   9.203 -0.4748 -2.3869  1.2080
  246MOL0     H33155   4.944   0.491   9.298  0.2354  1.1643 -0.3396
  246MOL0     H33156   4.785   0.475   9.214 -0.7054  1.7724  0.5945
  246MOL0     H33157   5.047   0.514   9.081 -0.9854 -0.4210  0.5551
  246MOL0     H33158   4.882   0.493   9.010 -1.4552 -0.5243  0.7745
  246MOL0     H33159   5.024   0.292   9.181  1.3683  0.3185 -0.8330
  246MOL0     H33160   4.857   0.274   9.103 -1.3599  1.9045 -1.7345
  246MOL0     H33161   4.866   0.282   8.818  1.0704  0.1958 -2.5798
  246MOL0     H33162   5.014   0.199   8.572  0.7270  1.9130  2.4927
  246MOL0     H33163   5.163   0.117   8.604  0.4172  3.0930 -0.2602
  246MOL0     H33164   4.986  -0.041   8.516  1.9268 -0.5930  1.1995
  246MOL0     H33165   5.062  -0.076   8.672  1.8263  2.3931  0.5072
  246MOL0     H33166   4.779   0.066   8.677  0.4670  0.2100  1.9000
  246MOL0     H33167   4.876  -0.018   8.802  0.0846  0.4045  0.5801
  246MOL0     H33168   4.845  -0.214   8.731  3.6247 -1.6322 -5.4359
  246MOL0     H33169   4.790  -0.175   8.574  0.5358  1.8072  0.2058
  246MOL0     H33170   4.408  -0.115   8.815 -2.2842  1.8148 -4.2488
  246MOL0     H33171   4.245  -0.305   8.822 -0.4470 -0.4491 -1.7846
  246MOL0     H33172   3.987  -0.546   8.978  0.0631  0.4724  1.4505
  246MOL0     H33173   3.892  -0.730   9.132  0.1270 -0.0549 -0.4536
  246MOL0     H33174   3.812  -0.897   9.231 -3.9896 -1.2879  0.3013
  246MOL0     H33175   3.792  -0.966   9.065 -2.6756 -0.4048  0.2775
  246MOL0     H33176   3.856  -1.116   9.332  0.7593  2.7312 -0.5595
  246MOL0     H33177   3.695  -1.125   9.262 -0.1747 -0.6075 -0.1896
  246MOL0     H33178   3.867  -1.200   9.051 -1.6280  0.7811 -0.0103
  246MOL0     H33179   3.953  -1.260   9.184  0.5669 -0.9386 -1.5203
  246MOL0     H33180   3.657  -1.311   9.135 -0.4761  2.8185  2.4528
  246MOL0     H33181   3.738  -1.362   9.281  0.7930 -0.1190 -0.3569
  246MOL0     H33182   3.710  -1.557   9.158  0.7997 -1.1891 -0.5497
  246MOL0     H33183   3.876  -1.518   9.186 -2.6816 -2.9509  0.1803
  246MOL0     H33184   3.711  -1.479   8.931 -1.1495 -0.6952  0.8870
  246MOL0     H33185   3.882  -1.418   8.942 -0.0238 -0.4129 -0.1077
  246MOL0     H33186   3.866  -1.642   8.831 -1.8943 -0.0400 -0.0816
  246MOL0     H33187   3.787  -1.716   8.970  1.8821 -2.6299  2.1325
  246MOL0     H33188   4.049  -1.576   8.992  1.3308 -1.0292 -2.9433
  246MOL0     H33189   4.002  -1.721   9.089 -1.2125 -0.4360 -0.2657
  246MOL0     H33190   4.188  -0.994   8.986  4.1936  1.7508  4.2578
  246MOL0     H33191   4.286  -0.841   8.867 -1.1834  1.3977 -0.7670
  246MOL0     H33192   4.534  -0.561   8.628  0.7150  0.6656 -3.6255
  246MOL0     H33193   4.681  -0.388   8.626 -0.0954  0.7410 -0.0405
  246MOL0     H33194   4.370   0.903   9.248  2.0296 -0.1310 -2.6437
  246MOL0     H33195   4.127   0.929   9.245  4.2074 -1.4481 -1.8842
  246MOL0     H33196   3.796   1.151   9.323  1.3178  1.2999 -1.0974
  246MOL0     H33197   3.542   1.218   9.351  0.5084  0.1349  0.2861
  246MOL0     H33198   3.414   1.366   9.288 -1.8318 -1.3954  0.2949
  246MOL0     H33199   3.251   1.322   9.266  0.6702 -2.1218  0.8410
  246MOL0     H33200   3.438   1.450   9.057  0.6991 -1.5927  0.6367
  246MOL0     H33201   3.349   1.551   9.156  2.7379  0.6550 -2.7372
  246MOL0     H33202   3.134   1.470   9.064  1.8735  1.8485  1.7815
  246MOL0     H33203   3.208   1.342   8.964 -0.2803 -0.3259  1.5346
  246MOL0     H33204   3.340   1.516   8.828  0.9619  0.3921  0.0859
  246MOL0     H33205   3.161   1.535   8.811 -2.7304  3.9278  3.1903
  246MOL0     H33206   3.245   1.896   8.974 -0.7611 -0.3895  1.2516
  246MOL0     H33207   3.512   1.157   8.922 -0.8298  2.4687  1.2046
  246MOL0     H33208   3.834   1.127   8.829 -1.4720  1.6388  0.9701
  246MOL0     H33209   3.767   0.971   8.873  1.6404 -0.0039  4.2555
  246MOL0     H33210   3.669   1.088   8.782  0.4755 -1.6204 -0.8731
  247MOL0     O33211  11.317   4.074   1.539  0.0974  0.1362 -0.4104
  247MOL0     C33212  11.255   4.175   1.523 -0.3181 -1.6597  0.4990
  247MOL0     O33213  11.140   4.208   1.583  0.3634 -0.2116  0.6769
  247MOL0     C33214  11.067   4.115   1.648  0.4525  0.0385 -0.5431
  247MOL0     C33215  11.029   4.156   1.777 -0.6736 -0.0083  0.5166
  247MOL0     C33216  10.953   4.068   1.852 -0.1682  0.2276 -0.2988
  247MOL0     C33217  10.902   3.946   1.804 -0.5807  0.2206  0.9410
  247MOL0     O33218  10.827   3.863   1.877  0.2726  0.9701  0.1171
  247MOL0     C33219  10.754   3.924   1.980 -0.2706  0.8944 -0.3957
  247MOL0     C33220  10.627   3.833   2.026  0.1318 -0.0119 -0.1776
  247MOL0     C33221  10.513   3.808   1.928  0.6004  0.5664 -0.0314
  247MOL0     C33222  10.394   3.732   1.990 -0.6123 -0.0605  0.4056
  247MOL0     C33223  10.293   3.728   1.877 -0.0730  0.2066  0.1998
  247MOL0     C33224  10.166   3.639   1.909 -0.3734 -0.3139  0.0789
  247MOL0     C33225  10.081   3.681   2.033 -0.1625 -0.1896 -0.0638
  247MOL0     C33226  10.046   3.829   2.054  0.2194 -0.5172  0.5623
  247MOL0     N33227   9.997   3.895   1.932  0.3865  0.2971  0.3011
  247MOL0     C33228   9.919   3.822   1.832 -0.7966 -0.0133 -0.0384
  247MOL0     C33229   9.893   3.919   1.741  0.2382  0.5261 -0.1836
  247MOL0     C33230   9.816   3.907   1.617  0.6741 -0.7274  0.0487
  247MOL0     C33231   9.897   3.915   1.488  0.4193 -0.9347  1.5648
  247MOL0     C33232  10.030   3.829   1.493  0.4320 -0.2718 -0.4615
  247MOL0     C33233  10.081   3.792   1.358 -0.1131  0.3653 -0.5481
  247MOL0     O33234  10.201   3.725   1.378 -0.5720 -0.0302 -0.3276
  247MOL0     C33235  10.270   3.681   1.270  0.2013  0.3012 -0.2969
  247MOL0     C33236  10.258   3.717   1.140  0.6087  0.3845 -1.0318
  247MOL0     C33237  10.348   3.668   1.040 -0.2837  0.3451  0.6921
  247MOL0     C33238  10.447   3.576   1.077  0.0351  0.8369 -0.8800
  247MOL0     C33239  10.556   3.527   0.987 -0.2199 -0.7597 -0.2000
  247MOL0     O33240  10.526   3.537   0.856 -0.8084 -0.9060 -0.4477
  247MOL0     C33241  10.617   3.488   0.763  0.3558 -0.0363 -0.4207
  247MOL0     C33242  10.724   3.559   0.704  0.5506  0.4737 -0.5614
  247MOL0     C33243  10.813   3.502   0.611  0.8808 -0.2309 -0.1223
  247MOL0     C33244  10.792   3.375   0.560  0.5719  0.2199 -0.2705
  247MOL0     O33245  10.877   3.330   0.461  0.3488  0.1733 -0.1966
  247MOL0     C33246  10.908   3.189   0.462  0.6437 -0.8737  0.2529
  247MOL0     C33247  11.013   3.146   0.360 -0.1211  0.4454  1.3355
  247MOL0     C33248  11.154   3.202   0.381  0.1615 -0.2784 -0.4601
  247MOL0     C33249  11.168   3.342   0.358 -0.0981 -0.5745 -0.1080
  247MOL0     C33250  11.311   3.392   0.374  0.1175  0.0591 -0.5170
  247MOL0     C33251  11.307   3.547   0.364 -0.2052  0.0749  0.3458
  247MOL0     C33252  11.447   3.605   0.339  0.8940 -0.1089 -0.0550
  247MOL0     C33253  11.486   3.731   0.421  0.3632 -0.9174  0.4384
  247MOL0    Cl33254  11.451   3.695   0.595  0.1312 -0.1887 -0.3888
  247MOL0     C33255  10.684   3.302   0.612 -0.1346  0.1130  0.1768
  247MOL0     C33256  10.605   3.355   0.719 -0.8714  0.3805 -0.6939
  247MOL0     O33257  10.659   3.489   1.035  0.7383 -0.3812 -0.7081
  247MOL0     C33258  10.454   3.546   1.211  0.4887  0.2610 -0.8532
  247MOL0     C33259  10.361   3.589   1.307 -1.4149 -0.0070  0.3990
  247MOL0     N33260   9.942   4.045   1.784  0.3157 -0.8070 -0.4299
  247MOL0     N33261   9.994   4.033   1.902  0.7249  0.6326  0.1709
  247MOL0     C33262  10.935   3.916   1.672 -0.3428  0.2327 -0.5907
  247MOL0     C33263  11.010   3.999   1.590 -0.5862 -0.0882 -0.6250
  247MOL0     C33264  11.293   4.254   1.397  0.2751 -0.5945 -0.0513
  247MOL0     C33265  11.367   4.183   1.302  0.8730  0.0913  0.8211
  247MOL0     C33266  11.410   4.238   1.177  0.6052 -0.0634 -0.9907
  247MOL0     C33267  11.383   4.379   1.147 -0.1238 -0.1727 -1.5164
  247MOL0     O33268  11.436   4.455   1.040  0.6338 -0.2591  0.3814
  247MOL0     C33269  11.502   4.374   0.940 -0.3393  0.4262 -0.1732
  247MOL0     C33270  11.398   4.298   0.854 -1.1808  0.2277  0.1434
  247MOL0     C33271  11.484   4.234   0.744  0.0553  0.2512  0.4987
  247MOL0     C33272  11.572   4.113   0.786 -1.7823 -0.5845 -0.3209
  247MOL0     C33273  11.511   4.011   0.870  0.1955  0.2856  0.0350
  247MOL0     C33274  11.453   3.940   0.949  0.2447  0.3019 -0.8105
  247MOL0     C33275  11.309   4.449   1.243  0.1231 -0.0489 -0.0193
  247MOL0     C33276  11.268   4.391   1.365  0.5041 -0.0867 -0.6424
  247MOL0     C33277  11.187   4.482   1.462 -0.3833  0.3354  0.0444
  247MOL0     H33278  11.060   4.254   1.810 -3.3376  0.4165  2.0156
  247MOL0     H33279  10.932   4.096   1.954  2.6288 -1.1171  0.7484
  247MOL0     H33280  10.815   3.910   2.070 -1.5386 -1.4973  0.1863
  247MOL0     H33281  10.712   4.021   1.952  0.2885  1.3154  0.1767
  247MOL0     H33282  10.582   3.878   2.115  0.2291 -1.1500  0.4784
  247MOL0     H33283  10.660   3.734   2.059  0.1120 -0.7768 -2.3348
  247MOL0     H33284  10.551   3.742   1.849  0.8976  2.2409 -1.3753
  247MOL0     H33285  10.490   3.903   1.878  1.6626  1.2110  0.6559
  247MOL0     H33286  10.418   3.631   2.024 -3.2907 -1.2518 -0.9496
  247MOL0     H33287  10.355   3.793   2.072 -0.4210 -1.2087  1.3662
  247MOL0     H33288  10.271   3.835   1.866 -0.8589 -0.1063 -1.5782
  247MOL0     H33289  10.337   3.697   1.782  0.3244  2.7172 -0.5265
  247MOL0     H33290  10.112   3.632   1.814  1.7088  2.0482 -1.3846
  247MOL0     H33291  10.201   3.535   1.916 -0.9192 -0.6075 -1.2319
  247MOL0     H33292  10.133   3.640   2.120 -0.0444 -1.6033 -0.7623
  247MOL0     H33293   9.982   3.636   2.044 -0.6258  1.1319  1.4813
  247MOL0     H33294   9.957   3.828   2.118 -2.9239 -2.8003 -3.3977
  247MOL0     H33295  10.124   3.892   2.098  0.5429 -0.2268 -0.3994
  247MOL0     H33296   9.915   3.714   1.828  4.6626 -0.4262 -3.3452
  247MOL0     H33297   9.769   3.809   1.617 -0.2904 -0.2812  0.7503
  247MOL0     H33298   9.737   3.982   1.616  1.3973  0.0561 -0.0805
  247MOL0     H33299   9.833   3.879   1.407  1.3254  0.2682  0.2703
  247MOL0     H33300   9.925   4.019   1.473 -0.9258 -0.5722  1.3845
  247MOL0     H33301  10.000   3.745   1.556 -1.5704 -0.2825 -1.3292
  247MOL0     H33302  10.110   3.881   1.546  0.4442  0.4290 -1.1495
  247MOL0     H33303  10.113   3.885   1.310  1.5745  0.5819  0.9075
  247MOL0     H33304  10.002   3.744   1.299 -0.6735  0.9156 -0.2559
  247MOL0     H33305  10.184   3.795   1.124 -2.3826 -1.7149  1.4355
  247MOL0     H33306  10.348   3.702   0.937 -2.9157  1.9073  1.1231
  247MOL0     H33307  10.745   3.655   0.752 -0.2978  0.1811  0.4386
  247MOL0     H33308  10.894   3.565   0.576  0.1792  0.7579 -0.0311
  247MOL0     H33309  10.944   3.170   0.563 -2.0547  2.1893  1.9452
  247MOL0     H33310  10.817   3.130   0.452  0.0609 -0.9353  4.2676
  247MOL0     H33311  11.009   3.038   0.370  0.6917  0.6144  5.0066
  247MOL0     H33312  10.980   3.188   0.264 -0.5232  1.1219  1.7553
  247MOL0     H33313  11.174   3.190   0.488 -0.6560 -0.9871 -0.3727
  247MOL0     H33314  11.231   3.150   0.324  0.5248 -1.6207  1.1511
  247MOL0     H33315  11.108   3.388   0.437 -0.4385 -0.5713 -0.3653
  247MOL0     H33316  11.123   3.364   0.261 -1.4585 -0.9883  0.4130
  247MOL0     H33317  11.364   3.352   0.287 -1.3810  2.0502 -2.4867
  247MOL0     H33318  11.352   3.375   0.474  0.4339  1.4181 -0.3896
  247MOL0     H33319  11.253   3.579   0.274  0.7942  0.2553 -0.2097
  247MOL0     H33320  11.260   3.588   0.454 -2.8516 -0.4455 -0.7167
  247MOL0     H33321  11.458   3.621   0.232  0.0099 -3.4273 -0.7460
  247MOL0     H33322  11.519   3.527   0.365  0.2112 -0.9723 -0.7134
  247MOL0     H33323  11.589   3.759   0.397 -0.9331  1.2470 -3.4072
  247MOL0     H33324  11.431   3.814   0.376  2.5859  1.4691  1.8614
  247MOL0     H33325  10.650   3.208   0.571  0.2198 -1.3202  2.9085
  247MOL0     H33326  10.518   3.300   0.755 -0.5798  1.9599  2.7945
  247MOL0     H33327  10.536   3.494   1.259  0.0998  2.5111  2.6032
  247MOL0     H33328  10.389   3.551   1.405  2.1224  1.9743  0.3192
  247MOL0     H33329  10.890   3.821   1.646 -1.0934  0.2113  0.7070
  247MOL0     H33330  11.013   3.968   1.487  3.0877 -3.1533  0.1929
  247MOL0     H33331  11.383   4.077   1.321  0.8107  0.0169  0.4726
  247MOL0     H33332  11.459   4.173   1.106  0.4813 -0.1324 -1.0134
  247MOL0     H33333  11.573   4.305   0.986 -1.2638 -0.0930  0.4923
  247MOL0     H33334  11.568   4.431   0.874  3.9549 -0.0712  3.2066
  247MOL0     H33335  11.325   4.368   0.812  0.6915  1.9864 -0.3556
  247MOL0     H33336  11.352   4.217   0.911 -1.0480 -0.4848 -0.7416
  247MOL0     H33337  11.557   4.306   0.706 -0.5223 -0.1268 -1.4169
  247MOL0     H33338  11.417   4.202   0.663 -0.8225 -0.4824  1.4809
  247MOL0     H33339  11.608   4.074   0.691 -1.0830  0.3513 -0.4501
  247MOL0     H33340  11.651   4.163   0.842 -0.7702 -1.2121 -1.1578
  247MOL0     H33341  11.397   3.876   1.014 -0.4656  2.0502  0.3669
  247MOL0     H33342  11.307   4.556   1.223  2.7029 -0.0157 -0.3652
  247MOL0     H33343  11.096   4.422   1.476 -0.5785  0.5101 -0.4597
  247MOL0     H33344  11.238   4.489   1.558  0.8882 -0.8435 -0.5046
  247MOL0     H33345  11.152   4.566   1.402  0.9192 -0.7082 -2.3498
  248MOL0     O33346   2.500   5.906   0.146  0.4160 -0.0076 -0.2079
  248MOL0     C33347   2.575   5.992   0.196 -0.3837  0.0052 -0.0093
  248MOL0     O33348   2.592   6.017   0.325 -0.0048 -0.9209 -0.1559
  248MOL0     C33349   2.532   5.942   0.423  0.2397  0.5325 -0.7190
  248MOL0     C33350   2.402   5.888   0.421  0.0306  0.5675  0.6093
  248MOL0     C33351   2.362   5.816   0.527 -0.2963 -0.2395 -0.6888
  248MOL0     C33352   2.432   5.803   0.642  0.2095  0.1538 -0.6713
  248MOL0     O33353   2.399   5.722   0.747 -0.0455 -1.0535  0.4949
  248MOL0     C33354   2.281   5.640   0.742 -1.3352  0.4813  0.3287
  248MOL0     C33355   2.297   5.509   0.654  0.0972  0.1719  0.0952
  248MOL0     C33356   2.430   5.434   0.694 -0.0665  0.1122 -1.4819
  248MOL0     C33357   2.421   5.283   0.670 -0.6080 -0.3970  1.0813
  248MOL0     C33358   2.561   5.230   0.675  0.6618  0.3297  0.0617
  248MOL0     C33359   2.620   5.204   0.808 -0.7515 -0.3088 -0.2940
  248MOL0     C33360   2.772   5.180   0.793 -0.1663  0.1949 -0.0742
  248MOL0     C33361   2.860   5.302   0.777  0.0216  0.1311 -0.0200
  248MOL0     N33362   2.856   5.391   0.893  0.2557  0.0953  0.1662
  248MOL0     C33363   2.849   5.530   0.874  0.0007 -0.4283 -0.4120
  248MOL0     C33364   2.842   5.589   0.997  0.6875  0.7414  0.5835
  248MOL0     C33365   2.815   5.728   1.042  1.0557 -0.3620  0.2818
  248MOL0     C33366   2.662   5.753   1.021  0.5834 -0.5866 -0.1425
  248MOL0     C33367   2.582   5.695   1.139 -0.1925  0.1934 -0.0311
  248MOL0     C33368   2.434   5.747   1.136  0.6017  0.9545  0.3605
  248MOL0     O33369   2.418   5.876   1.204 -0.3666  0.9254  0.5200
  248MOL0     C33370   2.413   5.878   1.342 -0.0632 -0.4037 -0.7056
  248MOL0     C33371   2.373   5.769   1.423  0.3403  0.0266 -0.1272
  248MOL0     C33372   2.388   5.767   1.559  0.3077 -0.0191  0.2971
  248MOL0     C33373   2.416   5.890   1.620 -0.0641 -1.0220 -0.1012
  248MOL0     C33374   2.415   5.900   1.765 -0.1934 -0.3613  1.0349
  248MOL0     O33375   2.432   6.023   1.816  0.3470  0.7755 -0.5766
  248MOL0     C33376   2.423   6.034   1.959 -1.2555 -0.4077 -0.4246
  248MOL0     C33377   2.301   6.004   2.021 -0.4917  0.1322  0.3061
  248MOL0     C33378   2.286   6.000   2.157  0.8217  0.7984  0.3691
  248MOL0     C33379   2.393   6.030   2.240 -0.5175 -0.3097  0.5634
  248MOL0     O33380   2.392   6.014   2.373  0.0653 -1.0493 -0.8676
  248MOL0     C33381   2.350   5.888   2.431 -0.7635 -0.4805  0.1669
  248MOL0     C33382   2.363   5.915   2.581  0.8852 -0.5191 -0.1696
  248MOL0     C33383   2.258   5.835   2.649 -1.0713  0.2142  1.0274
  248MOL0     C33384   2.270   5.853   2.804  0.1900  0.1330  0.2387
  248MOL0     C33385   2.170   5.764   2.881 -0.4333 -0.0418  0.5995
  248MOL0     C33386   2.037   5.836   2.908 -0.7308 -0.1394  0.4359
  248MOL0     C33387   1.960   5.781   3.034  0.8347  0.6511  1.4781
  248MOL0     C33388   2.004   5.849   3.158 -0.3143 -0.8085  0.5628
  248MOL0    Cl33389   2.166   5.860   3.212  0.0240 -0.2542  0.2814
  248MOL0     C33390   2.513   6.056   2.184 -0.7818 -0.4255 -0.4818
  248MOL0     C33391   2.531   6.061   2.045 -0.2466  0.0948 -0.0236
  248MOL0     O33392   2.399   5.792   1.828  0.5242 -0.6014 -0.2171
  248MOL0     C33393   2.442   6.010   1.539  0.2455 -0.3285 -0.8405
  248MOL0     C33394   2.436   6.000   1.405 -0.4964 -0.9264  0.9285
  248MOL0     N33395   2.842   5.483   1.086  0.1911 -0.2435 -0.4744
  248MOL0     N33396   2.857   5.368   1.031 -0.5415  0.0059  0.2623
  248MOL0     C33397   2.557   5.855   0.649  0.6994 -1.2888 -0.4122
  248MOL0     C33398   2.612   5.918   0.535 -0.6436  0.7349  0.4153
  248MOL0     C33399   2.625   6.088   0.102 -0.0347  0.4879  0.5562
  248MOL0     C33400   2.718   6.183   0.164  0.1209 -0.6497 -0.2966
  248MOL0     C33401   2.787   6.288   0.092  0.4747  0.9307  0.0790
  248MOL0     C33402   2.768   6.297  -0.051 -0.7867  0.7405  0.2227
  248MOL0     O33403   2.828   6.401  -0.104  0.2465  0.6762  0.4972
  248MOL0     C33404   2.757   6.446  -0.228 -0.2174 -0.1650 -0.0562
  248MOL0     C33405   2.817   6.580  -0.272  0.4759 -0.4671  0.3053
  248MOL0     C33406   2.747   6.651  -0.390  0.4428 -0.2013  0.5555
  248MOL0     C33407   2.602   6.683  -0.372  0.3236  0.1863 -0.1208
  248MOL0     C33408   2.594   6.819  -0.337  0.5532  0.0581 -0.6067
  248MOL0     C33409   2.604   6.937  -0.308  0.7073  0.1673 -0.5189
  248MOL0     C33410   2.681   6.206  -0.110  0.5155  0.3593 -0.0295
  248MOL0     C33411   2.619   6.096  -0.043 -0.5154  0.7216 -0.1408
  248MOL0     C33412   2.513   6.023  -0.117 -0.6890 -0.0621 -0.1004
  248MOL0     H33413   2.338   5.901   0.335 -1.6286 -1.3413  1.4439
  248MOL0     H33414   2.261   5.778   0.535 -0.2549 -0.0958  0.9140
  248MOL0     H33415   2.251   5.605   0.841  2.4615  1.7088  2.1216
  248MOL0     H33416   2.197   5.702   0.710 -0.8345 -1.2775 -5.6890
  248MOL0     H33417   2.304   5.526   0.546  1.0249 -2.0141 -0.2237
  248MOL0     H33418   2.211   5.442   0.661  1.5414 -1.5904  2.1064
  248MOL0     H33419   2.443   5.438   0.803  1.3814 -0.9851 -1.5970
  248MOL0     H33420   2.517   5.477   0.644  0.9745  3.5507  2.6500
  248MOL0     H33421   2.345   5.220   0.717 -1.9903 -1.6770 -2.5273
  248MOL0     H33422   2.391   5.279   0.565  0.1547  3.3502  0.5790
  248MOL0     H33423   2.562   5.132   0.626 -0.9430  0.0748  0.4711
  248MOL0     H33424   2.623   5.295   0.613 -1.7376  0.0580 -2.8383
  248MOL0     H33425   2.612   5.292   0.873 -0.6558 -1.6103  1.5552
  248MOL0     H33426   2.568   5.120   0.855 -1.2809 -0.1737 -0.6246
  248MOL0     H33427   2.795   5.122   0.703 -0.4848  1.3649 -0.9329
  248MOL0     H33428   2.798   5.134   0.889 -1.7484 -0.5307  0.0373
  248MOL0     H33429   2.966   5.276   0.769  0.0776  0.2541  0.2995
  248MOL0     H33430   2.830   5.357   0.688  0.1429 -1.3045 -0.9753
  248MOL0     H33431   2.867   5.587   0.784 -0.7700 -2.8795 -2.2086
  248MOL0     H33432   2.833   5.755   1.147 -0.8032 -0.2510  0.6031
  248MOL0     H33433   2.870   5.792   0.973  0.1315 -0.5037 -0.6032
  248MOL0     H33434   2.632   5.858   1.018 -0.2870 -0.7265  1.9918
  248MOL0     H33435   2.634   5.708   0.925 -1.1062 -5.0720  2.1453
  248MOL0     H33436   2.632   5.720   1.233 -2.6782  4.0712  0.4724
  248MOL0     H33437   2.590   5.587   1.124 -1.5030  0.3859 -2.8722
  248MOL0     H33438   2.368   5.669   1.176  1.0167  0.2137 -0.3717
  248MOL0     H33439   2.418   5.748   1.028 -0.1241 -1.2502  0.3950
  248MOL0     H33440   2.345   5.673   1.381 -1.2505  0.6851 -0.6508
  248MOL0     H33441   2.368   5.674   1.612 -0.9112 -1.2467 -2.1480
  248MOL0     H33442   2.211   5.973   1.969 -0.9875  1.1514  0.5356
  248MOL0     H33443   2.196   5.970   2.210 -0.1261 -0.5146 -1.8475
  248MOL0     H33444   2.253   5.864   2.389 -0.9792  2.7448 -1.4669
  248MOL0     H33445   2.418   5.808   2.399  1.6641  2.3238 -2.3720
  248MOL0     H33446   2.462   5.894   2.623  0.6670 -0.3795  0.4260
  248MOL0     H33447   2.338   6.022   2.582 -2.3791 -1.1577 -0.5735
  248MOL0     H33448   2.166   5.886   2.619  0.6613  3.2255  0.3709
  248MOL0     H33449   2.272   5.735   2.608 -2.1116  0.3591  0.2707
  248MOL0     H33450   2.274   5.957   2.837  2.7817  0.9350 -2.2190
  248MOL0     H33451   2.368   5.810   2.827 -0.1871 -2.8564 -2.9151
  248MOL0     H33452   2.219   5.738   2.975 -1.5331 -3.5337  0.3477
  248MOL0     H33453   2.157   5.667   2.831  1.0603 -0.3565  0.7882
  248MOL0     H33454   2.046   5.945   2.914 -1.1042 -0.1711  2.9109
  248MOL0     H33455   1.980   5.806   2.820  0.8493 -2.6604  0.1574
  248MOL0     H33456   1.965   5.672   3.037 -0.4555  0.3338 -2.2150
  248MOL0     H33457   1.856   5.810   3.017  1.2826  2.8057  2.0931
  248MOL0     H33458   1.956   5.948   3.162 -0.0129 -0.4455 -2.6205
  248MOL0     H33459   1.950   5.790   3.232 -2.4234 -3.7848 -3.0498
  248MOL0     H33460   2.588   6.065   2.261 -1.9840  0.1146  0.6554
  248MOL0     H33461   2.624   6.086   1.994  0.2549 -0.4585  0.5924
  248MOL0     H33462   2.461   6.103   1.592 -1.8983 -0.4534  0.2301
  248MOL0     H33463   2.453   6.090   1.346 -2.7383 -1.5147 -0.7480
  248MOL0     H33464   2.610   5.846   0.743 -2.7419 -0.5302  1.8071
  248MOL0     H33465   2.710   5.960   0.555 -0.2479  0.6129 -1.1418
  248MOL0     H33466   2.745   6.167   0.268 -0.8529  1.3147  0.2879
  248MOL0     H33467   2.858   6.356   0.137  2.7528 -0.5697 -1.0422
  248MOL0     H33468   2.649   6.457  -0.212 -0.3825 -2.5652  0.8335
  248MOL0     H33469   2.780   6.370  -0.303 -1.0781  1.7488 -2.3857
  248MOL0     H33470   2.926   6.576  -0.277  0.4799 -0.7743  0.6296
  248MOL0     H33471   2.817   6.638  -0.179 -1.4695  1.1440 -0.6245
  248MOL0     H33472   2.759   6.585  -0.476 -1.7387 -0.8057  0.6508
  248MOL0     H33473   2.790   6.749  -0.412 -0.4099  0.3255  1.1660
  248MOL0     H33474   2.542   6.663  -0.461  1.2212 -0.5407 -0.5890
  248MOL0     H33475   2.549   6.626  -0.295 -0.0129  0.9003  0.1812
  248MOL0     H33476   2.606   7.043  -0.291 -0.1912  0.0356  0.5418
  248MOL0     H33477   2.682   6.213  -0.218 -0.3397  3.9308  0.0534
  248MOL0     H33478   2.518   6.054  -0.222 -0.6630  4.1120  0.9480
  248MOL0     H33479   2.515   5.916  -0.095 -0.9223  0.5821  3.6723
  248MOL0     H33480   2.414   6.055  -0.084 -1.0390 -1.3811  0.1782
  249MOL0     O33481  10.303   7.317   7.705 -0.5225  0.1580 -0.7524
  249MOL0     C33482  10.416   7.342   7.755  0.3205  0.1070  0.2637
  249MOL0     O33483  10.477   7.461   7.759 -0.0953 -0.0891  0.0989
  249MOL0     C33484  10.400   7.571   7.789 -0.3743  0.2103  0.7842
  249MOL0     C33485  10.427   7.642   7.906  0.8608  0.0974 -0.8165
  249MOL0     C33486  10.370   7.768   7.916 -0.7155 -0.3916 -0.6014
  249MOL0     C33487  10.292   7.828   7.824  0.3863 -0.0652 -0.5114
  249MOL0     O33488  10.233   7.939   7.877 -1.0855 -0.1961  0.1654
  249MOL0     C33489  10.260   8.058   7.812  0.0302 -1.6865 -0.1525
  249MOL0     C33490  10.262   8.174   7.907 -0.1869 -0.4423 -0.7749
  249MOL0     C33491  10.402   8.228   7.927  0.5280 -0.7488 -0.0470
  249MOL0     C33492  10.500   8.124   7.999 -0.0389 -0.5346  1.4528
  249MOL0     C33493  10.482   8.140   8.154  0.0288  0.3450 -0.4348
  249MOL0     C33494  10.541   8.028   8.240  0.3471  0.7413 -0.5704
  249MOL0     C33495  10.528   8.065   8.389  0.5463  1.1421 -0.4757
  249MOL0     C33496  10.564   7.937   8.468 -0.7130 -0.5642  1.0412
  249MOL0     N33497  10.461   7.842   8.446 -1.2322  0.2393  0.5016
  249MOL0     C33498  10.338   7.828   8.508 -0.1858  0.2584  0.1216
  249MOL0     C33499  10.295   7.709   8.460  1.5489  0.1484 -0.9839
  249MOL0     C33500  10.176   7.648   8.527 -0.1481 -0.0562  0.5837
  249MOL0     C33501  10.048   7.704   8.472  1.2199  0.1598  0.9591
  249MOL0     C33502   9.922   7.691   8.558 -0.0560  0.3119 -0.3195
  249MOL0     C33503   9.792   7.746   8.496 -0.6371 -0.2883  0.4963
  249MOL0     O33504   9.686   7.750   8.598 -0.2928 -0.1491  0.0191
  249MOL0     C33505   9.555   7.775   8.553 -0.7537  0.1377  0.1086
  249MOL0     C33506   9.449   7.725   8.631  0.7998 -0.5597 -0.5099
  249MOL0     C33507   9.314   7.734   8.588 -0.4503 -0.6447  0.1874
  249MOL0     C33508   9.275   7.783   8.461 -0.6267  0.2159  0.1377
  249MOL0     C33509   9.132   7.812   8.436  0.0640  0.7255  0.1814
  249MOL0     O33510   9.043   7.787   8.539  0.4994 -0.1220  0.3097
  249MOL0     C33511   8.941   7.866   8.562 -0.3598  0.6672 -0.8296
  249MOL0     C33512   8.877   7.950   8.469 -0.4590 -0.7754  0.1335
  249MOL0     C33513   8.780   8.046   8.514 -0.8758 -1.2130 -0.7807
  249MOL0     C33514   8.726   8.033   8.644 -1.3855 -0.1603  0.1133
  249MOL0     O33515   8.633   8.114   8.691  0.8098  0.2111  0.1967
  249MOL0     C33516   8.632   8.253   8.652  0.9793 -0.0324 -0.6003
  249MOL0     C33517   8.489   8.313   8.658 -0.3359 -0.1737 -0.5420
  249MOL0     C33518   8.406   8.224   8.561  0.2384 -0.3769  0.3587
  249MOL0     C33519   8.438   8.237   8.406 -0.2920 -0.1827  0.1312
  249MOL0     C33520   8.399   8.117   8.329 -0.2526 -0.0109  1.2095
  249MOL0     C33521   8.259   8.076   8.334  0.1961 -0.1206  0.7845
  249MOL0     C33522   8.171   8.158   8.240 -0.6700 -0.2931 -0.0606
  249MOL0     C33523   8.030   8.103   8.234  0.3801  0.6009 -0.3259
  249MOL0    Cl33524   7.948   8.098   8.396 -0.4426  0.0911 -0.3992
  249MOL0     C33525   8.778   7.934   8.732 -0.1938  0.4278 -0.6763
  249MOL0     C33526   8.882   7.850   8.691 -0.2018  0.4693 -0.2492
  249MOL0     O33527   9.105   7.866   8.331 -0.5209 -0.0408 -0.2697
  249MOL0     C33528   9.385   7.832   8.385 -0.5105 -0.2000 -0.0373
  249MOL0     C33529   9.521   7.836   8.439 -0.2868 -0.2603 -0.1033
  249MOL0     N33530  10.377   7.654   8.370  0.0723 -0.0599 -0.2060
  249MOL0     N33531  10.491   7.726   8.375 -0.0910 -0.4299 -0.9634
  249MOL0     C33532  10.265   7.759   7.706  0.4979  0.6074  0.4456
  249MOL0     C33533  10.329   7.630   7.684 -0.3925 -0.0940  1.1444
  249MOL0     C33534  10.500   7.225   7.774  0.4986 -0.9776 -0.3624
  249MOL0     C33535  10.430   7.115   7.826 -0.3714 -0.0760 -0.2166
  249MOL0     C33536  10.499   6.994   7.856 -0.5783  0.8545  0.2122
  249MOL0     C33537  10.638   6.979   7.847 -0.8847 -0.1598  0.4385
  249MOL0     O33538  10.720   6.865   7.870 -0.4071  0.3403  0.4423
  249MOL0     C33539  10.727   6.845   8.011 -0.4042  0.0375  0.4866
  249MOL0     C33540  10.852   6.922   8.049  0.8620  0.0888 -0.8898
  249MOL0     C33541  10.887   6.875   8.192  0.1096 -0.9881 -0.3813
  249MOL0     C33542  10.955   7.001   8.272  0.8977  0.1549  0.2800
  249MOL0     C33543  10.899   7.024   8.406 -0.9033 -0.1589  0.3249
  249MOL0     C33544  10.856   7.007   8.519  0.7441 -0.7231  0.0594
  249MOL0     C33545  10.709   7.092   7.789 -0.8735  0.2898  0.4542
  249MOL0     C33546  10.641   7.211   7.757 -0.5612  0.1438 -0.5375
  249MOL0     C33547  10.725   7.320   7.698  0.0213 -0.4497  0.0730
  249MOL0     H33548  10.492   7.599   7.981  1.5142  2.7199  0.2219
  249MOL0     H33549  10.379   7.806   8.017 -1.1333 -3.9147  0.9298
  249MOL0     H33550  10.353   8.063   7.754  0.4927  1.9353  0.6802
  249MOL0     H33551  10.184   8.086   7.739 -2.6881 -0.9158  2.7782
  249MOL0     H33552  10.230   8.138   8.006  0.4543 -3.7233 -1.6377
  249MOL0     H33553  10.196   8.252   7.867 -0.8281 -1.3337 -1.5198
  249MOL0     H33554  10.403   8.316   7.991  3.5381 -1.7737  1.4609
  249MOL0     H33555  10.444   8.257   7.830 -1.6116  1.3156 -0.4510
  249MOL0     H33556  10.484   8.023   7.961 -1.1120  0.0875  0.1784
  249MOL0     H33557  10.594   8.157   7.953 -1.0082 -1.6229 -1.5455
  249MOL0     H33558  10.514   8.241   8.183 -1.8164  0.7625  0.3000
  249MOL0     H33559  10.377   8.137   8.184  0.5873 -0.9557  1.5893
  249MOL0     H33560  10.495   7.936   8.203  0.0938  1.5904 -2.4810
  249MOL0     H33561  10.647   8.018   8.214  0.3273  0.4008 -0.5224
  249MOL0     H33562  10.431   8.101   8.422  0.1056  2.6744 -3.1407
  249MOL0     H33563  10.597   8.145   8.418  0.8849  0.9279 -0.6847
  249MOL0     H33564  10.661   7.895   8.443 -2.0658 -3.7321  0.6680
  249MOL0     H33565  10.570   7.961   8.575 -3.3517  1.1618  0.9189
  249MOL0     H33566  10.301   7.888   8.591  0.4575  2.7196 -1.2590
  249MOL0     H33567  10.168   7.542   8.505 -0.9362 -0.7860  3.8595
  249MOL0     H33568  10.187   7.659   8.635 -1.1863  1.8656  0.5430
  249MOL0     H33569  10.066   7.812   8.471 -1.2452  0.6813  2.5951
  249MOL0     H33570  10.024   7.674   8.370 -0.5228  0.9625  1.0860
  249MOL0     H33571   9.941   7.743   8.653 -0.4471 -0.2683  0.0796
  249MOL0     H33572   9.905   7.585   8.578 -2.6491  0.9651  1.4612
  249MOL0     H33573   9.765   7.687   8.408 -0.3890  0.6984 -0.2563
  249MOL0     H33574   9.811   7.849   8.464  0.9264  0.2906  3.0236
  249MOL0     H33575   9.472   7.685   8.729  1.3759  1.9686  0.4589
  249MOL0     H33576   9.246   7.712   8.670  2.3033 -1.3368  2.4678
  249MOL0     H33577   8.913   7.967   8.368  0.9187  1.4446  0.9201
  249MOL0     H33578   8.768   8.132   8.448  3.0004 -2.6217 -3.7330
  249MOL0     H33579   8.685   8.306   8.732 -1.4303 -1.9956  2.5368
  249MOL0     H33580   8.685   8.280   8.560  2.9302 -4.7448 -1.1288
  249MOL0     H33581   8.456   8.305   8.762 -2.3803 -1.0111 -1.2049
  249MOL0     H33582   8.482   8.420   8.634 -0.9869  0.1989  1.1495
  249MOL0     H33583   8.412   8.118   8.587  0.6061 -1.3886 -3.2681
  249MOL0     H33584   8.301   8.253   8.572 -1.0202 -4.3416  0.1986
  249MOL0     H33585   8.547   8.241   8.393 -0.1660  5.5620  0.4524
  249MOL0     H33586   8.385   8.326   8.373 -2.0739  0.0318  3.2334
  249MOL0     H33587   8.458   8.033   8.367 -2.0619 -0.6969  2.6597
  249MOL0     H33588   8.429   8.127   8.224 -0.8896 -3.6633  0.5470
  249MOL0     H33589   8.245   7.973   8.302 -3.4350  1.0582 -2.2227
  249MOL0     H33590   8.219   8.079   8.436  0.1749  2.6544  0.7706
  249MOL0     H33591   8.215   8.176   8.142  1.1594  2.1571  1.1097
  249MOL0     H33592   8.173   8.256   8.289  0.3104  1.7922 -3.8567
  249MOL0     H33593   7.965   8.150   8.160 -0.7749  0.1241  0.3602
  249MOL0     H33594   8.050   7.997   8.214 -0.0713  0.2607  0.9718
  249MOL0     H33595   8.737   7.929   8.832  0.5539 -1.2083 -0.4181
  249MOL0     H33596   8.914   7.782   8.770 -0.5642  0.1457 -0.3749
  249MOL0     H33597   9.377   7.868   8.283  0.9743 -0.0884 -0.1283
  249MOL0     H33598   9.601   7.872   8.375  0.2500 -2.0877 -0.5369
  249MOL0     H33599  10.183   7.792   7.643 -0.1397  0.6069  1.2613
  249MOL0     H33600  10.300   7.573   7.596  0.7586 -1.2200  1.4585
  249MOL0     H33601  10.323   7.129   7.840 -0.3961  0.3932 -0.8621
  249MOL0     H33602  10.441   6.907   7.884  0.8858 -1.0886 -2.2959
  249MOL0     H33603  10.746   6.740   8.037  1.1711  0.7880  2.6172
  249MOL0     H33604  10.643   6.886   8.068 -1.2461 -0.0613 -0.6504
  249MOL0     H33605  10.832   7.029   8.057 -2.6140 -0.2622 -3.0099
  249MOL0     H33606  10.926   6.907   7.970 -1.5273 -1.8269 -2.9063
  249MOL0     H33607  10.945   6.782   8.183 -2.0949 -2.4976  0.2762
  249MOL0     H33608  10.795   6.851   8.247  0.3943  1.6697  1.4368
  249MOL0     H33609  11.062   6.981   8.286  0.0795 -5.0134  1.0600
  249MOL0     H33610  10.958   7.092   8.211  4.4506 -1.9543 -3.1738
  249MOL0     H33611  10.803   6.980   8.609 -0.4392  1.3695  0.0521
  249MOL0     H33612  10.816   7.078   7.778 -1.3853 -1.6263 -4.8013
  249MOL0     H33613  10.728   7.410   7.760 -0.2274 -0.2122 -0.2562
  249MOL0     H33614  10.829   7.286   7.704 -0.4269 -1.7516  1.1775
  249MOL0     H33615  10.695   7.344   7.596 -1.0467 -3.5697 -0.4660
  250MOL0     O33616   2.644   0.474   2.195 -0.5548 -0.5050  0.1377
  250MOL0     C33617   2.668   0.410   2.093  0.4959 -0.4848  0.3664
  250MOL0     O33618   2.727   0.455   1.983 -0.4372 -0.1048 -0.8900
  250MOL0     C33619   2.814   0.556   1.982 -0.9876 -0.3593  0.0441
  250MOL0     C33620   2.950   0.521   1.966 -0.5381 -0.6965  0.1284
  250MOL0     C33621   3.047   0.620   1.982  0.1342  0.5290  0.2047
  250MOL0     C33622   3.016   0.755   2.010  0.7168  0.3133 -0.4243
  250MOL0     O33623   3.109   0.862   2.038  0.0448 -0.8314 -0.4020
  250MOL0     C33624   3.240   0.844   1.979 -0.4548 -0.0886  0.4949
  250MOL0     C33625   3.313   0.976   2.010 -0.3041  0.2636 -0.8686
  250MOL0     C33626   3.463   0.968   1.987 -0.7590 -0.0595  0.0434
  250MOL0     C33627   3.498   0.941   1.838  0.4621 -1.0196  0.0171
  250MOL0     C33628   3.645   0.927   1.809 -0.5989 -0.5120  0.3885
  250MOL0     C33629   3.690   1.065   1.765 -0.5981 -0.3590  1.0534
  250MOL0     C33630   3.849   1.055   1.726  1.0465 -0.1039 -0.5470
  250MOL0     C33631   3.889   1.183   1.654 -0.0233  0.1959 -0.9653
  250MOL0     N33632   4.036   1.181   1.616 -0.0101  0.2398  0.9156
  250MOL0     C33633   4.094   1.137   1.498  0.5761 -0.8682  0.4398
  250MOL0     C33634   4.229   1.173   1.513  0.2169  0.0531  0.1678
  250MOL0     C33635   4.351   1.144   1.432 -0.0504  0.6653 -0.1679
  250MOL0     C33636   4.485   1.158   1.503  0.3841 -0.8627 -0.7029
  250MOL0     C33637   4.597   1.137   1.400 -0.1724  0.1002 -0.0721
  250MOL0     C33638   4.729   1.172   1.457 -0.0204 -0.7426 -0.2104
  250MOL0     O33639   4.839   1.109   1.385  0.4310  0.1374  0.4286
  250MOL0     C33640   4.881   0.983   1.428  1.2025 -0.1377  0.6049
  250MOL0     C33641   4.797   0.896   1.507 -0.3337  1.0154 -0.5390
  250MOL0     C33642   4.837   0.765   1.527  0.3141 -0.5602 -0.3922
  250MOL0     C33643   4.960   0.720   1.472  0.0470  0.0561 -0.2202
  250MOL0     C33644   5.021   0.590   1.522 -1.4187 -0.8199  0.2571
  250MOL0     O33645   5.129   0.541   1.459 -1.0673 -0.2496 -0.3831
  250MOL0     C33646   5.181   0.421   1.480  0.7648 -0.4249  0.1223
  250MOL0     C33647   5.285   0.400   1.553  0.2269 -0.1027  0.3190
  250MOL0     C33648   5.339   0.276   1.562  0.6986 -0.6385 -0.2579
  250MOL0     C33649   5.282   0.169   1.490  0.8022  0.6028 -0.9713
  250MOL0     O33650   5.337   0.039   1.494  0.6870  0.0453 -0.0479
  250MOL0     C33651   5.325  -0.019   1.637  0.9338 -1.3140 -0.1500
  250MOL0     C33652   5.413  -0.147   1.633  0.8749  0.1558  0.0304
  250MOL0     C33653   5.348  -0.243   1.532 -0.1894  0.8318  0.0402
  250MOL0     C33654   5.418  -0.383   1.545 -1.2711  0.4208 -0.1614
  250MOL0     C33655   5.391  -0.479   1.667  0.2488 -0.3403 -0.6256
  250MOL0     C33656   5.514  -0.570   1.686  1.1395 -1.0308  0.1576
  250MOL0     C33657   5.503  -0.692   1.769 -0.2491 -0.2487  0.7098
  250MOL0     C33658   5.635  -0.747   1.821 -0.0217 -0.4656 -0.4135
  250MOL0    Cl33659   5.603  -0.867   1.943  0.2448  0.2539 -0.2258
  250MOL0     C33660   5.160   0.192   1.425  0.2912  0.7010  0.0297
  250MOL0     C33661   5.110   0.320   1.416 -0.8588 -0.3202 -0.4382
  250MOL0     O33662   4.959   0.535   1.606 -0.0378 -0.5700  0.1686
  250MOL0     C33663   5.035   0.799   1.386  0.9624  0.2515  0.0200
  250MOL0     C33664   4.993   0.928   1.372  0.7276  0.1755  0.0028
  250MOL0     N33665   4.244   1.240   1.631  0.7226 -0.4342  0.4943
  250MOL0     N33666   4.130   1.239   1.690 -0.1200 -0.6029  0.6097
  250MOL0     C33667   2.876   0.783   2.026  0.4800 -1.0331  0.5078
  250MOL0     C33668   2.773   0.688   1.996  0.6976  0.1510 -0.1756
  250MOL0     C33669   2.613   0.273   2.082  0.1405  0.4917 -1.7988
  250MOL0     C33670   2.697   0.184   2.002 -0.2643 -0.4763 -0.8612
  250MOL0     C33671   2.645   0.069   1.979 -0.0427  0.0502 -0.4602
  250MOL0     C33672   2.514   0.021   2.017  1.1703  0.9354 -0.0215
  250MOL0     O33673   2.487  -0.105   1.969 -0.5915  0.2654 -0.4994
  250MOL0     C33674   2.360  -0.164   1.999  0.5391 -0.1221 -0.1298
  250MOL0     C33675   2.260  -0.123   1.894  0.0959  0.1112 -0.9423
  250MOL0     C33676   2.293  -0.182   1.763  0.5585 -0.2664  0.2556
  250MOL0     C33677   2.249  -0.325   1.749 -0.1169 -0.3242 -0.5351
  250MOL0     C33678   2.103  -0.340   1.740 -0.2562  0.7435  0.9827
  250MOL0     C33679   1.981  -0.363   1.732  0.0825  0.0319  0.7837
  250MOL0     C33680   2.445   0.094   2.113 -0.5711 -0.9746 -0.2139
  250MOL0     C33681   2.485   0.226   2.143 -0.3286 -0.4300 -0.1810
  250MOL0     C33682   2.384   0.328   2.185 -0.5192 -1.1410 -0.2787
  250MOL0     H33683   2.978   0.416   1.960  3.1968  0.0500  1.3735
  250MOL0     H33684   3.149   0.584   1.977  0.6120  1.7686 -5.0221
  250MOL0     H33685   3.281   0.759   2.035  1.2947 -1.6351 -2.8591
  250MOL0     H33686   3.229   0.824   1.872  1.8637  2.6950 -0.3720
  250MOL0     H33687   3.314   0.994   2.118 -0.7229 -1.0274 -0.6357
  250MOL0     H33688   3.271   1.067   1.965 -1.0841 -0.1365 -0.9607
  250MOL0     H33689   3.517   0.886   2.036  0.9198  1.2354  0.4858
  250MOL0     H33690   3.502   1.067   2.013 -1.2690 -0.0390  0.7448
  250MOL0     H33691   3.444   0.851   1.809 -1.3597  0.5184 -1.7388
  250MOL0     H33692   3.451   1.019   1.777  0.6789 -0.1203  0.9767
  250MOL0     H33693   3.695   0.895   1.901 -3.9121  0.6141  2.7534
  250MOL0     H33694   3.664   0.854   1.730 -2.6784 -0.7129  0.0294
  250MOL0     H33695   3.628   1.101   1.682  2.7479  1.0350 -1.0443
  250MOL0     H33696   3.684   1.140   1.845  3.2642  1.2252  0.0592
  250MOL0     H33697   3.868   0.967   1.664  0.7490 -0.2208 -0.4729
  250MOL0     H33698   3.908   1.050   1.819 -1.1648 -0.3751  0.9129
  250MOL0     H33699   3.822   1.200   1.570  1.5973  3.3389 -1.7548
  250MOL0     H33700   3.885   1.271   1.718  2.9542 -1.6748  2.1402
  250MOL0     H33701   4.053   1.075   1.418  0.2959 -2.4132  1.7444
  250MOL0     H33702   4.335   1.038   1.410  0.7457  0.3046  0.9132
  250MOL0     H33703   4.350   1.204   1.340  0.5394  0.1650 -0.5041
  250MOL0     H33704   4.503   1.251   1.557  1.6577 -1.6626  0.2933
  250MOL0     H33705   4.480   1.084   1.583 -0.2249  1.5671  1.6382
  250MOL0     H33706   4.583   1.175   1.298 -1.0549 -1.4993 -0.5790
  250MOL0     H33707   4.596   1.032   1.369  0.3562 -0.2715  1.1060
  250MOL0     H33708   4.734   1.151   1.564 -2.0513 -1.5207 -0.2270
  250MOL0     H33709   4.744   1.279   1.441  2.6974 -1.2314 -1.6291
  250MOL0     H33710   4.707   0.934   1.554  0.2769 -0.5114  2.0575
  250MOL0     H33711   4.777   0.709   1.598 -1.6198 -1.6449 -2.7450
  250MOL0     H33712   5.326   0.488   1.601  0.3427  0.6757 -1.1323
  250MOL0     H33713   5.431   0.279   1.619 -1.5355 -1.9823  3.7660
  250MOL0     H33714   5.363   0.044   1.717 -2.9207  0.2560  0.6605
  250MOL0     H33715   5.217  -0.038   1.649  0.8890 -0.5925  0.6692
  250MOL0     H33716   5.512  -0.106   1.610  1.4086  0.7947  3.0195
  250MOL0     H33717   5.417  -0.207   1.724 -2.4529 -0.9119 -0.3926
  250MOL0     H33718   5.240  -0.241   1.545 -0.2315 -0.1336 -0.0951
  250MOL0     H33719   5.359  -0.200   1.432 -1.3493  5.1385  1.5644
  250MOL0     H33720   5.525  -0.364   1.561 -1.5581  0.0118  2.8119
  250MOL0     H33721   5.407  -0.437   1.451 -5.5710  1.9091 -0.7039
  250MOL0     H33722   5.300  -0.540   1.655 -0.7314  0.4297  2.2458
  250MOL0     H33723   5.359  -0.422   1.754 -1.8092 -1.7813 -0.3342
  250MOL0     H33724   5.544  -0.604   1.586  0.2969  1.3033 -0.9527
  250MOL0     H33725   5.595  -0.501   1.713  0.2256  0.6200 -1.1497
  250MOL0     H33726   5.451  -0.773   1.717  2.8421 -1.2009 -1.2085
  250MOL0     H33727   5.451  -0.665   1.861 -0.0593  3.9668 -0.2282
  250MOL0     H33728   5.685  -0.782   1.730  1.0514 -1.0110  0.3631
  250MOL0     H33729   5.693  -0.669   1.870  0.8902 -0.1599 -1.8978
  250MOL0     H33730   5.102   0.117   1.372  0.0279  1.8001 -1.3014
  250MOL0     H33731   5.012   0.349   1.381 -0.6921  0.5891 -0.1716
  250MOL0     H33732   5.124   0.765   1.335  2.6287  1.5017  1.9501
  250MOL0     H33733   5.044   1.007   1.318 -1.0588  1.6509  0.3808
  250MOL0     H33734   2.840   0.880   2.060 -1.0316 -0.8930 -1.3307
  250MOL0     H33735   2.668   0.718   1.999  0.4591 -0.6572  0.0180
  250MOL0     H33736   2.787   0.226   1.959  0.2270  0.6091  1.1168
  250MOL0     H33737   2.700   0.004   1.912 -1.4240 -0.0465 -1.5470
  250MOL0     H33738   2.323  -0.152   2.101  1.7631 -2.7123  0.7187
  250MOL0     H33739   2.373  -0.272   1.987 -1.5989 -0.2887 -1.4171
  250MOL0     H33740   2.267  -0.014   1.885 -1.1637  0.2193 -0.8309
  250MOL0     H33741   2.158  -0.145   1.927  0.4662 -0.4584 -0.1397
  250MOL0     H33742   2.394  -0.179   1.720 -0.2114  2.0363 -1.5953
  250MOL0     H33743   2.238  -0.116   1.696 -1.1128  1.3489  3.0455
  250MOL0     H33744   2.284  -0.355   1.650  0.6810 -1.2057  0.0016
  250MOL0     H33745   2.288  -0.387   1.831  1.0950  0.7875 -0.2339
  250MOL0     H33746   1.875  -0.372   1.720  0.3273 -2.3383  0.0770
  250MOL0     H33747   2.345   0.070   2.147 -0.5185  0.1602  0.8023
  250MOL0     H33748   2.367   0.403   2.107  1.1906  1.3367  1.5868
  250MOL0     H33749   2.287   0.284   2.210 -0.6143 -1.0913 -0.5574
  250MOL0     H33750   2.415   0.382   2.275 -1.2459 -0.6484 -0.3159
  251MOL0     O33751   4.953   5.117   7.279  0.4531 -0.4250 -0.8216
  251MOL0     C33752   5.012   5.097   7.384 -0.3105  0.2759  0.1071
  251MOL0     O33753   5.118   5.178   7.425 -0.0444  0.5759  0.9414
  251MOL0     C33754   5.160   5.266   7.336  0.4201  0.3844  0.9426
  251MOL0     C33755   5.254   5.242   7.241 -0.3681 -0.6057  0.7867
  251MOL0     C33756   5.277   5.340   7.139  1.1099  0.1180 -0.2082
  251MOL0     C33757   5.215   5.467   7.141  0.2171  0.2195  0.8009
  251MOL0     O33758   5.233   5.562   7.035 -0.3704 -0.7838 -0.2634
  251MOL0     C33759   5.143   5.531   6.925  0.4300  0.3714 -0.3819
  251MOL0     C33760   5.108   5.661   6.851  1.2339  0.4806 -0.1596
  251MOL0     C33761   5.229   5.718   6.776  0.1041 -1.1014  0.4002
  251MOL0     C33762   5.180   5.816   6.668  0.2105 -1.0962 -0.5430
  251MOL0     C33763   5.286   5.902   6.599 -0.1855  0.0525  0.0058
  251MOL0     C33764   5.222   5.968   6.473  0.6698  0.3440  0.4382
  251MOL0     C33765   5.321   6.044   6.383 -0.0314  0.0889  0.3865
  251MOL0     C33766   5.341   6.182   6.432 -0.2491  0.1292  1.1753
  251MOL0     N33767   5.455   6.211   6.528 -0.3776  0.7263 -0.2130
  251MOL0     C33768   5.447   6.239   6.662 -0.3060  0.9026  0.1103
  251MOL0     C33769   5.576   6.262   6.714 -0.1225 -1.0934 -0.3501
  251MOL0     C33770   5.616   6.285   6.857 -0.5336 -0.2450 -0.7396
  251MOL0     C33771   5.561   6.183   6.954  0.3510 -0.0051  0.3284
  251MOL0     C33772   5.642   6.142   7.076 -0.6027 -0.2023  0.9263
  251MOL0     C33773   5.658   6.245   7.186 -0.1572 -0.7443  0.8092
  251MOL0     O33774   5.521   6.282   7.244 -1.3760  0.3212  0.2072
  251MOL0     C33775   5.519   6.357   7.356 -1.3053 -0.4775  0.1703
  251MOL0     C33776   5.631   6.426   7.403 -1.5032  0.3616  0.7630
  251MOL0     C33777   5.612   6.524   7.495 -0.2467  0.1012  0.0362
  251MOL0     C33778   5.491   6.545   7.561 -0.1620 -0.2546  0.2334
  251MOL0     C33779   5.483   6.637   7.675  0.5961 -0.7060  0.2486
  251MOL0     O33780   5.375   6.721   7.688 -0.3087  0.1065 -0.3238
  251MOL0     C33781   5.400   6.816   7.776  0.3020 -0.5720 -0.7601
  251MOL0     C33782   5.404   6.941   7.724 -0.2570 -0.1796 -0.7943
  251MOL0     C33783   5.405   7.058   7.796  0.1289 -0.2205 -0.6767
  251MOL0     C33784   5.405   7.049   7.942  0.0035 -0.2758  0.4508
  251MOL0     O33785   5.401   7.158   8.018  0.3508 -0.1217 -0.7947
  251MOL0     C33786   5.264   7.211   8.039 -0.4355 -0.0645  0.1045
  251MOL0     C33787   5.230   7.193   8.194 -0.0395 -0.4386  1.0380
  251MOL0     C33788   5.103   7.281   8.230  0.6684 -0.6710  0.1441
  251MOL0     C33789   5.053   7.273   8.382 -0.5659 -0.6931 -0.7657
  251MOL0     C33790   4.956   7.391   8.427  1.2151  0.1006 -0.4859
  251MOL0     C33791   5.021   7.523   8.437 -0.1178  0.3962  0.1861
  251MOL0     C33792   5.105   7.543   8.561 -1.0070  0.1030 -0.1192
  251MOL0     C33793   5.198   7.670   8.561 -0.3837  0.4242  0.2330
  251MOL0    Cl33794   5.097   7.820   8.557  0.0797 -0.2175 -0.6277
  251MOL0     C33795   5.406   6.920   7.999  0.0152  0.3723 -0.3622
  251MOL0     C33796   5.405   6.809   7.913 -0.5181  0.3623  0.4005
  251MOL0     O33797   5.580   6.637   7.747 -0.5103  0.1947  0.2310
  251MOL0     C33798   5.378   6.464   7.512  0.0558 -0.3058 -0.8794
  251MOL0     C33799   5.401   6.369   7.417  0.7499  0.4501 -0.4940
  251MOL0     N33800   5.663   6.255   6.606  0.3109 -0.3040  0.8611
  251MOL0     N33801   5.588   6.221   6.496  0.2797 -0.2856  0.1164
  251MOL0     C33802   5.144   5.500   7.259 -0.5040  0.3821  0.0918
  251MOL0     C33803   5.123   5.403   7.354 -0.2943  0.3992  0.2273
  251MOL0     C33804   4.971   5.000   7.481  0.0594 -0.2407  0.1132
  251MOL0     C33805   4.998   5.023   7.621 -0.4768 -0.5164 -0.2599
  251MOL0     C33806   4.967   4.922   7.715 -0.4282  1.2425 -0.2394
  251MOL0     C33807   4.911   4.803   7.680  0.0817  0.4742  0.0703
  251MOL0     O33808   4.871   4.701   7.769 -0.4384  0.0357  0.1958
  251MOL0     C33809   4.806   4.731   7.889  1.1619 -0.3804  0.2126
  251MOL0     C33810   4.660   4.773   7.883 -0.2343 -0.0333 -0.6504
  251MOL0     C33811   4.635   4.904   7.810  0.3829 -0.7021 -0.9123
  251MOL0     C33812   4.493   4.962   7.835 -0.0366 -0.1573  1.4072
  251MOL0     C33813   4.464   4.992   7.967  0.1000  0.1382 -0.1283
  251MOL0     C33814   4.430   5.034   8.074  0.6477  0.3932 -0.3987
  251MOL0     C33815   4.905   4.783   7.540  0.0499 -0.6181  1.0628
  251MOL0     C33816   4.919   4.875   7.440  0.3363  0.0433 -0.3607
  251MOL0     C33817   4.877   4.842   7.303  0.0447 -0.3533  0.4640
  251MOL0     H33818   5.298   5.143   7.240  0.2882 -0.4475  3.7871
  251MOL0     H33819   5.336   5.315   7.051  2.5841 -0.5742  0.9302
  251MOL0     H33820   5.180   5.449   6.863  3.0212  1.2474 -0.1348
  251MOL0     H33821   5.054   5.490   6.973  1.8855 -0.2663  1.9859
  251MOL0     H33822   5.069   5.736   6.921  2.6238  0.9244  0.1689
  251MOL0     H33823   5.030   5.637   6.778  3.2773  0.7332 -2.5970
  251MOL0     H33824   5.287   5.637   6.730  1.7553  0.0351  0.4177
  251MOL0     H33825   5.305   5.760   6.843  0.3536 -0.5878 -0.2026
  251MOL0     H33826   5.114   5.761   6.601 -4.1858  3.4480 -0.5486
  251MOL0     H33827   5.106   5.879   6.718  0.6703 -2.1416  1.5795
  251MOL0     H33828   5.327   5.972   6.671  1.7722 -0.2512 -0.7617
  251MOL0     H33829   5.368   5.838   6.564 -0.5967 -1.7339  2.0854
  251MOL0     H33830   5.178   5.889   6.412  1.0023  2.2921 -2.5239
  251MOL0     H33831   5.131   6.026   6.494 -3.0324 -2.6973 -4.8653
  251MOL0     H33832   5.302   6.058   6.276  0.0206 -0.1640  0.3421
  251MOL0     H33833   5.411   5.983   6.373 -2.1047 -3.0285 -0.9325
  251MOL0     H33834   5.364   6.240   6.342 -2.2724  0.8752  1.0829
  251MOL0     H33835   5.245   6.217   6.472 -2.0837 -4.4277  1.3716
  251MOL0     H33836   5.356   6.243   6.722 -1.9697 -1.6467 -2.0186
  251MOL0     H33837   5.725   6.283   6.863 -0.2495 -1.8159 -3.9676
  251MOL0     H33838   5.574   6.381   6.886 -0.0397  0.5175 -2.4087
  251MOL0     H33839   5.463   6.213   6.993 -0.3367 -2.2185  0.4625
  251MOL0     H33840   5.552   6.098   6.885 -2.0597  2.8247 -3.2176
  251MOL0     H33841   5.747   6.117   7.059 -0.8636 -0.0238 -1.2197
  251MOL0     H33842   5.597   6.050   7.115  2.2355 -2.1921 -0.1951
  251MOL0     H33843   5.707   6.331   7.139  1.5988 -2.1387 -0.0086
  251MOL0     H33844   5.723   6.204   7.263 -0.8559 -4.1996 -0.2694
  251MOL0     H33845   5.732   6.431   7.363 -1.6518  2.1775  0.5139
  251MOL0     H33846   5.698   6.583   7.523 -1.4351  1.7980  0.2940
  251MOL0     H33847   5.402   6.953   7.616 -0.1676 -1.2965 -0.9229
  251MOL0     H33848   5.421   7.157   7.755  1.0461 -0.6307 -1.3422
  251MOL0     H33849   5.266   7.316   8.007 -1.5712  0.3467  1.2618
  251MOL0     H33850   5.190   7.163   7.975  1.4665 -1.0705 -1.4232
  251MOL0     H33851   5.212   7.089   8.221 -2.2582 -0.3974 -0.0420
  251MOL0     H33852   5.313   7.231   8.254 -2.0038  3.6029  1.5685
  251MOL0     H33853   5.114   7.386   8.202 -2.9104 -0.1995  0.0121
  251MOL0     H33854   5.023   7.245   8.165 -1.4035 -0.4078  2.3838
  251MOL0     H33855   5.136   7.264   8.453 -0.1758  0.0318 -1.1105
  251MOL0     H33856   5.002   7.177   8.395  1.6275 -2.1931 -2.5325
  251MOL0     H33857   4.914   7.360   8.524 -0.1027 -0.6075 -1.2625
  251MOL0     H33858   4.874   7.393   8.356 -1.5411  1.6311  2.4852
  251MOL0     H33859   5.084   7.541   8.349 -0.9832  0.8152 -0.3574
  251MOL0     H33860   4.937   7.593   8.441 -0.4200  0.1451 -1.1513
  251MOL0     H33861   5.180   7.465   8.576 -3.3212 -1.6443  3.5771
  251MOL0     H33862   5.037   7.551   8.646  1.0963 -0.7705  1.7348
  251MOL0     H33863   5.275   7.680   8.637 -2.2880 -0.5065  2.3813
  251MOL0     H33864   5.255   7.661   8.468  0.8820 -4.4785  1.2444
  251MOL0     H33865   5.385   6.926   8.106 -0.1278  3.3784 -0.4676
  251MOL0     H33866   5.389   6.721   7.974 -1.3031 -0.4114 -0.8777
  251MOL0     H33867   5.278   6.456   7.552  0.0172 -0.7871 -1.0633
  251MOL0     H33868   5.316   6.315   7.375  0.7483 -2.1406  2.4815
  251MOL0     H33869   5.118   5.604   7.276  1.7315  1.0763 -0.4232
  251MOL0     H33870   5.052   5.434   7.431  0.3844  1.3991  0.4627
  251MOL0     H33871   5.034   5.120   7.656  0.5960 -0.4422 -1.5064
  251MOL0     H33872   4.978   4.948   7.820  2.5813 -1.9178  0.4279
  251MOL0     H33873   4.858   4.800   7.957 -0.5916 -0.2338  1.4597
  251MOL0     H33874   4.803   4.640   7.950 -0.7640 -0.6303 -0.2081
  251MOL0     H33875   4.623   4.777   7.986  0.0288 -2.0281 -0.4256
  251MOL0     H33876   4.606   4.689   7.838 -1.2212  1.0660 -1.5942
  251MOL0     H33877   4.655   4.894   7.703  2.9369  3.3165 -1.0222
  251MOL0     H33878   4.704   4.978   7.852  1.9289 -2.9626  0.7666
  251MOL0     H33879   4.461   5.053   7.783 -0.1001 -1.5153 -1.0773
  251MOL0     H33880   4.416   4.890   7.806 -0.4354  1.2373 -1.2607
  251MOL0     H33881   4.406   5.084   8.166  3.4567  1.2747 -0.0336
  251MOL0     H33882   4.880   4.682   7.509 -2.6442 -0.1931  1.5837
  251MOL0     H33883   4.837   4.740   7.305  0.5796 -0.6911 -2.0622
  251MOL0     H33884   4.799   4.907   7.263  1.5236  1.7214  0.8135
  251MOL0     H33885   4.967   4.843   7.240 -1.1888 -0.7309 -1.4008
  252MOL0     O33886   2.396   3.324   9.741  0.3488  0.2675  0.1068
  252MOL0     C33887   2.386   3.290   9.859 -0.2799 -0.1381  0.1160
  252MOL0     O33888   2.283   3.228   9.918  0.1061  0.2732  1.8121
  252MOL0     C33889   2.172   3.188   9.852  0.1846 -0.5633 -0.0665
  252MOL0     C33890   2.045   3.225   9.900  0.2654  0.3510  0.2777
  252MOL0     C33891   1.929   3.178   9.848 -0.7428 -0.3792 -0.7631
  252MOL0     C33892   1.933   3.090   9.735 -0.1252  0.3028 -0.2662
  252MOL0     O33893   1.810   3.026   9.702 -0.2376 -1.1384  0.2483
  252MOL0     C33894   1.795   3.026   9.556 -0.0726 -0.0104 -0.2790
  252MOL0     C33895   1.846   2.881   9.517  1.6046  0.2510 -0.3744
  252MOL0     C33896   1.848   2.866   9.371  0.4853 -0.1148  0.5143
  252MOL0     C33897   1.716   2.878   9.287  0.4886 -1.2048  0.5937
  252MOL0     C33898   1.739   2.849   9.134 -0.2055  0.4796 -0.0281
  252MOL0     C33899   1.713   2.978   9.058 -0.3401  0.5339 -0.3537
  252MOL0     C33900   1.740   2.960   8.910 -0.0834 -0.1237  0.2515
  252MOL0     C33901   1.656   3.081   8.850  0.2600  0.2125 -0.6618
  252MOL0     N33902   1.657   3.089   8.699  0.2005 -0.2382 -0.6626
  252MOL0     C33903   1.614   3.000   8.600  0.6102 -0.1483  0.8720
  252MOL0     C33904   1.666   3.053   8.478 -0.5054 -0.1484  0.0684
  252MOL0     C33905   1.634   2.999   8.345  0.4847  0.2372  1.2758
  252MOL0     C33906   1.503   3.064   8.309  0.4682 -0.6183  0.1061
  252MOL0     C33907   1.384   2.969   8.274 -1.0989  0.5671 -0.6116
  252MOL0     C33908   1.330   2.893   8.390 -0.2037 -0.7910 -0.1242
  252MOL0     O33909   1.294   2.982   8.491 -0.6292 -0.0359 -0.0444
  252MOL0     C33910   1.264   2.924   8.607  0.0849  0.2391 -0.0140
  252MOL0     C33911   1.207   2.796   8.633  0.4716 -1.1909  0.4415
  252MOL0     C33912   1.191   2.752   8.766  0.3157  0.1459  0.0490
  252MOL0     C33913   1.212   2.840   8.874  0.1737  0.0181 -0.5280
  252MOL0     C33914   1.202   2.799   9.018  0.2075 -0.0383  0.9023
  252MOL0     O33915   1.299   2.839   9.096  0.4697  1.1083 -0.3562
  252MOL0     C33916   1.327   2.777   9.216 -0.8255 -0.6284 -0.2538
  252MOL0     C33917   1.344   2.639   9.231  0.4696 -0.3080  0.2760
  252MOL0     C33918   1.382   2.585   9.352  0.2974  0.2744  0.4025
  252MOL0     C33919   1.397   2.676   9.466 -0.4046  0.7200 -0.8974
  252MOL0     O33920   1.446   2.642   9.583 -0.1979  0.0940  0.3188
  252MOL0     C33921   1.578   2.575   9.591 -0.0591  0.4801 -0.2996
  252MOL0     C33922   1.590   2.496   9.721 -0.5318  0.2759 -0.0825
  252MOL0     C33923   1.708   2.400   9.724  0.2183 -0.2775  0.0138
  252MOL0     C33924   1.822   2.469   9.807  0.1197  0.1312  0.2520
  252MOL0     C33925   1.945   2.384   9.817 -0.0229 -0.6121  0.1414
  252MOL0     C33926   2.003   2.347   9.672  1.0594 -0.3999 -0.0496
  252MOL0     C33927   2.145   2.287   9.682  0.4568 -0.2190  0.8200
  252MOL0     C33928   2.182   2.238   9.548  0.2499  0.9817 -1.3975
  252MOL0    Cl33929   2.356   2.206   9.560  0.2450  0.4529 -0.2278
  252MOL0     C33930   1.369   2.807   9.456  0.4400 -0.3027 -0.0595
  252MOL0     C33931   1.336   2.857   9.329 -0.6694  0.5760 -0.7553
  252MOL0     O33932   1.115   2.724   9.039  0.5555 -0.5199  0.9913
  252MOL0     C33933   1.255   2.969   8.848 -0.1757  0.3276 -0.2432
  252MOL0     C33934   1.282   3.005   8.721 -0.2880 -0.3302 -1.1982
  252MOL0     N33935   1.742   3.160   8.512 -0.1304 -0.3344  0.1120
  252MOL0     N33936   1.726   3.183   8.631  0.2037 -0.1045 -0.8602
  252MOL0     C33937   2.060   3.065   9.673  0.0011 -1.1995 -0.0811
  252MOL0     C33938   2.177   3.125   9.729  0.6140  0.4085  0.4725
  252MOL0     C33939   2.505   3.321   9.937 -0.4516 -0.0709  0.1359
  252MOL0     C33940   2.642   3.293   9.890 -0.2477  0.2030 -1.2207
  252MOL0     C33941   2.754   3.331   9.960 -0.4666  0.2444  0.5509
  252MOL0     C33942   2.735   3.383  10.090 -0.2390 -0.4203  0.5633
  252MOL0     O33943   2.837   3.440  10.161  0.2200  1.5520  0.6580
  252MOL0     C33944   2.921   3.338  10.216 -0.7129  0.4513  0.5939
  252MOL0     C33945   2.892   3.290  10.357 -0.5718 -0.4079  0.2274
  252MOL0     C33946   2.873   3.412  10.455  0.8021 -0.2188  0.4799
  252MOL0     C33947   3.008   3.485  10.480 -0.3915  0.0901  0.4580
  252MOL0     C33948   2.986   3.581  10.589 -0.8362 -0.6452 -1.2158
  252MOL0     C33949   2.965   3.670  10.668 -0.5082  0.6578 -0.3142
  252MOL0     C33950   2.601   3.406  10.141 -0.9804 -0.3982  1.3125
  252MOL0     C33951   2.488   3.379  10.063 -0.0725 -0.7685  0.1927
  252MOL0     C33952   2.367   3.424  10.134 -0.9593 -0.0831  1.0133
  252MOL0     H33953   2.060   3.289   9.987 -2.7148  0.9681  0.4512
  252MOL0     H33954   1.832   3.200   9.889  0.2324 -1.3914  2.3659
  252MOL0     H33955   1.688   3.028   9.534  0.0707 -2.0089 -1.3744
  252MOL0     H33956   1.841   3.101   9.490 -1.9398  0.3048 -1.2861
  252MOL0     H33957   1.793   2.794   9.558 -0.3212 -0.5843 -4.1340
  252MOL0     H33958   1.948   2.853   9.544  1.6841  0.5201 -0.3927
  252MOL0     H33959   1.877   2.764   9.348  2.0690  0.4065  0.1033
  252MOL0     H33960   1.931   2.928   9.335  1.6120 -1.7775  0.1408
  252MOL0     H33961   1.650   2.802   9.330 -1.4679  0.4506  0.6578
  252MOL0     H33962   1.672   2.977   9.302  0.5091 -0.8813 -1.1820
  252MOL0     H33963   1.839   2.813   9.108 -1.2312 -2.3548 -0.3757
  252MOL0     H33964   1.659   2.781   9.105 -0.6741  0.7263  0.6734
  252MOL0     H33965   1.611   3.011   9.081 -0.3446  0.0593  0.3418
  252MOL0     H33966   1.783   3.048   9.105 -0.3573  2.5027 -3.0130
  252MOL0     H33967   1.688   2.866   8.890 -0.0476 -0.2493  0.7395
  252MOL0     H33968   1.847   2.949   8.889  0.0578 -0.5473  1.1394
  252MOL0     H33969   1.556   3.061   8.889  0.1176 -0.2272 -1.2342
  252MOL0     H33970   1.696   3.171   8.897  3.4308 -2.2920  1.8860
  252MOL0     H33971   1.546   2.915   8.603 -0.6831  0.8859  2.1950
  252MOL0     H33972   1.701   3.021   8.262 -0.6267 -3.1122 -0.7203
  252MOL0     H33973   1.628   2.890   8.356 -2.0339  0.3598  1.6502
  252MOL0     H33974   1.464   3.142   8.376 -0.3225 -1.0128  0.1219
  252MOL0     H33975   1.525   3.122   8.219 -1.3475 -1.1798 -0.7433
  252MOL0     H33976   1.408   2.906   8.188 -0.2223  1.1001 -0.7671
  252MOL0     H33977   1.304   3.036   8.240 -2.4219 -0.2606  0.7434
  252MOL0     H33978   1.400   2.819   8.431 -0.1986  0.6031  2.6174
  252MOL0     H33979   1.244   2.835   8.354  1.3531 -2.3327 -1.6259
  252MOL0     H33980   1.187   2.720   8.558 -3.5888 -0.4704  0.5807
  252MOL0     H33981   1.173   2.648   8.790  5.7525 -0.8779  1.0061
  252MOL0     H33982   1.322   2.575   9.146 -2.5226  0.9554 -0.0482
  252MOL0     H33983   1.387   2.477   9.361 -0.7990  0.3586  3.1867
  252MOL0     H33984   1.581   2.498   9.513 -0.7223  0.2622 -0.1081
  252MOL0     H33985   1.661   2.647   9.579  0.1072  0.5635  1.2221
  252MOL0     H33986   1.590   2.556   9.813 -2.1457  0.5154 -0.2092
  252MOL0     H33987   1.503   2.429   9.717 -1.8432  1.5508  3.2926
  252MOL0     H33988   1.681   2.308   9.777  2.5070  0.0575  1.9512
  252MOL0     H33989   1.746   2.365   9.628 -0.1242  0.6656 -0.4729
  252MOL0     H33990   1.795   2.501   9.908  0.7422  0.3206  0.3634
  252MOL0     H33991   1.849   2.555   9.745 -0.8877  1.8067  2.0319
  252MOL0     H33992   1.932   2.290   9.873  0.2649  0.8509  2.8413
  252MOL0     H33993   2.016   2.436   9.882  0.1815 -2.2208  1.2616
  252MOL0     H33994   1.939   2.272   9.626  1.8397  0.6293 -2.9760
  252MOL0     H33995   2.003   2.441   9.617 -4.4312  1.2200  2.0704
  252MOL0     H33996   2.148   2.210   9.759  2.7542 -0.5116  0.5141
  252MOL0     H33997   2.208   2.372   9.710 -0.2468  1.1492 -1.4855
  252MOL0     H33998   2.132   2.148   9.511  1.8956 -0.0892 -1.1287
  252MOL0     H33999   2.163   2.320   9.478  1.7212  2.2127 -0.4396
  252MOL0     H34000   1.371   2.863   9.549  1.3692 -0.3744 -0.0265
  252MOL0     H34001   1.313   2.963   9.322  3.0017  1.5419  0.0321
  252MOL0     H34002   1.275   3.044   8.924  3.3288 -0.2083 -0.4913
  252MOL0     H34003   1.323   3.104   8.704 -2.3873  0.9025  0.4657
  252MOL0     H34004   2.069   3.002   9.585 -1.3344 -2.4002  0.6113
  252MOL0     H34005   2.272   3.102   9.682 -0.2401 -2.2998 -0.1169
  252MOL0     H34006   2.665   3.242   9.797 -0.8907  0.3747 -1.4811
  252MOL0     H34007   2.854   3.322   9.919 -0.3136 -0.3039  1.0372
  252MOL0     H34008   3.023   3.377  10.204 -1.2800  2.6383  2.3355
  252MOL0     H34009   2.920   3.248  10.153 -0.4880  2.4047 -2.4337
  252MOL0     H34010   2.968   3.221  10.393  0.9371  1.1247  0.0942
  252MOL0     H34011   2.797   3.236  10.347  0.0311 -1.1827 -1.8208
  252MOL0     H34012   2.833   3.374  10.549 -1.7348 -0.8041 -0.7389
  252MOL0     H34013   2.799   3.477  10.407  0.3929 -0.9479  0.0998
  252MOL0     H34014   3.084   3.414  10.513 -0.4124  0.0938  0.5156
  252MOL0     H34015   3.038   3.533  10.387 -0.2756 -0.2502  0.3188
  252MOL0     H34016   2.943   3.742  10.744 -1.0316  1.7405 -1.4520
  252MOL0     H34017   2.614   3.438  10.244 -2.7709 -2.0319  2.1071
  252MOL0     H34018   2.387   3.506  10.202 -1.8100  2.6746 -1.7979
  252MOL0     H34019   2.319   3.481  10.054  2.3849  2.3430  0.5690
  252MOL0     H34020   2.296   3.354  10.180 -1.5248  0.2445  0.6553
  253MOL0     O34021   8.467   8.830   2.197 -0.6082  0.5381 -0.5545
  253MOL0     C34022   8.363   8.822   2.134 -0.5741  0.5280  0.2216
  253MOL0     O34023   8.323   8.701   2.084  0.4757 -0.0611  0.3727
  253MOL0     C34024   8.421   8.608   2.089 -0.6581 -0.5230  0.0107
  253MOL0     C34025   8.441   8.530   2.206 -0.1535 -0.2273  0.6347
  253MOL0     C34026   8.557   8.456   2.206  0.3761 -0.6236  0.7861
  253MOL0     C34027   8.644   8.435   2.092 -0.5946  0.3569 -0.5710
  253MOL0     O34028   8.749   8.355   2.116 -0.2225 -0.7415  0.2076
  253MOL0     C34029   8.834   8.319   2.011  0.0843  0.8560 -0.6386
  253MOL0     C34030   8.937   8.434   1.970  0.2803  0.2883  0.0056
  253MOL0     C34031   9.053   8.460   2.067  0.0924  0.3586 -0.1171
  253MOL0     C34032   9.187   8.410   2.008  0.3066  0.4979  0.1790
  253MOL0     C34033   9.234   8.501   1.909 -0.2123  0.1179  0.3489
  253MOL0     C34034   9.345   8.455   1.821 -0.6114  0.3260  0.1718
  253MOL0     C34035   9.447   8.361   1.880 -0.9785 -0.6368  0.1602
  253MOL0     C34036   9.542   8.314   1.770  0.3196  0.2005 -0.4452
  253MOL0     N34037   9.651   8.260   1.835  0.6492 -0.2185  0.3607
  253MOL0     C34038   9.690   8.122   1.844  0.3057 -0.6866  0.4618
  253MOL0     C34039   9.803   8.131   1.924  0.1952 -0.9274 -0.1523
  253MOL0     C34040   9.891   8.013   1.946 -0.2046  0.4387  1.5927
  253MOL0     C34041   9.950   7.987   2.088  0.4473  0.4084  0.2115
  253MOL0     C34042   9.861   7.901   2.179  0.2032  0.5012  0.0556
  253MOL0     C34043   9.713   7.959   2.180 -0.5343  0.4109 -0.6929
  253MOL0     O34044   9.650   7.910   2.294 -0.3400  1.1312  0.6795
  253MOL0     C34045   9.518   7.955   2.300  0.8287  0.9235  0.6458
  253MOL0     C34046   9.442   8.026   2.202 -0.8989  0.0328 -1.2084
  253MOL0     C34047   9.321   8.087   2.216  0.0519  0.3503 -0.1320
  253MOL0     C34048   9.252   8.073   2.333  0.2818  0.2367 -0.0719
  253MOL0     C34049   9.124   8.149   2.352  0.9239 -0.8267 -0.2499
  253MOL0     O34050   9.090   8.179   2.480 -0.2002  0.3531 -0.8236
  253MOL0     C34051   8.978   8.253   2.506  0.2591  0.2007 -0.4587
  253MOL0     C34052   8.853   8.210   2.463 -0.5817  0.4007  0.0385
  253MOL0     C34053   8.736   8.289   2.483 -0.6945  0.2969 -0.6865
  253MOL0     C34054   8.753   8.414   2.553 -0.0716 -0.3575  0.3682
  253MOL0     O34055   8.647   8.494   2.587 -0.2659 -0.9561 -0.3094
  253MOL0     C34056   8.610   8.499   2.721  0.3946  1.4782  1.1258
  253MOL0     C34057   8.458   8.531   2.742 -0.3265  0.5622 -0.0069
  253MOL0     C34058   8.374   8.410   2.728 -0.6885  0.7433  0.1674
  253MOL0     C34059   8.239   8.437   2.781  0.4852  0.6820 -0.6607
  253MOL0     C34060   8.168   8.312   2.818 -0.8394  0.0854 -0.2454
  253MOL0     C34061   8.118   8.246   2.684  0.5474  0.0795 -0.3944
  253MOL0     C34062   8.042   8.111   2.724  0.2209  0.6990  0.1520
  253MOL0     C34063   8.127   7.994   2.787 -0.5514  0.1397  0.4555
  253MOL0    Cl34064   8.026   7.859   2.837 -0.1633  0.1842 -0.0589
  253MOL0     C34065   8.881   8.455   2.592  0.3326  0.6813 -0.4740
  253MOL0     C34066   8.996   8.386   2.555  0.9802 -0.2718 -0.5170
  253MOL0     O34067   9.061   8.189   2.256  0.1944 -0.2109 -0.3383
  253MOL0     C34068   9.304   8.006   2.446  0.6297  1.3209 -0.4074
  253MOL0     C34069   9.438   7.958   2.424 -0.2819 -0.2822 -0.0644
  253MOL0     N34070   9.829   8.265   1.965 -0.6264  0.3047  0.7288
  253MOL0     N34071   9.744   8.335   1.905  1.1177 -0.2567 -0.2358
  253MOL0     C34072   8.597   8.494   1.973  0.6680  0.7914 -0.2652
  253MOL0     C34073   8.488   8.585   1.975  0.9376  0.4628  0.5114
  253MOL0     C34074   8.264   8.935   2.135 -0.1480  0.5779  0.2776
  253MOL0     C34075   8.131   8.906   2.100 -0.1643  0.4548  0.7313
  253MOL0     C34076   8.025   8.994   2.107  0.7453  0.5222  0.7655
  253MOL0     C34077   8.046   9.127   2.138  1.2037 -0.1914 -0.6779
  253MOL0     O34078   7.936   9.218   2.145  0.0043  0.0543  0.1390
  253MOL0     C34079   7.808   9.179   2.084  0.0634  0.3546 -0.4937
  253MOL0     C34080   7.714   9.114   2.179  0.1789  0.7180 -0.1385
  253MOL0     C34081   7.695   9.201   2.301  0.1340 -0.0162  0.0243
  253MOL0     C34082   7.794   9.169   2.425  0.1307 -0.7073  0.4458
  253MOL0     C34083   7.775   9.247   2.546 -0.5871  0.3047  1.2255
  253MOL0     C34084   7.752   9.305   2.644  0.1484 -0.7563  0.8354
  253MOL0     C34085   8.173   9.163   2.186 -0.4318 -0.6778  0.4991
  253MOL0     C34086   8.283   9.074   2.174 -1.1382 -0.1077 -0.5032
  253MOL0     C34087   8.417   9.123   2.220 -0.4272  0.7404  0.8323
  253MOL0     H34088   8.379   8.547   2.294 -0.5088  1.7740  0.0378
  253MOL0     H34089   8.578   8.407   2.300  1.6214  0.0028  0.8634
  253MOL0     H34090   8.880   8.224   2.039 -4.0042 -1.0570  0.4692
  253MOL0     H34091   8.761   8.301   1.931 -0.8393 -0.2685  0.4162
  253MOL0     H34092   8.884   8.529   1.958 -0.0895 -0.0372 -1.0236
  253MOL0     H34093   8.977   8.413   1.871  1.0523  0.6487  0.2335
  253MOL0     H34094   9.029   8.414   2.164 -1.1206 -2.6203 -1.7106
  253MOL0     H34095   9.058   8.567   2.090 -1.6278  0.4659 -0.1778
  253MOL0     H34096   9.263   8.389   2.085  0.4055 -0.4018 -0.1485
  253MOL0     H34097   9.175   8.309   1.968  0.8415  0.6387 -0.3570
  253MOL0     H34098   9.151   8.530   1.843  0.8234  1.6946 -0.3162
  253MOL0     H34099   9.270   8.592   1.958 -0.3985  0.1920  0.3494
  253MOL0     H34100   9.299   8.398   1.740 -1.4449  0.1843  0.7390
  253MOL0     H34101   9.388   8.547   1.779 -0.1012  0.3580  0.7532
  253MOL0     H34102   9.407   8.283   1.945 -1.7414  0.7496  1.4111
  253MOL0     H34103   9.499   8.434   1.944 -1.2296 -1.0676  0.8616
  253MOL0     H34104   9.490   8.242   1.706 -2.2460 -2.8262  4.4968
  253MOL0     H34105   9.561   8.401   1.706 -1.6869  0.7779 -0.3252
  253MOL0     H34106   9.643   8.033   1.804 -0.3005 -0.6235  1.0081
  253MOL0     H34107   9.856   7.922   1.896  0.9743  0.7947  0.0342
  253MOL0     H34108   9.976   8.044   1.884  0.7440  1.7989  3.4784
  253MOL0     H34109  10.040   7.928   2.067  1.4349  1.4266  1.3873
  253MOL0     H34110   9.971   8.084   2.134  0.6098 -0.7028  2.6151
  253MOL0     H34111   9.918   7.897   2.273 -1.3448  1.1624  1.0518
  253MOL0     H34112   9.865   7.798   2.141 -0.3358  1.0562 -1.5298
  253MOL0     H34113   9.653   7.918   2.098 -0.9657 -1.4751  0.4966
  253MOL0     H34114   9.708   8.068   2.190  2.0741  0.5302 -0.0741
  253MOL0     H34115   9.480   8.043   2.102 -0.7177  0.3355 -1.0867
  253MOL0     H34116   9.272   8.150   2.142 -3.2405  0.1235  1.6724
  253MOL0     H34117   8.849   8.112   2.417  0.1482  0.1774  0.4337
  253MOL0     H34118   8.640   8.255   2.447 -0.7923 -1.4608  1.0916
  253MOL0     H34119   8.632   8.406   2.775  0.7457 -0.0772 -1.5438
  253MOL0     H34120   8.660   8.587   2.763 -1.9685  2.7240  1.5104
  253MOL0     H34121   8.471   8.568   2.844  3.3984 -0.6950  0.1201
  253MOL0     H34122   8.434   8.614   2.675 -1.3706  2.5666  2.6593
  253MOL0     H34123   8.378   8.390   2.620 -1.3234 -1.2142  0.4676
  253MOL0     H34124   8.425   8.333   2.787  4.0866  2.3654 -1.3810
  253MOL0     H34125   8.174   8.487   2.708 -0.7783  1.7748  1.1169
  253MOL0     H34126   8.248   8.496   2.873  1.3791  2.2964 -1.7292
  253MOL0     H34127   8.073   8.318   2.871 -1.0541 -0.3194 -0.5811
  253MOL0     H34128   8.236   8.244   2.871 -0.0343  3.2271  3.2187
  253MOL0     H34129   8.054   8.313   2.626  0.5735  0.1255 -0.3698
  253MOL0     H34130   8.199   8.218   2.616  1.7972 -3.2791  2.1877
  253MOL0     H34131   7.998   8.061   2.637 -2.4542 -0.1248  1.8732
  253MOL0     H34132   7.967   8.135   2.799  3.1988 -1.4606  4.2578
  253MOL0     H34133   8.200   7.963   2.712 -0.7421  0.2342  0.2276
  253MOL0     H34134   8.180   8.026   2.877  3.0390  2.3375 -2.1803
  253MOL0     H34135   8.901   8.555   2.632  1.4885 -0.0739  0.9465
  253MOL0     H34136   9.096   8.416   2.585  1.0254 -2.5287  2.0775
  253MOL0     H34137   9.250   8.002   2.540  0.8992  2.4356 -0.1966
  253MOL0     H34138   9.484   7.908   2.508  0.1381  0.8305  0.3831
  253MOL0     H34139   8.632   8.465   1.874  1.2291  0.8021 -0.0703
  253MOL0     H34140   8.458   8.647   1.891  0.2358  2.5703  2.2353
  253MOL0     H34141   8.109   8.808   2.058  0.2442 -0.5134  2.6547
  253MOL0     H34142   7.925   8.962   2.083  0.1195  0.4760  3.2028
  253MOL0     H34143   7.827   9.119   1.995  1.2635 -0.2376  0.1384
  253MOL0     H34144   7.760   9.272   2.051  3.8813  2.1005 -1.7318
  253MOL0     H34145   7.752   9.016   2.207  4.0667  2.2736  0.6827
  253MOL0     H34146   7.615   9.106   2.132  0.5765  0.5099 -0.9408
  253MOL0     H34147   7.590   9.187   2.329 -1.1778  2.5160 -2.9145
  253MOL0     H34148   7.720   9.304   2.275 -1.4916  0.7179  1.1521
  253MOL0     H34149   7.786   9.067   2.462 -0.4318 -0.2303  1.7171
  253MOL0     H34150   7.891   9.190   2.377 -0.7103 -1.3579 -1.6392
  253MOL0     H34151   7.727   9.362   2.731  1.1052  0.6921  0.2043
  253MOL0     H34152   8.193   9.264   2.221 -1.5308  0.9400 -3.0375
  253MOL0     H34153   8.492   9.075   2.157 -0.5625  1.3454  0.1989
  253MOL0     H34154   8.434   9.230   2.205  0.0468  0.2962 -2.6561
  253MOL0     H34155   8.434   9.077   2.317 -2.1229  0.6807  1.1365
  254MOL0     O34156   5.047   4.580   9.741 -1.1182 -0.4966 -0.2758
  254MOL0     C34157   4.962   4.660   9.791 -0.5719  0.5619  0.2955
  254MOL0     O34158   4.852   4.702   9.728  0.4371 -0.1334  0.2034
  254MOL0     C34159   4.729   4.692   9.795 -0.1613 -1.0266 -0.1137
  254MOL0     C34160   4.636   4.588   9.753 -0.7409 -0.3191  0.3048
  254MOL0     C34161   4.512   4.571   9.812 -0.1638  0.5393 -1.3835
  254MOL0     C34162   4.465   4.665   9.897 -0.4013 -0.2911  0.3624
  254MOL0     O34163   4.331   4.650   9.924  0.4790  0.3129 -0.3123
  254MOL0     C34164   4.258   4.763   9.967  0.3424 -0.1220 -0.6103
  254MOL0     C34165   4.113   4.727   9.983  0.1558  0.5272 -0.1935
  254MOL0     C34166   4.095   4.612  10.080  0.6380 -0.2133  1.2467
  254MOL0     C34167   4.024   4.654  10.205 -0.4070 -0.0997 -0.1921
  254MOL0     C34168   3.880   4.687  10.170  0.0483 -0.5288  0.9682
  254MOL0     C34169   3.804   4.691  10.301  0.3757  0.7918 -1.1795
  254MOL0     C34170   3.669   4.718  10.254  0.0237 -0.3836  0.3647
  254MOL0     C34171   3.580   4.720  10.377 -0.1161 -0.6531 -0.2585
  254MOL0     N34172   3.538   4.593  10.426  0.1589  0.1506  0.7788
  254MOL0     C34173   3.487   4.490  10.344  0.6199 -0.3072 -0.3304
  254MOL0     C34174   3.489   4.383  10.416 -0.5438  0.3180 -0.5304
  254MOL0     C34175   3.456   4.233  10.397 -0.0215 -0.9032  0.2967
  254MOL0     C34176   3.312   4.204  10.428 -0.0132  0.3788 -0.3874
  254MOL0     C34177   3.211   4.208  10.318 -0.2878 -0.2911  0.2878
  254MOL0     C34178   3.071   4.176  10.369  0.4686  0.4346  0.4700
  254MOL0     O34179   3.048   4.043  10.405 -0.3249  0.0951 -0.2501
  254MOL0     C34180   2.921   3.990  10.405 -0.5672 -0.6098 -0.6336
  254MOL0     C34181   2.806   4.060  10.407 -0.2225 -0.5747 -1.1641
  254MOL0     C34182   2.678   4.004  10.383 -0.0519 -0.2970  0.3486
  254MOL0     C34183   2.663   3.869  10.363  0.5016 -1.1720  0.8396
  254MOL0     C34184   2.536   3.812  10.341  0.4697  0.8198 -0.4285
  254MOL0     O34185   2.434   3.890  10.292  0.8295  0.0905  0.1629
  254MOL0     C34186   2.342   3.831  10.217  1.0841 -0.7593  0.9383
  254MOL0     C34187   2.329   3.876  10.088  0.0121 -0.0243 -0.6925
  254MOL0     C34188   2.241   3.832   9.997  0.3394  0.2104  0.1871
  254MOL0     C34189   2.151   3.739  10.032  0.1409 -0.1408 -0.7170
  254MOL0     O34190   2.037   3.713   9.963  0.3554  0.3107  0.0540
  254MOL0     C34191   2.001   3.577   9.933  0.1346  0.4216 -0.0928
  254MOL0     C34192   1.889   3.617   9.829  1.0325  0.3075 -1.3805
  254MOL0     C34193   1.867   3.502   9.737 -0.0120 -0.6055 -0.2001
  254MOL0     C34194   1.772   3.546   9.629 -0.3653  0.6195  0.0992
  254MOL0     C34195   1.742   3.426   9.532  0.0870  0.3276 -0.0795
  254MOL0     C34196   1.644   3.460   9.424  0.0253 -0.3722 -0.6591
  254MOL0     C34197   1.603   3.340   9.346  0.3150 -0.0677 -0.2079
  254MOL0     C34198   1.553   3.360   9.207 -0.3255 -0.6644  0.6031
  254MOL0    Cl34199   1.463   3.230   9.123  0.3339  0.2692 -0.2727
  254MOL0     C34200   2.151   3.683  10.165 -0.0068 -0.2667  0.9907
  254MOL0     C34201   2.247   3.741  10.257  0.1849 -0.2983 -0.4457
  254MOL0     O34202   2.529   3.685  10.347 -0.7901  0.6593 -0.0317
  254MOL0     C34203   2.781   3.793  10.365  0.6598  0.1500  0.1779
  254MOL0     C34204   2.899   3.852  10.394 -0.9477  0.5023  0.2139
  254MOL0     N34205   3.557   4.419  10.532 -0.7456  0.4056  0.8258
  254MOL0     N34206   3.588   4.541  10.538 -0.5162  0.1958 -0.1375
  254MOL0     C34207   4.541   4.782   9.926 -0.6629  0.5979  0.1317
  254MOL0     C34208   4.676   4.787   9.885  0.1474 -0.0140  0.4866
  254MOL0     C34209   4.986   4.694   9.931 -0.8661 -0.2528  0.5325
  254MOL0     C34210   4.953   4.597  10.021  0.4636  0.0773 -0.2950
  254MOL0     C34211   4.968   4.629  10.155 -0.1795  0.3194 -0.3418
  254MOL0     C34212   5.031   4.743  10.196 -0.0831  0.6545 -0.3589
  254MOL0     O34213   5.067   4.754  10.331  0.6212 -0.3682 -0.2573
  254MOL0     C34214   5.103   4.646  10.422 -0.0378  0.1677 -0.7490
  254MOL0     C34215   5.252   4.602  10.413 -1.2271 -0.7549  0.4290
  254MOL0     C34216   5.261   4.476  10.500 -0.0803 -0.3342 -0.2855
  254MOL0     C34217   5.213   4.490  10.646 -0.1158 -0.4777  0.8415
  254MOL0     C34218   5.270   4.617  10.703 -0.7078  0.1944 -0.0732
  254MOL0     C34219   5.323   4.705  10.765 -0.2387 -0.3773 -0.2470
  254MOL0     C34220   5.062   4.843  10.108  0.0397 -0.5599 -0.6122
  254MOL0     C34221   5.024   4.823   9.973  0.2076 -0.5415  0.3489
  254MOL0     C34222   5.033   4.951   9.881  0.4122  1.6879 -0.3530
  254MOL0     H34223   4.651   4.540   9.657  1.1737 -0.1124  0.4498
  254MOL0     H34224   4.447   4.487   9.791  0.9530 -0.8245  0.3104
  254MOL0     H34225   4.275   4.789  10.072 -0.4994  1.0410 -0.7451
  254MOL0     H34226   4.275   4.853   9.909 -1.6193  0.2904 -0.6315
  254MOL0     H34227   4.073   4.697   9.886  3.7599 -1.8671 -1.0946
  254MOL0     H34228   4.077   4.822  10.025 -1.4661 -0.8450  1.6958
  254MOL0     H34229   4.190   4.569  10.112  1.6783 -0.3060 -1.7145
  254MOL0     H34230   4.034   4.530  10.041  1.8669 -1.2133  1.3513
  254MOL0     H34231   4.033   4.586  10.291  0.1031 -0.9014 -0.8708
  254MOL0     H34232   4.067   4.749  10.238 -1.2506  0.6195 -1.1168
  254MOL0     H34233   3.871   4.786  10.125 -0.8053 -1.3167 -0.6665
  254MOL0     H34234   3.835   4.620  10.096 -0.4828 -1.7006  2.3035
  254MOL0     H34235   3.811   4.596  10.354  0.6212  1.0703 -0.7113
  254MOL0     H34236   3.835   4.767  10.373  0.9858 -2.4375  2.2990
  254MOL0     H34237   3.623   4.653  10.180 -2.8882  2.1511 -0.2366
  254MOL0     H34238   3.661   4.815  10.204 -0.8109 -0.8993 -0.5273
  254MOL0     H34239   3.616   4.783  10.459 -0.7790  1.6029 -1.6103
  254MOL0     H34240   3.490   4.775  10.347  2.1707  3.2199 -0.6188
  254MOL0     H34241   3.446   4.489  10.244 -1.3899  3.6646  0.2583
  254MOL0     H34242   3.486   4.195  10.298 -2.7132  2.5793 -2.1300
  254MOL0     H34243   3.520   4.181  10.469 -0.2988 -1.0363  0.4483
  254MOL0     H34244   3.313   4.102  10.467  2.9011 -0.7839 -3.0756
  254MOL0     H34245   3.272   4.278  10.498 -2.0309  2.0295 -3.0746
  254MOL0     H34246   3.242   4.138  10.240 -1.1826  1.0398 -1.3323
  254MOL0     H34247   3.202   4.308  10.274  1.1688  0.4754  1.6462
  254MOL0     H34248   3.014   4.180  10.276  1.4578 -0.8425 -0.2210
  254MOL0     H34249   3.025   4.236  10.448 -2.9820 -2.2586  0.7040
  254MOL0     H34250   2.797   4.167  10.425  1.2584 -0.6422  0.2452
  254MOL0     H34251   2.591   4.069  10.380  0.4392  0.3215 -1.2898
  254MOL0     H34252   2.409   3.940  10.051 -1.1732  3.3008  1.9702
  254MOL0     H34253   2.251   3.876   9.898  4.0086  1.5018  0.9799
  254MOL0     H34254   2.081   3.534   9.871  0.3291 -0.8264  0.9806
  254MOL0     H34255   1.989   3.514  10.022 -0.9699  2.4536  1.2861
  254MOL0     H34256   1.795   3.641   9.880  0.1133 -0.6980 -2.5503
  254MOL0     H34257   1.919   3.709   9.778  0.2740  2.4195  1.7240
  254MOL0     H34258   1.963   3.472   9.693  0.7614  0.9553  0.3518
  254MOL0     H34259   1.822   3.421   9.795  1.3582 -3.9599 -3.4040
  254MOL0     H34260   1.816   3.627   9.571  2.2565 -0.8122 -0.0494
  254MOL0     H34261   1.676   3.577   9.672  0.0777  0.3714  1.3165
  254MOL0     H34262   1.692   3.348   9.591 -0.9000 -0.6242 -2.0838
  254MOL0     H34263   1.836   3.407   9.480 -0.1144  0.4106 -0.4811
  254MOL0     H34264   1.557   3.511   9.466  0.9345  0.7361 -0.0626
  254MOL0     H34265   1.693   3.533   9.359  0.3155 -0.4540 -0.5325
  254MOL0     H34266   1.526   3.298   9.412  0.8665  0.8118  1.0356
  254MOL0     H34267   1.691   3.275   9.342  1.6605  1.4288  2.4162
  254MOL0     H34268   1.483   3.443   9.215 -0.1671  0.1386 -3.8744
  254MOL0     H34269   1.629   3.403   9.141  0.3565 -1.2869  0.9545
  254MOL0     H34270   2.077   3.614  10.204 -0.8524 -1.3109 -2.1523
  254MOL0     H34271   2.253   3.717  10.363 -0.3449 -0.1488 -0.3793
  254MOL0     H34272   2.780   3.684  10.364 -1.2565  0.1369 -0.7489
  254MOL0     H34273   2.985   3.786  10.389 -1.5133 -0.2002 -0.6521
  254MOL0     H34274   4.498   4.874   9.964  0.0791  0.4700  1.3438
  254MOL0     H34275   4.738   4.875   9.897  0.7249 -0.5219  1.3598
  254MOL0     H34276   4.918   4.504   9.977  0.2455 -0.0588  0.1576
  254MOL0     H34277   4.945   4.544  10.218 -1.1409  2.5550  2.5491
  254MOL0     H34278   5.048   4.552  10.406 -1.2913  0.6787  0.4248
  254MOL0     H34279   5.080   4.679  10.523  1.1014 -2.1174  0.3406
  254MOL0     H34280   5.330   4.677  10.434  1.1500 -3.3741  1.6115
  254MOL0     H34281   5.280   4.575  10.311 -0.8111  0.8562  0.0732
  254MOL0     H34282   5.363   4.440  10.515  0.0791  0.1938 -0.0530
  254MOL0     H34283   5.204   4.406  10.439 -1.6464  0.3434  0.3386
  254MOL0     H34284   5.104   4.491  10.644 -0.1136  0.8479 -0.6171
  254MOL0     H34285   5.239   4.401  10.704  2.0825 -0.1054  0.5117
  254MOL0     H34286   5.378   4.776  10.823  0.2465 -1.4809  0.6865
  254MOL0     H34287   5.112   4.931  10.148 -1.9836 -0.6660  2.5214
  254MOL0     H34288   5.055   5.045   9.932 -0.3185  0.3554  2.6195
  254MOL0     H34289   5.112   4.921   9.812  0.3221  1.2116 -0.2553
  254MOL0     H34290   4.941   4.956   9.821 -1.4177 -2.1108  1.7433
  255MOL0     O34291   8.509   9.054   3.699 -0.4588 -0.2955  0.4999
  255MOL0     C34292   8.409   8.976   3.679 -0.0670 -0.8185 -0.2555
  255MOL0     O34293   8.418   8.861   3.617 -0.5075 -0.4925 -0.3698
  255MOL0     C34294   8.539   8.810   3.599 -0.0175 -0.3694  1.3524
  255MOL0     C34295   8.597   8.839   3.476  0.1273 -0.9681  0.4088
  255MOL0     C34296   8.714   8.789   3.440  0.1370  0.7650 -0.1885
  255MOL0     C34297   8.786   8.703   3.532 -0.8566 -0.3864  0.6036
  255MOL0     O34298   8.913   8.649   3.492  0.0920 -0.1556 -0.3692
  255MOL0     C34299   9.004   8.618   3.602  0.9861  0.6487  0.7738
  255MOL0     C34300   9.152   8.601   3.551  0.1242  0.0006  0.0453
  255MOL0     C34301   9.230   8.576   3.681 -0.5416 -0.0615 -0.6914
  255MOL0     C34302   9.377   8.542   3.637  0.2812 -0.9240  0.4689
  255MOL0     C34303   9.448   8.652   3.570  0.1860 -0.3033  0.7720
  255MOL0     C34304   9.593   8.634   3.555 -0.8239  1.0554  0.1431
  255MOL0     C34305   9.639   8.530   3.452  1.0082 -0.1065  0.6214
  255MOL0     C34306   9.789   8.531   3.403  0.5558 -0.3001  0.5910
  255MOL0     N34307   9.801   8.448   3.285 -0.6289  0.9651 -0.5060
  255MOL0     C34308   9.933   8.404   3.256  0.4268  1.0558  0.2628
  255MOL0     C34309   9.925   8.362   3.124  0.7972  0.2592  0.0511
  255MOL0     C34310  10.022   8.283   3.051 -0.5781  0.1073  0.0465
  255MOL0     C34311   9.964   8.146   3.000  0.2745 -0.0192 -1.3585
  255MOL0     C34312  10.070   8.066   2.936  0.1602  0.2764  0.3491
  255MOL0     C34313  10.177   8.025   3.026  0.1028 -0.1031  0.0391
  255MOL0     O34314  10.238   7.906   2.974  0.4807 -0.2804  0.3678
  255MOL0     C34315  10.214   7.790   3.038 -0.2357 -1.0873 -0.2586
  255MOL0     C34316  10.213   7.778   3.181  0.5468 -0.4805 -0.2025
  255MOL0     C34317  10.200   7.662   3.250  0.8689 -0.5643  0.2283
  255MOL0     C34318  10.196   7.549   3.177  0.1066 -0.6973 -0.7564
  255MOL0     C34319  10.216   7.424   3.244  0.3546 -0.4297  0.2849
  255MOL0     O34320  10.272   7.425   3.371 -0.1588 -0.0615 -0.5237
  255MOL0     C34321  10.299   7.306   3.427  0.4636 -0.7403 -0.8405
  255MOL0     C34322  10.408   7.239   3.397  0.5702  0.1891  0.3928
  255MOL0     C34323  10.428   7.110   3.444 -0.7385 -0.8230 -0.0576
  255MOL0     C34324  10.333   7.042   3.528  0.0565 -0.0363  1.0784
  255MOL0     O34325  10.343   6.913   3.579  0.0120 -0.1663 -0.6921
  255MOL0     C34326  10.285   6.881   3.706  0.0901  0.1595 -0.0957
  255MOL0     C34327  10.315   6.731   3.734  0.5415  0.3466 -0.0109
  255MOL0     C34328  10.236   6.629   3.643 -0.3000 -0.2592  0.0463
  255MOL0     C34329  10.287   6.484   3.677 -0.2675 -0.5897 -1.1704
  255MOL0     C34330  10.219   6.387   3.582 -0.4664  0.2857  0.4943
  255MOL0     C34331  10.270   6.380   3.444 -0.9373  0.2030 -0.7664
  255MOL0     C34332  10.196   6.285   3.345  0.6934 -0.3411  0.3061
  255MOL0     C34333  10.187   6.132   3.393 -0.4434  0.6234  0.4580
  255MOL0    Cl34334  10.122   6.041   3.261  0.0286 -0.4869  0.3080
  255MOL0     C34335  10.214   7.117   3.552 -0.2164  0.2949 -0.1431
  255MOL0     C34336  10.206   7.250   3.518  0.4996  0.2521  0.3495
  255MOL0     O34337  10.179   7.323   3.186 -0.1903 -0.3420 -0.0741
  255MOL0     C34338  10.175   7.554   3.032 -0.0820 -0.5788  0.9374
  255MOL0     C34339  10.194   7.672   2.970 -0.2277 -0.1509  0.1088
  255MOL0     N34340   9.796   8.395   3.077  0.3728  0.1643  0.0816
  255MOL0     N34341   9.726   8.439   3.171  0.1186  0.2906  0.6403
  255MOL0     C34342   8.730   8.685   3.667 -0.0016  0.3407  0.6330
  255MOL0     C34343   8.603   8.735   3.693 -0.7827  0.2123 -0.3464
  255MOL0     C34344   8.275   9.012   3.725 -0.2940  0.1177  1.3700
  255MOL0     C34345   8.168   9.024   3.634  0.1196 -0.2195 -0.4507
  255MOL0     C34346   8.039   9.052   3.682  0.3312 -0.4165  0.1213
  255MOL0     C34347   8.022   9.071   3.820 -0.2885 -0.1101  0.5376
  255MOL0     O34348   7.899   9.096   3.875  0.1929  0.1459  0.2311
  255MOL0     C34349   7.780   9.071   3.800 -0.3175 -0.1717 -0.3798
  255MOL0     C34350   7.663   9.117   3.885 -0.7445  0.3417 -1.1292
  255MOL0     C34351   7.613   9.010   3.993  0.0575  0.1604 -0.3899
  255MOL0     C34352   7.602   9.070   4.134 -0.1653  0.0456  0.4156
  255MOL0     C34353   7.737   9.110   4.181  0.7430 -0.6683 -0.2067
  255MOL0     C34354   7.837   9.123   4.247  0.5610 -0.0447  0.1491
  255MOL0     C34355   8.127   9.064   3.910 -0.7221  1.0246  1.6281
  255MOL0     C34356   8.259   9.034   3.866  0.8445  0.2392  0.3975
  255MOL0     C34357   8.357   9.010   3.973  0.5107  0.6057  0.0235
  255MOL0     H34358   8.558   8.917   3.412  2.2995  1.8599  2.3031
  255MOL0     H34359   8.747   8.797   3.337 -2.0647  0.3832 -0.9706
  255MOL0     H34360   9.001   8.710   3.660  3.1554  1.8755 -0.9183
  255MOL0     H34361   8.964   8.536   3.662 -0.6340 -0.6221 -1.8622
  255MOL0     H34362   9.192   8.684   3.492  1.6131 -2.2780 -2.3894
  255MOL0     H34363   9.170   8.505   3.501  0.9782 -1.6211  3.1954
  255MOL0     H34364   9.181   8.493   3.732 -0.2190  0.2473  0.1232
  255MOL0     H34365   9.235   8.672   3.732 -2.7486  0.4318 -1.3049
  255MOL0     H34366   9.429   8.517   3.730 -0.1871 -2.4893  0.3308
  255MOL0     H34367   9.374   8.456   3.570  1.4706 -0.2024 -0.5452
  255MOL0     H34368   9.401   8.661   3.472  0.9636 -1.7312  0.2281
  255MOL0     H34369   9.422   8.739   3.631 -1.6335 -2.0270  2.6091
  255MOL0     H34370   9.632   8.731   3.522  3.2506 -0.5485 -0.3406
  255MOL0     H34371   9.645   8.607   3.648  0.7143  0.8105 -0.7521
  255MOL0     H34372   9.571   8.549   3.368 -0.0174 -1.4116  1.1103
  255MOL0     H34373   9.618   8.430   3.491  2.8446 -1.0559 -0.6479
  255MOL0     H34374   9.820   8.633   3.377  0.0936 -0.5716 -1.1982
  255MOL0     H34375   9.855   8.500   3.484 -1.0893  0.0971  2.1457
  255MOL0     H34376  10.019   8.383   3.318  1.1194  2.0478 -0.3159
  255MOL0     H34377  10.066   8.335   2.966  1.9222 -1.6503  0.1693
  255MOL0     H34378  10.102   8.266   3.123  1.0311  1.3165 -1.3815
  255MOL0     H34379   9.926   8.094   3.089  2.2033 -0.5555 -0.7978
  255MOL0     H34380   9.875   8.151   2.937  0.1086  0.9819 -1.0742
  255MOL0     H34381  10.108   8.118   2.848  3.2605 -2.4388 -0.1351
  255MOL0     H34382  10.026   7.972   2.900  0.8755 -0.5426  1.5093
  255MOL0     H34383  10.145   8.008   3.130  2.3042 -0.8426  0.6385
  255MOL0     H34384  10.252   8.102   3.047  1.0528 -1.3985  1.5793
  255MOL0     H34385  10.217   7.865   3.246 -0.4591  0.7464 -1.7204
  255MOL0     H34386  10.215   7.667   3.357 -0.9181 -0.5845  0.5055
  255MOL0     H34387  10.480   7.293   3.337  0.2997 -0.1729 -0.2688
  255MOL0     H34388  10.525   7.071   3.416 -0.8959 -1.5671  0.4087
  255MOL0     H34389  10.329   6.954   3.774  0.9715 -0.5155  0.0785
  255MOL0     H34390  10.176   6.888   3.715  0.2176  0.5349  1.5362
  255MOL0     H34391  10.419   6.701   3.750  0.3860 -0.9401 -1.2046
  255MOL0     H34392  10.268   6.720   3.833  0.2704  0.5761 -0.1143
  255MOL0     H34393  10.127   6.638   3.648 -0.1170  1.7321  4.1940
  255MOL0     H34394  10.261   6.654   3.539 -0.8744 -0.5799 -0.1707
  255MOL0     H34395  10.258   6.457   3.779  0.6509  2.4277  0.0137
  255MOL0     H34396  10.394   6.478   3.656 -0.5422 -0.4664 -2.7191
  255MOL0     H34397  10.114   6.416   3.571 -0.9322 -1.3014  0.4848
  255MOL0     H34398  10.225   6.287   3.626  1.0974 -0.1265 -0.5599
  255MOL0     H34399  10.265   6.483   3.407  2.3297  1.2074  1.2350
  255MOL0     H34400  10.374   6.350   3.451 -1.4180 -1.2937  0.4447
  255MOL0     H34401  10.248   6.296   3.249  1.8712  1.9310  1.1347
  255MOL0     H34402  10.092   6.314   3.329  0.7489 -0.3085 -0.0149
  255MOL0     H34403  10.285   6.087   3.412 -1.5843 -1.1390  2.6603
  255MOL0     H34404  10.130   6.106   3.482  3.9957 -3.4512  2.5921
  255MOL0     H34405  10.128   7.070   3.599  1.2444 -3.0083 -0.5011
  255MOL0     H34406  10.116   7.310   3.524  1.6447  2.7626 -3.6704
  255MOL0     H34407  10.167   7.463   2.972  5.2545 -0.8935  0.2175
  255MOL0     H34408  10.187   7.664   2.862  0.2521  0.4224  0.0334
  255MOL0     H34409   8.786   8.619   3.733  4.1982  2.7519 -0.1545
  255MOL0     H34410   8.550   8.716   3.785 -2.5819 -1.4915 -1.6320
  255MOL0     H34411   8.184   9.006   3.528  1.3726  2.8074 -0.8596
  255MOL0     H34412   7.956   9.052   3.612 -0.8063  1.4404  1.3823
  255MOL0     H34413   7.768   8.971   3.759 -2.7231  0.1043 -0.4717
  255MOL0     H34414   7.789   9.147   3.722 -1.4110  0.5362  0.1606
  255MOL0     H34415   7.579   9.132   3.816 -1.9655 -0.3702  0.1343
  255MOL0     H34416   7.688   9.213   3.931 -0.2948 -0.0861 -0.4612
  255MOL0     H34417   7.682   8.927   4.012 -1.0074 -0.5655  0.4472
  255MOL0     H34418   7.522   8.962   3.956 -0.2772  2.1758 -2.3925
  255MOL0     H34419   7.532   9.153   4.124 -0.9515 -0.8326 -1.9649
  255MOL0     H34420   7.555   8.994   4.197 -0.9263  1.7729  2.0318
  255MOL0     H34421   7.928   9.131   4.303  0.3844  0.2746  0.3912
  255MOL0     H34422   8.103   9.092   4.012  0.5158  1.0234  1.9369
  255MOL0     H34423   8.417   8.919   3.963  1.5794  1.5016 -2.3690
  255MOL0     H34424   8.420   9.099   3.980 -2.4720  2.8592  0.1910
  255MOL0     H34425   8.309   9.002   4.071  5.3832  2.5468  2.9788
  256MOL0     O34426   4.485   2.340   3.977  0.1596  0.3883  0.3539
  256MOL0     C34427   4.390   2.345   4.053  1.0724 -0.1173 -0.0487
  256MOL0     O34428   4.298   2.240   4.078 -0.3641  0.0572 -0.5826
  256MOL0     C34429   4.339   2.107   4.085 -1.1691 -0.3163  0.7379
  256MOL0     C34430   4.263   2.022   4.157  0.4076  0.7700  0.2518
  256MOL0     C34431   4.299   1.884   4.172  0.4588  0.6896 -0.1415
  256MOL0     C34432   4.411   1.834   4.110  0.6769  0.0793 -0.0296
  256MOL0     O34433   4.435   1.701   4.140  0.4797 -0.0442 -0.5062
  256MOL0     C34434   4.507   1.620   4.040  0.1427  0.9871 -0.8420
  256MOL0     C34435   4.593   1.503   4.104  0.1792  1.2107  0.2664
  256MOL0     C34436   4.694   1.572   4.191  0.0530 -0.1583 -0.1687
  256MOL0     C34437   4.774   1.489   4.290 -0.2952 -0.8787  0.2335
  256MOL0     C34438   4.856   1.380   4.234 -0.0049  0.9078  0.4136
  256MOL0     C34439   4.932   1.298   4.338  0.1296 -0.8193  0.0785
  256MOL0     C34440   5.030   1.391   4.413  0.2532 -0.3798  0.5386
  256MOL0     C34441   5.111   1.308   4.515 -0.0414  0.8125 -0.1045
  256MOL0     N34442   5.026   1.252   4.625  0.7768 -0.6840 -0.8874
  256MOL0     C34443   4.998   1.313   4.745  0.4510 -0.3147 -0.5824
  256MOL0     C34444   4.944   1.220   4.818 -0.1962 -0.1381 -1.0051
  256MOL0     C34445   4.935   1.222   4.965  0.0444 -0.6908 -0.0723
  256MOL0     C34446   4.942   1.087   5.032 -0.1442  0.1514  0.2744
  256MOL0     C34447   4.936   1.092   5.185 -0.0051 -0.1224 -0.3677
  256MOL0     C34448   4.801   1.051   5.252  0.3587  0.7585 -0.3316
  256MOL0     O34449   4.821   0.996   5.382 -0.2068 -0.3330  0.4512
  256MOL0     C34450   4.724   0.931   5.453  1.1812 -0.4235 -0.2910
  256MOL0     C34451   4.724   0.931   5.591 -0.0687  0.2016  0.8452
  256MOL0     C34452   4.615   0.875   5.660  0.0843  0.1491 -0.1934
  256MOL0     C34453   4.508   0.813   5.587  0.5666  0.5114 -0.0052
  256MOL0     C34454   4.391   0.759   5.652 -0.5563 -0.8416 -0.5758
  256MOL0     O34455   4.350   0.825   5.761 -0.6271  0.1162 -0.1894
  256MOL0     C34456   4.222   0.818   5.807  0.9837  0.9926  0.3223
  256MOL0     C34457   4.140   0.701   5.814 -0.2940  0.3953 -0.4082
  256MOL0     C34458   4.011   0.687   5.876  0.4826 -0.7422 -0.5430
  256MOL0     C34459   3.948   0.810   5.916  0.0629  0.5818 -0.2775
  256MOL0     O34460   3.832   0.822   5.978  0.2694 -0.1265 -0.6572
  256MOL0     C34461   3.772   0.698   6.033 -0.3566 -0.5446 -0.6535
  256MOL0     C34462   3.644   0.739   6.112  0.5626 -0.5113 -0.1364
  256MOL0     C34463   3.564   0.630   6.154  0.3321  0.9591  0.3046
  256MOL0     C34464   3.421   0.672   6.215 -0.7779  0.0060  0.4934
  256MOL0     C34465   3.316   0.555   6.213 -0.7435  0.0656  0.1888
  256MOL0     C34466   3.198   0.590   6.310 -0.0094  0.7262 -1.1892
  256MOL0     C34467   3.110   0.709   6.264  0.2084  1.0038 -0.3415
  256MOL0     C34468   2.987   0.677   6.174 -0.6519  0.6126 -0.5336
  256MOL0    Cl34469   2.869   0.801   6.174  0.0939  0.2026  0.6575
  256MOL0     C34470   4.019   0.929   5.899  0.2398  0.5650  0.7763
  256MOL0     C34471   4.153   0.935   5.852 -0.7741 -0.0910 -0.0167
  256MOL0     O34472   4.330   0.673   5.593  0.3145 -0.0483  0.7122
  256MOL0     C34473   4.509   0.812   5.442  0.0481  0.1140 -0.3651
  256MOL0     C34474   4.620   0.867   5.381  0.1644  0.2728  0.1994
  256MOL0     N34475   4.935   1.112   4.748 -0.9970  1.0594  0.2891
  256MOL0     N34476   4.977   1.127   4.624  0.6431 -0.5594  0.7570
  256MOL0     C34477   4.498   1.928   4.039 -0.1185  1.3310  0.5426
  256MOL0     C34478   4.461   2.055   4.024  0.4116 -0.4694 -0.4666
  256MOL0     C34479   4.346   2.478   4.104 -0.0520 -0.0187  0.3764
  256MOL0     C34480   4.219   2.484   4.174  0.7573 -1.4005 -0.2608
  256MOL0     C34481   4.168   2.609   4.213  0.0081  0.7329  1.2598
  256MOL0     C34482   4.242   2.723   4.194 -0.7131 -0.5254  0.3457
  256MOL0     O34483   4.209   2.848   4.235 -0.2631  0.5085 -0.6126
  256MOL0     C34484   4.089   2.874   4.312  0.1544 -0.7870  0.4935
  256MOL0     C34485   4.059   3.015   4.364 -0.2496 -1.1684 -0.4852
  256MOL0     C34486   3.914   3.033   4.415  1.2376 -1.1926 -0.8980
  256MOL0     C34487   3.889   3.171   4.488 -0.5550  0.6098  0.4028
  256MOL0     C34488   3.974   3.279   4.427  0.8810  0.0701  0.1401
  256MOL0     C34489   4.031   3.370   4.380  0.5999  0.2702 -0.4801
  256MOL0     C34490   4.360   2.720   4.125  0.7231  0.2075  0.8424
  256MOL0     C34491   4.418   2.601   4.080 -0.3809 -0.9986  0.2313
  256MOL0     C34492   4.541   2.612   4.001  0.6482 -0.2161  0.3767
  256MOL0     H34493   4.172   2.052   4.208 -0.2743 -1.5424  0.5187
  256MOL0     H34494   4.243   1.817   4.236  2.2875 -0.3716  0.4354
  256MOL0     H34495   4.432   1.586   3.969  2.0067 -2.0012 -1.5902
  256MOL0     H34496   4.573   1.679   3.976  2.2387  1.3445  1.4779
  256MOL0     H34497   4.654   1.452   4.029  2.1035  5.3780 -1.3214
  256MOL0     H34498   4.531   1.440   4.168  0.2494 -0.2685 -1.0590
  256MOL0     H34499   4.629   1.633   4.254 -0.1218  0.2906 -0.7719
  256MOL0     H34500   4.761   1.629   4.125 -0.9001  1.7089  0.4101
  256MOL0     H34501   4.838   1.555   4.349 -1.2026 -0.3256  0.6324
  256MOL0     H34502   4.699   1.446   4.357 -0.0558 -1.3808  0.1811
  256MOL0     H34503   4.797   1.300   4.189  0.4554  1.1561 -0.6823
  256MOL0     H34504   4.915   1.425   4.153 -3.9292  2.1488 -2.0235
  256MOL0     H34505   4.865   1.246   4.407  1.0789 -1.7607  0.3107
  256MOL0     H34506   4.995   1.225   4.287 -1.4273 -2.0777 -0.1003
  256MOL0     H34507   4.967   1.460   4.470 -1.1202 -1.2763  0.1391
  256MOL0     H34508   5.101   1.442   4.348  0.1914  0.1335  0.8654
  256MOL0     H34509   5.152   1.214   4.476 -1.0439 -1.1641  3.2013
  256MOL0     H34510   5.191   1.367   4.561  0.0420  2.0094 -1.6946
  256MOL0     H34511   5.039   1.405   4.785  0.5110 -1.6126  2.6516
  256MOL0     H34512   4.990   1.294   5.026 -3.0315  0.5313  1.4787
  256MOL0     H34513   4.842   1.280   4.972  1.7600  2.0919  2.0317
  256MOL0     H34514   4.867   1.022   4.987 -3.2186  3.0569  0.7542
  256MOL0     H34515   5.042   1.047   5.015  0.6153  1.8659  0.4056
  256MOL0     H34516   4.962   1.188   5.231  1.0703  0.2020 -1.5766
  256MOL0     H34517   5.024   1.034   5.214  2.4059  3.4212  0.0463
  256MOL0     H34518   4.751   0.979   5.187 -0.3568  0.9685 -0.0264
  256MOL0     H34519   4.738   1.140   5.257  1.6871  1.6990  0.1836
  256MOL0     H34520   4.810   0.978   5.639  0.9771 -1.3229  0.5601
  256MOL0     H34521   4.611   0.861   5.767  0.0784 -1.9852 -0.4273
  256MOL0     H34522   4.196   0.610   5.792 -2.2057 -1.4693  1.9200
  256MOL0     H34523   3.982   0.589   5.912 -0.4155 -0.1048  0.5031
  256MOL0     H34524   3.741   0.631   5.952  0.4048 -1.0797 -0.5190
  256MOL0     H34525   3.843   0.646   6.098 -0.2456 -1.1521 -1.2479
  256MOL0     H34526   3.674   0.809   6.191 -0.7030 -1.3717  1.1501
  256MOL0     H34527   3.585   0.792   6.036 -0.6355 -1.9988 -0.2704
  256MOL0     H34528   3.549   0.565   6.067 -0.7441  1.6808 -0.0684
  256MOL0     H34529   3.611   0.576   6.237  2.8255  1.3273 -0.7617
  256MOL0     H34530   3.370   0.751   6.159 -1.3479  0.7958  2.0638
  256MOL0     H34531   3.444   0.716   6.312 -3.3462 -1.4078  1.8489
  256MOL0     H34532   3.366   0.470   6.259  2.1619  0.7232 -1.4819
  256MOL0     H34533   3.259   0.539   6.121 -4.2605  2.2247  1.7537
  256MOL0     H34534   3.137   0.502   6.333 -4.0037  3.5696  0.2494
  256MOL0     H34535   3.240   0.624   6.405  1.0874  0.5514 -1.5974
  256MOL0     H34536   3.174   0.782   6.213  0.2110  0.0443 -1.7651
  256MOL0     H34537   3.057   0.754   6.348 -1.0722 -1.0578  0.0270
  256MOL0     H34538   3.022   0.653   6.073 -0.4358 -0.4905 -0.2124
  256MOL0     H34539   2.945   0.588   6.222  0.1006  0.6937  0.3042
  256MOL0     H34540   3.983   1.030   5.919  1.5601  1.5252 -1.2949
  256MOL0     H34541   4.206   1.027   5.869  0.3512 -0.7024 -0.1311
  256MOL0     H34542   4.428   0.782   5.377 -0.4734  3.7381 -1.6024
  256MOL0     H34543   4.623   0.862   5.273  2.3208 -0.7975  0.2410
  256MOL0     H34544   4.588   1.876   4.007 -2.3550 -3.1122  0.7338
  256MOL0     H34545   4.529   2.126   3.978  0.6885 -0.0260  0.5916
  256MOL0     H34546   4.166   2.397   4.213  0.4932 -0.3104  1.9550
  256MOL0     H34547   4.072   2.606   4.264  0.1963 -0.0574  1.5923
  256MOL0     H34548   4.078   2.811   4.401  0.3214 -0.5390  0.6913
  256MOL0     H34549   4.010   2.845   4.242  0.0536  1.7572 -0.5284
  256MOL0     H34550   4.081   3.082   4.281 -0.3703 -3.3000 -2.3085
  256MOL0     H34551   4.118   3.031   4.456 -0.2528 -0.6279 -0.5742
  256MOL0     H34552   3.876   2.947   4.472 -2.9177  1.5394  0.9068
  256MOL0     H34553   3.862   3.040   4.320  1.0220  3.6333 -0.6417
  256MOL0     H34554   3.782   3.195   4.487 -0.6326  0.2849  0.7679
  256MOL0     H34555   3.917   3.154   4.592 -0.5607  0.3423  0.3608
  256MOL0     H34556   4.088   3.445   4.327 -2.4274  4.0422  1.0769
  256MOL0     H34557   4.415   2.812   4.104  2.8342 -0.5483  2.6508
  256MOL0     H34558   4.506   2.608   3.898 -1.3999  1.2108  0.9545
  256MOL0     H34559   4.577   2.714   4.018  1.4725 -0.8020  2.5650
  256MOL0     H34560   4.617   2.539   4.030 -1.3136 -1.9431  1.4455
  257MOL0     O34561   5.819   4.645   1.515 -1.1266  0.9526 -0.4809
  257MOL0     C34562   5.775   4.754   1.544  1.3717 -0.4263 -0.0890
  257MOL0     O34563   5.767   4.861   1.464 -0.0548  0.5482 -0.9849
  257MOL0     C34564   5.800   4.844   1.332  1.0936  0.3119 -0.3420
  257MOL0     C34565   5.720   4.761   1.245  0.0891 -0.3124  0.8560
  257MOL0     C34566   5.758   4.757   1.110 -0.1037 -1.1423 -0.3321
  257MOL0     C34567   5.878   4.813   1.067  0.4128  0.4264  0.6189
  257MOL0     O34568   5.931   4.779   0.939  0.4588 -1.3294  0.2430
  257MOL0     C34569   5.891   4.647   0.899 -1.0673  0.1892 -0.7185
  257MOL0     C34570   6.013   4.588   0.812  0.4723  0.0678 -0.6781
  257MOL0     C34571   6.141   4.600   0.890 -0.2752  0.5895 -0.1332
  257MOL0     C34572   6.131   4.509   1.013  0.0754  0.6645  0.1697
  257MOL0     C34573   6.264   4.442   1.045 -1.6230  0.9425  0.3364
  257MOL0     C34574   6.269   4.338   1.166  0.1610 -0.0714  0.0034
  257MOL0     C34575   6.202   4.201   1.135  0.1792 -0.0351  0.0302
  257MOL0     C34576   6.203   4.130   1.271  0.7472  0.4171  1.0556
  257MOL0     N34577   6.139   4.000   1.255  1.2022 -0.0089 -0.1926
  257MOL0     C34578   5.999   3.985   1.259 -1.4748  0.0993 -0.4497
  257MOL0     C34579   5.975   3.853   1.240 -0.1522  0.0316  0.3383
  257MOL0     C34580   5.841   3.789   1.234  0.1851  0.2951 -0.2703
  257MOL0     C34581   5.846   3.687   1.128 -0.7824 -0.0275 -0.3148
  257MOL0     C34582   5.831   3.758   0.993 -0.7055 -0.8904  0.0991
  257MOL0     C34583   5.790   3.656   0.885  0.8362 -0.3037 -0.1793
  257MOL0     O34584   5.912   3.588   0.848  1.2690 -0.4007  0.0048
  257MOL0     C34585   5.946   3.462   0.895 -0.1335 -0.1326  0.2916
  257MOL0     C34586   5.881   3.371   0.976 -0.1918  1.0595 -0.1897
  257MOL0     C34587   5.945   3.244   1.006  0.8344  0.1474  0.2089
  257MOL0     C34588   6.081   3.221   0.966 -0.5168 -1.0474 -0.1221
  257MOL0     C34589   6.139   3.095   1.005  0.1187 -0.6080 -0.5591
  257MOL0     O34590   6.071   3.023   1.101 -0.1456  0.4780 -0.4873
  257MOL0     C34591   6.118   2.914   1.166  0.7835  0.1404 -0.3398
  257MOL0     C34592   6.029   2.834   1.242 -0.1539 -0.6472  0.5100
  257MOL0     C34593   6.093   2.750   1.331 -0.3125 -0.2363  0.0373
  257MOL0     C34594   6.226   2.730   1.354  0.3635  0.2771 -0.1910
  257MOL0     O34595   6.255   2.639   1.454 -0.0897  0.1431  0.6993
  257MOL0     C34596   6.392   2.634   1.508  0.0112 -0.1900 -0.4452
  257MOL0     C34597   6.415   2.751   1.613 -0.3712 -0.9010  0.0238
  257MOL0     C34598   6.556   2.765   1.679  0.1275  0.2600 -0.2446
  257MOL0     C34599   6.560   2.878   1.782 -0.0977 -0.6563 -0.1911
  257MOL0     C34600   6.713   2.895   1.818  0.1112 -0.6226  0.4522
  257MOL0     C34601   6.725   2.997   1.933  0.2414 -0.4576 -0.8174
  257MOL0     C34602   6.871   3.048   1.948  0.5047  0.5951 -0.6185
  257MOL0     C34603   6.877   3.145   2.067  1.0678 -0.4053  0.1682
  257MOL0    Cl34604   6.850   3.099   2.242  0.0561 -0.3271 -0.5667
  257MOL0     C34605   6.311   2.801   1.273 -0.8613 -0.3662  0.7997
  257MOL0     C34606   6.261   2.890   1.177 -0.5338  0.2107  0.1698
  257MOL0     O34607   6.233   3.051   0.944 -0.1771 -0.4241  0.1176
  257MOL0     C34608   6.149   3.324   0.891  0.3035  0.2496  0.8035
  257MOL0     C34609   6.072   3.430   0.844  0.2975 -0.3857  0.2726
  257MOL0     N34610   6.100   3.798   1.218  0.0628 -0.7788 -0.4624
  257MOL0     N34611   6.195   3.881   1.232 -0.0933  0.1960 -0.1170
  257MOL0     C34612   5.954   4.897   1.155  0.2377  0.8430 -0.5344
  257MOL0     C34613   5.920   4.901   1.288  0.4466 -0.0873  1.1060
  257MOL0     C34614   5.686   4.763   1.667  0.1243 -0.0407 -0.6861
  257MOL0     C34615   5.583   4.665   1.676  0.1232  0.0345 -0.2830
  257MOL0     C34616   5.496   4.662   1.786  0.2727 -0.1864 -0.6611
  257MOL0     C34617   5.505   4.763   1.887  0.0901  0.7728 -0.6983
  257MOL0     O34618   5.436   4.761   2.002 -0.0787  0.4831 -0.4505
  257MOL0     C34619   5.319   4.848   1.988 -0.5028 -0.0069 -0.7599
  257MOL0     C34620   5.193   4.792   1.920  0.1519 -0.1107  0.1057
  257MOL0     C34621   5.119   4.684   2.000  0.3062 -0.3135  0.6642
  257MOL0     C34622   5.196   4.556   2.032  0.0425  0.0277 -0.3720
  257MOL0     C34623   5.210   4.479   1.910 -1.1725 -0.7324  0.1324
  257MOL0     C34624   5.215   4.424   1.799  0.3294 -0.9875 -0.6084
  257MOL0     C34625   5.613   4.852   1.880 -0.7432  0.0532  0.0027
  257MOL0     C34626   5.696   4.862   1.764  0.2736  0.2850  0.0589
  257MOL0     C34627   5.786   4.984   1.748 -0.1620 -0.7889  0.2218
  257MOL0     H34628   5.639   4.690   1.257  1.1215 -2.1749 -2.1294
  257MOL0     H34629   5.683   4.716   1.043  0.2039 -2.0553 -0.1292
  257MOL0     H34630   5.880   4.583   0.987 -1.3366 -0.5526 -1.2791
  257MOL0     H34631   5.801   4.653   0.836 -2.3657  0.7096  1.1270
  257MOL0     H34632   6.020   4.644   0.719 -0.9192  0.8295 -0.3443
  257MOL0     H34633   5.995   4.481   0.796  1.5592 -0.4479  1.2117
  257MOL0     H34634   6.171   4.703   0.913 -0.6224  0.5127  0.7063
  257MOL0     H34635   6.226   4.559   0.836  0.8935  3.3083 -0.5028
  257MOL0     H34636   6.105   4.574   1.097  1.0310 -0.1321  1.1052
  257MOL0     H34637   6.052   4.434   1.014 -0.1356  0.8427 -1.1543
  257MOL0     H34638   6.312   4.396   0.958 -1.2397  1.1566  0.4328
  257MOL0     H34639   6.331   4.524   1.072  1.5917 -1.6699  1.0438
  257MOL0     H34640   6.375   4.312   1.177 -0.0682 -1.4255 -0.7988
  257MOL0     H34641   6.237   4.393   1.255  2.6809 -0.6069  1.3429
  257MOL0     H34642   6.275   4.154   1.068  1.4030  0.3141  1.0795
  257MOL0     H34643   6.103   4.219   1.092 -0.6876 -1.4778  1.3368
  257MOL0     H34644   6.309   4.105   1.276  1.1407  1.3882 -1.2369
  257MOL0     H34645   6.164   4.191   1.352 -2.4735 -2.5987  2.0796
  257MOL0     H34646   5.926   4.064   1.252 -0.5563  0.9802 -0.2643
  257MOL0     H34647   5.814   3.743   1.330  1.8664 -0.8318 -0.3011
  257MOL0     H34648   5.765   3.862   1.205 -0.1855  0.5911  1.3060
  257MOL0     H34649   5.935   3.624   1.127 -0.6455  0.1702 -0.8086
  257MOL0     H34650   5.759   3.622   1.143 -0.1397 -2.0764 -4.2296
  257MOL0     H34651   5.924   3.810   0.968 -0.1223 -1.3840  1.1541
  257MOL0     H34652   5.747   3.828   0.991 -1.1079 -1.3587  0.2509
  257MOL0     H34653   5.740   3.701   0.800  2.9478  1.5477 -0.5296
  257MOL0     H34654   5.717   3.588   0.929  1.5487 -0.6596  0.4941
  257MOL0     H34655   5.781   3.389   1.013 -0.5802 -1.3403  0.0794
  257MOL0     H34656   5.882   3.179   1.066  1.6442  0.1104  1.0346
  257MOL0     H34657   5.925   2.865   1.239  0.4969  1.8957  1.5594
  257MOL0     H34658   6.024   2.695   1.395 -0.0947 -3.5464 -2.2937
  257MOL0     H34659   6.408   2.542   1.564 -2.3451  0.9424  2.4039
  257MOL0     H34660   6.462   2.651   1.426  0.2457  0.3894 -0.1332
  257MOL0     H34661   6.384   2.841   1.558 -2.1104  0.8098  3.4576
  257MOL0     H34662   6.335   2.736   1.686 -1.5035  0.1837 -0.9340
  257MOL0     H34663   6.578   2.666   1.723  1.3044  0.6448  0.0705
  257MOL0     H34664   6.642   2.786   1.615  1.4179 -1.2000  0.8981
  257MOL0     H34665   6.504   2.853   1.873 -2.4590  3.9905 -0.0852
  257MOL0     H34666   6.531   2.974   1.738  3.6279  2.3607  3.0972
  257MOL0     H34667   6.771   2.925   1.730 -0.2465 -0.8152  0.1481
  257MOL0     H34668   6.769   2.805   1.846 -0.1157 -0.7385  0.5329
  257MOL0     H34669   6.660   3.085   1.933  1.0681  0.8085  6.7004
  257MOL0     H34670   6.696   2.950   2.027 -0.5811 -0.4946 -1.0824
  257MOL0     H34671   6.888   3.094   1.850 -2.4954 -3.0483 -3.1496
  257MOL0     H34672   6.948   2.971   1.959 -1.4745 -1.3464  0.4973
  257MOL0     H34673   6.970   3.202   2.062  0.1387  1.0910 -2.0239
  257MOL0     H34674   6.804   3.224   2.048  0.9428 -1.0440 -2.3639
  257MOL0     H34675   6.418   2.786   1.264 -0.6857 -0.1202  2.2710
  257MOL0     H34676   6.326   2.960   1.127  0.5042  1.4518  3.0334
  257MOL0     H34677   6.253   3.311   0.864 -0.2836  0.6648 -1.9050
  257MOL0     H34678   6.110   3.504   0.775 -2.0776  1.8593  1.2189
  257MOL0     H34679   6.056   4.928   1.133  1.0128  1.3963  3.0425
  257MOL0     H34680   5.980   4.942   1.367  0.8426  1.4984  0.0237
  257MOL0     H34681   5.560   4.605   1.588  0.8170 -0.5791 -0.0559
  257MOL0     H34682   5.412   4.593   1.795 -0.0647  0.2495 -0.4184
  257MOL0     H34683   5.357   4.946   1.956 -0.6317  1.5285  3.2054
  257MOL0     H34684   5.287   4.857   2.093 -1.0186 -4.0625 -0.4252
  257MOL0     H34685   5.225   4.764   1.819 -1.0092 -0.4337 -0.1832
  257MOL0     H34686   5.118   4.871   1.909  1.2129  0.9326  0.2240
  257MOL0     H34687   5.029   4.662   1.944  1.8481 -0.3041 -1.9823
  257MOL0     H34688   5.094   4.726   2.098  2.3040  2.2990  0.1699
  257MOL0     H34689   5.296   4.569   2.074  0.4197 -1.0265 -0.8941
  257MOL0     H34690   5.140   4.486   2.094 -0.1796 -1.3514 -2.0571
  257MOL0     H34691   5.234   4.377   1.705 -0.2960 -0.6131 -0.9282
  257MOL0     H34692   5.620   4.910   1.972 -0.6707 -0.2195  0.1725
  257MOL0     H34693   5.741   5.056   1.680  1.5748  1.6689  1.5341
  257MOL0     H34694   5.817   5.022   1.846 -1.6369  0.7881  0.1058
  257MOL0     H34695   5.877   4.944   1.701  0.2451 -0.0938  0.4063
  258MOL0     O34696   4.436  11.452   3.794  0.1830  0.1883 -0.1150
  258MOL0     C34697   4.321  11.409   3.783  0.4509 -0.9286  0.0856
  258MOL0     O34698   4.285  11.288   3.838 -0.1935 -0.1203 -0.6180
  258MOL0     C34699   4.380  11.213   3.904 -0.2897 -1.2329  1.3055
  258MOL0     C34700   4.394  11.243   4.042 -0.1524 -1.4246  0.6092
  258MOL0     C34701   4.497  11.175   4.115 -0.0969  1.1670 -0.4503
  258MOL0     C34702   4.569  11.057   4.066 -0.6838 -0.8207  0.2928
  258MOL0     O34703   4.651  10.965   4.135 -0.1608  0.8305  0.3074
  258MOL0     C34704   4.685  11.004   4.271 -0.1501 -0.2533  0.8192
  258MOL0     C34705   4.769  10.902   4.339  0.4771  0.0380 -0.0835
  258MOL0     C34706   4.793  10.926   4.486 -1.1264  0.5573 -0.0197
  258MOL0     C34707   4.864  10.805   4.541  0.5689 -1.0352  0.3520
  258MOL0     C34708   4.851  10.800   4.690  0.2341  0.6606 -0.6037
  258MOL0     C34709   4.933  10.909   4.765  0.4113  0.5995  0.1342
  258MOL0     C34710   5.077  10.905   4.745 -0.4209 -0.3584 -0.3718
  258MOL0     C34711   5.144  10.970   4.865  0.4947  0.3103  0.1862
  258MOL0     N34712   5.289  10.977   4.849 -0.1110  1.1117 -0.1055
  258MOL0     C34713   5.360  11.042   4.752 -0.1035 -0.9486  0.4979
  258MOL0     C34714   5.492  11.055   4.787  0.2232  0.0986 -0.5737
  258MOL0     C34715   5.595  11.128   4.711  0.4465 -0.4378 -0.5360
  258MOL0     C34716   5.628  11.261   4.775  0.0740  0.3813 -0.2046
  258MOL0     C34717   5.603  11.376   4.665 -0.2985  0.0595 -0.5550
  258MOL0     C34718   5.626  11.521   4.720  1.3932  0.4283 -0.8037
  258MOL0     O34719   5.746  11.531   4.801  0.2711  0.7764 -1.1380
  258MOL0     C34720   5.857  11.594   4.747  0.2067 -0.0763 -0.0424
  258MOL0     C34721   5.934  11.664   4.840 -0.7194 -0.2400  0.0076
  258MOL0     C34722   6.045  11.736   4.791  0.2206 -0.5716 -0.1537
  258MOL0     C34723   6.084  11.734   4.657 -0.3060  0.4465  0.3447
  258MOL0     C34724   6.218  11.786   4.607  0.8162  0.7016 -1.0926
  258MOL0     O34725   6.214  11.852   4.483 -0.2546 -0.6722 -0.1213
  258MOL0     C34726   6.326  11.907   4.429 -0.8739 -0.2973 -0.3940
  258MOL0     C34727   6.411  11.988   4.503 -0.0937 -0.8553  1.0042
  258MOL0     C34728   6.523  12.045   4.437  0.3724  0.5971 -0.4688
  258MOL0     C34729   6.539  12.034   4.304 -0.0425  0.2808  0.6476
  258MOL0     O34730   6.641  12.088   4.230 -0.2646  0.3134 -0.0851
  258MOL0     C34731   6.759  12.145   4.299  0.5600  0.1335 -0.1278
  258MOL0     C34732   6.873  12.179   4.202 -0.2481 -0.2879 -1.5853
  258MOL0     C34733   6.855  12.318   4.150 -0.3422 -0.0863  1.2075
  258MOL0     C34734   6.983  12.346   4.066  0.2663 -0.0645  0.7231
  258MOL0     C34735   6.976  12.500   4.041 -0.5372  0.0626 -1.1119
  258MOL0     C34736   7.091  12.535   3.946 -1.0823 -0.0665 -0.1279
  258MOL0     C34737   7.094  12.689   3.914 -0.0180  0.1681 -0.0575
  258MOL0     C34738   7.204  12.736   3.808  0.0577  0.7305 -0.3259
  258MOL0    Cl34739   7.170  12.905   3.797 -0.2379  0.1074 -0.5980
  258MOL0     C34740   6.440  11.970   4.227  0.9184  0.5638  0.1738
  258MOL0     C34741   6.332  11.911   4.292 -0.2839 -0.1846 -0.6046
  258MOL0     O34742   6.318  11.776   4.676 -0.1611  0.0508 -0.3219
  258MOL0     C34743   6.001  11.670   4.570  0.1778 -0.3147 -0.1971
  258MOL0     C34744   5.883  11.601   4.613 -0.1415  0.3463 -0.8621
  258MOL0     N34745   5.499  11.003   4.915  0.4038  0.6234  0.6289
  258MOL0     N34746   5.380  10.948   4.945 -0.6099 -0.1018  0.1637
  258MOL0     C34747   4.536  11.035   3.930 -1.7300 -0.1547 -0.7155
  258MOL0     C34748   4.440  11.101   3.844 -0.8630 -0.8719  0.4003
  258MOL0     C34749   4.223  11.498   3.717  0.7114  0.8733  0.0905
  258MOL0     C34750   4.098  11.502   3.770 -0.2410 -0.0311 -0.5887
  258MOL0     C34751   3.994  11.583   3.715 -0.0925 -0.9763 -0.0681
  258MOL0     C34752   4.018  11.660   3.600 -0.3856 -0.1464  0.6573
  258MOL0     O34753   3.928  11.747   3.540  0.3310 -0.1059  0.0896
  258MOL0     C34754   3.818  11.814   3.607  0.2602  0.0992  0.5077
  258MOL0     C34755   3.688  11.747   3.571 -0.3758 -0.0738 -0.5404
  258MOL0     C34756   3.598  11.813   3.462  0.3630  0.1222 -0.1355
  258MOL0     C34757   3.495  11.705   3.436  0.1025  0.5967  0.2461
  258MOL0     C34758   3.531  11.623   3.317 -0.6057  0.7903  0.0780
  258MOL0     C34759   3.551  11.560   3.223 -0.9019  0.0402  0.5266
  258MOL0     C34760   4.143  11.649   3.543  0.8260 -1.2441 -0.4624
  258MOL0     C34761   4.246  11.574   3.598 -0.2926 -0.1451  0.5625
  258MOL0     C34762   4.383  11.559   3.514 -0.1735 -0.7688 -0.1611
  258MOL0     H34763   4.339  11.315   4.101  1.2092  1.4704 -1.4564
  258MOL0     H34764   4.490  11.196   4.222 -2.0250 -0.2772 -0.2371
  258MOL0     H34765   4.736  11.101   4.273  0.7582 -0.6805 -0.4288
  258MOL0     H34766   4.591  11.007   4.327  0.1088 -0.6968  1.2863
  258MOL0     H34767   4.869  10.887   4.297  0.3268  2.0965 -1.2841
  258MOL0     H34768   4.714  10.809   4.327 -2.6181  1.2928  2.7318
  258MOL0     H34769   4.703  10.953   4.542 -0.8647  0.6859  0.3459
  258MOL0     H34770   4.856  11.015   4.485 -0.8622  0.4692 -3.4845
  258MOL0     H34771   4.811  10.723   4.492 -1.9577  0.8116 -0.2218
  258MOL0     H34772   4.963  10.809   4.494 -1.1941  0.6521 -3.7349
  258MOL0     H34773   4.745  10.810   4.715 -0.3208 -1.5742 -1.7755
  258MOL0     H34774   4.881  10.702   4.728 -3.7056  0.7851  3.7270
  258MOL0     H34775   4.890  11.004   4.734 -1.5652 -0.7263 -1.5071
  258MOL0     H34776   4.901  10.891   4.869  0.7796 -0.7062  0.0389
  258MOL0     H34777   5.097  10.961   4.653  0.7870 -0.8149 -0.4034
  258MOL0     H34778   5.095  10.799   4.725  1.1350  0.2580 -2.5877
  258MOL0     H34779   5.101  11.069   4.882  1.8533  0.5319  2.7290
  258MOL0     H34780   5.120  10.921   4.959 -2.9421  0.3390 -0.5335
  258MOL0     H34781   5.320  11.095   4.666  1.3809  1.7054  1.3289
  258MOL0     H34782   5.686  11.067   4.710  1.6150  0.8177  3.9983
  258MOL0     H34783   5.550  11.150   4.614 -5.6381 -3.4010  1.1194
  258MOL0     H34784   5.570  11.281   4.865 -0.1396 -5.3020  1.2878
  258MOL0     H34785   5.727  11.255   4.820 -0.0445 -0.5565 -0.0465
  258MOL0     H34786   5.500  11.377   4.629 -0.6058  0.0686  0.3073
  258MOL0     H34787   5.662  11.360   4.574  2.4250  1.0706  0.9127
  258MOL0     H34788   5.546  11.540   4.793 -1.4837 -2.5654 -2.8774
  258MOL0     H34789   5.621  11.593   4.638  2.4758 -1.4546 -2.6062
  258MOL0     H34790   5.908  11.671   4.945  2.1999  1.5985  0.7392
  258MOL0     H34791   6.108  11.778   4.868  0.5209 -1.1921 -0.0502
  258MOL0     H34792   6.395  11.992   4.610 -1.4421 -0.5159  0.8069
  258MOL0     H34793   6.600  12.094   4.495 -0.8098  2.6974 -0.5692
  258MOL0     H34794   6.733  12.237   4.353  0.8883 -0.7577  1.6205
  258MOL0     H34795   6.804  12.075   4.370  1.5285 -0.1552 -1.0102
  258MOL0     H34796   6.962  12.171   4.265 -1.0299  3.6769  0.3141
  258MOL0     H34797   6.869  12.103   4.124 -0.2144 -1.3014 -0.6192
  258MOL0     H34798   6.763  12.315   4.091  0.8398 -0.7125 -0.7129
  258MOL0     H34799   6.848  12.390   4.232 -1.0836  0.0363  1.0438
  258MOL0     H34800   6.977  12.284   3.975 -0.1601  0.3236  0.4818
  258MOL0     H34801   7.072  12.320   4.124 -1.0162 -2.0099  1.9483
  258MOL0     H34802   6.995  12.552   4.135 -1.6923 -3.0659  1.0529
  258MOL0     H34803   6.877  12.529   4.004 -1.8871 -2.0677  0.5368
  258MOL0     H34804   7.191  12.508   3.982 -0.3720  1.4468 -0.8624
  258MOL0     H34805   7.070  12.487   3.851  1.5660  0.3640 -1.0242
  258MOL0     H34806   7.117  12.744   4.006 -0.5215  0.9895 -0.4145
  258MOL0     H34807   6.994  12.713   3.875 -0.0563  1.4260  0.7810
  258MOL0     H34808   7.305  12.709   3.842  0.9291 -0.4017 -3.5091
  258MOL0     H34809   7.187  12.696   3.708 -1.6841  0.1227  0.1816
  258MOL0     H34810   6.437  11.978   4.118 -1.7860 -1.4747 -0.0024
  258MOL0     H34811   6.242  11.875   4.243 -3.2237 -0.2646  4.2273
  258MOL0     H34812   5.998  11.677   4.462 -2.4834  1.9323 -0.0938
  258MOL0     H34813   5.817  11.551   4.543 -0.8136  1.0841 -0.7693
  258MOL0     H34814   4.606  10.965   3.885 -0.1927 -1.4707  3.2840
  258MOL0     H34815   4.428  11.076   3.739  1.0307  2.2637 -0.7116
  258MOL0     H34816   4.103  11.455   3.868  3.7187  3.8681  1.4153
  258MOL0     H34817   3.907  11.606   3.776  0.2531  0.4689 -0.0731
  258MOL0     H34818   3.809  11.920   3.582  0.7979 -0.4967 -2.7841
  258MOL0     H34819   3.834  11.801   3.714 -1.0856 -2.9371  0.4560
  258MOL0     H34820   3.627  11.730   3.661  1.4338 -0.3494  0.7028
  258MOL0     H34821   3.715  11.645   3.545  0.5084  0.5200 -2.0765
  258MOL0     H34822   3.664  11.843   3.380  0.1202 -0.6837 -0.6348
  258MOL0     H34823   3.547  11.903   3.498 -1.0154  0.6585 -3.1180
  258MOL0     H34824   3.486  11.624   3.509 -0.8382 -1.3530 -1.9246
  258MOL0     H34825   3.399  11.753   3.415  0.0919  0.8414  0.8341
  258MOL0     H34826   3.553  11.496   3.137 -1.8743 -0.5602  0.9447
  258MOL0     H34827   4.158  11.702   3.449 -1.6283 -2.9449 -1.9437
  258MOL0     H34828   4.448  11.481   3.554  2.5855  2.3171  1.9418
  258MOL0     H34829   4.356  11.527   3.413  1.6425  1.2430 -1.3918
  258MOL0     H34830   4.439  11.653   3.519 -2.6031  0.8222 -1.0957
  259MOL0     O34831  10.175   2.369   1.988  0.0632  0.2406 -0.0854
  259MOL0     C34832  10.131   2.342   2.103  0.9422  0.1826 -0.1802
  259MOL0     O34833  10.108   2.431   2.207 -0.6034  0.3517  0.5322
  259MOL0     C34834  10.149   2.564   2.190 -0.1796 -0.8580 -0.5833
  259MOL0     C34835  10.186   2.625   2.310 -0.1655  0.0209 -1.2232
  259MOL0     C34836  10.233   2.756   2.313 -0.0581 -0.1627 -0.4911
  259MOL0     C34837  10.239   2.828   2.199  0.1597  0.6104  0.0581
  259MOL0     O34838  10.265   2.960   2.210 -0.1961  0.7287 -0.2846
  259MOL0     C34839  10.387   3.011   2.279  0.0444  0.0545 -0.6763
  259MOL0     C34840  10.452   3.117   2.196 -0.8424 -0.6972  0.3111
  259MOL0     C34841  10.547   3.200   2.280 -1.1552  0.0478 -1.2268
  259MOL0     C34842  10.477   3.328   2.354  1.0031  0.1528  0.8575
  259MOL0     C34843  10.595   3.399   2.428  0.4301 -0.0753  0.3869
  259MOL0     C34844  10.540   3.481   2.539  0.0475 -0.4034 -0.1032
  259MOL0     C34845  10.642   3.562   2.608 -0.1667  1.0096  0.2258
  259MOL0     C34846  10.577   3.643   2.723 -0.3309  1.1330  0.5450
  259MOL0     N34847  10.495   3.571   2.818 -0.2511  0.6973 -0.3861
  259MOL0     C34848  10.532   3.471   2.907 -0.4860 -0.3900 -0.2293
  259MOL0     C34849  10.422   3.440   2.965  0.4169  0.4376 -0.2118
  259MOL0     C34850  10.397   3.333   3.072  0.6408  0.3472  0.4085
  259MOL0     C34851  10.350   3.402   3.208  0.2264 -0.3321 -0.2039
  259MOL0     C34852  10.479   3.448   3.290 -0.1918 -0.1585  1.0153
  259MOL0     C34853  10.447   3.467   3.437 -1.2250 -0.7349 -0.4305
  259MOL0     O34854  10.577   3.499   3.496 -0.1550 -0.8462  0.2198
  259MOL0     C34855  10.606   3.632   3.533  0.2481  0.5658 -0.6262
  259MOL0     C34856  10.524   3.743   3.506  0.4389  0.9257 -0.6401
  259MOL0     C34857  10.553   3.867   3.566  1.3321 -0.1678 -0.5341
  259MOL0     C34858  10.662   3.890   3.660 -0.5169  0.2891  0.3254
  259MOL0     C34859  10.685   4.016   3.730  0.8991 -1.0741  0.2777
  259MOL0     O34860  10.593   4.115   3.711 -0.4617 -1.3743 -0.2038
  259MOL0     C34861  10.576   4.203   3.814 -0.9618  0.1153  0.1988
  259MOL0     C34862  10.532   4.326   3.775 -0.1654 -0.4972  0.6826
  259MOL0     C34863  10.509   4.432   3.864  0.6586 -0.4392  0.0325
  259MOL0     C34864  10.519   4.405   4.004 -0.4916 -0.1151  1.0546
  259MOL0     O34865  10.487   4.490   4.109 -0.1747 -0.2148  0.6699
  259MOL0     C34866  10.361   4.566   4.089 -0.2351  0.4036  0.9654
  259MOL0     C34867  10.396   4.710   4.128 -0.0973  0.1199 -1.4288
  259MOL0     C34868  10.274   4.802   4.129 -0.8283 -0.3164  0.8740
  259MOL0     C34869  10.304   4.936   4.190  0.1763 -0.0298  0.1755
  259MOL0     C34870  10.313   4.925   4.341  0.6773 -0.5967 -0.6044
  259MOL0     C34871  10.406   5.043   4.401  0.5379 -0.2699  0.0082
  259MOL0     C34872  10.428   5.045   4.543  1.1606 -0.4649 -0.4883
  259MOL0     C34873  10.511   5.167   4.572  0.3568  0.6605  0.0828
  259MOL0    Cl34874  10.405   5.303   4.609 -0.4648 -0.2646  0.0263
  259MOL0     C34875  10.556   4.285   4.048  1.0346  0.0982  0.0171
  259MOL0     C34876  10.589   4.179   3.953 -0.8726  0.1831 -0.7837
  259MOL0     O34877  10.787   4.014   3.800  0.1298 -0.5884  0.4462
  259MOL0     C34878  10.736   3.771   3.696  0.1181 -0.0756  0.3300
  259MOL0     C34879  10.711   3.653   3.617  0.3711  0.3192 -0.5916
  259MOL0     N34880  10.323   3.531   2.926 -0.2996 -0.0544 -0.1225
  259MOL0     N34881  10.368   3.610   2.841  0.2145 -0.4861 -0.4250
  259MOL0     C34882  10.205   2.772   2.080  0.4875  0.0554 -0.0834
  259MOL0     C34883  10.159   2.637   2.073 -0.1986 -0.5005 -0.1643
  259MOL0     C34884  10.090   2.194   2.124  0.4945 -0.4347  1.2001
  259MOL0     C34885  10.157   2.104   2.025  0.6395 -1.7195  0.4834
  259MOL0     C34886  10.131   1.970   2.022  0.3156  0.9564 -1.0210
  259MOL0     C34887  10.066   1.907   2.128 -0.6695 -1.0300  0.0817
  259MOL0     O34888  10.039   1.772   2.142  0.1596 -0.3246 -0.6851
  259MOL0     C34889  10.110   1.684   2.055  0.1096 -0.5773  0.2518
  259MOL0     C34890  10.093   1.543   2.092 -0.4101  0.2468  0.9060
  259MOL0     C34891  10.092   1.517   2.245 -0.7474 -0.5406 -1.1015
  259MOL0     C34892  10.056   1.379   2.292 -0.6880 -1.6537  0.6371
  259MOL0     C34893  10.167   1.290   2.243  0.0360 -0.9616 -0.2218
  259MOL0     C34894  10.259   1.219   2.204 -0.4220  0.2661 -0.9971
  259MOL0     C34895  10.008   1.998   2.227  0.2927  0.0974  0.2857
  259MOL0     C34896  10.005   2.134   2.219 -0.1809  0.5377 -0.1158
  259MOL0     C34897   9.949   2.193   2.338  0.3883 -0.4992 -0.5573
  259MOL0     H34898  10.190   2.563   2.399 -1.0182  0.2513 -1.0165
  259MOL0     H34899  10.269   2.812   2.399  1.2870 -0.2270 -0.9831
  259MOL0     H34900  10.349   3.051   2.374 -1.3501 -0.6886 -0.8907
  259MOL0     H34901  10.455   2.928   2.298 -3.7760 -3.4569 -0.9639
  259MOL0     H34902  10.381   3.192   2.161  0.7828  0.2955 -1.0152
  259MOL0     H34903  10.495   3.084   2.101  1.5537  0.9062  0.7490
  259MOL0     H34904  10.641   3.221   2.230  0.6283 -0.2509  1.7525
  259MOL0     H34905  10.592   3.140   2.360 -2.7636  1.0282  0.4993
  259MOL0     H34906  10.423   3.393   2.285  1.3077  0.1590  0.6216
  259MOL0     H34907  10.401   3.294   2.424 -0.8958  2.6707  0.1575
  259MOL0     H34908  10.655   3.321   2.477  1.0655  1.1555  1.6340
  259MOL0     H34909  10.660   3.452   2.359  1.6944 -1.1091  0.7305
  259MOL0     H34910  10.460   3.548   2.507  1.7583  2.5496  1.3915
  259MOL0     H34911  10.499   3.408   2.611 -1.0210  0.6939  0.4285
  259MOL0     H34912  10.690   3.630   2.537  2.2442 -1.3972 -0.6154
  259MOL0     H34913  10.719   3.490   2.636 -2.4666 -2.0353 -0.7142
  259MOL0     H34914  10.654   3.681   2.790  1.3768 -2.1431  0.6333
  259MOL0     H34915  10.519   3.719   2.670 -1.7775 -1.2496 -1.5284
  259MOL0     H34916  10.633   3.433   2.921 -0.6772  0.0604  3.6045
  259MOL0     H34917  10.303   3.280   3.060 -0.2099  1.9045 -0.0698
  259MOL0     H34918  10.480   3.263   3.087  1.0301  0.0237 -2.7487
  259MOL0     H34919  10.281   3.486   3.191 -0.3760 -0.4683  1.4007
  259MOL0     H34920  10.298   3.325   3.265  0.5769 -3.0921 -3.3202
  259MOL0     H34921  10.512   3.544   3.251  1.8761 -1.7416 -1.5113
  259MOL0     H34922  10.564   3.385   3.261  0.8491  1.9200 -0.6858
  259MOL0     H34923  10.406   3.379   3.489 -0.1922 -0.6849  0.5166
  259MOL0     H34924  10.360   3.532   3.448  0.2271  1.5181 -1.6913
  259MOL0     H34925  10.453   3.736   3.424  2.0778 -2.5453 -1.9643
  259MOL0     H34926  10.507   3.964   3.548  2.1604  0.4035  0.3087
  259MOL0     H34927  10.529   4.346   3.668  1.9368 -1.5817  0.3724
  259MOL0     H34928  10.494   4.529   3.818  3.0414 -0.0724 -0.1244
  259MOL0     H34929  10.336   4.573   3.983 -1.3108 -1.0987  1.0827
  259MOL0     H34930  10.270   4.520   4.130 -0.3186 -2.2365 -1.8718
  259MOL0     H34931  10.442   4.700   4.227  0.4566 -0.1632 -1.7098
  259MOL0     H34932  10.476   4.755   4.070 -0.4732 -0.6414 -2.5649
  259MOL0     H34933  10.254   4.817   4.023  2.7292  1.1914  0.2717
  259MOL0     H34934  10.189   4.759   4.184  0.2390 -1.2060  1.8919
  259MOL0     H34935  10.224   5.001   4.153  0.2174 -0.6746 -1.1176
  259MOL0     H34936  10.400   4.962   4.144 -0.0718  0.5708 -0.0089
  259MOL0     H34937  10.368   4.836   4.374  0.3578 -0.5519  0.0661
  259MOL0     H34938  10.221   4.908   4.397  1.3023 -1.1221  0.2847
  259MOL0     H34939  10.504   5.040   4.352  1.0739  0.6311  0.9758
  259MOL0     H34940  10.355   5.138   4.386 -0.6633 -1.0385 -0.9613
  259MOL0     H34941  10.477   4.951   4.570  4.7738  0.9548 -1.5211
  259MOL0     H34942  10.333   5.055   4.595 -0.2966  1.6119 -3.3089
  259MOL0     H34943  10.571   5.148   4.661 -0.3589 -2.5427  0.0090
  259MOL0     H34944  10.575   5.187   4.486 -1.9876 -1.1090 -2.2627
  259MOL0     H34945  10.571   4.282   4.155 -3.3289  0.3854  0.7991
  259MOL0     H34946  10.636   4.090   3.995  3.0256  3.2298  2.0934
  259MOL0     H34947  10.796   3.792   3.783 -2.5407  1.2950  1.9658
  259MOL0     H34948  10.785   3.574   3.632  2.0579  1.7956 -0.8116
  259MOL0     H34949  10.218   2.826   1.987 -1.4592  3.1306  1.2753
  259MOL0     H34950  10.121   2.599   1.979 -1.8841 -1.8373  0.9757
  259MOL0     H34951  10.214   2.145   1.942 -0.6635 -2.9121 -1.0604
  259MOL0     H34952  10.168   1.913   1.937  0.2551  1.3987 -1.3515
  259MOL0     H34953  10.215   1.698   2.081 -0.7408 -1.2402  5.1086
  259MOL0     H34954  10.086   1.709   1.952 -0.5631 -2.5049 -0.1147
  259MOL0     H34955  10.171   1.491   2.035 -1.9620  0.4048 -1.5143
  259MOL0     H34956   9.996   1.504   2.061 -0.6933 -0.2642  2.3499
  259MOL0     H34957  10.012   1.579   2.286 -0.4822 -0.8770 -0.0542
  259MOL0     H34958  10.178   1.566   2.291 -1.5777 -1.6108  1.8215
  259MOL0     H34959  10.063   1.374   2.401 -1.5472 -1.2805  0.7169
  259MOL0     H34960   9.955   1.344   2.268 -0.7146 -1.2509  0.1367
  259MOL0     H34961  10.346   1.164   2.174  0.2955  0.8034  0.0205
  259MOL0     H34962   9.948   1.952   2.305 -2.8107  0.3051 -1.8207
  259MOL0     H34963   9.871   2.136   2.390 -0.1790  1.1450  0.4708
  259MOL0     H34964  10.025   2.211   2.415  1.6191 -0.3809 -1.7639
  259MOL0     H34965   9.903   2.289   2.312  0.8515  0.4149  1.6910
  260MOL0     O34966   1.316   8.050   3.106  0.0550  0.2739  0.9911
  260MOL0     C34967   1.256   7.973   3.028 -0.2067  0.0802 -0.8383
  260MOL0     O34968   1.214   7.849   3.067  0.6967 -0.4050 -0.3405
  260MOL0     C34969   1.229   7.793   3.196  0.6466 -0.6203  0.2917
  260MOL0     C34970   1.206   7.658   3.203 -0.8239  0.8135  0.5011
  260MOL0     C34971   1.224   7.590   3.321  0.2308  0.6361  0.5361
  260MOL0     C34972   1.260   7.650   3.434  0.1612 -0.6308  0.8184
  260MOL0     O34973   1.286   7.569   3.541  0.0966  0.0096  0.2269
  260MOL0     C34974   1.341   7.627   3.661 -0.4557 -0.1022 -0.5978
  260MOL0     C34975   1.352   7.520   3.772 -0.2831 -0.1996  0.4660
  260MOL0     C34976   1.431   7.583   3.876  0.0941 -0.3346 -0.3858
  260MOL0     C34977   1.419   7.506   4.008  0.1855  0.6347 -0.6997
  260MOL0     C34978   1.527   7.531   4.108 -0.5779  0.4608 -0.3305
  260MOL0     C34979   1.539   7.425   4.210  0.2621  0.0278 -0.3066
  260MOL0     C34980   1.421   7.410   4.300 -0.0001  0.1056  0.2863
  260MOL0     C34981   1.443   7.312   4.417 -0.0770 -0.0127  0.5297
  260MOL0     N34982   1.437   7.175   4.359 -0.1109  0.4695  0.4913
  260MOL0     C34983   1.346   7.080   4.339 -0.2046  0.6586 -0.0694
  260MOL0     C34984   1.414   6.974   4.297  0.9050 -0.0469  0.3920
  260MOL0     C34985   1.341   6.846   4.256  0.4467  0.6579 -0.4030
  260MOL0     C34986   1.347   6.819   4.106 -0.0936  0.0127 -1.3210
  260MOL0     C34987   1.282   6.687   4.060  0.1547  0.2300 -0.6308
  260MOL0     C34988   1.342   6.558   4.136  0.0621 -0.0026 -0.5977
  260MOL0     O34989   1.485   6.550   4.119  0.0085 -0.0141 -1.5026
  260MOL0     C34990   1.540   6.443   4.174 -0.2534  0.2028 -0.9173
  260MOL0     C34991   1.478   6.336   4.236  0.6141  0.7032  0.7590
  260MOL0     C34992   1.541   6.229   4.283  0.6751  0.7422  0.1801
  260MOL0     C34993   1.680   6.218   4.266 -0.6118 -0.6626 -0.3198
  260MOL0     C34994   1.764   6.100   4.313  0.0807  0.0482  0.3177
  260MOL0     O34995   1.889   6.102   4.264 -0.8790  0.3794 -1.0522
  260MOL0     C34996   1.989   6.023   4.320 -0.1804  0.3507 -0.3693
  260MOL0     C34997   2.085   5.950   4.243  0.7994  1.1134 -0.1741
  260MOL0     C34998   2.185   5.872   4.306  0.0074 -0.6595  0.9816
  260MOL0     C34999   2.195   5.863   4.443 -0.2171 -0.4026  0.2365
  260MOL0     O35000   2.291   5.779   4.485 -0.0466  0.4627  0.0544
  260MOL0     C35001   2.342   5.790   4.618 -0.7563  1.4683 -0.5115
  260MOL0     C35002   2.456   5.689   4.623 -0.4288 -1.0603  0.2975
  260MOL0     C35003   2.565   5.714   4.510 -0.4237 -0.4331  0.6326
  260MOL0     C35004   2.667   5.607   4.514  0.2709 -0.0750 -0.4387
  260MOL0     C35005   2.750   5.608   4.387  0.5409  0.0038 -0.2416
  260MOL0     C35006   2.845   5.487   4.389  0.4820 -0.4053  0.0500
  260MOL0     C35007   2.961   5.519   4.300 -0.1672 -0.0897  0.0931
  260MOL0     C35008   2.931   5.569   4.164  0.0404 -0.1118 -0.0835
  260MOL0    Cl35009   3.088   5.615   4.085  0.0600 -0.2882  0.5105
  260MOL0     C35010   2.104   5.934   4.522 -0.1131 -0.3167  0.6625
  260MOL0     C35011   2.008   6.012   4.462  0.0428 -0.4241  0.2141
  260MOL0     O35012   1.709   6.021   4.394  0.2316  0.2149  0.0373
  260MOL0     C35013   1.748   6.325   4.206 -0.1394  1.0501  1.1960
  260MOL0     C35014   1.679   6.434   4.158 -0.3062 -0.2013  0.0683
  260MOL0     N35015   1.550   7.005   4.291 -0.3946 -0.4641 -0.9143
  260MOL0     N35016   1.562   7.121   4.325  0.5670 -0.0397  0.3021
  260MOL0     C35017   1.265   7.800   3.435 -0.0208  0.3764  0.5748
  260MOL0     C35018   1.241   7.870   3.315  0.1890  0.9863 -0.4458
  260MOL0     C35019   1.235   8.032   2.892 -0.2626  0.5006  1.9770
  260MOL0     C35020   1.265   8.160   2.854  0.0254 -1.3347 -0.3720
  260MOL0     C35021   1.257   8.208   2.724 -0.3641 -0.3571  1.3780
  260MOL0     C35022   1.216   8.125   2.616  0.0792  0.0268 -0.0346
  260MOL0     O35023   1.212   8.165   2.481  0.3149  0.0772 -0.3503
  260MOL0     C35024   1.281   8.286   2.438  0.8532  0.5939 -0.1079
  260MOL0     C35025   1.211   8.337   2.311  0.1147  0.7524  0.3623
  260MOL0     C35026   1.057   8.327   2.307  0.4774 -1.0786 -0.3043
  260MOL0     C35027   1.002   8.355   2.173  0.5920 -0.8437  0.9319
  260MOL0     C35028   1.010   8.501   2.136 -0.1098 -0.6675  0.1670
  260MOL0     C35029   1.015   8.620   2.105  0.2900  0.6737 -0.1745
  260MOL0     C35030   1.175   7.997   2.652 -0.1447 -0.2126  1.0775
  260MOL0     C35031   1.196   7.942   2.782  0.1399 -0.0056  0.6785
  260MOL0     C35032   1.180   7.787   2.791  1.1423  0.2040 -0.5352
  260MOL0     H35033   1.195   7.605   3.108  3.5449 -0.1232  0.3326
  260MOL0     H35034   1.227   7.482   3.306 -0.2800  0.4737  1.5663
  260MOL0     H35035   1.438   7.676   3.650 -1.2125  1.7529  0.5168
  260MOL0     H35036   1.278   7.713   3.683  3.3240  2.4586  1.3240
  260MOL0     H35037   1.402   7.432   3.730 -2.5809 -2.0311  1.3449
  260MOL0     H35038   1.256   7.483   3.811 -1.2603 -1.4012 -2.7133
  260MOL0     H35039   1.398   7.684   3.902  3.1709  0.3183  1.6257
  260MOL0     H35040   1.535   7.585   3.840 -0.3395 -2.9372 -2.0561
  260MOL0     H35041   1.321   7.530   4.051 -0.6072  1.5184 -2.8747
  260MOL0     H35042   1.429   7.404   3.967  0.7215  1.0427 -1.6181
  260MOL0     H35043   1.624   7.521   4.060  0.1106 -0.8625  1.2334
  260MOL0     H35044   1.523   7.630   4.155 -1.6349 -0.0174  0.6498
  260MOL0     H35045   1.561   7.328   4.165 -0.0865 -0.2071  0.0232
  260MOL0     H35046   1.626   7.454   4.269  1.9714 -1.5203 -1.9584
  260MOL0     H35047   1.330   7.393   4.243  0.2755 -0.0694 -0.1084
  260MOL0     H35048   1.399   7.505   4.349 -0.1270  0.4514 -0.4395
  260MOL0     H35049   1.541   7.337   4.459  0.3052  1.7654 -1.2248
  260MOL0     H35050   1.356   7.324   4.482 -0.9529 -4.5999  0.5497
  260MOL0     H35051   1.240   7.080   4.362 -0.3167 -0.9619 -0.4638
  260MOL0     H35052   1.405   6.771   4.303  3.0894  0.5457 -3.8067
  260MOL0     H35053   1.243   6.833   4.304  1.0955 -0.0853  0.7442
  260MOL0     H35054   1.288   6.899   4.062  0.0830  0.2258 -1.1726
  260MOL0     H35055   1.454   6.822   4.087  0.5090 -2.9018  0.8324
  260MOL0     H35056   1.279   6.678   3.951 -3.4123 -0.3745 -0.6232
  260MOL0     H35057   1.175   6.684   4.084  0.2255 -1.1644 -0.3910
  260MOL0     H35058   1.290   6.466   4.107 -1.1637 -0.5319  2.8094
  260MOL0     H35059   1.324   6.569   4.244 -0.1910  1.3705 -0.7606
  260MOL0     H35060   1.370   6.331   4.247  0.6375  2.5700  2.2853
  260MOL0     H35061   1.474   6.154   4.323  1.5943 -0.0438  0.2769
  260MOL0     H35062   2.063   5.956   4.136  0.3435 -2.1784 -0.3455
  260MOL0     H35063   2.252   5.810   4.247  0.5462 -0.0140  0.8963
  260MOL0     H35064   2.382   5.890   4.635 -0.3092  1.1737  0.2091
  260MOL0     H35065   2.267   5.770   4.695 -2.7272 -0.0734 -2.6899
  260MOL0     H35066   2.496   5.688   4.725 -1.6227  0.7878  0.8270
  260MOL0     H35067   2.426   5.586   4.601 -0.6525 -1.0807  0.7001
  260MOL0     H35068   2.518   5.711   4.412  0.2305 -2.4582  0.3340
  260MOL0     H35069   2.612   5.813   4.511  1.5370 -1.2895 -0.7383
  260MOL0     H35070   2.604   5.518   4.521  1.0277 -0.5075  3.0754
  260MOL0     H35071   2.743   5.611   4.593  1.6572  0.4269 -1.7629
  260MOL0     H35072   2.795   5.708   4.383 -2.8905  2.1364  4.0694
  260MOL0     H35073   2.680   5.617   4.304 -0.4443  1.2773  0.6698
  260MOL0     H35074   2.895   5.463   4.484  1.1533 -0.9032 -0.4206
  260MOL0     H35075   2.798   5.391   4.366 -0.3603  0.2169 -0.9197
  260MOL0     H35076   3.020   5.428   4.291  0.0942 -0.0613  1.3831
  260MOL0     H35077   3.021   5.590   4.358  1.0916  0.6498 -2.0013
  260MOL0     H35078   2.905   5.481   4.104  3.3279 -0.6208 -0.9531
  260MOL0     H35079   2.863   5.655   4.164  0.6126  0.3625  0.9043
  260MOL0     H35080   2.125   5.927   4.628 -1.1358 -0.0257  0.8875
  260MOL0     H35081   1.952   6.075   4.530  1.9149  3.3421 -1.4232
  260MOL0     H35082   1.856   6.312   4.206 -0.4482 -4.4375  3.3722
  260MOL0     H35083   1.731   6.511   4.102  1.0650 -1.6978 -0.8060
  260MOL0     H35084   1.277   7.845   3.533 -1.9377 -0.4937  1.2624
  260MOL0     H35085   1.240   7.979   3.317 -0.6012  0.9600  0.8699
  260MOL0     H35086   1.291   8.236   2.927  1.5570 -0.1255 -2.0641
  260MOL0     H35087   1.276   8.312   2.699 -2.5975 -0.3805 -0.8459
  260MOL0     H35088   1.388   8.263   2.439  0.3355 -2.1842  0.7271
  260MOL0     H35089   1.249   8.361   2.512  1.4163 -0.3024  1.0824
  260MOL0     H35090   1.231   8.269   2.227 -0.1314  1.9556 -0.6866
  260MOL0     H35091   1.259   8.430   2.281  3.1495  0.2844  3.1281
  260MOL0     H35092   1.018   8.395   2.383  2.5701 -0.2696  0.1262
  260MOL0     H35093   1.026   8.225   2.330  1.5417 -0.9740  1.8405
  260MOL0     H35094   1.061   8.308   2.094  1.3440 -0.0936  1.0322
  260MOL0     H35095   0.897   8.322   2.171  0.3212 -0.0689  1.9175
  260MOL0     H35096   1.013   8.717   2.060  1.8420  0.2274 -1.2876
  260MOL0     H35097   1.139   7.932   2.572  0.8820  3.1206 -2.3938
  260MOL0     H35098   1.103   7.776   2.868 -0.5242  5.0727 -1.1531
  260MOL0     H35099   1.159   7.746   2.692  2.5811  0.0613 -0.8099
  260MOL0     H35100   1.276   7.742   2.819  2.3608  1.6210 -2.1319
  261MOL0     O35101   7.614   2.199   4.894 -0.3101  0.0759 -0.2921
  261MOL0     C35102   7.723   2.224   4.945 -0.6799  0.2296  0.3528
  261MOL0     O35103   7.816   2.125   4.969  0.2811  0.0745 -0.1691
  261MOL0     C35104   7.785   1.996   4.935 -0.0022  0.9575 -0.2334
  261MOL0     C35105   7.690   1.918   4.998  0.3836 -0.5168 -0.1882
  261MOL0     C35106   7.665   1.786   4.960 -0.4682  0.0232  0.8997
  261MOL0     C35107   7.728   1.735   4.840  0.4635 -0.4407 -0.1161
  261MOL0     O35108   7.692   1.618   4.779  0.4016  0.2586 -0.9944
  261MOL0     C35109   7.564   1.563   4.807  0.6174  0.8453 -0.9886
  261MOL0     C35110   7.540   1.438   4.712  0.1639 -0.4980 -0.5643
  261MOL0     C35111   7.409   1.355   4.725  0.0496  0.0071  0.3433
  261MOL0     C35112   7.399   1.252   4.829  0.0173 -0.9004  0.4903
  261MOL0     C35113   7.476   1.128   4.796 -0.4696 -0.9185 -0.2917
  261MOL0     C35114   7.430   1.012   4.871  0.7504 -0.0569 -0.4373
  261MOL0     C35115   7.310   0.940   4.803  0.2521 -0.2855 -0.4582
  261MOL0     C35116   7.345   0.866   4.677 -0.1434 -0.0182 -1.4524
  261MOL0     N35117   7.460   0.783   4.691 -0.1201 -0.8590 -0.0873
  261MOL0     C35118   7.489   0.690   4.788 -0.8422 -0.5034  0.1494
  261MOL0     C35119   7.570   0.601   4.737 -0.6117  0.1891  0.1082
  261MOL0     C35120   7.632   0.471   4.806  0.3380  0.5233 -0.1019
  261MOL0     C35121   7.765   0.420   4.745  0.9699 -0.7340  0.6732
  261MOL0     C35122   7.841   0.313   4.818  0.6201 -0.1176  0.3331
  261MOL0     C35123   7.864   0.332   4.975 -0.3814 -0.0609 -0.1131
  261MOL0     O35124   7.750   0.300   5.054 -0.4620 -0.9371 -0.5047
  261MOL0     C35125   7.703   0.171   5.056 -0.2059 -0.1415  0.2033
  261MOL0     C35126   7.583   0.143   5.117 -0.2503  0.0972  0.4061
  261MOL0     C35127   7.545   0.011   5.126 -0.6165  0.7048 -1.2461
  261MOL0     C35128   7.622  -0.101   5.080 -0.4618 -0.5484 -0.5625
  261MOL0     C35129   7.586  -0.244   5.081 -0.6831 -0.0014 -0.1078
  261MOL0     O35130   7.627  -0.316   4.965  0.3302  0.3262  0.1876
  261MOL0     C35131   7.568  -0.441   4.943 -0.5383  0.8073  0.3522
  261MOL0     C35132   7.452  -0.496   4.979  0.7063  0.0877  0.0361
  261MOL0     C35133   7.414  -0.619   4.929 -0.0953 -0.5016 -0.0955
  261MOL0     C35134   7.486  -0.696   4.841 -0.4075 -0.0293 -0.0161
  261MOL0     O35135   7.426  -0.811   4.805 -0.5279 -0.5776 -0.0979
  261MOL0     C35136   7.518  -0.925   4.774 -0.1286 -0.0044 -0.2882
  261MOL0     C35137   7.429  -1.027   4.698  0.6610 -1.0107  0.0519
  261MOL0     C35138   7.507  -1.145   4.648  0.8542  0.3464  0.8794
  261MOL0     C35139   7.410  -1.242   4.572 -0.2851 -0.4246  0.7709
  261MOL0     C35140   7.485  -1.338   4.474 -0.1212  0.1107  0.1669
  261MOL0     C35141   7.599  -1.406   4.538  1.0233 -0.7562 -0.7096
  261MOL0     C35142   7.649  -1.512   4.451  0.4228  0.1160  0.6386
  261MOL0     C35143   7.726  -1.613   4.524  0.2472  0.8503 -0.2255
  261MOL0    Cl35144   7.876  -1.573   4.605 -0.2622  0.0849  0.2240
  261MOL0     C35145   7.602  -0.643   4.800  0.4276 -1.5064  0.6015
  261MOL0     C35146   7.639  -0.513   4.843  0.4257  0.6370 -0.5873
  261MOL0     O35147   7.512  -0.275   5.168  0.1651  0.1821  0.0196
  261MOL0     C35148   7.750  -0.076   5.028 -0.2592  0.5547  0.3113
  261MOL0     C35149   7.786   0.062   5.021 -0.3523 -0.1000  0.0920
  261MOL0     N35150   7.592   0.639   4.607  0.2410 -0.3160 -0.0604
  261MOL0     N35151   7.533   0.754   4.575 -0.0434 -0.4094  0.4311
  261MOL0     C35152   7.823   1.813   4.783 -0.1983  0.4357  0.1141
  261MOL0     C35153   7.857   1.942   4.825  0.3688 -0.6339  0.3624
  261MOL0     C35154   7.738   2.342   5.029 -0.4559  1.3575  0.4215
  261MOL0     C35155   7.824   2.331   5.136  0.3679 -0.3734 -0.4160
  261MOL0     C35156   7.821   2.431   5.229 -0.4077 -0.3177  0.0645
  261MOL0     C35157   7.755   2.554   5.213  0.2555 -0.3741  0.2594
  261MOL0     O35158   7.741   2.657   5.304 -0.2539  0.5091  0.0114
  261MOL0     C35159   7.718   2.618   5.438 -0.4968  0.4308 -0.6366
  261MOL0     C35160   7.789   2.723   5.530 -0.1469 -0.4188 -0.2400
  261MOL0     C35161   7.713   2.866   5.533  0.0788  0.3518 -0.4759
  261MOL0     C35162   7.563   2.866   5.525 -0.1604 -0.1383 -0.1542
  261MOL0     C35163   7.520   2.996   5.578 -0.8614 -0.7270  0.9917
  261MOL0     C35164   7.489   3.105   5.622  1.4122  0.6701  0.8375
  261MOL0     C35165   7.696   2.568   5.084 -0.2791 -0.1545 -0.0702
  261MOL0     C35166   7.681   2.466   4.995  0.1168  0.7202 -0.4461
  261MOL0     C35167   7.619   2.505   4.859  0.4418 -0.1538 -0.6694
  261MOL0     H35168   7.643   1.958   5.087  2.2834  0.4047  0.4536
  261MOL0     H35169   7.582   1.741   5.013  0.1191 -0.7143  1.2167
  261MOL0     H35170   7.569   1.524   4.909 -0.5560  0.2920 -1.1118
  261MOL0     H35171   7.482   1.634   4.794  2.2861  3.1218  0.2397
  261MOL0     H35172   7.624   1.371   4.730  1.1382  0.6582 -0.7170
  261MOL0     H35173   7.559   1.470   4.609  3.2142 -5.1554 -1.7408
  261MOL0     H35174   7.388   1.297   4.635 -0.8991  0.1399  0.4697
  261MOL0     H35175   7.324   1.423   4.731 -0.2020  0.0271 -2.4291
  261MOL0     H35176   7.417   1.285   4.932 -0.8966  1.5831 -0.0733
  261MOL0     H35177   7.291   1.233   4.830  0.2732 -2.5409  0.1815
  261MOL0     H35178   7.471   1.118   4.688  3.6269  1.2087 -0.8657
  261MOL0     H35179   7.578   1.138   4.834 -0.8849 -3.7652  1.8710
  261MOL0     H35180   7.507   0.935   4.884  0.5425 -0.0140  1.3098
  261MOL0     H35181   7.408   1.044   4.973  2.1314  1.2067 -0.4950
  261MOL0     H35182   7.235   1.018   4.787 -1.9290 -2.2694 -0.6101
  261MOL0     H35183   7.261   0.864   4.866  0.2470 -1.2903 -1.6201
  261MOL0     H35184   7.270   0.795   4.642  3.1053 -5.4847  1.2355
  261MOL0     H35185   7.370   0.941   4.602  1.7783  2.9484  1.7993
  261MOL0     H35186   7.456   0.693   4.892  1.9806 -0.5639  1.1414
  261MOL0     H35187   7.637   0.510   4.908 -3.3381  0.0589  0.3954
  261MOL0     H35188   7.564   0.386   4.813 -0.7478  1.2890 -0.8025
  261MOL0     H35189   7.762   0.393   4.640  0.6298 -1.3367  0.8372
  261MOL0     H35190   7.832   0.507   4.754 -0.1288  0.4747 -1.9067
  261MOL0     H35191   7.934   0.314   4.760 -1.9508 -2.8777 -4.3223
  261MOL0     H35192   7.800   0.217   4.787  0.8769 -0.3552  0.7220
  261MOL0     H35193   7.893   0.431   5.010  1.6408 -0.8647  0.6865
  261MOL0     H35194   7.950   0.271   5.006  0.6202  0.6324 -1.3845
  261MOL0     H35195   7.521   0.224   5.156  0.1733  0.1008  1.0733
  261MOL0     H35196   7.455  -0.026   5.173 -0.2406 -0.7839 -1.6481
  261MOL0     H35197   7.393  -0.427   5.039 -0.8412 -1.0873 -0.0714
  261MOL0     H35198   7.319  -0.654   4.969  0.9565 -1.6144  1.5476
  261MOL0     H35199   7.597  -0.897   4.704 -1.7163  2.1448 -1.3587
  261MOL0     H35200   7.555  -0.957   4.871 -2.3059  3.2840  1.8555
  261MOL0     H35201   7.346  -1.064   4.760  0.3146 -2.7607 -1.3982
  261MOL0     H35202   7.382  -0.973   4.616 -1.0417 -1.9917  0.3328
  261MOL0     H35203   7.575  -1.108   4.570 -0.4648 -0.2037 -0.5980
  261MOL0     H35204   7.563  -1.202   4.722 -1.7768 -0.9654  2.0082
  261MOL0     H35205   7.353  -1.178   4.504 -0.0959 -0.8029  0.2508
  261MOL0     H35206   7.335  -1.301   4.625 -0.0946 -1.6936 -0.3073
  261MOL0     H35207   7.529  -1.273   4.398 -2.0333 -0.1555 -1.2515
  261MOL0     H35208   7.413  -1.392   4.412 -1.9892  2.7941 -0.2075
  261MOL0     H35209   7.671  -1.325   4.553 -0.4203  1.1399 -3.1641
  261MOL0     H35210   7.561  -1.452   4.629  0.7483 -2.3548 -1.5877
  261MOL0     H35211   7.708  -1.464   4.373  1.6763 -2.3826 -0.0544
  261MOL0     H35212   7.564  -1.556   4.398  1.8186  2.1143 -3.7198
  261MOL0     H35213   7.658  -1.662   4.594 -0.8269  3.3005  0.5247
  261MOL0     H35214   7.756  -1.690   4.451 -1.7605 -2.9371  2.5790
  261MOL0     H35215   7.676  -0.692   4.739  0.5311  0.5431 -1.0337
  261MOL0     H35216   7.734  -0.478   4.806  2.0704 -1.3565  1.4047
  261MOL0     H35217   7.822  -0.148   4.989 -2.2190 -1.4051  0.1085
  261MOL0     H35218   7.893   0.082   5.018 -0.0879 -0.2749  3.8377
  261MOL0     H35219   7.865   1.765   4.696 -3.9914 -1.3551 -0.9285
  261MOL0     H35220   7.933   1.999   4.773 -0.7543 -2.2321 -3.3308
  261MOL0     H35221   7.885   2.243   5.154 -0.2464 -1.0961 -1.6791
  261MOL0     H35222   7.892   2.428   5.310  2.6078  3.3217 -2.0701
  261MOL0     H35223   7.767   2.524   5.465 -4.3384 -0.7834  3.4357
  261MOL0     H35224   7.613   2.609   5.468 -0.0609 -1.1086  0.5764
  261MOL0     H35225   7.889   2.733   5.486 -0.0031  0.9012  0.3355
  261MOL0     H35226   7.789   2.690   5.634 -4.4830 -1.5786 -0.4104
  261MOL0     H35227   7.743   2.923   5.445  5.1729  0.4169  1.0137
  261MOL0     H35228   7.738   2.930   5.618 -2.7568 -0.8114  1.4231
  261MOL0     H35229   7.542   2.857   5.418  1.3675  2.8034 -0.8085
  261MOL0     H35230   7.498   2.802   5.586 -1.4629  1.0283 -0.2517
  261MOL0     H35231   7.456   3.195   5.669  2.1289  1.2367  0.2874
  261MOL0     H35232   7.640   2.659   5.066  2.9912  2.1079  0.2588
  261MOL0     H35233   7.528   2.449   4.833  0.2889  0.0566 -0.5885
  261MOL0     H35234   7.571   2.603   4.867  0.3656 -0.2678  0.3291
  261MOL0     H35235   7.695   2.507   4.780  1.4270 -1.3335  0.2080
  262MOL0     O35236   9.599   6.130   1.607  0.2395  0.1078  0.0986
  262MOL0     C35237   9.647   6.234   1.564 -0.1753  0.3456 -0.0756
  262MOL0     O35238   9.760   6.237   1.485  0.3971 -0.7860 -0.7288
  262MOL0     C35239   9.827   6.126   1.435  0.0052 -1.5666  0.6552
  262MOL0     C35240   9.803   6.076   1.307  0.4150 -0.7252 -0.7074
  262MOL0     C35241   9.880   5.969   1.270 -0.6568 -1.1004  1.1830
  262MOL0     C35242   9.978   5.914   1.346  0.0084 -0.3343 -0.4711
  262MOL0     O35243  10.053   5.823   1.274  0.7569 -0.0001  0.3499
  262MOL0     C35244  10.150   5.734   1.331 -0.2041 -0.1223 -0.4938
  262MOL0     C35245  10.297   5.763   1.292  0.6275 -0.5242 -0.4658
  262MOL0     C35246  10.329   5.912   1.259  0.7773 -0.7445 -0.2599
  262MOL0     C35247  10.435   5.907   1.149 -0.0642 -0.8255 -0.4059
  262MOL0     C35248  10.461   6.056   1.100  1.3298 -0.8592 -0.2590
  262MOL0     C35249  10.500   6.078   0.959 -0.6174  0.5693 -0.1725
  262MOL0     C35250  10.641   6.029   0.935  0.3739  0.2296  0.3533
  262MOL0     C35251  10.740   6.141   0.957 -0.1712 -0.2092  0.6886
  262MOL0     N35252  10.873   6.098   0.916 -0.9547  1.1565 -0.3697
  262MOL0     C35253  10.916   6.069   0.795 -0.1097 -0.3976 -0.4227
  262MOL0     C35254  11.021   5.983   0.813  0.6838  0.4466  0.9509
  262MOL0     C35255  11.094   5.908   0.702 -0.0073  0.5765  0.5031
  262MOL0     C35256  11.014   5.788   0.657 -0.2109  0.7627  1.1348
  262MOL0     C35257  11.096   5.684   0.573  0.7714  0.0669  0.7705
  262MOL0     C35258  11.023   5.595   0.465  0.2995 -1.7728 -0.2792
  262MOL0     O35259  11.115   5.499   0.429 -0.4917 -0.1854  0.7993
  262MOL0     C35260  11.081   5.396   0.341 -0.5362  0.6041  0.2846
  262MOL0     C35261  10.957   5.385   0.269  0.4751 -0.2727 -0.0924
  262MOL0     C35262  10.933   5.280   0.185  0.1408  0.4451  0.1543
  262MOL0     C35263  11.019   5.171   0.172 -0.5992  1.1096  0.8630
  262MOL0     C35264  10.993   5.048   0.093  0.5936  0.5225  0.3861
  262MOL0     O35265  10.860   5.019   0.070 -0.0630 -0.3204  0.6863
  262MOL0     C35266  10.834   4.909  -0.004 -0.1894  0.1922  0.2162
  262MOL0     C35267  10.820   4.785   0.052 -0.1164 -0.8208  1.1578
  262MOL0     C35268  10.772   4.677  -0.031  0.3063 -0.0319 -0.1874
  262MOL0     C35269  10.755   4.684  -0.172 -0.0430  0.3999 -0.2922
  262MOL0     O35270  10.730   4.583  -0.263 -0.7677  0.6423  0.3303
  262MOL0     C35271  10.735   4.450  -0.214  0.1271 -0.6158 -1.0657
  262MOL0     C35272  10.707   4.339  -0.325 -0.7365 -1.1318  1.5022
  262MOL0     C35273  10.556   4.316  -0.325  0.5124  0.3528  0.1917
  262MOL0     C35274  10.511   4.257  -0.467 -0.2586 -0.7907 -0.2802
  262MOL0     C35275  10.372   4.185  -0.441  0.4246  0.0133  0.2889
  262MOL0     C35276  10.257   4.286  -0.447  0.2965 -0.7530 -0.0440
  262MOL0     C35277  10.129   4.232  -0.374  0.2450 -0.1473 -0.0771
  262MOL0     C35278  10.075   4.095  -0.414 -0.0679  0.7032 -0.1820
  262MOL0    Cl35279   9.921   4.045  -0.331 -0.0099  0.0668  0.0974
  262MOL0     C35280  10.767   4.815  -0.221  0.0659 -0.4544 -1.0193
  262MOL0     C35281  10.814   4.920  -0.140  0.3948 -0.4753 -0.7214
  262MOL0     O35282  11.087   4.972   0.047  0.7957 -0.1061 -0.5577
  262MOL0     C35283  11.140   5.178   0.242  0.1132 -0.4614  0.4952
  262MOL0     C35284  11.167   5.289   0.320 -0.9233  0.5352 -0.2687
  262MOL0     N35285  11.039   5.972   0.951  0.2641  0.0143  0.0062
  262MOL0     N35286  10.944   6.037   1.011 -0.2100  0.5022 -0.3451
  262MOL0     C35287  10.002   5.975   1.473 -0.2784 -0.7406 -0.3952
  262MOL0     C35288   9.917   6.079   1.527  0.4056  1.2602  0.5046
  262MOL0     C35289   9.570   6.359   1.594  0.9062  0.5935  1.1622
  262MOL0     C35290   9.606   6.478   1.522 -0.5603  0.6368 -0.0685
  262MOL0     C35291   9.565   6.607   1.555 -0.8670 -0.5654  0.9028
  262MOL0     C35292   9.461   6.630   1.647 -0.1178  0.9727  1.0572
  262MOL0     O35293   9.430   6.761   1.683 -0.4709 -0.3528 -0.2152
  262MOL0     C35294   9.330   6.774   1.784  0.3595  0.3323  1.1792
  262MOL0     C35295   9.392   6.750   1.923  0.3811  0.1465 -1.2251
  262MOL0     C35296   9.281   6.770   2.030  0.0453 -1.1201 -0.0509
  262MOL0     C35297   9.316   6.801   2.177 -0.1839  0.3047  0.7608
  262MOL0     C35298   9.317   6.943   2.219 -0.2797  0.5163  0.0836
  262MOL0     C35299   9.318   7.059   2.230 -0.1027  0.5726 -0.3961
  262MOL0     C35300   9.408   6.507   1.708 -0.2137  0.2412  0.5249
  262MOL0     C35301   9.466   6.379   1.689  0.6265 -0.8345  0.9907
  262MOL0     C35302   9.421   6.265   1.787  0.6186 -0.0356  0.2478
  262MOL0     H35303   9.723   6.123   1.250 -0.1877  0.3661  0.9731
  262MOL0     H35304   9.879   5.925   1.171 -0.5471  2.4819 -0.5677
  262MOL0     H35305  10.142   5.729   1.440 -0.1435  1.7519 -0.3615
  262MOL0     H35306  10.113   5.635   1.303  0.4540 -0.5738  0.2010
  262MOL0     H35307  10.323   5.705   1.203  3.1915  1.3504 -1.0602
  262MOL0     H35308  10.377   5.735   1.361  2.6008 -0.1687 -2.4981
  262MOL0     H35309  10.359   5.968   1.348 -1.6419 -3.1904  2.3106
  262MOL0     H35310  10.239   5.952   1.212 -1.3428 -2.2924  2.2051
  262MOL0     H35311  10.530   5.868   1.186  0.6676  1.9494  0.9063
  262MOL0     H35312  10.398   5.850   1.063 -1.8578 -0.3223 -0.0172
  262MOL0     H35313  10.367   6.112   1.106  1.1601 -1.1870  0.2089
  262MOL0     H35314  10.527   6.105   1.172  1.4035  1.3502 -1.7289
  262MOL0     H35315  10.431   6.016   0.902  0.5825 -0.9699 -0.0296
  262MOL0     H35316  10.481   6.180   0.923 -1.8352 -0.2022 -1.8754
  262MOL0     H35317  10.648   5.988   0.834 -0.9529 -1.7632  1.0036
  262MOL0     H35318  10.669   5.949   1.004  5.4234  2.2250  1.0146
  262MOL0     H35319  10.715   6.224   0.891 -0.6236 -1.8873 -1.3423
  262MOL0     H35320  10.747   6.179   1.059  3.1062  0.8833  0.1562
  262MOL0     H35321  10.870   6.081   0.697  1.1944  3.9968 -0.7038
  262MOL0     H35322  11.104   5.982   0.623  1.8093  0.8906  0.9968
  262MOL0     H35323  11.196   5.882   0.732 -1.1862 -0.3409  4.2659
  262MOL0     H35324  10.959   5.735   0.736  1.1168 -3.1824 -0.3696
  262MOL0     H35325  10.933   5.825   0.592 -1.5403  1.9062  3.3212
  262MOL0     H35326  11.137   5.614   0.647 -1.8012 -1.7109  0.6373
  262MOL0     H35327  11.175   5.733   0.515  2.1660  0.0461  2.5530
  262MOL0     H35328  10.981   5.645   0.378  0.8692  0.0222  0.4267
  262MOL0     H35329  10.935   5.554   0.516  1.3918 -2.8342  0.8408
  262MOL0     H35330  10.884   5.462   0.291 -1.3650 -1.1414 -2.6119
  262MOL0     H35331  10.847   5.295   0.120  1.4141 -2.0315 -2.3047
  262MOL0     H35332  10.824   4.774   0.160 -0.9591  0.5792  1.3464
  262MOL0     H35333  10.752   4.579   0.012 -3.2216 -0.4874 -2.4912
  262MOL0     H35334  10.834   4.430  -0.171 -0.8032  2.1071  2.8777
  262MOL0     H35335  10.656   4.437  -0.140  0.8838  0.2789 -0.0638
  262MOL0     H35336  10.746   4.378  -0.420 -0.8020  1.3798  2.4229
  262MOL0     H35337  10.751   4.245  -0.292  0.0182 -1.1499  0.4865
  262MOL0     H35338  10.536   4.245  -0.243 -0.4966 -1.6163 -1.6632
  262MOL0     H35339  10.513   4.415  -0.309 -1.7839 -0.6459  0.5646
  262MOL0     H35340  10.594   4.196  -0.504  1.0321 -0.3690  1.7366
  262MOL0     H35341  10.506   4.324  -0.553  0.2448 -1.5665 -0.9307
  262MOL0     H35342  10.371   4.133  -0.345 -1.6912  1.1349  0.9053
  262MOL0     H35343  10.358   4.103  -0.513  0.4693  0.0364  0.2537
  262MOL0     H35344  10.290   4.369  -0.384  2.1198 -3.1807  2.4303
  262MOL0     H35345  10.240   4.318  -0.550  3.9905  0.5335 -0.3836
  262MOL0     H35346  10.044   4.300  -0.378 -0.1468 -0.7146 -2.1113
  262MOL0     H35347  10.152   4.224  -0.267 -0.6986  1.9327  0.3234
  262MOL0     H35348  10.059   4.079  -0.521  1.7855  0.2928 -0.4231
  262MOL0     H35349  10.147   4.017  -0.392 -0.5648  0.0802 -0.7183
  262MOL0     H35350  10.761   4.853  -0.323 -0.5570  0.1732 -0.7553
  262MOL0     H35351  10.844   5.016  -0.181 -0.9789  0.3024  0.0247
  262MOL0     H35352  11.211   5.096   0.256  0.8593  0.1841  0.5841
  262MOL0     H35353  11.251   5.284   0.389 -2.2535  1.8551  1.5476
  262MOL0     H35354  10.078   5.940   1.541  1.2743  2.5458 -0.2129
  262MOL0     H35355   9.928   6.116   1.629 -1.4474 -1.0399  1.6150
  262MOL0     H35356   9.688   6.472   1.451 -1.8750  2.6404 -1.8833
  262MOL0     H35357   9.599   6.697   1.507  0.9155 -0.4288  2.3237
  262MOL0     H35358   9.246   6.715   1.745  0.0017 -0.0214  2.4505
  262MOL0     H35359   9.285   6.873   1.772  3.6554  1.9463  1.1196
  262MOL0     H35360   9.477   6.816   1.942  0.8399 -0.8235  0.2785
  262MOL0     H35361   9.432   6.648   1.928 -2.6886 -1.1049 -0.4672
  262MOL0     H35362   9.222   6.678   2.034 -2.4815  0.4442  0.8909
  262MOL0     H35363   9.209   6.844   1.992  1.2805  0.4560  0.5790
  262MOL0     H35364   9.241   6.753   2.241  1.1135  0.1698  2.2703
  262MOL0     H35365   9.408   6.755   2.217  2.0965  1.1045 -3.0992
  262MOL0     H35366   9.288   7.158   2.256 -0.0628  0.1660  1.3295
  262MOL0     H35367   9.320   6.499   1.771 -1.5370  4.2106 -0.4760
  262MOL0     H35368   9.505   6.210   1.829 -1.1157 -5.0175 -2.0045
  262MOL0     H35369   9.366   6.303   1.873  1.0372 -0.7407  0.8344
  262MOL0     H35370   9.350   6.197   1.738  0.0316 -0.9631  2.3003
  263MOL0     O35371   4.104   8.457  10.548  0.9126 -0.4048  0.4540
  263MOL0     C35372   4.215   8.505  10.561  0.4666 -0.1976  0.7804
  263MOL0     O35373   4.244   8.635  10.537 -0.5857 -0.6034  0.4569
  263MOL0     C35374   4.177   8.699  10.440 -0.6775  0.1384 -0.4728
  263MOL0     C35375   4.164   8.656  10.314  0.2607  0.3094 -0.8986
  263MOL0     C35376   4.075   8.715  10.215 -0.2761  0.0957 -0.9392
  263MOL0     C35377   4.000   8.834  10.252  0.1044 -0.2233 -0.2889
  263MOL0     O35378   3.922   8.896  10.159  0.0492  0.3213  1.1596
  263MOL0     C35379   3.889   9.033  10.177 -0.1081  0.7008  0.6327
  263MOL0     C35380   3.796   9.087  10.063 -0.6433  0.1477 -0.2299
  263MOL0     C35381   3.856   9.067   9.933  0.7666  0.6975  0.3939
  263MOL0     C35382   3.762   9.116   9.812 -0.0499  1.2364 -0.0505
  263MOL0     C35383   3.848   9.144   9.692 -0.5011  0.5385  0.3030
  263MOL0     C35384   3.777   9.221   9.597 -0.1909  0.0943 -0.0589
  263MOL0     C35385   3.865   9.270   9.472  0.3539  0.1197 -0.4091
  263MOL0     C35386   3.874   9.169   9.373  0.4916  0.2905  0.7110
  263MOL0     N35387   3.742   9.117   9.322  0.5168 -0.8594  0.1912
  263MOL0     C35388   3.700   8.988   9.339  0.1008 -0.4330  0.1193
  263MOL0     C35389   3.568   8.997   9.297  0.2268 -0.3650  0.1843
  263MOL0     C35390   3.475   8.876   9.279  0.6564  0.0903  0.4477
  263MOL0     C35391   3.370   8.842   9.391 -0.7495 -0.6733  0.0958
  263MOL0     C35392   3.446   8.842   9.532  0.4589  0.8595 -0.0567
  263MOL0     C35393   3.386   8.740   9.622  0.9315 -0.4722 -0.4959
  263MOL0     O35394   3.449   8.760   9.750  0.0409  0.0896  0.0944
  263MOL0     C35395   3.398   8.707   9.860 -0.0284 -0.1249  0.6462
  263MOL0     C35396   3.294   8.613   9.873  0.2879  0.4963 -0.1160
  263MOL0     C35397   3.263   8.557  10.001  0.0748  0.0998 -0.8510
  263MOL0     C35398   3.342   8.583  10.112 -0.0238  0.1759 -0.0457
  263MOL0     C35399   3.327   8.518  10.241  0.6582  0.0177  0.3111
  263MOL0     O35400   3.226   8.422  10.252  0.4344 -0.0647  0.3058
  263MOL0     C35401   3.231   8.336  10.362 -1.0877 -0.4386  0.5248
  263MOL0     C35402   3.341   8.245  10.374 -0.1239 -0.6252  0.2299
  263MOL0     C35403   3.354   8.150  10.476  0.2064  0.5356  0.4269
  263MOL0     C35404   3.256   8.148  10.582  0.3426  0.0729 -0.7388
  263MOL0     O35405   3.250   8.051  10.672 -0.3187  0.4725  0.2803
  263MOL0     C35406   3.163   8.049  10.786  1.2532 -0.5493  0.3545
  263MOL0     C35407   3.196   7.926  10.863  0.0378 -0.3928  0.7305
  263MOL0     C35408   3.173   7.799  10.782 -0.1538  0.2241 -0.9274
  263MOL0     C35409   3.188   7.674  10.871 -0.4082  0.6656  0.9336
  263MOL0     C35410   3.099   7.551  10.831  0.7373 -0.5135 -0.6598
  263MOL0     C35411   3.097   7.533  10.679  0.3985 -0.8119 -0.3351
  263MOL0     C35412   3.018   7.404  10.637  0.1869  0.4393 -0.2950
  263MOL0     C35413   2.870   7.420  10.640  0.1175 -0.0573  0.6412
  263MOL0    Cl35414   2.801   7.501  10.496 -0.5126  0.0624  0.9089
  263MOL0     C35415   3.143   8.241  10.572  1.4685  0.4005  0.1311
  263MOL0     C35416   3.134   8.334  10.468 -0.4981 -0.2329  0.3704
  263MOL0     O35417   3.400   8.549  10.329 -0.0451 -0.4974  0.4390
  263MOL0     C35418   3.436   8.691  10.094  0.2137 -0.2977  0.0196
  263MOL0     C35419   3.466   8.743   9.971  0.4041 -0.7336  0.6858
  263MOL0     N35420   3.551   9.120   9.238 -0.7820  0.4267 -0.1801
  263MOL0     N35421   3.660   9.192   9.241 -0.2530  0.4268 -0.2386
  263MOL0     C35422   4.016   8.878  10.391 -0.4770  0.9157 -0.0815
  263MOL0     C35423   4.101   8.809  10.476  0.1183 -0.1151 -0.3147
  263MOL0     C35424   4.318   8.423  10.643 -0.1103 -0.9809 -0.4588
  263MOL0     C35425   4.420   8.490  10.714  1.0234 -0.5819  0.4686
  263MOL0     C35426   4.503   8.421  10.801 -0.3104 -0.3088 -0.2824
  263MOL0     C35427   4.490   8.289  10.829  0.4961  0.4748 -0.1298
  263MOL0     O35428   4.577   8.230  10.920  0.2755 -0.0706  0.3485
  263MOL0     C35429   4.512   8.125  10.988  0.9083  0.4968  0.0651
  263MOL0     C35430   4.586   8.081  11.118 -0.4891  0.1420  0.7256
  263MOL0     C35431   4.528   7.948  11.178  1.3907  0.2012 -0.4402
  263MOL0     C35432   4.602   7.903  11.298  0.2325 -0.2304 -0.7959
  263MOL0     C35433   4.716   7.806  11.272  1.2149  0.8506  0.5254
  263MOL0     C35434   4.799   7.724  11.251  0.4917 -0.3106 -0.7877
  263MOL0     C35435   4.395   8.214  10.753 -0.4501  0.6239  0.1340
  263MOL0     C35436   4.312   8.281  10.658  0.3495  0.7805  1.2312
  263MOL0     C35437   4.210   8.186  10.593  0.8276 -0.6099 -0.4088
  263MOL0     H35438   4.224   8.573  10.280 -1.3527 -0.5347 -1.8011
  263MOL0     H35439   4.060   8.666  10.119  3.5145 -1.8990 -0.7159
  263MOL0     H35440   3.828   9.029  10.268 -0.2953 -3.1909  0.5214
  263MOL0     H35441   3.985   9.085  10.184  0.3095  0.2497 -1.2921
  263MOL0     H35442   3.784   9.194  10.083 -2.3623 -0.3465  1.7239
  263MOL0     H35443   3.697   9.040  10.065  0.1204 -1.6987  3.8156
  263MOL0     H35444   3.868   8.958   9.933 -1.9997  0.3052  1.8241
  263MOL0     H35445   3.961   9.097   9.923  1.0756  0.1675  1.8907
  263MOL0     H35446   3.694   9.036   9.781  1.2941  1.3130 -3.6822
  263MOL0     H35447   3.703   9.202   9.844  1.7133  3.8948 -3.2540
  263MOL0     H35448   3.927   9.214   9.723  1.3485 -0.9743 -0.7474
  263MOL0     H35449   3.891   9.053   9.648 -2.8444 -1.2157  1.4392
  263MOL0     H35450   3.685   9.170   9.565  0.3609  0.2719 -2.0567
  263MOL0     H35451   3.736   9.313   9.640 -0.6504 -0.7925  1.4835
  263MOL0     H35452   3.962   9.310   9.502 -0.2808  2.0508 -0.7381
  263MOL0     H35453   3.825   9.366   9.436  1.1363  1.1745  1.3831
  263MOL0     H35454   3.939   9.206   9.293  0.1670  0.4580  0.5237
  263MOL0     H35455   3.932   9.085   9.411  0.0587 -1.4259 -2.1567
  263MOL0     H35456   3.745   8.895   9.372  0.0677 -0.5380 -0.1335
  263MOL0     H35457   3.430   8.893   9.181  1.9937 -1.1144 -0.4023
  263MOL0     H35458   3.543   8.791   9.271 -0.0459 -0.2888 -2.8842
  263MOL0     H35459   3.285   8.910   9.391  1.0848  1.8308  2.2206
  263MOL0     H35460   3.330   8.745   9.360  2.5669 -2.0664 -0.2801
  263MOL0     H35461   3.429   8.940   9.577 -2.4308 -0.4960  2.1140
  263MOL0     H35462   3.550   8.811   9.519  0.8952  1.9197  0.7698
  263MOL0     H35463   3.388   8.639   9.580 -0.2473 -0.2949 -1.0115
  263MOL0     H35464   3.278   8.755   9.632  1.0106 -1.3243  2.6448
  263MOL0     H35465   3.262   8.568   9.780 -1.7528 -0.0940  0.8040
  263MOL0     H35466   3.186   8.480  10.009  0.3655 -0.2155 -1.0445
  263MOL0     H35467   3.417   8.239  10.297  1.7873 -1.9162  2.1085
  263MOL0     H35468   3.432   8.075  10.475  0.7962  1.1403  0.4404
  263MOL0     H35469   3.171   8.136  10.853 -2.4881 -1.0493  1.6989
  263MOL0     H35470   3.055   8.042  10.769  0.6355  2.1303  2.4693
  263MOL0     H35471   3.301   7.921  10.894  0.3315 -2.0542 -0.3913
  263MOL0     H35472   3.136   7.907  10.953  1.1050  0.6159  1.6900
  263MOL0     H35473   3.075   7.810  10.735  0.2125  0.3640 -1.6707
  263MOL0     H35474   3.237   7.794  10.694  1.3403 -0.8449  0.1770
  263MOL0     H35475   3.171   7.704  10.975 -0.1964  3.2111  0.2857
  263MOL0     H35476   3.289   7.632  10.875 -0.7891 -0.5978 -1.1994
  263MOL0     H35477   2.995   7.564  10.863  1.2263  1.1629  0.4111
  263MOL0     H35478   3.123   7.461  10.888  1.3708  0.1910  0.2256
  263MOL0     H35479   3.040   7.618  10.638 -0.5421 -1.0423  0.4571
  263MOL0     H35480   3.199   7.533  10.639  0.7452  1.4068  0.4141
  263MOL0     H35481   3.048   7.329  10.711 -0.6234  2.4207  2.2019
  263MOL0     H35482   3.051   7.366  10.541 -1.4135 -3.0649  0.3684
  263MOL0     H35483   2.819   7.323  10.640  1.1732 -0.6468 -0.8892
  263MOL0     H35484   2.849   7.473  10.733 -1.0660 -1.6263  1.3199
  263MOL0     H35485   3.057   8.238  10.639  0.1855 -2.0634 -1.5130
  263MOL0     H35486   3.058   8.410  10.472  0.7704  1.0512  3.7620
  263MOL0     H35487   3.498   8.717  10.179  0.3506  0.0510 -0.1835
  263MOL0     H35488   3.549   8.812   9.962  0.5113 -0.8887  0.4523
  263MOL0     H35489   3.965   8.965  10.431  1.6213  1.3395  1.9144
  263MOL0     H35490   4.097   8.842  10.579 -1.5912  0.2260 -0.4572
  263MOL0     H35491   4.420   8.598  10.723  0.4430 -0.7242  2.7273
  263MOL0     H35492   4.592   8.471  10.838  0.1371 -2.6771  2.1598
  263MOL0     H35493   4.506   8.035  10.926  1.9313  0.1868  0.3968
  263MOL0     H35494   4.414   8.156  11.025  0.8311  1.8330 -1.1674
  263MOL0     H35495   4.575   8.169  11.183 -5.4382  0.6379 -0.3867
  263MOL0     H35496   4.693   8.069  11.097  0.1122  0.5805  3.2155
  263MOL0     H35497   4.526   7.871  11.100 -3.4981  0.9762 -1.4058
  263MOL0     H35498   4.421   7.958  11.194  1.0791 -1.6820 -1.0920
  263MOL0     H35499   4.638   7.996  11.343 -1.3889  0.0362  0.0329
  263MOL0     H35500   4.540   7.851  11.371  4.5664  0.9786  4.4236
  263MOL0     H35501   4.873   7.647  11.242  1.6749  0.5580  0.8770
  263MOL0     H35502   4.397   8.105  10.759  1.3177  0.5437 -1.1112
  263MOL0     H35503   4.124   8.195  10.659  2.5011  2.6867  1.5813
  263MOL0     H35504   4.172   8.212  10.494 -0.3120 -0.0110  0.1722
  263MOL0     H35505   4.257   8.087  10.584  4.1993  0.8596 -0.3612
  264MOL0     O35506   7.479   6.811   8.807  0.6187 -0.5079 -0.1648
  264MOL0     C35507   7.456   6.933   8.767 -0.4456  0.5741  0.9091
  264MOL0     O35508   7.331   6.999   8.759 -0.3529  0.4527 -0.3330
  264MOL0     C35509   7.218   6.924   8.781 -0.1029 -0.2618 -0.4257
  264MOL0     C35510   7.162   6.916   8.914 -0.5175  1.5140  0.3222
  264MOL0     C35511   7.040   6.848   8.928 -0.2547  1.0923 -0.1649
  264MOL0     C35512   6.972   6.794   8.821  0.6170 -0.7261 -0.1934
  264MOL0     O35513   6.844   6.746   8.843  0.0401  0.1382 -0.2043
  264MOL0     C35514   6.771   6.718   8.723  1.0704  0.0980  0.7639
  264MOL0     C35515   6.647   6.622   8.757 -0.8153  0.4465 -0.5819
  264MOL0     C35516   6.660   6.527   8.875  0.3460  0.1817  0.2281
  264MOL0     C35517   6.551   6.546   8.974 -0.0576  1.3549 -0.4084
  264MOL0     C35518   6.546   6.415   9.054 -0.5269 -0.8205  0.6966
  264MOL0     C35519   6.448   6.426   9.168  0.4325 -0.2001  0.4969
  264MOL0     C35520   6.495   6.490   9.297  0.3835  0.5639  0.2270
  264MOL0     C35521   6.371   6.494   9.394  0.1313 -1.0080  0.3657
  264MOL0     N35522   6.347   6.358   9.449 -0.3436  0.3427  0.1827
  264MOL0     C35523   6.412   6.300   9.550 -0.1180  0.0839 -0.9731
  264MOL0     C35524   6.345   6.180   9.565 -0.2226  0.0910 -0.9424
  264MOL0     C35525   6.392   6.066   9.652  0.2383 -0.4965 -0.1379
  264MOL0     C35526   6.510   5.977   9.608  0.2787  0.4222  1.0817
  264MOL0     C35527   6.493   5.899   9.464 -0.1612  0.1818  1.0493
  264MOL0     C35528   6.471   5.989   9.333 -0.8741  0.2949 -1.1599
  264MOL0     O35529   6.551   5.922   9.239  0.7144 -0.2536  0.1578
  264MOL0     C35530   6.643   5.997   9.176  0.8960 -0.2907 -0.4588
  264MOL0     C35531   6.624   6.065   9.057 -0.7688 -1.2695  0.2854
  264MOL0     C35532   6.724   6.144   8.997  0.7509 -0.7411 -0.3298
  264MOL0     C35533   6.849   6.142   9.053  0.2630 -0.3264  0.0332
  264MOL0     C35534   6.946   6.235   8.997 -0.7054  0.0885 -0.0474
  264MOL0     O35535   6.916   6.300   8.881 -0.2653  0.2269 -0.2976
  264MOL0     C35536   7.027   6.321   8.808 -0.2776 -0.1026  0.1485
  264MOL0     C35537   7.091   6.445   8.825  0.2170 -0.6735 -0.8761
  264MOL0     C35538   7.194   6.480   8.750  0.3586  0.4753 -0.0390
  264MOL0     C35539   7.251   6.383   8.659  0.0067 -0.5363 -0.1276
  264MOL0     O35540   7.356   6.435   8.574 -0.4627  0.0774 -0.7910
  264MOL0     C35541   7.314   6.542   8.491  0.9638  0.7904 -0.0935
  264MOL0     C35542   7.179   6.544   8.418  0.2659 -0.6993 -0.6242
  264MOL0     C35543   7.171   6.642   8.295  0.0763 -0.4225 -0.3690
  264MOL0     C35544   7.250   6.775   8.309  0.6231  0.5932  0.1935
  264MOL0     C35545   7.273   6.851   8.179 -0.0502  0.8817 -0.5871
  264MOL0     C35546   7.363   6.774   8.088 -0.3875 -0.8970 -0.2796
  264MOL0     C35547   7.516   6.755   8.122  0.5281  0.2585 -0.3934
  264MOL0     C35548   7.585   6.675   8.024  0.4833  0.7252  1.1518
  264MOL0    Cl35549   7.740   6.624   8.103 -0.4235 -0.0947  0.5114
  264MOL0     C35550   7.196   6.258   8.649  0.6439  0.5833  0.3234
  264MOL0     C35551   7.073   6.225   8.716 -0.2050 -0.1708 -0.2565
  264MOL0     O35552   7.058   6.237   9.051 -0.2187 -0.3524 -0.5077
  264MOL0     C35553   6.867   6.074   9.177  0.6456 -0.3747  0.0398
  264MOL0     C35554   6.772   5.996   9.235  1.6605 -0.8374  0.5016
  264MOL0     N35555   6.232   6.178   9.486  0.1736  0.5215  1.0360
  264MOL0     N35556   6.237   6.276   9.411 -0.9237 -0.0816 -0.1204
  264MOL0     C35557   7.051   6.782   8.703 -0.2915 -0.0284 -0.9540
  264MOL0     C35558   7.169   6.847   8.680  0.0244 -0.6271  0.2515
  264MOL0     C35559   7.573   7.024   8.740 -0.1073  0.2046  0.4569
  264MOL0     C35560   7.556   7.171   8.749  0.3543  1.5202  0.8262
  264MOL0     C35561   7.663   7.254   8.742 -0.3036 -0.4672 -0.8244
  264MOL0     C35562   7.794   7.201   8.728  0.6087 -0.6832 -0.6940
  264MOL0     O35563   7.908   7.279   8.740 -0.4365  0.2042 -0.0659
  264MOL0     C35564   7.909   7.420   8.754  0.3722 -1.0352  0.7381
  264MOL0     C35565   7.865   7.509   8.637  0.4303 -0.3948  0.5113
  264MOL0     C35566   7.940   7.644   8.647 -0.4968 -0.6585  0.4242
  264MOL0     C35567   7.913   7.742   8.534  0.8414 -0.3871 -0.1478
  264MOL0     C35568   7.787   7.805   8.554  0.3823 -0.1081 -0.6905
  264MOL0     C35569   7.673   7.842   8.552  0.1405 -0.0061 -0.3142
  264MOL0     C35570   7.814   7.066   8.712  0.4845  0.1587  0.8799
  264MOL0     C35571   7.705   6.975   8.709 -0.0310  0.1850  0.1858
  264MOL0     C35572   7.744   6.833   8.711  0.5694  0.0978 -0.8561
  264MOL0     H35573   7.215   6.958   8.999 -1.9538  1.2595  1.3686
  264MOL0     H35574   6.999   6.836   9.028  1.1574 -1.2182  0.2028
  264MOL0     H35575   6.722   6.809   8.689  0.7517 -1.1706 -2.5571
  264MOL0     H35576   6.823   6.669   8.640  1.5108  2.2373 -0.2893
  264MOL0     H35577   6.620   6.563   8.668 -5.4932 -0.9781  1.4479
  264MOL0     H35578   6.560   6.688   8.767 -1.0197  0.0814  0.1148
  264MOL0     H35579   6.759   6.536   8.922  1.8794  0.6885 -2.8307
  264MOL0     H35580   6.666   6.426   8.834 -1.2011 -0.2668  1.0364
  264MOL0     H35581   6.568   6.618   9.055 -0.4104  1.1821 -0.1731
  264MOL0     H35582   6.452   6.548   8.927 -1.8609 -4.2679  2.1330
  264MOL0     H35583   6.534   6.332   8.984  1.4238 -0.2858 -0.3490
  264MOL0     H35584   6.641   6.414   9.110 -0.7042  0.1592  1.0245
  264MOL0     H35585   6.358   6.474   9.127 -0.9766 -2.5812  0.6016
  264MOL0     H35586   6.410   6.328   9.199  4.7238 -1.9059  0.9764
  264MOL0     H35587   6.533   6.592   9.291  0.5338  0.6878  2.3287
  264MOL0     H35588   6.574   6.434   9.347 -2.2540 -2.4113  1.4233
  264MOL0     H35589   6.387   6.559   9.481 -1.2047 -1.1901  0.7758
  264MOL0     H35590   6.283   6.537   9.345  0.6802  0.4473  0.6003
  264MOL0     H35591   6.500   6.337   9.600 -0.4693 -3.6158  2.8605
  264MOL0     H35592   6.415   6.108   9.751  1.4014  1.3059 -1.1178
  264MOL0     H35593   6.305   6.003   9.670 -1.4414  2.2344  2.2776
  264MOL0     H35594   6.604   6.033   9.594  1.6590 -2.1877 -1.0863
  264MOL0     H35595   6.522   5.900   9.684 -0.1531  1.4025  2.1659
  264MOL0     H35596   6.412   5.826   9.466  0.0600 -0.0917  0.3196
  264MOL0     H35597   6.590   5.850   9.452  0.2211  1.0346  0.5444
  264MOL0     H35598   6.509   6.090   9.354 -0.1269  0.0080 -1.0883
  264MOL0     H35599   6.368   5.998   9.296 -1.3016  1.6790  0.2757
  264MOL0     H35600   6.528   6.077   9.008 -0.6136  0.4196  0.3168
  264MOL0     H35601   6.714   6.192   8.900 -0.3734  1.5143  0.8294
  264MOL0     H35602   7.036   6.516   8.886  1.0297  1.3711 -2.4176
  264MOL0     H35603   7.226   6.584   8.752 -0.7513  0.8862 -1.5059
  264MOL0     H35604   7.312   6.627   8.560 -0.2431 -0.3407  1.3168
  264MOL0     H35605   7.395   6.556   8.419  2.1549  0.5192  1.1437
  264MOL0     H35606   7.142   6.446   8.386 -0.3022 -0.6174 -0.2370
  264MOL0     H35607   7.108   6.571   8.496  4.3350 -0.0596  3.1864
  264MOL0     H35608   7.184   6.593   8.198 -1.9033 -1.7266 -0.0221
  264MOL0     H35609   7.065   6.666   8.303  0.3068  0.3953  0.4441
  264MOL0     H35610   7.350   6.761   8.352  0.7785 -0.4889 -0.4820
  264MOL0     H35611   7.202   6.849   8.373  2.9157  1.9843  0.4271
  264MOL0     H35612   7.312   6.950   8.203  1.0035  0.7631 -1.7191
  264MOL0     H35613   7.173   6.847   8.134 -0.0571 -1.8856 -0.5197
  264MOL0     H35614   7.330   6.671   8.074 -1.0472 -0.4529 -2.2156
  264MOL0     H35615   7.353   6.821   7.990  0.3309 -1.6793 -0.7457
  264MOL0     H35616   7.514   6.717   8.225 -0.8385 -0.8538 -0.7876
  264MOL0     H35617   7.558   6.855   8.130  0.4476  0.3094 -0.6117
  264MOL0     H35618   7.537   6.581   7.994  0.6163  1.5634 -2.1139
  264MOL0     H35619   7.586   6.731   7.930  0.3576  2.2518  2.0312
  264MOL0     H35620   7.243   6.196   8.573  2.6556  4.7032 -2.1836
  264MOL0     H35621   7.016   6.134   8.699 -0.3080 -0.1153 -0.2139
  264MOL0     H35622   6.966   6.088   9.217  1.1023 -1.0935 -0.7832
  264MOL0     H35623   6.793   5.939   9.325 -0.6997 -1.8177  0.5179
  264MOL0     H35624   7.011   6.721   8.622 -2.1180  0.8774 -0.7972
  264MOL0     H35625   7.223   6.838   8.586  0.0643 -1.0159  0.3100
  264MOL0     H35626   7.453   7.197   8.774  0.0190 -0.4825  1.7319
  264MOL0     H35627   7.657   7.357   8.776 -0.8530 -1.1726  1.3894
  264MOL0     H35628   8.005   7.450   8.797  0.7719 -1.5942  0.2436
  264MOL0     H35629   7.845   7.440   8.841  3.6346  2.6003  2.6301
  264MOL0     H35630   7.757   7.525   8.643  0.6273  0.4787  2.6631
  264MOL0     H35631   7.885   7.454   8.545 -1.1979 -1.7122  0.9098
  264MOL0     H35632   8.046   7.618   8.648 -0.2651  0.1249 -0.8570
  264MOL0     H35633   7.919   7.690   8.744  2.6857 -0.7047  1.2419
  264MOL0     H35634   7.988   7.821   8.522 -1.7331  1.8274 -3.6573
  264MOL0     H35635   7.913   7.697   8.434 -2.9652 -0.9578 -0.0502
  264MOL0     H35636   7.569   7.864   8.540 -0.3834 -3.0722 -2.9177
  264MOL0     H35637   7.919   7.039   8.703  0.4369 -1.3551  3.8294
  264MOL0     H35638   7.678   6.769   8.652 -0.5791 -0.2836  0.7589
  264MOL0     H35639   7.845   6.815   8.673  0.4248  1.8533 -2.1998
  264MOL0     H35640   7.742   6.783   8.809 -1.5150 -1.2870 -1.5472
  265MOL0     O35641   6.463   0.787   7.586  0.2843  0.2471  0.2703
  265MOL0     C35642   6.528   0.695   7.534 -0.4221 -0.1577  0.5030
  265MOL0     O35643   6.525   0.567   7.573 -0.6564 -0.3024  0.7727
  265MOL0     C35644   6.410   0.510   7.622 -0.4179 -0.2282 -0.0482
  265MOL0     C35645   6.279   0.550   7.569 -0.2174  0.2138 -0.1915
  265MOL0     C35646   6.163   0.496   7.618  0.5905 -0.2651  0.1587
  265MOL0     C35647   6.154   0.401   7.716 -1.2993  1.0776  0.7145
  265MOL0     O35648   6.021   0.367   7.755  0.0030  0.2318  0.1094
  265MOL0     C35649   6.013   0.286   7.879 -0.6901 -0.3830 -0.2693
  265MOL0     C35650   5.865   0.272   7.894 -0.1745 -0.4888 -0.4360
  265MOL0     C35651   5.844   0.187   8.021 -0.6460 -0.3626  0.0227
  265MOL0     C35652   5.699   0.182   8.052  0.5992  0.6391  0.4013
  265MOL0     C35653   5.652   0.059   8.131  0.2684  0.0043 -0.2100
  265MOL0     C35654   5.519   0.081   8.196  1.5170 -0.6322 -0.2807
  265MOL0     C35655   5.475  -0.040   8.267  0.0839  0.2714 -0.9512
  265MOL0     C35656   5.349  -0.007   8.358 -0.0701 -0.0872  0.2665
  265MOL0     N35657   5.291  -0.123   8.420  0.6505 -0.6195 -0.0857
  265MOL0     C35658   5.291  -0.155   8.548 -0.5180 -0.5115  1.1650
  265MOL0     C35659   5.229  -0.268   8.551  1.2110 -0.5506 -0.4666
  265MOL0     C35660   5.191  -0.344   8.673 -0.0590 -0.2226  0.9999
  265MOL0     C35661   5.299  -0.443   8.711 -0.2440  0.4331  0.7215
  265MOL0     C35662   5.432  -0.380   8.750  0.2995  1.1122 -0.8769
  265MOL0     C35663   5.517  -0.486   8.812  0.1160  0.6219  0.6930
  265MOL0     O35664   5.535  -0.582   8.706 -0.0017 -0.7418  0.0152
  265MOL0     C35665   5.512  -0.715   8.739 -0.2595  0.4008  0.8217
  265MOL0     C35666   5.458  -0.801   8.632  0.6437  0.4069  0.0588
  265MOL0     C35667   5.414  -0.932   8.661 -0.3354 -0.8606 -0.5958
  265MOL0     C35668   5.437  -0.984   8.788 -0.1725 -0.1660 -0.8704
  265MOL0     C35669   5.397  -1.125   8.818 -0.3458 -0.0678 -0.8188
  265MOL0     O35670   5.305  -1.183   8.733 -0.3452 -0.2623 -0.1212
  265MOL0     C35671   5.258  -1.306   8.775  0.1795  0.1373 -1.1217
  265MOL0     C35672   5.250  -1.412   8.683  0.5940 -0.0404  0.6965
  265MOL0     C35673   5.212  -1.543   8.727 -0.0931  0.4658 -0.0215
  265MOL0     C35674   5.177  -1.567   8.861 -0.3270 -0.3040 -0.2094
  265MOL0     O35675   5.136  -1.696   8.895 -0.5358 -0.8370 -0.4942
  265MOL0     C35676   5.095  -1.717   9.032 -0.2298 -0.2856  0.0756
  265MOL0     C35677   5.091  -1.871   9.052  0.0409 -0.8672  1.3547
  265MOL0     C35678   5.230  -1.938   9.096  0.5964 -0.2070  0.5968
  265MOL0     C35679   5.233  -2.074   9.036 -0.6267 -0.1808 -0.0389
  265MOL0     C35680   5.371  -2.142   9.057  0.0388 -0.5651  0.1308
  265MOL0     C35681   5.409  -2.151   9.204 -0.0802 -0.8441  0.6881
  265MOL0     C35682   5.514  -2.260   9.225 -0.1644 -0.2309 -0.1354
  265MOL0     C35683   5.653  -2.234   9.152  1.2769  0.4659 -0.2024
  265MOL0    Cl35684   5.726  -2.086   9.224  0.2568  0.5225 -0.1672
  265MOL0     C35685   5.168  -1.452   8.944 -0.1539  1.1337 -0.7217
  265MOL0     C35686   5.203  -1.326   8.899 -0.5805  0.1163  0.0881
  265MOL0     O35687   5.445  -1.179   8.918 -0.2234  0.4284  0.5440
  265MOL0     C35688   5.513  -0.910   8.888 -0.4665  0.9398  0.9233
  265MOL0     C35689   5.545  -0.779   8.853  0.5795  0.7794  0.3562
  265MOL0     N35690   5.175  -0.298   8.422 -0.0175 -0.7650 -0.4686
  265MOL0     N35691   5.218  -0.209   8.345 -0.0216 -0.4682 -0.6516
  265MOL0     C35692   6.279   0.356   7.764  0.2432 -0.0478 -0.9290
  265MOL0     C35693   6.402   0.403   7.717 -1.1621 -1.2980 -0.8578
  265MOL0     C35694   6.625   0.725   7.423  0.6349  0.2196  0.5849
  265MOL0     C35695   6.680   0.854   7.412 -0.3923 -0.7301  0.1873
  265MOL0     C35696   6.765   0.889   7.306 -0.0341  0.3303  0.9661
  265MOL0     C35697   6.797   0.805   7.199 -0.1102  0.9489 -0.5802
  265MOL0     O35698   6.870   0.843   7.087 -1.2109 -0.0231  0.6045
  265MOL0     C35699   6.868   0.981   7.043  0.0817  0.7466 -0.8064
  265MOL0     C35700   6.961   0.986   6.921  0.2459 -1.2407 -0.2646
  265MOL0     C35701   7.098   0.973   6.971  0.1505 -0.2280  0.5148
  265MOL0     C35702   7.205   0.925   6.868 -0.4264  0.1173 -0.9669
  265MOL0     C35703   7.193   1.022   6.760 -0.4394 -0.1538  0.7166
  265MOL0     C35704   7.177   1.103   6.668  0.9525 -0.6228  0.4829
  265MOL0     C35705   6.749   0.675   7.217 -0.7715 -0.0200 -0.6233
  265MOL0     C35706   6.671   0.627   7.323 -0.3846 -0.0251 -0.9799
  265MOL0     C35707   6.629   0.487   7.318  0.1570 -0.5093 -0.3868
  265MOL0     H35708   6.275   0.625   7.491  0.5074  0.4059 -0.0546
  265MOL0     H35709   6.068   0.529   7.579  0.3723  0.3741  1.1905
  265MOL0     H35710   6.060   0.193   7.847 -2.3832 -0.7345 -1.9481
  265MOL0     H35711   6.053   0.323   7.974  0.9100 -0.7675 -0.7698
  265MOL0     H35712   5.831   0.210   7.810  0.4766 -0.9572 -0.3573
  265MOL0     H35713   5.806   0.363   7.908 -4.1875 -2.7661 -0.9419
  265MOL0     H35714   5.895   0.235   8.105 -0.4036 -1.1698  0.3497
  265MOL0     H35715   5.899   0.092   8.015 -0.5693 -0.2065 -3.1840
  265MOL0     H35716   5.681   0.269   8.115 -1.2501 -0.0185  0.8408
  265MOL0     H35717   5.649   0.201   7.956  2.7372  2.0706 -0.4840
  265MOL0     H35718   5.675  -0.031   8.074 -0.1517 -0.5716  0.5147
  265MOL0     H35719   5.721   0.065   8.215 -1.9378  4.2561  1.5924
  265MOL0     H35720   5.541   0.161   8.267  1.3845  2.3694 -3.3258
  265MOL0     H35721   5.442   0.115   8.125  0.2176  0.4588  1.5724
  265MOL0     H35722   5.563  -0.081   8.319 -0.0085 -1.3408 -1.9832
  265MOL0     H35723   5.436  -0.109   8.192 -2.9364  0.0615  0.6532
  265MOL0     H35724   5.380   0.062   8.437  0.5445  2.2309 -1.8597
  265MOL0     H35725   5.279   0.053   8.299  0.4812  0.9744  0.6573
  265MOL0     H35726   5.351  -0.119   8.631  1.9684  1.4299 -1.2713
  265MOL0     H35727   5.152  -0.285   8.757 -3.8315 -1.5437  0.3854
  265MOL0     H35728   5.107  -0.409   8.646 -0.9063  0.1002  2.7223
  265MOL0     H35729   5.268  -0.499   8.800 -0.4604  2.2896  1.8748
  265MOL0     H35730   5.310  -0.510   8.626 -2.4777  1.3507 -0.3739
  265MOL0     H35731   5.422  -0.304   8.828  1.4764 -0.1231  0.5191
  265MOL0     H35732   5.480  -0.324   8.669 -2.4773  3.3675 -1.1316
  265MOL0     H35733   5.480  -0.532   8.904  1.4639  0.1153  1.0170
  265MOL0     H35734   5.611  -0.443   8.847  1.3962  0.1608 -1.9227
  265MOL0     H35735   5.460  -0.770   8.528  1.8496  0.0698 -0.0287
  265MOL0     H35736   5.369  -0.994   8.584 -1.5514  0.7869 -1.2686
  265MOL0     H35737   5.275  -1.387   8.580 -0.7984 -1.0889  0.0801
  265MOL0     H35738   5.210  -1.625   8.656  0.4391 -0.5811  1.1464
  265MOL0     H35739   5.168  -1.685   9.107 -0.6577 -0.6681  0.6715
  265MOL0     H35740   4.995  -1.677   9.053 -0.8711 -1.7024 -0.1418
  265MOL0     H35741   5.015  -1.878   9.130  1.7154  1.5936  3.3637
  265MOL0     H35742   5.047  -1.925   8.968  1.0562  1.8011 -1.0750
  265MOL0     H35743   5.316  -1.880   9.060  1.0100 -0.9003  0.4527
  265MOL0     H35744   5.235  -1.949   9.204 -2.8811  0.6960  0.9602
  265MOL0     H35745   5.203  -2.093   8.932 -1.0087 -0.2378  0.0815
  265MOL0     H35746   5.167  -2.137   9.097 -0.1261 -1.4297 -0.7446
  265MOL0     H35747   5.447  -2.084   9.003  1.1311 -0.7036  1.4757
  265MOL0     H35748   5.365  -2.239   9.007 -3.1280  0.1331 -1.0581
  265MOL0     H35749   5.438  -2.056   9.248  4.0681 -1.7430  0.3300
  265MOL0     H35750   5.318  -2.189   9.252 -3.7789 -0.2791 -4.8543
  265MOL0     H35751   5.469  -2.353   9.189  2.0335 -2.2106  1.8778
  265MOL0     H35752   5.539  -2.264   9.331  1.5408  5.5412  0.0250
  265MOL0     H35753   5.716  -2.321   9.170  1.6599  0.5725 -0.9485
  265MOL0     H35754   5.636  -2.228   9.044 -1.9225 -2.2606  0.0111
  265MOL0     H35755   5.124  -1.467   9.042  4.1356 -4.7321  0.9052
  265MOL0     H35756   5.219  -1.262   8.985 -0.0319 -2.4266  2.0190
  265MOL0     H35757   5.549  -0.958   8.978  2.2169  0.2499 -0.4020
  265MOL0     H35758   5.594  -0.719   8.929  5.0910  0.0968 -1.6804
  265MOL0     H35759   6.271   0.281   7.841  0.7859  1.1505  0.3437
  265MOL0     H35760   6.496   0.355   7.744 -0.6867  0.6352  1.3251
  265MOL0     H35761   6.646   0.927   7.485  2.5793  0.2642  0.7129
  265MOL0     H35762   6.804   0.990   7.299 -2.6862  1.3325 -1.5836
  265MOL0     H35763   6.891   1.054   7.121 -0.6266 -0.8170  0.9231
  265MOL0     H35764   6.772   1.005   6.995 -1.3980 -2.5847  0.2343
  265MOL0     H35765   6.944   1.085   6.878  0.2606 -1.5471 -0.9880
  265MOL0     H35766   6.930   0.915   6.844 -1.1814  1.1733 -2.0627
  265MOL0     H35767   7.101   0.893   7.046 -2.4275 -0.3238  0.6048
  265MOL0     H35768   7.135   1.070   7.004  2.8756 -0.6672 -1.0178
  265MOL0     H35769   7.303   0.937   6.914 -1.0263 -0.1873  0.4221
  265MOL0     H35770   7.207   0.821   6.834  1.9789  1.3026 -5.1719
  265MOL0     H35771   7.155   1.180   6.597  2.5606 -0.5010  0.0728
  265MOL0     H35772   6.772   0.601   7.141 -6.1330 -4.9545  1.8212
  265MOL0     H35773   6.666   0.444   7.224 -0.0647  2.6381 -2.0659
  265MOL0     H35774   6.670   0.430   7.402 -2.7151 -0.3323  1.2593
  265MOL0     H35775   6.520   0.485   7.324 -0.0296  2.0068 -1.7223
  266MOL0     O35776  10.460   4.957   6.508  0.3168 -0.0559  0.1750
  266MOL0     C35777  10.393   4.990   6.415 -0.0437  1.2568 -1.0055
  266MOL0     O35778  10.429   4.960   6.284  0.1951 -0.1386 -0.7194
  266MOL0     C35779  10.551   4.904   6.272  0.3446 -0.3650  0.8057
  266MOL0     C35780  10.672   4.963   6.330  0.7251  0.9014  0.5480
  266MOL0     C35781  10.792   4.911   6.277 -0.0939 -0.6613  0.0183
  266MOL0     C35782  10.799   4.809   6.183 -0.0202 -1.0189 -0.6182
  266MOL0     O35783  10.918   4.769   6.125  0.5832 -0.4251  0.3364
  266MOL0     C35784  10.978   4.644   6.161 -0.0391  0.6042  0.6297
  266MOL0     C35785  10.901   4.511   6.128 -0.5878  0.9090  1.3910
  266MOL0     C35786  10.886   4.496   5.979  0.4126  0.5689  1.0185
  266MOL0     C35787  10.970   4.395   5.907  0.4775 -0.3022  0.4014
  266MOL0     C35788  10.922   4.249   5.920  1.5155 -0.4495  0.9861
  266MOL0     C35789  10.981   4.154   5.815 -0.3830 -0.9115  0.3275
  266MOL0     C35790  10.933   4.011   5.834  0.0481 -0.1846  0.0864
  266MOL0     C35791  11.010   3.925   5.737 -0.4894 -0.2255  0.0928
  266MOL0     N35792  10.942   3.798   5.717  0.3699  0.4122 -0.2978
  266MOL0     C35793  10.928   3.691   5.809  0.0896  0.7072  0.0276
  266MOL0     C35794  10.895   3.585   5.723 -1.0878  1.3350 -0.0672
  266MOL0     C35795  10.892   3.447   5.761  0.1148  0.1162 -0.8055
  266MOL0     C35796  10.759   3.387   5.724  0.0424  0.5595  0.2078
  266MOL0     C35797  10.772   3.232   5.756 -0.5770 -0.4137  0.4971
  266MOL0     C35798  10.657   3.138   5.727 -0.0929 -0.4731 -0.3566
  266MOL0     O35799  10.667   3.027   5.811 -0.3977  0.1164  0.0255
  266MOL0     C35800  10.624   3.040   5.939 -0.6247 -0.3343 -0.1856
  266MOL0     C35801  10.558   3.153   5.992  0.0926 -0.5755 -0.1360
  266MOL0     C35802  10.501   3.143   6.121  0.0108 -0.6728  0.7515
  266MOL0     C35803  10.525   3.024   6.195  0.4418 -0.2949  0.1323
  266MOL0     C35804  10.483   3.016   6.337 -0.2958 -0.1919 -0.8227
  266MOL0     O35805  10.458   3.135   6.401  0.3417  0.1043 -0.0329
  266MOL0     C35806  10.411   3.116   6.528 -0.1814  0.8990 -0.0676
  266MOL0     C35807  10.289   3.169   6.559  0.1870  0.4800  0.7370
  266MOL0     C35808  10.243   3.171   6.687 -0.1489  0.4178  0.6000
  266MOL0     C35809  10.308   3.099   6.790 -0.3771 -0.3654 -0.2584
  266MOL0     O35810  10.267   3.088   6.919  0.2472  0.4641  0.3167
  266MOL0     C35811  10.129   3.096   6.937 -1.0862 -0.1019  0.7167
  266MOL0     C35812  10.105   3.030   7.071 -0.4747  0.0219 -0.1756
  266MOL0     C35813   9.957   3.006   7.097 -0.1755  0.2300  0.0135
  266MOL0     C35814   9.923   3.023   7.239  0.3962  0.6119 -0.2096
  266MOL0     C35815   9.773   3.015   7.262 -0.3802 -1.2227  0.1193
  266MOL0     C35816   9.745   3.018   7.412  0.2252  0.5700  0.6224
  266MOL0     C35817   9.775   3.149   7.471 -0.1948 -0.4899  0.3651
  266MOL0     C35818   9.719   3.260   7.394  0.3326 -0.2281  0.2765
  266MOL0    Cl35819   9.543   3.247   7.355 -0.7238 -0.2292 -0.2134
  266MOL0     C35820  10.435   3.044   6.756 -0.4781  0.0963 -0.4124
  266MOL0     C35821  10.488   3.055   6.625 -0.1619 -0.3672 -0.3405
  266MOL0     O35822  10.476   2.903   6.383 -0.6164  0.1427 -0.6915
  266MOL0     C35823  10.589   2.914   6.138 -0.5948  0.0909 -0.0441
  266MOL0     C35824  10.635   2.920   6.009  0.0683 -0.3120 -0.7909
  266MOL0     N35825  10.894   3.632   5.596  0.0029  0.1038  0.1318
  266MOL0     N35826  10.919   3.754   5.591  0.0697 -0.2264  0.5351
  266MOL0     C35827  10.683   4.770   6.120 -0.1368 -1.2201  0.0271
  266MOL0     C35828  10.556   4.811   6.164 -0.8791  0.7529 -0.1609
  266MOL0     C35829  10.245   5.032   6.438  0.4200  0.1063 -0.1485
  266MOL0     C35830  10.172   4.973   6.537 -0.2773 -0.0390 -0.7694
  266MOL0     C35831  10.037   5.010   6.565  0.8709 -0.8950  0.0509
  266MOL0     C35832   9.979   5.105   6.482  0.1469  0.7348  0.6576
  266MOL0     O35833   9.852   5.163   6.486 -0.1592  0.1063  0.0768
  266MOL0     C35834   9.753   5.130   6.577 -0.3119  0.4204 -0.6948
  266MOL0     C35835   9.782   5.193   6.717 -0.6594 -0.2033  1.0342
  266MOL0     C35836   9.707   5.132   6.842  0.2545  0.4226  0.2979
  266MOL0     C35837   9.613   5.237   6.883 -0.1596  0.7988 -0.4427
  266MOL0     C35838   9.538   5.196   7.007 -0.1061 -0.4990  0.3416
  266MOL0     C35839   9.496   5.170   7.116  0.6846 -0.7079  0.0425
  266MOL0     C35840  10.054   5.161   6.383  0.6131  0.2840  0.6825
  266MOL0     C35841  10.187   5.126   6.359  0.3485 -0.8949 -0.5808
  266MOL0     C35842  10.254   5.187   6.235  0.2260  0.4236  0.2025
  266MOL0     H35843  10.663   5.043   6.403 -0.7133  5.0151 -3.6380
  266MOL0     H35844  10.881   4.957   6.320 -0.5348 -0.0960  0.3419
  266MOL0     H35845  11.078   4.628   6.122 -0.5893 -3.2935  0.4314
  266MOL0     H35846  10.986   4.651   6.270 -0.4054 -1.4633  0.8228
  266MOL0     H35847  10.799   4.504   6.166 -1.5667 -0.4521 -1.1875
  266MOL0     H35848  10.966   4.431   6.166 -2.7809 -1.4258  0.5486
  266MOL0     H35849  10.888   4.597   5.937  2.5239  0.0872 -0.2659
  266MOL0     H35850  10.783   4.462   5.967  1.2501 -1.2928 -2.3109
  266MOL0     H35851  10.970   4.440   5.807 -0.5558  0.0145  0.5219
  266MOL0     H35852  11.073   4.395   5.944  0.3942 -2.1173  0.6880
  266MOL0     H35853  10.939   4.221   6.024 -1.1384  2.0898  2.2493
  266MOL0     H35854  10.813   4.244   5.907  0.9245  0.3448  4.6730
  266MOL0     H35855  10.969   4.198   5.716  0.0515  2.4244  1.6091
  266MOL0     H35856  11.088   4.157   5.840 -1.1732  2.3434  4.5116
  266MOL0     H35857  10.825   4.015   5.818  0.3503 -1.1341 -2.8384
  266MOL0     H35858  10.949   3.966   5.932 -1.8833 -1.9132 -0.3327
  266MOL0     H35859  11.035   3.972   5.641  2.4327 -1.3054  0.2095
  266MOL0     H35860  11.103   3.878   5.772  0.9664 -0.0720 -3.2001
  266MOL0     H35861  10.942   3.675   5.915 -1.4645 -2.0657 -0.1152
  266MOL0     H35862  10.982   3.389   5.737  1.0105  0.4188  1.5548
  266MOL0     H35863  10.893   3.445   5.870  0.6621  1.0269 -0.7794
  266MOL0     H35864  10.673   3.428   5.778  0.3599  0.4470  0.8214
  266MOL0     H35865  10.744   3.391   5.616 -1.3592  1.7648  0.4274
  266MOL0     H35866  10.804   3.216   5.860 -0.4549 -0.7747  0.4042
  266MOL0     H35867  10.852   3.198   5.690 -0.9517  2.2068 -1.5201
  266MOL0     H35868  10.666   3.107   5.622 -1.4792  2.5347 -1.4612
  266MOL0     H35869  10.560   3.187   5.733 -0.5285 -1.3224 -0.2065
  266MOL0     H35870  10.532   3.233   5.924 -2.7748  0.4065  1.9124
  266MOL0     H35871  10.427   3.208   6.167 -0.9062  0.2518 -1.8192
  266MOL0     H35872  10.225   3.219   6.487 -0.4740 -0.0693  0.9421
  266MOL0     H35873  10.157   3.230   6.716 -2.0957 -0.8919 -2.0789
  266MOL0     H35874  10.110   3.203   6.949  0.0880  0.1588  0.4132
  266MOL0     H35875  10.073   3.060   6.850  2.0255  2.6839 -2.7901
  266MOL0     H35876  10.161   2.936   7.076  0.3163  0.4212 -1.0582
  266MOL0     H35877  10.144   3.095   7.150  0.3285 -0.3546 -0.2578
  266MOL0     H35878   9.886   3.066   7.040 -0.2395  1.7892  1.6454
  266MOL0     H35879   9.943   2.900   7.073 -1.5286  0.5505 -0.6709
  266MOL0     H35880   9.967   3.116   7.277  0.5429  0.2219  0.5986
  266MOL0     H35881   9.981   2.950   7.297 -0.5498  1.3625  1.7997
  266MOL0     H35882   9.740   2.923   7.212 -2.2049  2.1473 -5.8237
  266MOL0     H35883   9.721   3.092   7.205  1.8639 -0.7712 -1.4590
  266MOL0     H35884   9.637   3.002   7.426  0.3535  0.9549  2.2766
  266MOL0     H35885   9.796   2.944   7.475  2.0139  1.5926  0.4304
  266MOL0     H35886   9.883   3.159   7.482 -0.3848  1.8101  0.5620
  266MOL0     H35887   9.751   3.151   7.578 -0.2538  1.4324  0.3383
  266MOL0     H35888   9.737   3.354   7.447  2.0380  1.2639 -2.6789
  266MOL0     H35889   9.773   3.280   7.300 -0.1435  0.0991  0.0702
  266MOL0     H35890  10.503   2.999   6.828  0.5277 -0.3958 -1.6325
  266MOL0     H35891  10.587   3.017   6.600  2.1597  1.3143  5.0130
  266MOL0     H35892  10.596   2.819   6.191  2.1354 -0.4431 -1.1914
  266MOL0     H35893  10.671   2.830   5.960 -3.0503 -2.5019  0.6258
  266MOL0     H35894  10.688   4.701   6.036  1.2225 -0.8055 -0.2479
  266MOL0     H35895  10.460   4.766   6.139 -1.9179  2.0494  1.3689
  266MOL0     H35896  10.214   4.906   6.611  0.4733  3.9720  2.8343
  266MOL0     H35897   9.978   4.978   6.650  0.4490 -1.5450 -0.4738
  266MOL0     H35898   9.749   5.023   6.598  1.9576  1.0117  4.1224
  266MOL0     H35899   9.650   5.158   6.552 -1.1287 -1.1251  0.7462
  266MOL0     H35900   9.763   5.300   6.717  2.7647  0.5304  0.6311
  266MOL0     H35901   9.889   5.175   6.734 -1.0005 -2.5877  1.1235
  266MOL0     H35902   9.778   5.108   6.921 -1.6772 -1.6250  1.5462
  266MOL0     H35903   9.662   5.035   6.817 -0.8357  1.3004 -1.3489
  266MOL0     H35904   9.663   5.331   6.907  0.3351  0.2604  0.7527
  266MOL0     H35905   9.539   5.248   6.804 -0.4279 -2.0222 -0.7119
  266MOL0     H35906   9.457   5.152   7.214  0.9413  0.3066  0.3411
  266MOL0     H35907  10.009   5.248   6.337 -0.4081 -1.5821 -2.1950
  266MOL0     H35908  10.354   5.223   6.260 -0.0136 -0.6538  3.0332
  266MOL0     H35909  10.266   5.103   6.166  0.7760 -0.8509  1.7925
  266MOL0     H35910  10.192   5.257   6.177  0.2265 -1.0490 -1.6567
  267MOL0     O35911  10.577   9.912   0.905 -0.7489 -0.1400  0.5630
  267MOL0     C35912  10.685   9.949   0.935 -0.0555 -1.0044 -0.8644
  267MOL0     O35913  10.803   9.925   0.867  0.3991  1.6029 -0.3299
  267MOL0     C35914  10.796   9.848   0.748  0.7947  0.7992  0.0035
  267MOL0     C35915  10.712   9.738   0.708  0.4096 -0.0919 -0.0771
  267MOL0     C35916  10.722   9.673   0.588 -0.5185  0.3451  0.0782
  267MOL0     C35917  10.828   9.701   0.510  0.7734 -0.7884  0.0139
  267MOL0     O35918  10.853   9.637   0.391 -0.4679  0.2560  0.0156
  267MOL0     C35919  10.752   9.614   0.298  0.9133  0.3644 -0.5096
  267MOL0     C35920  10.804   9.570   0.163 -0.4866  0.5293 -0.9120
  267MOL0     C35921  10.908   9.672   0.104  1.1583  0.3813 -0.7622
  267MOL0     C35922  10.901   9.675  -0.054 -0.0391  0.4584 -0.2056
  267MOL0     C35923  10.972   9.793  -0.123  0.1953 -1.4003 -0.7819
  267MOL0     C35924  10.994   9.792  -0.267  1.1955  0.2346 -0.5753
  267MOL0     C35925  11.060   9.669  -0.317 -0.5653 -0.5292 -0.0346
  267MOL0     C35926  11.107   9.706  -0.465  0.3522  0.1972 -0.5535
  267MOL0     N35927  11.163   9.594  -0.534  0.4686  0.1651  0.6321
  267MOL0     C35928  11.261   9.506  -0.487  0.7443 -1.1746 -0.5998
  267MOL0     C35929  11.272   9.413  -0.587  1.3279 -0.1430 -0.5431
  267MOL0     C35930  11.357   9.285  -0.594 -0.6903  0.4153 -0.0172
  267MOL0     C35931  11.491   9.344  -0.555 -0.3855  0.8817  0.5401
  267MOL0     C35932  11.597   9.225  -0.533 -0.4029 -0.7213 -0.3581
  267MOL0     C35933  11.728   9.291  -0.537 -0.5264 -1.9426 -0.0400
  267MOL0     O35934  11.814   9.183  -0.504  0.0664  0.2750  0.1286
  267MOL0     C35935  11.946   9.213  -0.503 -0.8369  0.4766  0.4790
  267MOL0     C35936  11.999   9.313  -0.416  0.4731 -0.1367  0.9716
  267MOL0     C35937  12.134   9.339  -0.401 -0.7502 -0.2591 -0.4268
  267MOL0     C35938  12.225   9.258  -0.466  0.3548  0.7528 -0.2194
  267MOL0     C35939  12.366   9.273  -0.432 -0.3614  0.1410  0.1455
  267MOL0     O35940  12.399   9.399  -0.393 -0.2105 -0.7564  0.1983
  267MOL0     C35941  12.519   9.429  -0.339  0.0155  0.0286  0.6622
  267MOL0     C35942  12.615   9.354  -0.276  0.9671  0.0413  0.1750
  267MOL0     C35943  12.744   9.399  -0.255 -0.0364 -0.3182  0.2766
  267MOL0     C35944  12.774   9.525  -0.281  0.0026 -0.2021  0.4984
  267MOL0     O35945  12.893   9.569  -0.238 -0.2327  0.1028 -0.6628
  267MOL0     C35946  12.959   9.672  -0.314  0.3069  0.6014 -0.3194
  267MOL0     C35947  13.102   9.655  -0.262 -0.3732  0.3195  1.1041
  267MOL0     C35948  13.198   9.743  -0.329 -0.0386  0.8156  0.1130
  267MOL0     C35949  13.207   9.879  -0.264  0.0108 -0.2715 -0.4615
  267MOL0     C35950  13.307   9.977  -0.348 -0.6704  0.1291 -0.4046
  267MOL0     C35951  13.243  10.029  -0.485  0.2534 -0.0157  0.1520
  267MOL0     C35952  13.334  10.088  -0.592  1.0113  0.5407 -0.1737
  267MOL0     C35953  13.310  10.240  -0.614 -0.2830  0.7429 -0.8771
  267MOL0    Cl35954  13.337  10.336  -0.459  0.0676  0.3903 -0.1204
  267MOL0     C35955  12.681   9.603  -0.353 -1.6562 -1.1534 -0.5383
  267MOL0     C35956  12.551   9.560  -0.368  0.1147  0.2930  0.0630
  267MOL0     O35957  12.448   9.175  -0.450  1.0045 -0.1567 -0.6795
  267MOL0     C35958  12.176   9.141  -0.533  0.9622 -0.0177 -0.0233
  267MOL0     C35959  12.041   9.131  -0.558 -0.0957  0.3989  0.5975
  267MOL0     N35960  11.189   9.451  -0.695  0.0572 -0.2323 -0.5181
  267MOL0     N35961  11.131   9.561  -0.661  0.7011 -0.1889 -0.5904
  267MOL0     C35962  10.917   9.811   0.543  0.5117  1.7407 -0.7798
  267MOL0     C35963  10.900   9.879   0.664 -0.1188  0.0849 -0.0782
  267MOL0     C35964  10.699  10.030   1.063  0.3130  0.6163 -0.6315
  267MOL0     C35965  10.831  10.079   1.084  1.0657  0.4073  0.0031
  267MOL0     C35966  10.865  10.125   1.212  0.2268 -0.2316  0.2639
  267MOL0     C35967  10.758  10.142   1.303 -0.0367  0.1366  0.3598
  267MOL0     O35968  10.780  10.186   1.431 -0.1691  0.1849  0.0624
  267MOL0     C35969  10.896  10.266   1.461  0.1396  0.1240  0.7481
  267MOL0     C35970  10.889  10.316   1.607 -0.7918 -0.1081 -0.1455
  267MOL0     C35971  10.906  10.211   1.718 -0.4045 -0.7141  0.6562
  267MOL0     C35972  11.059  10.200   1.742  0.6630  0.2685  0.2063
  267MOL0     C35973  11.091  10.124   1.856  0.7088 -0.1976 -0.1576
  267MOL0     C35974  11.105  10.047   1.949 -0.8929 -0.7903  0.0310
  267MOL0     C35975  10.626  10.113   1.283  0.3998 -0.2450 -0.2828
  267MOL0     C35976  10.594  10.052   1.165  0.0006 -0.3679  0.3810
  267MOL0     C35977  10.462   9.994   1.154  0.0777  0.9085  0.8903
  267MOL0     H35978  10.628   9.698   0.764  1.3660  0.0316  1.5241
  267MOL0     H35979  10.641   9.601   0.580 -0.9182  0.7114  0.7267
  267MOL0     H35980  10.687   9.531   0.328  0.9671  0.3597 -0.4049
  267MOL0     H35981  10.693   9.704   0.279  1.9079  0.5041 -3.6458
  267MOL0     H35982  10.718   9.560   0.096 -0.8378  1.8360 -0.6694
  267MOL0     H35983  10.858   9.476   0.182  3.1972  2.5393 -0.5877
  267MOL0     H35984  11.009   9.654   0.143  0.3966 -0.6865  0.8028
  267MOL0     H35985  10.888   9.776   0.131  2.1001  0.8420 -1.7623
  267MOL0     H35986  10.947   9.584  -0.092 -1.4032 -0.4566  0.2712
  267MOL0     H35987  10.800   9.669  -0.095  0.8458  0.2901 -2.5675
  267MOL0     H35988  10.913   9.882  -0.102  1.5078 -0.5556 -0.5242
  267MOL0     H35989  11.067   9.809  -0.070 -1.9927  0.4597  2.9380
  267MOL0     H35990  10.904   9.798  -0.330 -0.9484 -0.3370  2.2010
  267MOL0     H35991  11.050   9.881  -0.293  0.2366 -0.0178 -4.0561
  267MOL0     H35992  10.989   9.590  -0.339 -1.4943  1.1836 -3.9476
  267MOL0     H35993  11.146   9.634  -0.259  0.2829  1.8988  0.3013
  267MOL0     H35994  11.011   9.723  -0.513  0.4855 -2.5703 -2.0003
  267MOL0     H35995  11.178   9.788  -0.473  2.0471 -1.3724 -2.8789
  267MOL0     H35996  11.296   9.509  -0.384 -1.8078  0.0047  0.3303
  267MOL0     H35997  11.333   9.207  -0.522  1.6469 -3.2531 -2.8209
  267MOL0     H35998  11.354   9.235  -0.692  2.3522 -0.7083  0.3695
  267MOL0     H35999  11.520   9.417  -0.630 -1.4533  1.1696  0.3961
  267MOL0     H36000  11.480   9.408  -0.467 -0.8012  0.0011  1.1434
  267MOL0     H36001  11.592   9.148  -0.610 -5.2113  0.3227 -1.4709
  267MOL0     H36002  11.591   9.185  -0.432 -0.0886  2.9498  1.2914
  267MOL0     H36003  11.736   9.375  -0.467 -2.2813 -1.0636 -0.8328
  267MOL0     H36004  11.764   9.319  -0.636  1.3067  0.0230  1.1311
  267MOL0     H36005  11.926   9.355  -0.348  0.9938  2.0153  0.2861
  267MOL0     H36006  12.175   9.414  -0.334  0.1948 -1.1505  0.0006
  267MOL0     H36007  12.592   9.249  -0.259  1.0984  0.0994  0.7452
  267MOL0     H36008  12.815   9.343  -0.195  0.2691 -0.2326 -0.0017
  267MOL0     H36009  12.946   9.661  -0.422  1.1616  0.4510 -0.4111
  267MOL0     H36010  12.920   9.772  -0.290 -0.1939  0.8549 -2.0459
  267MOL0     H36011  13.103   9.675  -0.155 -0.3456  1.5342  0.8965
  267MOL0     H36012  13.135   9.551  -0.264 -2.4449 -0.4389  2.8474
  267MOL0     H36013  13.293   9.690  -0.313 -0.1363  0.8857  0.9779
  267MOL0     H36014  13.188   9.757  -0.437 -0.1365  3.1777  0.3828
  267MOL0     H36015  13.250   9.883  -0.163 -0.6884  4.5073 -0.1323
  267MOL0     H36016  13.103   9.912  -0.255 -0.4257 -2.0429  1.6496
  267MOL0     H36017  13.404   9.929  -0.361 -1.0358 -0.7580  0.0285
  267MOL0     H36018  13.325  10.066  -0.287 -0.8377 -0.3987  0.4223
  267MOL0     H36019  13.193   9.940  -0.524  0.6649 -0.0024 -0.4254
  267MOL0     H36020  13.160  10.099  -0.476  0.2257 -0.1841  1.4244
  267MOL0     H36021  13.318  10.031  -0.684 -2.0053 -1.1893  1.2525
  267MOL0     H36022  13.440  10.066  -0.577  0.9180  0.5401  0.4899
  267MOL0     H36023  13.387  10.267  -0.686  1.5111 -0.2751  0.5757
  267MOL0     H36024  13.207  10.259  -0.646  0.4471  0.7991 -3.3272
  267MOL0     H36025  12.715   9.704  -0.374 -2.0042 -0.9325 -0.0382
  267MOL0     H36026  12.474   9.628  -0.406 -3.3732 -3.9385 -1.2935
  267MOL0     H36027  12.231   9.053  -0.564  1.5761  0.0635  0.8011
  267MOL0     H36028  11.993   9.055  -0.618  1.1343  0.0332  0.0553
  267MOL0     H36029  10.985   9.844   0.465 -0.2166  0.5674 -1.9459
  267MOL0     H36030  10.975   9.953   0.691  0.2852 -0.4947  0.4289
  267MOL0     H36031  10.907  10.081   1.006  2.8844 -1.5648  1.5894
  267MOL0     H36032  10.965  10.164   1.231  0.1433  1.5777 -2.4539
  267MOL0     H36033  10.901  10.355   1.397  2.2817  0.8531  1.8429
  267MOL0     H36034  10.990  10.212   1.443 -0.2858 -1.1158  2.0705
  267MOL0     H36035  10.788  10.359   1.605  0.1458  2.2615 -0.3644
  267MOL0     H36036  10.959  10.398   1.624 -0.2143 -0.6165 -0.0580
  267MOL0     H36037  10.868  10.115   1.683  2.3867 -0.7188 -2.9509
  267MOL0     H36038  10.857  10.251   1.808 -2.4039  4.3665 -2.2510
  267MOL0     H36039  11.094  10.156   1.648  0.0584  0.5386 -0.1494
  267MOL0     H36040  11.097  10.303   1.744 -0.0892  0.5597  2.3351
  267MOL0     H36041  11.128   9.978   2.028  4.0894 -1.6335 -1.7581
  267MOL0     H36042  10.554  10.145   1.356  0.1554 -0.4728 -0.4197
  267MOL0     H36043  10.398  10.051   1.222 -3.0875 -1.5167  0.2284
  267MOL0     H36044  10.422  10.011   1.053  0.8134 -0.5877  0.3169
  267MOL0     H36045  10.471   9.886   1.169  2.4334  0.9317 -0.0124
  268MOL0     O36046   0.382   3.744  11.403 -0.4598  0.1807 -0.9582
  268MOL0     C36047   0.435   3.837  11.452  1.1322  0.4762  0.1323
  268MOL0     O36048   0.560   3.894  11.422  0.0633 -0.7539  0.0232
  268MOL0     C36049   0.648   3.817  11.360 -0.2212  0.7086  0.5870
  268MOL0     C36050   0.624   3.750  11.237  0.2238 -0.1207 -0.3273
  268MOL0     C36051   0.728   3.673  11.167  0.3941 -0.2418 -0.4576
  268MOL0     C36052   0.854   3.669  11.224  0.2278 -0.1307  0.8418
  268MOL0     O36053   0.939   3.582  11.155  0.4352  0.1044  0.9704
  268MOL0     C36054   1.064   3.552  11.231 -1.4749  0.4246  0.4348
  268MOL0     C36055   1.109   3.400  11.201 -0.3329 -0.7854  1.1661
  268MOL0     C36056   1.002   3.301  11.251 -0.8195 -0.4342  0.0724
  268MOL0     C36057   1.064   3.168  11.271  0.0373  1.3712  1.3014
  268MOL0     C36058   0.951   3.062  11.269 -0.7189 -0.2699  1.3400
  268MOL0     C36059   0.990   2.918  11.244 -0.5623 -0.5143 -0.1355
  268MOL0     C36060   1.019   2.885  11.088 -0.3078 -0.7892 -1.7530
  268MOL0     C36061   1.171   2.893  11.061  0.2345  0.6010 -0.0376
  268MOL0     N36062   1.232   2.757  11.059  0.5836  0.3745  0.2784
  268MOL0     C36063   1.245   2.690  10.941 -0.2778 -0.6180  0.0485
  268MOL0     C36064   1.315   2.576  10.967  0.3904 -0.2323 -0.4943
  268MOL0     C36065   1.340   2.477  10.857 -0.2938 -0.0190  0.7522
  268MOL0     C36066   1.487   2.480  10.813 -0.1801 -1.3828  0.0673
  268MOL0     C36067   1.522   2.377  10.704 -0.7150 -0.1702 -0.1688
  268MOL0     C36068   1.608   2.266  10.767  0.1180  0.0455 -0.7399
  268MOL0     O36069   1.731   2.327  10.808 -0.5417 -0.6260  0.5382
  268MOL0     C36070   1.851   2.345  10.732  0.0833 -1.4201  0.1790
  268MOL0     C36071   1.937   2.430  10.792  0.2583 -0.2731  0.5575
  268MOL0     C36072   2.060   2.455  10.732  0.1722 -0.4273  0.5179
  268MOL0     C36073   2.083   2.391  10.603  0.5856  0.3204 -0.1183
  268MOL0     C36074   2.212   2.414  10.522  0.2777 -0.4916  0.3415
  268MOL0     O36075   2.258   2.318  10.438  0.0199 -0.7028  0.5247
  268MOL0     C36076   2.369   2.345  10.362 -0.1448  0.4765 -0.3767
  268MOL0     C36077   2.487   2.288  10.394  0.6147  0.7949 -0.1714
  268MOL0     C36078   2.596   2.313  10.322  0.3333 -0.1322 -0.1983
  268MOL0     C36079   2.601   2.402  10.216  0.0103 -0.3130  0.6546
  268MOL0     O36080   2.721   2.402  10.138  0.8988 -0.2947 -0.4013
  268MOL0     C36081   2.743   2.523  10.056  0.2925  0.1346 -0.5537
  268MOL0     C36082   2.896   2.546  10.033  0.0997 -0.7577  0.5962
  268MOL0     C36083   2.958   2.592  10.169  0.1096 -0.1370  0.5389
  268MOL0     C36084   3.093   2.544  10.184 -0.3321  1.5044 -0.4266
  268MOL0     C36085   3.189   2.632  10.099 -0.4083  1.0800  0.1118
  268MOL0     C36086   3.340   2.592  10.139  0.5514 -0.2393  0.2797
  268MOL0     C36087   3.437   2.637  10.029 -0.1209 -0.2689 -1.0890
  268MOL0     C36088   3.459   2.781  10.000 -0.4071  0.3243 -0.5424
  268MOL0    Cl36089   3.577   2.808   9.865 -0.1992  0.2000  0.4912
  268MOL0     C36090   2.480   2.457  10.177  0.3452  0.4787  0.1667
  268MOL0     C36091   2.365   2.419  10.242 -0.0916 -0.0718 -0.2469
  268MOL0     O36092   2.256   2.526  10.524  0.4024  0.3037 -1.1318
  268MOL0     C36093   1.992   2.300  10.553  0.3586 -0.6585 -0.6479
  268MOL0     C36094   1.872   2.279  10.620  0.5804 -0.8758  0.0445
  268MOL0     N36095   1.345   2.582  11.099 -0.2301  0.1950  0.3477
  268MOL0     N36096   1.298   2.688  11.158 -0.7259  0.7186  0.3091
  268MOL0     C36097   0.882   3.742  11.346 -0.2337 -0.1490 -0.3416
  268MOL0     C36098   0.776   3.804  11.412  0.5170 -0.2268 -0.2679
  268MOL0     C36099   0.340   3.911  11.530 -0.7931 -0.9094 -0.1467
  268MOL0     C36100   0.342   4.050  11.513 -0.1599  0.0828 -0.8903
  268MOL0     C36101   0.238   4.123  11.570 -0.5760  0.5290  0.2313
  268MOL0     C36102   0.137   4.067  11.632 -0.6365 -0.8719 -0.7071
  268MOL0     O36103   0.031   4.151  11.665 -0.1860 -0.2692 -0.3070
  268MOL0     C36104  -0.098   4.100  11.693 -0.1697 -0.7413  0.3820
  268MOL0     C36105  -0.172   4.039  11.578  1.1558 -0.2907  0.5687
  268MOL0     C36106  -0.214   4.144  11.474 -0.0409  0.5473 -0.4486
  268MOL0     C36107  -0.345   4.107  11.402 -0.4583 -1.1453 -0.3314
  268MOL0     C36108  -0.404   4.215  11.328 -0.3289 -0.6157 -1.1837
  268MOL0     C36109  -0.454   4.298  11.259  0.3442 -0.3850 -0.2553
  268MOL0     C36110   0.141   3.932  11.670 -0.2835 -0.9795 -0.1498
  268MOL0     C36111   0.246   3.851  11.620 -0.8403 -0.2933 -0.8067
  268MOL0     C36112   0.240   3.713  11.673  0.3091  0.3641 -0.4307
  268MOL0     H36113   0.528   3.765  11.188  0.7676  0.3772 -1.2715
  268MOL0     H36114   0.709   3.621  11.073 -3.1108 -0.9829  0.5161
  268MOL0     H36115   1.140   3.627  11.206 -2.8462  2.3983  1.8010
  268MOL0     H36116   1.050   3.558  11.340  0.3053  1.6325  0.6411
  268MOL0     H36117   1.205   3.377  11.248 -0.3374  0.0915  1.6292
  268MOL0     H36118   1.129   3.396  11.094  3.5785  0.5601  1.6860
  268MOL0     H36119   0.927   3.302  11.172  0.3959  0.0779 -1.1232
  268MOL0     H36120   0.959   3.324  11.349 -0.3107  1.2645 -0.0688
  268MOL0     H36121   1.139   3.154  11.193 -2.8980 -0.0125 -1.5049
  268MOL0     H36122   1.115   3.170  11.368  0.4911  3.4761  1.0701
  268MOL0     H36123   0.894   3.072  11.362 -0.9981 -0.1252  1.1542
  268MOL0     H36124   0.873   3.081  11.195 -0.8301 -0.6598  1.3529
  268MOL0     H36125   1.079   2.894  11.302  0.3093  2.2338 -0.1968
  268MOL0     H36126   0.901   2.860  11.272 -1.0169 -1.3213 -2.9783
  268MOL0     H36127   0.981   2.975  11.039  2.1967  0.1675 -2.0578
  268MOL0     H36128   0.966   2.795  11.054 -2.4609 -1.2687  2.3188
  268MOL0     H36129   1.187   2.924  10.958  0.3474  0.4118 -0.0791
  268MOL0     H36130   1.229   2.956  11.129  1.4905  0.0609 -0.5893
  268MOL0     H36131   1.200   2.699  10.843  3.0736 -0.8075 -1.6567
  268MOL0     H36132   1.323   2.376  10.895  1.6570  0.2514  2.4923
  268MOL0     H36133   1.285   2.508  10.767  0.7653  2.6088  0.9304
  268MOL0     H36134   1.515   2.577  10.771 -1.0733 -0.6786  1.0635
  268MOL0     H36135   1.552   2.466  10.900 -0.3164 -2.2156  0.0391
  268MOL0     H36136   1.574   2.435  10.628  2.2378 -1.7068  0.5144
  268MOL0     H36137   1.438   2.331  10.651  1.1284 -2.0681 -1.6338
  268MOL0     H36138   1.628   2.188  10.693 -2.0996 -1.0009 -0.3004
  268MOL0     H36139   1.558   2.228  10.856 -0.7402 -0.5171 -1.4523
  268MOL0     H36140   1.907   2.491  10.877  0.6766  1.4245 -0.4784
  268MOL0     H36141   2.123   2.524  10.787 -1.2024 -0.4953  2.2980
  268MOL0     H36142   2.489   2.230  10.486  3.3478 -0.8405 -1.1487
  268MOL0     H36143   2.684   2.267  10.364  0.1276 -1.4443 -1.1555
  268MOL0     H36144   2.697   2.502   9.960 -1.2144  0.6339  0.0411
  268MOL0     H36145   2.693   2.613  10.091  1.1843 -0.2749  2.0633
  268MOL0     H36146   2.946   2.455   9.998  1.4497 -1.6307  4.3769
  268MOL0     H36147   2.906   2.623   9.956 -0.4193  0.9180  2.1372
  268MOL0     H36148   2.965   2.701  10.182 -1.3296  0.1372 -0.6133
  268MOL0     H36149   2.894   2.566  10.254 -0.0216  1.5088  0.9889
  268MOL0     H36150   3.087   2.438  10.159  3.0119  0.6715  1.5546
  268MOL0     H36151   3.123   2.545  10.289  0.5443  0.5457 -0.6513
  268MOL0     H36152   3.180   2.740  10.113 -0.8569  1.5882 -3.2421
  268MOL0     H36153   3.162   2.614   9.994 -2.5261  0.1571  0.7770
  268MOL0     H36154   3.367   2.636  10.236 -1.3312  4.2587 -0.9339
  268MOL0     H36155   3.345   2.485  10.158 -2.4213 -0.6502 -0.6480
  268MOL0     H36156   3.392   2.600   9.936 -4.1283  0.2454  0.4146
  268MOL0     H36157   3.532   2.587  10.050 -0.0183  0.2281 -0.3222
  268MOL0     H36158   3.360   2.812   9.966 -0.2833 -0.8643 -2.1294
  268MOL0     H36159   3.490   2.835  10.089  1.2783  1.4463 -1.7428
  268MOL0     H36160   2.471   2.511  10.083  0.6954 -1.9080 -1.3228
  268MOL0     H36161   2.263   2.451  10.227 -0.5331  0.6315  3.3039
  268MOL0     H36162   2.005   2.249  10.458  0.2237  0.8645 -1.5294
  268MOL0     H36163   1.803   2.210  10.573  2.4236 -1.2962 -2.2139
  268MOL0     H36164   0.970   3.762  11.405 -0.6182  0.9168 -0.0991
  268MOL0     H36165   0.796   3.872  11.494 -0.5978 -0.2794  0.0760
  268MOL0     H36166   0.421   4.100  11.457 -1.4934  2.5996 -0.6986
  268MOL0     H36167   0.233   4.230  11.554 -1.5493  0.7876  2.0659
  268MOL0     H36168  -0.156   4.175  11.748  1.4531  0.4865  0.5194
  268MOL0     H36169  -0.079   4.017  11.762  1.7960 -0.1129  0.6477
  268MOL0     H36170  -0.264   3.992  11.613 -0.4947  1.7906 -0.7297
  268MOL0     H36171  -0.101   3.977  11.522  3.0298  1.3532  1.0259
  268MOL0     H36172  -0.124   4.139  11.412 -0.0741 -1.9294 -0.3769
  268MOL0     H36173  -0.224   4.242  11.523  1.6554  0.3098  0.4415
  268MOL0     H36174  -0.324   4.022  11.336 -1.4748 -3.5603  2.2651
  268MOL0     H36175  -0.421   4.074  11.472  0.1307  0.1248  0.9464
  268MOL0     H36176  -0.501   4.380  11.208  0.9081  2.5760  3.4901
  268MOL0     H36177   0.062   3.893  11.733 -2.7231  1.2454 -1.6426
  268MOL0     H36178   0.335   3.661  11.666  1.3861  2.2036 -0.2871
  268MOL0     H36179   0.216   3.706  11.779  0.3309  0.3277 -0.4285
  268MOL0     H36180   0.167   3.659  11.613  0.0035  2.8982 -2.5603
  269MOL0     O36181   6.624   9.424   5.387 -0.2763  0.4828 -0.2836
  269MOL0     C36182   6.674   9.483   5.480  1.1317  0.2432 -0.1519
  269MOL0     O36183   6.643   9.464   5.614  0.2215 -0.4902 -0.0127
  269MOL0     C36184   6.589   9.346   5.656  0.5407  0.4091  0.4267
  269MOL0     C36185   6.646   9.222   5.637  0.0423  0.7073  0.0807
  269MOL0     C36186   6.582   9.106   5.690 -0.5031 -0.0629 -0.5326
  269MOL0     C36187   6.452   9.125   5.753 -0.2352  0.3509 -0.1064
  269MOL0     O36188   6.387   9.031   5.818 -0.8838  0.5807  0.2779
  269MOL0     C36189   6.429   8.896   5.809  0.1052 -0.0458  0.5809
  269MOL0     C36190   6.323   8.783   5.843  0.3102  0.0809 -0.0068
  269MOL0     C36191   6.203   8.778   5.748  0.7666  0.2531 -0.3078
  269MOL0     C36192   6.134   8.910   5.753 -0.6868  0.3112  0.0213
  269MOL0     C36193   5.984   8.892   5.724  0.6555 -0.3811 -0.0004
  269MOL0     C36194   5.897   9.003   5.772  0.1034 -0.3406  0.5329
  269MOL0     C36195   5.760   8.988   5.695  0.1173  0.1261 -1.4529
  269MOL0     C36196   5.690   9.125   5.677  0.0655 -0.6360  0.1267
  269MOL0     N36197   5.557   9.109   5.610 -0.1861  0.4476 -0.4394
  269MOL0     C36198   5.475   9.216   5.595 -0.4195 -0.1535 -1.0456
  269MOL0     C36199   5.383   9.181   5.504  0.6086 -0.8172  0.2764
  269MOL0     C36200   5.265   9.275   5.460  0.1275 -0.1982  0.0809
  269MOL0     C36201   5.126   9.210   5.425 -0.7909 -0.8003 -0.2054
  269MOL0     C36202   5.033   9.317   5.373 -0.6615 -0.8507  0.1975
  269MOL0     C36203   4.988   9.417   5.481  0.7859  0.4655  0.0139
  269MOL0     O36204   4.889   9.497   5.413 -0.2950 -0.1982  0.4116
  269MOL0     C36205   4.781   9.542   5.479 -0.4235 -1.5934  0.0094
  269MOL0     C36206   4.785   9.572   5.615  0.4073 -0.4478  0.4384
  269MOL0     C36207   4.661   9.598   5.678 -0.0614  0.7147  0.1611
  269MOL0     C36208   4.542   9.605   5.614  0.1986 -0.4034  1.0226
  269MOL0     C36209   4.411   9.628   5.687 -0.6177  0.3909 -0.3558
  269MOL0     O36210   4.297   9.644   5.603 -0.1493  0.4416 -0.0044
  269MOL0     C36211   4.191   9.575   5.641 -0.6187  0.9804 -0.5815
  269MOL0     C36212   4.094   9.640   5.699  0.4921 -0.4582 -1.1622
  269MOL0     C36213   3.981   9.569   5.742 -0.3608 -1.1336 -0.1932
  269MOL0     C36214   3.994   9.426   5.740  0.5481  0.2688  0.0661
  269MOL0     O36215   3.893   9.363   5.811 -0.3458  0.1778  0.0735
  269MOL0     C36216   3.761   9.373   5.751 -0.8971 -0.0224  0.2344
  269MOL0     C36217   3.762   9.342   5.595  0.4849 -0.2416  0.1144
  269MOL0     C36218   3.751   9.195   5.564  0.2995  1.0379  1.6690
  269MOL0     C36219   3.788   9.167   5.417  0.5013 -0.2525  0.1964
  269MOL0     C36220   3.727   9.031   5.370  0.5484 -0.6005 -0.0817
  269MOL0     C36221   3.789   8.995   5.233 -0.2716 -0.2247 -0.8255
  269MOL0     C36222   3.716   9.039   5.109 -0.6300 -0.6731  0.2686
  269MOL0     C36223   3.783   8.988   4.983  0.3209 -0.5643 -0.3340
  269MOL0    Cl36224   3.805   9.131   4.879 -0.3869 -0.0440 -0.3972
  269MOL0     C36225   4.106   9.361   5.682  0.9143 -0.0120 -0.9039
  269MOL0     C36226   4.206   9.438   5.630 -0.3151 -0.4986 -0.0560
  269MOL0     O36227   4.406   9.620   5.804 -0.3333  0.6688  0.6527
  269MOL0     C36228   4.550   9.613   5.467  0.4416  0.4541  0.6939
  269MOL0     C36229   4.673   9.584   5.404 -0.1705  0.3444  0.1681
  269MOL0     N36230   5.416   9.058   5.447 -0.5847  0.1350 -0.0487
  269MOL0     N36231   5.509   9.013   5.526 -1.5947 -0.2914  0.2069
  269MOL0     C36232   6.401   9.252   5.753  0.0130  0.1171 -0.6818
  269MOL0     C36233   6.463   9.365   5.697 -1.2655  0.4095 -0.2860
  269MOL0     C36234   6.771   9.590   5.452 -0.4825 -0.3563 -0.3391
  269MOL0     C36235   6.860   9.634   5.559 -0.1792 -0.0271  0.7503
  269MOL0     C36236   6.944   9.750   5.536  0.7405  1.2877  0.0513
  269MOL0     C36237   6.937   9.828   5.427  0.6015 -0.1932 -1.6272
  269MOL0     O36238   7.015   9.947   5.406 -0.6664  0.3493  0.4651
  269MOL0     C36239   7.126   9.916   5.317  0.1178  0.3260 -0.4423
  269MOL0     C36240   7.253   9.911   5.410  0.5927 -0.6912  0.7782
  269MOL0     C36241   7.377   9.859   5.332  0.7056  0.4503  0.7888
  269MOL0     C36242   7.455   9.971   5.281 -1.5312 -0.1614  0.6745
  269MOL0     C36243   7.516  10.055   5.382  0.6325 -0.1987  1.0246
  269MOL0     C36244   7.568  10.150   5.442 -0.2320  0.3726  0.7273
  269MOL0     C36245   6.862   9.774   5.316 -0.7883 -0.0150 -0.1295
  269MOL0     C36246   6.774   9.669   5.330 -0.2187  0.4622  0.1719
  269MOL0     C36247   6.689   9.658   5.209  0.9506 -1.1108 -0.4394
  269MOL0     H36248   6.740   9.208   5.584 -1.1243  1.9666 -2.5085
  269MOL0     H36249   6.624   9.006   5.693  0.3909  0.2723 -1.3804
  269MOL0     H36250   6.457   8.864   5.708 -0.0106 -3.5564  1.5202
  269MOL0     H36251   6.517   8.876   5.871 -1.2374 -1.3475  2.1451
  269MOL0     H36252   6.285   8.816   5.940 -1.7438  3.9988 -1.8717
  269MOL0     H36253   6.352   8.678   5.852 -0.7384 -0.3526 -1.2832
  269MOL0     H36254   6.133   8.707   5.793  2.2200  0.5759  2.7373
  269MOL0     H36255   6.237   8.740   5.651 -1.3418  1.8740 -1.7774
  269MOL0     H36256   6.159   8.952   5.850  1.8323 -1.0484  0.0381
  269MOL0     H36257   6.172   8.971   5.671  0.2910  0.8305  0.8481
  269MOL0     H36258   5.973   8.878   5.617  3.7362  1.3849 -0.6723
  269MOL0     H36259   5.933   8.815   5.784 -0.1904  1.9373  2.4406
  269MOL0     H36260   5.889   9.013   5.880  1.9211 -0.1188  0.6716
  269MOL0     H36261   5.941   9.098   5.741  0.2705  0.0516  1.9285
  269MOL0     H36262   5.692   8.918   5.744 -2.4511  4.6521  2.3463
  269MOL0     H36263   5.785   8.953   5.594  0.4980  2.5289 -2.2601
  269MOL0     H36264   5.687   9.160   5.781 -2.3849 -0.6155  0.1067
  269MOL0     H36265   5.742   9.199   5.616  1.0426  0.4965  2.2109
  269MOL0     H36266   5.495   9.316   5.632  2.4275 -0.9971  0.0112
  269MOL0     H36267   5.250   9.345   5.542 -1.5042  1.0731 -1.2201
  269MOL0     H36268   5.299   9.332   5.374 -1.8031  1.5968  0.4248
  269MOL0     H36269   5.129   9.130   5.350 -3.3450 -1.9551  0.7667
  269MOL0     H36270   5.086   9.165   5.517  2.7992 -2.4830  0.7007
  269MOL0     H36271   4.948   9.256   5.339 -0.9548  0.3563 -1.3647
  269MOL0     H36272   5.077   9.375   5.291 -1.8900  3.4319  2.2715
  269MOL0     H36273   5.061   9.483   5.529  0.5764 -0.2091  1.2890
  269MOL0     H36274   4.945   9.358   5.562  0.3638  1.2334  0.3542
  269MOL0     H36275   4.884   9.571   5.660  0.6752 -0.3199 -0.1490
  269MOL0     H36276   4.661   9.625   5.784  1.4206  1.4534 -0.0103
  269MOL0     H36277   4.102   9.748   5.714  0.3658 -0.7243  1.2875
  269MOL0     H36278   3.902   9.623   5.793  0.7643 -1.2785  1.7975
  269MOL0     H36279   3.722   9.286   5.805  1.5990 -1.7155 -0.4915
  269MOL0     H36280   3.707   9.464   5.778 -1.1480  0.1149 -0.7081
  269MOL0     H36281   3.676   9.380   5.539 -1.1451 -1.4836  1.6690
  269MOL0     H36282   3.841   9.407   5.555  0.2720  1.3874  2.1698
  269MOL0     H36283   3.815   9.134   5.628 -0.1849 -0.6857  0.5857
  269MOL0     H36284   3.650   9.154   5.578  0.0415  0.6897 -0.7958
  269MOL0     H36285   3.893   9.189   5.396  0.3033  0.5523  0.0105
  269MOL0     H36286   3.734   9.242   5.358  1.5359 -1.1679 -2.0193
  269MOL0     H36287   3.621   9.047   5.351  0.6684 -0.0238 -0.2766
  269MOL0     H36288   3.748   8.957   5.448  1.9439  0.4435  0.5946
  269MOL0     H36289   3.880   9.056   5.234 -2.6251  3.6348 -1.2469
  269MOL0     H36290   3.804   8.887   5.225 -5.4651 -1.1432 -2.2064
  269MOL0     H36291   3.706   9.147   5.097 -1.0125 -0.7995 -0.6375
  269MOL0     H36292   3.609   9.014   5.106 -1.8043  3.6302 -1.0209
  269MOL0     H36293   3.880   8.942   5.002  0.3187 -1.7297 -2.7803
  269MOL0     H36294   3.718   8.911   4.940 -0.8249  1.5223 -2.5401
  269MOL0     H36295   4.112   9.253   5.694  0.9202  0.2480  2.7998
  269MOL0     H36296   4.296   9.393   5.590 -0.2858 -0.3397 -0.1707
  269MOL0     H36297   4.461   9.644   5.413  0.3936 -1.3448 -0.3572
  269MOL0     H36298   4.695   9.577   5.297 -1.6134 -2.6608 -0.0277
  269MOL0     H36299   6.309   9.281   5.804  0.9419 -1.7059  2.2982
  269MOL0     H36300   6.432   9.467   5.712  2.5371  1.5131  1.2585
  269MOL0     H36301   6.861   9.598   5.661 -4.1031 -3.1347 -0.0821
  269MOL0     H36302   7.014   9.771   5.616  2.6982 -0.2697 -1.1355
  269MOL0     H36303   7.126  10.006   5.255 -1.1228  1.6807  1.4113
  269MOL0     H36304   7.109   9.831   5.251 -0.2256  0.7650 -0.9269
  269MOL0     H36305   7.230   9.860   5.504 -0.0211  2.0302  2.2012
  269MOL0     H36306   7.264  10.015   5.442  0.9667  0.3719 -2.4301
  269MOL0     H36307   7.343   9.793   5.252  0.4590  0.6533  0.7252
  269MOL0     H36308   7.441   9.800   5.398  0.2592  2.6287  3.3906
  269MOL0     H36309   7.539   9.936   5.220  0.9443  1.6380  2.8203
  269MOL0     H36310   7.394  10.031   5.212  2.1504  1.8829 -1.0966
  269MOL0     H36311   7.618  10.227   5.496 -0.9869  1.5346 -0.1923
  269MOL0     H36312   6.877   9.821   5.219  3.8678 -3.3742 -1.4216
  269MOL0     H36313   6.596   9.603   5.225  1.6391 -1.6826  2.1132
  269MOL0     H36314   6.652   9.758   5.183 -0.4583 -1.2628  0.8317
  269MOL0     H36315   6.743   9.623   5.121 -3.3632 -3.5728 -2.3792
  270MOL0     O36316  11.230   7.779   8.536  0.2420  0.0979  0.1889
  270MOL0     C36317  11.179   7.834   8.635  0.5825 -0.5497  0.3806
  270MOL0     O36318  11.249   7.907   8.731 -0.1036 -0.3278  1.0767
  270MOL0     C36319  11.380   7.941   8.699  0.1395 -0.4468  0.0672
  270MOL0     C36320  11.477   7.896   8.789 -0.2626  0.3417 -0.4139
  270MOL0     C36321  11.614   7.928   8.759  0.2621  0.0659 -0.7790
  270MOL0     C36322  11.645   8.006   8.649 -0.1430  0.5992 -0.7019
  270MOL0     O36323  11.778   8.036   8.624  0.1588  0.4872  0.0828
  270MOL0     C36324  11.876   7.933   8.621 -0.2162  0.9122  0.0466
  270MOL0     C36325  11.994   7.983   8.547  0.4105  0.0316  0.4340
  270MOL0     C36326  12.089   7.859   8.512  0.2010 -0.0056 -0.3929
  270MOL0     C36327  12.207   7.904   8.435 -0.8183 -0.2343  0.6174
  270MOL0     C36328  12.310   7.795   8.395  0.2957  0.2730  0.1186
  270MOL0     C36329  12.264   7.706   8.281 -0.3400  0.2706 -0.4863
  270MOL0     C36330  12.354   7.577   8.273  0.6687  0.4976  0.4021
  270MOL0     C36331  12.504   7.615   8.255  0.0289 -0.2307 -0.2027
  270MOL0     N36332  12.528   7.715   8.149 -0.2581  0.2105 -0.5900
  270MOL0     C36333  12.596   7.831   8.175  0.1951 -0.6687  0.7108
  270MOL0     C36334  12.615   7.886   8.054  0.6194  0.3562  0.5211
  270MOL0     C36335  12.696   8.013   8.019 -0.9181 -0.5593  0.0687
  270MOL0     C36336  12.714   8.044   7.872  0.4754  0.8334  0.1659
  270MOL0     C36337  12.850   7.986   7.821  0.5054  0.3860  0.3571
  270MOL0     C36338  12.968   8.063   7.881  0.2578 -0.3679  0.0960
  270MOL0     O36339  13.080   8.051   7.794  0.5827  0.6585  0.0077
  270MOL0     C36340  13.102   8.151   7.710 -0.3518 -0.6208  0.1405
  270MOL0     C36341  12.993   8.236   7.663  0.6755  0.0697 -0.9756
  270MOL0     C36342  13.024   8.336   7.568  0.6505 -0.2736 -0.3940
  270MOL0     C36343  13.155   8.355   7.520  0.0115  0.3427 -0.1978
  270MOL0     C36344  13.177   8.463   7.422  0.0149 -0.7506 -0.0024
  270MOL0     O36345  13.060   8.510   7.375 -0.1564 -0.7380  0.0865
  270MOL0     C36346  13.048   8.580   7.260 -0.3085  0.6319  0.5479
  270MOL0     C36347  12.967   8.695   7.266 -0.0342 -0.2885 -1.2302
  270MOL0     C36348  12.929   8.758   7.145 -0.0491 -0.0238  1.0775
  270MOL0     C36349  12.991   8.721   7.025 -0.0943  0.2960  0.2100
  270MOL0     O36350  12.957   8.760   6.900  0.3909 -0.9059 -0.0372
  270MOL0     C36351  12.870   8.874   6.874 -0.0991  0.2820 -0.1231
  270MOL0     C36352  12.921   9.009   6.930 -1.4733  0.6501  0.1624
  270MOL0     C36353  12.856   9.131   6.866 -0.5803  0.5612  0.1592
  270MOL0     C36354  12.893   9.149   6.719  0.0134 -1.0601 -0.6389
  270MOL0     C36355  12.865   9.306   6.684  1.1105  0.1741  0.0886
  270MOL0     C36356  12.714   9.338   6.663 -0.5265  0.1990 -0.1319
  270MOL0     C36357  12.663   9.451   6.751 -0.4901 -0.1551  0.1232
  270MOL0     C36358  12.502   9.464   6.760  0.0325  0.0759 -0.7522
  270MOL0    Cl36359  12.420   9.534   6.615 -0.0500  0.1145  0.2817
  270MOL0     C36360  13.087   8.615   7.024  0.2886  0.5335  0.3187
  270MOL0     C36361  13.106   8.540   7.137 -0.3135  0.0253 -0.3906
  270MOL0     O36362  13.287   8.489   7.370 -0.1746 -0.1507 -0.3014
  270MOL0     C36363  13.259   8.283   7.572 -0.4890 -0.0125 -0.6103
  270MOL0     C36364  13.238   8.182   7.668 -0.0177  0.8282  0.1822
  270MOL0     N36365  12.556   7.806   7.955  0.3962 -0.3195 -0.7168
  270MOL0     N36366  12.504   7.709   8.019  0.5809  0.1993 -0.4423
  270MOL0     C36367  11.541   8.060   8.575 -0.8537  0.2521  0.5518
  270MOL0     C36368  11.410   8.023   8.592 -0.2615 -0.5094  0.6736
  270MOL0     C36369  11.034   7.806   8.667 -0.3173 -0.7611  1.5626
  270MOL0     C36370  10.980   7.898   8.747  0.5274  0.5467 -0.7577
  270MOL0     C36371  10.844   7.891   8.778  0.5476  0.3031 -0.2834
  270MOL0     C36372  10.753   7.802   8.727 -0.5644 -0.6204  0.4705
  270MOL0     O36373  10.623   7.804   8.763 -0.9118 -0.1919 -0.0048
  270MOL0     C36374  10.550   7.681   8.794  0.8093 -0.8940 -0.2833
  270MOL0     C36375  10.617   7.617   8.917 -0.5456  1.1314  0.0440
  270MOL0     C36376  10.617   7.718   9.036  1.3034 -0.6793 -0.7106
  270MOL0     C36377  10.478   7.783   9.072 -0.4145  0.5054  0.3620
  270MOL0     C36378  10.516   7.883   9.164 -0.5034  0.0583  0.3936
  270MOL0     C36379  10.551   7.957   9.249 -0.2216 -0.7225 -0.6893
  270MOL0     C36380  10.807   7.701   8.643  0.4208 -0.2795  0.1702
  270MOL0     C36381  10.953   7.699   8.611 -0.0265  0.7527 -0.4194
  270MOL0     C36382  11.013   7.581   8.535  0.6734 -0.1802  0.0153
  270MOL0     H36383  11.444   7.853   8.884 -1.6459  1.0292 -0.5523
  270MOL0     H36384  11.699   7.903   8.822  2.0714 -2.1434 -3.8117
  270MOL0     H36385  11.910   7.898   8.719 -3.9568 -0.5334  1.0098
  270MOL0     H36386  11.842   7.842   8.572  2.9680  0.6269 -1.9332
  270MOL0     H36387  12.038   8.064   8.605  2.0053 -0.0950 -0.5187
  270MOL0     H36388  11.959   8.012   8.447 -0.8044  1.9458  1.3797
  270MOL0     H36389  12.031   7.776   8.470  1.8551  0.2367 -3.4660
  270MOL0     H36390  12.137   7.836   8.607  0.5506  1.5329 -0.1703
  270MOL0     H36391  12.172   7.953   8.343  2.4412 -0.3739 -0.8249
  270MOL0     H36392  12.254   7.985   8.490  1.2500 -2.2289  1.9910
  270MOL0     H36393  12.399   7.849   8.362 -0.9226  2.6126  0.5191
  270MOL0     H36394  12.319   7.734   8.485  1.4341  0.2965  0.0362
  270MOL0     H36395  12.159   7.677   8.297 -0.3336  0.6879  0.3881
  270MOL0     H36396  12.265   7.768   8.191  2.7847  2.1768  0.6942
  270MOL0     H36397  12.323   7.526   8.181  0.1682  2.9618 -0.9047
  270MOL0     H36398  12.338   7.523   8.366 -3.2102 -0.3554 -0.6123
  270MOL0     H36399  12.527   7.651   8.355  0.5631 -4.4452  1.4124
  270MOL0     H36400  12.570   7.531   8.232  3.3619  2.3355 -0.8050
  270MOL0     H36401  12.634   7.873   8.267  1.0943 -0.1563  0.1217
  270MOL0     H36402  12.653   8.106   8.058  0.7465  0.1004  0.4103
  270MOL0     H36403  12.792   7.994   8.068  1.0567 -0.5196 -3.4568
  270MOL0     H36404  12.631   8.004   7.814  2.2981 -1.1877 -1.2060
  270MOL0     H36405  12.725   8.153   7.862 -1.3007  0.9549 -0.8385
  270MOL0     H36406  12.841   7.993   7.713 -2.1105 -1.2130  0.3744
  270MOL0     H36407  12.860   7.879   7.842  0.8319  0.3615  0.0752
  270MOL0     H36408  12.990   8.020   7.979  0.6605  1.6398  0.9488
  270MOL0     H36409  12.945   8.168   7.904  5.5112  1.5289 -1.8661
  270MOL0     H36410  12.886   8.225   7.679  1.2739 -0.8435  3.8823
  270MOL0     H36411  12.938   8.397   7.540  0.8344 -0.0107 -0.3950
  270MOL0     H36412  12.917   8.718   7.360 -3.9992  1.3884 -3.4932
  270MOL0     H36413  12.864   8.844   7.148  4.3098  3.6437  2.2582
  270MOL0     H36414  12.857   8.881   6.766  3.2171 -0.9847 -0.7180
  270MOL0     H36415  12.773   8.860   6.922 -1.2514  1.3058 -2.0532
  270MOL0     H36416  12.914   9.020   7.039 -1.6394 -1.3436  0.3788
  270MOL0     H36417  13.029   9.017   6.915 -1.1546 -1.1219  1.2814
  270MOL0     H36418  12.749   9.111   6.880 -0.5198 -0.7104 -1.0177
  270MOL0     H36419  12.884   9.225   6.914 -1.5879 -0.6438  3.3935
  270MOL0     H36420  12.825   9.086   6.661  1.9104 -3.1523 -0.6826
  270MOL0     H36421  12.990   9.114   6.685 -1.0190 -3.7293 -1.0434
  270MOL0     H36422  12.925   9.336   6.597 -2.6536  1.5050 -2.2778
  270MOL0     H36423  12.902   9.369   6.766  0.4115  0.0447  0.5120
  270MOL0     H36424  12.702   9.364   6.557  0.4398 -0.3411 -0.3815
  270MOL0     H36425  12.652   9.253   6.693  2.2914 -1.0642  2.6550
  270MOL0     H36426  12.709   9.546   6.723 -0.1767 -0.0007  1.1449
  270MOL0     H36427  12.690   9.419   6.852  1.3200 -1.2586 -0.6501
  270MOL0     H36428  12.456   9.365   6.766 -1.3812  0.7840  1.1586
  270MOL0     H36429  12.469   9.526   6.843  1.5343  0.1145 -0.1560
  270MOL0     H36430  13.135   8.572   6.936 -3.8541 -1.2378 -1.3379
  270MOL0     H36431  13.175   8.457   7.128 -0.6990 -0.1738 -1.7491
  270MOL0     H36432  13.361   8.303   7.539 -0.9967  1.4739 -1.3726
  270MOL0     H36433  13.327   8.126   7.697 -1.3719 -0.3683  2.2441
  270MOL0     H36434  11.569   8.136   8.502 -0.4078 -1.6439 -1.3553
  270MOL0     H36435  11.322   8.049   8.534 -1.5238  2.7058  3.6866
  270MOL0     H36436  11.029   7.972   8.811 -1.4222  1.8979 -0.7482
  270MOL0     H36437  10.815   7.967   8.849  0.1822  0.9766 -1.1406
  270MOL0     H36438  10.542   7.615   8.708  0.1778  0.5187 -1.3436
  270MOL0     H36439  10.451   7.715   8.824  1.1380 -0.2695  0.1322
  270MOL0     H36440  10.718   7.582   8.896  0.1530  3.2925 -0.4896
  270MOL0     H36441  10.560   7.527   8.942 -0.2370  0.7608 -0.5762
  270MOL0     H36442  10.687   7.798   9.010 -1.6978  1.6688 -2.1959
  270MOL0     H36443  10.659   7.667   9.123  0.3940 -0.6451 -0.2390
  270MOL0     H36444  10.428   7.835   8.990 -2.0330 -2.1804 -0.4750
  270MOL0     H36445  10.414   7.705   9.116  0.6113 -0.2561  0.5401
  270MOL0     H36446  10.600   8.014   9.325 -2.3947  1.6329 -0.8895
  270MOL0     H36447  10.746   7.625   8.597  0.7030 -1.3934  1.5862
  270MOL0     H36448  11.040   7.614   8.434  1.2901  2.0170  0.8411
  270MOL0     H36449  11.108   7.561   8.585  1.1541  0.3151 -0.6736
  270MOL0     H36450  10.949   7.494   8.524  4.0892 -2.7895 -1.0991
  271MOL0     O36451   8.447  10.839   8.785  0.0786  0.8161  0.3657
  271MOL0     C36452   8.494  10.951   8.766 -0.2394  0.6499  0.3183
  271MOL0     O36453   8.429  11.059   8.718  0.7328 -0.2737 -0.1974
  271MOL0     C36454   8.295  11.070   8.692  1.4004  0.3154  0.2372
  271MOL0     C36455   8.199  10.968   8.705 -0.5361 -0.2730  1.0571
  271MOL0     C36456   8.062  10.994   8.699 -1.0249 -0.2800  0.1946
  271MOL0     C36457   8.011  11.130   8.679  0.1377  0.6774 -0.1858
  271MOL0     O36458   7.881  11.172   8.671  0.4086 -0.0683 -1.2454
  271MOL0     C36459   7.778  11.070   8.693 -0.3778 -0.9961 -0.0646
  271MOL0     C36460   7.640  11.136   8.707  0.2872  0.0884 -0.3662
  271MOL0     C36461   7.571  11.151   8.563 -0.4519  0.3387 -0.3411
  271MOL0     C36462   7.491  11.026   8.516 -0.3198 -0.4783 -0.3903
  271MOL0     C36463   7.431  11.040   8.374 -0.4017  0.4536  0.9125
  271MOL0     C36464   7.360  10.910   8.331  0.0301  0.0992 -0.3629
  271MOL0     C36465   7.256  10.928   8.220  0.4275  0.2160  0.1304
  271MOL0     C36466   7.188  10.796   8.174 -0.0609  0.4675  0.4488
  271MOL0     N36467   7.122  10.786   8.040  0.4938  0.5696  0.5440
  271MOL0     C36468   7.172  10.810   7.908  0.0766  0.0460 -0.1354
  271MOL0     C36469   7.073  10.774   7.823  1.0830  0.0966  0.4811
  271MOL0     C36470   7.073  10.765   7.674  0.2786 -0.8783  0.4325
  271MOL0     C36471   7.030  10.897   7.614 -0.4472  0.0840 -1.0700
  271MOL0     C36472   7.019  10.902   7.458  0.9588  0.6020 -1.0326
  271MOL0     C36473   6.990  11.049   7.420 -0.4395  0.1940  0.3847
  271MOL0     O36474   6.976  11.062   7.287  0.4031 -0.2453  0.3290
  271MOL0     C36475   6.960  11.192   7.257 -0.2077 -1.2338  0.7810
  271MOL0     C36476   6.848  11.227   7.184  0.2181  0.6784  0.9262
  271MOL0     C36477   6.821  11.357   7.142 -1.0043  0.7671  0.3604
  271MOL0     C36478   6.918  11.456   7.164  0.7401  0.0033 -0.1719
  271MOL0     C36479   6.882  11.581   7.100 -0.5136 -0.3830 -0.6872
  271MOL0     O36480   6.772  11.594   7.013 -0.5906 -0.1377 -0.3853
  271MOL0     C36481   6.757  11.683   6.913 -0.6164 -0.5111  0.6353
  271MOL0     C36482   6.632  11.734   6.874  0.3659 -1.1503 -0.2819
  271MOL0     C36483   6.610  11.815   6.770  0.2124 -0.0928 -0.0778
  271MOL0     C36484   6.716  11.850   6.688 -0.0635 -0.3792  0.2849
  271MOL0     O36485   6.694  11.923   6.576  0.7339 -0.3573  0.8195
  271MOL0     C36486   6.561  11.980   6.565 -0.2021 -0.4277 -0.3300
  271MOL0     C36487   6.553  12.069   6.440  0.6434 -0.2221 -0.3073
  271MOL0     C36488   6.434  12.170   6.442  0.5313  0.2358  0.7682
  271MOL0     C36489   6.425  12.258   6.308  0.7190 -0.6440 -1.1702
  271MOL0     C36490   6.324  12.377   6.339  0.0634 -0.0016 -0.2411
  271MOL0     C36491   6.167  12.342   6.348  0.5231 -0.6823  0.5499
  271MOL0     C36492   6.095  12.288   6.219  0.3311 -0.4675 -0.7767
  271MOL0     C36493   5.990  12.177   6.242  0.3104 -0.5250 -0.3417
  271MOL0    Cl36494   5.843  12.239   6.341  0.1540 -0.0775  0.2797
  271MOL0     C36495   6.849  11.808   6.720 -0.1022 -0.2778 -0.6494
  271MOL0     C36496   6.865  11.719   6.835  0.0450 -0.3183 -0.0472
  271MOL0     O36497   6.975  11.665   7.102 -0.4194  0.7618 -0.0186
  271MOL0     C36498   7.028  11.424   7.234 -0.0313 -1.1532 -0.7399
  271MOL0     C36499   7.051  11.298   7.284 -0.0698 -0.3993 -1.2562
  271MOL0     N36500   6.958  10.736   7.900 -0.0032 -0.8523 -0.0996
  271MOL0     N36501   6.991  10.752   8.026  0.2637 -1.8162 -0.4334
  271MOL0     C36502   8.103  11.227   8.660 -0.1979 -0.0834 -0.7294
  271MOL0     C36503   8.243  11.203   8.671 -0.1591 -0.1231  0.3317
  271MOL0     C36504   8.625  10.977   8.831 -0.4524  0.2340 -0.4317
  271MOL0     C36505   8.639  11.100   8.899  0.2584 -0.4237  0.6985
  271MOL0     C36506   8.760  11.142   8.958  0.7902 -0.4182  0.5491
  271MOL0     C36507   8.879  11.072   8.949 -0.0894  0.7612  0.8986
  271MOL0     O36508   8.979  11.120   9.021 -0.6826  0.2512 -0.1592
  271MOL0     C36509   9.103  11.109   8.959 -0.2875 -0.4445  0.6833
  271MOL0     C36510   9.215  11.166   9.041  0.6865 -0.5795  0.7926
  271MOL0     C36511   9.189  11.318   9.051  0.7103  0.5880  0.2662
  271MOL0     C36512   9.206  11.395   8.920 -0.2464  0.3320  0.4323
  271MOL0     C36513   9.205  11.539   8.942 -0.2894 -0.1243 -0.3676
  271MOL0     C36514   9.223  11.661   8.956 -0.7122  0.2611 -0.8560
  271MOL0     C36515   8.869  10.949   8.892 -0.8309  0.6505  0.1543
  271MOL0     C36516   8.749  10.904   8.834  0.6047  0.5551  0.3225
  271MOL0     C36517   8.749  10.776   8.751  0.4052 -0.4899  0.1071
  271MOL0     H36518   8.223  10.863   8.713  0.8956 -0.2215 -1.5285
  271MOL0     H36519   7.993  10.911   8.708 -0.2367 -0.9839 -0.1317
  271MOL0     H36520   7.778  10.995   8.614  0.2481  1.2653 -2.3409
  271MOL0     H36521   7.794  11.007   8.781 -0.8077  0.0523  0.7891
  271MOL0     H36522   7.644  11.232   8.759 -0.9126 -0.8526  1.5989
  271MOL0     H36523   7.578  11.064   8.763 -1.5533 -0.4396 -2.8994
  271MOL0     H36524   7.660  11.148   8.499  1.6539 -0.5154  2.4422
  271MOL0     H36525   7.508  11.240   8.564  1.0477  1.4303  1.5642
  271MOL0     H36526   7.563  10.944   8.516  0.4132  0.1386  0.5813
  271MOL0     H36527   7.423  11.013   8.601 -0.5898 -0.2374 -0.5642
  271MOL0     H36528   7.366  11.128   8.376  0.8322  1.3936  0.7534
  271MOL0     H36529   7.516  11.048   8.306  0.1005 -0.1232  1.4449
  271MOL0     H36530   7.434  10.839   8.293  1.3433  0.2974  1.6988
  271MOL0     H36531   7.300  10.864   8.410 -0.8218  1.0368 -0.4459
  271MOL0     H36532   7.307  10.969   8.132  0.0271 -1.5754 -0.9921
  271MOL0     H36533   7.177  10.995   8.254 -2.9361 -2.1178 -2.3362
  271MOL0     H36534   7.253  10.708   8.183  1.1477  1.5060  2.5957
  271MOL0     H36535   7.117  10.780   8.255  0.5598  5.3468  2.3034
  271MOL0     H36536   7.273  10.844   7.887  0.2439 -0.6138 -0.4420
  271MOL0     H36537   7.177  10.741   7.652  0.9023  0.1865  2.0486
  271MOL0     H36538   7.004  10.684   7.647  1.2614 -1.6913  0.3308
  271MOL0     H36539   6.935  10.925   7.660 -0.0808 -3.9828  2.7233
  271MOL0     H36540   7.105  10.969   7.647 -0.5735  0.5864 -1.8322
  271MOL0     H36541   6.935  10.839   7.430  1.0816  0.6458 -1.5033
  271MOL0     H36542   7.106  10.866   7.402 -1.2802  0.4376 -4.6949
  271MOL0     H36543   7.066  11.114   7.465  0.7809 -1.6790  1.1123
  271MOL0     H36544   6.898  11.075   7.474 -0.1317  1.4114  0.3526
  271MOL0     H36545   6.779  11.147   7.157  1.7459  0.8624 -4.6152
  271MOL0     H36546   6.736  11.369   7.076 -1.0346 -0.8107  0.0753
  271MOL0     H36547   6.544  11.703   6.929 -1.4293 -1.1224 -2.9590
  271MOL0     H36548   6.505  11.840   6.758 -0.5597 -1.3344  3.1552
  271MOL0     H36549   6.488  11.904   6.537 -1.5754  0.9038 -0.4788
  271MOL0     H36550   6.522  12.032   6.653 -1.2753 -1.6662 -0.0461
  271MOL0     H36551   6.653  12.113   6.435  0.3977  0.7041  1.8796
  271MOL0     H36552   6.538  12.011   6.349 -1.3062 -2.6919  1.4564
  271MOL0     H36553   6.341  12.115   6.462 -1.6328  4.0822  2.2770
  271MOL0     H36554   6.452  12.231   6.531  0.1021  1.7175 -0.1392
  271MOL0     H36555   6.406  12.191   6.223  2.6818 -2.5398 -0.2106
  271MOL0     H36556   6.522  12.303   6.284  0.7514  0.8364  1.4508
  271MOL0     H36557   6.337  12.453   6.262 -0.3151 -0.0675 -0.3711
  271MOL0     H36558   6.367  12.422   6.429  1.4861  2.7247 -2.1534
  271MOL0     H36559   6.161  12.269   6.429  2.2465 -1.0015  0.4409
  271MOL0     H36560   6.129  12.441   6.377  0.7395 -0.1116 -1.0054
  271MOL0     H36561   6.169  12.246   6.149  0.6877 -2.3066  0.6275
  271MOL0     H36562   6.051  12.380   6.179 -0.4960 -0.0632  0.9726
  271MOL0     H36563   5.962  12.132   6.146  1.1856 -0.1180 -0.7965
  271MOL0     H36564   6.029  12.092   6.298 -0.1242 -3.5593 -4.1677
  271MOL0     H36565   6.942  11.842   6.676  0.9415 -3.3682 -1.0945
  271MOL0     H36566   6.966  11.686   6.855  1.6432 -0.0479 -5.8986
  271MOL0     H36567   7.101  11.501   7.259 -1.4009 -1.0366  3.7637
  271MOL0     H36568   7.140  11.287   7.344  2.5938  3.5059 -4.0446
  271MOL0     H36569   8.083  11.331   8.634  0.8114 -0.0646 -1.5253
  271MOL0     H36570   8.304  11.293   8.662 -1.9182  1.1123  0.0900
  271MOL0     H36571   8.552  11.164   8.912 -1.7966 -3.5956  5.7250
  271MOL0     H36572   8.763  11.233   9.017 -1.7687  0.2169 -0.1598
  271MOL0     H36573   9.096  11.150   8.857  0.5988 -1.4675  0.1908
  271MOL0     H36574   9.123  11.005   8.932 -2.5936 -0.5512 -0.9342
  271MOL0     H36575   9.306  11.154   8.982  0.7598  2.5112  0.1066
  271MOL0     H36576   9.227  11.110   9.135  4.0366 -0.6387  0.4736
  271MOL0     H36577   9.256  11.362   9.126  2.2198  0.7449 -1.1425
  271MOL0     H36578   9.086  11.332   9.085  0.7444  0.1682  0.5436
  271MOL0     H36579   9.301  11.375   8.868 -0.7201  1.4581 -0.9296
  271MOL0     H36580   9.123  11.367   8.855  0.7547  2.6142 -2.0142
  271MOL0     H36581   9.229  11.768   8.960 -1.6781  0.3889  4.3035
  271MOL0     H36582   8.955  10.883   8.890 -0.2176  1.3365  1.8436
  271MOL0     H36583   8.847  10.730   8.736  0.0120 -1.9413  1.6416
  271MOL0     H36584   8.696  10.699   8.808 -1.2136  0.6759  0.2785
  271MOL0     H36585   8.705  10.800   8.654  2.2754  1.7518 -0.2777
  272MOL0     O36586   4.367  11.035   2.317 -0.5837  0.4183  0.2721
  272MOL0     C36587   4.348  10.975   2.413 -0.2570  0.0262 -0.5339
  272MOL0     O36588   4.450  10.941   2.500  0.1398  0.9094 -0.4507
  272MOL0     C36589   4.577  10.976   2.480  0.1783 -0.5432 -0.1557
  272MOL0     C36590   4.630  11.108   2.476  0.2820 -0.6113  0.0307
  272MOL0     C36591   4.764  11.134   2.484  0.1479 -0.6687 -0.1160
  272MOL0     C36592   4.857  11.040   2.463 -0.4109  0.6813  0.0589
  272MOL0     O36593   4.987  11.079   2.456  0.3806  0.4881 -0.8597
  272MOL0     C36594   5.092  10.991   2.470 -0.6269 -0.7646 -0.0735
  272MOL0     C36595   5.228  11.077   2.470 -0.6596 -1.4111 -0.2360
  272MOL0     C36596   5.244  11.160   2.603 -0.3977 -0.1111 -0.1878
  272MOL0     C36597   5.298  11.303   2.592  0.5405 -0.0205 -0.6569
  272MOL0     C36598   5.198  11.396   2.513  0.2953  0.3774  0.2331
  272MOL0     C36599   5.235  11.547   2.516 -0.4740 -0.6110  0.8494
  272MOL0     C36600   5.213  11.619   2.651 -0.4627 -0.4200  0.2685
  272MOL0     C36601   5.089  11.575   2.724  0.4024  0.1766 -0.5156
  272MOL0     N36602   4.972  11.614   2.645 -0.5477 -0.1866 -0.4096
  272MOL0     C36603   4.943  11.744   2.599 -0.5715 -0.5996  0.4996
  272MOL0     C36604   4.814  11.724   2.538 -0.8628 -0.9223  0.8791
  272MOL0     C36605   4.730  11.823   2.449  0.6306  1.4720 -0.1029
  272MOL0     C36606   4.586  11.809   2.500  0.4075  0.2565  0.2986
  272MOL0     C36607   4.480  11.848   2.390 -0.0594  0.6059  0.2482
  272MOL0     C36608   4.335  11.806   2.443 -0.1429 -1.1733 -0.5201
  272MOL0     O36609   4.308  11.870   2.565 -0.1748 -0.5057  0.2484
  272MOL0     C36610   4.269  11.803   2.676  0.1990 -0.0723  0.2132
  272MOL0     C36611   4.231  11.669   2.675  1.0204  0.6760  0.3013
  272MOL0     C36612   4.167  11.618   2.792 -0.2835  0.3338  0.8146
  272MOL0     C36613   4.156  11.696   2.904 -0.5075 -0.7793 -0.2625
  272MOL0     C36614   4.102  11.639   3.027  0.4972  0.3130 -0.8419
  272MOL0     O36615   4.112  11.503   3.038 -0.0773 -0.1020 -0.2669
  272MOL0     C36616   4.072  11.451   3.161  0.1800  0.5431  0.8697
  272MOL0     C36617   3.939  11.434   3.192  0.1643  0.1246  0.3722
  272MOL0     C36618   3.897  11.386   3.316  0.1563 -0.4203  1.0794
  272MOL0     C36619   3.991  11.332   3.407 -0.4336 -0.0166  0.4302
  272MOL0     O36620   3.945  11.264   3.514 -0.6702 -0.1874 -0.4520
  272MOL0     C36621   4.024  11.162   3.576 -0.7705  0.1817 -0.4497
  272MOL0     C36622   3.960  11.063   3.671 -0.0319  1.0677  0.3513
  272MOL0     C36623   4.050  10.944   3.700  0.4055 -0.4777 -0.5754
  272MOL0     C36624   3.984  10.829   3.781  0.1339  0.4711 -0.3412
  272MOL0     C36625   3.894  10.740   3.699  0.7355 -0.2803  0.4183
  272MOL0     C36626   3.825  10.628   3.787 -0.4489  0.3247 -0.1239
  272MOL0     C36627   3.894  10.557   3.905 -0.0386  0.2656  0.6236
  272MOL0     C36628   3.800  10.447   3.951  0.1188  0.1725  0.8524
  272MOL0    Cl36629   3.677  10.531   4.057 -0.3782 -0.3320  0.3865
  272MOL0     C36630   4.125  11.350   3.376  0.6674 -0.7069  0.2454
  272MOL0     C36631   4.169  11.397   3.252  0.3723 -0.3679 -0.7712
  272MOL0     O36632   4.054  11.710   3.107  1.1347  0.0141 -0.0326
  272MOL0     C36633   4.197  11.831   2.902 -0.2588  0.2248  0.8716
  272MOL0     C36634   4.255  11.873   2.789  0.5511 -0.0834 -0.0142
  272MOL0     N36635   4.788  11.594   2.528 -0.0295 -0.4033 -0.4569
  272MOL0     N36636   4.887  11.526   2.581 -1.4575  0.0661  0.1126
  272MOL0     C36637   4.810  10.909   2.450  0.6064 -1.2098 -0.0408
  272MOL0     C36638   4.674  10.873   2.463  0.1860 -0.5279  0.7603
  272MOL0     C36639   4.205  10.950   2.445  0.5650  0.1751  0.0554
  272MOL0     C36640   4.172  10.933   2.577  0.0683  0.1159 -0.5840
  272MOL0     C36641   4.045  10.926   2.625  0.7367 -0.0799  1.2474
  272MOL0     C36642   3.938  10.913   2.532 -0.9820 -0.9988  0.2899
  272MOL0     O36643   3.811  10.867   2.562 -0.0183  0.7126 -0.4281
  272MOL0     C36644   3.796  10.788   2.678  0.5460  0.8444  0.5293
  272MOL0     C36645   3.651  10.771   2.704  0.6546  0.0762  0.5844
  272MOL0     C36646   3.582  10.681   2.602 -0.8530  0.5515 -0.6391
  272MOL0     C36647   3.434  10.651   2.616  1.3150  0.1427 -1.5096
  272MOL0     C36648   3.382  10.621   2.749 -0.9604  0.6559 -0.2240
  272MOL0     C36649   3.327  10.594   2.858 -0.0646 -1.0298  0.7625
  272MOL0     C36650   3.967  10.930   2.392 -0.5602 -0.2236 -0.4465
  272MOL0     C36651   4.101  10.949   2.345 -0.9504  0.5360  0.0601
  272MOL0     C36652   4.114  10.970   2.205 -0.8900 -0.3461 -0.0389
  272MOL0     H36653   4.550  11.181   2.473  2.2646  1.6697 -1.5672
  272MOL0     H36654   4.800  11.235   2.506 -0.2601 -0.5721  0.1229
  272MOL0     H36655   5.095  10.939   2.566  1.4617  2.3664  1.7630
  272MOL0     H36656   5.107  10.916   2.392  6.5896  0.1084 -0.2162
  272MOL0     H36657   5.239  11.145   2.385 -1.1979 -1.6918 -0.5387
  272MOL0     H36658   5.308  11.002   2.467  1.2072  0.5195 -0.7369
  272MOL0     H36659   5.316  11.106   2.666 -2.4833 -1.8815  0.8105
  272MOL0     H36660   5.149  11.166   2.656  0.6832  0.1508  1.8235
  272MOL0     H36661   5.299  11.355   2.688  0.1005  1.6096 -1.4828
  272MOL0     H36662   5.389  11.279   2.538 -1.1579 -3.4594 -2.3271
  272MOL0     H36663   5.211  11.366   2.409  2.1650  0.1685  0.4822
  272MOL0     H36664   5.099  11.367   2.550  1.7882 -3.5092  1.7779
  272MOL0     H36665   5.336  11.558   2.478 -1.0768  1.9803 -0.2373
  272MOL0     H36666   5.165  11.585   2.441  0.3591  0.7329  0.7202
  272MOL0     H36667   5.217  11.726   2.630 -0.1364 -1.1414 -4.2714
  272MOL0     H36668   5.296  11.601   2.720 -1.5370 -1.2962  1.3854
  272MOL0     H36669   5.092  11.469   2.749  3.0694  0.4323  0.5240
  272MOL0     H36670   5.111  11.631   2.816  0.9645 -0.8291 -0.0262
  272MOL0     H36671   4.997  11.838   2.598  0.3538 -1.0512 -2.1930
  272MOL0     H36672   4.770  11.923   2.464 -0.0780  2.1158 -2.1375
  272MOL0     H36673   4.742  11.793   2.345  0.1477  0.4346  0.1254
  272MOL0     H36674   4.563  11.714   2.549  0.8815 -0.4835 -0.8839
  272MOL0     H36675   4.587  11.891   2.573  2.7410 -0.0267  0.6407
  272MOL0     H36676   4.493  11.784   2.302  0.2591  1.7607 -0.5688
  272MOL0     H36677   4.488  11.954   2.363 -3.0417  0.9512  0.3042
  272MOL0     H36678   4.320  11.697   2.447 -0.7246 -1.0642  0.5407
  272MOL0     H36679   4.258  11.847   2.377  0.8872  3.8585  1.0193
  272MOL0     H36680   4.229  11.592   2.598  0.5785  0.9713  0.0151
  272MOL0     H36681   4.126  11.518   2.800 -2.0464  1.1041  2.4336
  272MOL0     H36682   3.863  11.470   3.124  2.1538  1.2293 -1.3895
  272MOL0     H36683   3.790  11.384   3.337 -0.3818 -3.0349 -1.2705
  272MOL0     H36684   4.061  11.099   3.494  1.2694 -0.4459  0.8974
  272MOL0     H36685   4.105  11.209   3.631  0.6186 -0.0346 -2.2210
  272MOL0     H36686   3.955  11.113   3.768  0.7915 -1.7649  1.9821
  272MOL0     H36687   3.863  11.037   3.627  2.5396 -1.2216 -4.9250
  272MOL0     H36688   4.089  10.920   3.601  0.9218  2.1921 -1.0918
  272MOL0     H36689   4.125  10.994   3.762 -2.8293  0.3018  3.1267
  272MOL0     H36690   3.927  10.870   3.865  0.9573 -1.2423  1.1317
  272MOL0     H36691   4.072  10.779   3.824 -0.0298 -0.2636 -0.8452
  272MOL0     H36692   3.956  10.700   3.618 -0.3284  1.9023 -1.5769
  272MOL0     H36693   3.806  10.792   3.662  0.9323  0.6067  1.1519
  272MOL0     H36694   3.739  10.671   3.839 -1.4126 -1.9108  0.2503
  272MOL0     H36695   3.788  10.559   3.711 -1.5498  2.4844 -1.6625
  272MOL0     H36696   3.908  10.630   3.985  2.4177 -0.3627  0.8653
  272MOL0     H36697   3.996  10.522   3.886 -0.2389  0.4611 -0.9098
  272MOL0     H36698   3.759  10.393   3.866  2.0092  0.5668 -0.3856
  272MOL0     H36699   3.857  10.377   4.013 -2.4028 -2.3129  0.5603
  272MOL0     H36700   4.197  11.295   3.435 -0.7574 -1.2154  1.5802
  272MOL0     H36701   4.275  11.385   3.229  0.5930 -2.6154  1.0706
  272MOL0     H36702   4.197  11.875   3.002  2.6372 -0.3891  1.2460
  272MOL0     H36703   4.296  11.973   2.803 -1.8758  0.7968  1.2995
  272MOL0     H36704   4.896  10.844   2.436 -0.8011 -3.0824 -0.4451
  272MOL0     H36705   4.636  10.772   2.458 -1.8529  0.1940  0.4761
  272MOL0     H36706   4.230  10.930   2.668 -2.5093  3.1626  1.3598
  272MOL0     H36707   4.023  10.925   2.732  0.6302 -0.9471  1.2212
  272MOL0     H36708   3.842  10.839   2.764 -0.9730 -2.2725  3.4328
  272MOL0     H36709   3.836  10.686   2.679 -3.3471 -0.9434 -2.6425
  272MOL0     H36710   3.608  10.871   2.700  1.6276  0.5561  1.3909
  272MOL0     H36711   3.644  10.730   2.805  0.0440 -0.3930  0.3602
  272MOL0     H36712   3.629  10.583   2.594 -3.5334 -1.0147  1.3641
  272MOL0     H36713   3.599  10.726   2.503 -0.2047 -0.4179 -0.9831
  272MOL0     H36714   3.377  10.738   2.581  0.3885  1.1126  2.0174
  272MOL0     H36715   3.410  10.562   2.557 -0.9498  0.5423 -1.3099
  272MOL0     H36716   3.279  10.580   2.953 -1.0942 -1.6961  0.1674
  272MOL0     H36717   3.891  10.921   2.316  0.0966 -1.0723 -1.0202
  272MOL0     H36718   4.096  11.077   2.194  0.8612  0.3195  2.5614
  272MOL0     H36719   4.211  10.938   2.165 -2.3133 -2.3517 -2.1383
  272MOL0     H36720   4.036  10.925   2.143 -0.9520 -1.4565  0.8098
  273MOL0     O36721   5.587   7.091   7.371 -0.3867 -0.5641 -0.1941
  273MOL0     C36722   5.581   7.070   7.246  0.1526 -0.0800  0.3628
  273MOL0     O36723   5.614   7.159   7.147  0.8921 -1.2092 -0.5351
  273MOL0     C36724   5.631   7.291   7.185  0.3785  0.0502  0.0462
  273MOL0     C36725   5.540   7.387   7.139  0.3599 -0.0375 -0.2646
  273MOL0     C36726   5.565   7.531   7.165  0.3063  1.1843  0.4678
  273MOL0     C36727   5.670   7.562   7.253 -0.9678 -0.1512  0.9630
  273MOL0     O36728   5.679   7.690   7.298 -0.1668  0.4260  0.0077
  273MOL0     C36729   5.579   7.731   7.400  0.1685 -0.2998  1.1910
  273MOL0     C36730   5.647   7.833   7.493 -0.1266 -0.5269  1.1511
  273MOL0     C36731   5.535   7.908   7.562 -0.3191 -0.3727 -0.0883
  273MOL0     C36732   5.592   7.995   7.681 -0.3711  0.1855  0.4231
  273MOL0     C36733   5.479   8.058   7.760  0.6409  0.0724  0.5272
  273MOL0     C36734   5.526   8.175   7.851 -0.1353 -0.6242 -0.6422
  273MOL0     C36735   5.394   8.236   7.906  0.2265 -1.4952 -1.7824
  273MOL0     C36736   5.342   8.360   7.836  1.0303 -0.1598 -0.7216
  273MOL0     N36737   5.427   8.479   7.870 -0.8750  0.5428 -0.2584
  273MOL0     C36738   5.530   8.534   7.806 -0.4784 -0.2522 -0.2377
  273MOL0     C36739   5.582   8.632   7.883  0.9747  0.0999 -0.0883
  273MOL0     C36740   5.681   8.731   7.852  0.5275  0.6178  0.7252
  273MOL0     C36741   5.654   8.788   7.709  0.8040 -0.2900 -0.3585
  273MOL0     C36742   5.757   8.904   7.675 -0.1338 -0.4924  0.0069
  273MOL0     C36743   5.703   8.984   7.552  0.4700 -0.4545  0.7576
  273MOL0     O36744   5.791   8.973   7.436 -0.1964  0.1652  0.1220
  273MOL0     C36745   5.909   9.028   7.446  0.2194 -1.5466 -0.2545
  273MOL0     C36746   5.945   9.135   7.538  0.3038  0.2156 -0.3079
  273MOL0     C36747   6.071   9.188   7.546 -0.2552  1.0912  0.0015
  273MOL0     C36748   6.170   9.136   7.459 -0.8311  0.6379  0.2394
  273MOL0     C36749   6.307   9.191   7.473  0.9405 -0.2987 -0.2219
  273MOL0     O36750   6.325   9.286   7.570 -0.2414  0.2069  0.8195
  273MOL0     C36751   6.450   9.340   7.609  0.5851  0.1259  0.9830
  273MOL0     C36752   6.440   9.448   7.702 -0.1718  1.0629  0.2014
  273MOL0     C36753   6.552   9.502   7.757  0.4125  0.0743  0.1119
  273MOL0     C36754   6.674   9.472   7.697 -0.5540  0.3456 -0.2570
  273MOL0     O36755   6.782   9.543   7.747 -0.2474  0.1751 -0.2182
  273MOL0     C36756   6.908   9.551   7.674  0.2404  0.7144 -0.3836
  273MOL0     C36757   7.005   9.643   7.745 -0.0800  0.2626  0.3507
  273MOL0     C36758   7.039   9.593   7.888 -0.2505 -0.6778  0.7967
  273MOL0     C36759   7.135   9.485   7.890  0.0088  0.3245 -0.1903
  273MOL0     C36760   7.192   9.441   8.024 -0.5188 -0.1780  0.3185
  273MOL0     C36761   7.279   9.327   8.010  0.3879 -0.5715 -1.0617
  273MOL0     C36762   7.347   9.315   8.152 -0.5442 -0.1874  0.0531
  273MOL0     C36763   7.384   9.170   8.177 -0.3537 -0.1119 -0.3930
  273MOL0    Cl36764   7.432   9.147   8.358  0.3001  0.0191 -0.0736
  273MOL0     C36765   6.691   9.372   7.602  0.0211  0.6438 -0.4623
  273MOL0     C36766   6.578   9.292   7.565  0.1662 -0.3642  0.9531
  273MOL0     O36767   6.392   9.143   7.401  0.2607  1.2777 -0.2700
  273MOL0     C36768   6.135   9.034   7.364  0.0341  0.0017  0.1662
  273MOL0     C36769   6.003   8.993   7.353  0.6322  0.0056  0.3482
  273MOL0     N36770   5.513   8.626   8.001 -0.3748  0.4876  0.5032
  273MOL0     N36771   5.427   8.535   7.990  0.4652  0.3050 -0.3719
  273MOL0     C36772   5.759   7.466   7.285 -0.1807 -0.2280  0.5656
  273MOL0     C36773   5.741   7.334   7.250 -0.4969  0.8085 -0.7899
  273MOL0     C36774   5.499   6.962   7.201 -0.3797 -0.2225  0.1644
  273MOL0     C36775   5.371   6.988   7.157 -0.8095 -0.1827  0.1084
  273MOL0     C36776   5.282   6.886   7.120  0.2164 -0.0673 -0.1900
  273MOL0     C36777   5.323   6.749   7.126  0.4391  0.5922 -0.2157
  273MOL0     O36778   5.234   6.644   7.112 -0.1465 -0.1038 -0.2826
  273MOL0     C36779   5.284   6.515   7.064 -0.5132 -0.2030  0.0468
  273MOL0     C36780   5.196   6.471   6.945  0.5811  0.4788 -0.4517
  273MOL0     C36781   5.185   6.576   6.825  0.2728  0.7147  0.2774
  273MOL0     C36782   5.301   6.590   6.730 -0.0487 -0.3589 -0.3400
  273MOL0     C36783   5.418   6.639   6.799 -0.1831  0.2726 -0.2922
  273MOL0     C36784   5.516   6.681   6.860 -0.0267 -0.8226  0.1292
  273MOL0     C36785   5.445   6.725   7.184  0.2803  0.4921  0.4373
  273MOL0     C36786   5.533   6.827   7.219  0.5265 -0.4652  0.7413
  273MOL0     C36787   5.667   6.785   7.262 -0.9567 -0.0728  0.0832
  273MOL0     H36788   5.447   7.356   7.093  0.3355 -1.5683  0.7428
  273MOL0     H36789   5.494   7.601   7.124  1.5695  1.4445 -1.3893
  273MOL0     H36790   5.486   7.765   7.352  1.1151 -2.8236 -2.9107
  273MOL0     H36791   5.558   7.646   7.465  0.7546 -0.0385  1.7343
  273MOL0     H36792   5.693   7.909   7.429  0.6882 -1.1514  0.9674
  273MOL0     H36793   5.723   7.784   7.555  2.1377  1.3131 -0.0178
  273MOL0     H36794   5.459   7.838   7.598 -0.4257  0.0850  0.6242
  273MOL0     H36795   5.493   7.983   7.494  0.1887  0.0215  0.0203
  273MOL0     H36796   5.640   7.930   7.754 -3.1394 -0.4665  1.7952
  273MOL0     H36797   5.662   8.073   7.649 -0.5122  0.2637  0.2982
  273MOL0     H36798   5.406   8.086   7.684  2.5727 -1.2318 -1.9572
  273MOL0     H36799   5.443   7.971   7.815 -1.0397  0.9687  0.9169
  273MOL0     H36800   5.586   8.133   7.932  4.4613 -0.2553 -3.4414
  273MOL0     H36801   5.596   8.238   7.795 -0.0779  0.4568  0.6015
  273MOL0     H36802   5.421   8.269   8.007 -1.2256  2.1392 -2.4545
  273MOL0     H36803   5.318   8.157   7.918  0.6180 -1.6800 -0.2952
  273MOL0     H36804   5.340   8.338   7.728  0.6252 -2.4612 -0.2873
  273MOL0     H36805   5.246   8.399   7.870  1.5791  0.3814  0.2553
  273MOL0     H36806   5.555   8.508   7.704  2.6467 -2.4123  0.9292
  273MOL0     H36807   5.681   8.814   7.923  1.4037  3.8130 -2.7230
  273MOL0     H36808   5.780   8.685   7.855  1.1788  1.8710 -0.5435
  273MOL0     H36809   5.678   8.703   7.644  3.8829 -1.1392  1.6390
  273MOL0     H36810   5.548   8.804   7.688  0.4833  1.2062  2.0010
  273MOL0     H36811   5.856   8.860   7.657 -1.6954 -3.3449 -2.5467
  273MOL0     H36812   5.758   8.969   7.763  1.0143 -2.5161  1.5844
  273MOL0     H36813   5.685   9.088   7.581 -0.0627 -0.2791 -0.1801
  273MOL0     H36814   5.608   8.938   7.522 -0.9814  2.9649 -0.3664
  273MOL0     H36815   5.863   9.181   7.592 -0.2693 -1.5388  0.3969
  273MOL0     H36816   6.080   9.273   7.612  1.1799 -0.3993  1.8543
  273MOL0     H36817   6.350   9.483   7.752 -1.9098  0.1568 -2.1424
  273MOL0     H36818   6.541   9.577   7.834 -1.1947 -1.4039  1.4195
  273MOL0     H36819   6.963   9.457   7.668 -0.4563  0.3225 -0.6279
  273MOL0     H36820   6.882   9.579   7.572 -1.8092 -0.7116 -0.3055
  273MOL0     H36821   7.104   9.640   7.697  0.6092 -0.4428  1.7582
  273MOL0     H36822   6.977   9.748   7.740 -1.3944 -0.1175 -0.9807
  273MOL0     H36823   7.081   9.675   7.946  1.8468  0.6616 -2.3432
  273MOL0     H36824   6.943   9.560   7.929 -1.0240  0.8870  0.3202
  273MOL0     H36825   7.222   9.526   7.838 -0.6822  1.9638 -0.1038
  273MOL0     H36826   7.108   9.395   7.834 -0.2334 -0.1116  0.6191
  273MOL0     H36827   7.115   9.428   8.101 -1.1516 -0.8110 -0.4112
  273MOL0     H36828   7.251   9.525   8.064 -0.4438 -0.5853  1.0703
  273MOL0     H36829   7.226   9.236   7.982 -1.9238  0.8762 -1.6413
  273MOL0     H36830   7.352   9.346   7.931 -1.3088  2.5796 -2.0342
  273MOL0     H36831   7.280   9.349   8.231  1.4216 -1.0241  2.1854
  273MOL0     H36832   7.441   9.371   8.154 -0.4390 -0.2821 -1.1239
  273MOL0     H36833   7.306   9.098   8.153 -1.3763  0.7845  0.1316
  273MOL0     H36834   7.459   9.146   8.101 -0.2031  0.2951 -0.3758
  273MOL0     H36835   6.791   9.357   7.561  0.0752 -1.3237  0.3268
  273MOL0     H36836   6.578   9.235   7.473  3.2403  2.2957 -0.9318
  273MOL0     H36837   6.211   8.984   7.305  0.8554 -0.9250  1.9397
  273MOL0     H36838   5.981   8.909   7.287 -0.5445  1.3039 -0.9901
  273MOL0     H36839   5.847   7.486   7.345 -0.2914 -1.5124  1.2036
  273MOL0     H36840   5.819   7.269   7.288 -1.7874 -0.2521  0.1833
  273MOL0     H36841   5.338   7.091   7.151  0.4504  0.1414 -3.3737
  273MOL0     H36842   5.183   6.910   7.081  0.7763  1.2352 -0.8551
  273MOL0     H36843   5.290   6.440   7.143  1.6268 -1.3650 -1.1162
  273MOL0     H36844   5.388   6.524   7.030 -0.4013  1.0341  0.6733
  273MOL0     H36845   5.097   6.475   6.992 -0.1724 -0.4075 -1.8946
  273MOL0     H36846   5.199   6.367   6.912 -3.3703  0.0084  0.1350
  273MOL0     H36847   5.160   6.672   6.870  2.3166  1.0467  0.8477
  273MOL0     H36848   5.100   6.546   6.763 -1.0501  1.3624  1.7257
  273MOL0     H36849   5.319   6.498   6.673 -0.4230 -0.5743 -0.1127
  273MOL0     H36850   5.276   6.658   6.648 -0.0401 -2.5476 -2.2538
  273MOL0     H36851   5.598   6.714   6.919 -1.2306  0.3165  1.2236
  273MOL0     H36852   5.477   6.622   7.201 -1.8191 -0.4320 -0.8704
  273MOL0     H36853   5.668   6.676   7.260  1.2582 -0.3960  5.0298
  273MOL0     H36854   5.734   6.822   7.184 -1.0972  0.8246  0.3730
  273MOL0     H36855   5.673   6.816   7.367 -1.3138 -3.8785  1.3821
  274MOL0     O36856   4.216   2.922   2.187 -0.6301  0.1041 -0.4955
  274MOL0     C36857   4.194   2.801   2.196  0.0618  0.6781  1.0638
  274MOL0     O36858   4.234   2.718   2.299 -0.4745  0.1895  0.3037
  274MOL0     C36859   4.336   2.768   2.377  0.8560  0.5040 -0.0547
  274MOL0     C36860   4.457   2.808   2.323 -0.8946 -0.3797 -1.1149
  274MOL0     C36861   4.564   2.866   2.400  0.5793 -0.3166 -1.0405
  274MOL0     C36862   4.532   2.870   2.541  0.2195 -0.3191 -0.0387
  274MOL0     O36863   4.619   2.922   2.626  0.3050 -0.2232 -0.8614
  274MOL0     C36864   4.687   3.046   2.599 -1.2845  0.7881  0.4857
  274MOL0     C36865   4.736   3.097   2.727 -0.5207  0.3062 -0.0397
  274MOL0     C36866   4.820   2.989   2.800  1.1367 -0.2500 -0.6270
  274MOL0     C36867   4.938   3.040   2.881 -0.1667  0.5355  0.2880
  274MOL0     C36868   5.032   2.933   2.935  0.2723 -0.4999  1.4203
  274MOL0     C36869   4.969   2.827   3.018  0.9398 -0.1777  0.1528
  274MOL0     C36870   5.047   2.791   3.149 -0.0371  0.4704 -0.1349
  274MOL0     C36871   4.984   2.676   3.224  0.5746  0.3360 -1.1408
  274MOL0     N36872   4.954   2.559   3.146 -1.0272  0.2129 -0.3306
  274MOL0     C36873   5.053   2.480   3.096 -0.3153  0.3622  1.0832
  274MOL0     C36874   5.000   2.374   3.036  0.6743  0.5344 -0.2979
  274MOL0     C36875   5.069   2.253   2.988  0.2044 -0.2015 -0.5728
  274MOL0     C36876   5.098   2.154   3.099  0.0426 -0.1319 -0.4804
  274MOL0     C36877   4.973   2.122   3.187  0.2047  0.0083  0.4910
  274MOL0     C36878   5.001   2.012   3.298 -0.0275  0.4250  0.4776
  274MOL0     O36879   5.034   1.883   3.244 -0.6615  0.3014  0.2493
  274MOL0     C36880   4.945   1.781   3.225  0.5820 -0.5579 -0.6524
  274MOL0     C36881   4.996   1.652   3.226 -0.4457 -0.2575  1.2895
  274MOL0     C36882   4.910   1.546   3.209 -0.4550  0.3660  0.1256
  274MOL0     C36883   4.778   1.566   3.165 -0.2917 -0.6023  0.5048
  274MOL0     C36884   4.692   1.444   3.132  0.5406  0.2082 -0.4416
  274MOL0     O36885   4.578   1.488   3.073 -0.0867  0.1810 -0.4566
  274MOL0     C36886   4.460   1.411   3.061 -0.6566 -0.3611 -0.5158
  274MOL0     C36887   4.339   1.473   3.095  0.3834 -1.1426 -0.4812
  274MOL0     C36888   4.224   1.395   3.087 -0.6612 -0.3414  0.3376
  274MOL0     C36889   4.225   1.266   3.033  0.9400  0.2666 -0.5918
  274MOL0     O36890   4.109   1.190   3.020 -0.0360 -1.0809 -0.5633
  274MOL0     C36891   3.987   1.235   3.076  0.8314  0.5025  0.6009
  274MOL0     C36892   3.913   1.339   2.987  0.7460 -0.0342 -0.0721
  274MOL0     C36893   3.830   1.280   2.873  0.1731  0.0525 -0.3690
  274MOL0     C36894   3.720   1.170   2.913 -0.2415 -0.0691 -0.1127
  274MOL0     C36895   3.641   1.122   2.795 -0.0525  0.0495  0.4385
  274MOL0     C36896   3.551   1.015   2.847 -0.2959 -0.5322  1.0652
  274MOL0     C36897   3.459   0.957   2.737 -0.2781 -0.3293 -0.5610
  274MOL0     C36898   3.390   0.819   2.758 -0.2722  0.4052  0.6321
  274MOL0    Cl36899   3.497   0.704   2.834 -0.1866  0.0576 -0.0892
  274MOL0     C36900   4.343   1.206   2.995 -0.4524  0.4338  0.8167
  274MOL0     C36901   4.465   1.281   3.016 -0.0235  0.3049  0.2229
  274MOL0     O36902   4.733   1.329   3.147  0.7965 -0.1338  0.2429
  274MOL0     C36903   4.730   1.701   3.154 -0.5590 -0.7816 -0.0645
  274MOL0     C36904   4.813   1.800   3.198  0.7762 -0.0738  0.1588
  274MOL0     N36905   4.867   2.397   3.027 -0.4507 -0.1532 -0.4877
  274MOL0     N36906   4.835   2.507   3.098 -0.5273 -0.4989  0.3090
  274MOL0     C36907   4.405   2.828   2.599 -1.0618  0.2138 -0.2547
  274MOL0     C36908   4.304   2.784   2.512  0.5980  1.2116 -0.3854
  274MOL0     C36909   4.099   2.743   2.100  0.2120  0.2145 -0.5220
  274MOL0     C36910   4.099   2.789   1.971  0.1157 -0.4789  0.2063
  274MOL0     C36911   4.025   2.745   1.866  0.4524  0.0274 -0.2554
  274MOL0     C36912   3.924   2.644   1.901 -0.2110 -0.3265 -0.0072
  274MOL0     O36913   3.854   2.588   1.790 -0.3954  0.7277  0.4166
  274MOL0     C36914   3.727   2.540   1.814  0.6641 -0.8262  0.4849
  274MOL0     C36915   3.663   2.510   1.677 -0.1994 -0.3362  0.3817
  274MOL0     C36916   3.513   2.475   1.669 -1.0079  0.1697  0.3050
  274MOL0     C36917   3.469   2.427   1.529 -0.2958 -1.4515  0.1171
  274MOL0     C36918   3.458   2.544   1.435  0.3674  0.4364 -0.4680
  274MOL0     C36919   3.437   2.643   1.360 -0.1439  0.2462  0.3915
  274MOL0     C36920   3.917   2.592   2.034 -0.7413  0.0342 -0.1524
  274MOL0     C36921   4.011   2.636   2.139 -0.1245  0.1864 -0.5154
  274MOL0     C36922   3.997   2.583   2.281 -0.8571  0.0849 -0.6363
  274MOL0     H36923   4.481   2.790   2.218  2.1709  1.8027 -0.9168
  274MOL0     H36924   4.662   2.884   2.356  0.4438 -4.1123 -3.3642
  274MOL0     H36925   4.771   3.037   2.530 -2.6305  0.3103 -1.1457
  274MOL0     H36926   4.629   3.126   2.551 -1.4215  0.4598  0.0994
  274MOL0     H36927   4.652   3.131   2.787 -1.8068  0.8601 -2.0319
  274MOL0     H36928   4.802   3.181   2.701  1.1133 -1.5181 -2.2387
  274MOL0     H36929   4.863   2.920   2.726  1.7160 -0.8780  0.2745
  274MOL0     H36930   4.767   2.925   2.872  1.3612  0.3662  0.0886
  274MOL0     H36931   4.989   3.107   2.811 -4.7655  1.5228 -2.6212
  274MOL0     H36932   4.901   3.106   2.960 -2.1983  1.0373 -1.0058
  274MOL0     H36933   5.094   2.898   2.853  1.8999  0.9621  1.9741
  274MOL0     H36934   5.100   2.985   3.003  0.7823  1.5150 -0.5188
  274MOL0     H36935   4.871   2.867   3.047  1.2969 -1.5755  3.8742
  274MOL0     H36936   4.953   2.742   2.952  1.5186  0.0891 -0.3400
  274MOL0     H36937   5.032   2.876   3.216 -1.3931 -0.9258  1.4254
  274MOL0     H36938   5.147   2.760   3.117  0.2735 -0.4165  1.6104
  274MOL0     H36939   5.045   2.654   3.312 -1.4471 -1.6139 -0.1385
  274MOL0     H36940   4.891   2.713   3.267  1.0230 -0.5783  0.7254
  274MOL0     H36941   5.159   2.492   3.113 -0.8829  4.0416  3.1276
  274MOL0     H36942   4.997   2.218   2.914 -1.4066  1.7765 -0.0251
  274MOL0     H36943   5.162   2.268   2.932  0.3937 -0.0713 -0.2262
  274MOL0     H36944   5.145   2.064   3.059  0.2609 -2.0219  3.5492
  274MOL0     H36945   5.163   2.200   3.174  2.3084  0.7408 -2.8004
  274MOL0     H36946   4.891   2.086   3.125 -0.4315 -0.1504  1.3915
  274MOL0     H36947   4.938   2.213   3.236  0.6831 -0.4503  1.7300
  274MOL0     H36948   4.904   2.009   3.349 -1.1246  0.0864 -1.5369
  274MOL0     H36949   5.076   2.036   3.374 -0.3546  1.4831  0.4902
  274MOL0     H36950   5.100   1.629   3.245 -0.5738 -0.6859  1.4877
  274MOL0     H36951   4.952   1.448   3.229 -5.0504 -1.4202  2.3762
  274MOL0     H36952   4.331   1.568   3.147 -0.4777 -2.5831  2.1893
  274MOL0     H36953   4.132   1.441   3.120 -0.1142 -0.9694  2.9125
  274MOL0     H36954   3.925   1.147   3.097 -1.1068  0.9103 -2.7977
  274MOL0     H36955   4.011   1.276   3.175  0.3106 -2.2805  1.9996
  274MOL0     H36956   3.836   1.390   3.045 -0.2909 -0.8758 -0.6785
  274MOL0     H36957   3.980   1.408   2.935  2.0392 -2.9832 -2.6929
  274MOL0     H36958   3.771   1.359   2.827 -4.2297 -2.4212  0.5188
  274MOL0     H36959   3.889   1.233   2.793 -2.6580 -1.4988 -1.6997
  274MOL0     H36960   3.644   1.218   2.976 -0.7942 -1.3814  0.2631
  274MOL0     H36961   3.773   1.094   2.972  0.8309  1.2133  0.6181
  274MOL0     H36962   3.708   1.093   2.714  1.3881  0.5209  1.4194
  274MOL0     H36963   3.580   1.210   2.770 -1.8831 -1.1544  0.4871
  274MOL0     H36964   3.618   0.936   2.883  3.3948  0.3037 -3.0730
  274MOL0     H36965   3.490   1.067   2.922  0.4465  1.7362  0.1952
  274MOL0     H36966   3.509   0.962   2.639 -1.6107  1.0548 -1.2006
  274MOL0     H36967   3.380   1.032   2.728  0.0555  0.2821  1.2410
  274MOL0     H36968   3.297   0.823   2.816  1.2339 -0.0645  3.2713
  274MOL0     H36969   3.374   0.782   2.657  0.7362 -1.8126  1.2316
  274MOL0     H36970   4.353   1.104   2.957 -0.5520 -0.1942  2.4210
  274MOL0     H36971   4.563   1.241   2.991 -0.0919  0.4770 -0.3365
  274MOL0     H36972   4.627   1.714   3.121  0.2428 -0.2278 -2.5427
  274MOL0     H36973   4.795   1.907   3.203 -1.4844 -0.4285  0.9742
  274MOL0     H36974   4.402   2.831   2.707  1.5098 -0.3381 -0.1099
  274MOL0     H36975   4.207   2.754   2.550  0.5497  0.1219 -1.3291
  274MOL0     H36976   4.170   2.868   1.949 -0.8355  0.2568 -0.2941
  274MOL0     H36977   4.036   2.783   1.765 -0.3524  2.6961  0.5690
  274MOL0     H36978   3.670   2.620   1.863  3.1319  1.5183 -0.2119
  274MOL0     H36979   3.716   2.444   1.865 -1.0958 -0.6725  0.4498
  274MOL0     H36980   3.713   2.425   1.631 -0.7938  0.7086 -2.3603
  274MOL0     H36981   3.683   2.595   1.612 -0.4429  0.5688  1.4462
  274MOL0     H36982   3.445   2.553   1.704 -1.2828  0.5631 -1.0452
  274MOL0     H36983   3.503   2.388   1.735 -2.3694  0.8894  1.0955
  274MOL0     H36984   3.527   2.342   1.492  0.8727 -0.1589 -1.1777
  274MOL0     H36985   3.365   2.393   1.534 -0.0180 -2.2548  0.4525
  274MOL0     H36986   3.437   2.728   1.295 -0.8421  1.4068  1.8343
  274MOL0     H36987   3.855   2.507   2.060 -0.0419 -0.1953  0.8361
  274MOL0     H36988   3.897   2.543   2.301 -0.8640 -1.2706 -3.0603
  274MOL0     H36989   4.073   2.511   2.311  1.0776  3.0023  2.0471
  274MOL0     H36990   4.020   2.658   2.357 -0.4601  0.7957 -1.4500
  275MOL0     O36991   6.921   2.670   0.051  0.1166 -0.1583  0.5884
  275MOL0     C36992   7.002   2.649  -0.045  0.1970 -0.0910  0.1591
  275MOL0     O36993   6.980   2.670  -0.178  0.8287 -0.4146  0.2194
  275MOL0     C36994   6.848   2.665  -0.212  0.1003  0.6802 -0.5265
  275MOL0     C36995   6.758   2.774  -0.214  0.1334 -0.3556 -0.4452
  275MOL0     C36996   6.632   2.763  -0.275 -0.7091 -0.4965 -0.4266
  275MOL0     C36997   6.576   2.643  -0.337 -0.0928  0.5308 -0.6956
  275MOL0     O36998   6.449   2.649  -0.388 -0.5644 -0.9290 -0.7159
  275MOL0     C36999   6.360   2.545  -0.352 -0.0056 -0.8622 -0.2237
  275MOL0     C37000   6.225   2.549  -0.435 -0.6043 -0.3157  0.7166
  275MOL0     C37001   6.159   2.682  -0.439 -0.2923 -0.8393  0.0140
  275MOL0     C37002   6.052   2.688  -0.554  0.3647 -0.6796  0.4016
  275MOL0     C37003   5.946   2.794  -0.518  0.1303  0.4138 -0.5406
  275MOL0     C37004   5.984   2.943  -0.517  0.4355  0.6875  0.6197
  275MOL0     C37005   6.043   2.992  -0.658 -0.3132 -0.4460 -0.2396
  275MOL0     C37006   6.114   3.115  -0.638 -0.5827 -0.6076  0.0400
  275MOL0     N37007   6.250   3.078  -0.581 -0.2574  0.6753  1.2760
  275MOL0     C37008   6.300   3.109  -0.459 -0.5346  0.5803  0.4925
  275MOL0     C37009   6.433   3.087  -0.464 -0.6544 -0.4191  0.7508
  275MOL0     C37010   6.521   3.128  -0.349 -0.2133  1.0279  0.2677
  275MOL0     C37011   6.537   3.274  -0.332  0.0028 -0.1337  1.7223
  275MOL0     C37012   6.660   3.305  -0.238  0.3850  0.6254  0.5417
  275MOL0     C37013   6.787   3.273  -0.303 -0.3984 -0.0254  0.0617
  275MOL0     O37014   6.892   3.321  -0.219 -0.4242 -0.5678  0.0766
  275MOL0     C37015   6.929   3.269  -0.103 -0.3447 -0.6707 -0.0368
  275MOL0     C37016   6.980   3.366  -0.018 -0.6266 -0.2113 -0.3798
  275MOL0     C37017   7.025   3.334   0.110  0.0185  0.2458 -0.9513
  275MOL0     C37018   7.012   3.198   0.157  0.1791 -0.2905 -0.1997
  275MOL0     C37019   7.045   3.157   0.295 -0.1393 -0.1996 -0.1257
  275MOL0     O37020   7.062   3.256   0.393 -0.0957 -0.9728 -0.4259
  275MOL0     C37021   7.086   3.210   0.517  0.3964 -1.7929  0.4678
  275MOL0     C37022   7.003   3.227   0.634  0.0756 -0.8672  0.3476
  275MOL0     C37023   7.051   3.215   0.763  0.0349  0.0072  1.0457
  275MOL0     C37024   7.181   3.169   0.786 -0.5715 -0.7900 -0.1409
  275MOL0     O37025   7.215   3.168   0.912 -0.2497 -0.9558 -0.2446
  275MOL0     C37026   7.326   3.088   0.947  0.0066 -0.0254 -0.4543
  275MOL0     C37027   7.359   3.119   1.094  0.0847 -0.2094  0.8068
  275MOL0     C37028   7.419   3.259   1.109  0.4307  0.1097  0.9313
  275MOL0     C37029   7.568   3.245   1.143 -0.7206 -0.7181 -1.0093
  275MOL0     C37030   7.648   3.382   1.181 -1.0516  0.4221 -0.5064
  275MOL0     C37031   7.668   3.489   1.067  0.1893  0.2137  0.3138
  275MOL0     C37032   7.707   3.433   0.936  0.2741  0.1516 -0.3712
  275MOL0     C37033   7.765   3.548   0.853  0.4305 -0.5474  0.1526
  275MOL0    Cl37034   7.636   3.670   0.835 -0.0358  0.0334 -0.2268
  275MOL0     C37035   7.262   3.140   0.670 -0.2576  0.1093  0.7825
  275MOL0     C37036   7.216   3.161   0.543  0.3402 -0.2470  0.4295
  275MOL0     O37037   7.040   3.038   0.319  0.5095  0.0243  0.5057
  275MOL0     C37038   6.948   3.101   0.079 -0.6608 -0.1983 -0.1294
  275MOL0     C37039   6.915   3.133  -0.056  0.4095  0.0948  0.8856
  275MOL0     N37040   6.461   3.040  -0.583  0.7910  0.5936  0.2833
  275MOL0     N37041   6.358   3.029  -0.659 -0.1113 -0.7217  0.0006
  275MOL0     C37042   6.660   2.532  -0.311 -0.0449 -0.2233 -0.4753
  275MOL0     C37043   6.794   2.540  -0.261  0.1902 -0.3987 -0.6321
  275MOL0     C37044   7.142   2.614  -0.023 -0.9615 -0.3762  0.4260
  275MOL0     C37045   7.245   2.635  -0.126  0.8597  0.9444 -0.6242
  275MOL0     C37046   7.372   2.605  -0.098  0.5924  0.0597  0.2712
  275MOL0     C37047   7.409   2.571   0.026  0.9116  0.5453 -0.9592
  275MOL0     O37048   7.535   2.528   0.053 -0.7365 -0.7493  0.7910
  275MOL0     C37049   7.611   2.609   0.138  0.6346  0.6491 -0.7250
  275MOL0     C37050   7.656   2.530   0.263  0.0245  0.1421 -0.3983
  275MOL0     C37051   7.772   2.444   0.221 -0.4438  0.3539  0.9556
  275MOL0     C37052   7.850   2.390   0.340 -0.0579  0.8203 -0.2925
  275MOL0     C37053   7.896   2.257   0.326  0.4992  0.4839 -0.4287
  275MOL0     C37054   7.926   2.137   0.296 -0.4578  0.0846  0.2632
  275MOL0     C37055   7.325   2.541   0.122  0.1920 -1.2946 -0.3841
  275MOL0     C37056   7.188   2.562   0.100 -0.7163  0.1603  0.4236
  275MOL0     C37057   7.103   2.535   0.229 -0.0288 -0.8476  1.2753
  275MOL0     H37058   6.797   2.864  -0.167 -0.7424 -1.2006  2.0440
  275MOL0     H37059   6.580   2.858  -0.281  1.7778  1.0826  1.0972
  275MOL0     H37060   6.394   2.442  -0.369 -1.2931 -1.4158  0.4444
  275MOL0     H37061   6.324   2.555  -0.249 -0.7412  1.0226 -0.6223
  275MOL0     H37062   6.153   2.476  -0.397 -1.8641 -0.9698 -2.6083
  275MOL0     H37063   6.247   2.517  -0.537  0.2620  1.9706  0.1266
  275MOL0     H37064   6.230   2.762  -0.463 -0.3042 -0.7661  0.2270
  275MOL0     H37065   6.113   2.700  -0.342  0.4145 -1.3496  0.4576
  275MOL0     H37066   6.097   2.708  -0.652 -1.8195 -1.9944 -0.9640
  275MOL0     H37067   6.008   2.589  -0.571 -0.1551 -0.4042  0.1031
  275MOL0     H37068   5.855   2.784  -0.577 -0.6850  4.9657 -0.4240
  275MOL0     H37069   5.914   2.776  -0.415 -0.3992  2.6069 -0.2700
  275MOL0     H37070   5.909   3.017  -0.489  0.1388  0.9478 -0.7677
  275MOL0     H37071   6.061   2.956  -0.441 -0.6139  1.3213  1.5988
  275MOL0     H37072   5.956   3.001  -0.724 -0.8426  1.3142  0.6570
  275MOL0     H37073   6.093   2.911  -0.713 -2.3680 -0.7228 -1.8091
  275MOL0     H37074   6.128   3.171  -0.731 -1.0956 -0.5885 -0.0261
  275MOL0     H37075   6.054   3.179  -0.573 -3.1954 -0.6262 -2.1858
  275MOL0     H37076   6.237   3.154  -0.383 -0.1778  3.2412 -0.6880
  275MOL0     H37077   6.484   3.091  -0.253 -0.5084  1.6710  0.3996
  275MOL0     H37078   6.622   3.087  -0.359  1.3440  4.5185  0.3027
  275MOL0     H37079   6.555   3.333  -0.422  1.3161 -1.1941  1.2530
  275MOL0     H37080   6.444   3.313  -0.290  0.0758  1.6316  0.3425
  275MOL0     H37081   6.644   3.258  -0.140 -0.4056  2.7624  1.4900
  275MOL0     H37082   6.647   3.411  -0.215 -3.4888  0.5161 -0.3488
  275MOL0     H37083   6.796   3.319  -0.402  0.6779  0.1715  0.2380
  275MOL0     H37084   6.800   3.170  -0.336  2.6212  0.6747 -1.2038
  275MOL0     H37085   6.991   3.472  -0.041 -0.6051 -0.3873 -1.2304
  275MOL0     H37086   7.066   3.400   0.186 -1.5997 -0.9089  1.0058
  275MOL0     H37087   6.905   3.271   0.623  0.8816  1.2872  1.2433
  275MOL0     H37088   6.979   3.230   0.842 -1.5503 -0.3425 -0.2696
  275MOL0     H37089   7.294   2.984   0.937 -1.9124  0.5955 -1.2054
  275MOL0     H37090   7.415   3.104   0.885  1.2877  2.7347  1.8241
  275MOL0     H37091   7.269   3.110   1.155 -1.3245 -2.6451 -1.4286
  275MOL0     H37092   7.439   3.050   1.123  0.0811 -0.4420  0.2636
  275MOL0     H37093   7.408   3.308   1.011 -0.8522 -3.3347 -0.8142
  275MOL0     H37094   7.377   3.319   1.189  2.5671  3.9920 -0.5776
  275MOL0     H37095   7.618   3.192   1.061 -3.0136 -1.7033 -1.8552
  275MOL0     H37096   7.574   3.170   1.222 -1.0829  1.3025  1.0171
  275MOL0     H37097   7.745   3.339   1.208 -2.4197 -1.6946  1.4825
  275MOL0     H37098   7.610   3.425   1.274 -0.3509  0.0550 -0.0412
  275MOL0     H37099   7.575   3.546   1.059 -1.8855 -2.3477  3.3525
  275MOL0     H37100   7.750   3.552   1.101  1.4071  0.2515 -2.4042
  275MOL0     H37101   7.638   3.365   0.884  1.4385 -1.4016  0.0200
  275MOL0     H37102   7.797   3.372   0.946  0.9581  0.8414 -1.8900
  275MOL0     H37103   7.862   3.586   0.886  2.7201 -1.5777 -4.4858
  275MOL0     H37104   7.784   3.516   0.750  0.5832  0.5081 -0.1665
  275MOL0     H37105   7.356   3.089   0.687  0.1116  0.3141 -0.5366
  275MOL0     H37106   7.273   3.137   0.454  2.6742 -1.7723  2.2106
  275MOL0     H37107   6.927   3.003   0.120 -4.1564 -0.2496 -1.6252
  275MOL0     H37108   6.866   3.060  -0.119 -3.0183  0.6258  2.7301
  275MOL0     H37109   6.621   2.437  -0.346 -5.7931  1.6307 -0.1844
  275MOL0     H37110   6.852   2.449  -0.273  1.1496  0.1163 -0.0591
  275MOL0     H37111   7.223   2.674  -0.225  1.0631 -1.9270 -1.8944
  275MOL0     H37112   7.446   2.624  -0.175  2.4085 -6.0335  0.0236
  275MOL0     H37113   7.545   2.686   0.180 -1.9258 -1.2688 -0.9734
  275MOL0     H37114   7.689   2.660   0.080  1.3149 -0.6890 -1.0119
  275MOL0     H37115   7.583   2.462   0.307  1.5169 -1.7840 -0.7621
  275MOL0     H37116   7.690   2.604   0.336 -0.7651 -0.1110  0.2459
  275MOL0     H37117   7.849   2.492   0.160 -0.3729 -0.5993  0.2680
  275MOL0     H37118   7.730   2.362   0.162  1.0769  0.2063  0.0153
  275MOL0     H37119   7.923   2.471   0.349 -1.0925  2.1225 -2.7839
  275MOL0     H37120   7.790   2.393   0.431  1.1641  0.8949  0.5357
  275MOL0     H37121   7.937   2.039   0.253 -0.7742 -0.5877  1.6484
  275MOL0     H37122   7.369   2.507   0.215 -0.1489  4.0617  2.1223
  275MOL0     H37123   7.061   2.624   0.275  2.0885  0.3829  0.9886
  275MOL0     H37124   7.023   2.464   0.206 -0.7354  0.4303 -0.4813
  275MOL0     H37125   7.171   2.496   0.306  1.5672 -0.2150  0.2425
  276MOL0     O37126   7.872   6.896   3.752  0.3285  0.1397 -0.0717
  276MOL0     C37127   7.780   6.957   3.813 -0.2473  0.4555  0.5921
  276MOL0     O37128   7.681   7.046   3.758 -0.5184  0.5194 -0.9570
  276MOL0     C37129   7.698   7.068   3.623  0.2867  0.2888 -0.6499
  276MOL0     C37130   7.641   6.991   3.525 -0.2172 -0.2889  1.0730
  276MOL0     C37131   7.682   6.999   3.397 -0.0222  0.3906 -0.0312
  276MOL0     C37132   7.767   7.096   3.365 -0.0747 -0.3036 -0.1787
  276MOL0     O37133   7.816   7.090   3.235 -0.6118 -0.2238  0.9236
  276MOL0     C37134   7.835   7.228   3.179 -0.3401 -0.0361  0.0633
  276MOL0     C37135   7.855   7.203   3.029 -0.3110 -0.0282  0.5392
  276MOL0     C37136   7.890   7.342   2.964  0.8451  0.0266 -0.6358
  276MOL0     C37137   7.901   7.341   2.815  0.0876 -0.1180 -0.2813
  276MOL0     C37138   7.907   7.482   2.740 -0.0773 -0.2871  0.3488
  276MOL0     C37139   8.046   7.535   2.705  0.7387  0.3700  0.2422
  276MOL0     C37140   8.133   7.447   2.607 -0.3929 -0.0351  0.2032
  276MOL0     C37141   8.074   7.385   2.474 -0.3996 -0.8130 -0.2646
  276MOL0     N37142   8.024   7.498   2.392  0.3674 -0.0309 -0.0613
  276MOL0     C37143   8.098   7.574   2.304  0.1451 -0.1175 -1.1576
  276MOL0     C37144   8.021   7.638   2.219 -0.7105  0.5668  0.0249
  276MOL0     C37145   8.057   7.743   2.115  0.2907  0.0449 -0.1643
  276MOL0     C37146   7.972   7.871   2.110 -0.2692  1.0444  0.1608
  276MOL0     C37147   7.957   7.939   2.236  0.0535  0.8133 -0.4060
  276MOL0     C37148   7.887   8.070   2.210 -0.8864 -0.7472 -0.0104
  276MOL0     O37149   7.750   8.064   2.270 -0.0586 -0.4240  0.5091
  276MOL0     C37150   7.711   8.192   2.316 -0.5452  0.3403  0.3149
  276MOL0     C37151   7.635   8.274   2.227 -0.6887  0.1224  0.1363
  276MOL0     C37152   7.588   8.397   2.271  0.0476 -0.6388 -0.2229
  276MOL0     C37153   7.616   8.451   2.393 -0.2915  0.5711  0.2001
  276MOL0     C37154   7.551   8.582   2.427 -0.5720 -0.1270 -1.5305
  276MOL0     O37155   7.467   8.639   2.338  0.8430  0.7168  0.7475
  276MOL0     C37156   7.416   8.763   2.351 -0.0752  0.6386  0.1828
  276MOL0     C37157   7.295   8.779   2.274  0.2298  0.5234 -0.5054
  276MOL0     C37158   7.218   8.890   2.307  0.9342  0.0751 -0.1346
  276MOL0     C37159   7.274   8.998   2.374 -0.6494 -0.0111 -0.5456
  276MOL0     O37160   7.215   9.124   2.408  0.3273 -0.1504 -0.7588
  276MOL0     C37161   7.072   9.127   2.418  0.2252 -0.3076  0.2694
  276MOL0     C37162   7.039   9.223   2.531 -0.9529  0.1345  0.0880
  276MOL0     C37163   7.091   9.374   2.505 -0.1152  0.7653  1.1192
  276MOL0     C37164   7.061   9.473   2.615  0.1333 -0.3141 -0.0932
  276MOL0     C37165   7.105   9.615   2.593  1.1981 -0.0953  1.2803
  276MOL0     C37166   7.061   9.713   2.702  0.5225 -0.3626  0.7793
  276MOL0     C37167   7.134   9.851   2.694 -0.5013  0.4363  0.2991
  276MOL0     C37168   7.083   9.941   2.575 -0.8312 -0.2368 -0.2630
  276MOL0    Cl37169   7.173  10.086   2.550  0.4921 -0.2248 -0.1092
  276MOL0     C37170   7.398   8.994   2.429 -0.5277 -0.4719  0.7696
  276MOL0     C37171   7.474   8.867   2.417 -0.8741 -0.6436 -0.2963
  276MOL0     O37172   7.596   8.636   2.528  0.0097 -0.5998  0.2377
  276MOL0     C37173   7.676   8.363   2.482 -0.0135 -0.7887 -0.7280
  276MOL0     C37174   7.726   8.237   2.446 -0.2145 -0.5567  0.7195
  276MOL0     N37175   7.895   7.599   2.247 -0.3540  0.1564  0.2969
  276MOL0     N37176   7.895   7.513   2.352  0.3066 -1.1240  0.0998
  276MOL0     C37177   7.824   7.181   3.461 -0.2377  0.2813 -0.4094
  276MOL0     C37178   7.795   7.162   3.593 -0.7773 -0.4946  0.5960
  276MOL0     C37179   7.775   6.921   3.950 -0.7806 -0.9909  0.8047
  276MOL0     C37180   7.804   6.789   3.992 -1.2297  0.2083  1.0450
  276MOL0     C37181   7.818   6.756   4.125 -0.7443  0.6551 -0.3479
  276MOL0     C37182   7.787   6.838   4.225  0.1369  0.2214  0.2338
  276MOL0     O37183   7.755   6.782   4.351  0.8159 -0.5351  0.2280
  276MOL0     C37184   7.726   6.856   4.469  0.2395 -0.2187 -0.1965
  276MOL0     C37185   7.757   6.795   4.599 -0.0352 -0.9182  0.2458
  276MOL0     C37186   7.686   6.660   4.612  0.4126 -0.5787 -0.3381
  276MOL0     C37187   7.687   6.625   4.757  0.6304 -0.6194  0.0668
  276MOL0     C37188   7.591   6.522   4.784 -0.0761 -0.8867 -0.2030
  276MOL0     C37189   7.498   6.442   4.787  0.5983 -0.1295  0.1474
  276MOL0     C37190   7.765   6.972   4.180  0.5854 -0.6042  0.1938
  276MOL0     C37191   7.764   7.015   4.054  0.1691 -0.9281 -0.3339
  276MOL0     C37192   7.718   7.166   4.043 -0.4856  0.2359  0.5352
  276MOL0     H37193   7.563   6.924   3.559 -2.3976  0.7707 -1.5148
  276MOL0     H37194   7.653   6.924   3.323  0.2047 -2.1764  2.3148
  276MOL0     H37195   7.745   7.285   3.203 -0.9983 -1.9556  2.5452
  276MOL0     H37196   7.921   7.281   3.221  0.0693  1.3696 -2.3348
  276MOL0     H37197   7.759   7.168   2.988  1.5030 -1.3554 -3.0315
  276MOL0     H37198   7.924   7.122   3.006  2.4386  2.6982 -1.6001
  276MOL0     H37199   7.983   7.368   3.016  1.2659 -0.0292 -1.3414
  276MOL0     H37200   7.815   7.417   2.991  0.6885  0.0797 -1.2143
  276MOL0     H37201   8.001   7.297   2.805  0.4831  0.7559 -0.2776
  276MOL0     H37202   7.822   7.281   2.771 -2.2439  1.8833  0.9428
  276MOL0     H37203   7.861   7.471   2.641  0.5465 -1.5692  0.1811
  276MOL0     H37204   7.850   7.562   2.788 -0.8223  0.6012 -1.8795
  276MOL0     H37205   8.022   7.628   2.653 -0.8278 -0.6284 -0.9156
  276MOL0     H37206   8.101   7.553   2.798 -1.0988  0.6894  1.3238
  276MOL0     H37207   8.162   7.362   2.670 -0.1367 -2.5822 -3.0996
  276MOL0     H37208   8.225   7.495   2.572  0.0333 -2.5406 -2.5151
  276MOL0     H37209   8.154   7.338   2.418  2.7236  3.2418  0.3107
  276MOL0     H37210   7.985   7.324   2.492 -0.2246 -0.1438  3.9841
  276MOL0     H37211   8.205   7.591   2.305  0.1422 -0.0266  0.8395
  276MOL0     H37212   8.160   7.777   2.122  0.0732  0.7229 -0.1662
  276MOL0     H37213   8.059   7.696   2.016  1.0447  0.5949 -0.4183
  276MOL0     H37214   8.012   7.939   2.034 -2.7435 -0.0856 -2.3586
  276MOL0     H37215   7.877   7.834   2.070 -0.9050  0.7375  1.8613
  276MOL0     H37216   8.054   7.951   2.284  0.7683  0.7084 -1.7626
  276MOL0     H37217   7.909   7.881   2.315  1.0091  3.6364  2.4537
  276MOL0     H37218   7.882   8.087   2.102  1.1063 -0.3025 -0.0801
  276MOL0     H37219   7.948   8.145   2.262  1.8665 -3.4931  1.0530
  276MOL0     H37220   7.604   8.234   2.131  0.0650 -4.0462  1.4421
  276MOL0     H37221   7.541   8.451   2.190  4.5751  2.1727 -1.3615
  276MOL0     H37222   7.252   8.696   2.219  2.5216 -2.6596  2.0955
  276MOL0     H37223   7.113   8.890   2.279 -0.2386 -0.3179  3.6606
  276MOL0     H37224   7.026   9.152   2.322  1.5026  1.9501  0.1713
  276MOL0     H37225   7.036   9.029   2.450  1.1570 -0.7017  0.1469
  276MOL0     H37226   6.933   9.242   2.549 -0.0510  5.6111  1.4633
  276MOL0     H37227   7.086   9.188   2.624  0.1313  1.2319 -0.0227
  276MOL0     H37228   7.199   9.353   2.501  0.2897  2.6353  1.3346
  276MOL0     H37229   7.054   9.413   2.410  1.7538  0.7162  0.3138
  276MOL0     H37230   7.095   9.421   2.705 -2.4232 -4.0864 -1.0395
  276MOL0     H37231   6.951   9.470   2.611  0.1643 -3.1218 -3.4583
  276MOL0     H37232   7.070   9.654   2.497  2.1156 -0.2182  0.8873
  276MOL0     H37233   7.214   9.623   2.594  1.0407  4.8422  1.0557
  276MOL0     H37234   6.952   9.718   2.692  0.7264  0.2740 -1.7145
  276MOL0     H37235   7.083   9.670   2.800  0.9252  1.3917  1.4932
  276MOL0     H37236   7.241   9.834   2.683 -0.1460  3.0338 -0.9729
  276MOL0     H37237   7.129   9.915   2.783  3.8435  0.1262  0.9870
  276MOL0     H37238   7.104   9.875   2.490  0.0728 -2.5744  1.6561
  276MOL0     H37239   6.974   9.947   2.581 -0.7914  2.1979 -0.8267
  276MOL0     H37240   7.448   9.080   2.474  0.6546  0.7294 -2.5226
  276MOL0     H37241   7.574   8.863   2.458 -2.1747 -0.8266  3.2278
  276MOL0     H37242   7.686   8.407   2.580 -0.2879 -0.6806 -0.7480
  276MOL0     H37243   7.783   8.183   2.521 -0.3377  0.0289  1.2444
  276MOL0     H37244   7.897   7.260   3.445 -0.9233  1.1594  0.6232
  276MOL0     H37245   7.851   7.207   3.675 -0.4556 -1.4206  0.9056
  276MOL0     H37246   7.810   6.707   3.922  2.9216  0.7141  0.5713
  276MOL0     H37247   7.844   6.655   4.153 -0.0578  1.5350  2.5540
  276MOL0     H37248   7.618   6.871   4.479  0.1631 -1.9441  2.8895
  276MOL0     H37249   7.775   6.954   4.474  4.4858 -2.1595  1.2838
  276MOL0     H37250   7.731   6.863   4.680 -5.2021 -1.0061 -0.9986
  276MOL0     H37251   7.866   6.781   4.599 -0.0465 -1.2205 -1.3365
  276MOL0     H37252   7.738   6.584   4.553  0.4041  1.1092 -2.6378
  276MOL0     H37253   7.585   6.660   4.570  0.6392 -0.9836 -0.8969
  276MOL0     H37254   7.786   6.599   4.796  0.7866  0.1506  0.2032
  276MOL0     H37255   7.644   6.704   4.821  2.8309  1.7446 -1.1684
  276MOL0     H37256   7.405   6.389   4.787  0.1117  0.6055  2.1438
  276MOL0     H37257   7.714   7.036   4.251 -0.6027 -0.1074 -1.0624
  276MOL0     H37258   7.613   7.183   4.019 -0.1538 -1.0412 -2.2031
  276MOL0     H37259   7.757   7.217   4.131 -0.7216 -1.3095  1.5801
  276MOL0     H37260   7.769   7.202   3.954  1.3723 -2.5105  0.3496
  277MOL0     O37261   1.356   2.121   9.787 -0.6721  0.4912 -0.2546
  277MOL0     C37262   1.379   2.212   9.868  0.3213  0.5142 -0.4310
  277MOL0     O37263   1.462   2.199   9.975  0.3303 -0.7541 -0.2724
  277MOL0     C37264   1.496   2.070  10.005  0.0791 -0.2492 -0.0890
  277MOL0     C37265   1.409   1.983  10.071  0.0220 -0.4851  0.5966
  277MOL0     C37266   1.462   1.856  10.099  0.0133  0.3403 -0.1859
  277MOL0     C37267   1.592   1.821  10.082  0.7876 -0.5766  0.0100
  277MOL0     O37268   1.631   1.696  10.125  0.4542 -0.3045 -0.0706
  277MOL0     C37269   1.610   1.656  10.261  0.7919  0.1801  0.5529
  277MOL0     C37270   1.723   1.554  10.288  0.5677  0.5133 -0.2867
  277MOL0     C37271   1.867   1.622  10.319  0.6426  0.9191  0.1839
  277MOL0     C37272   1.969   1.515  10.341 -0.4819 -0.2839  0.4041
  277MOL0     C37273   2.112   1.573  10.319 -1.0544  0.0383 -0.5513
  277MOL0     C37274   2.221   1.470  10.338 -0.1519  1.6878  0.0581
  277MOL0     C37275   2.345   1.510  10.264 -0.1802  0.0787 -0.1728
  277MOL0     C37276   2.457   1.404  10.269 -0.0674  0.3393 -1.2338
  277MOL0     N37277   2.563   1.443  10.175  0.6748 -0.2364  0.0930
  277MOL0     C37278   2.666   1.533  10.200 -0.4328  0.8288  0.0939
  277MOL0     C37279   2.748   1.525  10.093  0.6452 -0.7165 -0.4797
  277MOL0     C37280   2.888   1.593  10.081 -0.3667  0.7647 -0.6485
  277MOL0     C37281   2.885   1.734  10.020 -0.2825  0.8123 -0.5844
  277MOL0     C37282   3.024   1.788   9.991 -0.7253  0.3792 -0.0542
  277MOL0     C37283   3.115   1.721   9.890  1.0477 -0.1713  0.4314
  277MOL0     O37284   3.237   1.796   9.860  0.3191  0.9712 -0.1011
  277MOL0     C37285   3.298   1.777   9.739 -0.1849 -0.2982 -0.1002
  277MOL0     C37286   3.399   1.859   9.714 -0.3550  0.1352 -0.2139
  277MOL0     C37287   3.481   1.851   9.603 -0.3911  0.5589 -0.7152
  277MOL0     C37288   3.460   1.745   9.510 -0.1954 -0.5453  0.2688
  277MOL0     C37289   3.549   1.719   9.398 -0.6816  0.3068  0.1365
  277MOL0     O37290   3.537   1.604   9.323 -0.4185 -0.7158 -0.1564
  277MOL0     C37291   3.646   1.595   9.237  0.4490 -0.7117 -0.0818
  277MOL0     C37292   3.630   1.651   9.112 -0.1194 -0.2625  0.7794
  277MOL0     C37293   3.721   1.620   9.012  0.6944 -1.2326 -0.2130
  277MOL0     C37294   3.827   1.543   9.029 -0.0828  0.2525  0.5515
  277MOL0     O37295   3.903   1.482   8.930  0.4567 -0.0276 -0.6345
  277MOL0     C37296   3.894   1.511   8.784 -1.2584  0.6121 -0.8509
  277MOL0     C37297   4.012   1.438   8.709 -0.1858  0.3281  0.2251
  277MOL0     C37298   4.137   1.469   8.782 -0.8593  0.2759  0.3449
  277MOL0     C37299   4.270   1.427   8.717 -0.7747 -0.0152 -0.1875
  277MOL0     C37300   4.385   1.421   8.811 -0.1357 -0.2208 -1.5390
  277MOL0     C37301   4.436   1.548   8.872 -0.3772  0.5942  0.6885
  277MOL0     C37302   4.551   1.529   8.979 -0.6252 -0.2543  0.8584
  277MOL0     C37303   4.647   1.405   8.964  1.0638  0.9800  0.2369
  277MOL0    Cl37304   4.765   1.409   9.103  0.2881 -0.2082 -0.4382
  277MOL0     C37305   3.842   1.495   9.159  0.4829  0.2330  0.1168
  277MOL0     C37306   3.754   1.510   9.267 -0.1640 -0.0813 -0.4139
  277MOL0     O37307   3.629   1.808   9.381 -0.1798 -0.0342  0.4816
  277MOL0     C37308   3.353   1.661   9.534 -0.1652 -0.2152 -0.7306
  277MOL0     C37309   3.272   1.670   9.649  0.5171  0.9537  0.1855
  277MOL0     N37310   2.681   1.454   9.993 -0.0634 -0.2450 -0.2746
  277MOL0     N37311   2.579   1.391  10.055  0.0131 -0.3654  0.5378
  277MOL0     C37312   1.669   1.907  10.021 -0.2695 -0.8800  0.2789
  277MOL0     C37313   1.631   2.038   9.981 -0.3045  0.1199 -0.0498
  277MOL0     C37314   1.304   2.337   9.854  0.4634 -0.4584 -0.2927
  277MOL0     C37315   1.285   2.420   9.973  0.8060  0.7495 -0.0002
  277MOL0     C37316   1.212   2.532   9.974 -1.6437 -0.1629  0.2830
  277MOL0     C37317   1.150   2.576   9.858  0.9123 -0.1943 -0.1254
  277MOL0     O37318   1.056   2.670   9.871  0.1176 -0.4447  0.2338
  277MOL0     C37319   1.087   2.808   9.837  0.2765 -0.3378 -0.6093
  277MOL0     C37320   1.082   2.833   9.685 -0.6517 -0.1781 -0.2708
  277MOL0     C37321   0.940   2.818   9.622  0.6338  0.1304 -0.0820
  277MOL0     C37322   0.940   2.895   9.496  0.2972  0.0110  0.0176
  277MOL0     C37323   0.800   2.911   9.455 -0.2660 -0.1050 -0.1090
  277MOL0     C37324   0.681   2.913   9.433  0.0577  0.7712  0.1688
  277MOL0     C37325   1.171   2.504   9.736  1.2797  1.5247  0.0554
  277MOL0     C37326   1.238   2.380   9.732 -0.0278  0.0605 -0.4886
  277MOL0     C37327   1.242   2.304   9.598 -0.4683  0.3998 -0.3876
  277MOL0     H37328   1.308   2.013  10.097 -0.3622  0.6363 -1.9593
  277MOL0     H37329   1.391   1.789  10.146 -2.6774  0.4087 -3.6914
  277MOL0     H37330   1.624   1.724  10.345 -0.3314 -1.1953  1.9084
  277MOL0     H37331   1.521   1.593  10.269  1.8577 -2.4026 -4.0155
  277MOL0     H37332   1.739   1.476  10.213  4.4414 -2.2704  2.9856
  277MOL0     H37333   1.698   1.505  10.382  0.5664  0.3487 -0.3731
  277MOL0     H37334   1.861   1.681  10.411  0.3485 -0.0239  0.7741
  277MOL0     H37335   1.892   1.691  10.237  0.9553 -2.1025 -2.4642
  277MOL0     H37336   1.977   1.475  10.442 -1.9458 -2.9728 -0.4441
  277MOL0     H37337   1.967   1.437  10.265  2.9311  0.0810 -0.2190
  277MOL0     H37338   2.119   1.625  10.223  0.5652 -1.1627 -1.1259
  277MOL0     H37339   2.126   1.652  10.394 -4.6010  0.5381 -0.2327
  277MOL0     H37340   2.233   1.439  10.442 -1.9286 -3.7611 -0.9846
  277MOL0     H37341   2.172   1.382  10.293  2.8820  0.0066 -0.2057
  277MOL0     H37342   2.392   1.604  10.295  1.7088 -1.1189  0.7554
  277MOL0     H37343   2.318   1.511  10.158  1.8125  1.1094 -0.7287
  277MOL0     H37344   2.500   1.401  10.369 -0.5749 -3.7617 -0.9583
  277MOL0     H37345   2.423   1.301  10.253 -1.5962  0.9378 -2.0333
  277MOL0     H37346   2.685   1.588  10.292 -0.6213  0.2203  0.5006
  277MOL0     H37347   2.938   1.595  10.179 -0.2060  4.5261 -0.6642
  277MOL0     H37348   2.949   1.529  10.017 -2.8571 -0.2492 -2.1602
  277MOL0     H37349   2.833   1.735   9.924  1.0932 -0.1565 -1.3715
  277MOL0     H37350   2.839   1.806  10.090 -0.7554 -2.9117  3.3613
  277MOL0     H37351   3.083   1.776  10.082  3.1950  1.7987 -2.1882
  277MOL0     H37352   3.011   1.893   9.963  0.2813 -0.6249 -5.3398
  277MOL0     H37353   3.063   1.697   9.797 -0.7879 -1.2686  1.6806
  277MOL0     H37354   3.135   1.630   9.946  2.2014  1.5447  2.9588
  277MOL0     H37355   3.417   1.930   9.794  0.5751 -1.9880  1.5694
  277MOL0     H37356   3.560   1.924   9.587  0.1507 -0.2667 -1.8856
  277MOL0     H37357   3.541   1.711   9.091 -1.5423 -1.9993  1.5504
  277MOL0     H37358   3.684   1.664   8.919  2.3207  4.6227  1.4535
  277MOL0     H37359   3.794   1.481   8.751 -2.1887 -0.0844  2.3424
  277MOL0     H37360   3.912   1.618   8.771 -2.0229  0.8247 -0.2628
  277MOL0     H37361   3.987   1.331   8.700 -0.9333  0.6240 -1.6716
  277MOL0     H37362   4.016   1.479   8.608  1.3870  2.1700  0.9875
  277MOL0     H37363   4.141   1.578   8.794  1.8906  0.2536  0.1902
  277MOL0     H37364   4.138   1.422   8.880  3.9006 -1.0851 -0.1178
  277MOL0     H37365   4.290   1.481   8.624  1.9802 -3.1546 -1.6323
  277MOL0     H37366   4.250   1.327   8.677 -0.8557  1.2229 -3.6289
  277MOL0     H37367   4.458   1.369   8.750  0.2177 -2.3712  0.5713
  277MOL0     H37368   4.354   1.360   8.897  4.5509  2.0701  2.2626
  277MOL0     H37369   4.484   1.608   8.794  0.0359 -2.3031 -1.4407
  277MOL0     H37370   4.358   1.612   8.914  0.5049  2.3285 -0.1804
  277MOL0     H37371   4.509   1.532   9.080 -1.0990  2.8560  0.6709
  277MOL0     H37372   4.605   1.622   8.961 -1.4134 -0.3803 -2.8174
  277MOL0     H37373   4.590   1.312   8.961 -1.0204  2.2311 -0.1714
  277MOL0     H37374   4.695   1.412   8.866  0.1464  2.0271 -0.1498
  277MOL0     H37375   3.927   1.428   9.165  0.3641 -0.1113 -1.5547
  277MOL0     H37376   3.770   1.450   9.356  1.3451 -4.1865 -3.1361
  277MOL0     H37377   3.341   1.569   9.478  0.8345 -0.7584 -0.0723
  277MOL0     H37378   3.196   1.594   9.653  3.3800 -2.3120 -2.0321
  277MOL0     H37379   1.775   1.885  10.009  0.0083  1.5421 -3.0601
  277MOL0     H37380   1.699   2.110   9.936  1.5250 -1.7376 -0.4009
  277MOL0     H37381   1.323   2.373  10.063 -0.3432 -1.9088 -0.7791
  277MOL0     H37382   1.190   2.581  10.069  1.2450 -2.7381  2.5075
  277MOL0     H37383   1.185   2.830   9.880  1.8591 -4.0648 -1.9191
  277MOL0     H37384   1.014   2.870   9.891 -0.2299 -2.2435  1.0088
  277MOL0     H37385   1.155   2.767   9.637 -1.1075 -1.2934  0.5044
  277MOL0     H37386   1.122   2.934   9.676  1.0767 -0.7145  0.8817
  277MOL0     H37387   0.873   2.880   9.684  0.4731  0.4358 -0.5530
  277MOL0     H37388   0.902   2.716   9.612 -1.2241  0.6943  0.7923
  277MOL0     H37389   0.978   2.992   9.527 -1.9098  0.1729  2.4891
  277MOL0     H37390   0.993   2.846   9.414  1.4201  2.7158 -0.9861
  277MOL0     H37391   0.578   2.893   9.413 -0.2054 -0.0783  2.1982
  277MOL0     H37392   1.108   2.538   9.654  2.0710  1.3514 -0.6300
  277MOL0     H37393   1.175   2.217   9.598 -0.5776  0.4817 -0.1009
  277MOL0     H37394   1.224   2.372   9.514  0.1450  0.3391 -0.5706
  277MOL0     H37395   1.345   2.271   9.579 -0.7141 -0.5967 -0.0418
  278MOL0     O37396   7.776  10.529  11.498 -0.2362 -0.0320  0.1751
  278MOL0     C37397   7.665  10.498  11.519 -0.3269 -0.6696 -0.5140
  278MOL0     O37398   7.568  10.493  11.428 -0.3650  0.1308  0.3928
  278MOL0     C37399   7.599  10.441  11.299 -0.4640  0.5154  1.0501
  278MOL0     C37400   7.702  10.341  11.283  0.7026  0.1715  0.6305
  278MOL0     C37401   7.726  10.293  11.157 -0.1461 -0.1520 -0.6865
  278MOL0     C37402   7.646  10.314  11.042  1.1749  0.1825  0.0871
  278MOL0     O37403   7.673  10.278  10.909 -0.4650  0.5597 -0.1995
  278MOL0     C37404   7.746  10.391  10.850 -0.0400  0.5061  0.5109
  278MOL0     C37405   7.895  10.366  10.859 -0.1162 -0.3516 -0.1582
  278MOL0     C37406   7.960  10.237  10.802 -0.1715  0.3688  0.6875
  278MOL0     C37407   8.114  10.241  10.815  0.5589  0.0110  0.8340
  278MOL0     C37408   8.189  10.182  10.693 -1.0466 -0.7347 -0.2755
  278MOL0     C37409   8.145  10.040  10.655  0.4590  0.1186  0.1691
  278MOL0     C37410   8.073  10.042  10.508 -0.7964 -0.1754 -0.2302
  278MOL0     C37411   8.045   9.887  10.471  0.2556 -0.3809 -0.2319
  278MOL0     N37412   8.021   9.873  10.332 -0.2223  0.6396  0.5135
  278MOL0     C37413   8.117   9.827  10.244  0.0564  0.4481  0.1210
  278MOL0     C37414   8.054   9.767  10.127  0.4296 -0.5193  0.4339
  278MOL0     C37415   8.125   9.708  10.019  0.2579  0.0350  0.3775
  278MOL0     C37416   8.205   9.814   9.942  0.3342 -0.5955  0.6071
  278MOL0     C37417   8.259   9.729   9.824 -0.1107  0.4483 -0.3353
  278MOL0     C37418   8.356   9.828   9.762  0.8484  0.0542  0.6674
  278MOL0     O37419   8.400   9.763   9.643  0.0597  0.6197  0.1004
  278MOL0     C37420   8.486   9.832   9.563  0.2091 -0.5339 -0.6655
  278MOL0     C37421   8.562   9.754   9.477  0.0462 -0.2727  0.0344
  278MOL0     C37422   8.663   9.817   9.395  1.2807  0.3515 -0.9617
  278MOL0     C37423   8.686   9.958   9.385  0.5751  0.1703 -0.7629
  278MOL0     C37424   8.802  10.019   9.301 -0.2551  0.0112 -1.3741
  278MOL0     O37425   8.840  10.152   9.314  0.3411  0.0882 -0.0290
  278MOL0     C37426   8.958  10.202   9.264 -0.4222  0.5086  0.9654
  278MOL0     C37427   9.016  10.300   9.352  0.0775  0.3301  0.2184
  278MOL0     C37428   9.147  10.343   9.331  0.3587  0.7922 -0.2348
  278MOL0     C37429   9.222  10.300   9.220 -0.3261 -0.5556 -0.6074
  278MOL0     O37430   9.345  10.365   9.210  0.4947 -0.5824  0.1115
  278MOL0     C37431   9.437  10.319   9.114 -0.1805  0.8579  0.2492
  278MOL0     C37432   9.572  10.388   9.142 -0.8941 -0.9579 -0.0339
  278MOL0     C37433   9.632  10.338   9.271  0.4930 -0.0065 -0.5505
  278MOL0     C37434   9.775  10.406   9.294  0.2639  0.8939  0.9630
  278MOL0     C37435   9.835  10.356   9.425  0.6455  0.2867 -0.0815
  278MOL0     C37436   9.972  10.409   9.442 -0.2252  0.5634 -0.4176
  278MOL0     C37437  10.017  10.412   9.586  0.4115  0.4821 -0.6853
  278MOL0     C37438   9.982  10.544   9.658  0.5947 -0.2112 -0.6796
  278MOL0    Cl37439   9.807  10.605   9.647 -0.0137 -0.1891 -0.0947
  278MOL0     C37440   9.169  10.201   9.132  1.0725 -0.0003  0.5197
  278MOL0     C37441   9.035  10.152   9.154 -1.4278 -0.3279  0.6476
  278MOL0     O37442   8.872   9.937   9.241  0.3216 -0.4322  0.2400
  278MOL0     C37443   8.600  10.033   9.471  0.3868 -0.1081  0.2092
  278MOL0     C37444   8.508   9.974   9.567  0.2195 -0.5522 -0.0183
  278MOL0     N37445   7.915   9.801  10.148 -0.2952  0.3791  0.7832
  278MOL0     N37446   7.897   9.863  10.267  0.2845 -0.5560 -0.3819
  278MOL0     C37447   7.538  10.405  11.063 -1.1222 -0.0245  1.1142
  278MOL0     C37448   7.512  10.463  11.182 -0.8724 -0.5064 -0.1386
  278MOL0     C37449   7.626  10.501  11.657  1.1862  0.8144  0.8075
  278MOL0     C37450   7.484  10.509  11.686 -0.6712 -1.0624 -0.3715
  278MOL0     C37451   7.438  10.495  11.817  0.9818 -0.2955  0.0166
  278MOL0     C37452   7.518  10.478  11.928 -0.7385  0.1370 -1.0972
  278MOL0     O37453   7.484  10.480  12.058  0.2296  0.0590  0.5360
  278MOL0     C37454   7.344  10.497  12.104  0.1081  0.1115 -0.8314
  278MOL0     C37455   7.291  10.375  12.190  0.2656 -0.5704  0.6900
  278MOL0     C37456   7.139  10.397  12.236  0.2894 -0.1072 -0.5315
  278MOL0     C37457   7.092  10.275  12.314 -0.3163 -0.1067  0.3811
  278MOL0     C37458   7.131  10.261  12.451  0.7883 -0.0217  0.0884
  278MOL0     C37459   7.149  10.268  12.570  1.2879  0.4696 -0.1886
  278MOL0     C37460   7.655  10.474  11.905 -0.7408 -0.1481  0.5270
  278MOL0     C37461   7.709  10.482  11.773 -0.2283 -0.3554  0.6161
  278MOL0     C37462   7.862  10.481  11.753  0.6202  0.6953 -0.6544
  278MOL0     H37463   7.771  10.320  11.364 -0.7637  0.2369  1.9511
  278MOL0     H37464   7.812  10.229  11.140  1.4679  1.4846  0.8269
  278MOL0     H37465   7.722  10.401  10.744  0.8695 -0.8206  0.1434
  278MOL0     H37466   7.726  10.490  10.891  0.2359  2.3933 -3.4614
  278MOL0     H37467   7.931  10.391  10.959 -1.3944  3.9190 -0.5332
  278MOL0     H37468   7.938  10.449  10.803  1.9639 -1.2633  0.0268
  278MOL0     H37469   7.941  10.237  10.694  2.2866  0.5079  0.1875
  278MOL0     H37470   7.914  10.147  10.844 -2.8031  0.7736 -1.0889
  278MOL0     H37471   8.134  10.348  10.830 -1.4292  0.6710 -0.7318
  278MOL0     H37472   8.146  10.191  10.907 -0.2040  0.6422  1.4559
  278MOL0     H37473   8.177  10.251  10.609  0.1363 -0.0668  0.0774
  278MOL0     H37474   8.294  10.173  10.720 -1.7775  0.2764  3.4414
  278MOL0     H37475   8.230   9.971  10.646 -0.0674 -0.3804 -1.1840
  278MOL0     H37476   8.078   9.996  10.729  0.0166 -4.7622 -2.7088
  278MOL0     H37477   8.134  10.069  10.421  0.9695 -2.4169  0.2047
  278MOL0     H37478   7.977  10.094  10.504 -3.3368 -4.2483  1.2417
  278MOL0     H37479   8.127   9.818  10.492  0.1673 -0.5067 -0.2948
  278MOL0     H37480   7.955   9.858  10.527 -0.9680 -1.9753 -2.8180
  278MOL0     H37481   8.222   9.831  10.272 -0.2583 -0.7293  1.6023
  278MOL0     H37482   8.184   9.630  10.067  0.4654  0.4042  0.7331
  278MOL0     H37483   8.058   9.667   9.943 -0.6456  0.9704  0.6486
  278MOL0     H37484   8.143   9.899   9.910  0.8555  0.6257  2.6420
  278MOL0     H37485   8.294   9.849   9.995  0.8232 -2.5712  1.1533
  278MOL0     H37486   8.170   9.713   9.761 -0.5359 -0.2193  0.4217
  278MOL0     H37487   8.306   9.640   9.867  2.7138  1.3435 -1.3639
  278MOL0     H37488   8.434   9.852   9.834 -1.6494  1.6177  3.0593
  278MOL0     H37489   8.296   9.917   9.743 -0.4067 -0.5412  1.6966
  278MOL0     H37490   8.552   9.647   9.460  4.4432 -0.8456 -0.3801
  278MOL0     H37491   8.730   9.749   9.344  1.6583 -0.0794  0.0829
  278MOL0     H37492   8.956  10.331   9.437 -0.3833 -2.1199  0.8887
  278MOL0     H37493   9.201  10.397   9.409 -0.5171 -3.6643  3.8705
  278MOL0     H37494   9.444  10.212   9.137 -0.6529  1.2916  2.6766
  278MOL0     H37495   9.401  10.341   9.013  2.9501 -0.0926 -1.2242
  278MOL0     H37496   9.647  10.370   9.064 -2.3401 -1.0010 -1.4641
  278MOL0     H37497   9.559  10.496   9.141  0.2230 -0.7436  2.1015
  278MOL0     H37498   9.568  10.359   9.357  2.0261 -4.0584  1.8533
  278MOL0     H37499   9.642  10.229   9.267  2.9783 -0.0926  3.0654
  278MOL0     H37500   9.787  10.514   9.284  0.4178  0.6943 -1.9273
  278MOL0     H37501   9.831  10.364   9.210 -2.3564 -0.9953  0.0427
  278MOL0     H37502   9.843  10.247   9.415 -2.1202  0.1576 -1.9884
  278MOL0     H37503   9.778  10.384   9.514 -3.0983 -0.7219 -1.9348
  278MOL0     H37504  10.043  10.348   9.384 -2.1124 -2.2886  0.0250
  278MOL0     H37505   9.977  10.508   9.398  0.7818  0.3615 -0.7847
  278MOL0     H37506  10.125  10.402   9.580  0.6170 -0.6425  2.8515
  278MOL0     H37507   9.967  10.332   9.641 -0.7094  1.5430 -0.0911
  278MOL0     H37508  10.005  10.526   9.763  2.2460 -0.0878 -1.0019
  278MOL0     H37509  10.052  10.623   9.628  1.8130 -1.5732 -1.5347
  278MOL0     H37510   9.231  10.176   9.047  1.1232  2.2922 -0.2022
  278MOL0     H37511   8.982  10.103   9.073 -2.7971  3.6481 -1.1033
  278MOL0     H37512   8.617  10.139   9.490 -2.1182  0.5214 -0.5758
  278MOL0     H37513   8.441  10.022   9.638  1.1798 -1.5307  1.6094
  278MOL0     H37514   7.473  10.429  10.979  0.9428 -2.0270 -1.2509
  278MOL0     H37515   7.429  10.533  11.187  1.8265  3.1447 -1.4428
  278MOL0     H37516   7.405  10.504  11.611 -0.0015 -1.4607 -1.0623
  278MOL0     H37517   7.330  10.484  11.821  0.9539  0.2971  2.5330
  278MOL0     H37518   7.271  10.513  12.024 -1.9305  3.1546  1.3988
  278MOL0     H37519   7.333  10.591  12.159  0.1228 -1.0684  1.2991
  278MOL0     H37520   7.357  10.353  12.275 -2.7080 -1.0567  3.0416
  278MOL0     H37521   7.309  10.285  12.131  0.6075 -1.6588  2.3622
  278MOL0     H37522   7.077  10.398  12.146 -0.7471 -0.0561  0.1636
  278MOL0     H37523   7.119  10.489  12.292  2.3654  0.0880 -0.0203
  278MOL0     H37524   6.983  10.279  12.320 -0.2448  2.3233  1.1263
  278MOL0     H37525   7.117  10.191  12.248 -1.7274  0.9579 -1.5801
  278MOL0     H37526   7.157  10.256  12.676  1.3226 -0.6146 -0.3090
  278MOL0     H37527   7.729  10.444  11.979 -1.1304 -1.6103  0.3534
  278MOL0     H37528   7.883  10.400  11.683 -0.8122 -0.1174 -0.1916
  278MOL0     H37529   7.894  10.579  11.718 -2.0052  1.9463  0.1914
  278MOL0     H37530   7.911  10.449  11.845 -0.4406 -2.9747 -1.1920
  279MOL0     O37531   1.089   7.114   4.156 -0.8369 -0.0513 -0.2423
  279MOL0     C37532   1.080   7.235   4.130 -1.3164  0.6450  1.0278
  279MOL0     O37533   1.157   7.303   4.041 -0.2546 -0.4118  0.4440
  279MOL0     C37534   1.214   7.223   3.948 -1.1074  0.4888 -0.4195
  279MOL0     C37535   1.151   7.185   3.828  0.4180  0.2409 -0.8780
  279MOL0     C37536   1.215   7.096   3.732  1.0406  0.3028  0.7583
  279MOL0     C37537   1.339   7.040   3.765  0.3086 -0.0896  0.2132
  279MOL0     O37538   1.396   6.944   3.681  0.8115  1.2890 -0.8964
  279MOL0     C37539   1.314   6.842   3.623  1.5289 -0.0884 -0.2801
  279MOL0     C37540   1.398   6.764   3.520  0.3072  0.2982  0.7105
  279MOL0     C37541   1.536   6.728   3.574  0.2816  0.0062 -0.5581
  279MOL0     C37542   1.577   6.614   3.481 -0.5044  0.2034 -0.6504
  279MOL0     C37543   1.708   6.549   3.531 -0.5121  0.1319  0.6799
  279MOL0     C37544   1.828   6.650   3.518  0.7240 -0.5646  1.3175
  279MOL0     C37545   1.854   6.710   3.378 -0.0083 -0.1074  0.9515
  279MOL0     C37546   1.907   6.613   3.277  0.4079 -0.4223 -0.0921
  279MOL0     N37547   1.918   6.671   3.143  0.5410 -0.4791  1.0046
  279MOL0     C37548   1.828   6.656   3.038 -0.3858 -0.0820 -0.4234
  279MOL0     C37549   1.902   6.711   2.937 -1.1037 -0.3726 -0.0944
  279MOL0     C37550   1.863   6.698   2.803  0.2140 -0.8743  1.0007
  279MOL0     C37551   1.891   6.559   2.756 -0.1540  0.7499  0.4574
  279MOL0     C37552   1.807   6.543   2.618 -0.2352 -0.3388 -0.3332
  279MOL0     C37553   1.879   6.632   2.504  0.6691  0.5014 -0.7537
  279MOL0     O37554   1.788   6.615   2.389 -0.9674  0.1864  0.2357
  279MOL0     C37555   1.770   6.732   2.324  0.6348 -0.2156  0.1409
  279MOL0     C37556   1.817   6.765   2.202 -0.2114  0.5815 -0.2758
  279MOL0     C37557   1.777   6.890   2.141  0.2859  0.2897 -0.1089
  279MOL0     C37558   1.676   6.970   2.208 -0.7463  0.4964 -0.4802
  279MOL0     C37559   1.624   7.090   2.137  0.3866  0.1081 -0.5736
  279MOL0     O37560   1.669   7.111   2.013 -0.1224 -0.3680  0.3802
  279MOL0     C37561   1.652   7.229   1.949  0.0568  0.6882 -0.2398
  279MOL0     C37562   1.679   7.240   1.814 -0.0401  0.2722  0.4472
  279MOL0     C37563   1.652   7.354   1.734 -0.3817  0.0829 -1.2470
  279MOL0     C37564   1.613   7.468   1.802 -0.6232  0.5201  0.1010
  279MOL0     O37565   1.591   7.575   1.723  0.2988 -0.3666 -0.6994
  279MOL0     C37566   1.698   7.681   1.747 -0.4091  0.2473  0.5161
  279MOL0     C37567   1.642   7.803   1.819 -0.1034 -0.2093 -0.1538
  279MOL0     C37568   1.520   7.858   1.754 -0.0140  0.6923 -0.6304
  279MOL0     C37569   1.443   7.970   1.834 -0.0990  0.8896 -0.1322
  279MOL0     C37570   1.331   8.029   1.759 -0.0583 -0.0303  0.5275
  279MOL0     C37571   1.247   8.102   1.860  0.1572 -0.7417 -0.2932
  279MOL0     C37572   1.142   8.195   1.792  0.2799  0.3263  0.1330
  279MOL0     C37573   1.013   8.158   1.849 -1.0185  0.5204 -0.0167
  279MOL0    Cl37574   0.891   8.279   1.792 -0.0225 -0.2569  0.0578
  279MOL0     C37575   1.594   7.470   1.944  0.5283  0.0266  0.5071
  279MOL0     C37576   1.607   7.346   2.013 -1.0934 -0.4327 -0.4776
  279MOL0     O37577   1.525   7.146   2.179  0.3409  0.2680 -0.3159
  279MOL0     C37578   1.630   6.931   2.335 -0.2971 -0.1305 -0.8483
  279MOL0     C37579   1.684   6.822   2.394 -0.1168  1.2062  0.7247
  279MOL0     N37580   2.024   6.764   2.974 -0.5434 -0.3355  1.4107
  279MOL0     N37581   2.025   6.741   3.099 -0.9660 -0.0756 -0.9791
  279MOL0     C37582   1.411   7.082   3.874  0.3739 -1.2255 -0.5749
  279MOL0     C37583   1.345   7.162   3.973  0.1809 -0.5512 -0.2520
  279MOL0     C37584   0.961   7.305   4.195  0.1672 -0.2506  0.4416
  279MOL0     C37585   0.855   7.233   4.259 -0.1339  0.3203 -0.4704
  279MOL0     C37586   0.737   7.286   4.300  0.0891 -0.2172 -0.5782
  279MOL0     C37587   0.700   7.414   4.259 -0.6759  0.1734  0.0420
  279MOL0     O37588   0.584   7.464   4.302  0.0701  0.8140 -0.1862
  279MOL0     C37589   0.499   7.520   4.204  0.7152 -0.6207  0.5347
  279MOL0     C37590   0.341   7.481   4.210 -0.5690 -0.2621  0.1521
  279MOL0     C37591   0.321   7.325   4.225  0.1414 -0.4793  0.1880
  279MOL0     C37592   0.198   7.288   4.315  0.1604  0.6951 -0.0603
  279MOL0     C37593   0.076   7.341   4.262  0.7939 -0.2509 -0.6972
  279MOL0     C37594  -0.030   7.381   4.227  0.2511  0.5971 -0.8456
  279MOL0     C37595   0.806   7.493   4.212  0.7939 -0.2826  0.1574
  279MOL0     C37596   0.935   7.442   4.170  1.2117 -0.1722 -0.0887
  279MOL0     C37597   1.032   7.539   4.117 -0.2776  0.6572  0.0368
  279MOL0     H37598   1.048   7.219   3.817  0.2118  2.0481  4.3030
  279MOL0     H37599   1.182   7.063   3.634  0.7377  1.2424  0.5317
  279MOL0     H37600   1.275   6.765   3.691  1.7768 -0.8285 -0.9641
  279MOL0     H37601   1.230   6.887   3.569  1.9346 -0.1884 -1.0008
  279MOL0     H37602   1.400   6.826   3.430 -1.6498 -1.3440 -0.5324
  279MOL0     H37603   1.347   6.673   3.487  2.1284  0.2524 -2.2832
  279MOL0     H37604   1.532   6.690   3.676  2.7759  1.5230  0.1841
  279MOL0     H37605   1.605   6.812   3.567  1.0199 -0.4389  0.9811
  279MOL0     H37606   1.501   6.536   3.487 -0.1797 -0.0854 -0.2218
  279MOL0     H37607   1.582   6.650   3.377  0.8457 -1.3815 -1.1944
  279MOL0     H37608   1.698   6.538   3.639  0.2851  2.1994  1.0124
  279MOL0     H37609   1.718   6.452   3.481  1.0161  0.0445  1.0953
  279MOL0     H37610   1.821   6.725   3.598  1.3026 -0.9923  1.7725
  279MOL0     H37611   1.922   6.597   3.532  1.8772  1.2900  0.9242
  279MOL0     H37612   1.926   6.791   3.395  0.6137 -0.5952  0.6903
  279MOL0     H37613   1.765   6.759   3.338 -0.0568 -0.9158  0.0440
  279MOL0     H37614   1.998   6.570   3.319  0.3377  0.0632  0.5608
  279MOL0     H37615   1.840   6.526   3.273 -0.1585  0.0454 -1.7884
  279MOL0     H37616   1.735   6.602   3.034  1.5788 -4.0998  2.1442
  279MOL0     H37617   1.760   6.735   2.791  1.4115  1.6701 -3.6062
  279MOL0     H37618   1.922   6.764   2.740 -1.8498  0.7001  0.5982
  279MOL0     H37619   1.997   6.539   2.737 -0.2500  0.6564  0.0057
  279MOL0     H37620   1.847   6.478   2.814 -1.6924 -1.6283 -3.5800
  279MOL0     H37621   1.707   6.580   2.642  0.3837  2.5407 -1.7564
  279MOL0     H37622   1.824   6.438   2.593  4.2078 -0.7298  3.1167
  279MOL0     H37623   1.972   6.582   2.475 -1.0254 -2.4321 -1.5023
  279MOL0     H37624   1.907   6.733   2.533  0.3969  0.6867 -1.1295
  279MOL0     H37625   1.877   6.685   2.160 -2.2816 -1.0299 -0.3283
  279MOL0     H37626   1.809   6.898   2.038  0.2804  0.2974 -0.1100
  279MOL0     H37627   1.726   7.150   1.776 -2.1817 -0.0192 -1.7356
  279MOL0     H37628   1.674   7.355   1.628  1.0925  0.1378 -0.9519
  279MOL0     H37629   1.777   7.643   1.812 -0.4783  1.0788  1.1115
  279MOL0     H37630   1.725   7.719   1.648  1.7984 -0.2135  0.9046
  279MOL0     H37631   1.619   7.761   1.917 -0.2394 -0.5310 -0.3184
  279MOL0     H37632   1.715   7.884   1.821  1.5576 -1.6040 -1.0872
  279MOL0     H37633   1.546   7.895   1.654 -0.3101  0.8382 -0.6542
  279MOL0     H37634   1.454   7.774   1.729 -0.0658  0.0883  1.4152
  279MOL0     H37635   1.514   8.051   1.851  3.8621 -2.2953  0.0678
  279MOL0     H37636   1.413   7.933   1.932  0.0416  0.4460 -0.2504
  279MOL0     H37637   1.266   7.949   1.722 -0.2213 -0.4353  1.6438
  279MOL0     H37638   1.371   8.099   1.685 -1.4219  4.7039  3.7613
  279MOL0     H37639   1.193   8.029   1.921 -0.7066 -2.4016 -2.8705
  279MOL0     H37640   1.297   8.153   1.943 -1.9065  0.0728  0.5044
  279MOL0     H37641   1.140   8.190   1.682 -4.4078  2.7795 -0.1535
  279MOL0     H37642   1.163   8.298   1.819 -3.7990  0.4856  3.7074
  279MOL0     H37643   0.982   8.062   1.806  4.5334 -2.6068  2.0358
  279MOL0     H37644   1.020   8.141   1.957  0.3731 -3.1732 -0.5448
  279MOL0     H37645   1.556   7.558   1.995 -2.9592 -0.8113 -0.3549
  279MOL0     H37646   1.600   7.350   2.122 -0.1479  1.6027 -0.4569
  279MOL0     H37647   1.568   6.994   2.398 -0.8565  0.2998 -1.8190
  279MOL0     H37648   1.640   6.788   2.487 -2.7832  1.5097 -0.3609
  279MOL0     H37649   1.505   7.035   3.902 -0.7234 -1.5545  3.0405
  279MOL0     H37650   1.396   7.176   4.068  2.1954 -0.1893 -1.3115
  279MOL0     H37651   0.862   7.125   4.261 -3.7015 -0.0596 -1.1325
  279MOL0     H37652   0.673   7.209   4.342  2.5938 -1.0673  1.9507
  279MOL0     H37653   0.523   7.491   4.102 -0.6915  1.0745 -0.3441
  279MOL0     H37654   0.495   7.629   4.213 -0.0181 -0.6278  0.2747
  279MOL0     H37655   0.290   7.533   4.129  2.2961  1.6275 -0.6175
  279MOL0     H37656   0.307   7.531   4.301  0.8063  1.0033  0.0070
  279MOL0     H37657   0.413   7.282   4.266  0.3710 -1.9132 -1.6657
  279MOL0     H37658   0.313   7.299   4.119  1.8562  0.1714 -0.1431
  279MOL0     H37659   0.182   7.180   4.306  2.3037  0.5026 -2.9786
  279MOL0     H37660   0.205   7.321   4.419 -2.3759  0.1807  0.3382
  279MOL0     H37661  -0.133   7.402   4.204 -1.6269 -5.1473  0.5986
  279MOL0     H37662   0.779   7.598   4.205  1.6813  0.0097  0.9492
  279MOL0     H37663   1.041   7.525   4.008 -0.7993  1.3889 -0.1090
  279MOL0     H37664   1.006   7.642   4.140  0.4867  1.0730 -0.8860
  279MOL0     H37665   1.134   7.522   4.153  0.0094 -0.1803 -1.0906
  280MOL0     O37666   5.738   3.860   9.673  0.2042  0.3486  0.1962
  280MOL0     C37667   5.680   3.807   9.764 -0.6165 -1.0642 -1.4314
  280MOL0     O37668   5.594   3.708   9.755 -0.3780  0.3334  0.5568
  280MOL0     C37669   5.501   3.710   9.652 -0.0939  1.3740 -0.1260
  280MOL0     C37670   5.393   3.797   9.646 -0.0089 -1.5072 -0.3664
  280MOL0     C37671   5.317   3.795   9.527  0.4137 -0.2182 -0.1412
  280MOL0     C37672   5.327   3.697   9.430  1.1537  0.0995  0.5774
  280MOL0     O37673   5.237   3.704   9.325  0.3546  1.1246 -0.0825
  280MOL0     C37674   5.236   3.600   9.224  0.1905  0.6107  1.7236
  280MOL0     C37675   5.152   3.488   9.292 -0.1813 -0.2690 -0.2972
  280MOL0     C37676   5.168   3.353   9.220  0.1501  1.0301 -0.2784
  280MOL0     C37677   5.104   3.354   9.074 -0.3194 -0.1967  0.2914
  280MOL0     C37678   5.114   3.216   9.006  0.2947 -0.2283 -0.2310
  280MOL0     C37679   4.985   3.193   8.923 -1.0472 -0.4994 -0.3683
  280MOL0     C37680   4.964   3.282   8.802  0.5653  0.2578  0.8116
  280MOL0     C37681   4.863   3.388   8.836  0.0288 -0.6916 -0.1672
  280MOL0     N37682   4.858   3.489   8.734 -0.3261 -0.7097 -0.2553
  280MOL0     C37683   4.933   3.605   8.714  0.3748  0.2599 -0.1500
  280MOL0     C37684   4.883   3.675   8.603  0.4064  0.6901  0.7196
  280MOL0     C37685   4.929   3.791   8.530 -0.1679 -0.1420 -0.0293
  280MOL0     C37686   5.007   3.896   8.611 -0.7678 -0.3590  0.4590
  280MOL0     C37687   5.080   3.995   8.518  0.2163 -0.1786  0.4002
  280MOL0     C37688   5.140   4.098   8.601 -0.8277  0.1246  0.3535
  280MOL0     O37689   5.201   4.200   8.513 -0.2375  1.0571  0.5070
  280MOL0     C37690   5.275   4.294   8.576  0.0641 -0.5112 -0.5987
  280MOL0     C37691   5.272   4.315   8.713  0.1235  0.4574 -0.8522
  280MOL0     C37692   5.353   4.409   8.768  0.6460  0.1168  0.0537
  280MOL0     C37693   5.449   4.484   8.691 -0.0597  0.2456 -0.6932
  280MOL0     C37694   5.552   4.558   8.767  0.5143  0.1092 -1.0827
  280MOL0     O37695   5.655   4.606   8.692 -0.8867  0.5379 -0.6649
  280MOL0     C37696   5.736   4.694   8.758 -0.1658  0.8632 -0.3311
  280MOL0     C37697   5.841   4.633   8.822  0.4765 -0.2881  0.3743
  280MOL0     C37698   5.940   4.712   8.872  0.7587  0.8566  0.5973
  280MOL0     C37699   5.917   4.844   8.869 -0.2975 -0.1087 -0.6314
  280MOL0     O37700   6.016   4.912   8.931  1.1593  0.2872  0.3101
  280MOL0     C37701   6.049   5.043   8.891  0.1349 -0.4534 -0.4190
  280MOL0     C37702   6.176   5.073   8.981  0.1087  0.3351  0.0692
  280MOL0     C37703   6.267   5.162   8.891 -0.3966 -1.1233 -0.3712
  280MOL0     C37704   6.399   5.198   8.966 -0.4682  0.1950 -0.2859
  280MOL0     C37705   6.387   5.346   9.023 -0.0185 -0.3916  0.5398
  280MOL0     C37706   6.523   5.394   9.073  1.2591 -0.0050 -0.1821
  280MOL0     C37707   6.523   5.533   9.126  1.4052 -0.0135 -0.1002
  280MOL0     C37708   6.662   5.591   9.155  0.1609 -0.1196  0.0546
  280MOL0    Cl37709   6.751   5.537   9.304 -0.8397  0.3978  0.0984
  280MOL0     C37710   5.810   4.910   8.817 -0.0120  0.4185  0.0413
  280MOL0     C37711   5.720   4.830   8.748  0.6597  0.3999 -1.0983
  280MOL0     O37712   5.532   4.576   8.884 -0.4062 -0.6332  0.0408
  280MOL0     C37713   5.442   4.473   8.550 -0.2465  0.0844 -0.6167
  280MOL0     C37714   5.362   4.371   8.496  0.4581 -0.2745 -0.6452
  280MOL0     N37715   4.779   3.591   8.550  0.7880  0.4116 -0.1767
  280MOL0     N37716   4.770   3.481   8.635  0.5090  0.0401  0.0196
  280MOL0     C37717   5.436   3.614   9.439  0.3934 -0.2928  1.3233
  280MOL0     C37718   5.515   3.620   9.546  0.6011 -0.1374  0.1642
  280MOL0     C37719   5.724   3.853   9.902 -0.6442 -0.6332  0.6364
  280MOL0     C37720   5.670   3.793  10.016 -0.0384  0.7865 -0.1838
  280MOL0     C37721   5.704   3.830  10.143  0.0586  0.8980  0.3003
  280MOL0     C37722   5.798   3.927  10.178 -0.2637  0.3161  0.9294
  280MOL0     O37723   5.860   3.964  10.296  0.5666 -0.1922  0.3060
  280MOL0     C37724   5.854   3.878  10.404  0.9233  0.2322  0.2696
  280MOL0     C37725   5.924   3.955  10.510  0.8306  0.7017  0.5270
  280MOL0     C37726   6.073   3.979  10.476 -0.1750 -0.2225 -0.1499
  280MOL0     C37727   6.154   3.863  10.407  0.4565  0.5891  0.4278
  280MOL0     C37728   6.130   3.741  10.483 -0.5042 -0.2359  0.1192
  280MOL0     C37729   6.114   3.633  10.543  1.3341 -0.1662 -0.0732
  280MOL0     C37730   5.843   3.995  10.066  0.7808  0.2682  0.5155
  280MOL0     C37731   5.806   3.968   9.935 -0.5486 -0.4691 -0.5548
  280MOL0     C37732   5.875   4.053   9.836  0.2064  0.6753 -0.1130
  280MOL0     H37733   5.363   3.862   9.728 -0.1754 -2.3265  0.2338
  280MOL0     H37734   5.234   3.864   9.512  0.6094  0.0897  0.1674
  280MOL0     H37735   5.171   3.628   9.140 -0.9168 -3.6917  0.9115
  280MOL0     H37736   5.336   3.572   9.187 -0.0176  0.6201  1.1476
  280MOL0     H37737   5.048   3.522   9.282  0.8098  2.2576 -3.7532
  280MOL0     H37738   5.177   3.473   9.397 -1.9127  0.3843  0.2489
  280MOL0     H37739   5.140   3.277   9.293  1.2631 -0.5794 -1.4714
  280MOL0     H37740   5.275   3.331   9.221  0.2864  1.2940  2.7771
  280MOL0     H37741   5.001   3.379   9.099 -0.7855 -1.8256  0.0649
  280MOL0     H37742   5.134   3.441   9.015 -1.2149  0.1487  0.3290
  280MOL0     H37743   5.201   3.217   8.940 -0.0722  2.3270 -0.7900
  280MOL0     H37744   5.130   3.145   9.088 -1.7958  1.7996  2.1449
  280MOL0     H37745   5.000   3.091   8.886 -0.2764 -0.3893 -0.3814
  280MOL0     H37746   4.898   3.190   8.988  0.5074 -0.2068  1.8479
  280MOL0     H37747   4.921   3.223   8.720  0.2913  2.7144 -0.9328
  280MOL0     H37748   5.053   3.330   8.760 -1.1749  1.0251 -2.3741
  280MOL0     H37749   4.763   3.343   8.833 -0.6018  0.6946 -1.6954
  280MOL0     H37750   4.879   3.436   8.932 -0.1737 -0.7899 -0.0854
  280MOL0     H37751   5.022   3.626   8.772  1.7575  2.5147 -2.8344
  280MOL0     H37752   4.992   3.762   8.446 -1.1080 -0.2486 -0.7004
  280MOL0     H37753   4.839   3.838   8.490  0.4554  0.0867 -1.1832
  280MOL0     H37754   4.942   3.947   8.683 -0.3288 -1.0249  1.3525
  280MOL0     H37755   5.088   3.838   8.657 -0.7833 -0.7590 -0.0199
  280MOL0     H37756   4.993   4.044   8.473  0.1851  1.2603  1.8984
  280MOL0     H37757   5.142   3.963   8.434 -2.0941  0.7758 -1.7825
  280MOL0     H37758   5.230   4.057   8.649  0.7687  0.7270 -1.9730
  280MOL0     H37759   5.078   4.143   8.679  1.2466  1.9600  1.0433
  280MOL0     H37760   5.219   4.269   8.795  1.6618  0.0901 -0.0259
  280MOL0     H37761   5.360   4.405   8.876  1.5738 -0.1419 -0.0053
  280MOL0     H37762   5.843   4.525   8.817  1.3324 -0.2889  0.5198
  280MOL0     H37763   6.025   4.666   8.922  0.9611 -0.0501 -0.5191
  280MOL0     H37764   6.084   5.059   8.789  1.8620  0.7809  0.3131
  280MOL0     H37765   5.978   5.123   8.913  2.2051  1.3206  0.2266
  280MOL0     H37766   6.143   5.124   9.072 -0.4509 -0.0122  0.0624
  280MOL0     H37767   6.240   4.989   9.012  0.6357  0.5303 -0.4755
  280MOL0     H37768   6.298   5.094   8.811  1.4800 -0.6630 -0.0770
  280MOL0     H37769   6.217   5.251   8.850 -0.1430 -0.3002  1.0382
  280MOL0     H37770   6.480   5.203   8.892 -0.8884 -0.4948 -0.7988
  280MOL0     H37771   6.405   5.125   9.047 -2.9194  1.9917  1.6701
  280MOL0     H37772   6.310   5.349   9.101 -0.7476  0.7179 -0.1958
  280MOL0     H37773   6.354   5.420   8.950  1.0703  0.0484  0.4762
  280MOL0     H37774   6.562   5.326   9.149 -0.4366 -1.0846 -0.2331
  280MOL0     H37775   6.590   5.402   8.986  0.3407  3.7696 -0.7267
  280MOL0     H37776   6.471   5.535   9.222 -0.3474 -0.9311 -0.9967
  280MOL0     H37777   6.477   5.588   9.044 -2.5449  1.7228  2.9486
  280MOL0     H37778   6.729   5.563   9.073  0.0108 -1.3370  0.3266
  280MOL0     H37779   6.652   5.700   9.155 -1.0970 -0.1720  2.1298
  280MOL0     H37780   5.798   5.018   8.812 -0.9715  0.3187 -0.0734
  280MOL0     H37781   5.636   4.869   8.691 -0.2861 -2.1158 -1.5637
  280MOL0     H37782   5.506   4.543   8.498  1.2494  0.6586  1.8615
  280MOL0     H37783   5.361   4.354   8.389  2.0453 -1.8927 -0.4578
  280MOL0     H37784   5.455   3.542   9.360  0.4280 -0.8366  1.8170
  280MOL0     H37785   5.592   3.544   9.560  0.3760 -0.3549  0.2453
  280MOL0     H37786   5.592   3.720   9.996  2.6471 -1.7708 -2.3008
  280MOL0     H37787   5.662   3.782  10.231  0.7267  1.1131  0.7510
  280MOL0     H37788   5.900   3.783  10.377  0.8491 -0.1564  1.4354
  280MOL0     H37789   5.753   3.850  10.436  1.3869  0.7147  2.3516
  280MOL0     H37790   5.915   3.888  10.596  1.7915 -2.6930 -1.7919
  280MOL0     H37791   5.878   4.053  10.525 -1.8985 -0.2272 -1.0106
  280MOL0     H37792   6.115   4.008  10.573  1.4020  2.8025 -1.5873
  280MOL0     H37793   6.077   4.067  10.410 -4.2118  0.6296  0.5086
  280MOL0     H37794   6.129   3.846  10.302  0.7062  0.1469  0.4366
  280MOL0     H37795   6.261   3.888  10.408  1.0595 -1.5666  2.6759
  280MOL0     H37796   6.089   3.556  10.613 -1.9828  1.2573  0.5338
  280MOL0     H37797   5.918   4.070  10.091  1.5822 -0.7565  1.2496
  280MOL0     H37798   5.967   4.004   9.804  1.6763  1.4061  2.6511
  280MOL0     H37799   5.815   4.067   9.746  0.4374 -3.9983 -1.2378
  280MOL0     H37800   5.896   4.152   9.877 -0.0220 -0.5512  3.3031
  281MOL0     O37801  11.512   8.339   9.087  1.0666 -0.2232 -0.3134
  281MOL0     C37802  11.588   8.262   9.028  0.0647 -0.1723  0.1489
  281MOL0     O37803  11.560   8.129   9.005 -0.2923  0.6854  0.2140
  281MOL0     C37804  11.439   8.083   9.048  0.0128 -0.6527 -0.4689
  281MOL0     C37805  11.321   8.117   8.977  0.1732  0.3849  0.0160
  281MOL0     C37806  11.192   8.080   9.014  0.4064 -1.0910 -1.0731
  281MOL0     C37807  11.185   7.993   9.123  0.1955 -0.0990  0.8404
  281MOL0     O37808  11.063   7.950   9.174 -0.1811 -0.2693  0.2479
  281MOL0     C37809  11.009   8.060   9.246 -0.3574 -0.2451 -0.5490
  281MOL0     C37810  10.902   8.140   9.165  0.5137 -1.1753  0.5929
  281MOL0     C37811  10.837   8.249   9.247  0.0321 -0.5903  0.2452
  281MOL0     C37812  10.769   8.356   9.149  0.3772  1.3669 -0.3833
  281MOL0     C37813  10.721   8.475   9.235 -0.4735 -0.3182  0.4944
  281MOL0     C37814  10.607   8.545   9.149 -0.2661  0.1755 -0.5785
  281MOL0     C37815  10.544   8.654   9.243 -0.4680  0.2037 -0.1249
  281MOL0     C37816  10.656   8.747   9.294  0.7908  0.6357 -0.5178
  281MOL0     N37817  10.608   8.882   9.299 -0.1452 -0.5880 -0.6113
  281MOL0     C37818  10.521   8.927   9.398  1.2129  0.4686  0.5508
  281MOL0     C37819  10.503   9.056   9.373  0.2624  0.4611 -0.1681
  281MOL0     C37820  10.415   9.143   9.463 -0.3118  0.5439 -0.2022
  281MOL0     C37821  10.492   9.169   9.595 -0.6181 -0.3357 -0.4513
  281MOL0     C37822  10.416   9.119   9.719  0.4483  0.2597  0.8222
  281MOL0     C37823  10.418   9.205   9.840  0.3606 -0.2137 -0.0302
  281MOL0     O37824  10.364   9.333   9.800 -0.1041  0.0671 -0.0751
  281MOL0     C37825  10.355   9.424   9.900 -0.5360 -0.3592 -0.2651
  281MOL0     C37826  10.268   9.528   9.876 -0.3737  1.2908  0.1585
  281MOL0     C37827  10.259   9.633   9.972  0.5863  0.4737 -1.1523
  281MOL0     C37828  10.337   9.642  10.087 -0.3545 -0.7519  0.9881
  281MOL0     C37829  10.307   9.751  10.195 -0.2403  0.0964 -0.4606
  281MOL0     O37830  10.377   9.767  10.311 -0.1734 -0.7437  0.1351
  281MOL0     C37831  10.324   9.856  10.395  0.3607 -0.3364 -0.4391
  281MOL0     C37832  10.246   9.809  10.504 -0.2249  0.4918 -0.5327
  281MOL0     C37833  10.166   9.893  10.587 -0.1399 -0.1022  0.7529
  281MOL0     C37834  10.187  10.037  10.572  0.4760  0.3821  0.1824
  281MOL0     O37835  10.108  10.121  10.642  0.0661 -0.3768 -0.7437
  281MOL0     C37836  10.107  10.114  10.784  0.0258 -0.0890 -0.5110
  281MOL0     C37837   9.958  10.130  10.830  0.0421  0.9195 -0.2648
  281MOL0     C37838   9.934  10.142  10.982  0.6065 -1.2648 -0.3748
  281MOL0     C37839   9.815  10.229  11.036 -0.4418  0.8785  0.5795
  281MOL0     C37840   9.810  10.234  11.186  0.3687  0.3737  0.9074
  281MOL0     C37841   9.689  10.306  11.245  0.1490  0.1649  0.4771
  281MOL0     C37842   9.701  10.464  11.235 -0.6309  0.1832  0.5916
  281MOL0     C37843   9.658  10.548  11.359  0.5046 -0.2418 -0.0722
  281MOL0    Cl37844   9.719  10.489  11.518  0.1202 -0.3571  0.1843
  281MOL0     C37845  10.272  10.083  10.477  0.4424 -0.0770  0.8292
  281MOL0     C37846  10.345   9.991  10.388 -0.7392  0.4878  0.1746
  281MOL0     O37847  10.198   9.807  10.170  0.2582 -0.3429  0.4057
  281MOL0     C37848  10.420   9.538  10.115  0.0124  0.1860 -0.3095
  281MOL0     C37849  10.435   9.431  10.017  0.3835 -0.0797  0.3550
  281MOL0     N37850  10.581   9.093   9.266 -0.6589 -0.0691 -0.4908
  281MOL0     N37851  10.633   8.989   9.222  0.6154 -0.6725 -0.0607
  281MOL0     C37852  11.296   7.955   9.188 -0.4448 -0.0728 -0.4325
  281MOL0     C37853  11.423   7.995   9.155  0.0912  0.0883  0.6151
  281MOL0     C37854  11.720   8.315   8.989  0.4560  0.3722 -0.9119
  281MOL0     C37855  11.801   8.227   8.911 -0.0167  0.7304  0.8369
  281MOL0     C37856  11.920   8.268   8.846 -0.2987  0.3321 -1.1587
  281MOL0     C37857  11.961   8.399   8.866  0.1917  0.8929  0.0026
  281MOL0     O37858  12.088   8.433   8.822  1.1949  0.4059  0.0141
  281MOL0     C37859  12.099   8.536   8.729 -0.4899 -0.1834  0.9406
  281MOL0     C37860  12.203   8.530   8.624  0.2699  0.2750  0.4009
  281MOL0     C37861  12.221   8.662   8.548 -0.6779 -0.1442 -0.6020
  281MOL0     C37862  12.360   8.684   8.483 -0.3181  0.0449  0.7552
  281MOL0     C37863  12.458   8.739   8.577  1.3118 -0.1318  0.0441
  281MOL0     C37864  12.539   8.791   8.658  0.0825 -0.8199  0.1987
  281MOL0     C37865  11.891   8.495   8.946 -0.0097  0.5723 -0.0526
  281MOL0     C37866  11.771   8.448   9.009 -0.3000  0.3108 -1.1028
  281MOL0     C37867  11.703   8.542   9.114 -0.1409  0.2621  1.3869
  281MOL0     H37868  11.334   8.172   8.884  2.9369  1.3782  0.8703
  281MOL0     H37869  11.111   8.094   8.944  0.7761 -0.7912 -1.4482
  281MOL0     H37870  10.956   8.013   9.330 -0.1516 -3.6228 -2.1380
  281MOL0     H37871  11.083   8.131   9.284 -0.0543 -1.3127  0.9635
  281MOL0     H37872  10.821   8.068   9.152 -0.1987  0.0773 -3.3899
  281MOL0     H37873  10.950   8.169   9.071  1.7359 -0.4163  1.4369
  281MOL0     H37874  10.908   8.313   9.300 -2.3367  3.1584 -0.7305
  281MOL0     H37875  10.763   8.206   9.315  1.6843 -0.6531  2.0922
  281MOL0     H37876  10.835   8.380   9.065  1.1600 -2.3496 -1.0061
  281MOL0     H37877  10.682   8.299   9.115  2.4340 -3.0094  0.9547
  281MOL0     H37878  10.681   8.445   9.332 -0.3816  2.7866  1.6239
  281MOL0     H37879  10.800   8.547   9.260  0.4873  0.3722 -3.7069
  281MOL0     H37880  10.652   8.599   9.065 -0.9455 -0.3788 -1.3098
  281MOL0     H37881  10.529   8.475   9.120  1.0099 -2.4318  1.7651
  281MOL0     H37882  10.502   8.599   9.328  0.9616  1.6752  1.5975
  281MOL0     H37883  10.474   8.724   9.197 -1.8407  1.8439  4.0060
  281MOL0     H37884  10.676   8.728   9.400 -4.6599  0.2840  0.7710
  281MOL0     H37885  10.748   8.749   9.236  0.8418  1.9663 -0.4248
  281MOL0     H37886  10.458   8.872   9.468  1.7620 -1.4704 -0.4135
  281MOL0     H37887  10.397   9.238   9.411 -0.4039  1.0000  0.6494
  281MOL0     H37888  10.326   9.082   9.482  0.6371 -0.5863  0.7463
  281MOL0     H37889  10.594   9.130   9.594  0.4554  2.2409  0.2898
  281MOL0     H37890  10.489   9.278   9.591 -0.5972 -0.3372 -4.1069
  281MOL0     H37891  10.463   9.023   9.741  1.4376  0.4306 -0.4113
  281MOL0     H37892  10.309   9.100   9.706  1.2047 -2.1925 -4.5016
  281MOL0     H37893  10.521   9.204   9.876  0.9691 -2.3496 -1.6376
  281MOL0     H37894  10.351   9.159   9.914 -0.2142 -0.4957 -0.7142
  281MOL0     H37895  10.207   9.539   9.787  0.7999  1.1830 -0.6896
  281MOL0     H37896  10.197   9.718   9.946 -3.4379  0.1138  5.0610
  281MOL0     H37897  10.213   9.706  10.501 -2.0784  1.0767 -3.0841
  281MOL0     H37898  10.097   9.849  10.658  2.3066 -2.0324  2.1332
  281MOL0     H37899  10.144  10.022  10.829 -1.6243 -1.1138 -1.1601
  281MOL0     H37900  10.161  10.203  10.818 -3.1070  2.1979 -1.0748
  281MOL0     H37901   9.918  10.222  10.787 -2.2004  0.2834  0.3258
  281MOL0     H37902   9.901  10.044  10.792 -0.1596  1.5232 -1.3730
  281MOL0     H37903   9.936  10.044  11.032 -0.2393 -0.1187  2.0441
  281MOL0     H37904  10.027  10.186  11.018  0.2376  0.7363 -1.7322
  281MOL0     H37905   9.720  10.190  10.998 -0.5070 -1.0913  2.5440
  281MOL0     H37906   9.828  10.327  10.989  0.5807 -0.7713 -2.8593
  281MOL0     H37907   9.904  10.278  11.222  1.2958  1.6729 -2.5922
  281MOL0     H37908   9.813  10.132  11.224  0.6442 -1.6612 -3.9002
  281MOL0     H37909   9.600  10.259  11.203  1.1072 -4.2505  2.7081
  281MOL0     H37910   9.683  10.276  11.350 -1.0935 -2.7627 -0.3128
  281MOL0     H37911   9.631  10.494  11.157  0.9757  1.7337 -0.2998
  281MOL0     H37912   9.800  10.499  11.205 -0.4381  1.3654  2.4265
  281MOL0     H37913   9.692  10.652  11.351 -4.8656  2.1546  2.6348
  281MOL0     H37914   9.549  10.561  11.363  0.6181  0.8688 -0.0967
  281MOL0     H37915  10.288  10.189  10.464 -0.5043 -0.0069  0.0166
  281MOL0     H37916  10.420  10.020  10.315  1.5626 -1.3222  1.6824
  281MOL0     H37917  10.478   9.551  10.206 -1.0771 -1.1719  0.6317
  281MOL0     H37918  10.499   9.350  10.050 -2.4681 -2.8035 -0.3540
  281MOL0     H37919  11.275   7.891   9.273 -1.0999 -0.1075 -0.6157
  281MOL0     H37920  11.518   7.961   9.195  0.2643 -1.0125 -0.6553
  281MOL0     H37921  11.767   8.127   8.888  0.0531  0.7079  0.8287
  281MOL0     H37922  11.961   8.201   8.771  3.4413  0.2787  0.7083
  281MOL0     H37923  12.118   8.624   8.792  1.3462  0.7039 -0.7506
  281MOL0     H37924  12.009   8.572   8.677 -1.4207  0.0191  2.5827
  281MOL0     H37925  12.154   8.457   8.559 -0.9284 -0.4735  2.0466
  281MOL0     H37926  12.295   8.489   8.667 -0.0174 -2.6787 -1.5265
  281MOL0     H37927  12.209   8.741   8.623  0.8655 -0.6092  0.1849
  281MOL0     H37928  12.145   8.668   8.470  0.9333 -2.0774 -2.4148
  281MOL0     H37929  12.408   8.588   8.464  1.3602  1.1656 -0.9965
  281MOL0     H37930  12.361   8.742   8.391 -2.1063 -0.3157  0.4870
  281MOL0     H37931  12.622   8.842   8.702 -0.1550  0.2193 -0.5299
  281MOL0     H37932  11.929   8.596   8.959  1.7459 -0.2271  1.4969
  281MOL0     H37933  11.749   8.641   9.113  0.0730  0.2727 -2.7609
  281MOL0     H37934  11.599   8.553   9.084 -0.8957  0.3335  3.7912
  281MOL0     H37935  11.714   8.494   9.212  4.0046 -2.2323 -0.0332
  282MOL0     O37936   2.767   2.816   0.241 -0.3739 -0.0136  0.0345
  282MOL0     C37937   2.785   2.695   0.240  0.9566 -0.3846 -0.0229
  282MOL0     O37938   2.695   2.606   0.289  0.2109  0.3954  0.0543
  282MOL0     C37939   2.561   2.642   0.320  0.2369  0.0170 -0.7257
  282MOL0     C37940   2.503   2.567   0.416 -0.3881 -0.5537 -0.8367
  282MOL0     C37941   2.377   2.597   0.471 -0.1927  0.1205 -0.4912
  282MOL0     C37942   2.298   2.703   0.425 -0.8377  0.5892 -0.7376
  282MOL0     O37943   2.182   2.736   0.491  0.6190 -0.6109  1.0620
  282MOL0     C37944   2.062   2.766   0.417 -0.2445  0.2521  1.3835
  282MOL0     C37945   1.950   2.831   0.493 -0.2062  0.7315  1.0127
  282MOL0     C37946   1.903   2.736   0.613 -0.3684  0.3740 -0.2694
  282MOL0     C37947   1.812   2.824   0.700 -0.6182 -0.1130  0.8894
  282MOL0     C37948   1.720   2.756   0.801 -0.0576 -0.1565  0.4797
  282MOL0     C37949   1.801   2.688   0.917 -0.4178 -0.5199 -0.2820
  282MOL0     C37950   1.704   2.625   1.017  0.3362  0.1378  0.3139
  282MOL0     C37951   1.639   2.489   0.964 -0.8956 -0.1245  0.1162
  282MOL0     N37952   1.742   2.393   0.927  0.2184 -0.1528 -0.0179
  282MOL0     C37953   1.798   2.367   0.802  0.2669  0.1511  0.2870
  282MOL0     C37954   1.872   2.257   0.820 -0.5464  0.2717  0.0328
  282MOL0     C37955   1.949   2.198   0.710 -0.6676 -0.2556  0.1864
  282MOL0     C37956   2.042   2.295   0.642 -0.0988 -0.6490  0.3838
  282MOL0     C37957   2.130   2.236   0.537 -0.6825  0.1496 -0.4251
  282MOL0     C37958   2.050   2.146   0.437 -0.4777 -0.8519 -0.2833
  282MOL0     O37959   1.936   2.206   0.372  0.0035 -0.8956  0.7890
  282MOL0     C37960   1.957   2.313   0.284  0.2002  0.3146  0.3095
  282MOL0     C37961   1.837   2.349   0.213 -0.1054  0.4100  0.6312
  282MOL0     C37962   1.850   2.448   0.110  0.4859 -0.0139  0.2531
  282MOL0     C37963   1.969   2.516   0.100 -0.0420 -1.1645  0.4063
  282MOL0     C37964   1.977   2.645   0.019  0.2970 -0.2809  0.2980
  282MOL0     O37965   2.092   2.714   0.028  0.0565 -0.8091  0.7707
  282MOL0     C37966   2.106   2.818  -0.062  0.6032  0.0609 -0.9546
  282MOL0     C37967   2.087   2.802  -0.197 -0.5231  0.9339  0.5435
  282MOL0     C37968   2.087   2.912  -0.277  0.3233  0.6916  1.7538
  282MOL0     C37969   2.135   3.039  -0.234 -0.4608  0.1235 -0.0040
  282MOL0     O37970   2.173   3.140  -0.319 -0.3725  1.1921 -0.3400
  282MOL0     C37971   2.282   3.106  -0.405  1.4124  0.1853 -0.4982
  282MOL0     C37972   2.347   3.227  -0.486 -0.2816 -0.5603 -0.9836
  282MOL0     C37973   2.408   3.330  -0.392 -0.0464  0.2275 -0.2338
  282MOL0     C37974   2.523   3.274  -0.312  0.2234  0.7672 -0.5831
  282MOL0     C37975   2.583   3.387  -0.220  0.1070  0.0113  0.6637
  282MOL0     C37976   2.697   3.336  -0.130 -0.5174 -0.6018 -0.1041
  282MOL0     C37977   2.747   3.448  -0.041 -0.2892 -0.1613  0.9147
  282MOL0     C37978   2.780   3.580  -0.129  0.9239  0.7049  0.0310
  282MOL0    Cl37979   2.876   3.520  -0.272 -0.0892 -0.9135  0.5423
  282MOL0     C37980   2.160   3.057  -0.099  0.0574 -0.0770  0.9568
  282MOL0     C37981   2.134   2.948  -0.012 -0.3294  0.7095 -0.2786
  282MOL0     O37982   1.875   2.678  -0.029  0.1634 -0.5527  0.5493
  282MOL0     C37983   2.081   2.465   0.164 -0.9768  0.1653 -0.1218
  282MOL0     C37984   2.077   2.370   0.256  1.2643  1.3341  1.2334
  282MOL0     N37985   1.872   2.220   0.957 -0.2259 -0.8506  1.6631
  282MOL0     N37986   1.780   2.292   1.014  0.3038  0.3217 -0.5943
  282MOL0     C37987   2.351   2.774   0.316  0.8633  0.8258  0.3501
  282MOL0     C37988   2.481   2.753   0.264  0.5370  1.1833  0.5614
  282MOL0     C37989   2.896   2.639   0.171 -0.4715  0.5587 -0.7726
  282MOL0     C37990   2.876   2.539   0.082 -0.3264 -0.2734  0.6166
  282MOL0     C37991   2.975   2.489  -0.009  0.6425 -0.3379  0.4217
  282MOL0     C37992   3.101   2.543  -0.009 -0.4875  0.0728  0.0546
  282MOL0     O37993   3.201   2.509  -0.100 -0.5708  0.1133  0.1632
  282MOL0     C37994   3.274   2.393  -0.062 -0.4499  0.5399  0.1385
  282MOL0     C37995   3.396   2.359  -0.146 -0.2478 -0.2876  1.2768
  282MOL0     C37996   3.376   2.317  -0.300 -0.4732 -0.2508  0.5877
  282MOL0     C37997   3.292   2.187  -0.324  0.6219 -1.3499  0.8382
  282MOL0     C37998   3.147   2.196  -0.289 -0.2205  1.0438  0.5900
  282MOL0     C37999   3.031   2.200  -0.260  0.5540  0.3039 -0.0613
  282MOL0     C38000   3.127   2.641   0.097  1.2303  0.4650 -0.3086
  282MOL0     C38001   3.028   2.684   0.189  0.5098  0.1462 -0.1629
  282MOL0     C38002   3.069   2.793   0.278  0.6356 -0.2580 -0.4850
  282MOL0     H38003   2.570   2.485   0.438  0.2650  0.5082  1.4780
  282MOL0     H38004   2.336   2.534   0.550 -0.2925  0.4215 -0.2999
  282MOL0     H38005   2.076   2.826   0.327  1.6189 -0.2731  1.2812
  282MOL0     H38006   2.025   2.682   0.358 -3.6340  3.1762 -1.0971
  282MOL0     H38007   1.866   2.858   0.429 -0.5283  0.8490  1.4814
  282MOL0     H38008   1.991   2.924   0.535 -2.1817  2.4654 -0.6534
  282MOL0     H38009   1.991   2.702   0.670 -0.6268 -0.1977 -0.2086
  282MOL0     H38010   1.845   2.649   0.584 -1.2101  0.6146  0.6265
  282MOL0     H38011   1.886   2.888   0.749  0.2799  2.1076 -2.9744
  282MOL0     H38012   1.749   2.883   0.632  1.2230  0.4786 -0.3811
  282MOL0     H38013   1.652   2.828   0.846 -0.4436  1.0648 -1.9090
  282MOL0     H38014   1.657   2.689   0.743 -0.6873 -0.6482  1.6952
  282MOL0     H38015   1.853   2.610   0.860 -2.5818 -1.9508 -0.4125
  282MOL0     H38016   1.877   2.748   0.968 -1.1082  0.5978 -0.5246
  282MOL0     H38017   1.637   2.698   1.063  0.6878 -1.0644  2.8824
  282MOL0     H38018   1.764   2.592   1.102  0.8892 -1.6239 -0.7033
  282MOL0     H38019   1.570   2.449   1.038  0.6302 -5.0232 -0.7366
  282MOL0     H38020   1.578   2.516   0.877 -0.8436 -0.2798  0.0306
  282MOL0     H38021   1.775   2.420   0.710 -2.3680 -1.4272 -0.0439
  282MOL0     H38022   2.007   2.111   0.743 -0.0102 -1.3084 -3.3405
  282MOL0     H38023   1.875   2.156   0.642  0.3324 -0.2556 -0.9413
  282MOL0     H38024   1.986   2.378   0.597 -1.0954 -0.8004  1.3198
  282MOL0     H38025   2.117   2.325   0.716 -0.2232 -1.7079  0.9572
  282MOL0     H38026   2.194   2.155   0.574  0.2610 -1.6423 -5.2666
  282MOL0     H38027   2.194   2.306   0.483 -0.9707  1.5497  0.9529
  282MOL0     H38028   2.011   2.063   0.497  1.0783  0.1140  2.2351
  282MOL0     H38029   2.121   2.106   0.364  0.7412  2.4127 -1.0860
  282MOL0     H38030   1.750   2.288   0.236  0.3495 -1.2881 -1.8287
  282MOL0     H38031   1.760   2.480   0.058  0.1662 -1.2490  0.0116
  282MOL0     H38032   2.062   2.702  -0.231 -0.0342  1.3726 -1.1917
  282MOL0     H38033   2.072   2.893  -0.383  0.0597  3.1960  1.2815
  282MOL0     H38034   2.351   3.055  -0.338 -0.0517  0.8928  1.6603
  282MOL0     H38035   2.251   3.030  -0.478  3.0148  0.4812 -1.5308
  282MOL0     H38036   2.426   3.192  -0.552 -2.9186 -1.3167 -3.9533
  282MOL0     H38037   2.273   3.270  -0.555 -0.7000  0.0572 -0.1748
  282MOL0     H38038   2.449   3.410  -0.455 -1.4759  0.4572 -0.9215
  282MOL0     H38039   2.332   3.371  -0.325  0.2927  0.2090  0.1581
  282MOL0     H38040   2.604   3.246  -0.379  1.4935 -0.6055  1.4120
  282MOL0     H38041   2.502   3.189  -0.247 -0.8270  1.3705 -0.1087
  282MOL0     H38042   2.504   3.435  -0.161 -0.0930  1.1009 -0.4355
  282MOL0     H38043   2.615   3.456  -0.299  0.1553 -0.9306 -0.1508
  282MOL0     H38044   2.658   3.252  -0.071 -0.7590  0.2285  0.9471
  282MOL0     H38045   2.774   3.297  -0.198  0.2761  0.8241 -0.0417
  282MOL0     H38046   2.838   3.423   0.013 -0.7359 -2.7739  0.5664
  282MOL0     H38047   2.687   3.454   0.050 -1.2815 -0.0406  0.2624
  282MOL0     H38048   2.684   3.623  -0.157 -1.6522 -3.8579  0.8919
  282MOL0     H38049   2.841   3.649  -0.068  3.5384 -1.7431  0.3914
  282MOL0     H38050   2.205   3.151  -0.071  4.6808 -1.0513 -2.0458
  282MOL0     H38051   2.150   2.954   0.095  0.7660 -1.5878 -0.2359
  282MOL0     H38052   2.178   2.513   0.158 -0.1451 -1.2478  1.2662
  282MOL0     H38053   2.169   2.318   0.283  0.7838 -1.3804 -1.7715
  282MOL0     H38054   2.285   2.850   0.276 -1.2105  0.4672  2.7786
  282MOL0     H38055   2.511   2.823   0.187  0.2922 -0.4733 -1.0968
  282MOL0     H38056   2.777   2.494   0.080  0.0146 -1.0172 -0.6144
  282MOL0     H38057   2.944   2.406  -0.072  0.7939  0.3264 -0.5646
  282MOL0     H38058   3.202   2.313  -0.043 -1.7443  1.4566 -0.7590
  282MOL0     H38059   3.325   2.417   0.032  0.5908 -1.4462  0.1368
  282MOL0     H38060   3.453   2.279  -0.097  0.8887  1.0761  2.2606
  282MOL0     H38061   3.462   2.446  -0.151  2.8209 -2.4705 -0.7893
  282MOL0     H38062   3.477   2.311  -0.342 -0.2487  4.1883  0.0135
  282MOL0     H38063   3.324   2.401  -0.348  1.3833 -0.9170 -2.9589
  282MOL0     H38064   3.311   2.160  -0.429  1.9875  0.5910  0.5309
  282MOL0     H38065   3.329   2.113  -0.253  1.0819 -0.8886  1.0744
  282MOL0     H38066   2.925   2.203  -0.243  0.3826 -1.2192 -0.7213
  282MOL0     H38067   3.218   2.700   0.102 -0.5074  3.2612  3.8292
  282MOL0     H38068   3.112   2.877   0.222 -0.1908 -1.1402 -2.5191
  282MOL0     H38069   2.989   2.825   0.346  2.1308 -0.0229  1.2378
  282MOL0     H38070   3.140   2.742   0.344  0.2753 -1.6720 -1.1557
  283MOL0     O38071  10.756   4.535   3.223 -0.3831 -0.2049  1.2145
  283MOL0     C38072  10.726   4.455   3.133  0.1280 -0.0061  0.0100
  283MOL0     O38073  10.689   4.490   2.999  0.0304 -0.1876  0.0126
  283MOL0     C38074  10.740   4.606   2.942 -0.3758  0.5321 -0.0154
  283MOL0     C38075  10.862   4.666   2.984  0.5777  0.4801 -0.0082
  283MOL0     C38076  10.908   4.777   2.917  0.2498 -0.6149 -0.8968
  283MOL0     C38077  10.832   4.828   2.805 -0.4280  0.1500  0.0284
  283MOL0     O38078  10.879   4.938   2.736 -0.3285 -0.1077 -0.0399
  283MOL0     C38079  10.784   5.034   2.698 -0.7129 -0.9767  0.3362
  283MOL0     C38080  10.845   5.161   2.637  0.0970 -0.3496  0.5961
  283MOL0     C38081  10.732   5.249   2.581 -0.4687  0.2693  0.9469
  283MOL0     C38082  10.656   5.321   2.687  0.4267 -1.0258  0.4078
  283MOL0     C38083  10.584   5.449   2.640 -0.2148 -0.3073  0.1260
  283MOL0     C38084  10.494   5.409   2.519  0.4293  0.2172 -0.1493
  283MOL0     C38085  10.376   5.313   2.547  0.6764 -0.5317  0.0450
  283MOL0     C38086  10.263   5.341   2.452  0.6676  0.2306 -0.3689
  283MOL0     N38087  10.291   5.283   2.318 -0.0426  0.9166  0.1015
  283MOL0     C38088  10.346   5.356   2.216 -0.2449 -0.0917 -0.5085
  283MOL0     C38089  10.372   5.267   2.113  0.0193  0.6266  0.6686
  283MOL0     C38090  10.429   5.312   1.977  1.1326  0.1578  0.1364
  283MOL0     C38091  10.398   5.217   1.869 -0.2713 -0.6388 -0.0421
  283MOL0     C38092  10.480   5.089   1.884 -0.1788 -0.6582  0.1982
  283MOL0     C38093  10.448   4.967   1.803 -0.4215  0.8256 -0.5651
  283MOL0     O38094  10.494   4.988   1.665  0.8580  0.0954  0.1680
  283MOL0     C38095  10.474   4.890   1.567 -0.1294 -0.6494 -0.4967
  283MOL0     C38096  10.450   4.751   1.597 -0.0961  0.2701  0.0912
  283MOL0     C38097  10.467   4.663   1.488  0.3752 -0.2002  0.5625
  283MOL0     C38098  10.506   4.698   1.354 -0.0237  0.3662 -0.2054
  283MOL0     C38099  10.517   4.598   1.246 -0.7067  0.5109  0.1631
  283MOL0     O38100  10.565   4.641   1.126  0.1533  0.1307  0.1998
  283MOL0     C38101  10.582   4.564   1.006  0.9141  0.7215  0.5094
  283MOL0     C38102  10.685   4.588   0.918 -0.6091  0.7801  0.2328
  283MOL0     C38103  10.713   4.505   0.809 -1.0763 -0.9206  0.8233
  283MOL0     C38104  10.623   4.401   0.774 -0.1136 -0.0099  0.4224
  283MOL0     O38105  10.646   4.319   0.659 -0.4092  0.1403  0.0700
  283MOL0     C38106  10.783   4.300   0.625  0.2995 -0.7322  1.3901
  283MOL0     C38107  10.786   4.197   0.517 -0.0213  0.8890  0.3249
  283MOL0     C38108  10.708   4.065   0.558 -0.8063  0.1604 -1.1270
  283MOL0     C38109  10.750   3.998   0.698 -0.4434 -1.0174 -0.4141
  283MOL0     C38110  10.904   3.969   0.713  0.2878  0.1573  0.7207
  283MOL0     C38111  10.967   3.883   0.594  0.3134  0.4498 -0.7047
  283MOL0     C38112  11.109   3.834   0.613 -0.2840 -0.6897 -0.0615
  283MOL0     C38113  11.208   3.947   0.608 -0.4052  0.5104 -0.0639
  283MOL0    Cl38114  11.224   4.002   0.434 -0.6516  0.5379 -0.0163
  283MOL0     C38115  10.498   4.397   0.842 -0.3078  0.0380  0.3332
  283MOL0     C38116  10.487   4.472   0.961  0.0977 -0.2137 -0.1494
  283MOL0     O38117  10.495   4.482   1.267  0.0945  0.3315 -0.1148
  283MOL0     C38118  10.528   4.839   1.342 -0.5708  0.2936  0.8740
  283MOL0     C38119  10.517   4.924   1.448  0.6618  0.2206 -0.3914
  283MOL0     N38120  10.318   5.149   2.149 -1.3990  0.7105  0.0865
  283MOL0     N38121  10.274   5.159   2.268  0.1732  0.1790  1.1442
  283MOL0     C38122  10.721   4.763   2.760 -0.5833 -0.0356  1.3764
  283MOL0     C38123  10.670   4.658   2.830 -0.8003 -0.1883  0.2880
  283MOL0     C38124  10.712   4.304   3.171 -0.3269 -1.5508  1.5816
  283MOL0     C38125  10.682   4.213   3.067  0.0526 -1.1367 -0.5797
  283MOL0     C38126  10.671   4.081   3.104 -0.4593 -0.4944  0.2567
  283MOL0     C38127  10.703   4.039   3.235 -0.3887 -0.4033  0.1071
  283MOL0     O38128  10.724   3.905   3.260 -0.6613 -0.1035  0.7930
  283MOL0     C38129  10.662   3.799   3.194  0.3180  0.0540  0.7041
  283MOL0     C38130  10.771   3.710   3.121 -1.1994 -1.0282 -0.1701
  283MOL0     C38131  10.843   3.781   3.020 -0.8452 -1.3648  0.9712
  283MOL0     C38132  10.934   3.690   2.927 -0.3209  0.1251 -0.5524
  283MOL0     C38133  11.071   3.715   2.970 -0.4976  0.3462 -0.3359
  283MOL0     C38134  11.184   3.738   3.013  0.1888 -0.8201  1.0460
  283MOL0     C38135  10.728   4.131   3.333 -0.4855  0.7108  0.2507
  283MOL0     C38136  10.733   4.260   3.303 -0.1932  0.0336  0.3476
  283MOL0     C38137  10.757   4.343   3.423 -0.7426  1.3981  0.2580
  283MOL0     H38138  10.925   4.632   3.066  1.2021  3.1272  0.6828
  283MOL0     H38139  10.998   4.831   2.942 -0.9125  0.0305  2.2971
  283MOL0     H38140  10.713   4.989   2.628  1.2289 -1.5175 -1.3612
  283MOL0     H38141  10.727   5.065   2.787 -2.1995  0.1424 -0.9537
  283MOL0     H38142  10.919   5.127   2.564  1.5409  0.9238  1.3950
  283MOL0     H38143  10.905   5.213   2.713  1.4242 -1.5912  0.4415
  283MOL0     H38144  10.655   5.191   2.529  0.9534  0.7170 -1.8388
  283MOL0     H38145  10.780   5.327   2.521 -0.0439  0.3894  1.4314
  283MOL0     H38146  10.594   5.254   2.748  1.6753 -2.6280 -0.0057
  283MOL0     H38147  10.726   5.356   2.764  0.0651  1.0775 -0.1618
  283MOL0     H38148  10.513   5.477   2.718 -2.0837 -2.8667 -0.5142
  283MOL0     H38149  10.644   5.538   2.619 -2.3740  0.8837 -1.4849
  283MOL0     H38150  10.454   5.498   2.469  1.3691  0.8962  0.2743
  283MOL0     H38151  10.552   5.355   2.444 -1.4627 -0.0018 -1.5321
  283MOL0     H38152  10.342   5.320   2.651  2.4974  1.0278  0.6019
  283MOL0     H38153  10.418   5.213   2.544  1.6903 -0.1075 -1.8056
  283MOL0     H38154  10.175   5.283   2.482  1.2076  0.1743  1.1890
  283MOL0     H38155  10.236   5.447   2.451  1.6476  0.6105  2.8623
  283MOL0     H38156  10.378   5.460   2.217 -1.7760  0.4799 -3.2147
  283MOL0     H38157  10.378   5.407   1.958 -1.5597 -0.9678  1.2396
  283MOL0     H38158  10.538   5.324   1.973  1.2406 -1.1678 -2.7648
  283MOL0     H38159  10.291   5.195   1.860  0.1230 -1.6641 -4.0406
  283MOL0     H38160  10.420   5.265   1.774  2.2097 -0.0182  0.7656
  283MOL0     H38161  10.473   5.049   1.986  4.0606 -0.4072  0.7724
  283MOL0     H38162  10.584   5.105   1.855 -0.7231 -0.3403 -1.7324
  283MOL0     H38163  10.341   4.945   1.809  0.4867 -4.9078  3.6854
  283MOL0     H38164  10.498   4.879   1.843  2.2329  1.9735 -1.1474
  283MOL0     H38165  10.410   4.719   1.692  0.7974  0.6988  0.6221
  283MOL0     H38166  10.441   4.560   1.514  0.7715 -0.1492  1.1763
  283MOL0     H38167  10.747   4.675   0.940 -0.3741  0.3239  1.4516
  283MOL0     H38168  10.805   4.525   0.754 -0.2384 -1.1327  2.0863
  283MOL0     H38169  10.826   4.393   0.586 -1.6494  0.1528  1.2099
  283MOL0     H38170  10.846   4.272   0.711  3.2662 -3.3208 -1.3534
  283MOL0     H38171  10.742   4.237   0.425 -0.4598 -2.3560 -1.0045
  283MOL0     H38172  10.891   4.174   0.495  0.1863 -1.5404  3.2385
  283MOL0     H38173  10.600   4.084   0.559 -0.5390  1.8362 -1.1388
  283MOL0     H38174  10.732   4.002   0.473  0.4312  0.8287 -1.2930
  283MOL0     H38175  10.687   3.909   0.695 -3.6411  1.0446  0.0383
  283MOL0     H38176  10.730   4.075   0.773 -1.8205 -0.1030 -1.6520
  283MOL0     H38177  10.922   3.906   0.800  0.0929  0.3135  0.8735
  283MOL0     H38178  10.954   4.067   0.719 -0.4712  0.5013  1.5716
  283MOL0     H38179  10.901   3.797   0.587  1.7428 -0.8695  0.9849
  283MOL0     H38180  10.963   3.953   0.510 -0.8828  1.4114  0.1187
  283MOL0     H38181  11.151   3.765   0.540  0.3579 -0.8636  0.4618
  283MOL0     H38182  11.112   3.781   0.708 -0.4715 -0.2122  0.2143
  283MOL0     H38183  11.164   4.029   0.666  1.8122  1.3959  0.4649
  283MOL0     H38184  11.304   3.920   0.653 -0.6403  2.9687  2.2240
  283MOL0     H38185  10.413   4.336   0.815  0.0636 -1.2177  1.8881
  283MOL0     H38186  10.402   4.466   1.027 -0.8376  6.3199 -0.1037
  283MOL0     H38187  10.579   4.890   1.261  1.7129  0.1185  2.1084
  283MOL0     H38188  10.540   5.030   1.437 -3.7600  1.4691  0.5226
  283MOL0     H38189  10.682   4.784   2.662  0.4350 -1.6433  0.5765
  283MOL0     H38190  10.573   4.618   2.803 -1.8251  0.5843  2.5715
  283MOL0     H38191  10.660   4.241   2.964  0.3282 -3.3448 -1.2818
  283MOL0     H38192  10.641   4.011   3.027  3.0845  0.0212 -1.7800
  283MOL0     H38193  10.586   3.827   3.120  0.9183  1.3742  0.5628
  283MOL0     H38194  10.611   3.740   3.270 -0.1373  0.2834  0.5821
  283MOL0     H38195  10.731   3.615   3.084 -0.1438 -1.4953 -0.1688
  283MOL0     H38196  10.841   3.683   3.201 -0.0810  0.3278 -0.6534
  283MOL0     H38197  10.902   3.856   3.073 -1.1197  1.7769 -2.7707
  283MOL0     H38198  10.782   3.845   2.955  0.2537  0.9347  2.0875
  283MOL0     H38199  10.907   3.584   2.917  0.1625 -0.1632  0.8932
  283MOL0     H38200  10.919   3.732   2.827  3.3022 -0.2207 -1.3595
  283MOL0     H38201  11.281   3.739   3.058  0.4575  0.7222  0.4825
  283MOL0     H38202  10.743   4.084   3.429 -2.5852 -1.9105 -0.5808
  283MOL0     H38203  10.854   4.393   3.412  0.1915  0.0152  1.7996
  283MOL0     H38204  10.679   4.418   3.437 -1.0954  0.7447  1.9839
  283MOL0     H38205  10.755   4.295   3.521  1.1763 -0.1521 -0.3900
  284MOL0     O38206  10.103   6.368   7.522  0.4206  0.5095  0.3807
  284MOL0     C38207  10.069   6.408   7.632 -0.0465 -0.3978  0.2755
  284MOL0     O38208  10.120   6.371   7.753  0.0278  1.0198  0.5392
  284MOL0     C38209  10.235   6.297   7.779  0.7174 -0.3715  0.1166
  284MOL0     C38210  10.337   6.281   7.684 -0.2831 -0.0542 -0.5462
  284MOL0     C38211  10.447   6.207   7.707  0.0090 -0.0964 -0.1530
  284MOL0     C38212  10.468   6.149   7.833  0.0603  0.1809 -0.0316
  284MOL0     O38213  10.586   6.079   7.848 -0.1733  0.2078  0.4538
  284MOL0     C38214  10.647   6.065   7.979  1.0380  0.1131 -0.0700
  284MOL0     C38215  10.579   5.960   8.060 -0.3256 -0.6529 -0.8677
  284MOL0     C38216  10.611   5.989   8.209 -0.8201  0.0421  0.4909
  284MOL0     C38217  10.744   5.916   8.228  0.1564 -0.5363  0.7151
  284MOL0     C38218  10.796   5.929   8.368 -0.1374  0.5846  0.2223
  284MOL0     C38219  10.814   6.081   8.400 -0.7256 -0.0566 -0.6006
  284MOL0     C38220  10.926   6.094   8.497 -0.0426 -0.4174 -0.0731
  284MOL0     C38221  10.959   6.249   8.530  0.6689 -1.0204  0.1877
  284MOL0     N38222  11.019   6.259   8.661  0.8872 -0.4802  0.0803
  284MOL0     C38223  11.159   6.242   8.682  0.5272 -1.1996  0.2906
  284MOL0     C38224  11.161   6.236   8.820 -0.2007 -0.6816 -0.8767
  284MOL0     C38225  11.286   6.198   8.904 -0.0384 -0.7462  0.0803
  284MOL0     C38226  11.255   6.074   8.993  0.0596 -1.0459 -0.1833
  284MOL0     C38227  11.370   6.046   9.090  0.6786  0.1536 -0.1498
  284MOL0     C38228  11.375   6.130   9.214  0.9403 -0.3798  0.6119
  284MOL0     O38229  11.488   6.100   9.293  0.7460  0.4660  0.0400
  284MOL0     C38230  11.503   6.130   9.433  0.0732  0.0685  0.4852
  284MOL0     C38231  11.598   6.065   9.513  0.1145 -0.9484  0.6947
  284MOL0     C38232  11.621   6.102   9.646  0.1464  0.5398  0.2601
  284MOL0     C38233  11.534   6.184   9.712  0.0210  0.0815 -0.3277
  284MOL0     C38234  11.574   6.219   9.854 -0.1610 -0.3216  0.4834
  284MOL0     O38235  11.669   6.152   9.923  0.3869  0.5589 -0.1256
  284MOL0     C38236  11.733   6.211  10.026  0.1117  1.1647  0.0022
  284MOL0     C38237  11.745   6.139  10.139 -0.5756 -0.0209 -0.5958
  284MOL0     C38238  11.823   6.183  10.248  0.3082  0.5579  0.4287
  284MOL0     C38239  11.891   6.308  10.234  0.1943  0.1001 -0.2704
  284MOL0     O38240  11.963   6.355  10.340  0.1337 -0.4803  0.2804
  284MOL0     C38241  12.082   6.427  10.305 -0.1787 -0.5995  0.1461
  284MOL0     C38242  12.180   6.430  10.424 -0.7920  0.4156  0.5181
  284MOL0     C38243  12.290   6.312  10.408 -0.1921  0.2734  1.1495
  284MOL0     C38244  12.226   6.178  10.359  0.7288 -0.2820  0.3135
  284MOL0     C38245  12.331   6.071  10.338 -0.4376 -0.0936  0.8253
  284MOL0     C38246  12.385   6.019  10.475  0.1415 -1.0712  0.4040
  284MOL0     C38247  12.287   5.954  10.574 -0.6640 -0.0622 -0.3102
  284MOL0     C38248  12.253   5.817  10.526 -0.0616 -0.1015 -0.5486
  284MOL0    Cl38249  12.398   5.702  10.525 -0.1746 -0.1440 -0.1679
  284MOL0     C38250  11.893   6.372  10.109 -0.9176  0.3791 -0.3777
  284MOL0     C38251  11.806   6.323  10.007 -0.5485 -0.0775 -0.2037
  284MOL0     O38252  11.510   6.308   9.909  1.2758  0.3803  0.8793
  284MOL0     C38253  11.431   6.245   9.639  0.5876  1.3661 -0.6223
  284MOL0     C38254  11.415   6.213   9.502  0.2754 -0.0687  1.1146
  284MOL0     N38255  11.041   6.276   8.871  0.0875  0.8325  0.0862
  284MOL0     N38256  10.955   6.277   8.781  0.7260 -0.5086  0.6948
  284MOL0     C38257  10.373   6.173   7.929 -0.4390 -0.2281  0.2692
  284MOL0     C38258  10.258   6.244   7.904 -0.5113 -0.7808  1.0050
  284MOL0     C38259   9.945   6.489   7.646  0.0732 -0.2855  0.6052
  284MOL0     C38260   9.929   6.563   7.764  0.4759 -0.3363 -0.7068
  284MOL0     C38261   9.818   6.636   7.798  0.1269  0.8300 -0.5564
  284MOL0     C38262   9.713   6.648   7.709  0.0779  0.7638 -0.0048
  284MOL0     O38263   9.595   6.715   7.718 -0.3130  0.9112  0.3989
  284MOL0     C38264   9.550   6.777   7.840  0.6005 -0.4887  0.3378
  284MOL0     C38265   9.397   6.805   7.850 -1.1998 -0.2695 -0.6053
  284MOL0     C38266   9.305   6.683   7.826 -0.0574  0.2489  0.8236
  284MOL0     C38267   9.155   6.718   7.832 -0.6396  0.4956  0.4300
  284MOL0     C38268   9.127   6.807   7.720  0.0480  1.4425  0.2702
  284MOL0     C38269   9.100   6.878   7.623 -0.9133  0.1666  0.0566
  284MOL0     C38270   9.727   6.570   7.587 -0.5642  0.0280 -0.5174
  284MOL0     C38271   9.836   6.487   7.560  0.3242 -0.0994  0.3156
  284MOL0     C38272   9.820   6.374   7.455 -0.0749  0.7805  0.5349
  284MOL0     H38273  10.316   6.306   7.580 -3.1634 -3.4616 -0.9896
  284MOL0     H38274  10.515   6.185   7.626 -0.8122 -1.9367 -0.3929
  284MOL0     H38275  10.751   6.032   7.969  1.3463 -0.2279  3.1487
  284MOL0     H38276  10.680   6.160   8.023  1.0695 -0.3279  0.8921
  284MOL0     H38277  10.608   5.861   8.023  0.7169 -0.1922 -1.3170
  284MOL0     H38278  10.470   5.957   8.050 -0.3750  0.3582 -0.7255
  284MOL0     H38279  10.547   5.933   8.279  1.7218 -1.7930  1.4858
  284MOL0     H38280  10.603   6.094   8.240  0.3587  0.2749  0.0316
  284MOL0     H38281  10.732   5.808   8.212 -0.5281 -0.5409  1.1798
  284MOL0     H38282  10.820   5.950   8.158  0.6585  1.0930  1.9937
  284MOL0     H38283  10.742   5.875   8.447  1.7411 -0.6720  0.7288
  284MOL0     H38284  10.893   5.879   8.372 -1.0090 -1.1166  1.2577
  284MOL0     H38285  10.832   6.149   8.317  0.4259  5.6547  3.7441
  284MOL0     H38286  10.727   6.116   8.456 -0.2882  0.4541 -0.2428
  284MOL0     H38287  11.023   6.058   8.462  1.9438  3.0575  1.3503
  284MOL0     H38288  10.898   6.042   8.590 -2.0664 -0.2948 -0.5514
  284MOL0     H38289  11.033   6.289   8.460 -1.2648 -1.8881 -2.5191
  284MOL0     H38290  10.864   6.302   8.539  1.8146  0.9490  1.5860
  284MOL0     H38291  11.246   6.224   8.619  1.2317  1.3085  0.4265
  284MOL0     H38292  11.377   6.182   8.845 -1.1982  0.9093 -2.3502
  284MOL0     H38293  11.304   6.277   8.976  1.3051 -0.0748 -0.9487
  284MOL0     H38294  11.166   6.092   9.054 -0.4585 -0.7220 -1.0115
  284MOL0     H38295  11.236   5.985   8.932  1.2310  0.2264 -2.5653
  284MOL0     H38296  11.469   6.064   9.048  0.6055  1.8528  0.2992
  284MOL0     H38297  11.362   5.941   9.118  0.6335 -0.0143 -0.7725
  284MOL0     H38298  11.291   6.096   9.276  1.6531 -1.2070  1.1495
  284MOL0     H38299  11.361   6.235   9.188 -3.3065 -0.2339  2.6089
  284MOL0     H38300  11.659   5.992   9.462  3.4259  1.9903  0.0588
  284MOL0     H38301  11.709   6.059   9.693  2.0171  3.0349 -0.6917
  284MOL0     H38302  11.693   6.050  10.175  0.8425 -0.0492  1.6349
  284MOL0     H38303  11.838   6.130  10.341  0.6283 -0.4977 -0.2118
  284MOL0     H38304  12.128   6.384  10.216 -2.5577  1.8166 -2.4483
  284MOL0     H38305  12.060   6.530  10.277  1.9070  0.8128  3.1516
  284MOL0     H38306  12.228   6.528  10.428 -0.9036  0.4382  1.3889
  284MOL0     H38307  12.131   6.410  10.519 -0.9151 -1.7048  0.0780
  284MOL0     H38308  12.371   6.340  10.340 -0.7764  2.2520  1.2343
  284MOL0     H38309  12.325   6.300  10.511 -0.6176  1.1184  1.3937
  284MOL0     H38310  12.170   6.196  10.267 -0.9206 -1.6376  1.0017
  284MOL0     H38311  12.150   6.144  10.430 -0.2490 -1.9409 -1.4406
  284MOL0     H38312  12.404   6.125  10.276 -2.2809  0.2493 -1.1452
  284MOL0     H38313  12.288   5.990  10.278  1.8002 -1.3627  0.7960
  284MOL0     H38314  12.481   5.967  10.467  2.5723  2.9138  1.1866
  284MOL0     H38315  12.411   6.109  10.531  0.0195 -1.4727  1.1119
  284MOL0     H38316  12.200   6.016  10.598  0.1408  1.0438 -0.1105
  284MOL0     H38317  12.348   5.939  10.663 -0.1613 -0.7613 -0.7607
  284MOL0     H38318  12.173   5.775  10.589  0.0004 -0.0473 -0.4336
  284MOL0     H38319  12.211   5.825  10.425 -1.5051  1.8814  0.1290
  284MOL0     H38320  11.947   6.463  10.085 -0.4455  0.5692  1.2597
  284MOL0     H38321  11.810   6.374   9.911 -2.3532 -2.0471 -1.3990
  284MOL0     H38322  11.367   6.323   9.680 -1.1825  0.2549 -1.1645
  284MOL0     H38323  11.344   6.264   9.438  1.5606 -0.0464 -0.3629
  284MOL0     H38324  10.399   6.138   8.028  0.2797 -2.7766 -0.7534
  284MOL0     H38325  10.189   6.268   7.984 -1.5394  1.9334 -0.5480
  284MOL0     H38326  10.000   6.561   7.845  0.7225 -2.8421 -0.9223
  284MOL0     H38327   9.832   6.697   7.887 -2.2019  0.2421  0.2725
  284MOL0     H38328   9.606   6.869   7.862  0.9735 -0.9753  1.5072
  284MOL0     H38329   9.581   6.710   7.921  0.9415 -1.6526 -0.7345
  284MOL0     H38330   9.368   6.881   7.776 -2.4744 -1.5579 -1.4896
  284MOL0     H38331   9.378   6.840   7.952 -2.2679  1.5235 -1.3564
  284MOL0     H38332   9.337   6.600   7.890  0.5699  1.1109  1.6477
  284MOL0     H38333   9.319   6.646   7.724 -0.5256  1.4656  0.3036
  284MOL0     H38334   9.114   6.618   7.814  3.1109 -1.1592  0.3174
  284MOL0     H38335   9.120   6.757   7.928 -1.2516 -0.2717  0.5343
  284MOL0     H38336   9.078   6.944   7.541 -3.3898 -2.3560 -1.4670
  284MOL0     H38337   9.644   6.571   7.517 -0.1446  2.3407 -1.0575
  284MOL0     H38338   9.879   6.381   7.363 -1.1148  3.9648 -0.0254
  284MOL0     H38339   9.861   6.280   7.492  0.6287 -0.0765 -2.1832
  284MOL0     H38340   9.714   6.363   7.433 -0.5057 -0.6045  2.9518
  285MOL0     O38341   0.268   9.651   9.393  0.7087 -0.4272  0.2619
  285MOL0     C38342   0.151   9.670   9.438  0.4273 -0.0481  0.2644
  285MOL0     O38343   0.096   9.609   9.547 -0.1317 -0.7620  0.2057
  285MOL0     C38344   0.167   9.519   9.607 -1.6358  0.9121 -0.0383
  285MOL0     C38345   0.195   9.520   9.741  0.1338 -0.6264 -0.3574
  285MOL0     C38346   0.251   9.416   9.806 -0.3158  0.1959 -0.4021
  285MOL0     C38347   0.299   9.303   9.740  0.3674 -0.0195  0.7687
  285MOL0     O38348   0.364   9.205   9.808  1.1763  0.0960 -0.8178
  285MOL0     C38349   0.324   9.077   9.755 -0.6960  0.3551 -0.2876
  285MOL0     C38350   0.347   8.962   9.853 -0.6113 -0.9050 -0.8921
  285MOL0     C38351   0.331   9.001  10.002 -0.2090  0.1751  0.0030
  285MOL0     C38352   0.442   9.096  10.062 -1.0889 -0.7222  0.6314
  285MOL0     C38353   0.588   9.066  10.043 -0.3089  0.1465  0.6145
  285MOL0     C38354   0.616   8.917  10.078  0.9062 -0.0873  0.3587
  285MOL0     C38355   0.761   8.881  10.093 -1.5632  0.6046  0.1562
  285MOL0     C38356   0.835   8.936  10.217 -0.0366 -0.4043 -0.1686
  285MOL0     N38357   0.965   8.892  10.221 -0.2340  0.6383 -0.0450
  285MOL0     C38358   1.026   8.877  10.341 -0.0002 -0.4885  0.0477
  285MOL0     C38359   1.148   8.826  10.301  0.2562  0.3466 -0.2377
  285MOL0     C38360   1.257   8.790  10.393 -0.2250 -0.2989 -0.3666
  285MOL0     C38361   1.346   8.676  10.343 -0.9499  0.0917 -0.6925
  285MOL0     C38362   1.263   8.550  10.314  0.1133 -0.5352 -0.6501
  285MOL0     C38363   1.356   8.431  10.316 -0.3045 -0.0805  0.0513
  285MOL0     O38364   1.406   8.398  10.448  0.5173 -0.1898  0.0499
  285MOL0     C38365   1.495   8.286  10.460  0.2631  0.4595 -0.7773
  285MOL0     C38366   1.572   8.276  10.573 -0.1951 -0.5377  0.2052
  285MOL0     C38367   1.663   8.174  10.592 -0.3026  0.1890 -0.1311
  285MOL0     C38368   1.679   8.067  10.492  0.4211 -0.3318 -0.2872
  285MOL0     C38369   1.759   7.954  10.515 -0.1600  0.4372  0.0231
  285MOL0     O38370   1.828   7.948  10.632 -0.5845 -0.7135 -0.3520
  285MOL0     C38371   1.899   7.836  10.682 -0.5179  0.3360 -0.2774
  285MOL0     C38372   1.948   7.728  10.605 -0.7144 -0.0982  0.4864
  285MOL0     C38373   2.016   7.621  10.658  0.1506 -0.4822  0.5959
  285MOL0     C38374   2.043   7.626  10.799 -1.4660 -0.4010  1.2142
  285MOL0     O38375   2.113   7.536  10.867 -0.1924 -0.5859  0.5954
  285MOL0     C38376   2.089   7.401  10.835 -0.2857 -0.4852  0.3581
  285MOL0     C38377   2.169   7.309  10.918 -0.6364 -0.3372  0.3645
  285MOL0     C38378   2.144   7.299  11.065  0.4880 -0.5359  0.1699
  285MOL0     C38379   1.999   7.255  11.094  0.3066 -0.1125 -0.3572
  285MOL0     C38380   1.969   7.267  11.243 -0.7473 -1.1610 -0.3494
  285MOL0     C38381   2.042   7.166  11.333  0.4349  0.6001 -0.7227
  285MOL0     C38382   1.960   7.145  11.464  1.0469  0.0753 -1.1845
  285MOL0     C38383   2.013   7.024  11.551 -0.0283 -0.6768 -0.5762
  285MOL0    Cl38384   1.967   6.860  11.472  0.0018  0.1481 -0.0400
  285MOL0     C38385   2.009   7.742  10.868  0.1218  0.1752 -1.5233
  285MOL0     C38386   1.933   7.847  10.814  0.1118  0.6329  0.4457
  285MOL0     O38387   1.757   7.878  10.425 -0.6381  0.4192 -0.9593
  285MOL0     C38388   1.600   8.080  10.381 -0.0500 -0.7104  0.4896
  285MOL0     C38389   1.513   8.188  10.364 -0.3936  0.7521 -0.3375
  285MOL0     N38390   1.156   8.837  10.159  0.1015  0.5220 -0.1748
  285MOL0     N38391   1.045   8.864  10.117  0.7296  0.3217 -0.3739
  285MOL0     C38392   0.286   9.299   9.599  0.5772 -0.4457 -0.0541
  285MOL0     C38393   0.217   9.403   9.537  0.0609  0.9342 -1.2807
  285MOL0     C38394   0.075   9.775   9.350 -0.1109 -0.7024 -0.0562
  285MOL0     C38395   0.148   9.872   9.271 -0.7345 -0.0047 -0.1858
  285MOL0     C38396   0.071   9.961   9.190  0.5861  0.1752 -0.3249
  285MOL0     C38397  -0.063   9.952   9.166  0.5744  0.2057  0.0679
  285MOL0     O38398  -0.129  10.031   9.075  0.5018 -0.5738  0.2338
  285MOL0     C38399  -0.179   9.949   8.968  0.8016  0.3204  0.1355
  285MOL0     C38400  -0.295  10.017   8.904 -0.5452 -0.4457  0.7451
  285MOL0     C38401  -0.242  10.120   8.809 -0.5277  0.0763 -0.0282
  285MOL0     C38402  -0.257  10.064   8.662  0.1951  0.5937 -0.7638
  285MOL0     C38403  -0.204  10.156   8.562 -0.0526  0.9968  0.1290
  285MOL0     C38404  -0.162  10.224   8.469  0.3558  0.1956 -0.2562
  285MOL0     C38405  -0.133   9.863   9.250 -0.7584  0.2754 -0.3499
  285MOL0     C38406  -0.066   9.779   9.337  0.1202  0.5986 -0.0582
  285MOL0     C38407  -0.153   9.708   9.425 -0.1120 -0.0481  0.7336
  285MOL0     H38408   0.156   9.608   9.791 -0.5885 -1.3037  0.3083
  285MOL0     H38409   0.251   9.419   9.914 -1.4657  3.3117 -0.3822
  285MOL0     H38410   0.219   9.073   9.723 -0.9225 -3.6619  0.4784
  285MOL0     H38411   0.385   9.061   9.666  0.5692 -0.5860  0.7149
  285MOL0     H38412   0.448   8.922   9.842 -0.5599 -0.8195 -0.7402
  285MOL0     H38413   0.289   8.873   9.828 -0.0912 -1.9089  1.2319
  285MOL0     H38414   0.317   8.912  10.065 -2.1469  1.7237  1.9286
  285MOL0     H38415   0.231   9.045   9.998 -0.9248 -1.4330 -1.8072
  285MOL0     H38416   0.420   9.198  10.030 -1.3382 -0.8271  0.4625
  285MOL0     H38417   0.440   9.092  10.171  0.4571 -0.9816  0.6719
  285MOL0     H38418   0.618   9.096   9.942 -0.5045 -0.9008  0.2383
  285MOL0     H38419   0.654   9.127  10.105  1.9828 -1.1631 -0.3933
  285MOL0     H38420   0.547   8.871  10.149 -0.9709  0.2677 -1.1439
  285MOL0     H38421   0.586   8.867   9.985  2.2750  0.0913 -0.2031
  285MOL0     H38422   0.814   8.913  10.003 -0.3614 -0.9031  0.2844
  285MOL0     H38423   0.776   8.773  10.083  0.1463  0.9259 -1.3429
  285MOL0     H38424   0.834   9.045  10.223  0.1109 -0.4946  2.8635
  285MOL0     H38425   0.779   8.894  10.300 -0.8897 -0.9360 -0.9901
  285MOL0     H38426   0.984   8.879  10.441  0.0100  0.4828  0.0452
  285MOL0     H38427   1.316   8.881  10.403 -1.3175  0.3787  0.0573
  285MOL0     H38428   1.229   8.763  10.495  2.9927  1.6557  1.1878
  285MOL0     H38429   1.397   8.708  10.251 -1.5467  1.4142 -0.5896
  285MOL0     H38430   1.427   8.658  10.414 -1.2813  3.3942  0.6932
  285MOL0     H38431   1.216   8.568  10.216  2.5192 -1.3204 -2.0269
  285MOL0     H38432   1.193   8.535  10.396  2.8195  1.2172  2.1847
  285MOL0     H38433   1.437   8.456  10.246 -0.8580 -1.6786 -1.2378
  285MOL0     H38434   1.297   8.350  10.271 -1.4380  0.7159  0.0654
  285MOL0     H38435   1.550   8.358  10.641 -0.9330  2.4544 -3.3478
  285MOL0     H38436   1.717   8.161  10.685 -1.1180 -0.5173  0.2617
  285MOL0     H38437   1.916   7.737  10.502 -2.9532  0.4382  1.1748
  285MOL0     H38438   2.060   7.547  10.591 -0.5640  0.0930 -0.5366
  285MOL0     H38439   1.984   7.380  10.858 -0.6397  1.5665  0.8145
  285MOL0     H38440   2.112   7.382  10.729  2.3818  2.2638  0.3176
  285MOL0     H38441   2.161   7.208  10.876  1.3649 -0.3361 -0.1323
  285MOL0     H38442   2.270   7.350  10.907 -0.6070 -0.4031  0.3884
  285MOL0     H38443   2.212   7.230  11.115 -0.6890 -1.6332  0.3173
  285MOL0     H38444   2.161   7.401  11.100 -0.3440 -0.1764 -0.4375
  285MOL0     H38445   1.970   7.153  11.067 -2.5173  0.4805  0.1226
  285MOL0     H38446   1.926   7.315  11.039 -1.3976 -2.3867 -0.7040
  285MOL0     H38447   1.860   7.252  11.247 -1.0203  0.7168  0.2572
  285MOL0     H38448   1.976   7.370  11.279  0.0912 -1.3297 -0.0298
  285MOL0     H38449   2.047   7.070  11.282 -1.7452 -0.6287  1.1366
  285MOL0     H38450   2.143   7.192  11.366  0.1255  1.8765 -0.7075
  285MOL0     H38451   1.855   7.128  11.440  1.2804 -1.4890 -1.1909
  285MOL0     H38452   1.985   7.230  11.529  2.5907 -1.2278  0.0332
  285MOL0     H38453   2.123   7.023  11.555 -0.0494 -1.5596  0.3097
  285MOL0     H38454   1.970   7.026  11.651  1.3429  1.9592  0.0582
  285MOL0     H38455   2.051   7.760  10.967  1.6403 -3.5613 -1.3324
  285MOL0     H38456   1.939   7.944  10.861  1.5290  1.1235 -0.6875
  285MOL0     H38457   1.606   8.005  10.302 -0.0432  0.4118 -0.6027
  285MOL0     H38458   1.462   8.194  10.269  1.0629  1.3033 -1.1024
  285MOL0     H38459   0.327   9.221   9.536 -0.8407 -2.0982  0.9568
  285MOL0     H38460   0.200   9.395   9.430 -1.3476  1.1574 -1.0898
  285MOL0     H38461   0.256   9.875   9.272 -0.6355  1.7430 -3.7609
  285MOL0     H38462   0.114  10.036   9.125 -1.0165  0.6830 -0.8458
  285MOL0     H38463  -0.221   9.853   8.998 -1.5403  0.5265 -2.1549
  285MOL0     H38464  -0.098   9.934   8.896 -0.0187 -1.6897 -0.4360
  285MOL0     H38465  -0.351  10.062   8.987 -0.7689  2.5795 -0.8814
  285MOL0     H38466  -0.358   9.943   8.856  0.8764 -2.2695  1.5738
  285MOL0     H38467  -0.135  10.140   8.821 -0.7596  0.3638  1.7894
  285MOL0     H38468  -0.296  10.214   8.824 -3.0824 -0.7873 -2.7656
  285MOL0     H38469  -0.209   9.968   8.644  2.9896  1.7300  0.0440
  285MOL0     H38470  -0.365  10.053   8.652 -0.0164 -0.7853  2.0448
  285MOL0     H38471  -0.132  10.277   8.381  0.6087 -0.1853 -0.4014
  285MOL0     H38472  -0.241   9.860   9.238 -1.1536  1.9476  1.9937
  285MOL0     H38473  -0.118   9.717   9.528  1.3170 -3.4990  0.6957
  285MOL0     H38474  -0.255   9.741   9.406  0.6953  1.2280 -1.7483
  285MOL0     H38475  -0.161   9.603   9.394 -2.1870  0.1310  0.5162
  286MOL0     O38476   8.665   0.449  10.926 -0.0245  0.0675  0.6426
  286MOL0     C38477   8.623   0.392  11.024  0.6656 -0.4452 -1.9928
  286MOL0     O38478   8.629   0.442  11.151  0.2805  0.5976  0.5935
  286MOL0     C38479   8.661   0.574  11.164 -0.4003  0.0423  0.4835
  286MOL0     C38480   8.780   0.600  11.239  0.1594 -0.4301  0.0306
  286MOL0     C38481   8.832   0.729  11.253  0.7858  0.8410  0.3663
  286MOL0     C38482   8.763   0.836  11.192 -0.0789  0.5360 -0.5768
  286MOL0     O38483   8.813   0.958  11.226  0.0409  0.1182  0.1215
  286MOL0     C38484   8.793   1.072  11.145 -0.5577  0.5373  1.2520
  286MOL0     C38485   8.906   1.163  11.180  0.6929  0.2351 -0.3228
  286MOL0     C38486   8.893   1.237  11.310 -0.6205  0.9836  0.2712
  286MOL0     C38487   9.006   1.336  11.347  1.0735 -0.5609 -0.0776
  286MOL0     C38488   9.146   1.271  11.353  0.0384  0.2394  0.1345
  286MOL0     C38489   9.247   1.366  11.424 -0.1363 -0.5761 -0.1507
  286MOL0     C38490   9.388   1.313  11.413 -0.0728 -0.3301  0.3391
  286MOL0     C38491   9.493   1.399  11.478  0.5475  0.2623 -0.3072
  286MOL0     N38492   9.504   1.533  11.427 -0.0626 -1.5609 -0.4512
  286MOL0     C38493   9.557   1.574  11.308 -0.5139  0.2687  1.1798
  286MOL0     C38494   9.541   1.707  11.313  0.0885 -0.4040 -0.1195
  286MOL0     C38495   9.604   1.780  11.194 -0.2591  0.1154  0.0848
  286MOL0     C38496   9.510   1.871  11.116 -0.4499 -0.5007 -0.2190
  286MOL0     C38497   9.570   1.914  10.983 -0.5881 -0.2189  0.1226
  286MOL0     C38498   9.483   1.997  10.892  0.3261 -0.5642 -0.0530
  286MOL0     O38499   9.471   2.124  10.948 -0.1812  0.3996 -1.0423
  286MOL0     C38500   9.385   2.216  10.898  0.6748  0.0247 -0.4336
  286MOL0     C38501   9.304   2.187  10.785  0.7243  0.5171  0.3459
  286MOL0     C38502   9.226   2.294  10.729  0.2700 -0.3234  0.3880
  286MOL0     C38503   9.222   2.420  10.798 -1.0452  0.2885 -0.1434
  286MOL0     C38504   9.132   2.526  10.747  0.8506  0.4583  0.0632
  286MOL0     O38505   9.074   2.519  10.622  0.8745 -0.4105 -1.0888
  286MOL0     C38506   9.015   2.629  10.583 -0.5089 -0.9806  0.7184
  286MOL0     C38507   9.077   2.756  10.559  0.3475  0.5049  0.7176
  286MOL0     C38508   9.003   2.871  10.531 -0.7836  0.3596 -0.8695
  286MOL0     C38509   8.866   2.867  10.506 -0.4423  0.2362  0.0808
  286MOL0     O38510   8.802   2.973  10.466  0.8326 -0.1256  0.0133
  286MOL0     C38511   8.872   3.096  10.429  1.8704  0.5356 -0.4348
  286MOL0     C38512   8.779   3.214  10.427  0.2152 -0.1859  0.0381
  286MOL0     C38513   8.857   3.339  10.393  0.2457  0.1185 -0.7096
  286MOL0     C38514   8.907   3.419  10.518  0.1461 -0.1564  0.3380
  286MOL0     C38515   8.971   3.543  10.469 -0.4708  0.2222 -0.1797
  286MOL0     C38516   9.007   3.632  10.583 -0.7935  0.0838 -0.6423
  286MOL0     C38517   9.085   3.757  10.552 -0.2263  0.4416  0.1760
  286MOL0     C38518   9.115   3.822  10.683 -0.3662 -0.3732 -0.1658
  286MOL0    Cl38519   9.194   3.981  10.636 -0.6049 -0.1503 -0.5816
  286MOL0     C38520   8.804   2.751  10.527 -0.7531  0.6395  0.7823
  286MOL0     C38521   8.873   2.635  10.568  0.0274  0.2714  0.0544
  286MOL0     O38522   9.110   2.626  10.818  0.1660 -0.1070  0.0227
  286MOL0     C38523   9.297   2.444  10.909  0.6778 -0.7278  0.3164
  286MOL0     C38524   9.380   2.343  10.963  0.8929  0.1939  0.5967
  286MOL0     N38525   9.488   1.743  11.433  0.1255  0.2094  0.6752
  286MOL0     N38526   9.469   1.638  11.501 -0.0130  0.6385  0.1661
  286MOL0     C38527   8.636   0.810  11.133  0.3567  0.5466 -0.7861
  286MOL0     C38528   8.585   0.679  11.120  0.1460  0.3883 -0.0912
  286MOL0     C38529   8.587   0.249  11.016  0.7737  0.1546  1.3514
  286MOL0     C38530   8.582   0.165  11.129  0.6110  0.4682 -0.3567
  286MOL0     C38531   8.555   0.024  11.122 -1.5735 -0.0545  0.1826
  286MOL0     C38532   8.536  -0.035  11.001 -1.0675  0.4991 -0.5064
  286MOL0     O38533   8.485  -0.161  10.988 -0.0341 -0.1821  0.0378
  286MOL0     C38534   8.586  -0.264  10.971  0.5293  0.4979 -0.9252
  286MOL0     C38535   8.538  -0.394  10.901 -0.2578 -0.2299 -0.6282
  286MOL0     C38536   8.469  -0.368  10.762 -1.3504 -0.6117 -0.3301
  286MOL0     C38537   8.461  -0.479  10.666  0.0554  0.5042  0.2962
  286MOL0     C38538   8.446  -0.438  10.529  0.2406 -0.1486 -0.3055
  286MOL0     C38539   8.439  -0.409  10.416 -0.4150 -0.5521  0.1337
  286MOL0     C38540   8.536   0.044  10.892  0.2293  0.1771  0.4316
  286MOL0     C38541   8.546   0.189  10.895  0.3071 -0.2579  0.4624
  286MOL0     C38542   8.506   0.269  10.772  0.8247  0.4071 -0.7713
  286MOL0     H38543   8.830   0.516  11.286 -1.3111  0.6477  3.9190
  286MOL0     H38544   8.933   0.749  11.287  1.2801 -1.6537  0.5445
  286MOL0     H38545   8.802   1.036  11.043  0.8712 -1.0356  1.8724
  286MOL0     H38546   8.699   1.128  11.141  0.8380  2.9856 -2.1734
  286MOL0     H38547   8.913   1.249  11.113 -2.7123  1.0506  0.1672
  286MOL0     H38548   8.992   1.098  11.163 -1.1140 -2.1370 -1.0180
  286MOL0     H38549   8.893   1.159  11.387 -1.3194  0.5973 -0.1114
  286MOL0     H38550   8.802   1.296  11.300 -0.2981  1.6138  0.8909
  286MOL0     H38551   9.017   1.411  11.269 -2.9979 -0.2817 -0.5821
  286MOL0     H38552   8.984   1.377  11.446 -2.1283 -1.6480 -0.2263
  286MOL0     H38553   9.142   1.179  11.413  3.0721  0.8399  1.4515
  286MOL0     H38554   9.164   1.228  11.254 -1.2307 -1.7955  0.7396
  286MOL0     H38555   9.243   1.469  11.387 -1.9624  0.0756  1.6634
  286MOL0     H38556   9.225   1.374  11.531 -0.4819 -1.3185 -0.1542
  286MOL0     H38557   9.424   1.314  11.310  3.5242  1.9897  1.4169
  286MOL0     H38558   9.394   1.208  11.444 -0.5742 -0.3672  0.3112
  286MOL0     H38559   9.480   1.417  11.585  4.2185 -0.2433  0.3511
  286MOL0     H38560   9.591   1.354  11.465  0.8585  0.6074  0.7371
  286MOL0     H38561   9.586   1.509  11.226 -1.3792 -0.4938  1.4516
  286MOL0     H38562   9.676   1.844  11.245 -1.0938 -1.6051  3.7731
  286MOL0     H38563   9.654   1.707  11.130 -1.2308 -0.4321 -0.0787
  286MOL0     H38564   9.423   1.808  11.095  0.7673 -2.3269  0.0159
  286MOL0     H38565   9.485   1.959  11.176 -1.0966 -1.0722  0.3655
  286MOL0     H38566   9.581   1.827  10.917 -2.9059 -0.5639  0.1318
  286MOL0     H38567   9.659   1.977  10.987  1.4396 -2.3198 -4.0899
  286MOL0     H38568   9.384   1.952  10.879 -0.1106  0.5644 -0.6895
  286MOL0     H38569   9.524   2.001  10.791 -2.0471 -1.3716 -1.1231
  286MOL0     H38570   9.301   2.098  10.723  0.6036  0.4342  0.4675
  286MOL0     H38571   9.161   2.289  10.643 -0.1152 -1.4944  0.7423
  286MOL0     H38572   9.184   2.766  10.565  0.3139  1.0787  0.3501
  286MOL0     H38573   9.069   2.953  10.504 -1.2108  1.1093  0.3331
  286MOL0     H38574   8.950   3.123  10.500  0.2525 -1.6140  2.4238
  286MOL0     H38575   8.914   3.084  10.329  0.4401 -0.3161 -0.9767
  286MOL0     H38576   8.701   3.189  10.354 -0.6601 -0.5198  1.0393
  286MOL0     H38577   8.737   3.236  10.526 -1.2075  0.1478 -0.6134
  286MOL0     H38578   8.945   3.313  10.334  0.3904 -1.2366  0.0681
  286MOL0     H38579   8.798   3.409  10.334 -0.1598  1.2479  0.9528
  286MOL0     H38580   8.984   3.360  10.568 -0.2834 -0.3049  0.8350
  286MOL0     H38581   8.836   3.436  10.599  0.9940 -0.3311  1.1340
  286MOL0     H38582   8.899   3.610  10.422 -1.6283 -0.8821 -0.0219
  286MOL0     H38583   9.063   3.514  10.417 -0.6478 -1.5191  0.4139
  286MOL0     H38584   8.913   3.668  10.624 -0.5283  1.1066 -0.9122
  286MOL0     H38585   9.070   3.588  10.661  1.9273  1.2485 -2.0158
  286MOL0     H38586   9.021   3.819  10.488  1.1172  0.9388 -0.7212
  286MOL0     H38587   9.179   3.735  10.502  1.4195  0.5593  3.0251
  286MOL0     H38588   9.025   3.835  10.744 -0.5052  1.0230 -0.6210
  286MOL0     H38589   9.193   3.764  10.732 -2.1936 -2.8202  0.0538
  286MOL0     H38590   8.697   2.759  10.513 -0.8467 -0.2826  0.9273
  286MOL0     H38591   8.820   2.540  10.562  1.1072 -0.2929 -1.2840
  286MOL0     H38592   9.292   2.546  10.946 -1.9947 -0.5821 -0.2571
  286MOL0     H38593   9.429   2.360  11.059 -2.2365 -0.0998  2.3707
  286MOL0     H38594   8.568   0.890  11.106  1.7633  1.7760 -0.8224
  286MOL0     H38595   8.501   0.643  11.061 -1.1150 -0.7756  2.2214
  286MOL0     H38596   8.607   0.208  11.226  0.3166  0.4650 -0.2764
  286MOL0     H38597   8.559  -0.051  11.200  0.6458  0.7825  0.9222
  286MOL0     H38598   8.632  -0.284  11.068  0.8180  0.5041 -1.0609
  286MOL0     H38599   8.661  -0.224  10.902 -0.0353  4.9490  0.7146
  286MOL0     H38600   8.462  -0.435  10.968  1.8610  1.1256  2.9001
  286MOL0     H38601   8.635  -0.445  10.909 -0.1726  0.1595  1.4971
  286MOL0     H38602   8.508  -0.276  10.719 -0.4472 -0.9511 -0.2646
  286MOL0     H38603   8.363  -0.347  10.780 -1.9212 -3.2673 -0.0317
  286MOL0     H38604   8.529  -0.565  10.669  1.4385  1.4635 -1.7007
  286MOL0     H38605   8.370  -0.527  10.701 -0.2016  1.9165  1.6838
  286MOL0     H38606   8.423  -0.376  10.315 -0.5369  0.6564  0.5432
  286MOL0     H38607   8.517  -0.001  10.795 -0.1244 -0.5826  0.8547
  286MOL0     H38608   8.427   0.342  10.794 -1.9470 -2.4676 -0.5130
  286MOL0     H38609   8.596   0.314  10.728  0.7800  0.6417 -0.6249
  286MOL0     H38610   8.457   0.206  10.698 -1.8864 -2.6754  3.2272
  287MOL0     O38611   3.159   9.160   1.988  0.5408  0.5519 -0.2416
  287MOL0     C38612   3.175   9.239   2.080 -0.4364  0.2964 -0.9580
  287MOL0     O38613   3.281   9.249   2.156  0.2674  0.3871  0.0012
  287MOL0     C38614   3.353   9.128   2.171 -0.9122 -0.1263  0.1466
  287MOL0     C38615   3.295   9.002   2.200  0.2573  0.4098 -0.5427
  287MOL0     C38616   3.367   8.886   2.196 -0.3755 -0.4164  0.9955
  287MOL0     C38617   3.505   8.893   2.173 -0.8743  0.0049 -0.1819
  287MOL0     O38618   3.569   8.772   2.152  0.1519 -0.2144 -0.4360
  287MOL0     C38619   3.711   8.781   2.121  1.1723  0.3051  0.0301
  287MOL0     C38620   3.759   8.631   2.116  0.0991 -1.0571  0.1277
  287MOL0     C38621   3.916   8.608   2.105  0.8076 -0.1378 -0.3866
  287MOL0     C38622   3.994   8.684   2.214  0.8473 -0.4634  0.4441
  287MOL0     C38623   3.981   8.626   2.350 -0.1965  0.6329 -0.3964
  287MOL0     C38624   4.073   8.694   2.456 -1.0890 -0.2631 -0.3336
  287MOL0     C38625   4.027   8.835   2.497  0.1490 -0.5490  0.2191
  287MOL0     C38626   3.875   8.839   2.540  0.2562  0.1201  0.6786
  287MOL0     N38627   3.813   8.968   2.587  0.1061 -0.5366 -0.0374
  287MOL0     C38628   3.861   9.043   2.687 -1.0167 -0.7094 -0.3696
  287MOL0     C38629   3.785   9.146   2.701 -0.3214  0.0648 -0.0507
  287MOL0     C38630   3.803   9.255   2.812  0.8353  0.1977 -0.4838
  287MOL0     C38631   3.738   9.379   2.756  0.1082  1.2202  1.0624
  287MOL0     C38632   3.731   9.494   2.849  0.7133  0.4974 -0.7233
  287MOL0     C38633   3.647   9.612   2.790 -0.0202  0.4879 -0.2126
  287MOL0     O38634   3.503   9.620   2.828  0.1031 -0.3176 -0.6076
  287MOL0     C38635   3.475   9.642   2.963  0.1650 -0.0061 -1.1247
  287MOL0     C38636   3.562   9.683   3.067 -0.7140  0.0347 -0.4538
  287MOL0     C38637   3.519   9.702   3.204 -0.2134 -0.1453  0.8764
  287MOL0     C38638   3.368   9.699   3.234 -0.5288  0.0847 -0.5035
  287MOL0     C38639   3.312   9.715   3.372 -0.4691  0.6140 -0.3562
  287MOL0     O38640   3.176   9.738   3.382  0.3723  0.2601 -0.5986
  287MOL0     C38641   3.138   9.784   3.505  0.1403 -0.8599 -0.4810
  287MOL0     C38642   3.078   9.702   3.593  0.5151  0.2872 -0.2060
  287MOL0     C38643   3.064   9.744   3.725 -0.1973 -0.2232 -0.9179
  287MOL0     C38644   3.108   9.872   3.766 -1.0826 -0.0445  0.0563
  287MOL0     O38645   3.106   9.904   3.899  0.2354 -0.5830  0.3797
  287MOL0     C38646   3.077  10.042   3.944 -0.3176  0.7516  0.2296
  287MOL0     C38647   3.055  10.014   4.095  0.0126  0.5083 -0.1382
  287MOL0     C38648   3.020  10.135   4.165  0.2319 -0.5095 -0.3492
  287MOL0     C38649   3.002  10.110   4.320  0.1022 -0.6052  1.0379
  287MOL0     C38650   2.993  10.238   4.403 -0.5479  0.1969 -0.5020
  287MOL0     C38651   2.861  10.316   4.382  0.1868  0.7560 -0.6393
  287MOL0     C38652   2.862  10.452   4.440 -0.1664  0.3862  0.7015
  287MOL0     C38653   2.728  10.527   4.440 -0.3109 -0.2675 -0.0893
  287MOL0    Cl38654   2.751  10.702   4.435  0.0471 -0.0125 -0.4363
  287MOL0     C38655   3.158   9.958   3.678 -0.2918 -0.3165 -0.0147
  287MOL0     C38656   3.171   9.916   3.543 -0.2113 -0.2443 -0.3096
  287MOL0     O38657   3.392   9.721   3.462 -0.8361  1.1300  0.5144
  287MOL0     C38658   3.294   9.653   3.128  0.4742 -0.4867 -0.4918
  287MOL0     C38659   3.342   9.625   3.002  0.5832 -0.0774 -1.0067
  287MOL0     N38660   3.677   9.121   2.618  0.3399  0.1248 -0.4014
  287MOL0     N38661   3.694   9.013   2.550 -0.3011  0.0847 -0.1283
  287MOL0     C38662   3.564   9.017   2.152 -0.2565 -0.3238 -0.5497
  287MOL0     C38663   3.494   9.137   2.154  0.4889 -0.3324  0.3058
  287MOL0     C38664   3.082   9.350   2.106 -0.2789 -0.0154  0.1596
  287MOL0     C38665   3.127   9.482   2.146 -0.1144  0.3706 -0.4907
  287MOL0     C38666   3.045   9.590   2.171  0.0781  0.3152  0.1006
  287MOL0     C38667   2.908   9.561   2.166 -0.7386  1.2459  0.7138
  287MOL0     O38668   2.816   9.665   2.165  0.2256 -0.2804  0.3524
  287MOL0     C38669   2.703   9.664   2.248 -0.1802 -0.4345 -0.3987
  287MOL0     C38670   2.584   9.714   2.158 -0.4771  0.3957  0.0434
  287MOL0     C38671   2.450   9.716   2.224  0.0470 -0.1396  0.5628
  287MOL0     C38672   2.331   9.785   2.146 -0.1004  0.6570 -0.0875
  287MOL0     C38673   2.330   9.923   2.100 -0.5067 -0.1316 -0.3637
  287MOL0     C38674   2.328  10.036   2.058  0.2520  0.2723 -0.0887
  287MOL0     C38675   2.862   9.431   2.142  0.0790 -0.3322  0.2685
  287MOL0     C38676   2.942   9.323   2.106 -0.0438 -0.0794  0.5111
  287MOL0     C38677   2.882   9.187   2.078 -0.1458 -0.1999 -0.4567
  287MOL0     H38678   3.190   8.993   2.225 -1.3541 -1.1537 -6.3796
  287MOL0     H38679   3.316   8.792   2.211 -1.8573  0.4219  1.3924
  287MOL0     H38680   3.735   8.827   2.024  3.0106 -0.9809 -0.1885
  287MOL0     H38681   3.758   8.847   2.195 -1.2503  0.8426  1.1544
  287MOL0     H38682   3.708   8.581   2.033  1.0009  0.5239 -1.4677
  287MOL0     H38683   3.721   8.591   2.210  0.0375  2.7102  1.9263
  287MOL0     H38684   3.950   8.625   2.003  1.5641 -0.4286 -0.1943
  287MOL0     H38685   3.944   8.503   2.118 -1.4872 -0.9016 -1.1412
  287MOL0     H38686   4.095   8.677   2.174  0.4889  3.0671 -1.5510
  287MOL0     H38687   3.973   8.791   2.217  3.2914  0.0452  1.5290
  287MOL0     H38688   3.877   8.636   2.385 -0.2339 -2.4110  0.6771
  287MOL0     H38689   4.010   8.520   2.347  1.4697  1.0849 -1.2698
  287MOL0     H38690   4.097   8.619   2.533  0.3907 -0.9690 -1.4411
  287MOL0     H38691   4.161   8.710   2.392 -1.6974  0.0237 -1.1102
  287MOL0     H38692   4.029   8.903   2.411 -3.5129 -0.6497 -0.1085
  287MOL0     H38693   4.096   8.882   2.567  1.5558  1.2484 -2.2083
  287MOL0     H38694   3.824   8.808   2.449  1.2507 -0.5072  0.3216
  287MOL0     H38695   3.864   8.768   2.622 -1.9643  1.9224  2.0891
  287MOL0     H38696   3.946   9.022   2.750 -0.5629 -0.8736 -1.0306
  287MOL0     H38697   3.766   9.215   2.907  2.2226  2.1056  0.9151
  287MOL0     H38698   3.909   9.278   2.825  2.1880 -3.2762 -3.5766
  287MOL0     H38699   3.798   9.418   2.674  0.8462 -3.2972 -0.8286
  287MOL0     H38700   3.645   9.354   2.704  1.2320  1.6420 -1.3012
  287MOL0     H38701   3.833   9.531   2.864 -0.3958  3.3401  0.5238
  287MOL0     H38702   3.689   9.460   2.945  2.2823 -1.0145 -0.5188
  287MOL0     H38703   3.652   9.611   2.680  0.1290 -1.5706 -0.2194
  287MOL0     H38704   3.684   9.713   2.809 -0.7983  0.2541  2.9631
  287MOL0     H38705   3.667   9.700   3.049 -0.6366 -0.0065 -0.0306
  287MOL0     H38706   3.588   9.735   3.280 -1.0208  0.9198  1.1638
  287MOL0     H38707   3.047   9.604   3.559 -2.1029  0.5955  1.0578
  287MOL0     H38708   3.021   9.674   3.796 -2.2707  3.6123  2.0139
  287MOL0     H38709   3.152  10.118   3.918  0.8680  0.0351  1.4758
  287MOL0     H38710   2.986  10.073   3.891 -0.8256 -2.4413 -1.0000
  287MOL0     H38711   2.965   9.953   4.103 -1.8603  3.1878  0.9730
  287MOL0     H38712   3.137   9.966   4.150 -2.8441 -0.2496  3.8221
  287MOL0     H38713   3.104  10.204   4.161  0.3867 -0.7376 -1.0790
  287MOL0     H38714   2.933  10.186   4.122  0.8172 -1.6001 -3.0174
  287MOL0     H38715   3.088  10.058   4.364  0.1930 -1.5421 -0.1986
  287MOL0     H38716   2.922  10.037   4.333 -0.7642 -0.0700 -1.0203
  287MOL0     H38717   3.080  10.302   4.390  1.8897 -2.2745  2.2564
  287MOL0     H38718   2.996  10.198   4.505 -0.0160  1.0148 -0.1911
  287MOL0     H38719   2.836  10.332   4.276  1.0138  0.6666 -0.8509
  287MOL0     H38720   2.780  10.253   4.420 -0.2403  1.2523 -0.7060
  287MOL0     H38721   2.929  10.524   4.391 -0.5290  3.3544  4.1033
  287MOL0     H38722   2.909  10.449   4.539 -2.3678 -1.0253  1.7772
  287MOL0     H38723   2.658  10.491   4.364 -2.7952 -0.6522  2.1886
  287MOL0     H38724   2.665  10.505   4.527 -1.1541 -0.9284 -0.8553
  287MOL0     H38725   3.179  10.060   3.709 -1.1536 -0.1033 -0.0916
  287MOL0     H38726   3.204   9.978   3.461  0.6253  1.8301  1.4886
  287MOL0     H38727   3.191   9.625   3.146  0.5744  1.1481  3.5201
  287MOL0     H38728   3.274   9.584   2.928 -1.4620  2.3878 -0.6157
  287MOL0     H38729   3.671   9.026   2.138  0.2030  2.9947  3.1266
  287MOL0     H38730   3.544   9.233   2.144  1.4474 -0.8699 -0.1765
  287MOL0     H38731   3.233   9.500   2.162  0.1158 -1.6509  0.4981
  287MOL0     H38732   3.077   9.688   2.204 -1.0632  1.5496 -2.2392
  287MOL0     H38733   2.724   9.742   2.322  2.5774 -0.7023 -0.7906
  287MOL0     H38734   2.697   9.564   2.291  4.4815  0.7648  4.0671
  287MOL0     H38735   2.580   9.634   2.083 -0.7772 -0.2950  0.7862
  287MOL0     H38736   2.599   9.816   2.122  1.7509  0.3689  0.7128
  287MOL0     H38737   2.463   9.787   2.306 -1.3328 -0.4981  1.1209
  287MOL0     H38738   2.418   9.615   2.251 -0.6849 -0.1541 -0.3046
  287MOL0     H38739   2.307   9.719   2.062 -1.7931  0.7569  0.2749
  287MOL0     H38740   2.248   9.769   2.215  1.5352 -1.2262  1.5708
  287MOL0     H38741   2.319  10.128   2.005  1.4130  0.7697  0.5429
  287MOL0     H38742   2.755   9.417   2.128 -0.0374  2.1849 -2.5212
  287MOL0     H38743   2.859   9.186   1.971 -1.9756  5.0424 -0.4055
  287MOL0     H38744   2.951   9.106   2.104 -0.9524 -1.1055 -1.0537
  287MOL0     H38745   2.783   9.169   2.121 -0.6848  1.9353 -0.6781
  288MOL0     O38746   7.423  10.599   4.219  0.2049 -0.2794  0.2283
  288MOL0     C38747   7.415  10.691   4.301  0.9270 -0.8343  0.1593
  288MOL0     O38748   7.506  10.787   4.330  0.6589  0.0674 -0.0648
  288MOL0     C38749   7.622  10.775   4.258  0.3675 -0.6149 -0.8814
  288MOL0     C38750   7.733  10.724   4.327  0.1083  0.4635 -0.1384
  288MOL0     C38751   7.853  10.695   4.257 -0.7166 -0.2213  0.8260
  288MOL0     C38752   7.877  10.745   4.128  0.3895  0.2889  0.0233
  288MOL0     O38753   8.007  10.730   4.082  0.3020  0.1216  0.3915
  288MOL0     C38754   8.029  10.733   3.941  0.6887  0.8581 -0.2277
  288MOL0     C38755   8.177  10.741   3.922  0.4817  0.2464  0.9220
  288MOL0     C38756   8.187  10.786   3.775  0.1063 -0.1357 -0.1318
  288MOL0     C38757   8.330  10.799   3.735  0.2999 -0.7796 -0.0355
  288MOL0     C38758   8.330  10.866   3.601 -0.1270 -0.0895 -0.0434
  288MOL0     C38759   8.482  10.893   3.555  0.2231 -0.0540 -0.7036
  288MOL0     C38760   8.474  10.932   3.406  0.0220  0.2046 -0.9377
  288MOL0     C38761   8.417  11.071   3.387  0.3345 -0.7509 -0.3894
  288MOL0     N38762   8.396  11.099   3.247 -0.0752  0.2923  0.1741
  288MOL0     C38763   8.412  11.226   3.198  0.5702 -0.9190  0.5854
  288MOL0     C38764   8.361  11.219   3.068  0.4618 -0.0587  0.1097
  288MOL0     C38765   8.353  11.332   2.972  0.0787 -0.5875 -0.5080
  288MOL0     C38766   8.416  11.291   2.831 -0.1049  0.3191 -0.5063
  288MOL0     C38767   8.392  11.401   2.727  0.8414 -0.1582  0.5557
  288MOL0     C38768   8.452  11.379   2.588 -0.3371 -0.4907  0.2841
  288MOL0     O38769   8.412  11.470   2.489 -0.6738 -0.1411  0.8378
  288MOL0     C38770   8.280  11.471   2.464  0.4660  0.5146  0.3434
  288MOL0     C38771   8.224  11.599   2.466 -0.7329 -0.7949  0.2333
  288MOL0     C38772   8.084  11.617   2.461  0.2071  0.0867 -0.0074
  288MOL0     C38773   7.994  11.510   2.441 -0.8309  0.4750 -0.7759
  288MOL0     C38774   7.844  11.530   2.425 -0.5345  0.0997  0.0232
  288MOL0     O38775   7.769  11.409   2.431 -0.5239  0.3646  0.5703
  288MOL0     C38776   7.633  11.415   2.428 -0.4096 -0.0941 -0.1847
  288MOL0     C38777   7.566  11.445   2.549  0.0059 -0.2913 -0.7391
  288MOL0     C38778   7.427  11.445   2.535  0.1665 -0.4411 -0.6692
  288MOL0     C38779   7.353  11.440   2.409  0.3384  0.1907 -0.7726
  288MOL0     O38780   7.221  11.432   2.396  0.1169  0.3509  0.3401
  288MOL0     C38781   7.138  11.492   2.491  0.2003 -0.1499  0.6681
  288MOL0     C38782   6.993  11.472   2.450 -0.6337 -0.7701 -0.8618
  288MOL0     C38783   6.953  11.558   2.330  0.1623 -0.2530 -0.6268
  288MOL0     C38784   6.898  11.696   2.358  0.0941  1.4492  0.6864
  288MOL0     C38785   6.902  11.782   2.225  0.0265  0.7888  0.6070
  288MOL0     C38786   6.792  11.736   2.132  0.8011 -0.5327 -0.5503
  288MOL0     C38787   6.779  11.843   2.017  0.1739 -0.0648  0.7784
  288MOL0     C38788   6.756  11.782   1.882  0.7231 -0.8489 -0.3206
  288MOL0    Cl38789   6.743  11.896   1.748 -0.6055 -0.2318  0.2011
  288MOL0     C38790   7.424  11.398   2.301  0.5321  0.0187 -1.0302
  288MOL0     C38791   7.569  11.388   2.305  0.6347  0.0243 -0.2686
  288MOL0     O38792   7.797  11.642   2.430  0.5716 -0.0934  0.1474
  288MOL0     C38793   8.053  11.380   2.452 -0.7934  0.0178  0.9496
  288MOL0     C38794   8.191  11.359   2.451 -0.3491 -0.0479  0.2502
  288MOL0     N38795   8.320  11.086   3.043  0.6456  0.0988 -0.0647
  288MOL0     N38796   8.338  11.023   3.150  1.0236 -0.0147  0.0462
  288MOL0     C38797   7.768  10.798   4.061 -0.0884 -1.4256  1.0770
  288MOL0     C38798   7.638  10.807   4.124 -0.7561 -0.3805  0.7062
  288MOL0     C38799   7.270  10.695   4.349  0.5530 -0.8532 -0.4335
  288MOL0     C38800   7.255  10.753   4.475  0.9289 -0.2919 -0.4363
  288MOL0     C38801   7.136  10.763   4.542  0.0504 -0.1261 -0.3966
  288MOL0     C38802   7.020  10.712   4.486 -0.3036 -0.1984  0.8391
  288MOL0     O38803   6.889  10.722   4.529 -0.5881  0.1433 -0.0049
  288MOL0     C38804   6.878  10.792   4.653 -1.1177  1.0139  0.0915
  288MOL0     C38805   6.735  10.805   4.700 -0.0136 -0.1536  0.2536
  288MOL0     C38806   6.683  10.675   4.773  0.1783 -0.2992 -0.0638
  288MOL0     C38807   6.537  10.668   4.821  1.4237 -0.6281  1.4096
  288MOL0     C38808   6.507  10.569   4.917  0.4999 -0.5895 -0.5306
  288MOL0     C38809   6.478  10.472   4.987  0.9953 -0.6529  0.1024
  288MOL0     C38810   7.029  10.657   4.363  0.6418  0.8380  0.1109
  288MOL0     C38811   7.151  10.644   4.289 -0.7162 -0.1882 -0.1569
  288MOL0     C38812   7.156  10.605   4.142 -0.0549  0.2012  0.5710
  288MOL0     H38813   7.725  10.718   4.435 -0.7084 -0.6134 -0.2469
  288MOL0     H38814   7.937  10.645   4.303 -2.1085 -2.9818  0.5853
  288MOL0     H38815   7.997  10.639   3.896 -0.1455  0.3824  1.3006
  288MOL0     H38816   7.979  10.817   3.892  0.4684 -1.1603 -3.8568
  288MOL0     H38817   8.232  10.647   3.933 -0.8595 -0.9142 -1.5408
  288MOL0     H38818   8.226  10.815   3.985  2.3484  0.5718 -0.8411
  288MOL0     H38819   8.133  10.877   3.747  0.1186 -0.4013 -1.0384
  288MOL0     H38820   8.148  10.706   3.712  0.0621 -0.6060  0.4783
  288MOL0     H38821   8.383  10.868   3.801  0.0365  1.2013 -1.7668
  288MOL0     H38822   8.382  10.704   3.748  1.7076 -0.1897 -1.0440
  288MOL0     H38823   8.284  10.792   3.534  0.7574 -1.9990  1.3874
  288MOL0     H38824   8.255  10.946   3.597  0.0721  0.2314  1.9283
  288MOL0     H38825   8.518  10.971   3.622  2.4142 -1.9341  0.4860
  288MOL0     H38826   8.551  10.807   3.558 -0.9599 -1.0330 -0.7049
  288MOL0     H38827   8.412  10.861   3.351  0.6498 -3.4638  2.6095
  288MOL0     H38828   8.573  10.913   3.362 -0.4054 -2.0719 -1.0198
  288MOL0     H38829   8.326  11.092   3.443  0.9656  3.7413 -0.7385
  288MOL0     H38830   8.484  11.140   3.438 -0.6791  0.2186 -0.3285
  288MOL0     H38831   8.451  11.317   3.243  0.6427  0.1835 -1.5718
  288MOL0     H38832   8.246  11.342   2.949  0.0453  0.3499 -0.0007
  288MOL0     H38833   8.381  11.430   3.012 -1.0662  0.7820 -2.8514
  288MOL0     H38834   8.520  11.272   2.858 -1.6118 -3.8156  3.8242
  288MOL0     H38835   8.363  11.202   2.798 -0.0253 -0.6179  1.6968
  288MOL0     H38836   8.442  11.485   2.776  1.4373 -1.0649  1.5301
  288MOL0     H38837   8.284  11.416   2.716  1.0975  0.5088 -1.2504
  288MOL0     H38838   8.429  11.276   2.559  1.9297  0.1168 -4.8418
  288MOL0     H38839   8.561  11.375   2.583 -0.2709 -2.6084  2.1441
  288MOL0     H38840   8.288  11.686   2.471 -1.9091  0.1329 -0.4346
  288MOL0     H38841   8.052  11.718   2.441  0.0437  0.0934  0.2735
  288MOL0     H38842   7.629  11.463   2.636 -0.0603 -3.1717  0.0002
  288MOL0     H38843   7.372  11.481   2.621  0.8577  0.1112 -0.4400
  288MOL0     H38844   7.162  11.446   2.587 -0.2251 -1.8118  0.0036
  288MOL0     H38845   7.147  11.601   2.503  0.0001 -0.1054  0.4460
  288MOL0     H38846   6.981  11.364   2.445  2.3370 -1.3617  1.5575
  288MOL0     H38847   6.934  11.505   2.537  2.4449  2.1229  0.3316
  288MOL0     H38848   7.018  11.559   2.242 -0.8859 -0.6937 -1.4141
  288MOL0     H38849   6.862  11.516   2.288 -1.3825  2.4569 -0.2413
  288MOL0     H38850   6.963  11.751   2.427  1.5633  2.8105 -1.6460
  288MOL0     H38851   6.802  11.683   2.408  0.2820  1.9552  1.1959
  288MOL0     H38852   6.992  11.773   2.164 -0.5305  2.8900 -0.6124
  288MOL0     H38853   6.887  11.889   2.243 -2.6721  0.4648  0.7216
  288MOL0     H38854   6.812  11.641   2.082  1.3055 -0.1933 -1.0092
  288MOL0     H38855   6.696  11.744   2.183  1.8761  2.0462  1.2738
  288MOL0     H38856   6.866  11.908   2.017 -0.0087  0.1818  1.0335
  288MOL0     H38857   6.688  11.898   2.044  0.0681 -0.0800  0.4526
  288MOL0     H38858   6.831  11.703   1.870  1.7771  0.3398 -1.8296
  288MOL0     H38859   6.656  11.738   1.896 -0.0218 -0.2400 -3.1401
  288MOL0     H38860   7.367  11.382   2.210 -0.5665 -0.6762 -0.2361
  288MOL0     H38861   7.629  11.341   2.227 -0.8993 -0.8629 -0.9573
  288MOL0     H38862   7.998  11.287   2.448  1.1662 -1.1851 -2.1515
  288MOL0     H38863   8.235  11.262   2.469  2.8151  1.5122  1.5674
  288MOL0     H38864   7.772  10.834   3.959 -0.3583  1.7225  2.0713
  288MOL0     H38865   7.554  10.860   4.079 -2.3469 -2.7535  0.6856
  288MOL0     H38866   7.347  10.799   4.509  0.4415  0.3240  0.0813
  288MOL0     H38867   7.132  10.824   4.631 -1.3320  0.0199 -0.5375
  288MOL0     H38868   6.921  10.891   4.636  2.0139 -0.7634 -4.0998
  288MOL0     H38869   6.935  10.739   4.730 -1.3785 -0.9604 -1.0212
  288MOL0     H38870   6.674  10.825   4.612  0.0057 -0.7253  0.1039
  288MOL0     H38871   6.741  10.881   4.778  3.6474  1.8598 -1.6873
  288MOL0     H38872   6.737  10.654   4.866 -2.7539  0.5061  1.9563
  288MOL0     H38873   6.722  10.595   4.710 -0.6497  0.0792 -1.0821
  288MOL0     H38874   6.502  10.764   4.860  1.4298  0.5243 -1.2170
  288MOL0     H38875   6.464  10.641   4.744  0.3122  3.5127  0.7878
  288MOL0     H38876   6.451  10.407   5.068  3.8213 -2.7018 -0.4335
  288MOL0     H38877   6.937  10.613   4.328 -0.0388  1.0756  1.5506
  288MOL0     H38878   7.195  10.685   4.078  3.4496 -2.3673 -0.7778
  288MOL0     H38879   7.209  10.510   4.131 -1.8850 -1.6548  5.0633
  288MOL0     H38880   7.054  10.584   4.110  0.9210  0.2206 -2.8637
  289MOL0     O38881  10.644   6.598   9.209  0.5588 -0.0522  0.1513
  289MOL0     C38882  10.590   6.491   9.234 -0.7554  0.7375  0.8558
  289MOL0     O38883  10.655   6.377   9.273  0.1828  0.4984 -0.3060
  289MOL0     C38884  10.793   6.390   9.280  0.0343 -0.6551  0.2868
  289MOL0     C38885  10.868   6.366   9.168 -0.2905  0.1077 -0.9113
  289MOL0     C38886  11.005   6.377   9.170 -0.2815 -0.9428 -0.6948
  289MOL0     C38887  11.062   6.425   9.287 -0.2894  0.7600 -0.7225
  289MOL0     O38888  11.197   6.447   9.288 -0.8824  0.5378  0.1763
  289MOL0     C38889  11.242   6.557   9.206  0.2508  0.6621  0.4112
  289MOL0     C38890  11.266   6.680   9.291  0.3729  0.5563 -0.5608
  289MOL0     C38891  11.404   6.678   9.354 -0.3775  0.2453  0.2752
  289MOL0     C38892  11.436   6.801   9.445  0.0434  0.7877  0.1203
  289MOL0     C38893  11.581   6.844   9.438  0.3765 -0.4737 -0.5178
  289MOL0     C38894  11.595   6.945   9.557  0.8014  0.6617  0.4605
  289MOL0     C38895  11.741   6.991   9.563 -0.9831  0.7763 -0.2274
  289MOL0     C38896  11.786   7.071   9.434  0.6640 -0.4841  0.1344
  289MOL0     N38897  11.932   7.087   9.458 -0.0811 -0.2478 -1.1591
  289MOL0     C38898  12.038   7.013   9.413 -0.0526 -0.6401  0.1231
  289MOL0     C38899  12.160   7.066   9.446 -0.0016  0.3879  0.3839
  289MOL0     C38900  12.301   7.020   9.416 -0.2189  0.3007 -0.9304
  289MOL0     C38901  12.383   7.055   9.542  0.1250 -0.3626 -0.4212
  289MOL0     C38902  12.493   6.951   9.566  0.6510 -0.3761  0.3848
  289MOL0     C38903  12.547   6.976   9.709  1.0125 -0.4549  0.3578
  289MOL0     O38904  12.561   7.112   9.756  0.4343  0.2201  0.1960
  289MOL0     C38905  12.611   7.128   9.880  0.4047  0.7927 -0.0238
  289MOL0     C38906  12.619   7.261   9.938 -0.5797 -0.4364  0.6608
  289MOL0     C38907  12.652   7.285  10.071 -0.3742 -0.8438 -0.0941
  289MOL0     C38908  12.706   7.180  10.145  0.3497 -0.5857 -1.0051
  289MOL0     C38909  12.749   7.193  10.282 -0.3129  0.7193 -0.8543
  289MOL0     O38910  12.849   7.114  10.328  0.0664  0.3370 -0.3272
  289MOL0     C38911  12.906   7.152  10.446 -1.0392 -0.9547 -0.8872
  289MOL0     C38912  13.003   7.258  10.452  0.0599 -0.2212  0.3270
  289MOL0     C38913  13.083   7.283  10.564 -0.2589  0.1422 -0.7932
  289MOL0     C38914  13.063   7.204  10.680 -0.3405 -1.0612 -0.5894
  289MOL0     O38915  13.151   7.208  10.781  0.3452  0.5610  0.1740
  289MOL0     C38916  13.196   7.341  10.829  0.5093 -0.3696 -0.5760
  289MOL0     C38917  13.087   7.440  10.850 -0.1404 -0.5080  0.4316
  289MOL0     C38918  13.117   7.521  10.977 -0.0004 -0.8569  0.5261
  289MOL0     C38919  13.038   7.491  11.105 -0.5711 -0.0100 -0.2308
  289MOL0     C38920  13.065   7.576  11.220 -0.3998 -0.1404  0.0930
  289MOL0     C38921  12.960   7.584  11.324 -0.0853 -0.0646 -0.3068
  289MOL0     C38922  13.007   7.677  11.451  0.1267 -0.2924  0.5193
  289MOL0     C38923  12.877   7.760  11.492 -0.2549 -0.5563  0.3113
  289MOL0    Cl38924  12.828   7.861  11.339  0.0771 -0.3036  0.5038
  289MOL0     C38925  12.962   7.104  10.678  1.0997 -0.3715  0.4247
  289MOL0     C38926  12.890   7.074  10.563 -0.3983  0.3277 -0.1711
  289MOL0     O38927  12.717   7.294  10.337  1.2680 -0.4861 -0.2475
  289MOL0     C38928  12.693   7.047  10.101  0.4800  0.2077  0.2953
  289MOL0     C38929  12.632   7.029   9.978 -0.5184  0.9248 -0.5300
  289MOL0     N38930  12.119   7.193   9.491 -0.1447 -0.7996  0.1596
  289MOL0     N38931  11.996   7.206   9.495  0.1265 -0.0042  0.0250
  289MOL0     C38932  10.987   6.448   9.397  0.2568 -0.1113  1.0477
  289MOL0     C38933  10.855   6.434   9.397 -0.4780  0.1230  0.7665
  289MOL0     C38934  10.443   6.481   9.207  0.3645  0.0953 -0.6678
  289MOL0     C38935  10.392   6.362   9.243 -0.4466  0.4245  0.5852
  289MOL0     C38936  10.260   6.328   9.224  0.9879  0.3899 -0.2173
  289MOL0     C38937  10.165   6.421   9.179 -0.0233 -0.6263  0.8246
  289MOL0     O38938  10.029   6.403   9.165 -0.0020  0.4760 -0.1367
  289MOL0     C38939   9.965   6.291   9.226 -0.5964  0.5886  0.0177
  289MOL0     C38940   9.825   6.278   9.189 -0.0089 -0.0173 -0.2098
  289MOL0     C38941   9.751   6.402   9.233 -0.6054  0.3038 -0.6399
  289MOL0     C38942   9.598   6.405   9.185 -0.6028 -0.4067 -0.2104
  289MOL0     C38943   9.538   6.527   9.242 -0.8028  0.2927  0.0743
  289MOL0     C38944   9.513   6.628   9.298  0.1334  0.1815 -0.1266
  289MOL0     C38945  10.212   6.542   9.138 -0.0282 -0.0651  0.5099
  289MOL0     C38946  10.347   6.578   9.153 -0.4544 -0.5582 -0.8121
  289MOL0     C38947  10.384   6.732   9.126 -0.4265  1.8541 -0.5606
  289MOL0     H38948  10.818   6.332   9.078 -0.0079 -1.5079 -0.4832
  289MOL0     H38949  11.071   6.349   9.088 -0.0880  1.1403 -1.3081
  289MOL0     H38950  11.339   6.534   9.162  1.3341  0.5899  2.7030
  289MOL0     H38951  11.162   6.573   9.133  1.7463 -1.1117 -1.7317
  289MOL0     H38952  11.183   6.693   9.362  0.9322  0.3032  0.1456
  289MOL0     H38953  11.262   6.774   9.237  0.1426  0.1628 -1.2444
  289MOL0     H38954  11.480   6.689   9.276  0.6334  4.1181  1.5682
  289MOL0     H38955  11.422   6.579   9.397  2.6515 -0.0316 -1.3704
  289MOL0     H38956  11.370   6.882   9.413 -1.1450 -0.6085 -1.1409
  289MOL0     H38957  11.392   6.780   9.543 -0.5572  1.2169 -0.0556
  289MOL0     H38958  11.645   6.756   9.450 -0.3105 -1.0544 -1.0201
  289MOL0     H38959  11.601   6.892   9.342  4.1321  0.6400  0.6407
  289MOL0     H38960  11.527   7.029   9.540 -0.4776 -0.6499 -1.3746
  289MOL0     H38961  11.554   6.892   9.643 -0.9446 -0.8838 -1.2238
  289MOL0     H38962  11.819   6.915   9.570 -0.5352  0.7742 -3.4082
  289MOL0     H38963  11.749   7.048   9.656  1.2432  1.5360 -0.8352
  289MOL0     H38964  11.764   7.009   9.346 -2.1895 -1.7536  1.5986
  289MOL0     H38965  11.725   7.162   9.438 -0.8546 -1.4882  1.1514
  289MOL0     H38966  12.024   6.919   9.360 -4.3104 -0.1791  0.0175
  289MOL0     H38967  12.305   6.915   9.384 -2.5843  0.6530 -2.7309
  289MOL0     H38968  12.336   7.085   9.335  1.5008  1.3969  0.6502
  289MOL0     H38969  12.436   7.150   9.524  0.9253 -1.4770 -5.5702
  289MOL0     H38970  12.325   7.078   9.632  1.7918  1.2685  0.3167
  289MOL0     H38971  12.569   6.976   9.491  1.2818 -1.1852  0.7420
  289MOL0     H38972  12.464   6.846   9.563 -0.6631 -0.1777  2.9753
  289MOL0     H38973  12.648   6.936   9.717  1.8880  1.6361  0.5786
  289MOL0     H38974  12.475   6.926   9.775  0.1441  2.1921  1.5621
  289MOL0     H38975  12.589   7.347   9.879 -0.3054  0.5153  1.8801
  289MOL0     H38976  12.658   7.383  10.116  2.1603  0.6777 -3.2678
  289MOL0     H38977  13.025   7.311  10.360 -1.3931  0.9090  0.5986
  289MOL0     H38978  13.170   7.347  10.556  0.1313 -0.2383  0.2356
  289MOL0     H38979  13.238   7.323  10.928 -1.1794 -0.4519  0.1514
  289MOL0     H38980  13.280   7.378  10.769  0.0778  0.9290 -0.3976
  289MOL0     H38981  13.098   7.505  10.763  2.7312 -0.8588  0.4321
  289MOL0     H38982  12.987   7.397  10.851  0.8238 -2.9285  1.1686
  289MOL0     H38983  13.224   7.533  11.001 -0.0937  0.1052  0.5124
  289MOL0     H38984  13.066   7.616  10.961 -1.4737 -1.8610 -1.0295
  289MOL0     H38985  13.054   7.386  11.128 -3.9817 -1.1239 -2.1688
  289MOL0     H38986  12.932   7.483  11.079 -0.8407 -3.5374  1.4448
  289MOL0     H38987  13.073   7.676  11.177 -1.5950 -0.6381 -1.3893
  289MOL0     H38988  13.166   7.551  11.255 -0.3959  0.6269  0.6622
  289MOL0     H38989  12.869   7.624  11.278 -0.8662  0.6209  1.7263
  289MOL0     H38990  12.938   7.487  11.368  0.6912  0.0423  0.3419
  289MOL0     H38991  13.077   7.757  11.425 -1.8096  1.7722  1.2507
  289MOL0     H38992  13.033   7.615  11.537 -1.4310 -0.1709  1.1111
  289MOL0     H38993  12.793   7.694  11.515  0.7994 -1.6560  1.1238
  289MOL0     H38994  12.903   7.821  11.579 -1.1987  0.9473 -0.4258
  289MOL0     H38995  12.950   7.048  10.771 -0.6211  1.3114  1.2840
  289MOL0     H38996  12.818   6.992  10.560  0.4759 -0.4633  0.0423
  289MOL0     H38997  12.720   6.960  10.160  2.2126 -2.9833 -4.5630
  289MOL0     H38998  12.629   6.926   9.944 -1.1221  1.1495 -1.1805
  289MOL0     H38999  11.045   6.477   9.484  1.0886 -1.8186  1.1109
  289MOL0     H39000  10.786   6.438   9.481 -0.7137 -0.8848  0.6359
  289MOL0     H39001  10.452   6.288   9.294 -2.9813 -0.3711  2.6699
  289MOL0     H39002  10.228   6.233   9.265  0.5332  1.1574  1.2531
  289MOL0     H39003   9.981   6.293   9.335  1.1552  1.8231 -0.2256
  289MOL0     H39004   9.997   6.194   9.187 -2.2983 -1.0488  2.3543
  289MOL0     H39005   9.790   6.188   9.240  1.8160 -1.4412 -1.3161
  289MOL0     H39006   9.807   6.262   9.082 -0.7663  3.4630 -0.7086
  289MOL0     H39007   9.800   6.492   9.194  0.8611 -0.4544 -0.5828
  289MOL0     H39008   9.757   6.416   9.341 -4.2316  2.6407 -0.5390
  289MOL0     H39009   9.599   6.416   9.076  1.7265  0.5568 -0.1613
  289MOL0     H39010   9.536   6.324   9.224  1.5512 -1.7405  0.6309
  289MOL0     H39011   9.489   6.716   9.356 -0.3535  0.3165 -0.5334
  289MOL0     H39012  10.139   6.617   9.109 -0.1124 -0.5907 -0.6886
  289MOL0     H39013  10.456   6.769   9.200  0.5987 -1.9943  0.6180
  289MOL0     H39014  10.432   6.733   9.028 -1.9053  1.0078 -1.3346
  289MOL0     H39015  10.295   6.794   9.119 -2.7164 -0.8466  1.9283
  290MOL0     O39016   4.388  10.619  10.597  0.0967  0.5712  0.7468
  290MOL0     C39017   4.321  10.558  10.506 -0.4941  0.1457 -0.3973
  290MOL0     O39018   4.301  10.600  10.385  0.0943 -0.4500  0.1840
  290MOL0     C39019   4.352  10.727  10.364  0.8851  0.3003  0.9755
  290MOL0     C39020   4.272  10.839  10.375  0.2786 -1.6630  0.6614
  290MOL0     C39021   4.330  10.974  10.374  1.0448  0.4353  0.0777
  290MOL0     C39022   4.464  10.987  10.343  0.1343 -0.0689  0.2062
  290MOL0     O39023   4.522  11.111  10.341 -0.6518 -0.0450  0.5834
  290MOL0     C39024   4.604  11.149  10.225  0.1681  0.1192 -0.0771
  290MOL0     C39025   4.641  11.301  10.211  0.4979  0.6838  0.6275
  290MOL0     C39026   4.520  11.387  10.244 -0.4370 -0.4570  0.0332
  290MOL0     C39027   4.539  11.448  10.393 -0.4779 -0.2835 -0.3770
  290MOL0     C39028   4.427  11.533  10.445  0.5367 -0.8535  0.1766
  290MOL0     C39029   4.468  11.627  10.557  0.3115  0.9846 -0.1319
  290MOL0     C39030   4.359  11.729  10.585  0.8067 -0.6880 -0.1291
  290MOL0     C39031   4.403  11.817  10.706  0.7132  0.2596 -0.5236
  290MOL0     N39032   4.346  11.775  10.831 -0.6170  0.1451  1.3619
  290MOL0     C39033   4.421  11.729  10.942  1.0084 -0.1926 -0.1215
  290MOL0     C39034   4.330  11.728  11.048 -0.3837  0.5437  1.2876
  290MOL0     C39035   4.360  11.681  11.187  0.0440  0.0530 -0.1561
  290MOL0     C39036   4.229  11.602  11.245  0.2314 -0.5723  0.3146
  290MOL0     C39037   4.229  11.461  11.181 -0.4736  0.5177  0.7429
  290MOL0     C39038   4.357  11.381  11.216  0.5239 -0.5576  0.4892
  290MOL0     O39039   4.343  11.244  11.175 -1.4833  1.0429  0.3877
  290MOL0     C39040   4.437  11.160  11.207  0.0657  0.6837 -0.5269
  290MOL0     C39041   4.544  11.177  11.300  0.3650 -0.4869 -0.4962
  290MOL0     C39042   4.627  11.072  11.333  0.5710 -0.0112 -0.7525
  290MOL0     C39043   4.628  10.948  11.258 -0.1427 -0.0740 -0.6254
  290MOL0     C39044   4.714  10.828  11.281 -0.8774 -0.4116  0.2579
  290MOL0     O39045   4.664  10.702  11.260  0.4976  0.0789  0.8250
  290MOL0     C39046   4.733  10.580  11.288  0.3613  0.3727 -0.1399
  290MOL0     C39047   4.671  10.482  11.343  0.0535  0.3720  0.0871
  290MOL0     C39048   4.721  10.350  11.354 -0.3289 -0.8300 -0.1642
  290MOL0     C39049   4.849  10.333  11.306  0.7129 -0.3362  0.9605
  290MOL0     O39050   4.910  10.213  11.306 -0.9607 -0.1072  0.0229
  290MOL0     C39051   4.856  10.103  11.243 -0.5509 -0.1347 -0.9510
  290MOL0     C39052   4.953   9.981  11.241  0.3177 -0.0693  0.6079
  290MOL0     C39053   5.019   9.971  11.386  0.8648 -0.4505  0.6852
  290MOL0     C39054   5.105   9.847  11.393 -0.2582 -0.1847  0.2898
  290MOL0     C39055   5.187   9.856  11.519  0.5358 -1.5271  0.1242
  290MOL0     C39056   5.293   9.745  11.533  0.4465 -0.8630  0.0463
  290MOL0     C39057   5.364   9.763  11.671 -0.4291  0.5982  0.0270
  290MOL0     C39058   5.443   9.639  11.697 -0.3053  0.2711  0.1648
  290MOL0    Cl39059   5.584   9.635  11.587  0.4103  0.2131  0.3052
  290MOL0     C39060   4.919  10.435  11.238  0.2389 -0.4408 -0.9443
  290MOL0     C39061   4.857  10.562  11.233  0.3071  0.4819  0.5168
  290MOL0     O39062   4.821  10.853  11.343 -0.5040 -0.5276 -0.2261
  290MOL0     C39063   4.524  10.939  11.164  0.3798 -0.8097  0.2065
  290MOL0     C39064   4.419  11.033  11.149  0.1526  0.5044 -0.1584
  290MOL0     N39065   4.205  11.776  11.009 -0.4655  0.1422 -0.3559
  290MOL0     N39066   4.220  11.796  10.880 -0.1949 -0.1786 -0.3240
  290MOL0     C39067   4.543  10.875  10.322 -0.0280 -0.0660 -0.7329
  290MOL0     C39068   4.490  10.752  10.340  0.0673 -0.5535 -0.1504
  290MOL0     C39069   4.277  10.425  10.555 -0.9785  0.5186  1.0731
  290MOL0     C39070   4.275  10.384  10.685  0.0479 -0.7291 -0.3334
  290MOL0     C39071   4.234  10.257  10.724  0.8697 -0.7788 -0.1212
  290MOL0     C39072   4.197  10.163  10.630 -0.0703 -0.2170  0.5596
  290MOL0     O39073   4.150  10.045  10.684  0.2393  0.0269 -0.8721
  290MOL0     C39074   4.149   9.929  10.607  0.8582 -0.4191 -0.5988
  290MOL0     C39075   4.018   9.907  10.533  0.1264 -0.4777 -0.0595
  290MOL0     C39076   3.899   9.864  10.618  0.2596  0.3801  0.0447
  290MOL0     C39077   3.760   9.870  10.553  0.7889  0.0362  0.6781
  290MOL0     C39078   3.663   9.786  10.620 -1.0512 -0.7366  0.5612
  290MOL0     C39079   3.578   9.709  10.670 -0.0349 -0.9206 -0.9956
  290MOL0     C39080   4.193  10.196  10.494  0.2693  0.0184  0.2541
  290MOL0     C39081   4.232  10.319  10.454 -0.3588 -1.1482  0.5608
  290MOL0     C39082   4.214  10.349  10.300  0.4527  0.3136 -0.1777
  290MOL0     H39083   4.164  10.836  10.386 -0.5378 -1.3468 -4.5756
  290MOL0     H39084   4.278  11.068  10.386  0.8636  0.2252  1.0009
  290MOL0     H39085   4.687  11.078  10.217  0.4032  0.3520  0.2457
  290MOL0     H39086   4.554  11.134  10.129  1.5089 -0.5710 -0.6965
  290MOL0     H39087   4.677  11.307  10.108  0.1458 -1.0173  0.3633
  290MOL0     H39088   4.722  11.342  10.271  1.7532  2.0161 -1.8185
  290MOL0     H39089   4.422  11.339  10.239 -1.1524  1.0512 -2.3865
  290MOL0     H39090   4.513  11.475  10.178 -1.9709  0.9581  1.9560
  290MOL0     H39091   4.563  11.379  10.475  0.5615  2.6516  1.9684
  290MOL0     H39092   4.634  11.502  10.392  2.2856 -4.4686  2.5682
  290MOL0     H39093   4.384  11.593  10.364  2.4710  0.0670 -0.2144
  290MOL0     H39094   4.347  11.468  10.483  0.1080 -1.9707 -2.4626
  290MOL0     H39095   4.492  11.577  10.652 -0.9202  2.4053  0.9747
  290MOL0     H39096   4.549  11.686  10.514 -0.6331  1.4784 -1.2879
  290MOL0     H39097   4.270  11.673  10.614 -2.1321  1.8465 -3.3331
  290MOL0     H39098   4.339  11.799  10.503 -1.8838 -1.6906 -0.4084
  290MOL0     H39099   4.512  11.824  10.706  1.1123 -3.5384 -2.1580
  290MOL0     H39100   4.357  11.915  10.688 -1.4471 -0.5363  0.3802
  290MOL0     H39101   4.525  11.701  10.954  1.0715 -1.0762 -2.3185
  290MOL0     H39102   4.458  11.634  11.195  0.8497  0.6489 -4.1187
  290MOL0     H39103   4.383  11.768  11.248  1.0585 -0.5331  0.3178
  290MOL0     H39104   4.255  11.604  11.351  0.3907  0.3735  0.2660
  290MOL0     H39105   4.137  11.660  11.228  0.5277 -0.3058 -0.3983
  290MOL0     H39106   4.231  11.479  11.073  3.7152 -1.4528  0.2908
  290MOL0     H39107   4.136  11.406  11.200 -1.8780  1.6383 -2.1786
  290MOL0     H39108   4.367  11.389  11.325  2.5480  1.5317  0.2333
  290MOL0     H39109   4.449  11.419  11.171  0.1530 -0.3084 -0.0646
  290MOL0     H39110   4.554  11.265  11.362  1.8469 -1.9439  1.4760
  290MOL0     H39111   4.695  11.075  11.418 -0.6739 -2.4168  0.4111
  290MOL0     H39112   4.572  10.502  11.380 -0.3105  1.7940 -1.5396
  290MOL0     H39113   4.668  10.272  11.408 -0.0799 -0.8704  0.0276
  290MOL0     H39114   4.763  10.084  11.296  0.5156 -1.1413  0.6359
  290MOL0     H39115   4.839  10.138  11.140  1.5552  0.5322 -1.1158
  290MOL0     H39116   4.904   9.889  11.209  1.8495  0.0666 -2.6313
  290MOL0     H39117   5.038  10.005  11.176 -0.6208  2.8469  0.3313
  290MOL0     H39118   5.073  10.062  11.413 -3.5160  2.4586  0.7276
  290MOL0     H39119   4.940   9.968  11.462  0.3590  1.6124  0.2854
  290MOL0     H39120   5.165   9.844  11.301  2.6361 -0.0448  2.0732
  290MOL0     H39121   5.032   9.766  11.401  1.2486 -1.5991  0.0918
  290MOL0     H39122   5.113   9.844  11.599 -0.3322  0.7380 -0.2834
  290MOL0     H39123   5.233   9.953  11.537  1.5894 -1.7876 -1.0346
  290MOL0     H39124   5.243   9.649  11.516  0.0814 -0.2968 -2.5146
  290MOL0     H39125   5.359   9.763  11.447 -2.1704 -0.9744 -2.0922
  290MOL0     H39126   5.280   9.783  11.738  0.1055 -2.2344  1.6856
  290MOL0     H39127   5.413   9.861  11.675  0.6862  0.2100 -2.2929
  290MOL0     H39128   5.492   9.641  11.795 -0.7083  1.9899  0.3636
  290MOL0     H39129   5.380   9.549  11.695 -0.2179  0.1690  1.4076
  290MOL0     H39130   5.016  10.423  11.192  1.7102 -0.7731  1.9705
  290MOL0     H39131   4.905  10.647  11.186  2.7994 -1.5455 -0.9341
  290MOL0     H39132   4.509  10.843  11.115 -0.0743 -1.1800  1.0637
  290MOL0     H39133   4.340  11.011  11.078  0.4695  0.6285 -0.5507
  290MOL0     H39134   4.648  10.887  10.297 -0.0803  3.4995  0.1194
  290MOL0     H39135   4.553  10.664  10.333  0.4483 -0.2440 -0.7959
  290MOL0     H39136   4.307  10.440  10.772  1.4130  0.8182 -1.7537
  290MOL0     H39137   4.230  10.242  10.831  0.1870  2.2485  0.3612
  290MOL0     H39138   4.160   9.846  10.678 -0.3259  1.9655  2.6039
  290MOL0     H39139   4.227   9.934  10.531  1.2022  2.3498 -0.1668
  290MOL0     H39140   4.040   9.845  10.446  0.3080  0.6042 -0.8124
  290MOL0     H39141   3.975   9.998  10.488  0.6896  0.8582  1.9785
  290MOL0     H39142   3.891   9.937  10.699 -1.3819  1.8509 -1.3388
  290MOL0     H39143   3.920   9.764  10.656  1.2672  0.3141 -0.6402
  290MOL0     H39144   3.733   9.975  10.561  0.7853  0.6518 -4.3295
  290MOL0     H39145   3.754   9.837  10.449  1.9856 -2.1900  1.2480
  290MOL0     H39146   3.526   9.634  10.725 -1.4195 -0.2888 -1.3897
  290MOL0     H39147   4.149  10.132  10.418  0.3738 -0.4879  0.6197
  290MOL0     H39148   4.314  10.369  10.261  0.3944  1.6251  0.2903
  290MOL0     H39149   4.179  10.253  10.261  0.8031  0.0207  0.2052
  290MOL0     H39150   4.138  10.427  10.289 -0.3039 -0.1918  1.2058
  291MOL0     O39151   2.848   8.493   4.188  0.1325 -0.7920  0.0235
  291MOL0     C39152   2.743   8.485   4.252 -0.7895  0.4869 -0.5069
  291MOL0     O39153   2.617   8.471   4.194 -0.4100 -0.1116  1.3099
  291MOL0     C39154   2.618   8.437   4.059 -0.1366  0.1632 -0.0597
  291MOL0     C39155   2.556   8.321   4.015 -0.0932  0.6137 -0.8050
  291MOL0     C39156   2.545   8.290   3.873  0.1161  0.8555  0.0961
  291MOL0     C39157   2.588   8.385   3.778 -0.1885 -0.2897  0.5526
  291MOL0     O39158   2.586   8.372   3.641 -0.4074 -0.3705 -0.0484
  291MOL0     C39159   2.592   8.242   3.581  0.6106  0.2083 -0.6237
  291MOL0     C39160   2.611   8.250   3.432 -0.4989 -0.3089 -0.0172
  291MOL0     C39161   2.565   8.122   3.363 -0.6022 -0.0294  0.3435
  291MOL0     C39162   2.606   8.118   3.216  0.3642  0.6131  0.7716
  291MOL0     C39163   2.576   7.990   3.151 -0.1449 -0.0537 -0.2237
  291MOL0     C39164   2.648   7.980   3.009  0.3493  0.4688  0.5490
  291MOL0     C39165   2.642   7.833   2.963  0.2330  0.4180  0.5889
  291MOL0     C39166   2.728   7.826   2.839 -0.3234  0.3440  0.3272
  291MOL0     N39167   2.644   7.824   2.708 -0.0515  0.3249 -0.3163
  291MOL0     C39168   2.596   7.933   2.642  0.3415  0.0994  0.7307
  291MOL0     C39169   2.500   7.892   2.560 -0.1281  0.2450 -0.5922
  291MOL0     C39170   2.426   7.959   2.454  0.0207  0.3933 -1.0734
  291MOL0     C39171   2.507   7.983   2.331 -0.3297 -0.4648 -0.7515
  291MOL0     C39172   2.427   8.064   2.227  0.4894  0.4366  0.0171
  291MOL0     C39173   2.479   8.049   2.085  0.0009 -0.2732  0.0845
  291MOL0     O39174   2.617   8.070   2.086  0.6664 -0.0259  0.5090
  291MOL0     C39175   2.688   8.101   1.972 -0.5112  0.1545 -0.1570
  291MOL0     C39176   2.645   8.112   1.842  0.9211  0.4421  0.1287
  291MOL0     C39177   2.730   8.176   1.747  0.0958 -0.5258 -1.0315
  291MOL0     C39178   2.861   8.204   1.781  0.4452  0.1220  0.6855
  291MOL0     C39179   2.949   8.275   1.676  1.1261  0.4816 -0.4961
  291MOL0     O39180   2.888   8.337   1.575 -0.4827  0.0687 -1.1419
  291MOL0     C39181   2.952   8.431   1.499  0.6894  0.6618  0.8008
  291MOL0     C39182   3.087   8.416   1.450  0.0173  0.4371 -0.2459
  291MOL0     C39183   3.132   8.525   1.372 -0.2903 -0.3964 -0.3261
  291MOL0     C39184   3.056   8.646   1.345  0.6911  0.5755  0.5303
  291MOL0     O39185   3.111   8.752   1.275 -0.2530 -0.4416  0.2495
  291MOL0     C39186   3.121   8.727   1.131 -0.1726 -0.0802  0.1372
  291MOL0     C39187   3.010   8.802   1.051 -0.9294 -0.6872 -0.1138
  291MOL0     C39188   3.053   8.817   0.903  0.0672 -0.1460 -0.5364
  291MOL0     C39189   2.946   8.895   0.820  0.0156 -0.3209 -0.9397
  291MOL0     C39190   2.943   9.043   0.854 -0.1088  0.4776 -0.5450
  291MOL0     C39191   3.069   9.132   0.849  0.1448 -0.3507 -0.3496
  291MOL0     C39192   3.032   9.275   0.882 -0.4107 -0.2016 -0.3417
  291MOL0     C39193   3.162   9.353   0.913  0.0179  0.1071 -0.2993
  291MOL0    Cl39194   3.245   9.278   1.047 -0.4402  0.0020 -0.4337
  291MOL0     C39195   2.934   8.659   1.405  0.5316  0.1400  0.1786
  291MOL0     C39196   2.880   8.552   1.474 -0.2109  0.1032  0.1275
  291MOL0     O39197   3.066   8.286   1.710  0.2025  0.7751  0.3998
  291MOL0     C39198   2.911   8.173   1.906 -0.8721 -0.1719 -0.0176
  291MOL0     C39199   2.826   8.123   2.005  0.1224 -0.3250 -0.1882
  291MOL0     N39200   2.500   7.753   2.569  0.2730  0.2590  0.3737
  291MOL0     N39201   2.573   7.716   2.655  0.0337  0.8855 -0.1541
  291MOL0     C39202   2.645   8.506   3.832  0.3574  0.4394  0.0785
  291MOL0     C39203   2.662   8.530   3.966 -0.3720  0.0467  0.3552
  291MOL0     C39204   2.748   8.491   4.403  0.0912 -0.4116 -0.5633
  291MOL0     C39205   2.694   8.387   4.474 -0.0291  0.3514 -0.3487
  291MOL0     C39206   2.683   8.390   4.616 -0.1628 -0.2835 -0.0606
  291MOL0     C39207   2.735   8.497   4.691  0.6834  0.0246 -0.0809
  291MOL0     O39208   2.734   8.510   4.829 -0.1532 -0.2558  0.0081
  291MOL0     C39209   2.854   8.460   4.888  0.2764  0.4221  0.0444
  291MOL0     C39210   2.822   8.313   4.929  0.6111  0.0683 -1.1519
  291MOL0     C39211   2.907   8.261   5.045  0.1332  1.5393  0.2754
  291MOL0     C39212   3.022   8.159   5.002  0.2915 -0.6899  0.8064
  291MOL0     C39213   3.115   8.210   4.889 -0.5424  0.8501 -0.3794
  291MOL0     C39214   3.195   8.256   4.819 -0.1602  0.6940  0.2776
  291MOL0     C39215   2.805   8.598   4.619 -0.2156  0.3981  0.3165
  291MOL0     C39216   2.803   8.593   4.479 -0.1510 -0.5691  0.0502
  291MOL0     C39217   2.866   8.717   4.413 -0.6750  0.2619  0.3999
  291MOL0     H39218   2.541   8.235   4.080 -0.1727  0.8887 -0.4541
  291MOL0     H39219   2.491   8.199   3.850  1.0762 -0.4620  2.6613
  291MOL0     H39220   2.677   8.180   3.614 -1.5902 -2.3168  0.7283
  291MOL0     H39221   2.496   8.194   3.604  1.0255 -0.5185 -0.3630
  291MOL0     H39222   2.716   8.266   3.410 -0.0654 -0.1111  1.9686
  291MOL0     H39223   2.547   8.330   3.393  2.4953  0.7696 -3.2237
  291MOL0     H39224   2.456   8.116   3.375 -1.0582  3.0714 -1.2362
  291MOL0     H39225   2.611   8.033   3.408 -0.8902 -0.2765  0.1527
  291MOL0     H39226   2.551   8.203   3.173 -1.1191  0.6389  2.5968
  291MOL0     H39227   2.712   8.137   3.203 -0.0626  2.1740 -0.8251
  291MOL0     H39228   2.617   7.910   3.213  1.8345 -0.2649 -1.6884
  291MOL0     H39229   2.468   7.975   3.145 -0.0010 -0.5499 -2.5062
  291MOL0     H39230   2.601   8.045   2.934 -1.2805  0.6678  1.6840
  291MOL0     H39231   2.753   8.005   3.024  1.3963 -2.8033 -0.5443
  291MOL0     H39232   2.540   7.809   2.929  1.1432 -0.6922 -1.5469
  291MOL0     H39233   2.675   7.768   3.044 -0.4567  2.7289  2.8622
  291MOL0     H39234   2.794   7.912   2.822 -0.6966  0.0989 -2.9256
  291MOL0     H39235   2.791   7.737   2.846 -0.6663  0.1192  0.5843
  291MOL0     H39236   2.629   8.035   2.659 -0.0536  0.6521 -1.6089
  291MOL0     H39237   2.336   7.900   2.434  0.0400 -0.1269  0.3176
  291MOL0     H39238   2.402   8.053   2.503  1.2684  0.6592 -0.9364
  291MOL0     H39239   2.596   8.042   2.356 -0.4618 -1.8514  3.9619
  291MOL0     H39240   2.540   7.888   2.288  2.0891 -0.5867  1.1231
  291MOL0     H39241   2.413   8.171   2.242 -6.7656  0.1791 -1.1375
  291MOL0     H39242   2.326   8.023   2.233  0.9083 -0.3895  2.9257
  291MOL0     H39243   2.429   8.113   2.012  1.4636  0.1738 -0.5825
  291MOL0     H39244   2.454   7.949   2.050  0.2653 -0.4629  0.4322
  291MOL0     H39245   2.539   8.095   1.826  0.8572  0.4116  0.5493
  291MOL0     H39246   2.687   8.192   1.649 -0.2971 -0.8114 -0.9151
  291MOL0     H39247   3.145   8.328   1.473  0.3896 -0.2311 -3.3261
  291MOL0     H39248   3.230   8.524   1.327 -1.8859 -0.8881 -4.1439
  291MOL0     H39249   3.221   8.758   1.099 -0.1645 -1.1160 -0.9135
  291MOL0     H39250   3.114   8.620   1.111 -0.5289 -0.4247  1.9109
  291MOL0     H39251   2.912   8.755   1.061 -1.5565  0.4952 -0.6278
  291MOL0     H39252   3.007   8.907   1.082 -0.5682 -0.7904  0.2869
  291MOL0     H39253   3.142   8.880   0.905 -1.9133  2.8438  0.2208
  291MOL0     H39254   3.093   8.726   0.859 -0.0078  0.1577 -1.2342
  291MOL0     H39255   2.848   8.849   0.830 -0.8532  1.9876  3.0367
  291MOL0     H39256   2.982   8.880   0.717  2.9964 -1.2450  0.1405
  291MOL0     H39257   2.900   9.062   0.953  0.4089  3.9859 -0.8968
  291MOL0     H39258   2.875   9.083   0.778  0.5926 -0.0486 -1.4752
  291MOL0     H39259   3.121   9.093   0.937 -0.8321  0.9684  0.8616
  291MOL0     H39260   3.132   9.127   0.760 -0.1869 -0.3445 -0.5819
  291MOL0     H39261   2.970   9.274   0.972  2.9225  0.1960  2.1698
  291MOL0     H39262   2.986   9.316   0.792  1.0700  3.0344  0.2126
  291MOL0     H39263   3.231   9.369   0.829  2.2561  0.3449  1.4695
  291MOL0     H39264   3.139   9.457   0.936 -2.8772  0.2154 -3.0019
  291MOL0     H39265   2.881   8.747   1.368  3.1024  1.3089 -0.9330
  291MOL0     H39266   2.775   8.557   1.503 -0.9402 -0.1704 -2.2689
  291MOL0     H39267   3.017   8.175   1.929 -0.0836  2.4009 -3.1808
  291MOL0     H39268   2.849   8.096   2.108  0.0606 -0.8912 -0.3173
  291MOL0     H39269   2.667   8.583   3.759  0.8862 -0.7556 -1.0657
  291MOL0     H39270   2.700   8.628   3.993  3.2681 -0.7205 -1.3400
  291MOL0     H39271   2.647   8.303   4.426  0.1472 -0.7607  1.3378
  291MOL0     H39272   2.617   8.322   4.669 -1.8036  0.4115 -1.1594
  291MOL0     H39273   2.869   8.531   4.969 -2.3275  0.2693  0.7547
  291MOL0     H39274   2.936   8.457   4.815 -0.9880 -4.0673 -1.5543
  291MOL0     H39275   2.838   8.232   4.857 -1.0630 -1.1598 -0.2220
  291MOL0     H39276   2.715   8.310   4.953  0.2449  1.3631 -2.4882
  291MOL0     H39277   2.847   8.209   5.121 -1.7527  1.6675 -1.0524
  291MOL0     H39278   2.962   8.340   5.097  1.3507  2.6009 -2.4342
  291MOL0     H39279   3.093   8.128   5.080 -1.1458  0.8816  2.8502
  291MOL0     H39280   2.963   8.070   4.979  1.1717 -1.6366  2.0265
  291MOL0     H39281   3.272   8.294   4.755 -0.8695 -2.8274 -3.0964
  291MOL0     H39282   2.866   8.672   4.669  0.7847 -1.0905  1.3847
  291MOL0     H39283   2.845   8.810   4.467  1.0030  2.0169 -1.7677
  291MOL0     H39284   2.971   8.685   4.412 -0.9765 -0.9251  2.1674
  291MOL0     H39285   2.840   8.712   4.307  4.4925 -0.4056 -1.1436
  292MOL0     O39286   6.089   0.542   6.543 -0.2535  0.6610  0.1841
  292MOL0     C39287   6.080   0.518   6.667  0.0780  0.6616  0.2627
  292MOL0     O39288   6.033   0.611   6.757  0.5137 -0.2973 -0.2334
  292MOL0     C39289   6.028   0.742   6.727  0.4058  0.2415 -0.2350
  292MOL0     C39290   5.898   0.800   6.699 -1.0914 -0.3669 -0.3670
  292MOL0     C39291   5.887   0.931   6.667 -0.1410 -0.4760  0.5802
  292MOL0     C39292   5.993   1.014   6.639 -1.3027 -0.5335 -0.2784
  292MOL0     O39293   5.974   1.144   6.599 -0.1221 -0.3614 -0.0481
  292MOL0     C39294   6.073   1.214   6.517 -0.3964 -0.2705 -0.4511
  292MOL0     C39295   6.003   1.281   6.403 -0.5606 -0.0314  0.1860
  292MOL0     C39296   6.033   1.220   6.268  0.2260 -0.5646  1.1262
  292MOL0     C39297   6.176   1.218   6.228 -0.0699 -0.7558  0.8531
  292MOL0     C39298   6.206   1.161   6.090  0.8214  0.5461 -0.3847
  292MOL0     C39299   6.349   1.207   6.039 -0.3640 -0.6825 -0.3429
  292MOL0     C39300   6.473   1.170   6.122  0.4227  0.1793 -0.6830
  292MOL0     C39301   6.606   1.222   6.049 -0.7556  0.3548  0.5160
  292MOL0     N39302   6.719   1.183   6.123  0.6600  0.3180 -0.1654
  292MOL0     C39303   6.741   1.209   6.252 -0.9602  1.0347 -0.2086
  292MOL0     C39304   6.841   1.131   6.287 -0.6994  0.2951 -0.3605
  292MOL0     C39305   6.899   1.126   6.426  0.4745  0.3865 -0.0544
  292MOL0     C39306   6.792   1.107   6.535  0.3807 -0.7701 -0.5981
  292MOL0     C39307   6.692   0.997   6.508  0.9084 -0.4648  0.9652
  292MOL0     C39308   6.598   0.976   6.623  0.0730  0.0903 -0.1553
  292MOL0     O39309   6.665   0.955   6.756  0.3180 -0.2059  0.6239
  292MOL0     C39310   6.588   0.881   6.841 -0.2361  0.1719 -0.1621
  292MOL0     C39311   6.480   0.942   6.912 -0.6234  0.0439 -0.4260
  292MOL0     C39312   6.398   0.867   7.003  0.0807 -0.1135  0.9982
  292MOL0     C39313   6.430   0.733   7.024  0.1892 -0.9252  0.8034
  292MOL0     C39314   6.362   0.658   7.143  1.2688  0.5923 -0.9145
  292MOL0     O39315   6.356   0.520   7.128 -0.2423  0.1620  0.3845
  292MOL0     C39316   6.265   0.442   7.193 -0.9904  0.1161 -0.8441
  292MOL0     C39317   6.302   0.312   7.244  0.8011  0.5035 -0.5547
  292MOL0     C39318   6.203   0.223   7.303 -0.1721  0.5980  0.1299
  292MOL0     C39319   6.070   0.255   7.300  0.3600 -0.0063 -1.0831
  292MOL0     O39320   5.979   0.172   7.359 -0.0074 -0.0211 -0.4315
  292MOL0     C39321   5.839   0.179   7.321 -0.6639 -0.6726 -0.1845
  292MOL0     C39322   5.761   0.057   7.375  0.0156 -0.9461 -0.5914
  292MOL0     C39323   5.609   0.076   7.349  0.2706 -0.3775  0.2370
  292MOL0     C39324   5.533  -0.065   7.337  0.1104  1.2132  0.0184
  292MOL0     C39325   5.550  -0.141   7.198  0.3415  0.1946 -1.1431
  292MOL0     C39326   5.478  -0.070   7.088 -1.2772 -0.3293 -0.1802
  292MOL0     C39327   5.459  -0.162   6.967  0.5552  0.3625  0.0204
  292MOL0     C39328   5.367  -0.102   6.866 -0.5337  0.1099 -0.0478
  292MOL0    Cl39329   5.412   0.075   6.836 -0.3363  0.1677  0.0707
  292MOL0     C39330   6.033   0.381   7.254  0.5977  0.0637  0.0907
  292MOL0     C39331   6.130   0.469   7.204  0.4091  0.6217 -0.9799
  292MOL0     O39332   6.309   0.716   7.234 -0.3040  0.6125 -0.4619
  292MOL0     C39333   6.531   0.670   6.937 -0.1939 -0.3366 -0.6351
  292MOL0     C39334   6.606   0.749   6.846  1.0028 -0.6134 -0.2448
  292MOL0     N39335   6.875   1.053   6.179 -0.8590 -0.1161 -0.3125
  292MOL0     N39336   6.801   1.078   6.073 -0.3675 -0.7323 -0.0702
  292MOL0     C39337   6.123   0.962   6.672  0.7228  0.2053  0.3707
  292MOL0     C39338   6.135   0.824   6.709 -0.0095 -0.8175  0.3492
  292MOL0     C39339   6.138   0.387   6.713 -0.3036 -0.3586 -0.5786
  292MOL0     C39340   6.118   0.350   6.850 -0.9529  0.1604 -0.3442
  292MOL0     C39341   6.186   0.235   6.907  0.6566  0.0220 -0.2287
  292MOL0     C39342   6.262   0.152   6.821 -0.2503  0.3273 -1.0366
  292MOL0     O39343   6.300   0.030   6.877 -0.3991 -0.5249  0.6221
  292MOL0     C39344   6.199  -0.074   6.889  0.3128  0.6838  0.0599
  292MOL0     C39345   6.250  -0.216   6.850  0.1604  0.6034  0.6766
  292MOL0     C39346   6.327  -0.294   6.966 -0.1781  0.2517  0.5126
  292MOL0     C39347   6.413  -0.405   6.911 -0.9574 -0.5321 -0.4723
  292MOL0     C39348   6.349  -0.489   6.804 -0.3996  0.4001 -0.7619
  292MOL0     C39349   6.323  -0.541   6.698  0.1481  0.1850  0.7291
  292MOL0     C39350   6.271   0.184   6.682 -1.1997  0.1782 -0.9218
  292MOL0     C39351   6.208   0.297   6.626 -0.0713  0.1196 -0.1165
  292MOL0     C39352   6.211   0.310   6.478  0.0456 -0.6177  0.4190
  292MOL0     H39353   5.814   0.732   6.691 -0.9162 -0.6620  0.2670
  292MOL0     H39354   5.790   0.975   6.651 -0.6551 -0.4066  3.3526
  292MOL0     H39355   6.123   1.291   6.576 -1.4967  0.5123 -0.5077
  292MOL0     H39356   6.148   1.139   6.490  0.4429 -1.2541  3.9284
  292MOL0     H39357   6.042   1.384   6.403 -4.5722  1.8027  3.6048
  292MOL0     H39358   5.898   1.305   6.419 -1.1921 -0.1497 -3.0620
  292MOL0     H39359   5.992   1.289   6.193 -1.9425 -1.9971  0.9270
  292MOL0     H39360   5.992   1.121   6.246  0.1717 -0.1560 -0.8240
  292MOL0     H39361   6.204   1.324   6.233 -2.0137 -0.0440 -1.4462
  292MOL0     H39362   6.229   1.154   6.298  2.2025  1.3234  1.1645
  292MOL0     H39363   6.202   1.051   6.091  0.0304  0.4802 -3.0792
  292MOL0     H39364   6.127   1.192   6.022  0.2459  0.7564  0.3665
  292MOL0     H39365   6.359   1.169   5.937  0.1221  0.8356 -0.8726
  292MOL0     H39366   6.335   1.314   6.026 -0.0915 -0.2088  2.5951
  292MOL0     H39367   6.491   1.063   6.133  2.1014  0.4899 -0.0434
  292MOL0     H39368   6.459   1.208   6.224 -2.1457 -4.0848  0.8216
  292MOL0     H39369   6.613   1.184   5.947 -3.0699 -0.1603  0.5009
  292MOL0     H39370   6.595   1.330   6.038  0.4350  0.2673 -2.3940
  292MOL0     H39371   6.686   1.279   6.314  1.7745  1.3827  2.0442
  292MOL0     H39372   6.964   1.038   6.430  0.0343  0.1009  1.5840
  292MOL0     H39373   6.958   1.216   6.444 -3.8922  4.0623 -2.1095
  292MOL0     H39374   6.838   1.102   6.634 -0.2339  0.5557 -0.2103
  292MOL0     H39375   6.737   1.202   6.537  0.2068 -0.7162 -3.8191
  292MOL0     H39376   6.759   0.911   6.492  3.0883  0.9013  2.2312
  292MOL0     H39377   6.636   1.020   6.417 -0.2932  0.5757  1.9367
  292MOL0     H39378   6.527   0.894   6.608 -1.3402  1.1349  0.6139
  292MOL0     H39379   6.546   1.071   6.630 -2.3006 -1.0955 -0.6214
  292MOL0     H39380   6.457   1.047   6.896 -3.3520 -0.4262 -0.1313
  292MOL0     H39381   6.304   0.915   7.031  0.4144 -0.6079  3.1490
  292MOL0     H39382   6.400   0.269   7.230  1.9117  2.1921  1.4400
  292MOL0     H39383   6.228   0.124   7.340  0.3345 -0.4051 -2.6995
  292MOL0     H39384   5.795   0.271   7.359 -0.6522 -0.7580  0.0404
  292MOL0     H39385   5.826   0.181   7.212  1.6689  0.6644 -0.4910
  292MOL0     H39386   5.781  -0.028   7.309  1.7736  0.4665 -1.9609
  292MOL0     H39387   5.784   0.033   7.479 -1.4725  0.1009  0.0236
  292MOL0     H39388   5.567   0.123   7.438 -0.3075 -1.7350  0.7114
  292MOL0     H39389   5.597   0.141   7.262  3.5674 -1.0291 -0.8430
  292MOL0     H39390   5.426  -0.050   7.353  0.0420  0.2169  0.5704
  292MOL0     H39391   5.564  -0.132   7.417  1.3233  2.4907  0.6627
  292MOL0     H39392   5.503  -0.238   7.212  2.2346 -0.2492  5.7610
  292MOL0     H39393   5.653  -0.162   7.168  0.8842 -0.7674  1.2115
  292MOL0     H39394   5.382  -0.031   7.124 -1.4413  0.5429 -1.4671
  292MOL0     H39395   5.537   0.019   7.063 -0.8132  0.2734  2.7423
  292MOL0     H39396   5.422  -0.260   6.999  0.1988  1.1548  2.2413
  292MOL0     H39397   5.551  -0.192   6.915  0.4930 -2.0326  1.1326
  292MOL0     H39398   5.366  -0.146   6.766 -3.5104 -2.8226  1.0998
  292MOL0     H39399   5.270  -0.108   6.915 -0.2345  2.5877  0.9774
  292MOL0     H39400   5.929   0.410   7.246  0.1306 -0.5020  2.9723
  292MOL0     H39401   6.100   0.565   7.163  0.9826  0.5326 -1.6338
  292MOL0     H39402   6.564   0.567   6.947  1.2913  0.2119  0.3236
  292MOL0     H39403   6.679   0.699   6.783  1.3246 -0.9835  0.4143
  292MOL0     H39404   6.208   1.030   6.674 -0.9803  2.4558 -0.0210
  292MOL0     H39405   6.233   0.782   6.726  1.2189  0.4279 -2.8190
  292MOL0     H39406   6.050   0.411   6.908 -1.9662 -1.3640  0.1370
  292MOL0     H39407   6.157   0.203   7.006  0.5663 -2.1176 -0.8909
  292MOL0     H39408   6.113  -0.067   6.821 -1.5458 -2.8831  1.7706
  292MOL0     H39409   6.146  -0.081   6.984 -2.0215  2.7902 -0.9559
  292MOL0     H39410   6.311  -0.213   6.760  0.3610 -3.6746  0.4616
  292MOL0     H39411   6.163  -0.279   6.829 -0.1657  0.5342  2.1022
  292MOL0     H39412   6.252  -0.338   7.033 -0.4375 -0.5999 -0.3116
  292MOL0     H39413   6.393  -0.236   7.031 -0.8265  4.3686 -2.1766
  292MOL0     H39414   6.505  -0.358   6.876 -0.8155  0.5416  1.2339
  292MOL0     H39415   6.451  -0.469   6.991 -0.7782 -0.7418 -0.7252
  292MOL0     H39416   6.273  -0.580   6.611  0.6357  2.4778 -0.6773
  292MOL0     H39417   6.320   0.112   6.616 -0.7656 -2.6536  2.2242
  292MOL0     H39418   6.110   0.310   6.436  0.7574  0.8373 -1.4594
  292MOL0     H39419   6.261   0.404   6.455 -4.7353  1.8309 -1.0658
  292MOL0     H39420   6.266   0.228   6.431 -1.5772 -1.1092 -0.6988
  293MOL0     O39421   3.818   6.935   8.087  0.5127  0.0593  0.5293
  293MOL0     C39422   3.805   6.995   7.979 -0.4633  0.3141 -0.3528
  293MOL0     O39423   3.870   7.105   7.955 -0.1991 -0.2307  0.3087
  293MOL0     C39424   3.944   7.180   8.049  0.2498 -0.2431  0.2532
  293MOL0     C39425   4.070   7.215   8.012 -0.3858 -0.6019 -0.6428
  293MOL0     C39426   4.151   7.281   8.104  0.3031  1.0976  0.5540
  293MOL0     C39427   4.117   7.289   8.238 -0.2823 -0.0548  0.3427
  293MOL0     O39428   4.199   7.360   8.317  0.3259  0.3905  0.0120
  293MOL0     C39429   4.129   7.438   8.409  0.7750 -0.1914  0.2573
  293MOL0     C39430   4.232   7.536   8.461  0.3028  0.4390 -0.1197
  293MOL0     C39431   4.170   7.670   8.508 -0.3247 -0.4147 -0.1168
  293MOL0     C39432   4.276   7.754   8.566 -0.5187 -0.5826  0.0495
  293MOL0     C39433   4.225   7.890   8.594  0.4739  0.1187 -0.1405
  293MOL0     C39434   4.340   7.993   8.608  0.2742  0.5749  0.9146
  293MOL0     C39435   4.344   8.067   8.740  1.0957 -0.6572  1.6773
  293MOL0     C39436   4.453   8.167   8.752 -0.5881  0.7066 -0.0068
  293MOL0     N39437   4.398   8.298   8.794 -0.6105  0.6428 -0.1588
  293MOL0     C39438   4.317   8.369   8.712 -0.0446 -0.8333  0.3577
  293MOL0     C39439   4.300   8.484   8.790  0.2224  0.1171  0.7469
  293MOL0     C39440   4.229   8.614   8.745 -0.3986  0.6989 -0.5689
  293MOL0     C39441   4.107   8.568   8.667 -0.3424 -0.0468  0.4530
  293MOL0     C39442   3.992   8.673   8.678  1.1225  0.5708  0.1214
  293MOL0     C39443   4.018   8.817   8.616  0.7903  0.2907 -0.6766
  293MOL0     O39444   4.143   8.868   8.660 -0.4633  0.1905  0.1945
  293MOL0     C39445   4.180   9.006   8.635  1.2783  0.8861  0.0742
  293MOL0     C39446   4.307   9.049   8.676 -0.2409  0.4006 -0.1874
  293MOL0     C39447   4.346   9.176   8.669 -0.3966 -0.8674 -0.0894
  293MOL0     C39448   4.270   9.270   8.602  0.3602 -0.1670  0.3499
  293MOL0     C39449   4.330   9.406   8.572  0.1014 -0.1211  0.2457
  293MOL0     O39450   4.243   9.495   8.508 -0.6847  0.5710  0.2458
  293MOL0     C39451   4.279   9.625   8.509  0.6766 -0.6389  0.0247
  293MOL0     C39452   4.381   9.674   8.432  0.0220 -0.3025 -0.0309
  293MOL0     C39453   4.420   9.805   8.442  0.5688  0.2144 -0.5051
  293MOL0     C39454   4.350   9.899   8.525  0.6118 -0.4766  0.4843
  293MOL0     O39455   4.369  10.033   8.543  0.4257 -0.0825  0.2389
  293MOL0     C39456   4.443  10.107   8.445 -0.0457  0.9728  0.0885
  293MOL0     C39457   4.584  10.141   8.504 -0.1670  0.0387  0.1353
  293MOL0     C39458   4.666  10.229   8.406  0.2895 -0.2466 -0.7546
  293MOL0     C39459   4.607  10.369   8.385 -0.5459 -0.7947 -0.1124
  293MOL0     C39460   4.718  10.449   8.322 -0.4919 -0.4717 -0.5110
  293MOL0     C39461   4.778  10.392   8.192  0.5105 -0.2066 -0.2123
  293MOL0     C39462   4.885  10.491   8.131  0.0096  0.1100 -0.5082
  293MOL0     C39463   4.952  10.433   8.006 -0.2467  0.7460  0.0294
  293MOL0    Cl39464   4.822  10.368   7.891 -0.2896  0.0108  0.1369
  293MOL0     C39465   4.231   9.848   8.578  0.3803 -0.2286  0.5403
  293MOL0     C39466   4.193   9.716   8.574 -0.2134 -0.5300 -0.2210
  293MOL0     O39467   4.443   9.429   8.596 -0.2799 -1.0478 -0.9724
  293MOL0     C39468   4.143   9.231   8.558  0.6961 -0.3624 -0.1907
  293MOL0     C39469   4.101   9.097   8.573  0.3305 -1.5436  0.4333
  293MOL0     N39470   4.366   8.472   8.907 -0.1627  0.1211 -0.2994
  293MOL0     N39471   4.423   8.362   8.912  0.0141  0.4118  0.4197
  293MOL0     C39472   3.990   7.239   8.274 -0.6404  0.5101 -0.0579
  293MOL0     C39473   3.896   7.192   8.176 -0.3315  0.5527 -0.1372
  293MOL0     C39474   3.706   6.954   7.883  0.4094 -0.0881  0.4057
  293MOL0     C39475   3.680   6.815   7.887  1.0224 -0.4899  0.0127
  293MOL0     C39476   3.567   6.771   7.811  0.5130  1.2719 -0.3858
  293MOL0     C39477   3.515   6.852   7.713 -1.3287  0.0324 -0.2459
  293MOL0     O39478   3.413   6.806   7.647  0.6048  0.8504  0.5451
  293MOL0     C39479   3.438   6.763   7.510 -0.1572  0.8671  0.2088
  293MOL0     C39480   3.371   6.622   7.495 -0.3082 -0.3323  0.7019
  293MOL0     C39481   3.216   6.632   7.488 -0.7645  0.2228  0.0434
  293MOL0     C39482   3.189   6.493   7.430  0.3865  0.0735 -0.4913
  293MOL0     C39483   3.052   6.452   7.409 -0.9222 -0.7261 -0.7184
  293MOL0     C39484   2.933   6.433   7.394 -0.5186  0.3094  0.2177
  293MOL0     C39485   3.544   6.991   7.709 -0.3555  0.5097  0.7205
  293MOL0     C39486   3.634   7.044   7.800  0.4671 -0.0485 -0.2214
  293MOL0     C39487   3.630   7.193   7.812  0.5538 -0.4090 -0.0333
  293MOL0     H39488   4.085   7.208   7.904  2.4604 -1.9152 -0.2653
  293MOL0     H39489   4.236   7.345   8.081  0.7843  0.9301  1.7989
  293MOL0     H39490   4.047   7.491   8.359  1.4704  1.7605  1.0884
  293MOL0     H39491   4.091   7.376   8.490 -0.9478 -1.4397 -1.4228
  293MOL0     H39492   4.298   7.561   8.377  1.6270  0.3789  0.8707
  293MOL0     H39493   4.288   7.488   8.542  0.1603  2.0054  0.9506
  293MOL0     H39494   4.095   7.643   8.582  1.0108  2.6639  2.6457
  293MOL0     H39495   4.139   7.722   8.417  0.0401  0.5469  0.2947
  293MOL0     H39496   4.326   7.714   8.654 -1.3215 -0.7728  0.4261
  293MOL0     H39497   4.361   7.753   8.496  3.8827 -1.1847  4.7659
  293MOL0     H39498   4.171   7.925   8.505  0.5633 -1.7188 -0.9670
  293MOL0     H39499   4.163   7.892   8.684  2.1212 -1.7222  1.1163
  293MOL0     H39500   4.439   7.954   8.585 -0.2398  1.3714 -3.5526
  293MOL0     H39501   4.311   8.068   8.533 -0.9907 -1.3861 -0.6489
  293MOL0     H39502   4.366   7.992   8.816  0.2877 -1.9086  0.7087
  293MOL0     H39503   4.247   8.116   8.753  1.4086  0.0507  1.4140
  293MOL0     H39504   4.520   8.122   8.827  1.5366 -1.1659 -2.7858
  293MOL0     H39505   4.519   8.179   8.665  0.2594  1.7428  0.7523
  293MOL0     H39506   4.285   8.344   8.612  1.3604 -0.0927 -0.3110
  293MOL0     H39507   4.211   8.679   8.831 -2.2502  1.7018 -1.6480
  293MOL0     H39508   4.306   8.671   8.692  1.6283 -0.4832  0.9617
  293MOL0     H39509   4.133   8.557   8.561  1.3960  1.5861  0.6440
  293MOL0     H39510   4.058   8.476   8.699  0.9408 -0.9369 -0.0625
  293MOL0     H39511   3.987   8.699   8.784  1.5962 -1.5640  0.7287
  293MOL0     H39512   3.897   8.631   8.643  1.6106 -1.1460  0.7194
  293MOL0     H39513   3.937   8.886   8.642  2.3665  2.5395 -1.4443
  293MOL0     H39514   4.006   8.801   8.508 -3.8318 -0.5781 -0.2272
  293MOL0     H39515   4.373   8.969   8.711  2.4907  2.0880 -1.1419
  293MOL0     H39516   4.439   9.201   8.719 -1.4266  0.5265  1.2464
  293MOL0     H39517   4.435   9.604   8.369 -0.7985  0.3630 -1.5144
  293MOL0     H39518   4.507   9.835   8.384  0.6332 -0.3467 -0.7081
  293MOL0     H39519   4.454  10.053   8.351 -1.5832  1.3218 -0.3222
  293MOL0     H39520   4.381  10.196   8.430  1.1121  1.4820 -2.0881
  293MOL0     H39521   4.581  10.184   8.605 -0.0176  0.3880 -0.0063
  293MOL0     H39522   4.646  10.052   8.519  2.0130  1.9665  4.1880
  293MOL0     H39523   4.763  10.245   8.454 -0.8554  2.1481  0.9869
  293MOL0     H39524   4.690  10.166   8.320 -2.2596 -1.0032 -0.9856
  293MOL0     H39525   4.579  10.405   8.484  3.7123  0.2776  0.9323
  293MOL0     H39526   4.523  10.363   8.316 -1.0992 -0.7765  0.5545
  293MOL0     H39527   4.789  10.459   8.404 -3.1227  0.1188  1.8300
  293MOL0     H39528   4.676  10.548   8.301 -1.2728 -1.1219 -2.2244
  293MOL0     H39529   4.820  10.291   8.193  1.0413 -0.0029 -0.9422
  293MOL0     H39530   4.694  10.383   8.122  0.0951 -1.1729  0.3896
  293MOL0     H39531   4.971  10.513   8.195 -0.7526  1.8009 -0.0071
  293MOL0     H39532   4.842  10.590   8.114  1.9219  1.3960  1.6720
  293MOL0     H39533   5.017  10.507   7.959 -0.8312  0.6003 -1.0500
  293MOL0     H39534   5.013  10.345   8.025  1.1968  1.7827  0.3311
  293MOL0     H39535   4.157   9.914   8.622  0.1783  0.1944 -0.4249
  293MOL0     H39536   4.103   9.680   8.622  0.3949 -1.8027  0.0160
  293MOL0     H39537   4.091   9.296   8.488  0.1925  1.2983  1.6416
  293MOL0     H39538   3.998   9.072   8.550  0.5658 -0.9300 -1.4491
  293MOL0     H39539   3.948   7.258   8.373  4.4099  3.2562  1.9086
  293MOL0     H39540   3.799   7.157   8.208  1.6265 -2.3765  3.3955
  293MOL0     H39541   3.715   6.742   7.959 -2.1586 -1.4094  0.7810
  293MOL0     H39542   3.531   6.668   7.811  0.2735  1.2730 -3.3981
  293MOL0     H39543   3.540   6.749   7.473 -1.6017  0.4798 -4.1962
  293MOL0     H39544   3.400   6.841   7.444 -3.2050  1.0047  1.9370
  293MOL0     H39545   3.403   6.552   7.573  1.6207 -2.2142 -1.5838
  293MOL0     H39546   3.417   6.570   7.410 -0.8555 -0.8182  0.6984
  293MOL0     H39547   3.189   6.718   7.427  0.6844  0.9736  0.4092
  293MOL0     H39548   3.175   6.651   7.588  2.2148  5.6017  0.6308
  293MOL0     H39549   3.239   6.478   7.333 -0.1469 -1.5580 -0.5433
  293MOL0     H39550   3.227   6.429   7.510 -0.1535  1.9659  1.3458
  293MOL0     H39551   2.828   6.441   7.379 -0.4588 -0.4727 -0.6749
  293MOL0     H39552   3.476   7.051   7.649 -1.2616 -1.6567 -0.5134
  293MOL0     H39553   3.626   7.213   7.920  0.0587 -1.5716  0.1785
  293MOL0     H39554   3.722   7.229   7.766  1.3626 -0.9581  1.1090
  293MOL0     H39555   3.543   7.226   7.755  0.9534 -2.2065 -1.7857
  294MOL0     O39556   2.045   3.607   6.570 -0.3158  0.7033 -0.3221
  294MOL0     C39557   2.025   3.660   6.683  0.8092 -0.3946  0.7523
  294MOL0     O39558   1.896   3.689   6.731  0.4841  1.0079 -0.3296
  294MOL0     C39559   1.780   3.702   6.649  0.2412  0.5710  0.2267
  294MOL0     C39560   1.657   3.733   6.714 -0.1733  0.1615  0.0755
  294MOL0     C39561   1.545   3.762   6.641  0.2817 -0.5130  0.7322
  294MOL0     C39562   1.538   3.765   6.498  0.0404  0.4555 -0.3187
  294MOL0     O39563   1.415   3.786   6.434  0.1149  0.2745  0.2012
  294MOL0     C39564   1.304   3.693   6.475  0.0837  0.6903  0.1821
  294MOL0     C39565   1.193   3.770   6.555 -0.5786 -0.0431  0.2223
  294MOL0     C39566   1.143   3.894   6.470 -0.2421  0.3419  0.4297
  294MOL0     C39567   1.059   4.008   6.536 -0.8001  0.9971  0.0036
  294MOL0     C39568   1.011   4.114   6.443 -0.4538 -0.6001 -0.6263
  294MOL0     C39569   0.944   4.237   6.519 -0.2064  0.5587 -0.3033
  294MOL0     C39570   0.961   4.372   6.457  0.2120 -0.2502 -0.1744
  294MOL0     C39571   0.867   4.401   6.350  0.0675  0.0105  0.7598
  294MOL0     N39572   0.728   4.404   6.399  0.2757  0.4666 -0.1111
  294MOL0     C39573   0.642   4.296   6.428  1.1444 -0.1985  0.0465
  294MOL0     C39574   0.531   4.345   6.487  0.3235 -0.1333  0.1060
  294MOL0     C39575   0.401   4.282   6.534  0.5487  0.9437 -0.8836
  294MOL0     C39576   0.437   4.129   6.571  0.1812 -0.5223  0.4776
  294MOL0     C39577   0.311   4.055   6.621 -0.6860  0.5071 -0.5508
  294MOL0     C39578   0.220   3.988   6.522 -0.4029 -0.0589 -0.8480
  294MOL0     O39579   0.135   4.063   6.445 -0.5813 -0.6064  1.1698
  294MOL0     C39580   0.099   4.011   6.328  0.4540  0.1463  0.2300
  294MOL0     C39581   0.062   4.097   6.231  0.3684  0.0939  0.3680
  294MOL0     C39582   0.019   4.037   6.114 -0.6160  0.0199  0.1457
  294MOL0     C39583   0.007   3.905   6.088 -0.4956 -0.1708 -0.0924
  294MOL0     C39584  -0.077   3.852   5.973  0.1766 -0.3408 -1.2291
  294MOL0     O39585  -0.101   3.717   5.978  0.0922 -0.4300  0.0149
  294MOL0     C39586  -0.148   3.646   5.869 -0.6118 -0.2163  0.5278
  294MOL0     C39587  -0.208   3.688   5.746  0.5956  0.5028  0.6070
  294MOL0     C39588  -0.243   3.593   5.646  0.5107 -0.0757 -0.6279
  294MOL0     C39589  -0.211   3.458   5.653  0.0312 -0.0889  0.5280
  294MOL0     O39590  -0.254   3.356   5.572 -0.1225 -0.5895  0.1161
  294MOL0     C39591  -0.362   3.394   5.479 -0.1682  0.8058  0.0892
  294MOL0     C39592  -0.431   3.275   5.408  0.2232 -0.7315 -0.0820
  294MOL0     C39593  -0.572   3.305   5.340  0.1226 -0.3804 -0.7205
  294MOL0     C39594  -0.686   3.202   5.369 -0.0684  0.2921 -0.5417
  294MOL0     C39595  -0.801   3.198   5.269  0.2249  0.2349  0.7372
  294MOL0     C39596  -0.866   3.335   5.252  0.2204 -0.4444  0.4800
  294MOL0     C39597  -0.926   3.356   5.107 -0.1721 -0.2103 -0.6643
  294MOL0     C39598  -1.077   3.301   5.110  0.1141 -0.5495 -0.6349
  294MOL0    Cl39599  -1.141   3.307   4.939 -0.6243 -0.0947 -0.3326
  294MOL0     C39600  -0.153   3.417   5.766 -1.8150  0.4436 -0.4751
  294MOL0     C39601  -0.121   3.511   5.868 -0.8317 -0.3960  0.4559
  294MOL0     O39602  -0.126   3.934   5.898  0.5237 -0.2822  0.2691
  294MOL0     C39603   0.061   3.816   6.181 -0.7224  0.6065  0.7917
  294MOL0     C39604   0.105   3.869   6.303  0.4768  0.2549 -0.2833
  294MOL0     N39605   0.535   4.480   6.477  0.3500  0.4530  0.6462
  294MOL0     N39606   0.650   4.518   6.414 -0.4040 -0.0224 -0.0574
  294MOL0     C39607   1.660   3.766   6.430  0.0549  0.5568 -0.2201
  294MOL0     C39608   1.779   3.733   6.508 -0.8054  0.5711  0.1182
  294MOL0     C39609   2.133   3.675   6.783 -0.9098  0.4063  0.0394
  294MOL0     C39610   2.099   3.686   6.917  0.2201  0.2025  1.0585
  294MOL0     C39611   2.192   3.703   7.024  0.2951  0.0017  0.5615
  294MOL0     C39612   2.323   3.721   6.981 -0.3762  1.2453  0.2108
  294MOL0     O39613   2.412   3.729   7.092 -0.0419 -0.3423  0.1186
  294MOL0     C39614   2.539   3.784   7.077  0.4256 -0.0912 -0.1198
  294MOL0     C39615   2.594   3.832   7.210 -0.6652  0.2101  1.0686
  294MOL0     C39616   2.499   3.907   7.292 -0.6191 -0.5595 -0.3304
  294MOL0     C39617   2.417   4.003   7.219 -1.4038  0.2795  0.2357
  294MOL0     C39618   2.352   4.086   7.311  0.3981  0.1108  0.2290
  294MOL0     C39619   2.302   4.144   7.400  0.2422 -0.2261  0.0972
  294MOL0     C39620   2.365   3.720   6.851  0.3537  0.2518 -0.1316
  294MOL0     C39621   2.271   3.699   6.745  1.2931 -0.0349 -0.5439
  294MOL0     C39622   2.323   3.725   6.610 -0.4576 -0.7083  0.2361
  294MOL0     H39623   1.666   3.724   6.822 -0.1000  3.8654  0.4993
  294MOL0     H39624   1.454   3.766   6.700 -0.2678 -3.2719  0.1945
  294MOL0     H39625   1.272   3.639   6.386 -0.0899 -0.3668  0.8617
  294MOL0     H39626   1.347   3.620   6.545 -0.1230  0.5352  0.1457
  294MOL0     H39627   1.241   3.810   6.645  0.7328 -0.1795 -0.3946
  294MOL0     H39628   1.108   3.706   6.582 -0.1113 -0.2578  1.2193
  294MOL0     H39629   1.089   3.848   6.387 -0.2485 -1.5759  1.4481
  294MOL0     H39630   1.230   3.955   6.442  0.0740 -0.6170 -0.7638
  294MOL0     H39631   0.969   3.968   6.584  1.4716  0.3796  4.1810
  294MOL0     H39632   1.118   4.062   6.610  1.2723 -1.6339  0.4471
  294MOL0     H39633   1.104   4.145   6.395  0.4300  1.6784  2.2398
  294MOL0     H39634   0.941   4.086   6.364  0.1893  1.6955 -2.1331
  294MOL0     H39635   0.841   4.212   6.546  0.3407  0.5163  1.9657
  294MOL0     H39636   0.991   4.231   6.618 -4.0439  0.3650  1.6981
  294MOL0     H39637   1.060   4.373   6.411  0.8120 -0.4522  1.0612
  294MOL0     H39638   0.946   4.446   6.536 -1.3901 -0.1973 -0.4810
  294MOL0     H39639   0.893   4.494   6.298 -0.1387 -0.1482  0.3644
  294MOL0     H39640   0.872   4.310   6.289  1.0252 -1.2394  2.6009
  294MOL0     H39641   0.650   4.188   6.417 -1.6019 -0.7912  2.6089
  294MOL0     H39642   0.373   4.330   6.628  1.2698  1.2214 -0.8010
  294MOL0     H39643   0.320   4.285   6.461 -2.0742 -0.0274  1.8000
  294MOL0     H39644   0.465   4.078   6.479  3.2946 -2.5263  2.3583
  294MOL0     H39645   0.518   4.121   6.645  1.1355 -1.2282 -0.6154
  294MOL0     H39646   0.256   4.112   6.697 -0.4837  1.5090 -1.1307
  294MOL0     H39647   0.343   3.967   6.677 -2.6333 -2.4779 -3.7472
  294MOL0     H39648   0.165   3.914   6.582 -0.0632  0.5031  0.1819
  294MOL0     H39649   0.294   3.933   6.463 -1.5849 -0.1722 -2.2774
  294MOL0     H39650   0.072   4.204   6.244  1.6861 -0.2525  2.7103
  294MOL0     H39651  -0.014   4.111   6.041 -1.4724  1.1829  1.6560
  294MOL0     H39652  -0.228   3.794   5.730 -2.5125 -0.0595  0.0458
  294MOL0     H39653  -0.307   3.633   5.569 -0.2834  1.6466  0.8440
  294MOL0     H39654  -0.439   3.453   5.530  0.7883  2.1593  0.0105
  294MOL0     H39655  -0.326   3.451   5.393 -1.5241  0.1153 -0.9931
  294MOL0     H39656  -0.376   3.227   5.327 -0.1882  0.1234 -0.8904
  294MOL0     H39657  -0.447   3.202   5.488 -1.7703 -0.2782 -0.0079
  294MOL0     H39658  -0.615   3.395   5.386 -1.1153 -1.8971  1.2566
  294MOL0     H39659  -0.548   3.330   5.236 -1.1772 -0.3290 -1.0335
  294MOL0     H39660  -0.721   3.213   5.472 -1.1660  2.3824 -1.0858
  294MOL0     H39661  -0.637   3.104   5.363 -0.5865  0.0387 -0.6626
  294MOL0     H39662  -0.881   3.132   5.303 -0.7016 -0.0223 -1.7458
  294MOL0     H39663  -0.774   3.150   5.175 -0.3662  0.3354  0.5177
  294MOL0     H39664  -0.941   3.342   5.331  1.5746 -5.0376  2.4746
  294MOL0     H39665  -0.796   3.418   5.271  3.4621 -1.6436 -4.4600
  294MOL0     H39666  -0.858   3.297   5.046 -1.7869 -0.5174 -2.2689
  294MOL0     H39667  -0.917   3.463   5.085 -0.7760  0.3844  1.7064
  294MOL0     H39668  -1.081   3.201   5.156  2.2920 -0.1829  0.4913
  294MOL0     H39669  -1.140   3.363   5.175 -0.2391  0.8973 -2.2832
  294MOL0     H39670  -0.148   3.311   5.790  1.0849  0.8449  1.2430
  294MOL0     H39671  -0.088   3.469   5.963 -0.5634  2.6698  1.8396
  294MOL0     H39672   0.061   3.709   6.162 -1.4192  0.5074  1.3356
  294MOL0     H39673   0.150   3.796   6.370  0.0853  0.9630  0.7952
  294MOL0     H39674   1.683   3.810   6.333  0.1657  1.1974  0.0940
  294MOL0     H39675   1.877   3.745   6.465 -0.6633  0.1445  0.3244
  294MOL0     H39676   2.002   3.652   6.952 -0.7084  2.8359  1.2977
  294MOL0     H39677   2.166   3.687   7.128 -5.0323 -1.0909 -0.6271
  294MOL0     H39678   2.533   3.867   7.005  2.1638 -1.6204 -2.1619
  294MOL0     H39679   2.605   3.711   7.030 -1.5444 -0.9716 -1.6752
  294MOL0     H39680   2.684   3.893   7.195 -1.3670  1.5222  2.0359
  294MOL0     H39681   2.638   3.748   7.265  0.8302 -2.2046 -3.3011
  294MOL0     H39682   2.560   3.961   7.365  0.3730 -1.0708 -0.7566
  294MOL0     H39683   2.437   3.834   7.345 -1.7382 -1.8899 -3.2285
  294MOL0     H39684   2.480   4.067   7.157  1.5805  0.1731  2.8993
  294MOL0     H39685   2.347   3.948   7.156  0.0893  1.6168 -2.8234
  294MOL0     H39686   2.277   4.200   7.489  2.4654 -0.3742  0.9018
  294MOL0     H39687   2.470   3.737   6.828 -0.0927 -0.3029 -2.8458
  294MOL0     H39688   2.255   3.704   6.526 -0.2201  3.0005 -1.0544
  294MOL0     H39689   2.351   3.831   6.614  0.2537 -0.8798 -0.0743
  294MOL0     H39690   2.415   3.668   6.592  1.0392  2.2462 -2.3470
  295MOL0     O39691   7.500   0.036   8.157  0.4848 -0.1824  0.0263
  295MOL0     C39692   7.619   0.050   8.131 -0.5447  0.1631 -1.0481
  295MOL0     O39693   7.687   0.173   8.159 -0.3140  0.2700 -0.6504
  295MOL0     C39694   7.625   0.277   8.217 -0.2467 -0.4410 -0.5971
  295MOL0     C39695   7.617   0.400   8.138 -0.2182  0.2885  0.5397
  295MOL0     C39696   7.579   0.518   8.199 -0.5566 -0.7475 -0.0772
  295MOL0     C39697   7.547   0.528   8.331  0.2386  0.8816 -0.6813
  295MOL0     O39698   7.530   0.652   8.383 -0.0972  0.6414  0.0697
  295MOL0     C39699   7.418   0.660   8.475  0.4079  0.1836  0.1628
  295MOL0     C39700   7.387   0.791   8.549 -0.2714 -0.4688  0.4934
  295MOL0     C39701   7.243   0.803   8.581 -0.9511 -0.0158  0.3139
  295MOL0     C39702   7.212   0.702   8.685 -0.0847  0.1353 -0.1680
  295MOL0     C39703   7.063   0.712   8.742 -0.7810 -0.2909  0.4665
  295MOL0     C39704   6.974   0.592   8.705  0.5132  0.2076  0.5668
  295MOL0     C39705   6.839   0.609   8.769 -0.2898 -0.0194  0.1832
  295MOL0     C39706   6.841   0.612   8.916  0.1317  0.3114 -0.5173
  295MOL0     N39707   6.722   0.569   8.987 -0.8505 -0.0712 -0.4594
  295MOL0     C39708   6.700   0.433   9.004 -0.3439  0.3315  0.4002
  295MOL0     C39709   6.610   0.425   9.104 -0.1777 -0.5394 -0.1610
  295MOL0     C39710   6.532   0.302   9.135 -0.4382 -0.8311  0.2793
  295MOL0     C39711   6.592   0.209   9.232  0.4973  0.5225 -0.0397
  295MOL0     C39712   6.493   0.149   9.337  0.4833 -0.6146 -0.3819
  295MOL0     C39713   6.422   0.017   9.291 -0.8684 -0.2179  0.6802
  295MOL0     O39714   6.336   0.053   9.169  0.3654 -0.2052 -0.6164
  295MOL0     C39715   6.347  -0.035   9.059  0.1086 -0.6245 -0.3362
  295MOL0     C39716   6.319   0.018   8.941  0.3042 -0.5632 -0.3765
  295MOL0     C39717   6.337  -0.050   8.826 -0.1258 -0.2637  0.5102
  295MOL0     C39718   6.366  -0.191   8.832 -0.6476  0.6859  0.0141
  295MOL0     C39719   6.372  -0.266   8.708 -0.7845  1.2214  0.1886
  295MOL0     O39720   6.422  -0.388   8.709 -0.0698  0.2027 -0.1485
  295MOL0     C39721   6.381  -0.481   8.619  0.9197  0.4206  0.6883
  295MOL0     C39722   6.432  -0.486   8.488 -0.6654  0.3324  0.5522
  295MOL0     C39723   6.390  -0.581   8.393 -0.2429  1.2919  0.2091
  295MOL0     C39724   6.278  -0.670   8.421  0.0862 -0.9675 -1.3116
  295MOL0     O39725   6.237  -0.780   8.340  0.3026 -0.9431  0.5014
  295MOL0     C39726   6.186  -0.747   8.216 -0.1037 -0.3563  1.1169
  295MOL0     C39727   6.219  -0.838   8.102 -1.0237  0.3324  0.4852
  295MOL0     C39728   6.130  -0.965   8.094  0.0449 -0.8412 -1.0759
  295MOL0     C39729   6.197  -1.090   8.161  0.2043 -0.6496 -0.1023
  295MOL0     C39730   6.105  -1.208   8.160 -0.4227 -0.2545  0.0745
  295MOL0     C39731   6.046  -1.243   8.030 -0.7103  0.4677  0.3190
  295MOL0     C39732   5.998  -1.389   8.027 -0.6052 -0.9043  0.3846
  295MOL0     C39733   5.938  -1.438   7.884 -1.0564  0.5019 -0.4247
  295MOL0    Cl39734   5.902  -1.607   7.917  0.2336  0.3378  0.2343
  295MOL0     C39735   6.226  -0.659   8.556 -0.2658  0.3667 -0.5897
  295MOL0     C39736   6.278  -0.578   8.657  0.2847 -0.2371  0.0891
  295MOL0     O39737   6.325  -0.217   8.615 -0.1789  0.5105  1.0077
  295MOL0     C39738   6.386  -0.245   8.956  0.1374  0.1325 -0.7111
  295MOL0     C39739   6.369  -0.166   9.076  0.1360 -0.3786  0.8570
  295MOL0     N39740   6.586   0.547   9.149  0.2557 -0.2303  0.1818
  295MOL0     N39741   6.654   0.639   9.081 -0.5572 -0.5343  0.1857
  295MOL0     C39742   7.553   0.405   8.404 -0.4388 -0.1405 -0.8255
  295MOL0     C39743   7.590   0.284   8.349  0.4743  1.0239  0.0106
  295MOL0     C39744   7.696  -0.068   8.070 -0.5423 -0.1212  0.0923
  295MOL0     C39745   7.624  -0.159   7.994  0.4235  1.0814 -0.2273
  295MOL0     C39746   7.682  -0.280   7.957 -0.6471 -0.6717 -0.0426
  295MOL0     C39747   7.821  -0.305   7.998 -0.3628  0.9460  0.7456
  295MOL0     O39748   7.864  -0.430   7.952 -0.2226  0.7349 -0.0141
  295MOL0     C39749   7.987  -0.493   7.983  0.1546  0.6278 -0.8475
  295MOL0     C39750   7.991  -0.578   8.118  1.5105  0.3506  0.5263
  295MOL0     C39751   8.129  -0.581   8.184 -0.2815 -0.2685  0.4018
  295MOL0     C39752   8.121  -0.666   8.312  0.0656 -0.3381  0.1861
  295MOL0     C39753   8.246  -0.678   8.382  0.1414  0.6552 -0.4674
  295MOL0     C39754   8.359  -0.679   8.434  0.4372  0.1747  1.0200
  295MOL0     C39755   7.895  -0.211   8.069 -0.3632 -0.6198 -0.0695
  295MOL0     C39756   7.832  -0.092   8.109  0.9406 -0.7780  0.3649
  295MOL0     C39757   7.903  -0.011   8.218  0.4964  0.7264 -0.4383
  295MOL0     H39758   7.634   0.396   8.031 -0.0532 -2.2777  0.6186
  295MOL0     H39759   7.594   0.614   8.149 -3.0205 -0.3153 -0.0846
  295MOL0     H39760   7.341   0.647   8.399  4.1476 -1.4811 -3.7490
  295MOL0     H39761   7.428   0.587   8.555  0.2944  0.2068  0.1968
  295MOL0     H39762   7.403   0.867   8.473 -0.6353 -0.6456  0.2392
  295MOL0     H39763   7.454   0.803   8.635  2.2571 -3.3814 -0.8557
  295MOL0     H39764   7.184   0.804   8.489 -0.8234  4.7587  0.0053
  295MOL0     H39765   7.222   0.897   8.632 -0.9819 -0.4116  1.0378
  295MOL0     H39766   7.233   0.598   8.656  2.5853  0.3390  0.7378
  295MOL0     H39767   7.273   0.713   8.775 -0.2461  1.7911 -0.2283
  295MOL0     H39768   7.075   0.706   8.850 -1.1386  0.6803  0.5641
  295MOL0     H39769   7.016   0.808   8.719  0.7240  0.8700  2.0341
  295MOL0     H39770   6.963   0.589   8.596 -0.7040  1.1949  0.6432
  295MOL0     H39771   7.023   0.503   8.746  0.8924 -0.5849 -1.4686
  295MOL0     H39772   6.766   0.538   8.730  1.1899 -1.2642 -0.4163
  295MOL0     H39773   6.799   0.706   8.737 -3.3329 -1.2109  0.1327
  295MOL0     H39774   6.918   0.545   8.955 -2.1461 -2.6442 -0.7836
  295MOL0     H39775   6.862   0.708   8.965  3.5405  0.2334 -1.5752
  295MOL0     H39776   6.742   0.355   8.942 -2.0977  0.2405 -0.7415
  295MOL0     H39777   6.445   0.349   9.183 -0.9918  0.7059 -2.0756
  295MOL0     H39778   6.497   0.249   9.046  1.1581 -0.8171 -0.3889
  295MOL0     H39779   6.628   0.122   9.177  1.1306 -0.0963  1.3050
  295MOL0     H39780   6.677   0.258   9.279 -1.4229  0.6047  3.7208
  295MOL0     H39781   6.414   0.217   9.368 -1.0959 -1.6426 -1.9680
  295MOL0     H39782   6.556   0.122   9.423 -1.7615 -1.4455  1.1016
  295MOL0     H39783   6.369  -0.035   9.371 -1.2733 -0.5244  0.2183
  295MOL0     H39784   6.512  -0.037   9.261  1.3677  2.5877  1.8257
  295MOL0     H39785   6.298   0.124   8.937  0.2642 -0.5940 -1.0070
  295MOL0     H39786   6.345   0.002   8.731  1.1109  0.5071  1.0050
  295MOL0     H39787   6.512  -0.420   8.454  2.0270 -3.3480 -0.9280
  295MOL0     H39788   6.429  -0.578   8.292  0.1507  1.9265  0.3731
  295MOL0     H39789   6.079  -0.728   8.218 -0.1869 -0.0546 -1.7678
  295MOL0     H39790   6.238  -0.656   8.185  2.4726 -1.4905  1.8130
  295MOL0     H39791   6.208  -0.787   8.006 -1.2230  2.6593  1.6865
  295MOL0     H39792   6.320  -0.878   8.117 -0.2256  3.2224  4.5440
  295MOL0     H39793   6.028  -0.943   8.127  0.0367 -2.4038  0.0389
  295MOL0     H39794   6.133  -0.992   7.988 -2.3983 -1.4419 -1.0490
  295MOL0     H39795   6.228  -1.066   8.263  3.8612  0.8304 -1.4056
  295MOL0     H39796   6.285  -1.118   8.102  0.5919 -1.0248  0.6461
  295MOL0     H39797   6.023  -1.192   8.231  2.9046  0.8554  4.0784
  295MOL0     H39798   6.172  -1.289   8.190 -1.6423 -2.1367 -1.9770
  295MOL0     H39799   5.963  -1.181   7.994  0.3572  1.2145 -0.9919
  295MOL0     H39800   6.127  -1.245   7.956 -3.4514 -2.1929 -2.9594
  295MOL0     H39801   5.915  -1.398   8.098  0.1014  1.9271  1.6911
  295MOL0     H39802   6.079  -1.457   8.056 -0.2188 -1.0599 -0.9956
  295MOL0     H39803   5.853  -1.378   7.853 -0.1966  1.3744 -1.1518
  295MOL0     H39804   6.010  -1.439   7.802  1.2932 -3.7810  1.3657
  295MOL0     H39805   6.151  -0.731   8.588 -0.2368 -0.2637 -1.8819
  295MOL0     H39806   6.255  -0.586   8.763 -0.3925  0.1921 -0.0204
  295MOL0     H39807   6.397  -0.353   8.956  1.8032  0.2721 -0.3849
  295MOL0     H39808   6.382  -0.225   9.166  2.2029  1.3514  1.7825
  295MOL0     H39809   7.543   0.407   8.512  1.8645  1.2534 -0.5695
  295MOL0     H39810   7.606   0.194   8.408  4.2608  1.3768 -0.2091
  295MOL0     H39811   7.519  -0.139   7.975  0.7279  2.5655 -0.4814
  295MOL0     H39812   7.616  -0.346   7.901  0.2749 -1.6932  0.0218
  295MOL0     H39813   8.072  -0.424   7.984  1.4169 -0.8490 -2.0288
  295MOL0     H39814   7.994  -0.566   7.902  2.1583 -2.0958  1.5267
  295MOL0     H39815   7.940  -0.673   8.102  0.1307  1.3193 -1.4018
  295MOL0     H39816   7.930  -0.521   8.189 -0.0774 -1.6545  0.8638
  295MOL0     H39817   8.171  -0.482   8.200 -0.4469  0.2302 -1.9355
  295MOL0     H39818   8.198  -0.623   8.110  1.2635  1.5232  0.7733
  295MOL0     H39819   8.069  -0.618   8.396 -1.1037  0.4180 -0.9330
  295MOL0     H39820   8.069  -0.759   8.287 -1.5640  0.6687 -0.3270
  295MOL0     H39821   8.454  -0.687   8.483 -0.1441 -0.4531  2.0803
  295MOL0     H39822   7.999  -0.228   8.093 -0.6175 -1.0545  0.7392
  295MOL0     H39823   7.902   0.098   8.213 -0.1544  0.7656  0.3112
  295MOL0     H39824   7.854  -0.041   8.311 -1.5608 -3.3537 -2.5418
  295MOL0     H39825   8.010  -0.037   8.223  0.2277 -0.1867  2.3058
  296MOL0     O39826   0.720   7.369   2.677  0.5065 -0.0771  0.1747
  296MOL0     C39827   0.774   7.281   2.743 -0.8464  0.5823  0.7599
  296MOL0     O39828   0.807   7.159   2.685 -0.0806 -0.2586  0.3122
  296MOL0     C39829   0.746   7.117   2.568  0.4223 -0.6118 -0.0425
  296MOL0     C39830   0.620   7.143   2.541 -0.0687 -0.1072  0.1956
  296MOL0     C39831   0.554   7.092   2.423 -0.4202  0.2420 -0.3475
  296MOL0     C39832   0.624   7.031   2.323 -0.4158  0.1737  0.6857
  296MOL0     O39833   0.576   6.967   2.213  0.1358  0.4710 -0.4042
  296MOL0     C39834   0.485   6.865   2.270 -0.9304  0.1316  0.7150
  296MOL0     C39835   0.471   6.745   2.186  0.7594 -0.0635 -0.0579
  296MOL0     C39836   0.603   6.662   2.189  0.1248  0.6550  0.2224
  296MOL0     C39837   0.577   6.509   2.161  0.0872  1.0329  0.0479
  296MOL0     C39838   0.709   6.437   2.100 -0.4733 -0.0477 -0.5066
  296MOL0     C39839   0.687   6.312   2.018 -1.1056 -0.4227  0.7351
  296MOL0     C39840   0.815   6.236   1.984  0.1507  1.5118 -0.2059
  296MOL0     C39841   0.773   6.111   1.909  0.4930  0.4951  0.5083
  296MOL0     N39842   0.878   6.054   1.822 -1.0506  1.4511 -0.1838
  296MOL0     C39843   0.934   6.128   1.722 -0.6741  0.1720  0.5019
  296MOL0     C39844   1.051   6.056   1.695  0.7645 -0.6950  0.5658
  296MOL0     C39845   1.156   6.095   1.585 -0.3270  0.1793  0.8921
  296MOL0     C39846   1.250   6.210   1.621 -0.0815  0.6905  0.2791
  296MOL0     C39847   1.315   6.177   1.758  0.9652  0.6831  0.2912
  296MOL0     C39848   1.410   6.278   1.817  0.0931 -0.4269 -0.9944
  296MOL0     O39849   1.533   6.273   1.736  0.1998 -0.1273  0.0777
  296MOL0     C39850   1.610   6.387   1.732 -0.4480  0.3488 -0.0528
  296MOL0     C39851   1.601   6.498   1.818 -0.6757  0.0548 -0.3271
  296MOL0     C39852   1.698   6.603   1.820  0.0817  0.7207 -1.1701
  296MOL0     C39853   1.821   6.588   1.744 -0.4474  0.3236 -0.7320
  296MOL0     C39854   1.924   6.698   1.741  1.0042 -0.4096 -0.3775
  296MOL0     O39855   2.021   6.674   1.649 -0.8917  0.8251  0.8955
  296MOL0     C39856   2.140   6.741   1.650 -0.3828  0.2953 -0.2806
  296MOL0     C39857   2.186   6.828   1.750  0.4407 -0.5034  0.2448
  296MOL0     C39858   2.317   6.880   1.755  0.0998 -0.0538 -0.0400
  296MOL0     C39859   2.404   6.862   1.648  0.0348 -0.2156 -0.4355
  296MOL0     O39860   2.527   6.906   1.664 -0.0801 -0.1293 -0.2877
  296MOL0     C39861   2.634   6.858   1.578 -0.4805 -0.3009  0.4673
  296MOL0     C39862   2.764   6.913   1.629  0.0321  0.1627  0.1318
  296MOL0     C39863   2.790   7.044   1.566 -0.1619 -0.3120 -0.1023
  296MOL0     C39864   2.926   7.106   1.619  0.7571  0.8299 -0.1198
  296MOL0     C39865   2.939   7.255   1.566  1.0937  0.6517  0.4560
  296MOL0     C39866   3.052   7.324   1.646  0.6480 -1.1744  0.0444
  296MOL0     C39867   2.983   7.434   1.744 -0.2337  0.1582 -0.7185
  296MOL0     C39868   3.054   7.444   1.875 -0.2014 -0.1903 -1.3700
  296MOL0    Cl39869   3.007   7.288   1.961  0.5169  0.0025 -0.2460
  296MOL0     C39870   2.349   6.793   1.540 -0.9350 -0.3894 -0.6439
  296MOL0     C39871   2.228   6.724   1.535 -0.0682 -0.4295  0.2490
  296MOL0     O39872   1.901   6.804   1.799  0.0060  0.1175 -0.0542
  296MOL0     C39873   1.838   6.468   1.674  1.2469  0.5895 -0.4948
  296MOL0     C39874   1.726   6.372   1.670 -0.2060  0.5081  0.2882
  296MOL0     N39875   1.052   5.940   1.773 -0.3063 -0.2486 -0.0472
  296MOL0     N39876   0.953   5.947   1.851 -0.5378  0.8981 -0.1875
  296MOL0     C39877   0.765   7.015   2.340 -0.5645  0.3716 -0.1664
  296MOL0     C39878   0.824   7.061   2.461  0.1938  0.0099 -0.1482
  296MOL0     C39879   0.790   7.294   2.893 -0.3631  0.1684  0.1841
  296MOL0     C39880   0.734   7.198   2.972 -0.5758  0.3008  0.4946
  296MOL0     C39881   0.744   7.197   3.114  0.2901 -0.2009  0.0595
  296MOL0     C39882   0.821   7.301   3.175 -0.4646 -0.3004  0.2673
  296MOL0     O39883   0.831   7.330   3.307 -0.7397 -1.1576  0.2134
  296MOL0     C39884   0.851   7.220   3.400 -0.0868  0.2354 -1.0007
  296MOL0     C39885   0.944   7.257   3.511 -0.3305 -0.3815 -0.8192
  296MOL0     C39886   0.908   7.402   3.578  0.5143  0.3525  0.9862
  296MOL0     C39887   0.793   7.394   3.679  0.5625 -0.0322  0.2503
  296MOL0     C39888   0.796   7.494   3.775 -0.4880  0.4424  0.1595
  296MOL0     C39889   0.812   7.567   3.877 -0.2855 -0.3555  0.9923
  296MOL0     C39890   0.888   7.398   3.093  0.8122 -0.6058  0.2715
  296MOL0     C39891   0.867   7.393   2.951  0.7253  0.1265 -0.7397
  296MOL0     C39892   0.908   7.513   2.884  0.3606 -0.1543 -0.4560
  296MOL0     H39893   0.555   7.187   2.616 -0.4035  2.8417 -1.6873
  296MOL0     H39894   0.446   7.100   2.429 -0.6061 -0.1862 -2.3130
  296MOL0     H39895   0.515   6.828   2.369 -3.0736 -0.5043  1.1843
  296MOL0     H39896   0.384   6.908   2.270 -0.3711  1.5200  1.6080
  296MOL0     H39897   0.456   6.768   2.080  0.6163  1.2220  0.2301
  296MOL0     H39898   0.378   6.691   2.207  0.5645  0.6031  0.8650
  296MOL0     H39899   0.648   6.665   2.289 -2.3076  0.3114  1.4022
  296MOL0     H39900   0.679   6.709   2.126 -1.1324  0.7471 -1.2656
  296MOL0     H39901   0.566   6.460   2.258  2.3387  0.3200  0.0207
  296MOL0     H39902   0.482   6.502   2.108  0.7452 -0.4183 -1.0021
  296MOL0     H39903   0.760   6.516   2.044  0.5723  0.2920  0.8775
  296MOL0     H39904   0.779   6.410   2.180 -0.9258  1.3674  0.4013
  296MOL0     H39905   0.616   6.246   2.070  0.2869 -2.0545  0.6439
  296MOL0     H39906   0.649   6.327   1.916  0.0853 -3.9008 -0.3672
  296MOL0     H39907   0.884   6.211   2.067  0.9372 -0.4008 -1.3611
  296MOL0     H39908   0.865   6.300   1.911 -2.3877  0.6398 -2.8623
  296MOL0     H39909   0.741   6.026   1.969  0.9037 -0.8867 -1.1715
  296MOL0     H39910   0.689   6.126   1.841  0.1676 -3.2516 -0.0927
  296MOL0     H39911   0.915   6.224   1.675  4.4786  0.6385 -1.3380
  296MOL0     H39912   1.225   6.014   1.559  0.6513  1.7663 -1.7857
  296MOL0     H39913   1.088   6.107   1.500  2.3977 -2.8447 -1.9913
  296MOL0     H39914   1.321   6.218   1.538 -0.1500  0.6601  0.2166
  296MOL0     H39915   1.197   6.305   1.627 -1.7764 -0.2558  1.4326
  296MOL0     H39916   1.376   6.087   1.746 -0.4081 -0.2329 -0.0731
  296MOL0     H39917   1.240   6.161   1.835  1.4650  0.1949  0.6877
  296MOL0     H39918   1.438   6.263   1.922 -1.0553  0.0412 -0.6036
  296MOL0     H39919   1.369   6.379   1.807 -1.0989 -0.9042 -1.0933
  296MOL0     H39920   1.518   6.511   1.886 -0.2737  2.4714 -0.2060
  296MOL0     H39921   1.684   6.691   1.883 -0.7056 -0.4579  0.3578
  296MOL0     H39922   2.126   6.843   1.839  0.3113 -1.8860  0.4106
  296MOL0     H39923   2.354   6.943   1.836 -2.8619 -0.1841  1.5353
  296MOL0     H39924   2.639   6.749   1.582 -0.8099 -0.3014  0.9669
  296MOL0     H39925   2.632   6.887   1.473  2.1367  0.7027  0.6182
  296MOL0     H39926   2.758   6.920   1.738  2.2687  0.6928  0.2725
  296MOL0     H39927   2.840   6.841   1.598 -1.6772 -1.8461  0.4175
  296MOL0     H39928   2.797   7.028   1.458 -3.7677  1.4342 -0.7465
  296MOL0     H39929   2.707   7.110   1.592 -1.3922 -0.8578 -2.4549
  296MOL0     H39930   3.008   7.046   1.578  1.6850  2.0724 -0.1241
  296MOL0     H39931   2.919   7.100   1.728 -0.4985 -0.7714 -0.2324
  296MOL0     H39932   2.848   7.314   1.570  1.2307  0.8193  1.3747
  296MOL0     H39933   2.958   7.248   1.458 -0.1285 -1.7913  0.3291
  296MOL0     H39934   3.113   7.253   1.702 -0.9773 -1.7784  1.1181
  296MOL0     H39935   3.119   7.380   1.580  2.4961 -0.8246  2.0873
  296MOL0     H39936   2.883   7.416   1.786  1.2921 -2.3419  2.2802
  296MOL0     H39937   2.998   7.538   1.712  4.0616 -0.0023  0.2151
  296MOL0     H39938   3.162   7.450   1.866  0.1168  0.7449  1.7055
  296MOL0     H39939   3.015   7.518   1.946  2.5984 -1.7330  2.0769
  296MOL0     H39940   2.412   6.769   1.455 -0.2361 -1.5856  0.1734
  296MOL0     H39941   2.201   6.671   1.444 -1.0695 -1.8744  1.3423
  296MOL0     H39942   1.927   6.452   1.613  1.2773 -2.4116  0.1654
  296MOL0     H39943   1.729   6.285   1.605  0.8798  1.1977 -0.6081
  296MOL0     H39944   0.827   6.986   2.256  0.8151  2.9918 -0.1496
  296MOL0     H39945   0.932   7.056   2.476  0.5609 -0.3644 -2.6281
  296MOL0     H39946   0.678   7.118   2.924 -2.8447  1.1971  1.5075
  296MOL0     H39947   0.699   7.120   3.176  1.6366  0.1919  1.6084
  296MOL0     H39948   0.885   7.133   3.343 -3.8134 -1.8021 -0.4696
  296MOL0     H39949   0.755   7.184   3.438 -0.6660  0.3827 -2.2950
  296MOL0     H39950   1.041   7.265   3.462  1.7634  4.0119  3.1979
  296MOL0     H39951   0.949   7.191   3.598  0.4206  2.5523  1.5552
  296MOL0     H39952   0.871   7.467   3.499 -2.1292 -2.2553 -0.1468
  296MOL0     H39953   1.001   7.430   3.627  0.5672 -0.0978  1.1545
  296MOL0     H39954   0.698   7.409   3.626  0.7154 -1.9206 -0.6669
  296MOL0     H39955   0.784   7.295   3.725  1.0382 -1.6708 -2.9124
  296MOL0     H39956   0.832   7.632   3.959  0.8018 -0.5639  0.9136
  296MOL0     H39957   0.940   7.478   3.145 -2.5862  1.6322  0.5835
  296MOL0     H39958   0.955   7.485   2.789  2.6102  0.9049  0.2742
  296MOL0     H39959   0.813   7.564   2.864  1.0403 -0.0646 -4.2486
  296MOL0     H39960   0.982   7.574   2.935 -1.1511  0.3105  1.2863
  297MOL0     O39961   5.225   1.168   8.277  0.2125  0.2680  0.4969
  297MOL0     C39962   5.302   1.092   8.326  0.1392 -0.5414  0.7364
  297MOL0     O39963   5.263   0.988   8.402  0.9375 -0.1091  0.4832
  297MOL0     C39964   5.137   0.939   8.398  0.5124  0.4690 -0.2485
  297MOL0     C39965   5.037   0.977   8.487  0.2704 -0.4805 -1.2564
  297MOL0     C39966   4.920   0.901   8.512  0.6335 -0.1398  0.2220
  297MOL0     C39967   4.898   0.787   8.437  0.6744 -0.7620  0.5749
  297MOL0     O39968   4.788   0.710   8.467  0.2145 -0.5585 -0.5367
  297MOL0     C39969   4.744   0.626   8.364 -0.3866 -0.6038  0.1208
  297MOL0     C39970   4.595   0.582   8.385  0.6970 -0.3011 -0.1438
  297MOL0     C39971   4.556   0.461   8.300  0.1828  0.3940 -0.4278
  297MOL0     C39972   4.555   0.490   8.142 -0.2543  0.1568 -0.8422
  297MOL0     C39973   4.475   0.408   8.042 -0.0567  0.2083  0.1400
  297MOL0     C39974   4.501   0.261   8.043  0.7708 -0.5546 -0.6169
  297MOL0     C39975   4.396   0.176   7.964  0.6477 -0.0415 -1.0905
  297MOL0     C39976   4.447   0.151   7.823  0.3784  0.1714 -1.3679
  297MOL0     N39977   4.347   0.122   7.720 -0.3699  0.0382  0.5922
  297MOL0     C39978   4.234   0.188   7.685 -0.7242 -0.5063  0.7830
  297MOL0     C39979   4.171   0.116   7.588  0.1442  0.8219 -0.7354
  297MOL0     C39980   4.044   0.129   7.514 -0.4172 -0.5638  0.3006
  297MOL0     C39981   4.051   0.224   7.389  0.6882 -0.6180 -0.6323
  297MOL0     C39982   3.941   0.200   7.289  0.5555  0.0323  1.5513
  297MOL0     C39983   3.936   0.307   7.174  0.3633  0.1335  0.3247
  297MOL0     O39984   3.835   0.271   7.090  0.0414  0.3280 -0.1025
  297MOL0     C39985   3.860   0.297   6.955  1.3151  0.4816 -0.5973
  297MOL0     C39986   3.841   0.421   6.897 -0.1773  0.1064 -1.1751
  297MOL0     C39987   3.837   0.433   6.754  0.5430  0.0014  0.3684
  297MOL0     C39988   3.864   0.317   6.672  0.7283 -0.3813  0.0209
  297MOL0     C39989   3.856   0.345   6.518  0.0312 -0.0140  0.5757
  297MOL0     O39990   3.900   0.251   6.426  0.6198 -0.2627 -0.1907
  297MOL0     C39991   3.884   0.288   6.293  0.1586  0.0617 -0.3500
  297MOL0     C39992   3.760   0.326   6.240  0.3540  0.3091 -0.2378
  297MOL0     C39993   3.758   0.355   6.106 -0.8413  0.7036 -0.1003
  297MOL0     C39994   3.871   0.350   6.019 -0.5231  0.6953  0.4818
  297MOL0     O39995   3.853   0.378   5.881 -0.3839 -0.1578 -0.1573
  297MOL0     C39996   3.826   0.263   5.801 -0.7704 -0.6737  0.1419
  297MOL0     C39997   3.823   0.322   5.652 -0.7948 -0.7001  0.1619
  297MOL0     C39998   3.964   0.351   5.593  0.6162  0.6511 -0.1098
  297MOL0     C39999   3.973   0.344   5.440  0.6222  0.3385 -0.1969
  297MOL0     C40000   4.116   0.322   5.389 -0.1970  0.4054  0.1895
  297MOL0     C40001   4.140   0.179   5.341 -0.1858  1.1739  0.5868
  297MOL0     C40002   4.286   0.145   5.321 -0.0122  0.0274  0.8603
  297MOL0     C40003   4.313   0.005   5.268  0.4348  0.5390  0.5262
  297MOL0    Cl40004   4.255  -0.141   5.365  0.1395  0.2407  0.2191
  297MOL0     C40005   3.988   0.294   6.075  0.1182 -0.1980 -0.1810
  297MOL0     C40006   3.992   0.269   6.209 -0.1328 -0.0619 -0.8707
  297MOL0     O40007   3.825   0.461   6.485  0.1072  0.1191  0.0438
  297MOL0     C40008   3.890   0.189   6.731  1.3448  0.1376 -0.7621
  297MOL0     C40009   3.885   0.183   6.877  0.1201  0.0402  0.1072
  297MOL0     N40010   4.242  -0.007   7.581  0.3741  0.0032  0.4072
  297MOL0     N40011   4.347  -0.004   7.655  0.8360 -0.8597  0.1786
  297MOL0     C40012   5.000   0.754   8.348 -0.3343 -0.2653  0.0551
  297MOL0     C40013   5.120   0.815   8.337  0.1246 -0.3302 -0.2814
  297MOL0     C40014   5.447   1.107   8.292 -0.2284 -0.6930  0.1610
  297MOL0     C40015   5.526   0.996   8.291  0.1262  1.0445 -0.3177
  297MOL0     C40016   5.657   1.001   8.254  0.8489 -0.6477 -0.7251
  297MOL0     C40017   5.707   1.118   8.205 -0.4046 -0.1007  0.5046
  297MOL0     O40018   5.833   1.114   8.148 -0.3570 -0.1232 -0.0052
  297MOL0     C40019   5.895   1.227   8.085 -0.2474  0.0682  0.0342
  297MOL0     C40020   5.954   1.324   8.199  0.0122 -0.2332 -0.5226
  297MOL0     C40021   6.006   1.451   8.128  0.1161 -0.4624 -0.5240
  297MOL0     C40022   5.972   1.581   8.208  0.6048 -0.8989 -0.5330
  297MOL0     C40023   6.023   1.692   8.129 -0.4374  0.3186 -0.2612
  297MOL0     C40024   6.065   1.790   8.073  0.2046  0.8963 -0.6538
  297MOL0     C40025   5.634   1.234   8.205  0.4846 -0.0008 -0.7915
  297MOL0     C40026   5.498   1.233   8.246  0.8636  0.2379 -0.2546
  297MOL0     C40027   5.435   1.368   8.256  0.2600 -0.1540  0.3488
  297MOL0     H40028   5.057   1.069   8.541 -1.4816  1.1465 -3.2240
  297MOL0     H40029   4.838   0.941   8.570 -0.7352  0.0415 -1.7783
  297MOL0     H40030   4.750   0.672   8.265  4.0562 -0.6018  0.1866
  297MOL0     H40031   4.804   0.535   8.374  1.9726  0.7376 -1.0946
  297MOL0     H40032   4.532   0.666   8.354  0.0739  0.0297  1.8865
  297MOL0     H40033   4.566   0.549   8.485  1.3177  0.1139  0.1794
  297MOL0     H40034   4.459   0.415   8.318  0.3095 -0.3130 -1.4230
  297MOL0     H40035   4.622   0.379   8.331  1.0233  1.0589 -0.4235
  297MOL0     H40036   4.536   0.595   8.116 -3.8874 -0.3834 -0.9670
  297MOL0     H40037   4.658   0.464   8.115 -0.2478  0.2882 -0.9485
  297MOL0     H40038   4.369   0.408   8.069 -0.5718 -3.7644 -1.1601
  297MOL0     H40039   4.480   0.453   7.943 -0.6170  0.9722  0.4536
  297MOL0     H40040   4.604   0.243   8.011  1.6857  0.7553  1.3801
  297MOL0     H40041   4.492   0.222   8.145  1.5709  0.6920 -0.0426
  297MOL0     H40042   4.301   0.230   7.968  1.5350  1.5871  3.0784
  297MOL0     H40043   4.381   0.077   8.007  1.3239 -0.4706 -1.8271
  297MOL0     H40044   4.493   0.248   7.801 -0.0268  0.3052 -1.6289
  297MOL0     H40045   4.521   0.073   7.842 -1.5900 -1.8186 -1.4400
  297MOL0     H40046   4.208   0.279   7.737  2.2423 -0.4651  2.4314
  297MOL0     H40047   4.020   0.027   7.482 -1.7522 -0.8815  2.1792
  297MOL0     H40048   3.959   0.171   7.568  0.8166  0.3345  1.6040
  297MOL0     H40049   4.047   0.325   7.431  0.4059 -1.3633  1.2288
  297MOL0     H40050   4.148   0.211   7.340  1.6326  0.9184  0.7146
  297MOL0     H40051   3.844   0.198   7.340 -1.1702 -0.6432 -1.5380
  297MOL0     H40052   3.960   0.103   7.241  4.1319  0.6666  1.4541
  297MOL0     H40053   4.034   0.305   7.125  0.8718 -0.0067  1.3137
  297MOL0     H40054   3.927   0.411   7.207 -0.6416  1.8563 -4.5713
  297MOL0     H40055   3.820   0.511   6.955  1.5626 -1.1432  1.6233
  297MOL0     H40056   3.819   0.532   6.712 -1.6874 -0.5414 -0.1047
  297MOL0     H40057   3.671   0.325   6.301  1.6718  2.1499  1.8951
  297MOL0     H40058   3.663   0.379   6.059 -0.0610  0.0451 -2.1630
  297MOL0     H40059   3.897   0.182   5.823 -1.0886 -0.3614  2.6237
  297MOL0     H40060   3.729   0.214   5.813 -1.7610  1.5370  1.6893
  297MOL0     H40061   3.775   0.240   5.598 -0.2777 -0.2586 -1.0054
  297MOL0     H40062   3.762   0.413   5.651  0.9047  0.6820  3.8159
  297MOL0     H40063   4.008   0.442   5.635 -1.2983  0.7331  1.9241
  297MOL0     H40064   4.027   0.266   5.623  1.8715  1.2610 -0.9188
  297MOL0     H40065   3.921   0.430   5.397 -0.8479 -0.1040  0.6316
  297MOL0     H40066   3.910   0.263   5.400  1.1598  0.9395 -2.3977
  297MOL0     H40067   4.190   0.357   5.461  0.4120  1.6575 -0.9767
  297MOL0     H40068   4.140   0.384   5.302  1.8060 -0.9414 -0.2865
  297MOL0     H40069   4.112   0.118   5.428  1.9314  2.1736  2.0368
  297MOL0     H40070   4.073   0.149   5.260  0.5110 -2.0707  1.0804
  297MOL0     H40071   4.338   0.172   5.413 -2.4418  1.2848  1.9649
  297MOL0     H40072   4.336   0.213   5.252  0.6337 -0.8086  0.4836
  297MOL0     H40073   4.263   0.000   5.171 -1.1568 -2.2163  1.3634
  297MOL0     H40074   4.421  -0.000   5.253  0.2574 -2.4100 -0.4154
  297MOL0     H40075   4.077   0.279   6.014  0.4682  0.9612  0.0279
  297MOL0     H40076   4.078   0.245   6.270 -1.3033 -1.0201  0.4681
  297MOL0     H40077   3.914   0.109   6.662  0.8332 -1.3804  0.7412
  297MOL0     H40078   3.893   0.086   6.926 -2.6346  0.7751  2.2891
  297MOL0     H40079   4.999   0.657   8.300 -3.6857 -0.8883  1.0594
  297MOL0     H40080   5.207   0.763   8.299 -1.3777 -2.7863 -0.6005
  297MOL0     H40081   5.486   0.900   8.323 -0.7291  1.4756 -0.0660
  297MOL0     H40082   5.717   0.911   8.255 -0.2687 -1.5270 -3.3428
  297MOL0     H40083   5.817   1.279   8.029  0.8512 -0.0551 -1.6625
  297MOL0     H40084   5.961   1.197   8.003 -2.3973 -3.1223 -0.7089
  297MOL0     H40085   6.039   1.272   8.243  1.3943  2.7927  0.6563
  297MOL0     H40086   5.878   1.342   8.276 -1.3602 -2.0323 -1.3617
  297MOL0     H40087   5.959   1.465   8.030 -2.4638  1.6461  0.8653
  297MOL0     H40088   6.115   1.443   8.129  0.3522  0.9483  3.0818
  297MOL0     H40089   5.864   1.593   8.212  0.9332  2.6761  1.3726
  297MOL0     H40090   6.004   1.568   8.312  3.6431 -1.3946 -1.4295
  297MOL0     H40091   6.098   1.882   8.030  1.7232  0.1845 -1.0891
  297MOL0     H40092   5.674   1.333   8.183 -2.1620  1.5882  0.9175
  297MOL0     H40093   5.502   1.453   8.272 -0.6378  1.3734 -3.0928
  297MOL0     H40094   5.379   1.383   8.163 -0.1429  0.2115  0.6463
  297MOL0     H40095   5.375   1.365   8.348  0.3050 -1.1882  0.3549
  298MOL0     O40096  10.986   1.148   6.091  0.0686 -0.3502 -0.2514
  298MOL0     C40097  10.888   1.194   6.152 -0.3332 -0.1880 -0.0937
  298MOL0     O40098  10.852   1.327   6.149 -0.5388  0.0404  0.3389
  298MOL0     C40099  10.938   1.407   6.079  0.0514  0.8173  0.4318
  298MOL0     C40100  11.032   1.488   6.146 -0.6026  0.6629 -0.4255
  298MOL0     C40101  11.113   1.578   6.069  0.1065 -0.4291 -0.2040
  298MOL0     C40102  11.095   1.581   5.933 -1.1901  0.9986 -0.1410
  298MOL0     O40103  11.165   1.663   5.848  0.2931 -0.7313 -0.3296
  298MOL0     C40104  11.294   1.715   5.869 -0.0022 -0.2811 -0.7473
  298MOL0     C40105  11.302   1.847   5.794 -0.3511  0.3036  0.6963
  298MOL0     C40106  11.414   1.933   5.850  0.1880  0.3496  0.2286
  298MOL0     C40107  11.415   2.077   5.789  0.8309 -0.0687  0.3251
  298MOL0     C40108  11.513   2.159   5.867 -0.3545  0.3823  0.2056
  298MOL0     C40109  11.663   2.127   5.847 -0.2117 -0.0002  0.5008
  298MOL0     C40110  11.757   2.200   5.961 -0.0158 -0.4398  1.3932
  298MOL0     C40111  11.900   2.180   5.920 -1.2593 -0.1815  0.1091
  298MOL0     N40112  11.973   2.302   5.943 -0.1910  0.1164 -0.2246
  298MOL0     C40113  11.953   2.411   5.870 -0.0842 -0.4215  0.1802
  298MOL0     C40114  12.040   2.505   5.902 -0.2333  0.0341 -0.7080
  298MOL0     C40115  12.041   2.647   5.865 -0.0657 -0.1031 -0.1867
  298MOL0     C40116  12.084   2.745   5.980 -0.1225 -0.5231 -0.2972
  298MOL0     C40117  12.082   2.883   5.925  0.3323 -0.2172  0.9126
  298MOL0     C40118  12.118   3.000   6.023  0.0963 -0.0147  0.4471
  298MOL0     O40119  12.227   2.958   6.119 -0.6256  0.2206 -0.2137
  298MOL0     C40120  12.360   2.978   6.081 -1.1299  0.4168  0.2149
  298MOL0     C40121  12.412   3.105   6.046  0.8802  0.8711 -0.5363
  298MOL0     C40122  12.535   3.121   6.003  0.2852  0.8206  0.1883
  298MOL0     C40123  12.621   3.009   5.981 -0.6297 -0.4734  0.5342
  298MOL0     C40124  12.758   3.022   5.925  0.3962 -0.5299  0.0508
  298MOL0     O40125  12.834   2.908   5.927  0.5835  0.3095  0.5014
  298MOL0     C40126  12.949   2.919   5.859 -0.3542  0.6585 -1.2539
  298MOL0     C40127  12.963   2.829   5.757 -0.0624  1.1376 -0.5132
  298MOL0     C40128  13.074   2.815   5.677  0.4325 -0.8977  1.5090
  298MOL0     C40129  13.180   2.901   5.698  0.2102  0.4187 -0.6924
  298MOL0     O40130  13.284   2.891   5.617 -0.2239 -0.8490  0.6365
  298MOL0     C40131  13.294   2.997   5.510 -0.1136  0.5611  1.0922
  298MOL0     C40132  13.336   3.138   5.556  0.0947 -0.7406  0.3654
  298MOL0     C40133  13.464   3.111   5.635 -0.1038 -1.1096 -0.0382
  298MOL0     C40134  13.499   3.227   5.730 -0.5180 -0.8569 -0.0555
  298MOL0     C40135  13.602   3.200   5.846  0.1797 -0.3842 -0.1584
  298MOL0     C40136  13.749   3.178   5.794 -1.0429 -0.2170 -0.5451
  298MOL0     C40137  13.853   3.203   5.906 -0.0116  0.0857  0.4666
  298MOL0     C40138  13.856   3.078   5.985  0.3222  0.1107 -0.6595
  298MOL0    Cl40139  13.913   2.917   5.910 -0.3912  0.0043  0.1705
  298MOL0     C40140  13.165   2.989   5.799  0.0922  0.1401 -0.2022
  298MOL0     C40141  13.056   3.001   5.886  0.2288  0.3092 -0.0441
  298MOL0     O40142  12.783   3.124   5.861  0.2728 -0.2681 -0.5426
  298MOL0     C40143  12.570   2.882   6.027 -0.4821  0.3833  0.2971
  298MOL0     C40144  12.442   2.865   6.076  0.3650  0.2098 -1.5150
  298MOL0     N40145  12.126   2.455   6.001 -0.2912 -0.2073 -0.0054
  298MOL0     N40146  12.087   2.338   6.019  0.0394  0.0493 -0.6908
  298MOL0     C40147  10.996   1.504   5.872 -0.2315 -0.1829 -0.0212
  298MOL0     C40148  10.912   1.418   5.942 -0.6256  0.4066  0.0675
  298MOL0     C40149  10.815   1.111   6.247 -0.3049 -1.0497 -0.1872
  298MOL0     C40150  10.679   1.150   6.278 -0.3990  0.3833  1.1257
  298MOL0     C40151  10.598   1.079   6.360  0.0260  0.7258 -0.2004
  298MOL0     C40152  10.650   0.969   6.427  0.3714  0.6098 -0.1723
  298MOL0     O40153  10.588   0.901   6.532 -0.4677  0.0286 -0.1760
  298MOL0     C40154  10.459   0.943   6.578 -0.1430  0.1103 -0.3183
  298MOL0     C40155  10.355   0.878   6.477  1.1767 -0.2296  0.5279
  298MOL0     C40156  10.359   0.726   6.459 -0.7605  0.6378 -0.2291
  298MOL0     C40157  10.276   0.675   6.341  0.0071 -1.0052  0.1535
  298MOL0     C40158  10.128   0.675   6.364  0.2974 -1.2817 -0.8776
  298MOL0     C40159  10.006   0.688   6.353 -0.8452 -0.1478  0.1506
  298MOL0     C40160  10.785   0.937   6.405 -0.0958  0.2696  0.0422
  298MOL0     C40161  10.873   1.001   6.319  1.1570 -0.0143  0.6473
  298MOL0     C40162  11.018   0.964   6.300 -0.5123  0.5060 -1.0227
  298MOL0     H40163  11.052   1.478   6.252  0.5211  0.3447 -0.6611
  298MOL0     H40164  11.176   1.649   6.121  2.1027 -1.4413 -1.1366
  298MOL0     H40165  11.316   1.722   5.976  0.9520 -1.7454 -0.8221
  298MOL0     H40166  11.373   1.650   5.831 -1.5427 -1.4186 -2.1212
  298MOL0     H40167  11.212   1.909   5.798 -1.0870 -0.7712  1.5303
  298MOL0     H40168  11.319   1.831   5.687 -3.2902  3.0241 -0.3515
  298MOL0     H40169  11.502   1.871   5.831 -0.8528 -1.4511  1.0500
  298MOL0     H40170  11.405   1.945   5.958 -1.0976  3.4556 -0.1155
  298MOL0     H40171  11.432   2.081   5.682 -2.7390  3.9062 -0.3872
  298MOL0     H40172  11.317   2.122   5.808  0.4827 -0.4756 -0.4789
  298MOL0     H40173  11.482   2.261   5.843 -3.2350 -0.5773 -0.5340
  298MOL0     H40174  11.489   2.144   5.973  1.0073  4.2811  1.2629
  298MOL0     H40175  11.674   2.018   5.838 -1.7237 -0.0153 -2.6749
  298MOL0     H40176  11.682   2.160   5.744  1.4780 -0.4486  0.6407
  298MOL0     H40177  11.734   2.173   6.065  2.4128  1.1888  2.4460
  298MOL0     H40178  11.731   2.307   5.959 -2.6748 -1.0294  0.3080
  298MOL0     H40179  11.937   2.091   5.972 -1.7233 -0.8524 -0.6937
  298MOL0     H40180  11.896   2.153   5.814  3.5229  0.7889 -0.5346
  298MOL0     H40181  11.880   2.430   5.791  0.3142 -2.4808 -0.7635
  298MOL0     H40182  12.110   2.650   5.780 -2.0367 -1.7501 -1.9763
  298MOL0     H40183  11.936   2.664   5.839 -0.7306 -0.3581  2.0845
  298MOL0     H40184  12.029   2.737   6.074 -0.6863 -0.6967 -0.6396
  298MOL0     H40185  12.190   2.728   6.000  0.3198  1.2068 -0.9664
  298MOL0     H40186  11.984   2.919   5.893 -0.4537 -3.3683 -0.6130
  298MOL0     H40187  12.148   2.889   5.837  0.1865  0.9672  0.8716
  298MOL0     H40188  12.025   3.025   6.076 -1.1754 -2.0093 -0.6849
  298MOL0     H40189  12.144   3.088   5.964  3.4309  0.1311  1.9006
  298MOL0     H40190  12.347   3.190   6.063 -0.0960 -0.1303  0.9976
  298MOL0     H40191  12.573   3.220   5.983  1.1643  0.7781  1.5053
  298MOL0     H40192  12.895   2.751   5.724  0.7155  0.2601 -0.1051
  298MOL0     H40193  13.075   2.750   5.590 -3.7959  0.1214  0.4844
  298MOL0     H40194  13.364   2.962   5.433 -1.8283  1.0069 -0.7443
  298MOL0     H40195  13.202   2.990   5.451  0.7076 -2.8164 -0.0321
  298MOL0     H40196  13.351   3.204   5.469  0.4894 -0.3174  0.7466
  298MOL0     H40197  13.258   3.193   5.609 -1.0606  0.9355 -2.8156
  298MOL0     H40198  13.450   3.030   5.708 -0.6629 -1.4122 -0.4803
  298MOL0     H40199  13.552   3.103   5.571  0.9707  1.9805  0.8669
  298MOL0     H40200  13.412   3.268   5.783  2.5766 -0.1009  5.0677
  298MOL0     H40201  13.545   3.302   5.664 -0.4542 -1.1344 -0.3238
  298MOL0     H40202  13.563   3.118   5.907 -1.0571  0.4489  0.2133
  298MOL0     H40203  13.610   3.287   5.912  1.1706 -0.0282 -0.7175
  298MOL0     H40204  13.752   3.074   5.759  0.5080 -0.0639 -0.9230
  298MOL0     H40205  13.764   3.253   5.715  0.3088  0.7116  0.5463
  298MOL0     H40206  13.836   3.287   5.974  2.7226 -1.1811  2.8800
  298MOL0     H40207  13.948   3.227   5.858 -1.4069 -0.0249 -2.6621
  298MOL0     H40208  13.918   3.098   6.072 -0.5283  0.0377 -0.0223
  298MOL0     H40209  13.755   3.052   6.019  0.7776 -3.2402 -1.4904
  298MOL0     H40210  13.229   3.077   5.799  0.4492 -0.1034  0.7819
  298MOL0     H40211  13.047   3.075   5.965 -0.3773  1.4330 -1.1166
  298MOL0     H40212  12.637   2.797   6.031 -0.5365 -0.1175 -3.9979
  298MOL0     H40213  12.418   2.775   6.131  0.5753 -0.4824 -2.5181
  298MOL0     H40214  10.970   1.517   5.768 -0.5079 -0.4916  0.0053
  298MOL0     H40215  10.829   1.360   5.903 -1.4965 -0.8921  3.5270
  298MOL0     H40216  10.647   1.231   6.213  3.0364  0.4905 -0.6832
  298MOL0     H40217  10.495   1.112   6.374 -0.1230  0.4139 -0.5342
  298MOL0     H40218  10.451   1.051   6.588  0.6894  0.2575 -1.0761
  298MOL0     H40219  10.445   0.914   6.682 -0.6486  0.6499 -0.2299
  298MOL0     H40220  10.366   0.930   6.382 -1.4390 -2.4447 -1.1275
  298MOL0     H40221  10.249   0.896   6.500  1.1107  2.3749 -1.3661
  298MOL0     H40222  10.322   0.687   6.554 -1.4295  0.9925 -0.3399
  298MOL0     H40223  10.465   0.702   6.444 -0.1754  2.8073  0.1517
  298MOL0     H40224  10.295   0.735   6.252 -2.1052  0.8911  0.8961
  298MOL0     H40225  10.299   0.574   6.306  0.8780 -0.5016 -0.7774
  298MOL0     H40226   9.900   0.672   6.364 -0.3200 -2.5709  2.8241
  298MOL0     H40227  10.829   0.867   6.475  1.3535  1.3098  0.2166
  298MOL0     H40228  11.082   1.050   6.319  0.4077 -0.5411  0.8409
  298MOL0     H40229  11.037   0.893   6.381 -1.2779  0.0089 -1.2624
  298MOL0     H40230  11.045   0.912   6.208  0.4377  1.1990 -1.1452
  299MOL0     O40231   1.551   8.362   6.816 -1.1199  0.0680  0.3040
  299MOL0     C40232   1.550   8.256   6.759 -0.2513 -0.1263 -0.4962
  299MOL0     O40233   1.547   8.139   6.822  0.4375  0.8513  0.1035
  299MOL0     C40234   1.591   8.131   6.954 -0.5686 -0.3859  1.0417
  299MOL0     C40235   1.716   8.082   6.971  0.0406  0.0081 -0.1135
  299MOL0     C40236   1.766   8.065   7.103 -0.2445 -0.8522  0.5185
  299MOL0     C40237   1.692   8.093   7.216  0.0824 -0.5940  0.3189
  299MOL0     O40238   1.727   8.059   7.355 -0.0353  0.1346  0.1543
  299MOL0     C40239   1.855   7.995   7.378 -0.1223 -0.0983  0.0353
  299MOL0     C40240   1.971   8.084   7.377 -0.4019 -0.0208 -0.4083
  299MOL0     C40241   2.053   8.048   7.503 -0.3697 -0.5388  0.1776
  299MOL0     C40242   2.164   8.148   7.525 -0.1567 -0.2889 -0.8728
  299MOL0     C40243   2.289   8.084   7.608 -0.6081  0.0707 -0.5806
  299MOL0     C40244   2.262   7.984   7.730  1.0167  0.2594  0.2366
  299MOL0     C40245   2.392   7.938   7.803  0.0917  0.2382  0.8523
  299MOL0     C40246   2.483   7.859   7.699 -1.3727  0.5543  0.1700
  299MOL0     N40247   2.431   7.737   7.644 -0.1166 -0.3924  0.2850
  299MOL0     C40248   2.344   7.645   7.706  0.5104 -0.1406  0.6468
  299MOL0     C40249   2.358   7.530   7.640  0.4152  0.0445  0.2747
  299MOL0     C40250   2.287   7.404   7.668 -0.1818 -0.2699 -0.0245
  299MOL0     C40251   2.149   7.425   7.721  0.2497  0.1074  0.2820
  299MOL0     C40252   2.078   7.294   7.713  0.6077  0.5083 -0.8698
  299MOL0     C40253   2.113   7.203   7.834  0.0993  0.1184  0.0569
  299MOL0     O40254   2.032   7.085   7.838 -0.2886  0.5896  0.4921
  299MOL0     C40255   1.896   7.105   7.855 -0.8720 -0.3427 -0.2980
  299MOL0     C40256   1.822   7.215   7.890 -0.1461 -0.3760 -0.0592
  299MOL0     C40257   1.682   7.208   7.904 -0.4492  0.7605 -0.4816
  299MOL0     C40258   1.615   7.093   7.892  1.3185  0.7356 -0.9194
  299MOL0     C40259   1.465   7.083   7.909  0.0752 -0.1592  0.9769
  299MOL0     O40260   1.400   7.187   7.955 -1.0149  0.3548 -0.4247
  299MOL0     C40261   1.263   7.205   7.950  0.6893 -0.5258 -0.7292
  299MOL0     C40262   1.215   7.344   7.946 -0.4949  0.4922 -0.3007
  299MOL0     C40263   1.078   7.377   7.926  0.1574  0.3884  0.3134
  299MOL0     C40264   0.983   7.279   7.928 -0.3583  0.0461  0.9282
  299MOL0     O40265   0.847   7.309   7.922 -0.1314  0.4668  0.0900
  299MOL0     C40266   0.816   7.397   7.813  0.2151 -0.1072 -0.9773
  299MOL0     C40267   0.685   7.466   7.813  0.7457 -0.4978  1.2552
  299MOL0     C40268   0.678   7.569   7.694  0.0538  0.0026  0.7102
  299MOL0     C40269   0.545   7.646   7.710  0.0266  0.4612 -0.3176
  299MOL0     C40270   0.519   7.715   7.583  0.6507 -0.2331 -0.7631
  299MOL0     C40271   0.383   7.786   7.571  0.5416 -0.6546  0.1979
  299MOL0     C40272   0.351   7.865   7.446 -0.2214  0.3425  0.0242
  299MOL0     C40273   0.218   7.929   7.445 -0.2884 -0.1076  0.2623
  299MOL0    Cl40274   0.085   7.802   7.425 -0.4639 -0.2614 -0.4633
  299MOL0     C40275   1.029   7.142   7.935 -0.5196  0.2869 -0.2787
  299MOL0     C40276   1.165   7.108   7.945  0.0824 -0.3063  0.3341
  299MOL0     O40277   1.408   6.984   7.868 -0.9789 -0.3554  0.6077
  299MOL0     C40278   1.689   6.974   7.856  0.1180 -0.5432 -0.0632
  299MOL0     C40279   1.828   6.980   7.835 -0.1751  1.3297  0.3448
  299MOL0     N40280   2.428   7.560   7.523  0.2722  0.0980  0.0194
  299MOL0     N40281   2.466   7.689   7.518  0.4714 -0.6303  0.1084
  299MOL0     C40282   1.559   8.137   7.202  0.4231 -0.0294 -0.5032
  299MOL0     C40283   1.505   8.160   7.068  0.4252  0.0376  0.1756
  299MOL0     C40284   1.521   8.266   6.619  0.1080 -0.3263 -0.4975
  299MOL0     C40285   1.465   8.144   6.562 -0.4899  0.1146 -0.6717
  299MOL0     C40286   1.440   8.137   6.421  1.4337 -0.4203 -0.5472
  299MOL0     C40287   1.457   8.247   6.338 -0.1219  0.9217  0.5277
  299MOL0     O40288   1.432   8.233   6.202  1.0041 -0.0988  0.4121
  299MOL0     C40289   1.463   8.332   6.113 -0.3138  0.0943 -0.6823
  299MOL0     C40290   1.495   8.288   5.967 -0.1331 -0.8595  0.5753
  299MOL0     C40291   1.366   8.305   5.877 -0.5126  1.1025  0.6033
  299MOL0     C40292   1.358   8.218   5.750  0.2459  0.0478  0.9546
  299MOL0     C40293   1.470   8.250   5.667  0.4055 -0.5189  0.5518
  299MOL0     C40294   1.556   8.280   5.581  0.3214  0.1354  0.4045
  299MOL0     C40295   1.500   8.371   6.397 -0.0760  0.2123  0.4450
  299MOL0     C40296   1.545   8.384   6.534 -0.1072  0.2478 -0.3423
  299MOL0     C40297   1.618   8.504   6.579 -0.2811  0.5048  0.2559
  299MOL0     H40298   1.771   8.053   6.882  0.3381  0.6231 -0.1326
  299MOL0     H40299   1.869   8.040   7.127 -0.6263 -1.1542  1.9118
  299MOL0     H40300   1.844   7.953   7.478  1.0471  2.6046  1.3997
  299MOL0     H40301   1.882   7.915   7.308 -1.5394  0.1719 -0.8578
  299MOL0     H40302   1.943   8.190   7.367 -0.0733 -0.1854 -4.3254
  299MOL0     H40303   2.033   8.078   7.288  1.3926  1.9435  0.6209
  299MOL0     H40304   2.090   7.945   7.509  0.1020 -0.2885  2.8507
  299MOL0     H40305   1.990   8.044   7.593 -1.3004  1.0265 -0.3727
  299MOL0     H40306   2.195   8.184   7.426  0.0880 -1.0302 -1.0706
  299MOL0     H40307   2.141   8.238   7.581  3.6151 -0.2864  0.9550
  299MOL0     H40308   2.332   8.025   7.526 -1.5459 -1.3753 -0.0762
  299MOL0     H40309   2.361   8.158   7.645  1.0938 -0.1871 -3.1348
  299MOL0     H40310   2.198   8.029   7.807  0.8479 -1.0825  0.8933
  299MOL0     H40311   2.213   7.893   7.695  0.7990  0.2668  0.5185
  299MOL0     H40312   2.367   7.869   7.884 -1.8256  0.7989  0.7786
  299MOL0     H40313   2.440   8.029   7.841 -1.0045  1.2848 -0.1865
  299MOL0     H40314   2.505   7.910   7.604 -0.1450 -1.1991 -0.5466
  299MOL0     H40315   2.581   7.829   7.737 -1.3566 -0.3020 -0.5044
  299MOL0     H40316   2.292   7.657   7.801 -0.2201 -1.1371  0.3903
  299MOL0     H40317   2.279   7.360   7.568 -2.0339  4.9709 -2.5551
  299MOL0     H40318   2.349   7.347   7.738 -1.3510 -2.2369 -0.4980
  299MOL0     H40319   2.158   7.477   7.818 -1.9745  1.7427 -0.3134
  299MOL0     H40320   2.107   7.497   7.650  0.6327  1.6802  1.5816
  299MOL0     H40321   2.097   7.239   7.621 -1.3356 -0.4498 -0.7415
  299MOL0     H40322   1.970   7.309   7.713 -0.3354 -4.2451  2.3615
  299MOL0     H40323   2.102   7.257   7.928  1.4741  0.0399  0.2808
  299MOL0     H40324   2.216   7.168   7.824 -0.2194 -0.1733 -3.5376
  299MOL0     H40325   1.871   7.309   7.916  0.1805 -0.8560  1.1729
  299MOL0     H40326   1.653   7.310   7.931  2.0803  0.7189  3.1242
  299MOL0     H40327   1.297   7.415   7.953  0.1917  0.0680 -3.0918
  299MOL0     H40328   1.048   7.481   7.929 -0.5348  0.1710  2.5493
  299MOL0     H40329   0.884   7.483   7.814 -0.0389  0.2480  3.3947
  299MOL0     H40330   0.821   7.336   7.722 -2.7282 -0.0685 -1.2718
  299MOL0     H40331   0.601   7.396   7.802  0.6918 -0.2735  0.2032
  299MOL0     H40332   0.652   7.517   7.904 -6.2631 -2.5320  0.4035
  299MOL0     H40333   0.756   7.644   7.708  0.0585 -0.0664  1.0474
  299MOL0     H40334   0.689   7.512   7.601 -1.3629  1.8783 -0.6753
  299MOL0     H40335   0.561   7.721   7.788 -0.6392 -1.5076  1.7970
  299MOL0     H40336   0.466   7.577   7.739  0.9729  0.4250  2.4158
  299MOL0     H40337   0.525   7.636   7.507 -0.5507 -2.2139  1.0850
  299MOL0     H40338   0.598   7.790   7.569 -1.3888  1.8463 -1.9170
  299MOL0     H40339   0.300   7.715   7.577 -0.8391  1.0272  2.6467
  299MOL0     H40340   0.356   7.863   7.644  0.6278 -1.3923  1.0147
  299MOL0     H40341   0.365   7.793   7.365 -2.0728  0.4265 -0.4084
  299MOL0     H40342   0.432   7.938   7.443 -1.0573  1.6079  3.6260
  299MOL0     H40343   0.209   7.992   7.534  1.6732  0.6886 -0.0608
  299MOL0     H40344   0.213   7.995   7.358 -0.0915  0.6151  0.7903
  299MOL0     H40345   0.954   7.064   7.941  0.3820 -0.5557  0.6610
  299MOL0     H40346   1.189   7.002   7.947  0.4467 -0.2459 -0.6145
  299MOL0     H40347   1.650   6.874   7.839  2.0910 -1.2880 -0.5535
  299MOL0     H40348   1.890   6.895   7.807  0.9065  1.8090  1.2094
  299MOL0     H40349   1.495   8.160   7.287  1.5990  2.3489 -0.1854
  299MOL0     H40350   1.403   8.191   7.050  0.6118  1.4842  1.3830
  299MOL0     H40351   1.441   8.060   6.626 -0.8863 -0.2026 -1.2312
  299MOL0     H40352   1.401   8.044   6.381  0.1583 -0.8197  1.4645
  299MOL0     H40353   1.550   8.391   6.143  1.0710 -0.2552 -3.6998
  299MOL0     H40354   1.385   8.409   6.111  0.5686  1.0083 -0.6421
  299MOL0     H40355   1.526   8.184   5.951  4.3542  0.6455 -2.3730
  299MOL0     H40356   1.565   8.358   5.922  0.9216 -1.9366  0.4952
  299MOL0     H40357   1.355   8.410   5.848 -2.8520  1.0101  0.9370
  299MOL0     H40358   1.273   8.281   5.930 -1.1501  0.2521 -0.8252
  299MOL0     H40359   1.360   8.111   5.772 -0.2182 -0.1764 -0.0457
  299MOL0     H40360   1.262   8.243   5.705  0.3604  2.3163  1.8429
  299MOL0     H40361   1.625   8.300   5.502  2.6611 -0.5074  2.1517
  299MOL0     H40362   1.512   8.458   6.333  1.3405 -2.0773 -2.6769
  299MOL0     H40363   1.642   8.567   6.493  5.4118  0.0515  1.1524
  299MOL0     H40364   1.578   8.556   6.667 -2.2160  0.6138 -0.6434
  299MOL0     H40365   1.722   8.479   6.603 -0.3094  1.0710  1.0016
  300MOL0     O40366  10.471  11.484   4.302  0.3738  0.0101  0.0094
  300MOL0     C40367  10.448  11.461   4.184 -0.1660 -0.6285  0.8298
  300MOL0     O40368  10.419  11.340   4.126 -0.4885  0.3486 -0.5202
  300MOL0     C40369  10.424  11.231   4.208 -0.1129  0.9644 -0.0704
  300MOL0     C40370  10.331  11.221   4.313 -0.8018 -0.7501 -0.2473
  300MOL0     C40371  10.345  11.104   4.395 -0.5170 -1.0861 -0.7646
  300MOL0     C40372  10.443  11.005   4.384 -0.9627  0.3033  0.1293
  300MOL0     O40373  10.430  10.897   4.470  0.3905 -0.1247 -0.3338
  300MOL0     C40374  10.544  10.816   4.503 -1.0310 -0.0437  0.0268
  300MOL0     C40375  10.493  10.704   4.579 -0.3152  0.2360 -0.4866
  300MOL0     C40376  10.597  10.634   4.663 -0.2929  0.0268  0.4600
  300MOL0     C40377  10.534  10.521   4.751 -0.6192  0.0047  0.1191
  300MOL0     C40378  10.630  10.452   4.841  0.5414 -0.6127 -0.3605
  300MOL0     C40379  10.739  10.382   4.766 -0.5159 -0.4301 -0.1328
  300MOL0     C40380  10.821  10.291   4.859 -0.2153  0.5495  0.0053
  300MOL0     C40381  10.762  10.148   4.885 -0.6090 -0.7873  0.4464
  300MOL0     N40382  10.806  10.069   5.007 -0.1657 -0.6511 -0.1749
  300MOL0     C40383  10.894  10.102   5.109  0.6628  0.4714  0.3815
  300MOL0     C40384  10.926   9.983   5.159  0.2865 -0.0396  0.2703
  300MOL0     C40385  11.013   9.967   5.276 -0.5077  0.1439  0.6606
  300MOL0     C40386  10.980  10.027   5.419 -0.3012  0.0304 -0.4642
  300MOL0     C40387  11.107  10.024   5.515  0.0883 -0.4727  0.3549
  300MOL0     C40388  11.117  10.145   5.614  0.0980  0.2127  0.6318
  300MOL0     O40389  11.231  10.110   5.701 -0.7392  0.9188  1.1487
  300MOL0     C40390  11.358  10.173   5.681  0.3152  0.5821 -0.2160
  300MOL0     C40391  11.466  10.140   5.766  0.5351 -0.9768  0.6719
  300MOL0     C40392  11.597  10.194   5.757  0.2066  0.2881 -0.0958
  300MOL0     C40393  11.622  10.280   5.651  0.0254 -0.5700  0.0101
  300MOL0     C40394  11.759  10.325   5.628 -0.6399 -0.2541  0.3012
  300MOL0     O40395  11.770  10.401   5.505 -0.4700  0.0287 -0.0123
  300MOL0     C40396  11.880  10.475   5.469  0.6311 -0.4618  0.9431
  300MOL0     C40397  11.929  10.575   5.541  0.3551  0.6784 -0.3934
  300MOL0     C40398  12.046  10.645   5.519  0.4833 -0.6915  0.6737
  300MOL0     C40399  12.122  10.610   5.407 -0.1775  1.6099  0.2632
  300MOL0     O40400  12.242  10.668   5.373  0.1096  0.5729 -0.2307
  300MOL0     C40401  12.296  10.774   5.449 -0.1582 -0.7814 -0.5062
  300MOL0     C40402  12.438  10.810   5.414  0.4165 -0.0207 -0.5967
  300MOL0     C40403  12.563  10.733   5.480  0.0304 -0.1623 -0.5146
  300MOL0     C40404  12.540  10.585   5.492  0.9972  0.4066 -0.3563
  300MOL0     C40405  12.642  10.506   5.561  1.4367 -1.0171  0.1372
  300MOL0     C40406  12.620  10.354   5.553 -0.1459 -0.6252 -0.8107
  300MOL0     C40407  12.614  10.296   5.409  0.2641  0.4093 -0.0085
  300MOL0     C40408  12.618  10.150   5.406 -0.6754  0.7745  0.4502
  300MOL0    Cl40409  12.452  10.086   5.458 -0.2395  0.0469  0.2823
  300MOL0     C40410  12.070  10.516   5.320  0.3343  0.0667  0.2917
  300MOL0     C40411  11.949  10.452   5.356 -0.0625  0.4233 -1.0192
  300MOL0     O40412  11.850  10.302   5.709 -0.8835  0.0906 -0.3234
  300MOL0     C40413  11.510  10.322   5.569 -0.2776 -0.4360  0.2874
  300MOL0     C40414  11.388  10.264   5.578  0.9920 -0.6396  0.2004
  300MOL0     N40415  10.857   9.880   5.103 -0.2418  0.1692 -0.0654
  300MOL0     N40416  10.787   9.939   5.009  0.8647  0.1239  0.2482
  300MOL0     C40417  10.531  11.015   4.274 -1.4090 -0.0701 -0.3822
  300MOL0     C40418  10.521  11.126   4.188  0.2228  0.1114 -0.1514
  300MOL0     C40419  10.443  11.596   4.101  0.0884  0.0404 -0.3835
  300MOL0     C40420  10.463  11.568   3.965 -0.4464 -0.4135 -0.4445
  300MOL0     C40421  10.451  11.674   3.876 -0.0521 -0.2529  0.2415
  300MOL0     C40422  10.434  11.808   3.928 -0.1999  0.2215 -0.1750
  300MOL0     O40423  10.441  11.915   3.847  0.0264  0.1307  1.0832
  300MOL0     C40424  10.399  12.052   3.883 -0.0994  0.6452 -0.7789
  300MOL0     C40425  10.366  12.129   3.760 -0.2402 -0.4489  0.8625
  300MOL0     C40426  10.281  12.057   3.657  0.8761  0.0434  0.2791
  300MOL0     C40427  10.360  11.970   3.551  0.5593  0.2680  0.5288
  300MOL0     C40428  10.260  11.865   3.511 -1.2545  0.6841  0.0798
  300MOL0     C40429  10.209  11.787   3.434  1.0550  0.5309 -0.8640
  300MOL0     C40430  10.415  11.832   4.065  0.1069 -0.1731  0.4238
  300MOL0     C40431  10.420  11.730   4.158 -0.4821  1.1002 -0.1817
  300MOL0     C40432  10.417  11.757   4.311  0.1027 -0.7696  1.0298
  300MOL0     H40433  10.275  11.312   4.334  2.8072  1.8181 -0.7067
  300MOL0     H40434  10.282  11.081   4.479  0.3074  0.3789  0.3046
  300MOL0     H40435  10.588  10.782   4.409  0.1112  0.3570  0.4014
  300MOL0     H40436  10.611  10.878   4.564  0.1202  0.3235 -1.5427
  300MOL0     H40437  10.437  10.633   4.518  1.6746 -1.9204  0.0588
  300MOL0     H40438  10.415  10.738   4.648 -0.2953 -1.7356  0.5806
  300MOL0     H40439  10.643  10.713   4.723  0.4049  0.0420 -0.0786
  300MOL0     H40440  10.667  10.589   4.593 -0.9001 -2.1111  1.1507
  300MOL0     H40441  10.457  10.576   4.806 -0.8337  0.4095 -0.5642
  300MOL0     H40442  10.480  10.443   4.695  0.1161  0.5379 -1.3864
  300MOL0     H40443  10.672  10.520   4.916 -0.3482 -0.3699 -0.0775
  300MOL0     H40444  10.569  10.380   4.897 -2.4474  1.3346 -0.8990
  300MOL0     H40445  10.702  10.317   4.686 -0.1561 -5.6961  3.4484
  300MOL0     H40446  10.801  10.461   4.722  0.3302 -1.5065 -0.9555
  300MOL0     H40447  10.833  10.354   4.948 -2.9963  2.4250 -0.8020
  300MOL0     H40448  10.918  10.272   4.811 -0.7194  0.4296 -1.0076
  300MOL0     H40449  10.653  10.150   4.877 -0.4616  1.7516 -3.7712
  300MOL0     H40450  10.798  10.082   4.806 -0.4521  0.6259 -0.7144
  300MOL0     H40451  10.929  10.203   5.128  2.5664  0.0808 -0.8522
  300MOL0     H40452  11.017   9.859   5.290 -2.2516 -0.2881 -1.6126
  300MOL0     H40453  11.113  10.002   5.250  0.2069 -1.1170  1.5883
  300MOL0     H40454  10.946  10.129   5.402 -0.3292  0.7799  3.2162
  300MOL0     H40455  10.907   9.967   5.475 -0.0545 -1.1282 -1.3369
  300MOL0     H40456  11.207  10.027   5.470  0.3216  2.2401  0.8489
  300MOL0     H40457  11.097   9.934   5.577 -2.2055 -2.5805 -2.7462
  300MOL0     H40458  11.024  10.139   5.672 -2.5550 -0.0585 -3.2708
  300MOL0     H40459  11.129  10.247   5.578 -0.5793 -0.2614 -1.0421
  300MOL0     H40460  11.462  10.059   5.838 -3.5038 -1.1799  0.4216
  300MOL0     H40461  11.673  10.147   5.819 -1.9267 -1.7127  1.1900
  300MOL0     H40462  11.886  10.588   5.640  2.3601  1.5993  0.4052
  300MOL0     H40463  12.079  10.712   5.598  2.8814 -1.5797  0.4979
  300MOL0     H40464  12.237  10.864   5.428  1.5989  1.1503  2.2356
  300MOL0     H40465  12.306  10.756   5.557  0.3770  0.8531 -0.2585
  300MOL0     H40466  12.457  10.814   5.306  2.2037 -0.8358 -0.3412
  300MOL0     H40467  12.438  10.915   5.444 -1.3984  0.1395 -1.0119
  300MOL0     H40468  12.650  10.743   5.415  0.6215 -0.4365  0.2128
  300MOL0     H40469  12.576  10.777   5.580 -3.2584 -0.5301  0.1979
  300MOL0     H40470  12.518  10.542   5.394  1.8052 -1.6137  0.2871
  300MOL0     H40471  12.450  10.585   5.554  0.2531  2.0209 -1.3784
  300MOL0     H40472  12.645  10.543   5.664 -1.8593  1.3954 -0.4825
  300MOL0     H40473  12.740  10.529   5.517  1.0022  1.8767  0.5072
  300MOL0     H40474  12.685  10.298   5.621  0.1724  1.6723  0.8692
  300MOL0     H40475  12.519  10.338   5.594 -0.6055 -4.9758 -2.9821
  300MOL0     H40476  12.700  10.328   5.349 -0.0022 -1.7221 -1.6370
  300MOL0     H40477  12.523  10.323   5.356  0.8674 -0.9280 -1.8128
  300MOL0     H40478  12.642  10.117   5.305 -1.7135  4.3509 -1.1280
  300MOL0     H40479  12.698  10.112   5.470 -1.5412 -2.1312 -0.0137
  300MOL0     H40480  12.121  10.496   5.227 -0.7259 -0.7168 -0.1444
  300MOL0     H40481  11.901  10.379   5.292 -2.9734  0.4361  0.9923
  300MOL0     H40482  11.540  10.401   5.500  0.1169 -2.5694 -2.1216
  300MOL0     H40483  11.314  10.309   5.512  0.0677  0.1859  1.7134
  300MOL0     H40484  10.606  10.940   4.251 -0.5040  0.8438 -0.5144
  300MOL0     H40485  10.604  11.135   4.119 -0.9476 -0.5241 -1.7050
  300MOL0     H40486  10.485  11.475   3.913  2.3068 -0.2924  0.3323
  300MOL0     H40487  10.459  11.643   3.772  0.5692  1.8920 -0.4097
  300MOL0     H40488  10.479  12.105   3.936  0.5393 -1.0167 -0.0037
  300MOL0     H40489  10.309  12.038   3.943 -0.6301  0.4964 -1.5905
  300MOL0     H40490  10.462  12.151   3.714 -1.1074 -1.1310 -1.4045
  300MOL0     H40491  10.321  12.227   3.782 -3.2562 -1.3916 -0.5527
  300MOL0     H40492  10.229  12.137   3.603 -0.1051 -1.0536 -0.4744
  300MOL0     H40493  10.203  12.002   3.710 -0.1537 -0.6687 -1.8436
  300MOL0     H40494  10.388  12.037   3.469 -0.8241  1.6105  1.0994
  300MOL0     H40495  10.447  11.920   3.594  0.6197  0.5520  0.7437
  300MOL0     H40496  10.171  11.726   3.355 -0.7894  0.7896 -0.2233
  300MOL0     H40497  10.415  11.932   4.108 -2.1843  0.7308 -1.4857
  300MOL0     H40498  10.328  11.723   4.365 -0.0645  0.1755  1.3750
  300MOL0     H40499  10.500  11.721   4.371 -0.2867  0.0950  2.1244
  300MOL0     H40500  10.420  11.865   4.327  0.2189 -0.6539  0.2880
  301MOL0     O40501   5.414   1.579   3.503 -0.5236  0.6671 -0.2321
  301MOL0     C40502   5.440   1.668   3.592 -0.0216 -0.9815  0.5624
  301MOL0     O40503   5.468   1.627   3.723 -0.4767  0.9185  0.3443
  301MOL0     C40504   5.454   1.498   3.780 -0.9030  0.2009  0.1323
  301MOL0     C40505   5.333   1.461   3.832  0.1706  0.9107 -0.6023
  301MOL0     C40506   5.317   1.333   3.881  0.8139 -0.3293  0.3008
  301MOL0     C40507   5.418   1.237   3.870  0.8210 -0.3544  0.1602
  301MOL0     O40508   5.404   1.119   3.930 -0.7001  0.4521  0.2176
  301MOL0     C40509   5.296   1.035   3.880  0.5660 -0.3013  0.0941
  301MOL0     C40510   5.183   1.024   3.989 -1.5338  0.1745  0.8144
  301MOL0     C40511   5.099   0.908   3.959  0.2446  0.5835  0.2968
  301MOL0     C40512   5.012   0.922   3.842  1.1729  0.3443  1.0721
  301MOL0     C40513   4.931   0.794   3.808  0.6056 -0.8995  1.1840
  301MOL0     C40514   4.846   0.815   3.674 -0.3974  0.9518 -0.6187
  301MOL0     C40515   4.770   0.686   3.635  0.2685 -0.5474 -0.0773
  301MOL0     C40516   4.620   0.688   3.675  0.1526  0.0157 -0.8379
  301MOL0     N40517   4.578   0.739   3.811  0.3396 -0.6234  0.0547
  301MOL0     C40518   4.615   0.680   3.932 -1.1836 -0.5015 -0.3484
  301MOL0     C40519   4.574   0.762   4.039  0.4169 -0.0910  0.6332
  301MOL0     C40520   4.594   0.732   4.187  0.4516 -0.2731 -0.5531
  301MOL0     C40521   4.734   0.784   4.236  0.1217  0.7373 -0.0979
  301MOL0     C40522   4.778   0.714   4.375 -0.1426  0.7696 -0.2487
  301MOL0     C40523   4.866   0.585   4.355 -0.2658  0.0624 -0.0313
  301MOL0     O40524   4.801   0.489   4.268 -0.4721  0.0888  0.7793
  301MOL0     C40525   4.886   0.400   4.204 -0.1002  0.2552  0.3946
  301MOL0     C40526   4.897   0.416   4.065 -0.1229 -0.0479  0.3993
  301MOL0     C40527   4.982   0.327   4.001  0.0237  0.1694  0.3453
  301MOL0     C40528   5.075   0.243   4.064 -0.0239 -0.1785  0.3337
  301MOL0     C40529   5.169   0.160   3.981 -0.1612  1.3982  0.0942
  301MOL0     O40530   5.203   0.206   3.866 -0.4621  0.2061 -0.1473
  301MOL0     C40531   5.278   0.107   3.796 -0.3542  0.4793  0.1304
  301MOL0     C40532   5.220   0.039   3.689  0.0870 -0.0941  0.6450
  301MOL0     C40533   5.294  -0.050   3.607 -0.1555  0.8656  0.0456
  301MOL0     C40534   5.434  -0.074   3.632  0.5947  0.4289  0.0839
  301MOL0     O40535   5.499  -0.157   3.539  0.9851 -0.1559  0.5842
  301MOL0     C40536   5.627  -0.216   3.579  0.4122 -0.2623 -1.3562
  301MOL0     C40537   5.670  -0.328   3.484  0.0900  0.0585  0.4877
  301MOL0     C40538   5.588  -0.456   3.503  0.6033 -0.2093 -0.3788
  301MOL0     C40539   5.638  -0.582   3.432 -1.0840  0.0242 -0.4753
  301MOL0     C40540   5.580  -0.710   3.486  0.7079  1.0425  0.1842
  301MOL0     C40541   5.664  -0.824   3.414  0.2666 -0.6590 -0.5758
  301MOL0     C40542   5.587  -0.965   3.396  0.0462 -0.5087  0.0618
  301MOL0     C40543   5.671  -1.070   3.316  0.1414 -0.1107 -0.3123
  301MOL0    Cl40544   5.667  -1.049   3.136  0.1618  0.1460  0.3261
  301MOL0     C40545   5.486  -0.011   3.743  0.5063 -0.6776 -0.2562
  301MOL0     C40546   5.411   0.080   3.824  1.0322 -1.1629 -0.8438
  301MOL0     O40547   5.199   0.051   4.035 -0.3455  0.2734  0.5130
  301MOL0     C40548   5.065   0.242   4.201  0.3706 -0.3428  0.2452
  301MOL0     C40549   4.979   0.321   4.268  0.7070 -0.2544 -0.6764
  301MOL0     N40550   4.531   0.873   3.973 -0.2775 -0.1594 -0.7550
  301MOL0     N40551   4.540   0.868   3.840 -0.0200 -0.0849 -0.9014
  301MOL0     C40552   5.543   1.283   3.824 -0.1972  0.7442 -1.2432
  301MOL0     C40553   5.556   1.413   3.778 -0.4831 -0.6276  0.0103
  301MOL0     C40554   5.431   1.809   3.568  0.4101  1.0248 -0.2681
  301MOL0     C40555   5.446   1.892   3.683 -0.5826  0.9035 -0.5057
  301MOL0     C40556   5.459   2.033   3.681  0.2525 -0.4081  0.6155
  301MOL0     C40557   5.461   2.083   3.541  0.3024  0.4298 -1.0875
  301MOL0     O40558   5.483   2.213   3.502  0.3692  0.1616 -0.4236
  301MOL0     C40559   5.467   2.310   3.612 -0.4106 -0.2017 -0.2881
  301MOL0     C40560   5.314   2.340   3.654 -0.0635 -0.1861 -0.4042
  301MOL0     C40561   5.217   2.326   3.536 -0.3554 -0.4570  0.6489
  301MOL0     C40562   5.235   2.430   3.421  0.0940 -0.1573  0.6683
  301MOL0     C40563   5.263   2.568   3.465 -0.2381  1.0078 -0.0646
  301MOL0     C40564   5.267   2.681   3.503 -0.0152 -0.1989 -0.2597
  301MOL0     C40565   5.424   2.002   3.435 -0.3223  0.1090  0.2145
  301MOL0     C40566   5.419   1.864   3.445  0.2494 -0.9820  0.8343
  301MOL0     C40567   5.384   1.790   3.311  0.2702  0.2423  0.5555
  301MOL0     H40568   5.251   1.530   3.846 -1.0008 -0.7304  1.1297
  301MOL0     H40569   5.227   1.303   3.933  2.8578 -1.9307  3.2197
  301MOL0     H40570   5.263   1.079   3.785 -1.0905 -1.1654  0.2270
  301MOL0     H40571   5.329   0.933   3.857 -2.8669 -1.2776 -1.1602
  301MOL0     H40572   5.129   1.114   4.017 -2.3839 -0.3496  0.9038
  301MOL0     H40573   5.242   1.013   4.080  1.9909  3.3205 -0.8282
  301MOL0     H40574   5.050   0.863   4.046 -2.0496  0.8770 -0.7711
  301MOL0     H40575   5.171   0.828   3.939 -0.4525 -0.6778  2.4433
  301MOL0     H40576   4.941   1.003   3.861 -2.5696 -1.5764 -3.1267
  301MOL0     H40577   5.058   0.946   3.746 -3.3479  2.6036 -0.8129
  301MOL0     H40578   5.001   0.711   3.797  1.4264 -0.3360  2.0616
  301MOL0     H40579   4.863   0.782   3.894 -1.4478 -0.3594 -0.2837
  301MOL0     H40580   4.779   0.901   3.677 -0.3569  0.9453  1.0318
  301MOL0     H40581   4.918   0.842   3.596  0.1034  2.1792  0.2466
  301MOL0     H40582   4.819   0.599   3.681 -1.9193  1.1933  6.6920
  301MOL0     H40583   4.777   0.659   3.529 -2.2717  1.9559 -1.0258
  301MOL0     H40584   4.566   0.751   3.604 -3.0382  0.7367  2.0036
  301MOL0     H40585   4.578   0.587   3.670 -2.0868  0.9404 -3.9939
  301MOL0     H40586   4.669   0.585   3.937  0.1960  0.1797 -1.4923
  301MOL0     H40587   4.512   0.774   4.246 -0.8109 -4.6989  1.1822
  301MOL0     H40588   4.585   0.626   4.210  1.8990 -0.1670  0.6862
  301MOL0     H40589   4.810   0.778   4.157  0.8628 -0.5009  0.6737
  301MOL0     H40590   4.731   0.893   4.248 -0.4471  0.7659 -0.4420
  301MOL0     H40591   4.691   0.692   4.438 -1.4190  1.2155 -1.7714
  301MOL0     H40592   4.832   0.786   4.436 -0.8506 -0.4053  1.8553
  301MOL0     H40593   4.878   0.527   4.447  0.0248 -0.1435 -0.2008
  301MOL0     H40594   4.962   0.606   4.307 -0.3482 -1.0185 -0.6938
  301MOL0     H40595   4.832   0.486   4.013  0.3067 -0.4000 -0.6170
  301MOL0     H40596   4.989   0.345   3.895 -1.0356  0.8505  0.3751
  301MOL0     H40597   5.122   0.076   3.659  0.1971  2.9320  3.4311
  301MOL0     H40598   5.255  -0.093   3.515 -0.6798  0.9619  0.2182
  301MOL0     H40599   5.698  -0.134   3.581  1.3580 -1.0221 -2.4238
  301MOL0     H40600   5.618  -0.262   3.678  0.8534 -0.6907 -1.5123
  301MOL0     H40601   5.661  -0.299   3.378  1.6849  0.8300  0.5334
  301MOL0     H40602   5.776  -0.352   3.493 -0.0319 -0.7189 -0.0631
  301MOL0     H40603   5.597  -0.480   3.610  1.5331  0.5401 -0.2747
  301MOL0     H40604   5.482  -0.444   3.481  0.8124  1.9459 -0.3700
  301MOL0     H40605   5.745  -0.591   3.455 -1.7948 -0.5094  3.1976
  301MOL0     H40606   5.621  -0.563   3.325  2.1787 -0.6929 -1.2529
  301MOL0     H40607   5.474  -0.711   3.458 -0.1799 -0.0428  3.2838
  301MOL0     H40608   5.572  -0.716   3.594 -1.9022  0.3139  0.0224
  301MOL0     H40609   5.714  -0.777   3.329 -0.2090  0.8745 -0.0313
  301MOL0     H40610   5.742  -0.852   3.485  1.0109  4.6626  1.1560
  301MOL0     H40611   5.493  -0.950   3.342 -0.4942 -2.6336  0.3325
  301MOL0     H40612   5.561  -0.997   3.497  0.0734  0.5216  0.4140
  301MOL0     H40613   5.779  -1.077   3.332  0.3283 -0.1673 -1.4538
  301MOL0     H40614   5.619  -1.162   3.345 -1.2053  0.5929 -0.4118
  301MOL0     H40615   5.580  -0.029   3.794 -0.8366 -0.4276  2.4905
  301MOL0     H40616   5.456   0.134   3.907 -0.5260 -1.0126 -0.0672
  301MOL0     H40617   5.135   0.184   4.261 -0.8253 -2.4349 -0.2778
  301MOL0     H40618   4.994   0.333   4.375  2.5809  0.9319 -1.0236
  301MOL0     H40619   5.627   1.216   3.826 -1.7675 -1.3342 -1.4291
  301MOL0     H40620   5.647   1.457   3.740 -2.2265 -0.2849 -4.3929
  301MOL0     H40621   5.437   1.856   3.785  0.1020  1.3049 -0.2925
  301MOL0     H40622   5.480   2.082   3.775 -2.6827  0.1202  1.0788
  301MOL0     H40623   5.517   2.403   3.587  2.8178 -1.0275  2.3626
  301MOL0     H40624   5.531   2.273   3.693 -0.8673 -1.7029 -0.5820
  301MOL0     H40625   5.305   2.443   3.690 -0.2602  1.1081 -3.7587
  301MOL0     H40626   5.287   2.272   3.735 -0.7339  2.7139  1.9950
  301MOL0     H40627   5.110   2.340   3.558 -0.5468  0.8597 -0.9249
  301MOL0     H40628   5.226   2.229   3.486 -0.4177  0.3909 -1.1008
  301MOL0     H40629   5.317   2.392   3.360  0.0131 -0.6750  0.8725
  301MOL0     H40630   5.141   2.436   3.366  0.7146  0.4902 -0.3543
  301MOL0     H40631   5.279   2.783   3.532 -1.9867  0.5565 -1.8306
  301MOL0     H40632   5.408   2.058   3.343 -2.2220  1.2582  1.1874
  301MOL0     H40633   5.407   1.854   3.225 -0.1075 -0.0633  0.2279
  301MOL0     H40634   5.447   1.703   3.289  0.4148  0.4021  0.3353
  301MOL0     H40635   5.278   1.767   3.307  0.5857 -2.5659  3.6651
  302MOL0     O40636   0.642   2.664   1.472  0.0872 -0.2442 -0.0817
  302MOL0     C40637   0.589   2.554   1.455 -0.1469 -0.2702  0.4020
  302MOL0     O40638   0.632   2.440   1.518  0.3949  0.2539  0.4872
  302MOL0     C40639   0.744   2.454   1.600 -0.1221  0.3522 -0.1891
  302MOL0     C40640   0.874   2.485   1.558 -0.8055 -1.0343  1.7015
  302MOL0     C40641   0.968   2.507   1.661 -0.1880  0.2736  0.0194
  302MOL0     C40642   0.940   2.512   1.801  0.4195  0.9138  0.2012
  302MOL0     O40643   1.045   2.525   1.888  0.4963 -0.0773  0.0931
  302MOL0     C40644   1.010   2.550   2.024 -0.1795 -0.1983  0.2882
  302MOL0     C40645   1.121   2.623   2.101 -1.3551  1.1394  0.6226
  302MOL0     C40646   1.097   2.656   2.247  0.7173  0.1588 -0.3497
  302MOL0     C40647   1.013   2.776   2.268 -0.0216  0.0993  0.3393
  302MOL0     C40648   0.971   2.782   2.415 -0.6386  0.3302  0.5357
  302MOL0     C40649   0.870   2.893   2.440  0.3214 -0.0755  0.4541
  302MOL0     C40650   0.788   2.883   2.574 -0.0261  1.2153 -0.1647
  302MOL0     C40651   0.879   2.852   2.701  0.3485  0.8006  0.0861
  302MOL0     N40652   0.812   2.832   2.826  1.1392 -0.2641 -0.2002
  302MOL0     C40653   0.871   2.806   2.949 -0.6832  0.3138 -0.3765
  302MOL0     C40654   0.770   2.799   3.037  0.1245  0.8918 -0.2775
  302MOL0     C40655   0.779   2.779   3.187  0.0304 -0.2585  0.4265
  302MOL0     C40656   0.799   2.623   3.227 -0.6952  0.5524 -0.6498
  302MOL0     C40657   0.938   2.581   3.238  0.5986 -0.4221 -0.3025
  302MOL0     C40658   0.949   2.442   3.317 -1.0664  0.2397 -0.0857
  302MOL0     O40659   1.084   2.402   3.299 -0.2196  0.3888 -0.0034
  302MOL0     C40660   1.129   2.265   3.305  0.6289  0.7995 -0.2353
  302MOL0     C40661   1.059   2.168   3.381 -0.0998 -0.6922  0.4719
  302MOL0     C40662   1.095   2.034   3.375 -0.5079  0.1648  0.3515
  302MOL0     C40663   1.210   1.989   3.311 -0.3138  0.8280 -0.0987
  302MOL0     C40664   1.266   1.847   3.331 -0.7095 -0.7330 -0.5992
  302MOL0     O40665   1.405   1.829   3.325  0.3030  0.8498  0.2137
  302MOL0     C40666   1.468   1.706   3.348  0.2355  0.6094 -1.0080
  302MOL0     C40667   1.603   1.726   3.359 -0.6268  0.5360  0.6146
  302MOL0     C40668   1.684   1.615   3.364  0.6266  0.0352 -0.6964
  302MOL0     C40669   1.637   1.486   3.352 -0.9586  0.2968 -0.7967
  302MOL0     O40670   1.714   1.367   3.348 -0.2931 -0.2484 -0.4521
  302MOL0     C40671   1.854   1.374   3.327 -0.5633 -0.5476 -0.6638
  302MOL0     C40672   1.934   1.314   3.454 -0.4516 -0.3846 -0.1909
  302MOL0     C40673   1.979   1.420   3.563 -1.4888  0.2531 -0.6630
  302MOL0     C40674   2.053   1.355   3.685  0.8998  0.8736  0.1360
  302MOL0     C40675   2.202   1.326   3.671 -0.6722  0.6021 -0.8965
  302MOL0     C40676   2.276   1.300   3.809  0.5986 -0.5011  0.1200
  302MOL0     C40677   2.425   1.272   3.792  0.4158  0.1743 -0.0456
  302MOL0     C40678   2.511   1.370   3.864 -0.9336  0.6474 -0.6598
  302MOL0    Cl40679   2.497   1.355   4.041  0.4053 -0.0637 -0.1391
  302MOL0     C40680   1.499   1.468   3.324  0.1477  1.1069 -1.2067
  302MOL0     C40681   1.404   1.582   3.322 -0.7033 -0.5021  0.6301
  302MOL0     O40682   1.191   1.768   3.390  0.1154 -0.2082 -0.8941
  302MOL0     C40683   1.284   2.083   3.240 -0.1627  0.5183 -0.4481
  302MOL0     C40684   1.248   2.221   3.246 -0.4136 -0.1801 -1.8227
  302MOL0     N40685   0.648   2.790   2.975 -0.5540  0.8703 -0.3967
  302MOL0     N40686   0.682   2.817   2.851  0.5359  0.3584 -0.0320
  302MOL0     C40687   0.809   2.467   1.831 -1.0649  0.2361  0.4138
  302MOL0     C40688   0.720   2.446   1.736  0.8208  0.0337 -0.6139
  302MOL0     C40689   0.491   2.528   1.356 -0.3792 -0.6617  1.2571
  302MOL0     C40690   0.420   2.411   1.353  0.4128  0.2356  0.6878
  302MOL0     C40691   0.335   2.375   1.246 -0.5401  0.4887 -0.3920
  302MOL0     C40692   0.317   2.458   1.138  0.5595 -0.9429 -0.1980
  302MOL0     O40693   0.234   2.410   1.039  0.0127  0.2337  0.4496
  302MOL0     C40694   0.236   2.461   0.898  0.3765 -0.2650 -0.0172
  302MOL0     C40695   0.348   2.409   0.808 -0.3958  0.2300 -0.7962
  302MOL0     C40696   0.337   2.256   0.784 -0.1663  0.1140 -0.6975
  302MOL0     C40697   0.471   2.183   0.744 -0.1290  0.0376 -0.1772
  302MOL0     C40698   0.507   2.241   0.612 -0.4038 -0.1102  0.1857
  302MOL0     C40699   0.510   2.288   0.499 -0.0904  0.2870 -0.6171
  302MOL0     C40700   0.383   2.581   1.145  0.0468 -0.1716 -0.4753
  302MOL0     C40701   0.465   2.621   1.253  0.2000  0.2070  0.5201
  302MOL0     C40702   0.504   2.765   1.247 -0.1563 -0.1832  0.8022
  302MOL0     H40703   0.903   2.490   1.453 -0.9967  0.2317  1.6903
  302MOL0     H40704   1.066   2.539   1.628 -0.1549 -0.4419 -0.6068
  302MOL0     H40705   0.916   2.605   2.032 -0.9409 -0.5815 -3.9079
  302MOL0     H40706   0.996   2.455   2.076  2.0322 -0.5626  0.3260
  302MOL0     H40707   1.144   2.716   2.049  1.6063  1.4239  2.2363
  302MOL0     H40708   1.206   2.554   2.098 -3.5860 -1.8245  0.7917
  302MOL0     H40709   1.195   2.665   2.293 -0.6318  0.2688  2.7026
  302MOL0     H40710   1.045   2.572   2.295 -1.6995  2.2243  0.9305
  302MOL0     H40711   1.079   2.859   2.242  0.7788 -0.1273  1.5589
  302MOL0     H40712   0.925   2.773   2.204  0.8830  3.1458 -1.2609
  302MOL0     H40713   0.940   2.680   2.439  0.0720 -1.0839 -3.7692
  302MOL0     H40714   1.060   2.815   2.469  0.6990 -1.6459 -0.3798
  302MOL0     H40715   0.919   2.991   2.438 -1.1384  0.6597 -1.0878
  302MOL0     H40716   0.795   2.885   2.361  0.2756  1.9386  0.2396
  302MOL0     H40717   0.716   2.803   2.555  2.4588 -1.7423  1.8925
  302MOL0     H40718   0.728   2.973   2.586 -1.1583  0.6496 -1.3005
  302MOL0     H40719   0.945   2.768   2.678  1.2232  1.0848  1.4475
  302MOL0     H40720   0.955   2.929   2.716  0.4541  0.7332 -0.0933
  302MOL0     H40721   0.979   2.808   2.961 -0.5428 -2.0111 -0.8643
  302MOL0     H40722   0.860   2.837   3.232  0.0618  0.5285 -0.5963
  302MOL0     H40723   0.679   2.815   3.215 -1.6211 -3.8779 -0.2363
  302MOL0     H40724   0.742   2.610   3.319  2.2118 -1.6255  1.0198
  302MOL0     H40725   0.749   2.565   3.148 -2.7469 -1.3746  1.9106
  302MOL0     H40726   0.997   2.654   3.294  0.8523  1.4689 -2.8443
  302MOL0     H40727   0.989   2.577   3.142  0.8049  2.6349 -0.4218
  302MOL0     H40728   0.880   2.362   3.290 -0.3689 -0.0294 -1.0958
  302MOL0     H40729   0.927   2.475   3.420  0.3058 -0.2174  0.3826
  302MOL0     H40730   0.969   2.196   3.435 -0.6267  2.4167 -1.7167
  302MOL0     H40731   1.029   1.959   3.418  1.8924 -3.9163 -2.3214
  302MOL0     H40732   1.638   1.829   3.355 -1.3409  0.7584 -0.1516
  302MOL0     H40733   1.790   1.633   3.383  1.0744 -0.7305 -2.2392
  302MOL0     H40734   1.876   1.305   3.246  0.9735 -1.6972  0.6499
  302MOL0     H40735   1.898   1.473   3.307 -0.3825  0.3984  3.4587
  302MOL0     H40736   1.881   1.226   3.489 -3.0730  1.2107  0.1263
  302MOL0     H40737   2.029   1.282   3.410 -0.4489  0.9366 -1.2166
  302MOL0     H40738   2.053   1.490   3.524 -0.3212 -0.3710  0.3309
  302MOL0     H40739   1.896   1.479   3.603 -1.8717  0.7273 -2.1141
  302MOL0     H40740   2.005   1.267   3.729  0.8852  0.2061 -1.1586
  302MOL0     H40741   2.050   1.434   3.760 -1.5037  0.0219  1.0201
  302MOL0     H40742   2.235   1.416   3.618 -2.2398 -0.9118 -4.8379
  302MOL0     H40743   2.223   1.242   3.603  0.5404  1.9283 -2.2340
  302MOL0     H40744   2.264   1.383   3.879 -0.4908 -1.1661  0.7469
  302MOL0     H40745   2.225   1.217   3.858 -1.0288  0.3757 -0.0299
  302MOL0     H40746   2.453   1.275   3.686  0.7866 -1.7126 -0.0294
  302MOL0     H40747   2.445   1.172   3.831  2.5137  0.1887 -0.9267
  302MOL0     H40748   2.617   1.353   3.847 -1.4193 -0.8267 -2.4445
  302MOL0     H40749   2.491   1.469   3.822  2.0440  1.5667 -0.0955
  302MOL0     H40750   1.465   1.372   3.287  0.8793 -0.3753  1.6727
  302MOL0     H40751   1.300   1.576   3.295 -0.2617  0.6526 -1.5445
  302MOL0     H40752   1.384   2.063   3.204 -0.5367 -2.4759 -0.0992
  302MOL0     H40753   1.317   2.291   3.198 -0.9021  1.1025 -0.7313
  302MOL0     H40754   0.779   2.451   1.934 -0.6782  0.5674  0.5816
  302MOL0     H40755   0.620   2.412   1.760  0.1691  0.4911 -2.5019
  302MOL0     H40756   0.438   2.332   1.425 -1.0272 -2.4362 -1.6635
  302MOL0     H40757   0.291   2.275   1.254  0.4256  0.0203 -0.7982
  302MOL0     H40758   0.250   2.568   0.914 -2.5231 -0.2134  3.5384
  302MOL0     H40759   0.137   2.445   0.854  0.3851 -3.9667  0.9467
  302MOL0     H40760   0.441   2.437   0.860 -0.7705  0.6062 -0.3158
  302MOL0     H40761   0.349   2.470   0.716  0.4259  0.6527 -0.5216
  302MOL0     H40762   0.268   2.247   0.700 -0.4934  2.3094 -0.7397
  302MOL0     H40763   0.294   2.207   0.871  0.4345  1.0135  0.1392
  302MOL0     H40764   0.547   2.214   0.816 -1.5360  0.7932  1.0220
  302MOL0     H40765   0.455   2.075   0.747  0.0526  0.0288  0.7350
  302MOL0     H40766   0.532   2.328   0.402  4.6669  0.4308  0.2929
  302MOL0     H40767   0.351   2.650   1.067 -3.9695 -0.7482  0.4570
  302MOL0     H40768   0.492   2.820   1.341 -1.7160 -0.6082  0.8877
  302MOL0     H40769   0.611   2.752   1.229  0.1774  2.0097  0.9325
  302MOL0     H40770   0.467   2.825   1.163  0.9991  1.0104  1.1214
  303MOL0     O40771   7.266   1.329   9.620  0.7166  0.2992  0.3436
  303MOL0     C40772   7.147   1.314   9.598  1.3782  0.2954  0.5510
  303MOL0     O40773   7.067   1.425   9.553 -0.5053  0.0161  0.6596
  303MOL0     C40774   7.125   1.526   9.474 -0.5042 -0.0164  0.8994
  303MOL0     C40775   7.247   1.525   9.397 -0.2354  0.8108 -0.3296
  303MOL0     C40776   7.298   1.637   9.330  0.2939  0.9724 -0.3489
  303MOL0     C40777   7.230   1.759   9.349 -0.3973 -0.0498 -0.1010
  303MOL0     O40778   7.287   1.874   9.299  0.5617 -0.2080 -0.4192
  303MOL0     C40779   7.308   1.867   9.163  0.0593 -0.4994  0.2968
  303MOL0     C40780   7.267   1.996   9.091 -0.4039  0.2181 -0.2105
  303MOL0     C40781   7.294   1.997   8.947 -0.8530  0.5346 -0.9053
  303MOL0     C40782   7.444   2.042   8.932 -0.0428  0.1648  0.5563
  303MOL0     C40783   7.485   2.021   8.776  0.3931  0.7749 -0.5926
  303MOL0     C40784   7.640   1.997   8.752  0.9697  0.1314  0.3845
  303MOL0     C40785   7.735   2.101   8.804 -0.3493  0.2148 -0.1293
  303MOL0     C40786   7.883   2.058   8.807  0.5734  0.2982  0.2729
  303MOL0     N40787   7.968   2.156   8.863 -0.6591 -1.1457  0.5178
  303MOL0     C40788   8.073   2.216   8.801 -1.1266 -0.6517 -0.4431
  303MOL0     C40789   8.122   2.306   8.897 -0.3651  0.0977 -0.8569
  303MOL0     C40790   8.220   2.422   8.880 -0.4239 -0.2462  0.1862
  303MOL0     C40791   8.156   2.544   8.822  0.4221  0.2855  0.1690
  303MOL0     C40792   8.247   2.672   8.832 -0.5549 -1.2046  0.2675
  303MOL0     C40793   8.160   2.796   8.795 -0.8078  0.8558  0.1359
  303MOL0     O40794   8.126   2.819   8.654  0.0694 -0.1320  0.2997
  303MOL0     C40795   8.227   2.888   8.592 -0.1696  0.2873  0.3063
  303MOL0     C40796   8.306   2.832   8.491 -0.1709 -0.8214 -1.0256
  303MOL0     C40797   8.384   2.908   8.409 -0.0595  1.2331  0.6749
  303MOL0     C40798   8.399   3.051   8.427 -0.4859 -0.4228 -0.9469
  303MOL0     C40799   8.489   3.133   8.347 -0.1194  0.0785  0.5561
  303MOL0     O40800   8.515   3.077   8.220 -0.3003  0.0597 -0.2476
  303MOL0     C40801   8.595   3.147   8.135  0.6371 -0.9970  0.6675
  303MOL0     C40802   8.535   3.222   8.021 -0.7272  0.4675 -0.2262
  303MOL0     C40803   8.617   3.279   7.927 -0.4441  0.6233 -0.0892
  303MOL0     C40804   8.761   3.271   7.945 -1.2845  0.0378  0.1797
  303MOL0     O40805   8.842   3.304   7.842 -0.4820  0.2387  0.1446
  303MOL0     C40806   8.925   3.199   7.789  0.6807 -0.0471  0.2243
  303MOL0     C40807   8.992   3.251   7.660  0.4986  0.5281  0.7040
  303MOL0     C40808   9.130   3.188   7.623  0.1058 -1.1942  0.1435
  303MOL0     C40809   9.243   3.243   7.723  0.7381  0.7451 -0.7330
  303MOL0     C40810   9.380   3.176   7.698  0.0771 -0.3614  0.3829
  303MOL0     C40811   9.477   3.227   7.801  0.4312 -0.6197 -0.2541
  303MOL0     C40812   9.585   3.123   7.832 -0.0776  0.6751  0.1200
  303MOL0     C40813   9.683   3.170   7.943  0.4583  0.1567  0.3054
  303MOL0    Cl40814   9.812   3.066   7.998  0.7308 -0.0298  0.2036
  303MOL0     C40815   8.813   3.206   8.056 -1.1170 -0.5188  0.6739
  303MOL0     C40816   8.728   3.139   8.143 -0.6842 -0.2277  0.4129
  303MOL0     O40817   8.513   3.249   8.385  0.5272  0.0363  0.7264
  303MOL0     C40818   8.322   3.106   8.526  0.1353 -0.3646  0.2069
  303MOL0     C40819   8.241   3.026   8.605 -0.4429 -0.4211 -0.3820
  303MOL0     N40820   8.038   2.301   9.007 -0.8757  0.0183 -0.0781
  303MOL0     N40821   7.963   2.200   8.990  0.1029 -0.2660 -0.0128
  303MOL0     C40822   7.118   1.766   9.429 -0.1183 -0.0107 -0.0935
  303MOL0     C40823   7.071   1.649   9.487  0.5865 -0.3463 -0.7349
  303MOL0     C40824   7.080   1.174   9.606 -0.8727 -0.3296 -0.6870
  303MOL0     C40825   6.956   1.157   9.544 -0.3136 -0.1644 -0.4324
  303MOL0     C40826   6.891   1.033   9.544 -0.0682  0.3416  0.0419
  303MOL0     C40827   6.951   0.920   9.607  0.5564  0.5246  0.4565
  303MOL0     O40828   6.898   0.787   9.606 -0.5899  0.1490 -0.1890
  303MOL0     C40829   6.818   0.750   9.491  1.0146  0.2388 -0.2483
  303MOL0     C40830   6.789   0.601   9.471 -0.4764  0.4071 -0.4728
  303MOL0     C40831   6.711   0.543   9.590 -0.1434  0.2602  0.7946
  303MOL0     C40832   6.613   0.430   9.559 -0.4377 -0.8166  0.9236
  303MOL0     C40833   6.543   0.383   9.673 -0.3977  0.5101  0.3420
  303MOL0     C40834   6.503   0.354   9.787 -0.5206 -0.6733  0.5670
  303MOL0     C40835   7.067   0.944   9.679 -0.2853  0.7327 -0.3945
  303MOL0     C40836   7.133   1.069   9.676  0.3425 -0.8885  0.5007
  303MOL0     C40837   7.273   1.063   9.727 -0.2467 -0.0643 -0.2434
  303MOL0     H40838   7.292   1.426   9.401 -1.4995  0.2350  0.1538
  303MOL0     H40839   7.391   1.619   9.277  0.3708  0.6239 -0.0998
  303MOL0     H40840   7.417   1.857   9.161 -0.0376 -1.6743  0.2213
  303MOL0     H40841   7.253   1.785   9.115 -3.3704  1.2296  0.9407
  303MOL0     H40842   7.317   2.080   9.139  0.6950  0.8383 -2.3302
  303MOL0     H40843   7.160   1.996   9.114 -0.2289  3.1330  0.9990
  303MOL0     H40844   7.231   2.071   8.897 -2.3356 -0.0409  0.0544
  303MOL0     H40845   7.281   1.893   8.914 -0.8249 -0.8673  2.9926
  303MOL0     H40846   7.466   2.142   8.971 -1.5315  0.1797  1.4397
  303MOL0     H40847   7.519   1.982   8.984  1.6592 -0.1405 -2.0629
  303MOL0     H40848   7.423   1.937   8.745  0.4052  0.1392  1.0479
  303MOL0     H40849   7.457   2.106   8.713  0.9975  1.6810  0.3293
  303MOL0     H40850   7.659   1.898   8.795 -1.5549 -0.2064  0.8606
  303MOL0     H40851   7.654   1.996   8.643 -0.6446  1.2185  0.1390
  303MOL0     H40852   7.714   2.132   8.907  2.6176 -2.4084  1.4377
  303MOL0     H40853   7.723   2.189   8.740 -0.3618  0.6783  0.4994
  303MOL0     H40854   7.898   1.964   8.861  2.3972 -0.3264 -1.2277
  303MOL0     H40855   7.924   2.047   8.707  4.5798 -0.2299  1.8016
  303MOL0     H40856   8.113   2.214   8.700 -0.1521 -0.7932 -0.0692
  303MOL0     H40857   8.274   2.448   8.972 -5.3719 -2.7108  4.3072
  303MOL0     H40858   8.296   2.385   8.810  3.9313 -0.8544  4.6841
  303MOL0     H40859   8.128   2.535   8.716 -3.0266  1.9531  0.7724
  303MOL0     H40860   8.060   2.569   8.868  0.3285  3.2329 -1.3291
  303MOL0     H40861   8.338   2.674   8.772 -0.9469  1.6158 -0.4018
  303MOL0     H40862   8.287   2.690   8.932 -1.5365 -2.0167  0.8231
  303MOL0     H40863   8.219   2.880   8.832 -3.1247  1.8077  1.9071
  303MOL0     H40864   8.064   2.787   8.846  0.1155  1.7350  2.1409
  303MOL0     H40865   8.292   2.726   8.472 -0.3997 -0.8585 -0.6471
  303MOL0     H40866   8.447   2.851   8.341 -0.0877  1.9144  0.0661
  303MOL0     H40867   8.426   3.220   8.014 -0.6728 -3.1275 -2.7112
  303MOL0     H40868   8.590   3.324   7.832  0.1092  0.2021 -0.4480
  303MOL0     H40869   9.000   3.168   7.862  0.4406 -1.0892  0.0487
  303MOL0     H40870   8.863   3.114   7.757 -1.2869  0.6680  1.9363
  303MOL0     H40871   8.925   3.231   7.576  0.7899 -0.8361  0.7625
  303MOL0     H40872   9.008   3.359   7.670 -0.3332  0.7930 -0.6233
  303MOL0     H40873   9.124   3.079   7.638 -2.3463 -0.8417  2.6393
  303MOL0     H40874   9.138   3.216   7.518  2.1731 -0.1302  0.5384
  303MOL0     H40875   9.216   3.215   7.825  3.1599 -2.7343 -0.8457
  303MOL0     H40876   9.261   3.350   7.712  0.6609  0.9487  1.0048
  303MOL0     H40877   9.425   3.188   7.599 -0.7412  0.1483  0.0594
  303MOL0     H40878   9.358   3.070   7.711 -0.5595 -0.2888 -0.0475
  303MOL0     H40879   9.519   3.312   7.747  2.2000 -2.2538 -1.5482
  303MOL0     H40880   9.433   3.245   7.900  1.0579  0.0593 -0.0970
  303MOL0     H40881   9.638   3.105   7.738  1.0101  1.7896  0.4898
  303MOL0     H40882   9.536   3.027   7.851 -0.6613  1.2192  1.5901
  303MOL0     H40883   9.717   3.262   7.895  0.4772  0.5463  1.0502
  303MOL0     H40884   9.626   3.198   8.033 -0.8196  0.3846 -0.5514
  303MOL0     H40885   8.918   3.188   8.075 -0.8410  1.3116  1.0516
  303MOL0     H40886   8.775   3.090   8.228  0.2197  1.2581  0.7960
  303MOL0     H40887   8.325   3.210   8.556 -1.5909 -0.5903  1.3042
  303MOL0     H40888   8.193   3.078   8.687  1.1579 -1.3753  1.2348
  303MOL0     H40889   7.050   1.851   9.426 -2.9922 -2.1142  1.0626
  303MOL0     H40890   6.971   1.646   9.529 -0.4086 -0.9890 -2.9918
  303MOL0     H40891   6.904   1.243   9.505  0.8820  0.1432 -1.4248
  303MOL0     H40892   6.789   1.033   9.506 -0.3964  2.0110  0.8524
  303MOL0     H40893   6.859   0.790   9.398  1.5544 -0.4706 -0.3192
  303MOL0     H40894   6.728   0.812   9.501  1.0153  0.0397  1.1759
  303MOL0     H40895   6.877   0.538   9.455 -1.0305 -0.0254 -1.9746
  303MOL0     H40896   6.732   0.597   9.378  2.0808  3.1700 -2.3658
  303MOL0     H40897   6.644   0.620   9.629  1.3966  0.6641  2.7249
  303MOL0     H40898   6.787   0.508   9.660 -1.3140 -2.7480  0.7247
  303MOL0     H40899   6.535   0.470   9.494  2.0742  0.8051 -1.3146
  303MOL0     H40900   6.672   0.352   9.510 -1.6278 -0.8526 -0.5053
  303MOL0     H40901   6.450   0.338   9.878  0.5771 -0.1668  1.3178
  303MOL0     H40902   7.104   0.855   9.729 -3.2125  0.9533  2.4461
  303MOL0     H40903   7.343   1.106   9.655  1.3977 -2.7945 -0.4151
  303MOL0     H40904   7.274   1.121   9.820 -0.0011  1.8387 -1.3926
  303MOL0     H40905   7.299   0.958   9.742  4.1469  0.8323 -0.2716
  304MOL0     O40906   1.728   5.862   9.148 -0.5323 -0.2501 -0.1886
  304MOL0     C40907   1.715   5.743   9.173 -0.6188 -0.3281  0.1892
  304MOL0     O40908   1.679   5.690   9.295 -0.7258 -0.4179  0.0081
  304MOL0     C40909   1.673   5.762   9.418 -0.4165 -0.0796  0.6928
  304MOL0     C40910   1.601   5.700   9.510  0.4876 -0.3559  1.2862
  304MOL0     C40911   1.594   5.749   9.641 -1.0380  0.4785  0.0097
  304MOL0     C40912   1.661   5.868   9.685  0.6570  0.0251  0.1251
  304MOL0     O40913   1.643   5.923   9.813  0.4833  0.5281  0.8571
  304MOL0     C40914   1.671   5.841   9.925  1.2726  0.2020 -0.0866
  304MOL0     C40915   1.717   5.934  10.022  0.6828  0.2607 -0.1129
  304MOL0     C40916   1.711   5.870  10.166 -0.3458 -0.8875 -0.3658
  304MOL0     C40917   1.584   5.898  10.236  0.2432 -0.1820 -0.4529
  304MOL0     C40918   1.569   5.825  10.369 -0.0826 -0.4874  1.2372
  304MOL0     C40919   1.433   5.855  10.432 -0.2278 -0.1613  0.2305
  304MOL0     C40920   1.385   6.006  10.457 -1.0860  0.4141  0.3998
  304MOL0     C40921   1.480   6.067  10.556  0.2910  0.2544  0.3288
  304MOL0     N40922   1.492   5.989  10.679  0.3486  0.6708 -0.6696
  304MOL0     C40923   1.386   5.963  10.764  0.6983  0.3487 -0.0511
  304MOL0     C40924   1.445   5.895  10.871 -0.6359 -0.3892 -1.0938
  304MOL0     C40925   1.393   5.863  11.007 -0.2390 -0.1709  0.2053
  304MOL0     C40926   1.285   5.761  11.000 -1.0917  0.0565 -0.1456
  304MOL0     C40927   1.239   5.712  11.143  0.6662  0.8697  0.2011
  304MOL0     C40928   1.134   5.802  11.214  0.4685 -0.8257  0.2740
  304MOL0     O40929   1.092   5.742  11.342  1.1089 -0.4627  0.0888
  304MOL0     C40930   0.990   5.799  11.419  0.7512  0.3861  0.3892
  304MOL0     C40931   0.871   5.733  11.437  0.6155  0.6079 -0.4701
  304MOL0     C40932   0.748   5.789  11.477 -0.2626 -0.3297  0.6385
  304MOL0     C40933   0.749   5.920  11.530  0.2360 -0.3708 -0.4478
  304MOL0     C40934   0.627   5.994  11.568  0.3212 -0.5899 -0.2109
  304MOL0     O40935   0.517   5.921  11.611 -0.3070 -0.0800  0.1013
  304MOL0     C40936   0.410   5.989  11.661  0.7892  0.0225  0.8309
  304MOL0     C40937   0.413   6.103  11.742 -0.3539 -0.2146 -0.2189
  304MOL0     C40938   0.291   6.168  11.780 -0.3508  0.5094 -0.1343
  304MOL0     C40939   0.174   6.105  11.762 -0.4045 -0.9015  0.9729
  304MOL0     O40940   0.053   6.153  11.809  0.0708 -0.7037 -0.1664
  304MOL0     C40941   0.044   6.224  11.933 -0.2793 -0.6197 -0.3645
  304MOL0     C40942  -0.103   6.222  11.974 -0.1929 -0.1470 -0.1294
  304MOL0     C40943  -0.131   6.300  12.104  1.1627 -0.8190  1.0101
  304MOL0     C40944  -0.284   6.305  12.146  0.3594 -1.1080  0.4696
  304MOL0     C40945  -0.309   6.354  12.295  0.0471  0.2208 -0.4104
  304MOL0     C40946  -0.283   6.501  12.327  0.3594 -0.0951 -0.0507
  304MOL0     C40947  -0.270   6.542  12.472 -0.3734  1.0878 -0.6233
  304MOL0     C40948  -0.393   6.492  12.558  0.3534  0.0738 -0.4992
  304MOL0    Cl40949  -0.359   6.503  12.739  0.5363 -0.1371  0.2577
  304MOL0     C40950   0.170   5.979  11.690  0.6520  0.1315 -0.7908
  304MOL0     C40951   0.287   5.931  11.629 -0.3922  0.4364 -0.0803
  304MOL0     O40952   0.630   6.116  11.538 -0.4740  0.4398  0.7763
  304MOL0     C40953   0.879   5.983  11.522 -0.2122  0.2684 -0.8049
  304MOL0     C40954   0.989   5.927  11.462  0.2479 -0.1622  0.2457
  304MOL0     N40955   1.576   5.871  10.843 -0.1240 -0.8745  1.4194
  304MOL0     N40956   1.605   5.933  10.731 -0.5220 -0.5181 -0.4003
  304MOL0     C40957   1.730   5.935   9.581  0.2558 -0.1351 -0.7899
  304MOL0     C40958   1.737   5.883   9.450 -1.3442 -0.3117  0.5180
  304MOL0     C40959   1.736   5.648   9.063  0.5935  0.8485 -0.2984
  304MOL0     C40960   1.843   5.680   8.982  0.2415  0.0443 -0.1998
  304MOL0     C40961   1.872   5.589   8.885  0.1609  1.1384  0.6018
  304MOL0     C40962   1.799   5.474   8.856  0.3993 -0.3748  0.8594
  304MOL0     O40963   1.837   5.410   8.737 -0.0610  0.0555 -0.3545
  304MOL0     C40964   1.756   5.308   8.676 -0.5319  0.6900 -0.6870
  304MOL0     C40965   1.805   5.168   8.714  0.2033 -0.3441  0.5433
  304MOL0     C40966   1.686   5.068   8.711  0.4882 -0.1703  0.9592
  304MOL0     C40967   1.731   4.916   8.722 -0.7955  0.0445 -0.1857
  304MOL0     C40968   1.775   4.871   8.852 -0.6001 -1.1833  0.0838
  304MOL0     C40969   1.813   4.821   8.959 -0.2360  0.1777  0.2901
  304MOL0     C40970   1.697   5.447   8.941 -0.4146 -0.3617  0.5914
  304MOL0     C40971   1.660   5.528   9.042 -0.9382 -0.8321 -0.4921
  304MOL0     C40972   1.546   5.489   9.120  1.0526  0.6710  0.3802
  304MOL0     H40973   1.570   5.602   9.476  0.8736 -0.0830  0.1292
  304MOL0     H40974   1.547   5.692   9.721 -1.1396  2.1048  1.1714
  304MOL0     H40975   1.589   5.779   9.963  1.4324 -1.1034 -1.7343
  304MOL0     H40976   1.747   5.766   9.901  0.3801 -0.6733 -0.2320
  304MOL0     H40977   1.659   6.027  10.013  0.1045  0.6374  4.9635
  304MOL0     H40978   1.820   5.953   9.992  0.0627 -0.7120 -3.2748
  304MOL0     H40979   1.790   5.912  10.229 -2.3198  1.4411  0.7324
  304MOL0     H40980   1.729   5.762  10.167  2.2836 -0.5258  1.6089
  304MOL0     H40981   1.572   6.006  10.253 -0.8367 -0.2952 -0.4181
  304MOL0     H40982   1.505   5.873  10.165  0.0164  2.9184 -1.4506
  304MOL0     H40983   1.594   5.719  10.366  4.7822  0.3981  1.0188
  304MOL0     H40984   1.645   5.878  10.428 -1.7202  3.7087 -0.0419
  304MOL0     H40985   1.355   5.818  10.365  1.8302  0.0035 -2.3938
  304MOL0     H40986   1.422   5.792  10.521 -2.0085 -1.7994 -1.0812
  304MOL0     H40987   1.285   5.989  10.497 -0.4406 -2.0812  1.0954
  304MOL0     H40988   1.379   6.056  10.359  1.1821  0.2443  0.1241
  304MOL0     H40989   1.578   6.088  10.511  0.0991 -0.3182 -0.3834
  304MOL0     H40990   1.441   6.163  10.593  2.7010  1.8411 -0.9173
  304MOL0     H40991   1.288   6.010  10.756  0.5225 -0.3617 -3.6389
  304MOL0     H40992   1.476   5.830  11.070  0.6468 -1.1354 -1.4038
  304MOL0     H40993   1.357   5.957  11.051 -1.5349  1.8475 -4.4663
  304MOL0     H40994   1.195   5.790  10.945 -1.0559 -1.7677 -1.2433
  304MOL0     H40995   1.336   5.675  10.955 -1.0350 -0.4899  0.9311
  304MOL0     H40996   1.325   5.686  11.204 -0.0195 -1.6049  0.2135
  304MOL0     H40997   1.188   5.616  11.129  3.9447 -1.0080  0.3463
  304MOL0     H40998   1.052   5.809  11.142 -0.0505 -2.4168  0.6787
  304MOL0     H40999   1.177   5.902  11.231 -0.4807  0.2419 -2.8451
  304MOL0     H41000   0.863   5.627  11.416 -0.8047  0.2909  1.3264
  304MOL0     H41001   0.653   5.737  11.477 -0.5726  0.1725  2.4646
  304MOL0     H41002   0.504   6.149  11.778  0.2088 -2.7003  1.9136
  304MOL0     H41003   0.299   6.259  11.838 -0.7243 -0.0374  0.8058
  304MOL0     H41004   0.111   6.191  12.013 -0.4133  0.1409  0.0666
  304MOL0     H41005   0.062   6.330  11.913 -0.6691 -0.0961  1.7811
  304MOL0     H41006  -0.159   6.273  11.895 -1.2286  0.2034  0.8036
  304MOL0     H41007  -0.148   6.124  11.991  0.9810 -0.6698  0.1032
  304MOL0     H41008  -0.088   6.253  12.193  3.6370  1.7989  1.3315
  304MOL0     H41009  -0.092   6.402  12.099 -1.0505  0.0424 -0.6402
  304MOL0     H41010  -0.326   6.204  12.145  1.0296 -1.3890  0.3031
  304MOL0     H41011  -0.332   6.372  12.074 -1.2470  2.5061  4.4168
  304MOL0     H41012  -0.247   6.285  12.353 -1.1276 -1.5866 -1.2286
  304MOL0     H41013  -0.413   6.330  12.322 -0.1511 -1.4801 -2.4572
  304MOL0     H41014  -0.205   6.545  12.265  0.2523 -1.7199 -1.4008
  304MOL0     H41015  -0.371   6.556  12.292  0.9349 -0.8978 -3.0182
  304MOL0     H41016  -0.250   6.649  12.482  1.1549  0.7487  0.3876
  304MOL0     H41017  -0.175   6.499  12.507  0.4737  1.2654 -2.5749
  304MOL0     H41018  -0.487   6.532  12.517  1.4063  0.0219 -3.1333
  304MOL0     H41019  -0.406   6.388  12.530 -2.4548  0.1698  0.1351
  304MOL0     H41020   0.075   5.940  11.655  0.6809 -0.7170  0.0208
  304MOL0     H41021   0.281   5.833  11.583 -1.2925  0.4020  0.0927
  304MOL0     H41022   0.888   6.080  11.572 -2.0744  0.0535  0.0253
  304MOL0     H41023   1.077   5.989  11.446 -0.5423  1.0123  0.3434
  304MOL0     H41024   1.775   6.033   9.589  1.1854 -0.4240 -2.1196
  304MOL0     H41025   1.790   5.939   9.374 -3.1233  0.5604 -0.1321
  304MOL0     H41026   1.908   5.765   8.997  3.6131 -2.5503  1.2894
  304MOL0     H41027   1.963   5.611   8.830 -2.0077  0.9264 -3.4282
  304MOL0     H41028   1.777   5.302   8.569  1.8438  0.3819 -0.2384
  304MOL0     H41029   1.650   5.323   8.700 -0.2448  0.8186  0.5863
  304MOL0     H41030   1.847   5.170   8.815 -0.3296  1.3414  0.7568
  304MOL0     H41031   1.882   5.130   8.646  0.1485  2.4872 -1.2769
  304MOL0     H41032   1.639   5.064   8.612  1.4819  1.0614  0.4163
  304MOL0     H41033   1.600   5.099   8.771 -1.3420  0.6608 -1.8821
  304MOL0     H41034   1.646   4.850   8.703 -0.1953 -0.7442 -0.2313
  304MOL0     H41035   1.803   4.885   8.645 -0.6805 -3.2805  1.0865
  304MOL0     H41036   1.834   4.790   9.059  1.4214 -2.0558 -0.6810
  304MOL0     H41037   1.639   5.356   8.929 -1.2431  0.0828  1.1635
  304MOL0     H41038   1.482   5.421   9.064 -0.2714 -1.7115  4.3608
  304MOL0     H41039   1.573   5.443   9.215  3.7658 -1.0433 -1.1023
  304MOL0     H41040   1.480   5.576   9.128 -0.8743 -0.8476  2.3177
  305MOL0     O41041   7.765   0.459   9.537 -0.0944  0.4955  0.0612
  305MOL0     C41042   7.741   0.512   9.430 -0.0544 -0.6537 -0.1119
  305MOL0     O41043   7.634   0.588   9.412 -0.2514  0.5736  0.0466
  305MOL0     C41044   7.524   0.548   9.483  0.4731  0.3749 -0.2312
  305MOL0     C41045   7.433   0.445   9.435  0.4218  0.2019  0.0496
  305MOL0     C41046   7.323   0.409   9.512 -0.7636  0.3648 -0.2456
  305MOL0     C41047   7.288   0.477   9.632 -0.0979  1.3736  0.5443
  305MOL0     O41048   7.171   0.431   9.692  0.3858 -0.1608 -0.3439
  305MOL0     C41049   7.151   0.425   9.830 -0.1254  0.4712 -0.3449
  305MOL0     C41050   7.025   0.347   9.863 -0.7517  0.2118  0.6016
  305MOL0     C41051   6.962   0.406   9.980 -0.5003 -0.1887 -0.8944
  305MOL0     C41052   6.887   0.302  10.066  0.2715  0.4580 -0.1021
  305MOL0     C41053   6.880   0.331  10.215 -0.5759  0.1429 -0.8138
  305MOL0     C41054   6.816   0.210  10.288  0.0340  0.0405 -0.0179
  305MOL0     C41055   6.828   0.196  10.445 -0.0536  0.2123  0.1875
  305MOL0     C41056   6.964   0.222  10.500  0.9156  0.2360 -0.3309
  305MOL0     N41057   7.069   0.123  10.488 -0.3323 -1.3122 -0.1797
  305MOL0     C41058   7.124   0.075  10.369  0.6250  0.6787 -0.9038
  305MOL0     C41059   7.212  -0.021  10.407  0.3009 -0.3246 -0.2060
  305MOL0     C41060   7.290  -0.108  10.316 -0.9795 -0.8484 -0.3992
  305MOL0     C41061   7.198  -0.177  10.214 -0.2621 -0.0310  0.4892
  305MOL0     C41062   7.279  -0.270  10.122 -0.6738  0.7279  0.1787
  305MOL0     C41063   7.213  -0.298   9.989 -0.3818 -0.8686  0.0102
  305MOL0     O41064   7.180  -0.167   9.919 -0.1975  0.6127  0.1086
  305MOL0     C41065   7.220  -0.143   9.783 -0.4388 -0.0969 -0.4638
  305MOL0     C41066   7.256  -0.237   9.684 -0.5849  0.7678  0.7447
  305MOL0     C41067   7.309  -0.195   9.566 -1.3467  0.0494  0.8544
  305MOL0     C41068   7.335  -0.057   9.543 -0.0598 -0.7458  0.7490
  305MOL0     C41069   7.397  -0.015   9.420  0.4884 -0.3643  0.2088
  305MOL0     O41070   7.452  -0.113   9.344  0.2335 -0.1251  0.5840
  305MOL0     C41071   7.531  -0.069   9.236  0.1311 -0.4194 -0.2401
  305MOL0     C41072   7.649   0.001   9.252  0.1001  0.1772 -0.0664
  305MOL0     C41073   7.718   0.035   9.139  0.0741 -0.6666  0.0630
  305MOL0     C41074   7.686  -0.018   9.008  0.3065 -0.0570 -0.8040
  305MOL0     O41075   7.773   0.024   8.913  0.4897  0.5724 -0.9906
  305MOL0     C41076   7.723   0.049   8.786 -0.6598 -0.7002 -0.0735
  305MOL0     C41077   7.850   0.104   8.718 -0.8047  0.1487  0.8944
  305MOL0     C41078   7.832   0.152   8.573  0.4487  0.2074  1.3471
  305MOL0     C41079   7.933   0.253   8.522 -0.6050  0.6479 -0.7762
  305MOL0     C41080   8.075   0.199   8.504 -0.0017  0.5709  0.0238
  305MOL0     C41081   8.156   0.307   8.437 -0.0573 -0.1878  0.1200
  305MOL0     C41082   8.315   0.274   8.445  0.0777 -0.2117  0.4825
  305MOL0     C41083   8.357   0.143   8.399  0.8417  0.1583 -0.1422
  305MOL0    Cl41084   8.304   0.116   8.233  0.0973  0.2628 -0.5177
  305MOL0     C41085   7.577  -0.105   9.000  0.1280 -1.0810 -0.0759
  305MOL0     C41086   7.494  -0.118   9.110 -0.2441  0.2437  0.1700
  305MOL0     O41087   7.388   0.106   9.391  0.1755 -0.2048  0.1685
  305MOL0     C41088   7.296   0.041   9.640 -0.6763  0.6856  0.7466
  305MOL0     C41089   7.252  -0.009   9.757 -0.9257  0.5126  0.0997
  305MOL0     N41090   7.210  -0.036  10.549  0.2277 -0.2848  0.0029
  305MOL0     N41091   7.130   0.055  10.591  0.0898 -0.5860  0.1146
  305MOL0     C41092   7.374   0.572   9.680  0.5300  0.2849  0.4857
  305MOL0     C41093   7.481   0.618   9.598  0.5522  0.9762  0.2486
  305MOL0     C41094   7.842   0.503   9.329 -0.1464  0.2286  0.2825
  305MOL0     C41095   7.866   0.376   9.270  0.0753  0.0838 -1.0191
  305MOL0     C41096   7.958   0.358   9.165 -0.5684  0.1453 -0.0162
  305MOL0     C41097   8.009   0.475   9.112  0.8279  0.6134  0.1065
  305MOL0     O41098   8.080   0.479   8.992 -0.2661  0.8434 -0.9625
  305MOL0     C41099   8.149   0.359   8.944  1.1467  0.6130  0.4906
  305MOL0     C41100   8.235   0.379   8.820 -0.1245 -0.1261  0.2489
  305MOL0     C41101   8.339   0.491   8.826  0.7039  0.4246 -0.4674
  305MOL0     C41102   8.271   0.630   8.813 -0.1812 -0.1777 -0.4751
  305MOL0     C41103   8.367   0.730   8.765 -0.6131  0.3782 -0.6144
  305MOL0     C41104   8.441   0.824   8.738  0.2342  0.4067  0.0127
  305MOL0     C41105   7.983   0.596   9.170  0.2012  0.2721  1.7944
  305MOL0     C41106   7.903   0.619   9.274 -1.1425 -0.1640  0.8203
  305MOL0     C41107   7.881   0.753   9.340 -0.6133  0.5660 -0.1409
  305MOL0     H41108   7.454   0.386   9.346  0.9569 -5.7440  3.5927
  305MOL0     H41109   7.258   0.334   9.470  1.4825 -1.2601 -1.0527
  305MOL0     H41110   7.234   0.386   9.889 -0.1740 -1.9282 -1.7429
  305MOL0     H41111   7.127   0.527   9.863 -0.4153  0.0657  0.7270
  305MOL0     H41112   7.037   0.239   9.878  0.4916  0.4356  1.2778
  305MOL0     H41113   6.954   0.363   9.781 -3.9438 -0.8588  2.9419
  305MOL0     H41114   6.890   0.485   9.955 -1.2624 -0.0443  1.4662
  305MOL0     H41115   7.044   0.446  10.040  1.6155 -0.9685 -3.0882
  305MOL0     H41116   6.788   0.296  10.020 -0.1043  1.4336  0.5459
  305MOL0     H41117   6.943   0.207  10.063  3.2034  2.0329  0.6146
  305MOL0     H41118   6.978   0.354  10.258 -1.8684  0.7768  2.0211
  305MOL0     H41119   6.814   0.414  10.244 -0.5221 -0.4317  1.1124
  305MOL0     H41120   6.710   0.215  10.261 -0.2330  2.2381  1.2255
  305MOL0     H41121   6.871   0.123  10.251  3.2487  1.1721  1.7546
  305MOL0     H41122   6.784   0.102  10.479  0.6309  0.0051  0.4950
  305MOL0     H41123   6.766   0.279  10.482  0.5060  0.9658 -0.5286
  305MOL0     H41124   7.001   0.319  10.467  3.1254  0.1101  1.5147
  305MOL0     H41125   6.936   0.242  10.604 -1.5323 -0.2550 -0.8358
  305MOL0     H41126   7.107   0.106  10.266  0.7777  1.9217 -0.5700
  305MOL0     H41127   7.355  -0.039  10.262  0.3875  2.8208  5.1651
  305MOL0     H41128   7.346  -0.187  10.367 -2.0620 -1.5336 -0.2359
  305MOL0     H41129   7.119  -0.236  10.263  0.1505 -0.9306  0.0984
  305MOL0     H41130   7.160  -0.090  10.161 -1.5055 -0.8848 -0.0826
  305MOL0     H41131   7.284  -0.368  10.172  0.3926  0.8012  0.2477
  305MOL0     H41132   7.378  -0.226  10.108 -0.7135  1.1396  1.1321
  305MOL0     H41133   7.114  -0.339  10.009 -0.4039 -0.0952  1.6047
  305MOL0     H41134   7.273  -0.364   9.926  1.2581 -1.4488  2.0598
  305MOL0     H41135   7.228  -0.340   9.705 -2.1308  0.8243 -0.8429
  305MOL0     H41136   7.332  -0.268   9.490 -2.4246 -0.7348  1.2561
  305MOL0     H41137   7.678   0.026   9.354  2.0646 -0.8447 -0.3225
  305MOL0     H41138   7.797   0.109   9.140  0.5461 -0.8608 -4.2921
  305MOL0     H41139   7.710  -0.046   8.733  0.2933 -0.6133 -0.4856
  305MOL0     H41140   7.637   0.116   8.781  1.2984  1.9891 -0.1593
  305MOL0     H41141   7.878   0.189   8.781 -1.9432  0.3793  1.1172
  305MOL0     H41142   7.926   0.026   8.721 -0.7167  0.1980  0.2481
  305MOL0     H41143   7.819   0.071   8.501  1.1417  2.1913 -1.1354
  305MOL0     H41144   7.743   0.215   8.578  1.8312  2.5648 -1.1558
  305MOL0     H41145   7.943   0.332   8.598  2.9887 -0.0882 -0.2762
  305MOL0     H41146   7.881   0.284   8.431 -2.0027 -0.3914 -0.3553
  305MOL0     H41147   8.074   0.116   8.434 -0.0451  3.3721 -3.5864
  305MOL0     H41148   8.124   0.189   8.601  3.8297  1.2724 -1.6522
  305MOL0     H41149   8.126   0.305   8.332 -0.5556 -2.7101  0.2450
  305MOL0     H41150   8.143   0.409   8.476 -0.5378  0.4434 -1.6008
  305MOL0     H41151   8.350   0.293   8.547  2.6212  3.3088 -0.8423
  305MOL0     H41152   8.359   0.356   8.387 -3.2597  3.4486  2.6308
  305MOL0     H41153   8.467   0.141   8.400  0.8355 -0.5061 -0.1910
  305MOL0     H41154   8.314   0.058   8.453  1.8769 -1.7385 -2.1725
  305MOL0     H41155   7.558  -0.155   8.905 -0.8633 -1.3613  0.2541
  305MOL0     H41156   7.406  -0.181   9.097  1.3614 -1.8069 -1.4728
  305MOL0     H41157   7.327   0.145   9.633 -1.5830  0.8664 -1.5031
  305MOL0     H41158   7.236   0.064   9.835  1.5211  1.2118  0.0447
  305MOL0     H41159   7.345   0.624   9.772 -1.9553  1.4644 -0.8461
  305MOL0     H41160   7.546   0.700   9.626  0.0557  1.5891 -0.3565
  305MOL0     H41161   7.828   0.284   9.313 -1.2683 -0.5155 -3.2788
  305MOL0     H41162   7.975   0.261   9.120  0.0963  0.2093  0.0859
  305MOL0     H41163   8.084   0.272   8.928  0.0932  0.5161  4.3061
  305MOL0     H41164   8.221   0.335   9.023  1.0459 -3.3227 -0.4150
  305MOL0     H41165   8.175   0.385   8.728  2.3472 -1.3832 -1.5706
  305MOL0     H41166   8.290   0.286   8.811 -1.4123 -0.7662 -1.6045
  305MOL0     H41167   8.403   0.471   8.740  2.4673  0.6593  0.7455
  305MOL0     H41168   8.400   0.483   8.916  2.2700  0.2137 -1.5121
  305MOL0     H41169   8.188   0.627   8.742 -0.5384  4.3842 -0.5604
  305MOL0     H41170   8.226   0.657   8.909  0.2393 -0.6522 -0.1371
  305MOL0     H41171   8.507   0.907   8.725  2.5618 -1.4511 -0.6249
  305MOL0     H41172   8.030   0.685   9.130 -0.9126  0.8033  1.6244
  305MOL0     H41173   7.782   0.793   9.317 -0.4470  1.2986  0.3778
  305MOL0     H41174   7.891   0.743   9.449 -2.9071  1.5432  0.2159
  305MOL0     H41175   7.957   0.826   9.314  0.9850 -0.5671  1.1458
  306MOL0     O41176   1.497   4.305   0.969  0.1740 -0.4709  0.5440
  306MOL0     C41177   1.523   4.232   0.879 -0.0084  0.6031 -0.4504
  306MOL0     O41178   1.604   4.268   0.778  0.0939  0.5555  0.1872
  306MOL0     C41179   1.702   4.362   0.786  0.8773  0.1586 -0.1732
  306MOL0     C41180   1.747   4.407   0.660  0.9177 -0.1070 -0.3541
  306MOL0     C41181   1.844   4.510   0.654  0.1131  0.1829  0.4183
  306MOL0     C41182   1.901   4.564   0.765 -0.2144  0.2809 -0.0778
  306MOL0     O41183   2.001   4.664   0.762 -0.6735  1.1464 -0.4788
  306MOL0     C41184   2.070   4.689   0.635  0.7854  0.1993  0.4984
  306MOL0     C41185   2.185   4.795   0.646 -0.4425 -0.3815 -0.0240
  306MOL0     C41186   2.289   4.752   0.753 -0.0715 -0.0392 -0.9424
  306MOL0     C41187   2.421   4.825   0.731  0.4671  0.6895  0.7433
  306MOL0     C41188   2.539   4.740   0.774 -0.0659  0.5297 -0.0157
  306MOL0     C41189   2.667   4.785   0.706 -1.0221  0.5776 -0.0193
  306MOL0     C41190   2.789   4.695   0.735 -0.2180 -0.8198 -0.3103
  306MOL0     C41191   2.850   4.710   0.878 -0.6853 -0.0259  0.1128
  306MOL0     N41192   2.931   4.587   0.882  0.2362 -0.5078  0.6872
  306MOL0     C41193   2.884   4.468   0.937 -0.0691 -0.2673  0.1921
  306MOL0     C41194   2.982   4.385   0.911  0.4262 -0.2555  0.4245
  306MOL0     C41195   2.968   4.239   0.922  0.0639  0.3459 -0.1232
  306MOL0     C41196   2.917   4.202   1.065 -0.6749  0.3039  0.3004
  306MOL0     C41197   2.919   4.046   1.064  0.9592 -0.2779 -0.4941
  306MOL0     C41198   2.887   3.978   1.190  0.2752  1.1390 -0.0621
  306MOL0     O41199   2.847   3.845   1.158  0.2228  0.3383  0.1785
  306MOL0     C41200   2.860   3.736   1.240 -1.3045  0.1903 -0.2893
  306MOL0     C41201   2.876   3.606   1.184 -0.4662 -0.4069 -0.7504
  306MOL0     C41202   2.896   3.495   1.265  0.5931  0.4427 -0.7611
  306MOL0     C41203   2.894   3.500   1.408 -0.1204  0.2126 -0.0048
  306MOL0     C41204   2.887   3.375   1.496 -0.2564  0.2844  0.0262
  306MOL0     O41205   2.871   3.397   1.631  0.3777 -0.0423  0.6468
  306MOL0     C41206   2.891   3.290   1.699  0.0708  0.0997 -1.1323
  306MOL0     C41207   2.780   3.198   1.726 -0.8505 -0.8860  1.0586
  306MOL0     C41208   2.793   3.088   1.807 -0.3742  0.2472  0.7936
  306MOL0     C41209   2.912   3.057   1.869 -0.2794 -0.6221  0.1732
  306MOL0     O41210   2.936   2.949   1.951 -1.4292  0.7543  0.6273
  306MOL0     C41211   2.830   2.892   2.021  0.0412 -0.4517 -0.2184
  306MOL0     C41212   2.895   2.808   2.134 -0.2021 -0.0999  0.1132
  306MOL0     C41213   2.981   2.685   2.095 -0.4710 -0.8172  0.5573
  306MOL0     C41214   2.957   2.576   2.191 -0.2704 -0.0775  0.7935
  306MOL0     C41215   3.039   2.457   2.145  0.0344 -0.5010 -0.5705
  306MOL0     C41216   3.014   2.350   2.248  0.1676  0.8649 -0.4690
  306MOL0     C41217   3.067   2.205   2.201 -0.0413 -0.3875  0.0598
  306MOL0     C41218   2.965   2.138   2.116  0.2270  0.4463  0.0388
  306MOL0    Cl41219   2.836   2.071   2.220  0.3817 -0.2565 -0.0720
  306MOL0     C41220   3.019   3.144   1.843 -0.1360 -0.1262 -0.8370
  306MOL0     C41221   3.012   3.264   1.767 -0.6832  0.0194  0.8255
  306MOL0     O41222   2.920   3.271   1.432 -0.3689 -0.1901 -1.0478
  306MOL0     C41223   2.883   3.630   1.465  0.1818  0.5192 -0.1667
  306MOL0     C41224   2.872   3.748   1.385 -0.3486 -0.7084  1.4807
  306MOL0     N41225   3.093   4.448   0.854  0.6474  0.3293 -0.0638
  306MOL0     N41226   3.052   4.565   0.831  0.1749  0.4541 -0.8114
  306MOL0     C41227   1.859   4.514   0.886 -0.2586 -0.2719 -0.4286
  306MOL0     C41228   1.758   4.421   0.897  0.0978  0.4682 -0.6615
  306MOL0     C41229   1.477   4.097   0.881 -0.7186  0.8018 -0.4750
  306MOL0     C41230   1.465   4.037   0.748  0.0083 -0.1588 -0.5194
  306MOL0     C41231   1.409   3.909   0.728  0.6183  0.2613  0.0499
  306MOL0     C41232   1.356   3.840   0.839  0.4354 -0.5936  0.3011
  306MOL0     O41233   1.289   3.718   0.803 -0.8729  0.1604 -0.2305
  306MOL0     C41234   1.192   3.660   0.898  1.4134  0.7772  0.9199
  306MOL0     C41235   1.248   3.568   1.004 -0.1799 -0.4033  0.3740
  306MOL0     C41236   1.153   3.454   1.047 -1.1114  0.8351 -0.3752
  306MOL0     C41237   1.058   3.494   1.155 -0.2173 -0.2424  0.2153
  306MOL0     C41238   0.935   3.540   1.093 -0.1022 -0.4487  0.4499
  306MOL0     C41239   0.837   3.564   1.028 -0.5960 -0.1690 -0.4238
  306MOL0     C41240   1.365   3.887   0.968 -1.0191 -0.3420  0.5011
  306MOL0     C41241   1.422   4.019   0.991 -0.2668  0.1288  0.1283
  306MOL0     C41242   1.437   4.071   1.128  0.0428 -0.3053 -0.6896
  306MOL0     H41243   1.695   4.369   0.572 -1.1708  2.1154 -0.1636
  306MOL0     H41244   1.861   4.558   0.558 -0.8856  3.5269  1.7726
  306MOL0     H41245   2.109   4.600   0.585 -0.7112  2.0235 -4.5816
  306MOL0     H41246   1.991   4.728   0.571 -0.6774  0.0257  2.1330
  306MOL0     H41247   2.144   4.889   0.683  0.7184 -0.5475  1.7725
  306MOL0     H41248   2.232   4.815   0.549 -0.8824  1.1987  0.0669
  306MOL0     H41249   2.303   4.643   0.749 -4.0899 -0.6846 -1.1960
  306MOL0     H41250   2.259   4.775   0.855  1.2049  3.7279 -1.2818
  306MOL0     H41251   2.437   4.854   0.627  2.3755  3.1222  1.6305
  306MOL0     H41252   2.426   4.928   0.765 -1.8111  1.0475  0.0939
  306MOL0     H41253   2.539   4.756   0.882 -1.6217 -0.2598  0.1305
  306MOL0     H41254   2.531   4.632   0.759  1.8657  0.5375 -1.5045
  306MOL0     H41255   2.652   4.791   0.598 -0.2437 -2.6109 -0.4014
  306MOL0     H41256   2.690   4.881   0.753  1.2281 -0.1042  0.3938
  306MOL0     H41257   2.875   4.711   0.668  2.0304 -1.0765  2.3362
  306MOL0     H41258   2.750   4.593   0.724  0.5344 -1.3653  1.7021
  306MOL0     H41259   2.914   4.798   0.887 -0.5822 -0.2024  1.3094
  306MOL0     H41260   2.780   4.705   0.962  0.9166 -0.1790  1.4917
  306MOL0     H41261   2.787   4.463   0.984 -1.1325  4.3063 -1.0208
  306MOL0     H41262   2.892   4.209   0.850 -0.9505 -1.3452  1.5520
  306MOL0     H41263   3.063   4.191   0.895 -1.0095 -2.7073  1.1705
  306MOL0     H41264   2.989   4.248   1.133 -2.0974  1.6379  0.9572
  306MOL0     H41265   2.816   4.242   1.076 -1.6104 -2.0035  0.7897
  306MOL0     H41266   3.006   4.009   1.010  0.9507  0.2692 -0.8910
  306MOL0     H41267   2.840   4.029   0.991 -0.6071  0.9854  0.8165
  306MOL0     H41268   2.814   4.028   1.254 -0.4248  0.7794 -0.5637
  306MOL0     H41269   2.977   3.980   1.252 -1.4360  4.0281  2.6512
  306MOL0     H41270   2.872   3.601   1.076 -2.6406  0.3860 -0.7527
  306MOL0     H41271   2.923   3.399   1.221  2.4129  1.8200 -2.8854
  306MOL0     H41272   2.686   3.215   1.675 -0.5552  0.0588  0.8105
  306MOL0     H41273   2.712   3.019   1.826 -2.4449  1.4676 -2.6052
  306MOL0     H41274   2.767   2.970   2.064  2.6481  0.6317  1.8850
  306MOL0     H41275   2.777   2.824   1.954  1.5166 -2.5529  0.6669
  306MOL0     H41276   2.962   2.879   2.183  0.3655 -1.6146  1.6169
  306MOL0     H41277   2.815   2.781   2.202 -0.2492 -2.7717 -0.8974
  306MOL0     H41278   2.946   2.655   1.995 -3.4680  0.1745  1.1920
  306MOL0     H41279   3.083   2.723   2.082  0.4909 -0.1243  6.9860
  306MOL0     H41280   2.851   2.555   2.204 -0.3533  0.3296  0.8066
  306MOL0     H41281   3.001   2.610   2.285  1.0048  1.7146 -0.3670
  306MOL0     H41282   3.146   2.472   2.132  0.1340  0.2578  0.9167
  306MOL0     H41283   2.998   2.427   2.048 -0.1228  1.7850 -1.2505
  306MOL0     H41284   3.073   2.380   2.335  0.1945  1.4267 -0.6820
  306MOL0     H41285   2.907   2.351   2.271 -0.1695 -3.3259 -0.9168
  306MOL0     H41286   3.093   2.147   2.291  0.8091  0.3193  0.2796
  306MOL0     H41287   3.159   2.202   2.143 -0.1967 -0.9364 -0.1726
  306MOL0     H41288   2.912   2.198   2.042  3.4892 -1.1716 -4.0271
  306MOL0     H41289   3.020   2.053   2.074 -1.1318 -0.0262 -0.8383
  306MOL0     H41290   3.112   3.130   1.898 -2.4129 -0.4085  3.4432
  306MOL0     H41291   3.098   3.325   1.743  0.2293 -1.8689 -0.8692
  306MOL0     H41292   2.865   3.643   1.571 -1.4097 -1.1903 -0.1846
  306MOL0     H41293   2.851   3.848   1.422  1.9426  1.3820 -2.2599
  306MOL0     H41294   1.901   4.551   0.979  0.8231 -2.1649 -0.1216
  306MOL0     H41295   1.728   4.384   0.995  1.8708 -0.2886 -0.3663
  306MOL0     H41296   1.511   4.081   0.661 -0.6483 -0.5387 -1.0726
  306MOL0     H41297   1.397   3.867   0.629 -0.9843  0.9014 -0.0499
  306MOL0     H41298   1.132   3.589   0.840  1.2852  2.2459 -0.8509
  306MOL0     H41299   1.114   3.726   0.936 -0.6631 -1.2518  0.4129
  306MOL0     H41300   1.272   3.627   1.093 -3.4192  0.4013  0.8267
  306MOL0     H41301   1.349   3.532   0.980 -0.3559 -0.7063  0.0829
  306MOL0     H41302   1.228   3.386   1.091  2.8039  1.8946 -4.6825
  306MOL0     H41303   1.118   3.392   0.964  1.0586 -1.1999  0.1152
  306MOL0     H41304   1.040   3.416   1.229 -0.3551 -3.1769 -2.6803
  306MOL0     H41305   1.109   3.569   1.216  1.1882 -4.0928  4.2737
  306MOL0     H41306   0.749   3.573   0.968 -0.9839 -0.0083  0.1632
  306MOL0     H41307   1.338   3.838   1.061 -0.9567  0.5908  1.0304
  306MOL0     H41308   1.536   4.105   1.160 -0.0032 -1.8274  1.2249
  306MOL0     H41309   1.362   4.151   1.135 -1.0389 -1.3451 -0.1899
  306MOL0     H41310   1.399   3.999   1.201 -0.0448 -0.7987 -1.2110
  307MOL0     O41311   8.170   9.040  10.349  0.0408 -0.1607 -0.5045
  307MOL0     C41312   8.080   9.054  10.274  1.8734 -0.2638  0.1720
  307MOL0     O41313   7.961   8.984  10.290  0.2890  0.5226  0.2903
  307MOL0     C41314   7.931   8.894  10.396 -0.0469  0.3161  1.0018
  307MOL0     C41315   8.014   8.839  10.495 -0.1162  0.0133 -0.2249
  307MOL0     C41316   7.971   8.764  10.605  0.5818  0.1104  0.0580
  307MOL0     C41317   7.829   8.737  10.615  0.3746 -0.2831  0.2081
  307MOL0     O41318   7.775   8.657  10.717  0.5111  0.0231 -0.0929
  307MOL0     C41319   7.857   8.575  10.793 -0.1431 -0.6132 -0.4186
  307MOL0     C41320   7.767   8.500  10.902  0.5496  0.1875 -0.8061
  307MOL0     C41321   7.651   8.408  10.855  0.5235 -0.4527  0.8469
  307MOL0     C41322   7.712   8.288  10.761  0.6182  0.7701 -0.2034
  307MOL0     C41323   7.606   8.233  10.671  0.1822  0.9208  0.1026
  307MOL0     C41324   7.672   8.126  10.583  0.8606  0.1760  0.1104
  307MOL0     C41325   7.572   8.065  10.473  1.0390 -0.2494 -0.1178
  307MOL0     C41326   7.538   8.164  10.353 -0.0758 -0.1782  0.4233
  307MOL0     N41327   7.395   8.142  10.317 -0.4574  0.1137  0.7629
  307MOL0     C41328   7.339   8.022  10.292  0.7146  0.1888  0.3829
  307MOL0     C41329   7.211   8.044  10.265 -0.3082 -0.2097 -0.2379
  307MOL0     C41330   7.093   7.956  10.253 -0.1792 -0.0335 -0.3111
  307MOL0     C41331   7.051   7.895  10.381 -0.1369  0.2301  0.2142
  307MOL0     C41332   6.921   7.812  10.359  0.0427  0.3921 -0.6259
  307MOL0     C41333   6.894   7.695  10.465 -0.2479 -0.5523 -0.0855
  307MOL0     O41334   6.897   7.746  10.595  0.2081 -0.7124  0.4262
  307MOL0     C41335   6.875   7.662  10.703 -1.0954 -0.3882 -0.4764
  307MOL0     C41336   6.872   7.519  10.700  0.1188  0.0260 -0.3706
  307MOL0     C41337   6.837   7.439  10.808 -0.3678  0.3615  0.3528
  307MOL0     C41338   6.817   7.501  10.930  1.1587  0.3747 -0.7443
  307MOL0     C41339   6.767   7.435  11.049 -0.8155  0.6762 -0.6142
  307MOL0     O41340   6.701   7.509  11.146 -0.2766 -0.1556 -0.7303
  307MOL0     C41341   6.674   7.446  11.268  0.0340 -0.4065 -0.4362
  307MOL0     C41342   6.776   7.394  11.357 -0.2775  0.8480 -0.1121
  307MOL0     C41343   6.738   7.313  11.467 -0.4497  0.8347  0.2845
  307MOL0     C41344   6.602   7.291  11.505 -0.0690  0.3130 -0.4422
  307MOL0     O41345   6.592   7.230  11.634  0.3753 -0.2594 -0.4310
  307MOL0     C41346   6.462   7.192  11.661 -0.5638  0.2529 -0.0263
  307MOL0     C41347   6.376   7.305  11.711  0.1663  0.0793 -0.1056
  307MOL0     C41348   6.423   7.354  11.852  0.1112  0.4582  0.4759
  307MOL0     C41349   6.421   7.242  11.948 -0.5219  1.0938  0.0804
  307MOL0     C41350   6.435   7.297  12.087  1.0259 -0.3320  1.4254
  307MOL0     C41351   6.518   7.196  12.170  0.3522 -0.8485  0.6817
  307MOL0     C41352   6.515   7.226  12.320 -0.3088  0.5526  0.7196
  307MOL0     C41353   6.619   7.131  12.380 -0.1060  0.5951 -0.8772
  307MOL0    Cl41354   6.665   7.171  12.545 -0.2673 -0.3214  0.2793
  307MOL0     C41355   6.508   7.332  11.408  0.3597  0.2347 -0.3854
  307MOL0     C41356   6.536   7.407  11.293 -1.1643  0.1574 -1.3645
  307MOL0     O41357   6.781   7.313  11.054  0.3283  0.8450  0.1976
  307MOL0     C41358   6.829   7.639  10.933 -0.4689 -0.2125  1.3399
  307MOL0     C41359   6.859   7.720  10.826  0.3647 -0.1127 -0.2198
  307MOL0     N41360   7.190   8.180  10.263 -0.5725 -0.3559  1.3245
  307MOL0     N41361   7.304   8.235  10.294  0.7599 -0.7229 -0.1118
  307MOL0     C41362   7.740   8.791  10.513 -0.1001 -0.1059 -0.0417
  307MOL0     C41363   7.792   8.868  10.408 -0.1553 -0.0389 -0.9463
  307MOL0     C41364   8.098   9.120  10.144  0.0850  0.9016 -0.3179
  307MOL0     C41365   8.089   9.041  10.030 -0.5284 -0.0709  0.3902
  307MOL0     C41366   8.094   9.096   9.907 -0.6276  0.8775 -0.2052
  307MOL0     C41367   8.116   9.234   9.895 -0.7179 -0.4802 -0.6122
  307MOL0     O41368   8.136   9.287   9.771  0.0619 -0.0466  0.3855
  307MOL0     C41369   8.153   9.210   9.651  0.4025  0.3343  0.8298
  307MOL0     C41370   8.159   9.291   9.529 -0.6568 -0.5383  0.3240
  307MOL0     C41371   8.289   9.373   9.522  0.9056 -0.5516  0.4648
  307MOL0     C41372   8.288   9.481   9.411 -0.2983 -0.0737  0.2742
  307MOL0     C41373   8.311   9.416   9.281  0.1997  0.2307  0.3209
  307MOL0     C41374   8.322   9.356   9.175  0.5723  0.1518  0.2876
  307MOL0     C41375   8.122   9.311  10.010 -1.0488 -0.0110  0.1487
  307MOL0     C41376   8.109   9.256  10.138  1.1536 -0.2649  0.8971
  307MOL0     C41377   8.106   9.341  10.258 -0.3185  0.4732 -0.0354
  307MOL0     H41378   8.121   8.856  10.483  0.1659 -0.9754  0.6887
  307MOL0     H41379   8.046   8.729  10.674  0.1750  2.0047  1.5458
  307MOL0     H41380   7.923   8.516  10.728  0.8918  1.9559 -1.8511
  307MOL0     H41381   7.925   8.634  10.854 -0.4594 -3.2513  2.7786
  307MOL0     H41382   7.720   8.578  10.962 -1.4250  1.3357 -3.6287
  307MOL0     H41383   7.824   8.434  10.968 -1.7408 -3.6552 -2.3262
  307MOL0     H41384   7.578   8.468  10.800 -1.4735 -1.6242  2.1145
  307MOL0     H41385   7.599   8.364  10.941 -0.7538 -2.2704 -0.7691
  307MOL0     H41386   7.802   8.318  10.707 -0.6728  1.4260 -2.0758
  307MOL0     H41387   7.737   8.208  10.832 -0.4208  1.1858  0.6568
  307MOL0     H41388   7.531   8.189  10.737 -2.1600  2.5128 -1.3089
  307MOL0     H41389   7.555   8.313  10.615  1.1905  4.0130  3.2582
  307MOL0     H41390   7.754   8.157  10.518  0.2366  0.1560 -0.7062
  307MOL0     H41391   7.702   8.052  10.657 -0.1310 -0.2552  0.0921
  307MOL0     H41392   7.479   8.037  10.524 -0.1636  2.8160 -0.4319
  307MOL0     H41393   7.616   7.974  10.432  0.6607 -0.7680  0.5969
  307MOL0     H41394   7.562   8.266  10.385 -2.5349  0.9687 -1.1130
  307MOL0     H41395   7.598   8.139  10.265  2.2411 -0.8140  2.0814
  307MOL0     H41396   7.396   7.931  10.312  3.1132  1.1569 -1.5682
  307MOL0     H41397   7.010   8.006  10.204  0.2870 -1.1307 -2.3355
  307MOL0     H41398   7.115   7.876  10.181 -2.7396 -1.6904  0.6278
  307MOL0     H41399   7.134   7.840  10.425 -0.4148  0.1116  0.6051
  307MOL0     H41400   7.028   7.974  10.453  1.1438 -0.4802  1.4550
  307MOL0     H41401   6.937   7.757  10.266  1.3383  0.7544 -0.6411
  307MOL0     H41402   6.836   7.880  10.356 -0.9142 -0.6128  1.5800
  307MOL0     H41403   6.960   7.611  10.443  0.0552 -0.0672 -1.0869
  307MOL0     H41404   6.792   7.655  10.456  0.0118 -0.7994 -2.5775
  307MOL0     H41405   6.890   7.480  10.600  0.4599 -4.1891  1.1617
  307MOL0     H41406   6.831   7.332  10.791 -2.8553  0.7820 -2.1951
  307MOL0     H41407   6.875   7.426  11.327 -1.1175  2.5076 -1.3280
  307MOL0     H41408   6.807   7.279  11.544  0.4204  0.7946 -0.4830
  307MOL0     H41409   6.416   7.145  11.574  1.2601  0.2661 -1.0448
  307MOL0     H41410   6.465   7.118  11.742  0.5168 -0.8392 -1.0273
  307MOL0     H41411   6.378   7.383  11.635 -0.8521 -1.6983 -2.0817
  307MOL0     H41412   6.274   7.272  11.731 -0.0396  1.5895  1.5782
  307MOL0     H41413   6.521   7.399  11.830  1.7220 -3.2512 -0.7446
  307MOL0     H41414   6.357   7.431  11.893 -3.4130 -2.6129  1.1089
  307MOL0     H41415   6.511   7.182  11.931 -1.5142 -0.1457 -1.0489
  307MOL0     H41416   6.330   7.183  11.940 -0.2318  0.5743  0.5864
  307MOL0     H41417   6.338   7.307  12.137  0.7398 -0.1458  0.8359
  307MOL0     H41418   6.483   7.394  12.100  2.9933 -1.4544  3.0879
  307MOL0     H41419   6.483   7.095  12.145 -1.4743 -0.7896  2.7055
  307MOL0     H41420   6.622   7.196  12.135  0.0498  1.3138 -0.3215
  307MOL0     H41421   6.414   7.205  12.356 -1.8781  0.5226 -3.1748
  307MOL0     H41422   6.537   7.331  12.342  1.9650  0.0502  1.1486
  307MOL0     H41423   6.579   7.029  12.385  0.0433  0.5812  2.0427
  307MOL0     H41424   6.703   7.118  12.311 -0.2756 -3.9905 -0.5508
  307MOL0     H41425   6.403   7.314  11.431  0.4247 -0.3906 -0.5732
  307MOL0     H41426   6.455   7.435  11.227 -0.1466  3.1285 -1.5121
  307MOL0     H41427   6.798   7.686  11.026 -0.7822  2.6042 -0.0799
  307MOL0     H41428   6.852   7.828  10.837 -0.5447 -0.3983  2.6144
  307MOL0     H41429   7.639   8.751  10.526  0.3642 -0.8122  1.6255
  307MOL0     H41430   7.722   8.909  10.336 -1.0488 -1.9502 -1.1989
  307MOL0     H41431   8.081   8.933  10.036 -0.2856 -0.4279 -3.2922
  307MOL0     H41432   8.094   9.022   9.828 -0.2044  0.8012 -0.1388
  307MOL0     H41433   8.066   9.150   9.624 -1.1658  3.5121 -1.9834
  307MOL0     H41434   8.235   9.140   9.668  0.1542  0.1093  1.1033
  307MOL0     H41435   8.080   9.366   9.535  0.8013  1.0585  0.2962
  307MOL0     H41436   8.144   9.236   9.436  1.9305  0.8211 -1.0162
  307MOL0     H41437   8.374   9.305   9.517 -0.0251 -1.6463 -1.5904
  307MOL0     H41438   8.302   9.432   9.613 -2.5373 -0.4390  1.0266
  307MOL0     H41439   8.187   9.521   9.398  0.3142  0.9501 -1.7784
  307MOL0     H41440   8.356   9.566   9.418  3.0552 -2.3607 -1.8698
  307MOL0     H41441   8.324   9.318   9.075 -2.6643 -1.0888  0.5500
  307MOL0     H41442   8.144   9.416  10.003 -0.6963 -0.1560 -1.1768
  307MOL0     H41443   8.149   9.302  10.351 -0.8040  2.8182  1.2470
  307MOL0     H41444   8.159   9.436  10.243 -2.3905  2.0599  1.9491
  307MOL0     H41445   8.001   9.368  10.268  0.0771  1.2411  3.3641
  308MOL0     O41446   0.854  11.269   4.670  0.2928 -0.0245  0.2026
  308MOL0     C41447   0.888  11.185   4.586  0.0859  0.3226 -0.8040
  308MOL0     O41448   0.983  11.090   4.611 -0.4131 -0.1707  0.0279
  308MOL0     C41449   1.118  11.117   4.646  1.2761 -0.3762  0.9133
  308MOL0     C41450   1.183  11.235   4.620  0.0835  0.3482  1.0275
  308MOL0     C41451   1.314  11.239   4.651  0.2528  0.5137 -0.5374
  308MOL0     C41452   1.387  11.124   4.697  0.0533  0.6580  0.7407
  308MOL0     O41453   1.519  11.118   4.740 -0.4436  0.9912  0.1974
  308MOL0     C41454   1.589  11.237   4.751  0.1611 -1.4169  0.6256
  308MOL0     C41455   1.734  11.211   4.799 -0.8571 -0.2006 -0.6897
  308MOL0     C41456   1.830  11.140   4.698  0.5619 -0.6088  0.2207
  308MOL0     C41457   1.926  11.023   4.753  0.0842 -0.5224 -0.1766
  308MOL0     C41458   2.062  11.070   4.819  0.3746  0.2628 -0.8239
  308MOL0     C41459   2.045  11.130   4.960  0.2121  0.1550  1.6868
  308MOL0     C41460   2.184  11.168   5.008 -1.1188 -0.0146  0.5187
  308MOL0     C41461   2.199  11.332   5.005 -0.3007 -0.0337  0.3342
  308MOL0     N41462   2.121  11.401   5.107  0.6502  0.4187  0.0875
  308MOL0     C41463   1.992  11.442   5.077  0.1669  0.8669  0.2348
  308MOL0     C41464   1.940  11.477   5.193 -0.5835  0.1429 -0.8084
  308MOL0     C41465   1.799  11.527   5.197 -0.7723 -0.5735  0.2069
  308MOL0     C41466   1.693  11.442   5.118 -0.6662  0.0066  0.5075
  308MOL0     C41467   1.560  11.473   5.171  0.1157  0.0783  0.0058
  308MOL0     C41468   1.453  11.394   5.092 -0.8596 -0.2404 -0.0487
  308MOL0     O41469   1.330  11.410   5.162  0.5394 -0.4128 -0.6876
  308MOL0     C41470   1.238  11.312   5.157  0.2004  0.1521  0.3528
  308MOL0     C41471   1.129  11.321   5.247  0.0389  0.1055  0.2496
  308MOL0     C41472   1.019  11.233   5.250  0.8711 -0.7716  1.1637
  308MOL0     C41473   1.011  11.139   5.150  0.0723 -0.6796  0.8897
  308MOL0     C41474   0.879  11.071   5.127 -0.7014 -0.3543  0.1252
  308MOL0     O41475   0.841  11.058   4.993  0.1207 -0.6651 -0.3167
  308MOL0     C41476   0.741  10.964   4.963 -0.4802 -0.5077 -0.6769
  308MOL0     C41477   0.745  10.827   5.020  0.4525  0.4837  0.6541
  308MOL0     C41478   0.638  10.739   4.987  0.7719  0.9677 -0.1866
  308MOL0     C41479   0.524  10.786   4.920 -0.1178  0.5966 -0.2834
  308MOL0     O41480   0.426  10.699   4.880 -0.3130  0.2018 -0.1838
  308MOL0     C41481   0.439  10.558   4.901 -0.5392 -0.8796  0.2630
  308MOL0     C41482   0.304  10.506   4.858  0.0956 -0.8284  0.2916
  308MOL0     C41483   0.317  10.353   4.861  0.8316 -0.0982 -0.3206
  308MOL0     C41484   0.183  10.287   4.822  0.0833 -0.0723  1.6174
  308MOL0     C41485   0.190  10.130   4.820  0.6601 -0.3511 -0.2391
  308MOL0     C41486   0.295  10.071   4.722  0.1761  1.5914  0.8515
  308MOL0     C41487   0.276   9.927   4.702 -0.0127  0.5739 -0.2002
  308MOL0     C41488   0.364   9.871   4.589 -0.5623  0.2880  0.9924
  308MOL0    Cl41489   0.316   9.950   4.431 -0.5567  0.5209  0.1478
  308MOL0     C41490   0.527  10.909   4.856 -0.1613 -0.1103 -0.0813
  308MOL0     C41491   0.635  11.003   4.882 -0.5679 -0.2731 -0.4921
  308MOL0     O41492   0.819  11.022   5.220  0.7022 -0.3976  0.2868
  308MOL0     C41493   1.112  11.129   5.047 -0.6172  0.8440 -0.9338
  308MOL0     C41494   1.229  11.212   5.063  1.1716  0.0599 -0.2934
  308MOL0     N41495   2.034  11.456   5.297  0.2737 -0.7752  0.0160
  308MOL0     N41496   2.143  11.417   5.246  0.7629 -0.1102  0.6689
  308MOL0     C41497   1.320  11.009   4.712  0.0984  0.6452  0.9703
  308MOL0     C41498   1.183  11.005   4.687  0.6754  0.5135  0.0767
  308MOL0     C41499   0.836  11.189   4.453 -0.1175 -0.0997  0.9458
  308MOL0     C41500   0.919  11.120   4.353  0.8775  0.0487  0.8285
  308MOL0     C41501   0.880  11.113   4.225  1.0412  0.8911  0.0344
  308MOL0     C41502   0.743  11.160   4.187 -0.4426 -0.7750 -0.1778
  308MOL0     O41503   0.697  11.153   4.060 -0.7072 -0.3056  0.8412
  308MOL0     C41504   0.802  11.111   3.962  0.4874  0.0572  0.1522
  308MOL0     C41505   0.748  11.125   3.815  0.0723 -0.6363  0.3770
  308MOL0     C41506   0.697  11.259   3.760  0.2402  0.0653  0.2364
  308MOL0     C41507   0.626  11.235   3.633 -0.2775  0.3485  0.4753
  308MOL0     C41508   0.711  11.191   3.521  0.5796  0.1821 -0.0847
  308MOL0     C41509   0.774  11.146   3.431  0.7510  0.4334 -0.0981
  308MOL0     C41510   0.660  11.222   4.278  0.1116  0.1896  0.1594
  308MOL0     C41511   0.707  11.239   4.412  1.0598 -0.7912 -0.0863
  308MOL0     C41512   0.622  11.323   4.503 -0.8666  0.5759 -0.6057
  308MOL0     H41513   1.134  11.322   4.575  1.1899 -0.6376 -2.3552
  308MOL0     H41514   1.366  11.334   4.655 -0.2766  0.8253 -0.8427
  308MOL0     H41515   1.608  11.286   4.655  0.0240 -1.3253  0.6465
  308MOL0     H41516   1.535  11.308   4.813  0.9139  1.9975 -2.3203
  308MOL0     H41517   1.739  11.153   4.892 -0.5094 -2.3186 -1.9535
  308MOL0     H41518   1.777  11.308   4.827 -0.9743 -1.3923  4.7820
  308MOL0     H41519   1.888  11.215   4.644 -0.5387 -2.4716 -3.9842
  308MOL0     H41520   1.763  11.090   4.627 -0.9681  0.5836  0.7742
  308MOL0     H41521   1.880  10.961   4.831  2.7775 -0.6725  1.4272
  308MOL0     H41522   1.957  10.960   4.669 -1.3024  0.7395 -1.7104
  308MOL0     H41523   2.117  10.976   4.825  0.1498  0.1505 -0.4860
  308MOL0     H41524   2.110  11.141   4.750  0.0971  2.4977  1.1325
  308MOL0     H41525   1.985  11.221   4.954  2.1203  1.4108  0.0244
  308MOL0     H41526   1.995  11.057   5.024  0.1487 -1.5319 -0.1733
  308MOL0     H41527   2.261  11.130   4.942  1.0084 -0.6179  3.1715
  308MOL0     H41528   2.200  11.136   5.111 -3.4331 -1.1938  0.5885
  308MOL0     H41529   2.304  11.346   5.033 -0.6436  2.4076  0.6341
  308MOL0     H41530   2.185  11.379   4.907  0.4620 -0.7118 -0.1116
  308MOL0     H41531   1.947  11.452   4.979 -1.4262  1.7036  1.0227
  308MOL0     H41532   1.772  11.512   5.302 -1.3131 -0.7960  0.0434
  308MOL0     H41533   1.783  11.630   5.166  2.9089  1.1915  3.3359
  308MOL0     H41534   1.675  11.470   5.014  1.0922 -1.9097 -0.3847
  308MOL0     H41535   1.719  11.336   5.125  2.2673  0.7520  3.5582
  308MOL0     H41536   1.530  11.577   5.153 -2.6625 -0.4453  1.0483
  308MOL0     H41537   1.556  11.425   5.269  0.3249 -0.6528 -0.3405
  308MOL0     H41538   1.468  11.287   5.079 -1.1775 -0.2271 -0.5902
  308MOL0     H41539   1.454  11.434   4.990  1.6291 -0.5027 -0.1798
  308MOL0     H41540   1.141  11.391   5.328 -1.4769  3.3635 -2.1231
  308MOL0     H41541   0.935  11.257   5.315 -0.0201 -5.9408  2.3401
  308MOL0     H41542   0.836  10.799   5.073  0.4001  0.0370  0.5145
  308MOL0     H41543   0.653  10.643   5.035  0.4429  1.6761  1.3980
  308MOL0     H41544   0.517  10.532   4.828 -1.7208 -2.0396 -0.6409
  308MOL0     H41545   0.465  10.540   5.005  4.3963 -0.2157 -0.5890
  308MOL0     H41546   0.239  10.529   4.943  0.6678 -2.7649  1.3348
  308MOL0     H41547   0.273  10.551   4.763  1.2151  1.3858  0.9150
  308MOL0     H41548   0.399  10.309   4.803  2.6488 -0.7580  2.4799
  308MOL0     H41549   0.347  10.317   4.960 -0.5203  1.2346  0.6118
  308MOL0     H41550   0.175  10.315   4.717  2.9157 -5.7232 -0.5713
  308MOL0     H41551   0.098  10.325   4.879  0.0131 -0.8534  2.0554
  308MOL0     H41552   0.095  10.095   4.779  0.4778 -2.1872  1.5951
  308MOL0     H41553   0.208  10.088   4.919  0.2574  0.6224  0.2637
  308MOL0     H41554   0.276  10.119   4.626 -0.3081  1.5735  0.9394
  308MOL0     H41555   0.396  10.098   4.755  1.4871 -0.0968 -1.4377
  308MOL0     H41556   0.169   9.916   4.683 -0.9969 -0.0846  4.5043
  308MOL0     H41557   0.292   9.871   4.795 -2.0679 -1.0996 -0.7733
  308MOL0     H41558   0.467   9.900   4.608  0.9493 -3.4225 -0.6680
  308MOL0     H41559   0.348   9.763   4.582  0.9801  0.0812  0.4820
  308MOL0     H41560   0.450  10.946   4.789  0.8055  1.5109 -0.3349
  308MOL0     H41561   0.642  11.098   4.829 -1.9022  0.0180 -0.1644
  308MOL0     H41562   1.100  11.063   4.962 -0.9315  1.2302 -1.1887
  308MOL0     H41563   1.295  11.201   4.978  1.1133  1.7212 -0.5881
  308MOL0     H41564   1.381  10.925   4.743  1.4850  2.1567  2.4784
  308MOL0     H41565   1.133  10.911   4.712  2.4246 -0.0439  1.6545
  308MOL0     H41566   1.022  11.092   4.374  2.3915  5.0046  1.2183
  308MOL0     H41567   0.952  11.064   4.159  0.4882  3.6358 -2.8741
  308MOL0     H41568   0.839  11.008   3.973  1.0278 -0.1848 -3.1126
  308MOL0     H41569   0.884  11.180   3.981  0.4818 -0.2609  1.4270
  308MOL0     H41570   0.677  11.044   3.799 -0.0195 -0.5665  0.4301
  308MOL0     H41571   0.831  11.097   3.749 -0.5520  0.3013 -0.8477
  308MOL0     H41572   0.777  11.333   3.756  0.6236 -0.3817 -1.8474
  308MOL0     H41573   0.612  11.286   3.823 -3.4609 -2.1225 -3.3118
  308MOL0     H41574   0.535  11.174   3.637  0.0765 -0.8926 -4.2366
  308MOL0     H41575   0.590  11.338   3.625 -0.4048  0.3745  1.2880
  308MOL0     H41576   0.844  11.111   3.358  4.9267 -1.1201  4.1219
  308MOL0     H41577   0.566  11.262   4.241  0.6856 -0.6775 -2.4815
  308MOL0     H41578   0.528  11.356   4.458 -1.2226 -0.0986 -0.3883
  308MOL0     H41579   0.594  11.260   4.588  1.8277 -0.5024 -0.4103
  308MOL0     H41580   0.681  11.410   4.534  3.7539 -2.6064  0.7398
  309MOL0     O41581   5.886  11.289   5.962 -0.1685  0.4816  0.5491
  309MOL0     C41582   5.959  11.367   5.899  0.2356  0.5916  0.6801
  309MOL0     O41583   5.997  11.485   5.945 -0.2795 -0.4989 -0.4344
  309MOL0     C41584   5.980  11.519   6.079  0.3882 -0.0210 -0.2807
  309MOL0     C41585   5.974  11.658   6.098  0.9009 -0.1293  0.4628
  309MOL0     C41586   5.931  11.715   6.224  0.7260 -0.1591  0.1608
  309MOL0     C41587   5.912  11.638   6.338  0.6385  0.4393  1.0192
  309MOL0     O41588   5.865  11.677   6.465 -0.2739 -0.2606 -0.0045
  309MOL0     C41589   5.760  11.777   6.481 -1.2018  0.3073  0.0488
  309MOL0     C41590   5.696  11.741   6.621 -0.5201  0.3275  0.2269
  309MOL0     C41591   5.794  11.769   6.727 -0.3725 -0.0659  0.3918
  309MOL0     C41592   5.738  11.770   6.862 -0.1178  0.3514 -0.4987
  309MOL0     C41593   5.671  11.914   6.885  0.4322 -0.3892 -0.0512
  309MOL0     C41594   5.750  12.024   6.941 -0.1625  0.7250  0.3827
  309MOL0     C41595   5.670  12.135   7.019  0.4000  0.4735 -0.5659
  309MOL0     C41596   5.613  12.070   7.147 -0.5034  0.3540 -0.7107
  309MOL0     N41597   5.513  12.153   7.225 -0.2592  0.2379 -0.3298
  309MOL0     C41598   5.546  12.278   7.267  0.6933 -0.3167  0.0320
  309MOL0     C41599   5.449  12.306   7.352 -0.2622  0.6648 -0.7842
  309MOL0     C41600   5.402  12.439   7.402 -0.5896  0.4271 -1.1776
  309MOL0     C41601   5.509  12.553   7.417 -0.2360  0.8365 -0.6070
  309MOL0     C41602   5.622  12.502   7.510  0.0307  0.5910  0.2500
  309MOL0     C41603   5.710  12.621   7.535 -0.3135 -0.8248  0.3248
  309MOL0     O41604   5.790  12.620   7.655 -1.0814 -0.3111  0.5255
  309MOL0     C41605   5.898  12.706   7.651 -0.4647 -0.7192  0.2285
  309MOL0     C41606   6.000  12.683   7.740 -0.2933  0.4912 -0.0426
  309MOL0     C41607   6.093  12.787   7.759  0.0620 -0.2000 -0.9989
  309MOL0     C41608   6.095  12.895   7.678  0.5092  0.1762 -0.2957
  309MOL0     C41609   6.199  12.993   7.714 -0.4511 -0.5284 -0.1275
  309MOL0     O41610   6.223  13.089   7.613 -0.0498 -0.2948 -0.0681
  309MOL0     C41611   6.322  13.177   7.649 -0.1995 -0.1390 -0.2253
  309MOL0     C41612   6.307  13.271   7.756  0.0954 -0.3442  0.4067
  309MOL0     C41613   6.424  13.332   7.806 -0.7260 -0.0199 -0.0929
  309MOL0     C41614   6.544  13.320   7.741  0.3369 -1.1965  0.8365
  309MOL0     O41615   6.652  13.384   7.792 -0.8300  0.4560  0.1605
  309MOL0     C41616   6.744  13.305   7.861  0.0061 -0.1892  0.5448
  309MOL0     C41617   6.715  13.310   8.011  0.8153 -0.3396 -0.0217
  309MOL0     C41618   6.637  13.185   8.046  0.2784  0.0841 -0.8739
  309MOL0     C41619   6.589  13.171   8.193 -0.5179 -0.4270 -0.2356
  309MOL0     C41620   6.497  13.291   8.222 -0.0716  0.0323 -0.2243
  309MOL0     C41621   6.407  13.278   8.342  0.0012 -0.5492 -0.3812
  309MOL0     C41622   6.334  13.415   8.360  0.0647  0.7708 -0.2889
  309MOL0     C41623   6.416  13.527   8.390  0.0851 -0.1900  1.2998
  309MOL0    Cl41624   6.313  13.635   8.493  0.6135 -0.8057  0.1801
  309MOL0     C41625   6.555  13.238   7.623  0.8997 -0.6173 -0.2905
  309MOL0     C41626   6.442  13.163   7.581 -0.2705 -0.2883 -0.5805
  309MOL0     O41627   6.253  12.980   7.821  0.2226  1.0141 -0.0716
  309MOL0     C41628   6.003  12.918   7.579  0.0509 -0.3361  0.9472
  309MOL0     C41629   5.899  12.826   7.575 -0.3814 -0.7475 -0.8694
  309MOL0     N41630   5.367  12.197   7.367  0.2991 -0.8226  0.0629
  309MOL0     N41631   5.405  12.114   7.288 -0.2272  0.1774 -0.2929
  309MOL0     C41632   5.937  11.500   6.320  0.3455 -0.2525 -0.1702
  309MOL0     C41633   5.965  11.442   6.192  0.6003  0.0134  0.0890
  309MOL0     C41634   6.014  11.329   5.761  0.5686 -1.1071  0.3900
  309MOL0     C41635   6.120  11.405   5.712 -0.9248 -1.4026  0.4325
  309MOL0     C41636   6.190  11.375   5.596  0.3516  0.3995  0.2059
  309MOL0     C41637   6.139  11.275   5.515 -0.0898  0.5156 -0.1945
  309MOL0     O41638   6.212  11.241   5.406 -0.0888  0.3813  0.6219
  309MOL0     C41639   6.166  11.283   5.269 -0.5435  1.1368  0.3756
  309MOL0     C41640   6.107  11.163   5.193  0.5166  0.3082  0.7358
  309MOL0     C41641   6.097  11.167   5.048 -0.7130 -0.2204 -0.1520
  309MOL0     C41642   5.947  11.141   4.998  1.0325 -1.2210 -0.1918
  309MOL0     C41643   5.852  11.233   5.062  1.2658  0.8380 -0.2239
  309MOL0     C41644   5.765  11.304   5.106  0.7078 -0.1014 -0.1527
  309MOL0     C41645   6.034  11.189   5.555  0.3455 -0.5688  0.5913
  309MOL0     C41646   5.966  11.218   5.674  0.7150  0.5688 -0.6134
  309MOL0     C41647   5.844  11.130   5.712 -0.2322 -1.5282 -0.6207
  309MOL0     H41648   5.986  11.715   6.006 -0.6404 -0.1960  0.1913
  309MOL0     H41649   5.914  11.822   6.231  2.2735  0.0287  3.3947
  309MOL0     H41650   5.810  11.874   6.484 -0.8886  0.1793 -0.6461
  309MOL0     H41651   5.686  11.781   6.401  0.5488  1.9813 -1.6108
  309MOL0     H41652   5.668  11.636   6.611 -1.2007  0.1564  3.1191
  309MOL0     H41653   5.599  11.790   6.633 -0.0489  0.9522  1.6822
  309MOL0     H41654   5.839  11.866   6.708 -2.1638  0.7610  0.2096
  309MOL0     H41655   5.871  11.692   6.737  0.2616  0.6462  1.0272
  309MOL0     H41656   5.662  11.690   6.861 -2.1594  2.1432 -3.3717
  309MOL0     H41657   5.808  11.740   6.940  0.1313 -1.4448 -1.3541
  309MOL0     H41658   5.631  11.953   6.791 -3.6106 -1.2394  1.0903
  309MOL0     H41659   5.589  11.900   6.956 -0.3626  3.4774  0.0413
  309MOL0     H41660   5.840  11.990   6.994 -2.0337 -1.8146  2.2166
  309MOL0     H41661   5.795  12.070   6.853  1.2895 -0.9721  0.1714
  309MOL0     H41662   5.589  12.163   6.952 -0.1859  0.0973 -0.0251
  309MOL0     H41663   5.736  12.222   7.034  1.5200 -0.1680 -1.5450
  309MOL0     H41664   5.555  11.977   7.141 -2.0832  1.0510  1.9804
  309MOL0     H41665   5.694  12.046   7.217 -2.5774 -2.0156  1.0775
  309MOL0     H41666   5.625  12.345   7.235 -0.1952  1.6141  1.6400
  309MOL0     H41667   5.331  12.483   7.330 -1.9277 -0.1493 -0.2468
  309MOL0     H41668   5.359  12.436   7.502 -2.0069 -0.1551 -1.7718
  309MOL0     H41669   5.553  12.583   7.321  0.8192  1.1922 -0.0296
  309MOL0     H41670   5.470  12.655   7.428 -4.2341 -0.1728 -3.2868
  309MOL0     H41671   5.685  12.425   7.466  1.2714  1.3391  0.6637
  309MOL0     H41672   5.581  12.465   7.605  0.4749  0.4237  0.3777
  309MOL0     H41673   5.651  12.713   7.541  1.3518  0.4078 -1.3262
  309MOL0     H41674   5.770  12.636   7.445  2.9802  3.0015  2.7996
  309MOL0     H41675   5.999  12.591   7.797  0.5906  0.6448  0.2335
  309MOL0     H41676   6.146  12.757   7.849  0.1074 -0.4474 -1.1069
  309MOL0     H41677   6.209  13.279   7.802 -0.0444  0.2045  0.0220
  309MOL0     H41678   6.424  13.387   7.900  0.4997  1.4332 -0.8947
  309MOL0     H41679   6.750  13.206   7.814  1.2502  0.1828 -0.1286
  309MOL0     H41680   6.842  13.353   7.860  0.1895 -0.5334  1.1892
  309MOL0     H41681   6.802  13.323   8.075 -0.1374 -3.9539  2.3103
  309MOL0     H41682   6.649  13.397   8.024  2.2532  0.4153  3.0800
  309MOL0     H41683   6.548  13.173   7.984  0.7229  0.9885 -1.7038
  309MOL0     H41684   6.697  13.094   8.035  0.7633 -0.0228  1.8386
  309MOL0     H41685   6.676  13.173   8.259 -0.0395  0.1257 -0.8655
  309MOL0     H41686   6.529  13.081   8.208 -1.3151 -0.6238 -3.7366
  309MOL0     H41687   6.440  13.316   8.132  1.4351  1.7401 -0.7578
  309MOL0     H41688   6.565  13.376   8.233  0.6917 -0.7386  1.3031
  309MOL0     H41689   6.333  13.202   8.316  1.1473 -1.9732  0.3771
  309MOL0     H41690   6.451  13.243   8.436  2.1920  1.5679 -0.5148
  309MOL0     H41691   6.262  13.394   8.439 -0.2708  0.9152 -0.5522
  309MOL0     H41692   6.275  13.426   8.268 -0.2817  1.1195 -0.0268
  309MOL0     H41693   6.512  13.512   8.441  1.5423  1.1058 -0.9425
  309MOL0     H41694   6.440  13.567   8.292 -5.1818  1.1722  0.2356
  309MOL0     H41695   6.640  13.197   7.570 -2.1545 -3.8142 -3.2404
  309MOL0     H41696   6.436  13.085   7.506 -4.0328 -2.3610  1.6169
  309MOL0     H41697   6.001  13.015   7.530  1.2227 -0.3534  0.8555
  309MOL0     H41698   5.814  12.848   7.510 -1.5070 -3.4828 -0.4836
  309MOL0     H41699   5.899  11.427   6.392 -5.3404 -1.6769 -3.9018
  309MOL0     H41700   5.981  11.337   6.167 -0.9917  0.2675 -2.3192
  309MOL0     H41701   6.150  11.503   5.748  0.2627 -0.0368 -3.6750
  309MOL0     H41702   6.277  11.425   5.556  1.8032 -1.9791  0.1692
  309MOL0     H41703   6.264  11.310   5.230 -0.1639  1.1820  1.3306
  309MOL0     H41704   6.105  11.374   5.263 -0.9054  0.8871  0.2144
  309MOL0     H41705   6.009  11.140   5.236  0.9779 -1.8260  0.7362
  309MOL0     H41706   6.175  11.077   5.200  1.8950  0.8927 -3.1095
  309MOL0     H41707   6.165  11.090   5.010 -0.3991 -1.0123  1.8682
  309MOL0     H41708   6.133  11.259   5.001  1.8986 -0.2818  1.4815
  309MOL0     H41709   5.935  11.176   4.895 -3.1403 -0.0320  0.5283
  309MOL0     H41710   5.929  11.033   5.002  1.1499 -1.2107  1.0705
  309MOL0     H41711   5.686  11.376   5.113  1.5865  0.7539  1.1353
  309MOL0     H41712   6.012  11.106   5.488 -0.7849  1.7535 -2.0941
  309MOL0     H41713   5.799  11.069   5.633  1.6021 -0.1587 -2.8507
  309MOL0     H41714   5.874  11.062   5.793  2.5692  1.2256  0.8742
  309MOL0     H41715   5.779  11.209   5.750  2.0809  0.6132 -0.7996
  310MOL0     O41716   1.035   3.318   1.497  0.2754 -0.0808  0.4532
  310MOL0     C41717   1.056   3.218   1.426  0.5282  0.1471  0.9089
  310MOL0     O41718   0.953   3.141   1.366 -1.0009  0.3076  0.1546
  310MOL0     C41719   0.820   3.160   1.395 -0.8705 -0.1889 -0.3748
  310MOL0     C41720   0.757   3.283   1.369 -0.1157 -0.2939 -0.2891
  310MOL0     C41721   0.628   3.299   1.406  0.4202 -0.2149 -0.3364
  310MOL0     C41722   0.549   3.190   1.462 -0.7211 -0.4333  0.0217
  310MOL0     O41723   0.425   3.224   1.501 -0.0147 -0.1558  1.3315
  310MOL0     C41724   0.323   3.127   1.528  0.4998  1.0153 -0.0239
  310MOL0     C41725   0.206   3.183   1.447 -0.1431  0.2825 -0.6946
  310MOL0     C41726   0.057   3.144   1.487  0.0564  1.0018 -0.5989
  310MOL0     C41727   0.028   2.998   1.464  0.8969  1.4075  0.0529
  310MOL0     C41728  -0.122   2.973   1.480  0.0685 -0.0800  0.3428
  310MOL0     C41729  -0.163   2.832   1.431  0.6916 -0.3564 -0.8962
  310MOL0     C41730  -0.303   2.807   1.463  0.7073 -0.2977  0.5905
  310MOL0     C41731  -0.408   2.888   1.376  0.0522  0.0735 -0.3434
  310MOL0     N41732  -0.470   2.808   1.273 -0.6170 -0.0804 -0.2723
  310MOL0     C41733  -0.442   2.834   1.143 -0.6136  0.7075  0.7422
  310MOL0     C41734  -0.503   2.730   1.079 -0.5472 -0.2312 -1.0018
  310MOL0     C41735  -0.510   2.683   0.932  0.1058 -0.0551  0.7349
  310MOL0     C41736  -0.546   2.532   0.909  0.0958  0.7200  0.7471
  310MOL0     C41737  -0.548   2.485   0.760  0.6752 -0.6250  0.1129
  310MOL0     C41738  -0.509   2.337   0.728  0.5902 -0.4339  0.9113
  310MOL0     O41739  -0.372   2.332   0.748  0.4105 -0.9889  0.9397
  310MOL0     C41740  -0.310   2.214   0.728 -0.9816  0.3964 -0.6638
  310MOL0     C41741  -0.371   2.086   0.738  0.8197 -0.2568  0.5876
  310MOL0     C41742  -0.293   1.964   0.730  0.3598  0.0737 -0.6820
  310MOL0     C41743  -0.158   1.964   0.722 -0.2998 -0.6380  0.0495
  310MOL0     C41744  -0.067   1.845   0.719 -1.1713 -0.4692  0.5189
  310MOL0     O41745   0.066   1.863   0.671  0.5676  0.4245  0.1077
  310MOL0     C41746   0.161   1.765   0.657  0.2292  0.1576  0.0504
  310MOL0     C41747   0.159   1.635   0.710  0.1895  0.2435  0.0180
  310MOL0     C41748   0.272   1.553   0.683  0.5496  0.1182  0.6102
  310MOL0     C41749   0.379   1.597   0.606 -0.6572  0.0558 -0.3514
  310MOL0     O41750   0.489   1.510   0.602 -0.1627 -0.2488  0.6634
  310MOL0     C41751   0.571   1.522   0.480  0.6742  0.7822  0.5920
  310MOL0     C41752   0.693   1.439   0.471  0.8957  0.1496  0.3791
  310MOL0     C41753   0.812   1.484   0.554  0.9416  0.4773 -0.7575
  310MOL0     C41754   0.920   1.374   0.558 -0.4333  0.2260 -0.6562
  310MOL0     C41755   1.041   1.397   0.651  0.3178 -0.9084  0.2639
  310MOL0     C41756   1.107   1.535   0.630 -0.0459 -0.4664 -0.4178
  310MOL0     C41757   1.249   1.549   0.691 -0.9505 -0.3858 -0.3764
  310MOL0     C41758   1.248   1.576   0.838  0.4548  0.1702  0.0825
  310MOL0    Cl41759   1.384   1.674   0.903  0.1723  0.2256 -0.3748
  310MOL0     C41760   0.372   1.723   0.538 -0.2686  0.2020  0.0435
  310MOL0     C41761   0.260   1.805   0.575 -0.3394  0.8438  0.4734
  310MOL0     O41762  -0.121   1.736   0.734 -0.3301 -0.0337 -0.0113
  310MOL0     C41763  -0.103   2.090   0.720  0.7401 -0.2377 -0.2186
  310MOL0     C41764  -0.177   2.208   0.724  0.4625  0.1204 -0.3248
  310MOL0     N41765  -0.562   2.646   1.179 -0.5316 -0.5701  0.6127
  310MOL0     N41766  -0.540   2.693   1.290  0.0289 -0.7170  0.0614
  310MOL0     C41767   0.609   3.064   1.479  0.9448 -0.1275  0.2213
  310MOL0     C41768   0.742   3.058   1.441  1.2693  0.1164 -0.3490
  310MOL0     C41769   1.189   3.159   1.402 -0.2939 -0.2288  0.8391
  310MOL0     C41770   1.205   3.062   1.298 -0.3134  0.6064  0.4563
  310MOL0     C41771   1.329   3.021   1.256 -0.5151  0.6039 -0.2470
  310MOL0     C41772   1.448   3.069   1.317  0.1169  0.2718  0.6096
  310MOL0     O41773   1.561   3.028   1.273  0.2264 -0.4219 -0.3136
  310MOL0     C41774   1.671   3.026   1.364 -1.0978  0.0666  0.0485
  310MOL0     C41775   1.776   2.921   1.318  0.1726  0.4620  0.3494
  310MOL0     C41776   1.842   2.956   1.187 -0.0833 -0.5320 -0.4731
  310MOL0     C41777   1.889   3.105   1.185  0.1454  0.3031 -0.5648
  310MOL0     C41778   1.963   3.138   1.066 -0.3104  0.2249 -0.7073
  310MOL0     C41779   2.045   3.145   0.977  0.0189  0.0684 -0.0612
  310MOL0     C41780   1.430   3.147   1.435 -0.8745  0.1778  0.1631
  310MOL0     C41781   1.309   3.197   1.472  0.7101  1.1893 -0.4391
  310MOL0     C41782   1.300   3.281   1.597 -0.2316  0.9895 -0.2596
  310MOL0     H41783   0.813   3.370   1.338  0.3537 -0.1063  0.9915
  310MOL0     H41784   0.575   3.390   1.376  2.0845  0.3845 -1.6087
  310MOL0     H41785   0.363   3.031   1.496 -1.7726 -0.0211  0.0646
  310MOL0     H41786   0.293   3.142   1.632  3.0530 -3.0292  1.4936
  310MOL0     H41787   0.226   3.156   1.343 -2.5357 -0.5409 -0.9987
  310MOL0     H41788   0.208   3.288   1.476 -1.3931 -0.2307  1.5490
  310MOL0     H41789  -0.016   3.201   1.428 -0.0159  2.5333  0.8897
  310MOL0     H41790   0.049   3.182   1.589  2.2764  1.5839 -0.5925
  310MOL0     H41791   0.066   2.965   1.367 -0.1857 -1.6706  0.5742
  310MOL0     H41792   0.087   2.933   1.529 -3.2335 -0.3801  2.4586
  310MOL0     H41793  -0.161   2.997   1.580  1.3252 -0.0503  0.8525
  310MOL0     H41794  -0.173   3.042   1.413 -1.6342 -1.8420 -0.2631
  310MOL0     H41795  -0.133   2.815   1.327  0.1084  1.9269 -1.4858
  310MOL0     H41796  -0.121   2.752   1.493 -5.2890 -2.1091  1.6722
  310MOL0     H41797  -0.332   2.828   1.566  2.1265  1.3686  0.7047
  310MOL0     H41798  -0.326   2.701   1.451 -1.5079  0.1148  0.7056
  310MOL0     H41799  -0.492   2.919   1.438 -0.2952 -0.4887 -0.5240
  310MOL0     H41800  -0.364   2.965   1.312 -0.9301 -2.5712 -4.6154
  310MOL0     H41801  -0.369   2.907   1.108  0.3643 -0.1589  0.9315
  310MOL0     H41802  -0.594   2.737   0.887 -0.8312 -2.0541 -0.0220
  310MOL0     H41803  -0.426   2.708   0.866 -1.0884 -0.1777 -0.9204
  310MOL0     H41804  -0.471   2.470   0.960 -0.3912 -0.4369  0.0971
  310MOL0     H41805  -0.642   2.522   0.960 -0.0152  0.6447  0.5238
  310MOL0     H41806  -0.488   2.548   0.694 -0.1207 -0.6954 -0.7094
  310MOL0     H41807  -0.649   2.518   0.734  1.2860  0.0531 -1.5272
  310MOL0     H41808  -0.524   2.305   0.624  1.5136 -3.0062  1.4783
  310MOL0     H41809  -0.563   2.269   0.794 -1.7423  1.6800  1.3186
  310MOL0     H41810  -0.477   2.072   0.756 -0.2063  4.0143 -1.1118
  310MOL0     H41811  -0.348   1.871   0.738  1.4480 -0.4664  1.4918
  310MOL0     H41812   0.076   1.600   0.770  0.9446  0.1441  1.0288
  310MOL0     H41813   0.286   1.464   0.744 -1.3235 -1.1949 -0.7491
  310MOL0     H41814   0.506   1.506   0.394 -1.3893  5.2498  1.0650
  310MOL0     H41815   0.603   1.624   0.458 -0.1962  0.7318 -1.0571
  310MOL0     H41816   0.667   1.334   0.484 -2.6927  1.0008  1.0789
  310MOL0     H41817   0.719   1.454   0.366  1.5388  0.2702  0.5489
  310MOL0     H41818   0.853   1.577   0.512 -0.6702  1.3079 -0.5933
  310MOL0     H41819   0.779   1.495   0.658  2.2892 -2.1621  0.0347
  310MOL0     H41820   0.966   1.366   0.459  1.9742 -0.7302  0.4647
  310MOL0     H41821   0.867   1.284   0.592 -0.6236 -0.4639 -2.6039
  310MOL0     H41822   1.127   1.333   0.628  0.9150  0.4095 -1.4237
  310MOL0     H41823   1.004   1.385   0.753  0.1974  2.7237  0.7900
  310MOL0     H41824   1.118   1.567   0.526 -4.2680 -0.8519 -1.1551
  310MOL0     H41825   1.036   1.605   0.675  1.1597 -0.5977  1.8106
  310MOL0     H41826   1.289   1.640   0.646 -1.8784  1.2029  1.8047
  310MOL0     H41827   1.312   1.464   0.664 -3.6224 -2.1522 -1.4118
  310MOL0     H41828   1.155   1.618   0.878  0.6134 -0.0346  0.6808
  310MOL0     H41829   1.255   1.479   0.889  1.1756  1.5531  2.8326
  310MOL0     H41830   0.455   1.776   0.492 -1.3083  2.1927  0.3541
  310MOL0     H41831   0.270   1.903   0.528 -1.0151  0.3563 -0.7478
  310MOL0     H41832   0.005   2.099   0.717  0.5558  3.1335 -1.1698
  310MOL0     H41833  -0.128   2.303   0.710  0.4909 -0.1169 -2.1713
  310MOL0     H41834   0.552   2.978   1.514 -0.6000  1.4661  1.8241
  310MOL0     H41835   0.801   2.967   1.447 -1.7416 -1.8846  1.9133
  310MOL0     H41836   1.132   3.026   1.227  1.5028 -2.8987  0.1650
  310MOL0     H41837   1.340   2.947   1.177 -2.6285  1.0515 -1.0132
  310MOL0     H41838   1.630   2.996   1.462 -2.5701  1.9281  0.0679
  310MOL0     H41839   1.717   3.124   1.377  1.9908 -1.0311 -1.7006
  310MOL0     H41840   1.726   2.825   1.315  1.0133 -0.1112  2.8656
  310MOL0     H41841   1.850   2.902   1.396  2.1673  0.5490 -1.4090
  310MOL0     H41842   1.774   2.943   1.102  0.2751 -3.2530 -0.4310
  310MOL0     H41843   1.923   2.885   1.174 -1.1424 -2.0383  0.8298
  310MOL0     H41844   1.810   3.180   1.192  1.2961  1.5018 -0.0849
  310MOL0     H41845   1.953   3.122   1.272  0.2196  0.9877 -0.7449
  310MOL0     H41846   2.099   3.153   0.885  0.0248  1.7297  0.0553
  310MOL0     H41847   1.517   3.183   1.489  0.8684 -0.2076 -2.2119
  310MOL0     H41848   1.386   3.251   1.658 -0.9740 -1.5743 -0.3241
  310MOL0     H41849   1.292   3.388   1.577 -2.0318  1.1408  0.9720
  310MOL0     H41850   1.210   3.264   1.657  1.4210  1.6147  2.5426
  311MOL0     O41851   3.585   3.268   9.991 -0.1952  0.1513 -0.6212
  311MOL0     C41852   3.472   3.292  10.019  0.6181 -0.4284  0.8150
  311MOL0     O41853   3.401   3.401   9.977 -0.0612 -0.4584 -0.1159
  311MOL0     C41854   3.460   3.504   9.909  0.3133 -1.0616  0.4449
  311MOL0     C41855   3.576   3.564   9.954 -0.0198 -0.0538  0.5018
  311MOL0     C41856   3.615   3.698   9.918 -0.3647  0.5850 -0.3233
  311MOL0     C41857   3.540   3.768   9.827  0.4583  0.7619 -0.3576
  311MOL0     O41858   3.573   3.901   9.806 -0.6635  0.2295  0.0352
  311MOL0     C41859   3.526   3.971   9.690 -0.0238 -0.2818 -0.4023
  311MOL0     C41860   3.581   3.938   9.553 -0.0571 -1.0700  1.4074
  311MOL0     C41861   3.481   3.954   9.435 -0.4147 -0.8284  0.4456
  311MOL0     C41862   3.476   4.101   9.390  0.6151 -0.4994 -0.1291
  311MOL0     C41863   3.394   4.116   9.263 -2.1236 -0.5911 -0.2740
  311MOL0     C41864   3.376   4.269   9.227  0.7662 -0.4080 -0.8943
  311MOL0     C41865   3.397   4.310   9.086  0.0301  0.0295  0.5058
  311MOL0     C41866   3.547   4.340   9.068  0.5657 -0.5288  0.7136
  311MOL0     N41867   3.578   4.369   8.921  0.9345 -0.5698 -0.5010
  311MOL0     C41868   3.500   4.439   8.834  0.7474 -0.8159 -0.5801
  311MOL0     C41869   3.572   4.462   8.724  0.0292  0.8298 -0.2641
  311MOL0     C41870   3.543   4.533   8.596  0.7390  0.4968 -0.7181
  311MOL0     C41871   3.580   4.437   8.476  0.4252 -0.7192  0.1615
  311MOL0     C41872   3.519   4.473   8.331  0.1012  0.2125  0.9313
  311MOL0     C41873   3.380   4.541   8.324  0.1902  0.1427  0.7727
  311MOL0     O41874   3.350   4.563   8.183 -0.6913  0.3663  0.3414
  311MOL0     C41875   3.283   4.461   8.119 -0.6064 -0.7920  0.4931
  311MOL0     C41876   3.220   4.508   7.995 -0.1370 -0.2222 -0.2048
  311MOL0     C41877   3.134   4.415   7.927 -0.1656 -0.3872 -0.4917
  311MOL0     C41878   3.123   4.286   7.973  0.4639 -0.0904  0.0045
  311MOL0     C41879   3.053   4.187   7.894  1.1567  0.1013  0.2892
  311MOL0     O41880   3.094   4.057   7.899  0.3426 -0.3109  0.5101
  311MOL0     C41881   3.027   3.944   7.859  0.9419  0.6572  0.7791
  311MOL0     C41882   3.094   3.825   7.870  1.1860  0.4051 -0.0247
  311MOL0     C41883   3.034   3.706   7.814 -0.4558 -0.1465 -0.4551
  311MOL0     C41884   2.903   3.705   7.761 -0.1753 -0.4225  0.0224
  311MOL0     O41885   2.846   3.596   7.706 -0.0276  0.2136 -0.1267
  311MOL0     C41886   2.926   3.478   7.661  0.5889 -0.2758 -0.0658
  311MOL0     C41887   2.875   3.418   7.529  0.4502 -0.4359  0.2297
  311MOL0     C41888   2.729   3.457   7.503  0.0443 -0.0157  1.0600
  311MOL0     C41889   2.688   3.394   7.379  0.7246  0.2309  0.1161
  311MOL0     C41890   2.539   3.362   7.373  0.4892  0.2685  0.2116
  311MOL0     C41891   2.454   3.494   7.360  0.0751  0.0675 -0.7212
  311MOL0     C41892   2.300   3.485   7.364 -0.1536  0.5770  0.7751
  311MOL0     C41893   2.264   3.387   7.243  0.0269 -0.4833  0.8857
  311MOL0    Cl41894   2.080   3.380   7.207  0.3521  0.5162  0.2808
  311MOL0     C41895   2.832   3.828   7.752  0.2112 -0.0281 -0.4085
  311MOL0     C41896   2.894   3.947   7.801 -0.1633  0.4471  0.2461
  311MOL0     O41897   2.969   4.228   7.809 -0.1572 -0.2243 -0.3137
  311MOL0     C41898   3.186   4.246   8.094 -0.5446  0.6320  0.4990
  311MOL0     C41899   3.261   4.336   8.164 -0.3103 -1.0911 -0.0126
  311MOL0     N41900   3.701   4.407   8.755 -0.0902 -0.3873 -0.3468
  311MOL0     N41901   3.702   4.353   8.869  0.3778 -0.3778  0.1427
  311MOL0     C41902   3.429   3.713   9.776 -0.4664  0.8567  0.9563
  311MOL0     C41903   3.392   3.584   9.813  0.2724  0.0050 -0.1799
  311MOL0     C41904   3.401   3.207  10.115  0.2266  0.1977 -0.4998
  311MOL0     C41905   3.317   3.114  10.048 -0.9641  0.2084  0.2842
  311MOL0     C41906   3.223   3.033  10.112  0.6075 -0.9067  0.3225
  311MOL0     C41907   3.191   3.066  10.243 -0.3725 -0.9190  0.2286
  311MOL0     O41908   3.103   2.986  10.303  0.2058  0.5905 -0.6195
  311MOL0     C41909   3.105   2.967  10.446 -0.2679 -0.4410 -0.8620
  311MOL0     C41910   3.022   2.851  10.482  0.4616  0.8652 -0.5173
  311MOL0     C41911   2.870   2.857  10.439  0.7109  0.1804 -0.1069
  311MOL0     C41912   2.779   2.778  10.535 -0.0063 -0.2581 -0.7687
  311MOL0     C41913   2.647   2.743  10.484  0.0731 -0.1349 -0.1235
  311MOL0     C41914   2.535   2.714  10.448  0.3821  0.5413  0.9575
  311MOL0     C41915   3.263   3.170  10.305 -0.0453 -0.0293 -0.0902
  311MOL0     C41916   3.364   3.243  10.243 -1.0216 -0.5550 -0.9840
  311MOL0     C41917   3.446   3.347  10.311 -0.1324  0.7381 -0.6295
  311MOL0     H41918   3.631   3.504  10.026  1.4257  1.4729  0.7334
  311MOL0     H41919   3.702   3.745   9.963  0.3039 -3.1459  2.8129
  311MOL0     H41920   3.417   3.962   9.698 -0.1269 -3.1532 -3.0423
  311MOL0     H41921   3.553   4.077   9.696  1.0321 -0.5609  0.0614
  311MOL0     H41922   3.605   3.831   9.552  1.4509 -0.7661 -0.6116
  311MOL0     H41923   3.673   3.992   9.530  0.8510 -1.9063  2.9406
  311MOL0     H41924   3.381   3.920   9.463 -1.0882 -1.4114 -2.4046
  311MOL0     H41925   3.504   3.886   9.353 -3.2254  0.2439 -1.3531
  311MOL0     H41926   3.435   4.153   9.477  1.2323  1.7079 -1.0761
  311MOL0     H41927   3.578   4.138   9.376  0.7173 -0.1005  1.4587
  311MOL0     H41928   3.449   4.065   9.184 -1.3724 -1.3305  0.7097
  311MOL0     H41929   3.299   4.062   9.266 -1.0910 -2.4690  0.0076
  311MOL0     H41930   3.285   4.306   9.274  2.4120  0.6630  1.6410
  311MOL0     H41931   3.445   4.330   9.285  0.3307 -0.8702  0.1505
  311MOL0     H41932   3.351   4.405   9.058 -0.3804  0.2431  1.8306
  311MOL0     H41933   3.366   4.237   9.010 -2.0958  0.3429  1.0106
  311MOL0     H41934   3.569   4.431   9.125  2.0880  0.0816 -0.7951
  311MOL0     H41935   3.609   4.261   9.111  0.1669 -0.2519  1.8474
  311MOL0     H41936   3.397   4.455   8.864  1.7421  0.4169  2.5180
  311MOL0     H41937   3.435   4.549   8.600  0.8985  1.8721 -1.3356
  311MOL0     H41938   3.586   4.634   8.594  0.2941  0.7984  1.9974
  311MOL0     H41939   3.688   4.422   8.479  0.8437  1.5774 -1.2392
  311MOL0     H41940   3.534   4.338   8.483  1.0236 -1.0379 -0.2836
  311MOL0     H41941   3.541   4.389   8.265 -2.0523  1.3373 -1.4060
  311MOL0     H41942   3.593   4.546   8.295 -0.3618  0.3268  0.1903
  311MOL0     H41943   3.384   4.637   8.375 -1.2655  1.3893 -1.2833
  311MOL0     H41944   3.302   4.476   8.366 -3.0477  0.9781 -3.2958
  311MOL0     H41945   3.253   4.601   7.951  1.4010 -0.8717 -0.4965
  311MOL0     H41946   3.093   4.447   7.832  1.4393  1.1293 -0.7288
  311MOL0     H41947   3.190   3.827   7.922  0.8161  5.5315  1.0306
  311MOL0     H41948   3.096   3.617   7.819  0.1373  0.2645 -0.4127
  311MOL0     H41949   3.029   3.513   7.649  0.9891 -1.6050 -0.6821
  311MOL0     H41950   2.921   3.397   7.734 -0.1136  0.1064  0.3233
  311MOL0     H41951   2.932   3.449   7.441 -3.0982  3.6218 -1.0161
  311MOL0     H41952   2.870   3.309   7.539  0.8011 -0.6631 -1.7191
  311MOL0     H41953   2.657   3.434   7.582 -1.0461  2.7009  0.9528
  311MOL0     H41954   2.723   3.566   7.501  2.8052  0.2590  2.5459
  311MOL0     H41955   2.742   3.300   7.360 -1.5317 -0.6917 -2.2970
  311MOL0     H41956   2.712   3.458   7.294  2.4178  0.1550  0.5043
  311MOL0     H41957   2.499   3.313   7.463 -0.2159 -1.6796 -1.0985
  311MOL0     H41958   2.521   3.304   7.282  1.1690 -3.2212  2.1148
  311MOL0     H41959   2.483   3.572   7.432 -0.9849  2.2447 -2.5170
  311MOL0     H41960   2.490   3.539   7.267 -0.0274  0.8970 -0.3709
  311MOL0     H41961   2.242   3.577   7.352 -2.7510 -1.2043 -1.5315
  311MOL0     H41962   2.267   3.439   7.459  2.2777 -2.6212  0.2590
  311MOL0     H41963   2.324   3.390   7.151 -1.4772 -3.0485 -0.2858
  311MOL0     H41964   2.295   3.289   7.282 -1.2590 -1.5503 -0.6710
  311MOL0     H41965   2.743   3.827   7.690 -0.9493 -0.0763  1.1837
  311MOL0     H41966   2.833   4.037   7.800 -1.1881 -0.2329  0.9803
  311MOL0     H41967   3.180   4.146   8.133  1.6870  0.1618 -0.1914
  311MOL0     H41968   3.305   4.292   8.253 -2.6154 -3.0982  0.2524
  311MOL0     H41969   3.363   3.762   9.704 -1.6076 -3.9292 -1.7177
  311MOL0     H41970   3.294   3.549   9.780  0.6524  0.7479 -2.1677
  311MOL0     H41971   3.331   3.091   9.943 -2.2657 -1.5926  0.4682
  311MOL0     H41972   3.170   2.949  10.068 -1.0377  1.1974 -2.0322
  311MOL0     H41973   3.064   3.055  10.495 -1.3077 -0.6033 -1.4016
  311MOL0     H41974   3.207   2.948  10.482 -0.7981 -0.2192  0.8547
  311MOL0     H41975   3.032   2.840  10.590  2.2105 -2.4163 -0.8728
  311MOL0     H41976   3.062   2.761  10.434  3.0339  0.8975  1.3546
  311MOL0     H41977   2.861   2.827  10.334 -3.2747 -0.7192  0.3534
  311MOL0     H41978   2.845   2.964  10.443 -5.7220 -0.8416  5.1167
  311MOL0     H41979   2.835   2.690  10.569 -2.2286 -0.9732  1.2696
  311MOL0     H41980   2.766   2.838  10.625 -2.9656 -3.4301  1.1432
  311MOL0     H41981   2.433   2.690  10.425  0.9789 -1.8099  0.4338
  311MOL0     H41982   3.244   3.187  10.410 -1.1710  0.9856 -0.4455
  311MOL0     H41983   3.419   3.368  10.415  1.2832  2.1693 -0.5139
  311MOL0     H41984   3.550   3.316  10.324 -0.6743 -0.2736  1.7546
  311MOL0     H41985   3.441   3.440  10.253  2.6511 -0.6866 -3.4611
  312MOL0     O41986   5.211   9.749   1.978 -0.1246 -0.6184 -0.9157
  312MOL0     C41987   5.285   9.767   2.074  0.8750 -0.9095  0.3749
  312MOL0     O41988   5.324   9.891   2.119  0.5263  0.0329 -0.1122
  312MOL0     C41989   5.269  10.007   2.068  0.1274  0.6689  0.9725
  312MOL0     C41990   5.354  10.099   1.999 -0.0613 -0.0199  0.4078
  312MOL0     C41991   5.304  10.207   1.926  0.1039 -0.4798 -0.3558
  312MOL0     C41992   5.167  10.236   1.921  0.6696 -0.1620 -0.2663
  312MOL0     O41993   5.108  10.333   1.844 -0.2846  0.2914  0.0566
  312MOL0     C41994   5.194  10.397   1.741  0.0012 -0.8306 -0.6590
  312MOL0     C41995   5.130  10.528   1.693 -0.0601  0.3636 -0.6322
  312MOL0     C41996   5.103  10.636   1.794 -0.7751 -1.2133  0.7888
  312MOL0     C41997   5.061  10.772   1.720 -0.1811  0.3174 -0.1932
  312MOL0     C41998   5.017  10.889   1.800  0.7584  0.9059 -0.2347
  312MOL0     C41999   4.955  10.852   1.945 -0.3728 -0.4380 -0.2381
  312MOL0     C42000   4.813  10.803   1.951 -0.3432  0.3253  0.3157
  312MOL0     C42001   4.754  10.774   2.096 -0.2470 -0.8848 -0.2826
  312MOL0     N42002   4.624  10.703   2.103 -0.2304  0.0207  0.1773
  312MOL0     C42003   4.511  10.745   2.172  0.1578  0.1069 -0.4443
  312MOL0     C42004   4.436  10.630   2.181 -0.4159  0.7934  0.0475
  312MOL0     C42005   4.308  10.617   2.257  0.7772 -0.1127  1.1989
  312MOL0     C42006   4.327  10.543   2.394  0.0376  0.4253 -0.0627
  312MOL0     C42007   4.209  10.587   2.479 -0.5250 -1.1517 -0.8519
  312MOL0     C42008   4.162  10.492   2.593  0.2638  0.2676 -0.5071
  312MOL0     O42009   4.120  10.576   2.702 -0.0976  0.0425  0.2556
  312MOL0     C42010   4.078  10.506   2.811  0.3245 -0.0475 -0.8094
  312MOL0     C42011   4.049  10.586   2.926  0.7668 -0.1658 -0.1459
  312MOL0     C42012   4.047  10.532   3.058 -0.4779 -0.2638  0.4843
  312MOL0     C42013   4.050  10.390   3.081  0.6537  0.1659 -0.6702
  312MOL0     C42014   4.039  10.329   3.216  0.5105  0.4116  0.3222
  312MOL0     O42015   4.008  10.407   3.322  0.8868 -0.1439  0.2686
  312MOL0     C42016   3.987  10.337   3.437  0.2576 -0.3364  0.4980
  312MOL0     C42017   3.854  10.341   3.491  0.0547  0.5183  0.1060
  312MOL0     C42018   3.837  10.291   3.622 -0.8657  0.9093  0.3433
  312MOL0     C42019   3.941  10.220   3.689 -0.9270 -0.4315 -0.5402
  312MOL0     O42020   3.913  10.190   3.817 -0.7765  0.1799 -0.7385
  312MOL0     C42021   3.988  10.077   3.872  0.4437 -0.0698 -0.3053
  312MOL0     C42022   3.976  10.081   4.030 -0.3144  0.2079 -0.0353
  312MOL0     C42023   3.828  10.061   4.078  0.2214  0.1805  0.1868
  312MOL0     C42024   3.821  10.005   4.219 -0.8126  0.3218 -0.3451
  312MOL0     C42025   3.846   9.848   4.215 -0.2427  0.5262 -0.1019
  312MOL0     C42026   3.871   9.808   4.365 -0.8395  0.7208  0.8059
  312MOL0     C42027   3.865   9.654   4.383 -0.4960 -0.4811 -0.5354
  312MOL0     C42028   3.870   9.630   4.533  0.2448 -0.2156  0.1245
  312MOL0    Cl42029   3.876   9.457   4.562  0.2945  0.1873 -0.3289
  312MOL0     C42030   4.071  10.218   3.629  0.4573  0.3137  0.0610
  312MOL0     C42031   4.086  10.264   3.500 -0.8608 -0.7858 -0.4128
  312MOL0     O42032   4.057  10.205   3.218 -0.9008 -0.7386 -0.5569
  312MOL0     C42033   4.073  10.316   2.961 -0.3287  0.0579 -0.5629
  312MOL0     C42034   4.088  10.368   2.832  1.0706  0.4135 -0.7666
  312MOL0     N42035   4.506  10.525   2.128 -0.9030 -0.5222 -0.1800
  312MOL0     N42036   4.612  10.564   2.076 -0.6009 -0.5340 -0.2351
  312MOL0     C42037   5.084  10.152   1.998 -0.4632  0.8102  0.4698
  312MOL0     C42038   5.132  10.038   2.065  0.4039 -0.6104  0.6863
  312MOL0     C42039   5.339   9.655   2.145  1.0355  0.0575 -0.5711
  312MOL0     C42040   5.395   9.539   2.077 -1.3425 -0.2120  0.0717
  312MOL0     C42041   5.446   9.431   2.147  0.1814 -0.1408  0.6567
  312MOL0     C42042   5.434   9.421   2.282  0.7303  0.4253 -0.5814
  312MOL0     O42043   5.481   9.312   2.359  0.2734 -1.0057 -0.5290
  312MOL0     C42044   5.580   9.341   2.462  0.3288  1.3658  1.1902
  312MOL0     C42045   5.695   9.434   2.408 -0.0689 -0.8027 -0.0538
  312MOL0     C42046   5.769   9.368   2.286 -0.3535  0.1395 -0.1758
  312MOL0     C42047   5.911   9.339   2.319  0.0925 -0.7687  0.6391
  312MOL0     C42048   5.932   9.240   2.427  0.0081 -0.4033 -0.6472
  312MOL0     C42049   5.929   9.154   2.503  0.2361  0.3801 -0.0815
  312MOL0     C42050   5.362   9.520   2.350  0.8142 -0.2180  0.0456
  312MOL0     C42051   5.317   9.642   2.282 -0.4825  0.8208  0.2824
  312MOL0     C42052   5.265   9.755   2.366 -0.1851 -0.6912  1.0115
  312MOL0     H42053   5.460  10.077   2.009 -0.3453 -2.6320 -1.2938
  312MOL0     H42054   5.383  10.255   1.869  0.1901  1.8314  1.5091
  312MOL0     H42055   5.295  10.419   1.778 -0.2726  3.9715 -2.1034
  312MOL0     H42056   5.199  10.325   1.659 -1.1455 -1.4619 -0.1949
  312MOL0     H42057   5.033  10.502   1.651 -0.6916  1.1836  0.2806
  312MOL0     H42058   5.190  10.566   1.610 -0.9373  0.4390 -1.2344
  312MOL0     H42059   5.189  10.654   1.858 -2.2193 -0.6705  2.6522
  312MOL0     H42060   5.022  10.594   1.854 -2.2284 -1.1429 -1.0132
  312MOL0     H42061   5.139  10.805   1.652 -0.5490  0.3220 -0.6177
  312MOL0     H42062   4.971  10.734   1.672 -3.7439  1.5203  4.6572
  312MOL0     H42063   5.109  10.946   1.815  0.9350  0.0983  2.4068
  312MOL0     H42064   4.952  10.950   1.736  2.0721  0.9376 -1.5724
  312MOL0     H42065   5.016  10.775   1.994 -0.7904  0.4324  1.7814
  312MOL0     H42066   4.962  10.936   2.015  0.9225 -0.7464  0.0400
  312MOL0     H42067   4.807  10.714   1.887 -0.0283  0.9594 -0.6139
  312MOL0     H42068   4.750  10.881   1.908 -2.8665 -1.9382 -0.3634
  312MOL0     H42069   4.824  10.722   2.161  0.5490  0.2856 -0.1658
  312MOL0     H42070   4.755  10.862   2.161 -1.1737 -2.1651  1.5447
  312MOL0     H42071   4.482  10.843   2.209  0.6314  0.6474 -1.4504
  312MOL0     H42072   4.274  10.721   2.263  1.8060  0.1658  2.8987
  312MOL0     H42073   4.241  10.551   2.201  1.5873 -0.3238  0.4584
  312MOL0     H42074   4.308  10.437   2.377  0.2495  0.0621  1.7603
  312MOL0     H42075   4.429  10.564   2.429  1.2657 -3.5237 -0.8088
  312MOL0     H42076   4.125  10.610   2.413  2.4171  1.3809 -4.1502
  312MOL0     H42077   4.233  10.687   2.517 -0.0828 -0.9723 -1.5787
  312MOL0     H42078   4.243  10.431   2.633  0.8750  2.6788  2.2537
  312MOL0     H42079   4.091  10.421   2.551  2.3329 -2.8334  0.8896
  312MOL0     H42080   4.043  10.691   2.901  0.9353 -0.1727 -0.2210
  312MOL0     H42081   4.047  10.592   3.148 -0.3560 -0.5744  0.6932
  312MOL0     H42082   3.760  10.376   3.450 -0.5840 -1.6767 -0.4552
  312MOL0     H42083   3.749  10.336   3.668  0.0906  5.2860 -1.5289
  312MOL0     H42084   3.957   9.979   3.835 -3.1478  0.8417 -0.0331
  312MOL0     H42085   4.097  10.077   3.863  1.4385 -4.6287  5.4045
  312MOL0     H42086   4.046  10.004   4.064  0.7642  2.3809  3.2043
  312MOL0     H42087   4.016  10.175   4.070  0.3956 -0.3161  0.5082
  312MOL0     H42088   3.783  10.160   4.086 -1.4407 -0.6585  2.0084
  312MOL0     H42089   3.778  10.000   4.002  0.4443 -1.7518  1.5288
  312MOL0     H42090   3.724  10.031   4.260 -0.8752  1.1196 -0.9734
  312MOL0     H42091   3.895  10.044   4.289  1.6211 -1.7483 -1.5687
  312MOL0     H42092   3.937   9.822   4.161  0.1101  1.1316  0.1827
  312MOL0     H42093   3.760   9.807   4.161  1.3499  0.2888 -2.6582
  312MOL0     H42094   3.974   9.834   4.387 -0.7818  1.6559 -0.4157
  312MOL0     H42095   3.806   9.856   4.438 -2.2738 -2.3932  1.7422
  312MOL0     H42096   3.955   9.610   4.339  1.4447 -0.2367  2.8726
  312MOL0     H42097   3.773   9.619   4.334 -1.6321 -1.1494  1.8960
  312MOL0     H42098   3.955   9.679   4.580 -0.6091  1.2296  0.2097
  312MOL0     H42099   3.788   9.682   4.583  0.7787  1.8219 -1.0031
  312MOL0     H42100   4.161  10.169   3.665  0.2191 -0.8190 -0.8191
  312MOL0     H42101   4.187  10.257   3.462 -0.6989  0.8029 -0.3468
  312MOL0     H42102   4.083  10.210   2.980 -3.2382 -0.3185 -0.7750
  312MOL0     H42103   4.101  10.292   2.756  0.4393 -0.6654  0.1921
  312MOL0     H42104   4.980  10.185   2.002 -1.3361 -1.7311  0.3167
  312MOL0     H42105   5.066   9.964   2.110  0.2066 -1.3949 -0.8101
  312MOL0     H42106   5.412   9.543   1.970 -1.2774 -1.1166  0.0470
  312MOL0     H42107   5.493   9.348   2.095  0.0974  0.0901  0.2098
  312MOL0     H42108   5.633   9.247   2.482 -2.1174 -0.2360  0.7196
  312MOL0     H42109   5.537   9.394   2.547  0.8007  2.2956  0.8615
  312MOL0     H42110   5.757   9.469   2.491 -0.1050 -1.7494  0.3855
  312MOL0     H42111   5.654   9.528   2.371  2.1141  0.0261 -0.4607
  312MOL0     H42112   5.771   9.435   2.200  3.7642  2.3257  1.3580
  312MOL0     H42113   5.723   9.274   2.253  2.1417 -0.7014 -1.5463
  312MOL0     H42114   5.964   9.296   2.233 -0.4170 -0.1504  0.0056
  312MOL0     H42115   5.959   9.436   2.335 -2.2491  0.8206 -1.2733
  312MOL0     H42116   5.941   9.083   2.583  1.8654  1.0896  0.3290
  312MOL0     H42117   5.350   9.505   2.456  1.8904 -2.1975 -0.0623
  312MOL0     H42118   5.358   9.811   2.383  0.6238 -2.1469  1.5760
  312MOL0     H42119   5.189   9.815   2.316  1.3048 -0.8758 -1.6433
  312MOL0     H42120   5.217   9.725   2.460 -1.2035  0.7110  0.9675
  313MOL0     O42121   9.689   7.723   5.842  0.4249 -0.2323  0.4091
  313MOL0     C42122   9.602   7.812   5.853  0.3622  0.6524  0.1836
  313MOL0     O42123   9.514   7.822   5.962 -0.5228  0.5114  0.6482
  313MOL0     C42124   9.493   7.718   6.040  0.9444 -0.2484  0.0369
  313MOL0     C42125   9.444   7.598   5.984 -0.2726  0.2767 -0.5640
  313MOL0     C42126   9.415   7.488   6.073  0.3701 -0.4180 -0.8032
  313MOL0     C42127   9.435   7.509   6.215  0.0914 -1.0461 -0.1931
  313MOL0     O42128   9.417   7.414   6.321  0.2414 -0.1909  0.0153
  313MOL0     C42129   9.340   7.292   6.289  0.4393 -0.3272 -0.0851
  313MOL0     C42130   9.301   7.232   6.428 -0.4073  1.0540 -0.2554
  313MOL0     C42131   9.182   7.315   6.491  0.8823 -0.1742  0.2735
  313MOL0     C42132   9.142   7.248   6.615  0.1782  0.6123  0.9888
  313MOL0     C42133   9.051   7.336   6.705 -0.8590  0.3854 -0.3587
  313MOL0     C42134   8.907   7.362   6.648  0.0991 -0.1942  0.0973
  313MOL0     C42135   8.823   7.413   6.768  0.5638  0.1759 -0.9670
  313MOL0     C42136   8.675   7.433   6.722  0.1882 -0.4382 -0.4731
  313MOL0     N42137   8.600   7.497   6.824 -0.0649  0.0384  0.0407
  313MOL0     C42138   8.469   7.461   6.841  0.1630 -0.5094 -0.1075
  313MOL0     C42139   8.428   7.550   6.932 -0.4382 -0.6695  0.3499
  313MOL0     C42140   8.299   7.510   6.994  0.4099 -0.6492  0.2575
  313MOL0     C42141   8.194   7.616   6.953 -0.4227  0.8118 -0.2370
  313MOL0     C42142   8.081   7.607   7.059 -0.0469  0.8155  0.1167
  313MOL0     C42143   7.990   7.729   7.041 -0.0389 -0.2380 -0.8801
  313MOL0     O42144   8.064   7.841   7.104  0.1118  0.0305  0.2365
  313MOL0     C42145   8.019   7.967   7.072  0.5704  0.8194 -0.7955
  313MOL0     C42146   8.115   8.069   7.074 -0.0498  0.3727  0.2020
  313MOL0     C42147   8.074   8.204   7.034 -0.7731  0.2179  0.1739
  313MOL0     C42148   7.949   8.233   6.992  1.3340 -0.7764  0.3105
  313MOL0     C42149   7.914   8.364   6.939  0.1850 -0.4679  0.1259
  313MOL0     O42150   7.834   8.389   6.830 -0.4216  1.4204 -0.3523
  313MOL0     C42151   7.803   8.522   6.795 -0.2061 -0.0177  0.2981
  313MOL0     C42152   7.805   8.636   6.881  0.0445  0.6580  0.5842
  313MOL0     C42153   7.796   8.769   6.823  0.3785  0.8256  0.0550
  313MOL0     C42154   7.775   8.785   6.684 -0.6870 -0.1716 -0.2108
  313MOL0     O42155   7.764   8.909   6.623  0.2094 -0.1473  0.5610
  313MOL0     C42156   7.798   9.018   6.704  0.0156 -0.2175 -1.2600
  313MOL0     C42157   7.808   9.157   6.642 -0.3305 -1.1742  0.1890
  313MOL0     C42158   7.898   9.246   6.742  0.0525  0.8381 -0.2398
  313MOL0     C42159   7.911   9.390   6.693 -0.8033  0.6163 -0.6075
  313MOL0     C42160   7.785   9.461   6.726  0.1420  0.1520  0.0858
  313MOL0     C42161   7.803   9.615   6.750 -0.9338 -0.2026  0.5830
  313MOL0     C42162   7.682   9.708   6.727 -0.2924 -0.3886 -0.5976
  313MOL0     C42163   7.649   9.703   6.592 -0.2239  0.0628  0.4136
  313MOL0    Cl42164   7.513   9.808   6.574  0.7721  0.4884  0.5444
  313MOL0     C42165   7.755   8.676   6.604  0.1208 -0.4551  0.5319
  313MOL0     C42166   7.774   8.550   6.655  0.4220  0.9199  0.1339
  313MOL0     O42167   7.977   8.452   6.999 -0.4051 -0.1030  0.3104
  313MOL0     C42168   7.857   8.126   6.987  0.0353  0.4841  0.6571
  313MOL0     C42169   7.887   7.992   7.028 -0.1554 -0.3805  0.2515
  313MOL0     N42170   8.536   7.626   6.983 -1.3599  0.2956 -1.0131
  313MOL0     N42171   8.639   7.603   6.907  0.2063 -0.7362 -0.1331
  313MOL0     C42172   9.492   7.626   6.266  0.0483 -0.3792 -0.6900
  313MOL0     C42173   9.515   7.723   6.175  0.8319 -0.0060  0.9221
  313MOL0     C42174   9.616   7.933   5.761  0.9848 -0.9289  0.6361
  313MOL0     C42175   9.702   8.036   5.792 -0.9146 -0.9671  0.0282
  313MOL0     C42176   9.729   8.147   5.708  0.2834 -0.0310 -0.2647
  313MOL0     C42177   9.689   8.143   5.575 -0.3338 -0.6331 -0.0593
  313MOL0     O42178   9.721   8.229   5.473  0.6956 -0.6255 -0.0608
  313MOL0     C42179   9.757   8.365   5.518  0.3807  0.5291 -0.8980
  313MOL0     C42180   9.761   8.458   5.406 -0.7614 -0.8420  0.2178
  313MOL0     C42181   9.783   8.598   5.461  0.3065 -0.5669 -0.1676
  313MOL0     C42182   9.786   8.714   5.351  0.2625  0.3726 -0.3023
  313MOL0     C42183   9.659   8.718   5.272 -0.2636 -0.1275 -1.2612
  313MOL0     C42184   9.552   8.714   5.209 -0.3737 -0.0946  0.1373
  313MOL0     C42185   9.613   8.039   5.537  0.3109  0.3825 -0.0106
  313MOL0     C42186   9.571   7.935   5.624  0.3865 -0.2594 -0.3662
  313MOL0     C42187   9.510   7.808   5.569 -0.1312  0.4354 -0.1086
  313MOL0     H42188   9.422   7.582   5.879  1.7474 -1.1487 -0.8277
  313MOL0     H42189   9.369   7.396   6.038 -0.6697  0.1336 -0.9379
  313MOL0     H42190   9.251   7.307   6.227 -1.0091 -3.7304  0.9017
  313MOL0     H42191   9.397   7.213   6.239  0.6194  0.8260 -1.7744
  313MOL0     H42192   9.383   7.247   6.498 -0.8570  1.0894  0.2802
  313MOL0     H42193   9.274   7.126   6.430  1.1255  0.6476  0.1688
  313MOL0     H42194   9.093   7.329   6.430  0.1390  1.1292  1.5815
  313MOL0     H42195   9.212   7.418   6.515  0.9289  0.1797 -1.2265
  313MOL0     H42196   9.092   7.154   6.591  0.0437  0.7137  0.8696
  313MOL0     H42197   9.236   7.225   6.666  1.1944  1.7566 -0.2831
  313MOL0     H42198   9.058   7.273   6.795  2.7717 -0.4114 -1.0534
  313MOL0     H42199   9.097   7.433   6.725 -2.0239  1.5621 -2.9248
  313MOL0     H42200   8.889   7.442   6.575  2.1901  0.1594 -0.0857
  313MOL0     H42201   8.854   7.278   6.602 -2.9013  2.9115 -2.7000
  313MOL0     H42202   8.866   7.503   6.812  3.2680 -1.8119  0.8163
  313MOL0     H42203   8.821   7.341   6.850  0.0688  3.1135  1.7839
  313MOL0     H42204   8.672   7.512   6.646 -2.4927 -0.5639 -0.5874
  313MOL0     H42205   8.626   7.344   6.681  0.7714 -1.2500  0.5680
  313MOL0     H42206   8.418   7.385   6.784  1.6072 -1.8803  0.3448
  313MOL0     H42207   8.252   7.416   6.966 -1.2815  0.0275  0.7078
  313MOL0     H42208   8.325   7.522   7.100  2.8856  1.2531 -0.4504
  313MOL0     H42209   8.232   7.718   6.959 -1.1177  1.1025 -0.5989
  313MOL0     H42210   8.163   7.610   6.848 -1.9802 -0.0969  0.2415
  313MOL0     H42211   8.102   7.593   7.166 -2.8858 -0.1647  0.6351
  313MOL0     H42212   8.026   7.519   7.025 -0.8631  0.9733  0.9737
  313MOL0     H42213   7.906   7.702   7.105  0.7861 -1.8744 -0.4223
  313MOL0     H42214   7.963   7.757   6.939  0.2687  0.5119 -0.7618
  313MOL0     H42215   8.219   8.057   7.102  0.4684  3.4770 -0.0608
  313MOL0     H42216   8.150   8.281   7.040  1.3081 -1.6218 -0.9152
  313MOL0     H42217   7.808   8.626   6.990 -1.8213  1.7080  0.7719
  313MOL0     H42218   7.800   8.846   6.899  2.5243 -2.7025  3.9639
  313MOL0     H42219   7.725   9.017   6.786 -0.7816 -3.0302 -1.8788
  313MOL0     H42220   7.900   9.000   6.738  0.5050  2.1054 -1.3398
  313MOL0     H42221   7.851   9.157   6.541 -4.0017 -1.2807 -1.5268
  313MOL0     H42222   7.704   9.190   6.639 -0.6090 -2.0533 -0.6099
  313MOL0     H42223   7.869   9.233   6.847  2.0255 -2.5025  0.0172
  313MOL0     H42224   7.998   9.204   6.734 -0.3829 -0.3658  0.3729
  313MOL0     H42225   7.936   9.378   6.587  0.5315 -0.4522 -0.2136
  313MOL0     H42226   7.999   9.447   6.726  1.3858  0.0863 -4.7687
  313MOL0     H42227   7.725   9.422   6.808 -0.7838 -0.3764 -0.8270
  313MOL0     H42228   7.720   9.443   6.640  0.1345 -2.9414  0.6438
  313MOL0     H42229   7.821   9.635   6.856  0.4229  3.6917 -0.2065
  313MOL0     H42230   7.888   9.655   6.693 -2.4070  2.2855 -0.0474
  313MOL0     H42231   7.709   9.807   6.765  4.1147 -2.3867  2.3607
  313MOL0     H42232   7.602   9.678   6.795  0.7549  2.0123  1.8915
  313MOL0     H42233   7.734   9.733   6.530  0.0904 -2.3271 -0.4114
  313MOL0     H42234   7.622   9.602   6.560 -1.7148  0.4008  0.5247
  313MOL0     H42235   7.728   8.702   6.503 -1.9361  1.8010  1.5678
  313MOL0     H42236   7.779   8.463   6.591 -2.3822  1.3213 -0.7334
  313MOL0     H42237   7.755   8.138   6.953  0.6059 -1.1993 -1.9745
  313MOL0     H42238   7.812   7.914   7.022  1.2236 -1.7424  0.0589
  313MOL0     H42239   9.518   7.638   6.371  0.0954 -2.0998 -0.4777
  313MOL0     H42240   9.551   7.818   6.212  1.2397  0.6038 -0.9123
  313MOL0     H42241   9.758   8.020   5.884 -1.4667 -1.4646  0.2834
  313MOL0     H42242   9.796   8.218   5.756  0.4477 -0.8630  0.7888
  313MOL0     H42243   9.860   8.366   5.556  0.7402  1.5623 -1.8389
  313MOL0     H42244   9.685   8.397   5.594 -0.5085  1.0247 -1.9197
  313MOL0     H42245   9.665   8.457   5.353 -0.7712  1.1036  0.1082
  313MOL0     H42246   9.840   8.434   5.335  0.4773  0.4504  1.1168
  313MOL0     H42247   9.879   8.602   5.512  0.2701  0.6314 -0.1675
  313MOL0     H42248   9.695   8.622   5.520 -2.0347 -0.0227 -3.5643
  313MOL0     H42249   9.814   8.812   5.390 -0.6640  0.4483  0.2009
  313MOL0     H42250   9.862   8.699   5.274  1.1022  3.4435 -0.1793
  313MOL0     H42251   9.457   8.723   5.159 -0.5420  1.4500  0.6915
  313MOL0     H42252   9.601   8.033   5.430 -1.4823 -0.2333  0.2021
  313MOL0     H42253   9.588   7.732   5.576 -0.1315  0.4228 -0.2435
  313MOL0     H42254   9.417   7.778   5.618  0.9529 -1.3278  1.0072
  313MOL0     H42255   9.488   7.803   5.462  1.0953 -1.9249 -0.3217
  314MOL0     O42256  10.727   0.425   9.197  0.1387 -0.4381  0.3022
  314MOL0     C42257  10.806   0.509   9.158  0.1233 -0.1329  0.1413
  314MOL0     O42258  10.774   0.613   9.071 -0.2844 -0.5715 -0.0507
  314MOL0     C42259  10.642   0.648   9.052  0.4040  0.6329 -0.2481
  314MOL0     C42260  10.566   0.677   9.160 -0.4273 -0.8493  0.5747
  314MOL0     C42261  10.429   0.703   9.152  1.4240  0.5977  0.8018
  314MOL0     C42262  10.360   0.687   9.030  0.3232 -0.1160  0.5378
  314MOL0     O42263  10.222   0.689   9.010 -0.7404  0.0078  0.3466
  314MOL0     C42264  10.132   0.683   9.123  0.1254  0.6948  0.7628
  314MOL0     C42265   9.992   0.682   9.070 -0.4914  0.3147  1.1057
  314MOL0     C42266   9.958   0.560   8.985 -0.9597 -0.4482 -0.1295
  314MOL0     C42267   9.951   0.429   9.071 -1.0022 -0.0178 -0.5232
  314MOL0     C42268   9.880   0.332   8.982 -0.6599  0.4899  0.3529
  314MOL0     C42269   9.864   0.184   9.024  0.0289 -0.0330  0.0283
  314MOL0     C42270   9.798   0.090   8.917  0.0070  0.0298 -0.4639
  314MOL0     C42271   9.676   0.004   8.944  0.4174  0.2546  0.2020
  314MOL0     N42272   9.683  -0.080   9.066 -0.2082  0.6585  0.5692
  314MOL0     C42273   9.578  -0.088   9.157 -0.7186 -0.2382 -1.2345
  314MOL0     C42274   9.611  -0.197   9.239  0.0692  0.3435 -0.7907
  314MOL0     C42275   9.542  -0.242   9.369  0.3057 -0.3177  0.4499
  314MOL0     C42276   9.607  -0.167   9.478  0.3366 -0.2421 -0.7526
  314MOL0     C42277   9.535  -0.200   9.604  0.9718 -0.0400 -0.7673
  314MOL0     C42278   9.590  -0.105   9.712 -0.4894  0.8625  0.4576
  314MOL0     O42279   9.537   0.038   9.688 -0.4874 -0.4016 -0.4683
  314MOL0     C42280   9.621   0.145   9.720 -0.8150  0.8728 -0.1118
  314MOL0     C42281   9.591   0.265   9.656  0.9769  0.5544 -0.2007
  314MOL0     C42282   9.667   0.380   9.682 -0.0870 -0.1157 -0.3984
  314MOL0     C42283   9.761   0.385   9.779 -0.2185 -0.8512 -0.1782
  314MOL0     C42284   9.830   0.509   9.806 -0.0991  0.2576  0.0209
  314MOL0     O42285   9.946   0.496   9.871  0.2523  0.8707 -0.2989
  314MOL0     C42286  10.025   0.614   9.894  0.2703 -0.2974  0.3570
  314MOL0     C42287  10.158   0.606   9.873 -0.6900 -0.6978 -0.5072
  314MOL0     C42288  10.247   0.711   9.902  0.1414 -0.1497 -0.2375
  314MOL0     C42289  10.194   0.839   9.936  0.7011  0.2370  1.0556
  314MOL0     O42290  10.287   0.946   9.950 -0.6548  0.2535  0.1113
  314MOL0     C42291  10.240   1.074   9.922  0.6612 -0.1226  0.3214
  314MOL0     C42292  10.344   1.168   9.976 -0.3796  0.1023 -0.5697
  314MOL0     C42293  10.460   1.189   9.876 -0.1200  0.4174 -0.1794
  314MOL0     C42294  10.555   1.066   9.871  0.1168 -0.3213  0.0201
  314MOL0     C42295  10.678   1.099   9.775 -0.1811  0.7434  0.2071
  314MOL0     C42296  10.747   1.217   9.819 -0.6175 -0.2037 -0.2437
  314MOL0     C42297  10.868   1.237   9.731 -0.0038  0.1576 -0.0921
  314MOL0     C42298  10.980   1.311   9.809  0.2323 -0.6963 -0.9154
  314MOL0    Cl42299  10.926   1.462   9.886  0.2367 -0.1130 -0.1907
  314MOL0     C42300  10.054   0.842   9.944  0.2161 -0.6468 -0.4268
  314MOL0     C42301   9.971   0.741   9.928 -0.3392 -0.8787 -0.1883
  314MOL0     O42302   9.786   0.618   9.761  0.6239  0.5198  0.2153
  314MOL0     C42303   9.797   0.262   9.844  0.0795  0.6184 -0.2337
  314MOL0     C42304   9.731   0.136   9.810 -0.6217 -0.4447 -0.1431
  314MOL0     N42305   9.738  -0.246   9.202  0.5536 -0.9155 -1.4232
  314MOL0     N42306   9.773  -0.179   9.096  0.0208 -0.0857 -0.5897
  314MOL0     C42307  10.440   0.660   8.916  1.1580 -0.2957 -0.6489
  314MOL0     C42308  10.577   0.646   8.928  0.9825 -0.6404 -0.5705
  314MOL0     C42309  10.948   0.499   9.204 -0.3871 -0.1303  0.6744
  314MOL0     C42310  11.030   0.615   9.188 -0.3718 -0.0362 -0.2497
  314MOL0     C42311  11.153   0.629   9.250 -0.1529 -0.6678 -0.4906
  314MOL0     C42312  11.202   0.526   9.334 -0.6785  0.2701  0.0526
  314MOL0     O42313  11.328   0.537   9.391  0.3483  0.1824  0.4313
  314MOL0     C42314  11.425   0.429   9.357  0.3267  0.1318  0.9030
  314MOL0     C42315  11.552   0.429   9.452 -0.1457 -0.3655 -0.0190
  314MOL0     C42316  11.673   0.394   9.364 -0.1976 -0.6479 -0.4993
  314MOL0     C42317  11.812   0.419   9.435 -0.3329 -0.5995  0.5538
  314MOL0     C42318  11.823   0.343   9.559 -0.2977 -0.9450  0.1235
  314MOL0     C42319  11.826   0.289   9.670 -0.0018  0.6230  1.3041
  314MOL0     C42320  11.121   0.402   9.342 -0.2613 -0.2806 -0.5792
  314MOL0     C42321  10.998   0.398   9.284  0.5064 -0.2026  0.8713
  314MOL0     C42322  10.928   0.265   9.303 -0.4193 -0.1594  0.1113
  314MOL0     H42323  10.612   0.681   9.258  3.1297  3.1879 -0.9281
  314MOL0     H42324  10.376   0.723   9.245 -2.1502 -0.9498 -0.7052
  314MOL0     H42325  10.150   0.587   9.173 -0.8784  0.2498  0.3035
  314MOL0     H42326  10.162   0.766   9.188 -0.0661  0.9698  0.5038
  314MOL0     H42327   9.976   0.778   9.021  1.4956 -0.4314 -1.2042
  314MOL0     H42328   9.915   0.688   9.147 -3.5782  0.7516 -1.8081
  314MOL0     H42329  10.032   0.543   8.906 -1.6148  0.6102 -1.0108
  314MOL0     H42330   9.859   0.573   8.938 -2.9257 -0.8199  3.5503
  314MOL0     H42331  10.047   0.393   9.108 -0.4222  0.4947 -1.4683
  314MOL0     H42332   9.881   0.439   9.155 -2.1663 -1.1201 -1.3110
  314MOL0     H42333   9.783   0.382   8.981  0.3023  2.4759 -0.0088
  314MOL0     H42334   9.925   0.328   8.882 -1.7380  0.4609 -0.1422
  314MOL0     H42335   9.968   0.155   9.044  0.2419 -2.3711 -3.4924
  314MOL0     H42336   9.815   0.175   9.121  1.5444  0.0268  0.8365
  314MOL0     H42337   9.886   0.029   8.895  3.0361  3.3119  1.4186
  314MOL0     H42338   9.763   0.150   8.833 -1.1244 -1.0789 -0.8170
  314MOL0     H42339   9.587   0.068   8.947  0.2537  0.5304 -4.2213
  314MOL0     H42340   9.665  -0.059   8.855  4.8700  0.0340 -0.4479
  314MOL0     H42341   9.491  -0.026   9.173  0.7044  1.0022  3.3224
  314MOL0     H42342   9.436  -0.222   9.354 -0.3906 -2.3003  2.2088
  314MOL0     H42343   9.550  -0.351   9.379  0.9184 -0.1368  2.4093
  314MOL0     H42344   9.714  -0.185   9.496 -0.2231 -0.7713  2.8621
  314MOL0     H42345   9.584  -0.066   9.446 -2.2696 -0.7889 -0.8054
  314MOL0     H42346   9.553  -0.301   9.640  2.5187  0.9230  1.3247
  314MOL0     H42347   9.425  -0.198   9.611  1.0845 -0.0476  2.0327
  314MOL0     H42348   9.699  -0.097   9.710 -0.4992  0.8497 -0.0201
  314MOL0     H42349   9.565  -0.142   9.812  0.5747  0.7174  0.6779
  314MOL0     H42350   9.514   0.256   9.580  0.2464 -2.1810  0.7284
  314MOL0     H42351   9.635   0.469   9.628 -1.0666 -0.0419  0.2688
  314MOL0     H42352  10.207   0.519   9.832  0.9902  0.5000 -1.1929
  314MOL0     H42353  10.353   0.688   9.907  0.1219 -0.1318  0.3938
  314MOL0     H42354  10.218   1.093   9.817 -2.0230  3.6070  1.3263
  314MOL0     H42355  10.146   1.091   9.975  1.3344  0.0738  1.4950
  314MOL0     H42356  10.290   1.262   9.995 -2.4921 -0.9485 -1.0869
  314MOL0     H42357  10.379   1.137  10.075 -0.6255 -1.1214 -0.8486
  314MOL0     H42358  10.415   1.218   9.781  0.5100  0.6543 -0.4085
  314MOL0     H42359  10.516   1.275   9.914  0.0487 -0.2441  1.1197
  314MOL0     H42360  10.497   0.980   9.838 -0.1170 -0.5723  1.0474
  314MOL0     H42361  10.596   1.058   9.972 -1.0827  1.7927  0.7439
  314MOL0     H42362  10.637   1.110   9.674 -1.5245  1.1122  0.7667
  314MOL0     H42363  10.751   1.017   9.777  1.3009  2.0108  0.0803
  314MOL0     H42364  10.684   1.303   9.797 -1.4466 -1.1647 -1.8529
  314MOL0     H42365  10.775   1.208   9.924 -1.5693 -1.0327 -0.0439
  314MOL0     H42366  10.838   1.312   9.656 -0.9563 -1.1691 -1.0861
  314MOL0     H42367  10.894   1.149   9.672  2.1928  1.0498 -0.5374
  314MOL0     H42368  11.036   1.252   9.883 -2.0663  1.0807  2.4946
  314MOL0     H42369  11.056   1.346   9.739 -0.3549  0.4987 -0.9705
  314MOL0     H42370  10.015   0.937   9.980  1.2212  0.0987 -1.2486
  314MOL0     H42371   9.866   0.754   9.951 -0.0706  1.7100 -0.1346
  314MOL0     H42372   9.885   0.256   9.907 -1.2863 -0.6197  1.7056
  314MOL0     H42373   9.767   0.040   9.847  2.4185  1.2441  1.6962
  314MOL0     H42374  10.401   0.657   8.815  2.5138  1.0881 -1.2617
  314MOL0     H42375  10.636   0.639   8.837  2.0040 -1.1091  0.1108
  314MOL0     H42376  10.993   0.700   9.132 -1.3331 -1.6672 -2.2029
  314MOL0     H42377  11.221   0.713   9.242 -0.6480 -0.3219 -1.1939
  314MOL0     H42378  11.446   0.435   9.250  2.9936  0.3716  1.3851
  314MOL0     H42379  11.381   0.333   9.384 -0.7302  1.0142  2.5090
  314MOL0     H42380  11.551   0.354   9.531 -1.0394  1.3427  1.6746
  314MOL0     H42381  11.561   0.525   9.504 -0.9744 -0.5650  0.4978
  314MOL0     H42382  11.671   0.454   9.273 -1.9653 -2.7893 -1.9725
  314MOL0     H42383  11.665   0.288   9.340  0.7735 -0.9404  0.4019
  314MOL0     H42384  11.889   0.376   9.371 -1.6203 -1.9095 -0.1523
  314MOL0     H42385  11.828   0.526   9.456 -1.4880 -0.6274  1.6854
  314MOL0     H42386  11.844   0.238   9.763 -2.3310 -0.7409  1.0788
  314MOL0     H42387  11.156   0.319   9.403 -2.0812 -0.0222  0.8877
  314MOL0     H42388  10.868   0.238   9.216 -2.1632  2.1999  0.4609
  314MOL0     H42389  10.994   0.180   9.323  2.8220  2.4191  1.2520
  314MOL0     H42390  10.857   0.268   9.387 -1.8432 -1.0288 -1.0292
  315MOL0     O42391   3.058   7.871   3.082 -0.4733 -0.0677  0.3945
  315MOL0     C42392   3.027   7.986   3.091  0.1106 -0.6701 -0.6256
  315MOL0     O42393   3.014   8.054   3.208 -0.6802  0.4075 -0.1545
  315MOL0     C42394   2.999   7.988   3.333 -0.2457 -0.1524 -0.0036
  315MOL0     C42395   3.057   8.050   3.445 -0.4206 -0.3571 -0.7439
  315MOL0     C42396   3.043   7.989   3.571 -0.4863  0.2557  0.4329
  315MOL0     C42397   2.983   7.861   3.582 -0.9038  0.5124 -0.1045
  315MOL0     O42398   2.969   7.784   3.694 -0.1801  0.1102  0.6544
  315MOL0     C42399   3.015   7.834   3.825  0.0143  0.8222  0.4309
  315MOL0     C42400   2.897   7.923   3.890  0.2787 -0.3350 -0.2375
  315MOL0     C42401   2.949   8.007   4.011  0.1654 -0.2129  0.5951
  315MOL0     C42402   2.957   7.933   4.147  0.3171  0.2052 -0.2053
  315MOL0     C42403   3.040   8.009   4.260 -0.2830  0.0641 -0.1531
  315MOL0     C42404   2.987   8.149   4.290  0.6691 -0.4575  0.4488
  315MOL0     C42405   3.053   8.235   4.403 -0.6145 -0.2453  0.9014
  315MOL0     C42406   3.137   8.355   4.345 -0.2271  0.5532 -0.7992
  315MOL0     N42407   3.201   8.421   4.465  0.7051 -0.0675  0.6588
  315MOL0     C42408   3.135   8.492   4.558  0.6211 -0.2066 -0.5161
  315MOL0     C42409   3.230   8.536   4.645 -0.4082  1.3184  0.2479
  315MOL0     C42410   3.198   8.627   4.750  0.1828 -0.2404 -0.0082
  315MOL0     C42411   3.313   8.648   4.846  0.1481 -0.5623 -0.4393
  315MOL0     C42412   3.273   8.702   4.979 -1.3979  0.2974  0.5636
  315MOL0     C42413   3.402   8.711   5.069  0.3932 -0.0524  0.6827
  315MOL0     O42414   3.364   8.711   5.207  0.1175 -0.4006  0.4565
  315MOL0     C42415   3.314   8.590   5.265  0.9555 -0.0772  0.7200
  315MOL0     C42416   3.314   8.465   5.199 -0.1290 -0.1332  0.1424
  315MOL0     C42417   3.248   8.353   5.256 -0.5412 -0.5640 -0.8779
  315MOL0     C42418   3.196   8.364   5.384  0.0939  0.0857 -0.2008
  315MOL0     C42419   3.137   8.251   5.456 -0.7506  0.8999  0.0361
  315MOL0     O42420   3.163   8.239   5.596 -0.3017 -0.2244 -0.0460
  315MOL0     C42421   3.101   8.134   5.659  0.3379 -0.5587  0.1750
  315MOL0     C42422   3.131   8.002   5.632 -0.3883  0.9113 -0.6705
  315MOL0     C42423   3.065   7.902   5.713  0.2736 -0.1347  0.2553
  315MOL0     C42424   2.968   7.931   5.806  0.5894  0.7777  0.0161
  315MOL0     O42425   2.914   7.822   5.885  0.0441  0.5157  0.4614
  315MOL0     C42426   2.859   7.857   6.015 -0.2161  0.2829 -0.1957
  315MOL0     C42427   2.778   7.730   6.062 -0.0976 -0.0520 -0.1872
  315MOL0     C42428   2.715   7.722   6.201  0.6844 -0.0284  0.1680
  315MOL0     C42429   2.604   7.610   6.202 -0.4448 -0.0165  0.1213
  315MOL0     C42430   2.555   7.557   6.338  0.9006 -0.5808 -0.8443
  315MOL0     C42431   2.514   7.665   6.433 -0.8400  0.2522 -0.3608
  315MOL0     C42432   2.433   7.616   6.548 -0.8991  0.5498 -0.7719
  315MOL0     C42433   2.489   7.674   6.676  0.4418 -0.2302  0.0387
  315MOL0    Cl42434   2.646   7.613   6.727  0.4741  0.2472  0.0237
  315MOL0     C42435   2.935   8.063   5.822  0.4844  0.1411  0.1015
  315MOL0     C42436   2.993   8.168   5.751 -0.4233  0.0143 -0.2423
  315MOL0     O42437   3.090   8.166   5.383 -0.0298 -0.2919 -0.8282
  315MOL0     C42438   3.205   8.483   5.461 -0.5921  0.8064  0.7568
  315MOL0     C42439   3.265   8.594   5.394  1.6291  0.0190  0.2287
  315MOL0     N42440   3.356   8.497   4.603  0.1231  0.2477 -0.5978
  315MOL0     N42441   3.332   8.426   4.494 -0.3894  0.1422 -0.6623
  315MOL0     C42442   2.939   7.795   3.466 -0.7134  0.3713  0.5528
  315MOL0     C42443   2.940   7.869   3.350  0.3505  0.2936  0.4865
  315MOL0     C42444   3.024   8.078   2.968 -0.4695 -0.1809 -0.0435
  315MOL0     C42445   2.952   8.199   2.986 -0.1931  0.8373 -0.1745
  315MOL0     C42446   2.927   8.278   2.875  0.2509  0.4908  0.5790
  315MOL0     C42447   2.967   8.243   2.746 -0.2420  0.4879  1.0498
  315MOL0     O42448   2.937   8.334   2.648 -0.3893  0.3654 -0.1616
  315MOL0     C42449   2.925   8.300   2.505  0.2753  0.6282 -0.7222
  315MOL0     C42450   2.805   8.201   2.479  1.2230  0.0836 -0.3073
  315MOL0     C42451   2.669   8.269   2.532 -0.1098  1.0382  0.5719
  315MOL0     C42452   2.641   8.406   2.464  0.1029 -0.0637 -0.2815
  315MOL0     C42453   2.645   8.410   2.319 -0.1677 -0.0769 -0.5991
  315MOL0     C42454   2.669   8.432   2.202 -0.6367 -0.2194 -0.3525
  315MOL0     C42455   3.023   8.114   2.726 -0.3303 -0.1799 -0.2086
  315MOL0     C42456   3.061   8.031   2.839  0.4090  0.0122 -0.2721
  315MOL0     C42457   3.148   7.910   2.806  0.2158 -0.1134 -0.7388
  315MOL0     H42458   3.112   8.144   3.445  1.7484 -1.5566 -1.2886
  315MOL0     H42459   3.086   8.055   3.645 -3.2928  0.8169  1.6854
  315MOL0     H42460   3.044   7.750   3.889 -0.6282 -1.4954 -2.1326
  315MOL0     H42461   3.107   7.890   3.809 -1.9142  3.7978 -1.1820
  315MOL0     H42462   2.809   7.864   3.920 -1.5558  0.7829 -3.0094
  315MOL0     H42463   2.854   7.989   3.814  0.2317 -1.2307 -1.0046
  315MOL0     H42464   2.880   8.088   4.034 -0.9621 -1.3676  1.4088
  315MOL0     H42465   3.042   8.060   3.990 -0.0940 -0.0161 -0.1124
  315MOL0     H42466   2.857   7.906   4.185  0.1708 -1.0524 -1.3908
  315MOL0     H42467   3.002   7.833   4.149  3.3398  1.4780  1.6687
  315MOL0     H42468   3.050   7.951   4.352  2.9207 -0.2583 -0.5835
  315MOL0     H42469   3.139   8.033   4.220 -0.6430  1.9639 -0.0412
  315MOL0     H42470   3.002   8.212   4.202 -3.9749  1.0186  0.4336
  315MOL0     H42471   2.879   8.144   4.309  0.0891  1.9506 -1.6107
  315MOL0     H42472   3.105   8.175   4.477 -0.7400  1.6510  2.6134
  315MOL0     H42473   2.978   8.281   4.468 -0.1420 -2.2605  2.9926
  315MOL0     H42474   3.228   8.322   4.294  1.9655  2.0772  1.8358
  315MOL0     H42475   3.081   8.426   4.284 -1.5043  1.1181  0.9363
  315MOL0     H42476   3.027   8.498   4.563  0.6738 -0.2360  1.6459
  315MOL0     H42477   3.154   8.711   4.696 -6.0119 -0.8775  3.1778
  315MOL0     H42478   3.120   8.587   4.815  0.2608 -0.1171  0.1613
  315MOL0     H42479   3.365   8.553   4.862  1.9875  0.3784 -0.5766
  315MOL0     H42480   3.387   8.710   4.795  2.0911 -1.3775  1.2570
  315MOL0     H42481   3.206   8.634   5.031  1.6811 -2.7360  0.9320
  315MOL0     H42482   3.230   8.802   4.972 -1.5104  0.4182  2.3782
  315MOL0     H42483   3.468   8.796   5.046  0.1465  0.7902  2.8043
  315MOL0     H42484   3.472   8.628   5.058 -1.3691 -1.3970 -1.0483
  315MOL0     H42485   3.364   8.445   5.104 -0.4463 -0.7472  0.0975
  315MOL0     H42486   3.252   8.260   5.200  1.3212 -1.5710  0.7685
  315MOL0     H42487   3.201   7.976   5.553 -1.8352 -3.5198 -0.7922
  315MOL0     H42488   3.094   7.798   5.702  0.4653 -0.1416  0.7768
  315MOL0     H42489   2.942   7.875   6.084  0.8154  0.6118 -1.4783
  315MOL0     H42490   2.784   7.937   6.017  0.3209  0.8014 -0.5319
  315MOL0     H42491   2.709   7.710   5.980  0.5557 -1.4977 -0.4105
  315MOL0     H42492   2.842   7.641   6.071 -0.1920 -0.2736 -1.5660
  315MOL0     H42493   2.793   7.695   6.273 -1.3188 -1.4105  1.9575
  315MOL0     H42494   2.672   7.821   6.216 -0.0977 -0.0814 -1.5354
  315MOL0     H42495   2.647   7.523   6.153  2.9633 -0.5110  3.4676
  315MOL0     H42496   2.524   7.658   6.146  1.2791  2.3032 -0.5260
  315MOL0     H42497   2.631   7.495   6.387  1.5530  1.3504  0.7149
  315MOL0     H42498   2.463   7.499   6.326  1.8766 -3.0382  2.2436
  315MOL0     H42499   2.611   7.707   6.460 -0.7089  1.9708 -3.1210
  315MOL0     H42500   2.470   7.753   6.386  2.8500  3.4342  1.5828
  315MOL0     H42501   2.430   7.507   6.561 -3.2181  0.7863  1.5219
  315MOL0     H42502   2.329   7.646   6.533 -1.4631  2.1884  4.4172
  315MOL0     H42503   2.499   7.782   6.664 -0.6474 -0.1794 -0.5100
  315MOL0     H42504   2.426   7.648   6.761  0.9034 -0.8838  0.1910
  315MOL0     H42505   2.849   8.086   5.884  2.0169  5.5891  0.7754
  315MOL0     H42506   2.952   8.264   5.781 -1.4228 -1.7265  4.8641
  315MOL0     H42507   3.181   8.499   5.565 -1.1880  3.5680  0.2757
  315MOL0     H42508   3.251   8.685   5.451  3.5836 -0.7149  1.9972
  315MOL0     H42509   2.896   7.695   3.464  1.8334 -0.7878  0.3453
  315MOL0     H42510   2.889   7.835   3.260 -0.3679  0.3105  0.8816
  315MOL0     H42511   2.932   8.239   3.085  3.1328  0.6986  0.6799
  315MOL0     H42512   2.880   8.374   2.893  2.0507  1.5219  0.0614
  315MOL0     H42513   3.021   8.260   2.470  1.1011  1.2693  0.7427
  315MOL0     H42514   2.903   8.391   2.449  1.0345  1.0204 -0.3941
  315MOL0     H42515   2.811   8.104   2.528 -2.9493  0.5495  1.4605
  315MOL0     H42516   2.814   8.164   2.376  2.3086 -1.3777  0.2760
  315MOL0     H42517   2.659   8.270   2.641 -2.4458  0.9720  0.4236
  315MOL0     H42518   2.588   8.203   2.499  0.5469  2.3212 -4.4071
  315MOL0     H42519   2.538   8.429   2.495  0.0667  0.1126 -0.5269
  315MOL0     H42520   2.708   8.483   2.504 -0.7192 -0.5982  2.2901
  315MOL0     H42521   2.684   8.468   2.102 -0.5795  1.2802  0.1743
  315MOL0     H42522   3.052   8.083   2.626 -0.0216  1.6298 -0.7215
  315MOL0     H42523   3.198   7.939   2.713  0.0498  1.6715 -0.3045
  315MOL0     H42524   3.221   7.889   2.885 -0.1446 -3.1348 -1.0746
  315MOL0     H42525   3.082   7.823   2.804 -1.5736  1.1385  0.5179
  316MOL0     O42526   9.302   7.934   7.829  0.0812  0.0278  0.5083
  316MOL0     C42527   9.205   7.989   7.770 -0.4854 -0.7884  1.1093
  316MOL0     O42528   9.171   7.971   7.636 -0.7391  0.6510 -1.2334
  316MOL0     C42529   9.249   7.897   7.559  0.0346  0.0341 -0.1271
  316MOL0     C42530   9.246   7.755   7.565 -0.1895  0.9340 -0.1051
  316MOL0     C42531   9.339   7.690   7.482  0.3251 -0.1045 -0.3031
  316MOL0     C42532   9.425   7.747   7.394 -0.9182 -0.5545  0.2900
  316MOL0     O42533   9.501   7.666   7.306 -0.8363  0.3394  0.3323
  316MOL0     C42534   9.640   7.698   7.319 -0.8458 -1.0161  0.9893
  316MOL0     C42535   9.711   7.577   7.261  0.5536  0.6488  0.2739
  316MOL0     C42536   9.856   7.594   7.250 -0.0362  0.7294 -0.5707
  316MOL0     C42537   9.938   7.466   7.277  0.1705  0.9651  0.6392
  316MOL0     C42538  10.080   7.497   7.259 -0.2344  0.0936 -1.2905
  316MOL0     C42539  10.170   7.376   7.296 -0.4219  0.4368  0.0807
  316MOL0     C42540  10.319   7.379   7.249  0.0968 -0.8834  0.0662
  316MOL0     C42541  10.410   7.452   7.348 -0.1004 -0.0178 -0.5727
  316MOL0     N42542  10.541   7.456   7.275 -0.8985  0.6157  0.2544
  316MOL0     C42543  10.595   7.574   7.238  0.2734 -0.9562  0.5822
  316MOL0     C42544  10.720   7.552   7.201 -0.7151  0.6673 -0.2868
  316MOL0     C42545  10.808   7.665   7.145  0.2449 -0.3400  0.3304
  316MOL0     C42546  10.946   7.622   7.096 -1.7765 -0.6226  0.4838
  316MOL0     C42547  11.015   7.744   7.029  0.1339  0.0604 -0.1486
  316MOL0     C42548  11.160   7.721   6.993 -0.1540  0.4377  0.2187
  316MOL0     O42549  11.227   7.849   6.982  0.3106 -0.5790 -0.4371
  316MOL0     C42550  11.283   7.919   7.091  1.0907  0.6191  0.1867
  316MOL0     C42551  11.365   8.031   7.069  0.6807  0.4661  0.3411
  316MOL0     C42552  11.427   8.101   7.169 -0.5161 -0.6875 -1.1985
  316MOL0     C42553  11.404   8.066   7.307 -0.5590  0.5443 -0.0723
  316MOL0     C42554  11.456   8.132   7.427 -0.9196  0.3380 -0.0493
  316MOL0     O42555  11.422   8.079   7.541 -0.0172 -0.3362  0.0085
  316MOL0     C42556  11.428   8.164   7.652 -0.2741 -0.2774  0.3251
  316MOL0     C42557  11.454   8.114   7.777 -0.1095  0.7116  0.3996
  316MOL0     C42558  11.450   8.190   7.895  0.7582 -0.1290  1.1897
  316MOL0     C42559  11.444   8.330   7.876 -0.7617 -0.3375 -0.4306
  316MOL0     O42560  11.444   8.420   7.988 -0.3989 -1.3150 -0.0017
  316MOL0     C42561  11.307   8.439   8.036 -0.5630  0.2884  0.8205
  316MOL0     C42562  11.299   8.555   8.132  0.4608 -0.0721  1.2336
  316MOL0     C42563  11.397   8.557   8.249 -0.3162  0.1602 -0.3275
  316MOL0     C42564  11.331   8.469   8.353  0.1252 -0.1136  0.1635
  316MOL0     C42565  11.418   8.419   8.473 -0.2719  0.4542  0.5035
  316MOL0     C42566  11.489   8.539   8.550 -0.8905  0.2282 -0.2583
  316MOL0     C42567  11.537   8.487   8.689  1.0163  1.0066  0.1744
  316MOL0     C42568  11.586   8.609   8.775  0.2938 -0.0694  0.4736
  316MOL0    Cl42569  11.740   8.681   8.725 -0.4212 -0.0919  0.0117
  316MOL0     C42570  11.425   8.383   7.757  1.0375 -0.3258 -0.6832
  316MOL0     C42571  11.405   8.305   7.643 -0.9498 -0.0281  0.8730
  316MOL0     O42572  11.533   8.231   7.413 -0.4725 -0.2640  0.1322
  316MOL0     C42573  11.313   7.954   7.336  0.5965 -1.0189  0.2609
  316MOL0     C42574  11.263   7.881   7.227 -0.6243  0.7401 -0.3671
  316MOL0     N42575  10.737   7.411   7.203 -0.5412 -1.4231 -0.4580
  316MOL0     N42576  10.630   7.353   7.252  0.5730  0.3615  1.2059
  316MOL0     C42577   9.437   7.891   7.396  0.5303 -0.7378 -0.0328
  316MOL0     C42578   9.338   7.965   7.474  0.3141  0.3175 -0.6741
  316MOL0     C42579   9.124   8.064   7.853  0.5083  0.2729  0.1618
  316MOL0     C42580   9.110   8.026   7.991  0.4268 -0.5578  0.5117
  316MOL0     C42581   9.018   8.091   8.078  0.4469  0.0095 -0.0006
  316MOL0     C42582   8.946   8.201   8.039 -0.1654 -0.2037 -0.3013
  316MOL0     O42583   8.875   8.263   8.140 -0.0910 -0.0783 -0.7138
  316MOL0     C42584   8.799   8.381   8.112 -0.1931  0.6035 -0.5895
  316MOL0     C42585   8.807   8.472   8.235  0.2454  0.6350 -0.0425
  316MOL0     C42586   8.671   8.498   8.305 -0.9588 -0.1402  0.2970
  316MOL0     C42587   8.594   8.629   8.258 -0.2076  0.3380  0.8431
  316MOL0     C42588   8.510   8.588   8.145  0.6880 -0.1511 -1.2788
  316MOL0     C42589   8.429   8.553   8.059  0.7957  0.6296 -0.0845
  316MOL0     C42590   8.947   8.231   7.907 -0.1325  0.3805  0.2294
  316MOL0     C42591   9.036   8.176   7.811 -0.9815 -0.5996 -0.0944
  316MOL0     C42592   9.041   8.245   7.681 -0.1281 -1.0021 -0.1506
  316MOL0     H42593   9.162   7.709   7.615  1.0555  1.8760  3.1359
  316MOL0     H42594   9.335   7.581   7.477 -0.4249 -0.0710 -0.6760
  316MOL0     H42595   9.663   7.794   7.273  0.7573 -0.6341  2.4837
  316MOL0     H42596   9.666   7.714   7.424 -3.7097 -1.8533  1.9152
  316MOL0     H42597   9.674   7.557   7.159  2.3234  2.1264 -0.7137
  316MOL0     H42598   9.692   7.493   7.329  2.2291  0.9678  1.1661
  316MOL0     H42599   9.890   7.668   7.322 -1.3375 -1.5519  2.6401
  316MOL0     H42600   9.886   7.621   7.148  2.6898 -2.7729 -0.9272
  316MOL0     H42601   9.913   7.418   7.372  2.7796 -3.1007 -0.4598
  316MOL0     H42602   9.896   7.397   7.204 -1.4059  2.0846  0.4505
  316MOL0     H42603  10.102   7.527   7.157  2.1378 -1.0979 -1.1959
  316MOL0     H42604  10.096   7.577   7.332  0.4193 -2.1580  1.2296
  316MOL0     H42605  10.161   7.355   7.403  3.2667  0.6828  0.5889
  316MOL0     H42606  10.125   7.291   7.244 -1.0399  0.7043  0.1727
  316MOL0     H42607  10.323   7.423   7.149  0.9760 -1.9252 -0.3710
  316MOL0     H42608  10.360   7.278   7.246  0.1939 -0.8167 -1.3269
  316MOL0     H42609  10.364   7.550   7.363 -3.3463 -1.3380 -1.2077
  316MOL0     H42610  10.420   7.391   7.438 -0.0109 -0.9556 -1.2020
  316MOL0     H42611  10.555   7.675   7.238  0.6421 -0.7020 -2.7358
  316MOL0     H42612  10.756   7.715   7.062 -1.0965  1.4511  2.1483
  316MOL0     H42613  10.816   7.742   7.222 -4.1196  1.0666 -0.3601
  316MOL0     H42614  11.007   7.583   7.179  0.3780 -0.1997 -0.8112
  316MOL0     H42615  10.946   7.540   7.024  2.0184  1.0212 -1.6901
  316MOL0     H42616  11.017   7.824   7.103  2.7427  0.4697 -0.5506
  316MOL0     H42617  10.962   7.772   6.938 -3.1753  2.4474  2.2928
  316MOL0     H42618  11.179   7.655   6.909 -2.7135  0.7543 -0.7026
  316MOL0     H42619  11.213   7.661   7.068  0.1925 -2.3057 -2.0713
  316MOL0     H42620  11.395   8.055   6.968  1.6271  0.7812  0.6934
  316MOL0     H42621  11.485   8.192   7.151 -0.9224  0.0167  0.8241
  316MOL0     H42622  11.459   8.008   7.801 -1.1867  0.6038  0.1919
  316MOL0     H42623  11.453   8.138   7.990  2.5297 -3.8149 -0.6953
  316MOL0     H42624  11.248   8.477   7.952  3.0347  1.4121 -1.4432
  316MOL0     H42625  11.267   8.349   8.082 -0.6665  0.2300  0.6203
  316MOL0     H42626  11.321   8.642   8.069 -2.5240 -0.4264 -0.5167
  316MOL0     H42627  11.191   8.557   8.151  0.2860 -1.5943  0.5818
  316MOL0     H42628  11.496   8.520   8.221 -1.6611 -2.4234 -2.0277
  316MOL0     H42629  11.401   8.663   8.276  1.7016 -0.6736  3.3367
  316MOL0     H42630  11.280   8.388   8.301 -2.2111  1.7753 -0.7219
  316MOL0     H42631  11.261   8.534   8.407 -0.9550 -2.8449  2.3077
  316MOL0     H42632  11.490   8.343   8.442 -3.2286 -1.8495 -1.3061
  316MOL0     H42633  11.349   8.375   8.545 -2.5328 -0.6834 -2.1421
  316MOL0     H42634  11.560   8.593   8.487  1.2327 -1.4730  0.5403
  316MOL0     H42635  11.408   8.612   8.560  1.3182  2.6716  0.8720
  316MOL0     H42636  11.614   8.412   8.670  0.7160  0.5925  0.5327
  316MOL0     H42637  11.452   8.446   8.745  2.3614 -0.9046  0.9523
  316MOL0     H42638  11.512   8.689   8.761  1.7886  1.1395 -1.0442
  316MOL0     H42639  11.588   8.590   8.882  1.5759 -1.1680  0.2742
  316MOL0     H42640  11.412   8.490   7.748 -1.2826 -0.2478  2.0520
  316MOL0     H42641  11.373   8.354   7.552  0.0129  1.0138  1.0612
  316MOL0     H42642  11.288   7.909   7.431 -0.1595 -2.0767 -0.4118
  316MOL0     H42643  11.218   7.785   7.250  0.9427 -0.2505 -1.1899
  316MOL0     H42644   9.509   7.951   7.342 -0.6794  0.3945 -0.4399
  316MOL0     H42645   9.370   8.067   7.497  0.9610 -0.5753  3.0321
  316MOL0     H42646   9.161   7.947   8.045  0.8783 -0.7374 -0.1681
  316MOL0     H42647   8.998   8.059   8.179  0.1645  2.9365  0.9764
  316MOL0     H42648   8.691   8.364   8.106 -0.7719  3.0020  1.2926
  316MOL0     H42649   8.832   8.450   8.034 -0.2654 -0.4814 -1.6083
  316MOL0     H42650   8.848   8.571   8.216 -3.0706  2.6515  2.1147
  316MOL0     H42651   8.871   8.426   8.311 -1.1336  1.1966  1.5247
  316MOL0     H42652   8.675   8.517   8.413  0.8369  0.5492  0.1389
  316MOL0     H42653   8.610   8.410   8.285  0.2636 -1.0194  0.3669
  316MOL0     H42654   8.533   8.660   8.343  0.7566 -1.7297  2.3669
  316MOL0     H42655   8.663   8.710   8.231 -1.1885  1.7989  2.4967
  316MOL0     H42656   8.359   8.533   7.980  0.1345  4.4178 -0.6408
  316MOL0     H42657   8.876   8.308   7.880 -1.2486 -1.0663 -1.1279
  316MOL0     H42658   9.146   8.248   7.651  0.2255  3.9550  0.8656
  316MOL0     H42659   8.991   8.177   7.610 -0.6851 -0.4814 -0.2683
  316MOL0     H42660   8.992   8.342   7.689 -1.9405 -1.8549 -0.3142
  317MOL0     O42661   2.414   4.660   6.367  0.2538 -0.4912  0.0649
  317MOL0     C42662   2.456   4.752   6.291 -0.1270  1.1555 -0.2223
  317MOL0     O42663   2.487   4.735   6.162  0.3173  0.2909  0.6571
  317MOL0     C42664   2.465   4.610   6.104 -0.2600 -1.1903  0.9006
  317MOL0     C42665   2.464   4.612   5.964  0.3258 -0.0984 -0.1313
  317MOL0     C42666   2.437   4.501   5.890  0.2135 -0.2153  0.4085
  317MOL0     C42667   2.419   4.378   5.951  0.3728 -0.3254  0.1191
  317MOL0     O42668   2.382   4.252   5.891 -0.5748 -0.0264  0.1332
  317MOL0     C42669   2.339   4.250   5.751  0.7427  0.3489 -1.1094
  317MOL0     C42670   2.444   4.259   5.657 -0.7547 -0.7512  0.9236
  317MOL0     C42671   2.394   4.325   5.527 -0.2657 -0.4078  0.8402
  317MOL0     C42672   2.496   4.318   5.409 -1.2296  0.1170 -0.3453
  317MOL0     C42673   2.516   4.445   5.348 -0.1653 -0.3530  0.1315
  317MOL0     C42674   2.629   4.458   5.257  0.2336  0.1397  0.2049
  317MOL0     C42675   2.615   4.367   5.136  0.8884  0.2419 -0.5200
  317MOL0     C42676   2.701   4.423   5.024  0.4224 -0.2250 -0.7875
  317MOL0     N42677   2.684   4.362   4.898 -0.1478 -0.3208 -0.0165
  317MOL0     C42678   2.746   4.242   4.858  0.8869  0.5307  0.7755
  317MOL0     C42679   2.713   4.232   4.724 -0.6420 -0.1734  0.2812
  317MOL0     C42680   2.745   4.118   4.642  0.2158 -0.5642  0.4561
  317MOL0     C42681   2.889   4.114   4.592  0.0399 -0.8215 -0.3238
  317MOL0     C42682   2.911   4.213   4.472 -0.1012 -0.6561 -0.2909
  317MOL0     C42683   3.031   4.175   4.398 -2.0932 -0.3293 -0.1620
  317MOL0     O42684   3.019   4.048   4.331  0.1658 -0.1915 -0.3641
  317MOL0     C42685   3.128   4.006   4.283  0.5804 -0.0808  0.8259
  317MOL0     C42686   3.189   4.060   4.162 -0.1154 -0.1586 -0.0048
  317MOL0     C42687   3.309   4.007   4.107 -0.4724  0.7105  0.5739
  317MOL0     C42688   3.376   3.897   4.182  1.2856 -0.3869  0.8728
  317MOL0     C42689   3.505   3.829   4.142 -0.8118  0.1281 -0.4370
  317MOL0     O42690   3.548   3.851   4.024 -0.0681 -0.2624  0.0244
  317MOL0     C42691   3.671   3.820   3.971  0.1954 -0.0742  0.7341
  317MOL0     C42692   3.791   3.791   4.043  0.0151  0.3407  0.2625
  317MOL0     C42693   3.911   3.780   3.967 -0.1666  0.9869 -1.1532
  317MOL0     C42694   3.911   3.792   3.830 -0.3186 -0.7919  0.2543
  317MOL0     O42695   4.029   3.769   3.764 -0.2714  0.5704 -0.7973
  317MOL0     C42696   4.164   3.797   3.813  0.4713 -0.1931 -0.5998
  317MOL0     C42697   4.255   3.801   3.694 -0.0913  0.4155  0.9463
  317MOL0     C42698   4.400   3.832   3.723 -0.5124  0.0577 -0.0126
  317MOL0     C42699   4.499   3.794   3.606  0.8380 -0.4682 -0.0198
  317MOL0     C42700   4.635   3.825   3.662 -0.9095 -0.3506  0.5137
  317MOL0     C42701   4.749   3.810   3.556 -0.1059 -0.1270 -1.5762
  317MOL0     C42702   4.883   3.873   3.613 -0.4964 -0.4514  0.7151
  317MOL0     C42703   4.979   3.851   3.502 -0.3479  0.4707  0.2620
  317MOL0    Cl42704   5.123   3.934   3.552  0.1512  0.0317 -0.1659
  317MOL0     C42705   3.793   3.819   3.759 -0.1676 -0.0766  0.2368
  317MOL0     C42706   3.681   3.828   3.833 -0.1985 -0.7181  0.8198
  317MOL0     O42707   3.556   3.745   4.214  1.1820  0.8599 -0.1453
  317MOL0     C42708   3.317   3.862   4.300  0.7136  0.1311 -0.6858
  317MOL0     C42709   3.197   3.899   4.353  0.1321 -0.4527 -0.0794
  317MOL0     N42710   2.613   4.328   4.703 -0.7969 -0.0422  0.4599
  317MOL0     N42711   2.593   4.396   4.809  1.0860 -0.7856  0.1119
  317MOL0     C42712   2.438   4.369   6.083  0.6250  0.1328  0.3225
  317MOL0     C42713   2.457   4.482   6.161 -0.9121 -1.3950  0.5295
  317MOL0     C42714   2.488   4.889   6.338  0.2240 -0.8950  0.3308
  317MOL0     C42715   2.550   4.981   6.240 -0.2494 -0.2920 -0.3566
  317MOL0     C42716   2.587   5.110   6.273  0.8891 -0.0165 -0.4991
  317MOL0     C42717   2.583   5.156   6.404  0.6526 -0.1118 -0.2279
  317MOL0     O42718   2.636   5.280   6.443  0.5365  0.0649 -1.1183
  317MOL0     C42719   2.552   5.376   6.516  0.3429  0.3066  0.4506
  317MOL0     C42720   2.476   5.450   6.417  0.5812  0.1852 -0.8347
  317MOL0     C42721   2.544   5.580   6.370  0.2787 -0.2339 -0.8061
  317MOL0     C42722   2.518   5.688   6.481  0.2599 -0.5382  0.1886
  317MOL0     C42723   2.636   5.710   6.565 -0.2828 -0.1767 -1.2153
  317MOL0     C42724   2.729   5.729   6.647  0.3956  0.1087  0.7427
  317MOL0     C42725   2.532   5.070   6.502  0.0138  1.4291 -0.7487
  317MOL0     C42726   2.479   4.943   6.465 -0.2204  0.2540 -0.4723
  317MOL0     C42727   2.421   4.857   6.585  0.3848  1.0340 -1.1783
  317MOL0     H42728   2.466   4.704   5.907 -2.2050  0.3923  0.4639
  317MOL0     H42729   2.422   4.513   5.784 -3.7379  0.4660  0.9000
  317MOL0     H42730   2.287   4.156   5.733  0.2935  0.3243  0.2386
  317MOL0     H42731   2.280   4.340   5.731  1.0995  1.0078  0.6074
  317MOL0     H42732   2.460   4.154   5.631  0.6688 -0.9428  2.4161
  317MOL0     H42733   2.537   4.303   5.694  0.6659  0.2073 -3.2107
  317MOL0     H42734   2.389   4.430   5.560 -0.0337 -0.8067  2.2167
  317MOL0     H42735   2.298   4.279   5.502  0.5855 -2.0070  0.3669
  317MOL0     H42736   2.594   4.289   5.448  0.5021  1.1982 -3.5758
  317MOL0     H42737   2.477   4.241   5.333  1.7372 -1.4409  0.3392
  317MOL0     H42738   2.425   4.467   5.291  0.1708 -2.6009 -1.3896
  317MOL0     H42739   2.528   4.523   5.425 -0.5340 -1.6693  1.5714
  317MOL0     H42740   2.633   4.564   5.228  0.1311  1.2673  3.8946
  317MOL0     H42741   2.717   4.423   5.311  2.4976 -1.3520 -4.0015
  317MOL0     H42742   2.512   4.365   5.101  1.0730 -0.0743 -1.0681
  317MOL0     H42743   2.647   4.265   5.161 -0.5456  0.3630  2.1929
  317MOL0     H42744   2.692   4.531   5.009  2.7428  0.2051  0.4481
  317MOL0     H42745   2.804   4.406   5.057 -0.9002 -6.0827  1.6010
  317MOL0     H42746   2.812   4.179   4.917 -0.7562 -3.5823 -1.3778
  317MOL0     H42747   2.733   4.037   4.715  2.3120  0.5038  2.1407
  317MOL0     H42748   2.684   4.102   4.553  1.0712 -4.8566  0.4323
  317MOL0     H42749   2.958   4.135   4.675  1.5122 -2.9146 -0.9342
  317MOL0     H42750   2.913   4.017   4.546 -0.6356  0.6047 -3.9732
  317MOL0     H42751   2.916   4.311   4.520  0.3802 -0.4148 -0.8234
  317MOL0     H42752   2.819   4.205   4.413 -0.0440 -0.8211 -0.3579
  317MOL0     H42753   3.115   4.182   4.468 -1.1648  0.4173 -1.2970
  317MOL0     H42754   3.060   4.248   4.321  1.3711  1.9019  2.8994
  317MOL0     H42755   3.143   4.143   4.110  0.9359  1.1870  1.1424
  317MOL0     H42756   3.350   4.060   4.022 -0.1398  0.5475  0.6296
  317MOL0     H42757   3.794   3.800   4.152  0.9063 -1.6440  0.4432
  317MOL0     H42758   4.004   3.767   4.022  0.7040  0.2480 -2.7421
  317MOL0     H42759   4.178   3.889   3.870  2.2212 -1.5864  1.3468
  317MOL0     H42760   4.185   3.711   3.877 -0.9522  1.3514  2.1252
  317MOL0     H42761   4.268   3.704   3.644 -0.3819 -0.3827  2.3542
  317MOL0     H42762   4.204   3.865   3.623 -4.7469 -2.4629  1.2899
  317MOL0     H42763   4.400   3.940   3.737  0.5413  0.2389 -1.2917
  317MOL0     H42764   4.420   3.789   3.822  1.2464 -3.1290 -1.5721
  317MOL0     H42765   4.476   3.851   3.515 -0.8488 -1.3750 -0.1945
  317MOL0     H42766   4.486   3.687   3.590  3.6573 -1.0786  1.2328
  317MOL0     H42767   4.654   3.759   3.748  2.7526  0.6703  0.6406
  317MOL0     H42768   4.637   3.925   3.706  2.4074 -0.9702  2.0705
  317MOL0     H42769   4.769   3.706   3.527  0.4573 -0.3221 -0.5430
  317MOL0     H42770   4.721   3.866   3.466 -1.8381 -0.4474 -1.2643
  317MOL0     H42771   4.910   3.831   3.711 -0.4767  0.3719  1.0693
  317MOL0     H42772   4.872   3.981   3.624 -3.5198 -0.7788  2.1585
  317MOL0     H42773   4.993   3.744   3.485 -1.0498  0.6455 -1.6897
  317MOL0     H42774   4.955   3.901   3.408 -0.0445 -1.0008 -0.6260
  317MOL0     H42775   3.798   3.836   3.652 -2.0350 -0.1870  0.1043
  317MOL0     H42776   3.588   3.842   3.779 -0.7563  1.6438  2.2270
  317MOL0     H42777   3.360   3.773   4.345 -1.2853  0.3722  1.9891
  317MOL0     H42778   3.147   3.867   4.444  0.9903 -1.8545 -0.0625
  317MOL0     H42779   2.432   4.266   6.117  0.4640  0.0068 -0.0769
  317MOL0     H42780   2.469   4.465   6.268 -1.1830 -1.8256  0.4933
  317MOL0     H42781   2.557   4.952   6.135  4.0164  3.2533 -1.3500
  317MOL0     H42782   2.629   5.163   6.189  1.4347 -1.8978 -1.4526
  317MOL0     H42783   2.604   5.450   6.579 -0.4780  4.2688 -3.0425
  317MOL0     H42784   2.478   5.334   6.585 -0.5002  0.9819 -0.0263
  317MOL0     H42785   2.376   5.459   6.461 -0.0132 -1.6079 -1.7136
  317MOL0     H42786   2.471   5.389   6.326 -2.1300  2.7287 -2.6132
  317MOL0     H42787   2.504   5.606   6.271 -0.0503  3.1438  0.0697
  317MOL0     H42788   2.652   5.575   6.354  0.2331  1.8944 -2.2536
  317MOL0     H42789   2.499   5.788   6.441 -1.9635 -1.7948 -2.2331
  317MOL0     H42790   2.418   5.669   6.523 -1.4242  2.2641 -2.1300
  317MOL0     H42791   2.814   5.759   6.706  0.2589  3.3599 -0.5239
  317MOL0     H42792   2.531   5.108   6.603  2.2241  1.1349 -0.5686
  317MOL0     H42793   2.482   4.772   6.617 -3.3394 -1.3694  0.3077
  317MOL0     H42794   2.418   4.921   6.673 -1.3226  1.1266 -1.2646
  317MOL0     H42795   2.317   4.834   6.557 -0.7825  4.4221 -0.0994
  318MOL0     O42796   8.471   9.287   4.149 -0.4489  0.1069 -0.1949
  318MOL0     C42797   8.508   9.404   4.130 -0.1311  0.4439  0.1105
  318MOL0     O42798   8.620   9.463   4.175 -0.2252  0.4312 -0.2783
  318MOL0     C42799   8.690   9.400   4.279 -0.2148 -0.7341  0.7840
  318MOL0     C42800   8.826   9.395   4.267  0.4473  0.0818 -0.7806
  318MOL0     C42801   8.892   9.342   4.375 -0.1932  0.0416  1.0008
  318MOL0     C42802   8.826   9.298   4.495  0.5122 -0.3720 -0.0774
  318MOL0     O42803   8.902   9.240   4.593 -0.2083  0.5390 -0.3701
  318MOL0     C42804   8.979   9.331   4.674 -0.9063 -0.1487 -0.3501
  318MOL0     C42805   9.124   9.290   4.647 -0.6495 -0.6486 -0.7046
  318MOL0     C42806   9.227   9.326   4.764  0.3231 -0.6205  0.0264
  318MOL0     C42807   9.247   9.475   4.818  0.6322 -0.9561  0.0697
  318MOL0     C42808   9.381   9.538   4.793 -0.0249 -0.1819  0.2021
  318MOL0     C42809   9.368   9.690   4.805  1.0102  1.0661 -0.0803
  318MOL0     C42810   9.433   9.727   4.947  0.3517  0.9221  0.6063
  318MOL0     C42811   9.431   9.874   4.965 -0.7628 -0.5113  0.4689
  318MOL0     N42812   9.530   9.943   4.882  0.3955 -0.4627  0.7010
  318MOL0     C42813   9.504  10.061   4.823  0.6951 -0.1974 -0.1464
  318MOL0     C42814   9.607  10.091   4.744 -0.1720 -0.4405 -0.5016
  318MOL0     C42815   9.628  10.215   4.666  0.7789  0.5652 -0.3500
  318MOL0     C42816   9.771  10.235   4.617 -0.2820  0.5739 -0.1351
  318MOL0     C42817   9.785  10.387   4.589 -0.2664 -0.2687  0.0902
  318MOL0     C42818   9.815  10.468   4.714 -0.9143  0.7881  0.7262
  318MOL0     O42819   9.940  10.424   4.751 -0.0851  0.1248  0.1711
  318MOL0     C42820   9.999  10.505   4.848 -0.4260  0.3132  0.7471
  318MOL0     C42821   9.960  10.630   4.895  1.2836 -0.8499 -0.2044
  318MOL0     C42822  10.028  10.690   4.999 -0.7321 -0.3115  0.3134
  318MOL0     C42823  10.145  10.629   5.064  1.1125  0.0827 -0.1488
  318MOL0     C42824  10.210  10.686   5.178 -0.0799 -0.5902 -0.7031
  318MOL0     O42825  10.337  10.653   5.199 -0.7379  0.2108 -0.0152
  318MOL0     C42826  10.396  10.722   5.306 -0.5352  0.1536  0.1190
  318MOL0     C42827  10.388  10.666   5.435 -0.2585 -0.5244  0.2666
  318MOL0     C42828  10.483  10.700   5.525  0.6089 -0.0854  0.1932
  318MOL0     C42829  10.579  10.803   5.504 -1.3370  0.4221  0.3498
  318MOL0     O42830  10.683  10.835   5.594 -0.0225  0.2960  0.0412
  318MOL0     C42831  10.656  10.950   5.676  0.9949  0.1938  0.9677
  318MOL0     C42832  10.772  10.975   5.774  0.4144  1.0430  0.3851
  318MOL0     C42833  10.897  11.005   5.694 -0.3815 -0.1670 -0.0788
  318MOL0     C42834  11.005  11.032   5.792  0.4362  0.1154  0.7501
  318MOL0     C42835  11.147  11.037   5.753  0.5426  0.2479  0.1023
  318MOL0     C42836  11.241  11.034   5.878 -0.0408  0.3355 -0.1584
  318MOL0     C42837  11.385  11.027   5.840 -0.1315 -0.8062  0.2602
  318MOL0     C42838  11.467  11.042   5.968  0.1215  0.3686  0.5932
  318MOL0    Cl42839  11.516  11.206   6.013 -0.5218  0.0833  0.2090
  318MOL0     C42840  10.577  10.867   5.380  0.4991 -0.1516  0.3933
  318MOL0     C42841  10.484  10.825   5.279  0.0936  0.4476  0.7491
  318MOL0     O42842  10.133  10.765   5.244 -0.5134 -0.1264  0.9001
  318MOL0     C42843  10.187  10.503   5.009 -0.2469 -0.9885  0.4092
  318MOL0     C42844  10.118  10.446   4.904 -0.5120  0.4931 -0.2224
  318MOL0     N42845   9.709   9.995   4.776  0.1224  0.1413  0.0584
  318MOL0     N42846   9.663   9.906   4.854 -0.0023  0.6627  0.6451
  318MOL0     C42847   8.690   9.314   4.508  0.1334 -0.0702  0.4228
  318MOL0     C42848   8.621   9.357   4.397 -0.0190 -0.4854 -0.5200
  318MOL0     C42849   8.425   9.499   4.062  0.5968  0.4424 -0.7234
  318MOL0     C42850   8.482   9.606   3.998  0.7945 -0.1413 -0.4389
  318MOL0     C42851   8.409   9.707   3.940 -0.1467  0.3046 -0.1473
  318MOL0     C42852   8.270   9.706   3.953 -0.4425 -0.1019 -0.9544
  318MOL0     O42853   8.202   9.804   3.885  0.0669  0.4920  0.5075
  318MOL0     C42854   8.061   9.800   3.869  1.2277 -0.2149  0.4103
  318MOL0     C42855   7.998   9.923   3.798 -0.0193  0.3849 -0.3141
  318MOL0     C42856   8.060   9.962   3.667  0.3610 -0.5436  0.2501
  318MOL0     C42857   7.972  10.058   3.581  0.8074  0.0110  0.2913
  318MOL0     C42858   7.953  10.197   3.624 -0.3990  0.2221  0.1158
  318MOL0     C42859   7.950  10.309   3.661  0.7060 -0.5731 -0.2674
  318MOL0     C42860   8.215   9.602   4.026  0.2261 -0.1226 -0.0217
  318MOL0     C42861   8.288   9.499   4.076 -0.1020 -0.3082 -0.9251
  318MOL0     C42862   8.198   9.403   4.149  0.3628 -0.1622 -0.2163
  318MOL0     H42863   8.864   9.435   4.174  0.5818 -0.9243 -1.1619
  318MOL0     H42864   9.000   9.345   4.384 -0.1012 -0.2265  0.1347
  318MOL0     H42865   8.955   9.434   4.647  0.1259  0.0965 -0.3584
  318MOL0     H42866   8.955   9.313   4.779 -0.3536  1.1102  0.0084
  318MOL0     H42867   9.159   9.341   4.557 -2.0693 -0.9972 -1.4650
  318MOL0     H42868   9.117   9.182   4.635 -1.9580 -0.2678 -4.9305
  318MOL0     H42869   9.324   9.295   4.725  0.7980 -0.1385  0.7884
  318MOL0     H42870   9.193   9.262   4.846  0.3615 -0.5780  0.0760
  318MOL0     H42871   9.161   9.534   4.784  1.8718 -0.7646 -3.0652
  318MOL0     H42872   9.242   9.476   4.927  2.0567 -0.9675  0.1445
  318MOL0     H42873   9.458   9.487   4.852  0.6371 -0.6608 -1.0306
  318MOL0     H42874   9.402   9.517   4.688 -3.4407 -1.5140 -0.3549
  318MOL0     H42875   9.420   9.746   4.727 -1.0297  1.2335 -1.3968
  318MOL0     H42876   9.262   9.715   4.798 -0.0525 -2.0895  2.3698
  318MOL0     H42877   9.538   9.697   4.942  1.2448  3.5585 -5.6042
  318MOL0     H42878   9.392   9.672   5.032 -0.0148  0.3286  0.0578
  318MOL0     H42879   9.333   9.904   4.928 -0.3093 -1.6418 -1.7941
  318MOL0     H42880   9.441   9.882   5.074  0.5482 -0.2548  0.3535
  318MOL0     H42881   9.416  10.123   4.833  0.0418 -0.2671 -3.8407
  318MOL0     H42882   9.554  10.207   4.586  1.1544 -0.6911 -0.6028
  318MOL0     H42883   9.596  10.301   4.726 -3.2202 -0.0881 -1.2417
  318MOL0     H42884   9.848  10.189   4.680 -1.1405 -3.1651 -1.5775
  318MOL0     H42885   9.775  10.174   4.526 -1.6597 -2.7933  1.8862
  318MOL0     H42886   9.697  10.422   4.536 -0.0902  1.3470  0.8107
  318MOL0     H42887   9.870  10.394   4.520 -1.3405 -0.2937 -1.2726
  318MOL0     H42888   9.737  10.447   4.788 -3.9183 -1.5811 -2.6922
  318MOL0     H42889   9.804  10.575   4.695 -4.4350  0.7960  2.0590
  318MOL0     H42890   9.864  10.673   4.871  2.2097  1.7978  0.4800
  318MOL0     H42891   9.981  10.773   5.050 -1.5224  0.0823 -0.9963
  318MOL0     H42892  10.324  10.582   5.459  2.1566 -2.1391  1.5875
  318MOL0     H42893  10.475  10.652   5.622  2.3622  2.5950  1.7914
  318MOL0     H42894  10.643  11.041   5.617  2.8521 -0.1079  0.0388
  318MOL0     H42895  10.566  10.919   5.731  1.2179  0.4799  1.5028
  318MOL0     H42896  10.736  11.051   5.844  0.4675  0.2005  1.3580
  318MOL0     H42897  10.783  10.889   5.841  1.3191 -0.1734 -1.2487
  318MOL0     H42898  10.923  10.923   5.626 -1.0184 -1.7102  1.4505
  318MOL0     H42899  10.880  11.083   5.619  0.0834  0.9377  0.9467
  318MOL0     H42900  10.982  10.963   5.874 -2.7614 -0.2303 -0.2754
  318MOL0     H42901  10.986  11.127   5.841  2.4826  1.1791 -0.3843
  318MOL0     H42902  11.162  11.129   5.695  1.1801 -1.6108 -2.8595
  318MOL0     H42903  11.165  10.945   5.696  1.3217  0.3758  0.1212
  318MOL0     H42904  11.221  11.123   5.938 -3.4633  0.4191 -1.1887
  318MOL0     H42905  11.216  10.957   5.953  1.0978  1.2825  1.2462
  318MOL0     H42906  11.410  11.108   5.770 -0.9829 -2.6356 -2.2737
  318MOL0     H42907  11.417  10.941   5.780 -0.5841  0.6478 -2.2266
  318MOL0     H42908  11.404  11.001   6.048 -2.0579  0.5018 -0.9828
  318MOL0     H42909  11.563  10.991   5.957 -0.5455 -1.1435  1.4729
  318MOL0     H42910  10.653  10.940   5.357  1.3527 -1.0117  0.4166
  318MOL0     H42911  10.484  10.864   5.178  0.5289 -0.5155  0.3685
  318MOL0     H42912  10.276  10.460   5.054 -0.0406  1.7035  2.8768
  318MOL0     H42913  10.171  10.368   4.850  0.0492  1.0197 -0.4382
  318MOL0     H42914   8.653   9.277   4.603 -0.4848 -2.2735 -0.6171
  318MOL0     H42915   8.513   9.364   4.402 -0.1115 -0.3741 -2.0988
  318MOL0     H42916   8.590   9.612   3.999  0.7864  0.3364 -1.3200
  318MOL0     H42917   8.454   9.795   3.894 -0.2445  0.2295 -0.3904
  318MOL0     H42918   8.019   9.791   3.970 -2.8454 -0.5603 -1.1079
  318MOL0     H42919   8.043   9.714   3.803  3.9528 -0.3731 -0.2338
  318MOL0     H42920   7.988  10.011   3.863 -1.2215 -0.2751  0.4239
  318MOL0     H42921   7.894   9.894   3.782 -0.0890  1.3905 -1.8253
  318MOL0     H42922   8.073   9.863   3.621 -3.4821 -0.2746 -1.7415
  318MOL0     H42923   8.162  10.001   3.680  0.5397 -0.8272 -0.2580
  318MOL0     H42924   8.012  10.064   3.479  1.5172  1.8861  0.6482
  318MOL0     H42925   7.872  10.014   3.574  0.7432  0.4159 -4.7235
  318MOL0     H42926   7.951  10.415   3.678 -0.5127 -0.4031 -1.1493
  318MOL0     H42927   8.108   9.586   4.032  0.6391 -2.9043  1.9450
  318MOL0     H42928   8.132   9.346   4.084  1.5199 -2.8828  0.8494
  318MOL0     H42929   8.240   9.326   4.214 -0.2085 -2.2706 -2.2324
  318MOL0     H42930   8.138   9.467   4.215  1.8198 -0.8749  1.9357
  319MOL0     O42931   7.498   3.028   7.885  0.2419 -0.3573 -0.3860
  319MOL0     C42932   7.614   3.005   7.899  0.4750 -1.5074 -0.7538
  319MOL0     O42933   7.719   3.035   7.815 -0.5118  0.4451  0.0831
  319MOL0     C42934   7.689   3.109   7.700 -1.1143  0.9523  0.8024
  319MOL0     C42935   7.613   3.053   7.589  0.3322 -0.4656  0.4444
  319MOL0     C42936   7.597   3.123   7.469 -0.9695  0.1764  0.8585
  319MOL0     C42937   7.666   3.242   7.446  0.9146  0.8064  0.3786
  319MOL0     O42938   7.642   3.316   7.326  0.6327 -0.2310 -0.1728
  319MOL0     C42939   7.719   3.433   7.293  1.3780 -0.0579 -0.6866
  319MOL0     C42940   7.663   3.492   7.169 -0.5141 -0.3084  0.9929
  319MOL0     C42941   7.675   3.389   7.051  0.1010  0.5349 -0.1046
  319MOL0     C42942   7.605   3.452   6.929  0.1317 -0.4647  0.3116
  319MOL0     C42943   7.670   3.575   6.876 -0.1453  0.1885  0.0220
  319MOL0     C42944   7.592   3.629   6.748 -0.3630 -0.2822  0.0595
  319MOL0     C42945   7.668   3.731   6.678 -0.0729 -0.7845 -0.0864
  319MOL0     C42946   7.685   3.859   6.763  0.5625 -0.6511 -0.0616
  319MOL0     N42947   7.563   3.945   6.772 -1.3058 -0.1989  0.1257
  319MOL0     C42948   7.485   3.975   6.878  0.3599 -0.6298 -0.7356
  319MOL0     C42949   7.367   4.020   6.821 -0.6890 -0.9745 -0.2574
  319MOL0     C42950   7.252   4.062   6.917  0.7408  0.1577  0.7198
  319MOL0     C42951   7.153   3.955   6.939  0.4058 -0.3262  0.2989
  319MOL0     C42952   7.213   3.836   7.027  1.0812  0.6497  0.5001
  319MOL0     C42953   7.121   3.716   7.023 -0.1927 -0.3243  0.0337
  319MOL0     O42954   6.983   3.744   7.060 -0.4448 -0.1719  0.0648
  319MOL0     C42955   6.905   3.637   7.096  0.7616  0.1388  0.3527
  319MOL0     C42956   6.786   3.668   7.154  0.0500 -0.3776  0.0191
  319MOL0     C42957   6.700   3.566   7.201  0.5767  0.5054  0.0908
  319MOL0     C42958   6.733   3.430   7.184 -0.5686  0.3971  0.1323
  319MOL0     C42959   6.640   3.328   7.235  0.0392  0.5563  0.1004
  319MOL0     O42960   6.676   3.198   7.206  0.7650  0.2384  0.1224
  319MOL0     C42961   6.614   3.089   7.269 -0.9902 -0.1433 -0.3613
  319MOL0     C42962   6.552   2.998   7.189  0.4960  0.0361 -1.0952
  319MOL0     C42963   6.504   2.878   7.236 -0.1142  0.1996 -0.1741
  319MOL0     C42964   6.524   2.844   7.375 -0.0369  0.1125  0.1514
  319MOL0     O42965   6.485   2.725   7.427  0.5103 -0.2759 -0.5480
  319MOL0     C42966   6.560   2.675   7.550 -0.1781 -0.3933 -0.2227
  319MOL0     C42967   6.617   2.535   7.511 -0.3814  0.7927 -0.1059
  319MOL0     C42968   6.653   2.433   7.632  0.4595 -0.0799 -0.2219
  319MOL0     C42969   6.720   2.316   7.578 -0.1647 -0.0855  0.2241
  319MOL0     C42970   6.776   2.217   7.683 -0.8399 -0.0668 -0.2584
  319MOL0     C42971   6.885   2.267   7.788  0.7077 -0.4382  0.5619
  319MOL0     C42972   6.977   2.148   7.827  1.0410  0.3339 -0.2300
  319MOL0     C42973   7.102   2.192   7.899 -0.4228  0.8256 -0.7453
  319MOL0    Cl42974   7.208   2.280   7.778  0.4073  0.0488 -0.5874
  319MOL0     C42975   6.583   2.943   7.457  0.6285 -0.4324  0.4329
  319MOL0     C42976   6.641   3.062   7.404 -0.6587  0.1327 -0.0322
  319MOL0     O42977   6.546   3.358   7.311  0.6557  0.3662 -0.2673
  319MOL0     C42978   6.850   3.397   7.123  0.0052  0.7418 -0.1569
  319MOL0     C42979   6.932   3.502   7.075 -0.2191  0.6901 -1.0709
  319MOL0     N42980   7.373   4.017   6.684 -0.8784  0.4713 -0.9946
  319MOL0     N42981   7.488   3.972   6.658 -0.0222  0.5117  0.2053
  319MOL0     C42982   7.743   3.294   7.551  0.1187  0.8844 -0.4437
  319MOL0     C42983   7.761   3.223   7.668 -0.3518 -0.0325 -1.2800
  319MOL0     C42984   7.628   2.928   8.023 -0.5576  0.4122  0.1346
  319MOL0     C42985   7.753   2.851   8.038 -0.5939  0.6084  0.3380
  319MOL0     C42986   7.788   2.779   8.155 -0.3071 -0.2049  0.4288
  319MOL0     C42987   7.697   2.774   8.258 -0.0199 -0.8467  0.6948
  319MOL0     O42988   7.714   2.692   8.369 -0.0607  0.3681 -0.4930
  319MOL0     C42989   7.841   2.617   8.382 -0.9477 -0.3002  0.2067
  319MOL0     C42990   7.849   2.572   8.526 -0.4230 -0.1186 -0.7007
  319MOL0     C42991   7.897   2.427   8.544  0.0197  0.4434 -0.4548
  319MOL0     C42992   7.833   2.308   8.479  0.3684 -0.5023 -0.1912
  319MOL0     C42993   7.692   2.309   8.519  0.0633 -0.3936 -0.3561
  319MOL0     C42994   7.570   2.292   8.543 -0.2760  0.1164 -0.0944
  319MOL0     C42995   7.576   2.845   8.249  0.2264 -0.2962 -0.8255
  319MOL0     C42996   7.540   2.914   8.132  0.6484 -0.4130  0.2320
  319MOL0     C42997   7.412   2.987   8.144 -0.1220 -1.0147 -0.4006
  319MOL0     H42998   7.574   2.956   7.617  1.9167 -0.8203  1.5961
  319MOL0     H42999   7.529   3.100   7.388  0.1798  2.9356 -1.0469
  319MOL0     H43000   7.706   3.501   7.378 -2.1673  1.3354 -2.1518
  319MOL0     H43001   7.819   3.394   7.273  0.7128 -1.0263 -2.2483
  319MOL0     H43002   7.717   3.584   7.145 -4.8580  1.2349 -5.3816
  319MOL0     H43003   7.560   3.524   7.190  0.1804  0.3876  3.8846
  319MOL0     H43004   7.630   3.293   7.077 -1.4195  1.5221  1.1067
  319MOL0     H43005   7.782   3.376   7.029 -0.1081 -2.6100  0.3124
  319MOL0     H43006   7.609   3.384   6.844  1.4262 -1.5981  1.2307
  319MOL0     H43007   7.501   3.468   6.956  0.5707  1.0909  1.1879
  319MOL0     H43008   7.673   3.645   6.960  2.1920  2.9474 -2.1208
  319MOL0     H43009   7.770   3.536   6.851 -0.4137  1.5806 -4.0161
  319MOL0     H43010   7.572   3.557   6.668 -2.7521  0.8027 -0.4098
  319MOL0     H43011   7.491   3.662   6.774 -0.0994  0.1641  0.5496
  319MOL0     H43012   7.631   3.758   6.578  2.5953 -1.6632 -1.4141
  319MOL0     H43013   7.772   3.700   6.667  0.4128  0.5472  0.5765
  319MOL0     H43014   7.741   3.853   6.857  3.4831 -3.4467 -1.7791
  319MOL0     H43015   7.749   3.911   6.691 -1.5274  0.7256 -1.0275
  319MOL0     H43016   7.514   3.955   6.981  1.8444 -2.2852 -1.4225
  319MOL0     H43017   7.287   4.099   7.014 -0.3434  1.4490  0.6401
  319MOL0     H43018   7.207   4.149   6.869  0.5154  0.4592  1.4738
  319MOL0     H43019   7.063   3.982   6.994  0.5286 -1.3312  1.0197
  319MOL0     H43020   7.120   3.917   6.842  0.6444  3.5191 -1.5049
  319MOL0     H43021   7.207   3.872   7.130  1.0711  3.3490 -0.3687
  319MOL0     H43022   7.314   3.814   6.991  1.2757  2.4069 -0.1199
  319MOL0     H43023   7.167   3.640   7.088 -2.0723 -1.0374  0.5997
  319MOL0     H43024   7.120   3.674   6.922  3.9618 -0.8659  0.0194
  319MOL0     H43025   6.756   3.770   7.176  3.3642  0.4317  1.4083
  319MOL0     H43026   6.607   3.591   7.250 -0.2064  0.1423 -1.1780
  319MOL0     H43027   6.565   3.025   7.085  2.7285  2.0857 -0.3633
  319MOL0     H43028   6.463   2.801   7.172  0.7843  0.2147 -0.8012
  319MOL0     H43029   6.649   2.733   7.575 -0.0103 -1.2568  1.3286
  319MOL0     H43030   6.494   2.669   7.637 -0.5404  0.7350 -0.4036
  319MOL0     H43031   6.551   2.483   7.441  1.7861 -3.7375  0.9092
  319MOL0     H43032   6.711   2.555   7.459  1.7329  0.6504  3.3511
  319MOL0     H43033   6.712   2.483   7.710 -0.6443  1.7852 -0.5009
  319MOL0     H43034   6.555   2.421   7.681 -0.1759 -2.1243 -1.8890
  319MOL0     H43035   6.800   2.361   7.519 -0.0236  0.8325  1.0823
  319MOL0     H43036   6.651   2.266   7.510 -0.7608  3.8291 -2.4145
  319MOL0     H43037   6.825   2.136   7.629 -2.8557 -1.1062 -0.5994
  319MOL0     H43038   6.690   2.172   7.732 -0.4471 -1.7726 -1.0595
  319MOL0     H43039   6.932   2.357   7.749  2.6511 -1.0719  1.3048
  319MOL0     H43040   6.837   2.291   7.884  3.0488 -3.1288  2.5662
  319MOL0     H43041   7.005   2.087   7.741  2.0773 -1.2234  1.1431
  319MOL0     H43042   6.916   2.081   7.889 -1.0351  0.1261 -2.3764
  319MOL0     H43043   7.074   2.272   7.967  1.1825  0.4362  0.4398
  319MOL0     H43044   7.150   2.112   7.956 -0.2202  0.8749 -0.8468
  319MOL0     H43045   6.609   2.932   7.562 -2.3923  0.3781  1.3630
  319MOL0     H43046   6.688   3.133   7.472 -0.2946 -1.6106  1.6358
  319MOL0     H43047   6.863   3.289   7.118 -1.7567  0.3867  1.6479
  319MOL0     H43048   7.009   3.478   7.002  0.2791  2.0388 -1.0193
  319MOL0     H43049   7.805   3.382   7.543  3.3707 -1.3000 -1.4312
  319MOL0     H43050   7.822   3.261   7.750 -1.3878  1.4455 -1.1519
  319MOL0     H43051   7.822   2.843   7.955 -1.2546 -1.5935 -0.0552
  319MOL0     H43052   7.886   2.731   8.154 -0.9508 -1.6498 -2.0406
  319MOL0     H43053   7.927   2.676   8.348 -2.4804  2.5696  0.9096
  319MOL0     H43054   7.831   2.531   8.316 -2.1889  0.0506 -0.1103
  319MOL0     H43055   7.756   2.574   8.583  0.8717 -2.9702  1.7336
  319MOL0     H43056   7.915   2.647   8.571  0.4761  1.0247 -3.6529
  319MOL0     H43057   7.915   2.410   8.650  0.9505 -0.2261 -0.7081
  319MOL0     H43058   7.994   2.433   8.493 -0.2817 -0.0808 -1.1094
  319MOL0     H43059   7.829   2.319   8.370  2.2346 -0.7038 -0.2980
  319MOL0     H43060   7.884   2.216   8.507  1.6809  0.8704  2.2697
  319MOL0     H43061   7.464   2.287   8.557 -0.3843  1.6502 -0.1327
  319MOL0     H43062   7.505   2.849   8.331  0.7594  0.3255 -0.3924
  319MOL0     H43063   7.353   2.972   8.235 -2.0026  3.6521 -0.5581
  319MOL0     H43064   7.431   3.093   8.123  1.8450 -1.4853 -1.2015
  319MOL0     H43065   7.335   2.950   8.075  2.5979 -2.2437 -3.0328
  320MOL0     O43066  10.097   6.472   5.155  0.3655 -0.6769 -0.0182
  320MOL0     C43067   9.986   6.498   5.219  0.1888 -0.1155 -0.6833
  320MOL0     O43068   9.976   6.594   5.317 -0.3882  0.1956 -0.3641
  320MOL0     C43069  10.085   6.655   5.368  0.1916 -1.1381  0.3269
  320MOL0     C43070  10.074   6.785   5.409  0.0682 -0.3586 -0.2973
  320MOL0     C43071  10.182   6.860   5.447  0.4829  0.1040  0.6335
  320MOL0     C43072  10.295   6.796   5.498 -0.1866 -0.2291  0.2874
  320MOL0     O43073  10.399   6.865   5.559  0.4554 -0.1588  0.4405
  320MOL0     C43074  10.464   6.949   5.465  0.3258  0.9030 -0.7344
  320MOL0     C43075  10.572   6.870   5.390 -0.1529 -0.0137 -0.8649
  320MOL0     C43076  10.690   6.833   5.478 -0.1402  0.5595 -0.2595
  320MOL0     C43077  10.804   6.777   5.395 -0.2837 -0.4402  0.4646
  320MOL0     C43078  10.905   6.719   5.488  0.6274 -0.6280  0.1857
  320MOL0     C43079  11.011   6.645   5.405 -0.4949 -0.0183 -0.2706
  320MOL0     C43080  11.138   6.606   5.496 -0.0203 -0.6340  0.1242
  320MOL0     C43081  11.255   6.554   5.408 -0.5057 -0.2589 -0.1513
  320MOL0     N43082  11.259   6.405   5.384 -1.0418  0.3939  0.7656
  320MOL0     C43083  11.297   6.318   5.485  0.1705 -0.0715 -0.2995
  320MOL0     C43084  11.314   6.199   5.431  0.5385  0.2701  1.0149
  320MOL0     C43085  11.363   6.068   5.495 -0.3437 -0.0242  1.0708
  320MOL0     C43086  11.516   6.067   5.515 -0.1473  0.6741  0.9206
  320MOL0     C43087  11.567   5.950   5.601  0.4725  0.5218 -0.9065
  320MOL0     C43088  11.548   5.998   5.747 -1.8922 -0.6465  0.1187
  320MOL0     O43089  11.532   5.876   5.814  0.5145  0.1717  0.8200
  320MOL0     C43090  11.500   5.868   5.944  0.4808 -0.1226  0.4700
  320MOL0     C43091  11.496   5.744   6.009 -0.8250  0.1582 -0.0370
  320MOL0     C43092  11.481   5.727   6.146  0.6632  0.1954 -0.1236
  320MOL0     C43093  11.449   5.838   6.226  0.1638  0.7528  0.4536
  320MOL0     C43094  11.426   5.820   6.368  0.1059  0.6137 -0.1894
  320MOL0     O43095  11.408   5.934   6.438 -0.3304 -0.9104 -0.2152
  320MOL0     C43096  11.393   5.935   6.580  0.3052  0.3507  0.3775
  320MOL0     C43097  11.270   5.889   6.637 -0.4473  1.2348 -0.3422
  320MOL0     C43098  11.250   5.875   6.773  0.2177  0.4030  0.4370
  320MOL0     C43099  11.349   5.927   6.858 -0.1838  1.0913 -0.1711
  320MOL0     O43100  11.342   5.922   6.999 -0.6819 -1.0078 -0.0796
  320MOL0     C43101  11.254   5.827   7.066 -0.0839  0.2718  0.6229
  320MOL0     C43102  11.293   5.796   7.209 -0.6308 -0.3563  0.2042
  320MOL0     C43103  11.324   5.931   7.273 -1.0218 -0.6777 -0.2858
  320MOL0     C43104  11.295   5.942   7.426 -0.5427  0.2387  0.0945
  320MOL0     C43105  11.372   6.056   7.500  0.1985  0.2180  0.2247
  320MOL0     C43106  11.420   6.017   7.629 -0.2775 -0.3805  0.3058
  320MOL0     C43107  11.554   5.948   7.614 -1.4234  0.3237 -0.3528
  320MOL0     C43108  11.627   5.918   7.740 -0.0020  0.4272  0.3873
  320MOL0    Cl43109  11.586   5.763   7.833  0.0583  0.7069  0.2389
  320MOL0     C43110  11.465   5.973   6.800 -0.4149 -0.4008  0.6290
  320MOL0     C43111  11.491   5.989   6.667 -0.3177  0.4940  0.5978
  320MOL0     O43112  11.402   5.709   6.414 -0.2359 -0.1891 -0.4248
  320MOL0     C43113  11.443   5.959   6.158 -0.6111 -0.9045  0.4206
  320MOL0     C43114  11.475   5.979   6.022  0.1739  0.2333  0.1777
  320MOL0     N43115  11.262   6.207   5.304 -0.9202  0.0867 -0.8898
  320MOL0     N43116  11.239   6.331   5.273 -0.6990  0.6492 -0.5240
  320MOL0     C43117  10.307   6.661   5.474 -1.4044 -0.5265 -0.1089
  320MOL0     C43118  10.207   6.591   5.406 -0.3753 -1.0263  0.2030
  320MOL0     C43119   9.862   6.443   5.168  0.2884 -0.1246 -0.0740
  320MOL0     C43120   9.742   6.458   5.249 -0.5390  0.5393  0.4818
  320MOL0     C43121   9.611   6.424   5.207 -0.9485  0.4090 -0.3581
  320MOL0     C43122   9.599   6.345   5.090 -0.6492 -0.9941 -0.4176
  320MOL0     O43123   9.488   6.277   5.060  0.0689  0.1421  0.7437
  320MOL0     C43124   9.363   6.325   5.108 -0.7542 -0.1541 -0.5967
  320MOL0     C43125   9.244   6.275   5.023 -0.0668 -0.6177  0.3230
  320MOL0     C43126   9.292   6.176   4.915 -0.8824 -0.1265 -0.8172
  320MOL0     C43127   9.184   6.147   4.810 -0.0257 -0.6800  0.4988
  320MOL0     C43128   9.123   6.269   4.742  0.2107 -0.5174  0.0030
  320MOL0     C43129   9.066   6.368   4.692 -0.0553  1.3412 -0.0096
  320MOL0     C43130   9.713   6.314   5.018  0.4147  0.3259  0.5692
  320MOL0     C43131   9.847   6.364   5.050  0.0415 -0.1482 -0.0345
  320MOL0     C43132   9.963   6.327   4.951  0.1491  1.2149 -0.6466
  320MOL0     H43133   9.974   6.825   5.390  0.3014  0.3469 -0.0840
  320MOL0     H43134  10.184   6.968   5.459  0.9572  0.0470  1.1282
  320MOL0     H43135  10.392   6.982   5.389 -2.6226  0.1357  1.5348
  320MOL0     H43136  10.492   7.049   5.499  1.3721  1.6720 -3.5493
  320MOL0     H43137  10.607   6.921   5.300  2.6722  2.7447  1.5520
  320MOL0     H43138  10.527   6.777   5.355 -1.1466  1.3933 -3.6677
  320MOL0     H43139  10.659   6.765   5.557  0.6474  1.1232  0.5560
  320MOL0     H43140  10.729   6.913   5.541 -3.2394  0.1633  2.4320
  320MOL0     H43141  10.765   6.698   5.329 -1.5828 -1.5901  2.5025
  320MOL0     H43142  10.851   6.858   5.338  0.2910 -1.6923 -0.9038
  320MOL0     H43143  10.948   6.787   5.562  2.9899 -3.1425  1.2999
  320MOL0     H43144  10.866   6.640   5.554  0.4438 -0.7561 -0.0707
  320MOL0     H43145  10.952   6.564   5.362  0.2185 -1.5440  1.5050
  320MOL0     H43146  11.043   6.721   5.333  1.7903 -1.9728 -1.4664
  320MOL0     H43147  11.105   6.538   5.575  0.6356 -0.4187  0.5907
  320MOL0     H43148  11.178   6.699   5.537  0.3445 -0.4433 -0.6395
  320MOL0     H43149  11.245   6.606   5.312  0.2440 -0.2005 -0.2024
  320MOL0     H43150  11.354   6.564   5.453  0.3179 -2.3765 -1.3955
  320MOL0     H43151  11.325   6.335   5.589  1.7601  0.9395 -0.8586
  320MOL0     H43152  11.328   6.078   5.598  2.3129  0.1957  2.0287
  320MOL0     H43153  11.335   5.976   5.443  0.6420  0.3612 -0.1729
  320MOL0     H43154  11.575   6.053   5.424  2.4294 -3.2337  2.9287
  320MOL0     H43155  11.555   6.161   5.556 -0.2073  0.6330  1.0747
  320MOL0     H43156  11.673   5.929   5.583  0.3063  0.3028 -1.6937
  320MOL0     H43157  11.510   5.857   5.587 -0.3544  0.8461  0.1861
  320MOL0     H43158  11.453   6.050   5.760 -1.8648 -0.5782  0.0378
  320MOL0     H43159  11.640   6.041   5.789 -1.1292 -0.5305 -1.5958
  320MOL0     H43160  11.521   5.650   5.959  2.0953 -0.5154  2.4091
  320MOL0     H43161  11.488   5.629   6.194 -1.4910  0.2959  0.5297
  320MOL0     H43162  11.184   5.848   6.586 -0.2032 -0.3585  0.4704
  320MOL0     H43163  11.152   5.841   6.804 -0.5305  2.1313  0.1099
  320MOL0     H43164  11.151   5.861   7.051  0.5754  0.9500 -3.9962
  320MOL0     H43165  11.273   5.739   7.004  1.2828  0.1913  1.1213
  320MOL0     H43166  11.219   5.732   7.260  0.7648 -2.2307 -0.0063
  320MOL0     H43167  11.383   5.734   7.221 -1.4414 -1.3704  1.3324
  320MOL0     H43168  11.431   5.948   7.258 -1.3454  1.6728 -0.3876
  320MOL0     H43169  11.284   6.017   7.218  0.5335  0.7846  0.7617
  320MOL0     H43170  11.337   5.849   7.465  0.8438  1.1337  0.8295
  320MOL0     H43171  11.187   5.943   7.443 -1.0491  1.1261 -2.6270
  320MOL0     H43172  11.317   6.150   7.513 -1.2220 -0.5961  0.1677
  320MOL0     H43173  11.460   6.087   7.442 -0.5495 -0.6926 -1.4526
  320MOL0     H43174  11.426   6.109   7.688 -1.1637  0.1634 -0.4272
  320MOL0     H43175  11.345   5.959   7.683 -0.3031  2.1460  3.3022
  320MOL0     H43176  11.614   6.009   7.546  2.2064 -1.0529  1.3422
  320MOL0     H43177  11.546   5.850   7.565  1.7905 -0.0411 -0.4133
  320MOL0     H43178  11.734   5.931   7.722 -0.1962  1.1365 -0.3133
  320MOL0     H43179  11.604   6.001   7.808 -2.6653 -0.5707  0.8410
  320MOL0     H43180  11.556   6.002   6.852 -1.0548  1.9673  0.5802
  320MOL0     H43181  11.581   6.037   6.629 -0.7599 -0.3632 -1.6926
  320MOL0     H43182  11.420   6.054   6.206 -0.2793  0.6268 -2.2462
  320MOL0     H43183  11.463   6.074   5.971  0.7559 -0.7734 -1.9717
  320MOL0     H43184  10.396   6.606   5.504  1.1533 -0.1136 -5.6838
  320MOL0     H43185  10.232   6.489   5.378  1.4784 -0.1628 -1.5808
  320MOL0     H43186   9.742   6.498   5.349 -3.9767  0.7623  0.5328
  320MOL0     H43187   9.526   6.447   5.271  0.2422  0.7132  1.1943
  320MOL0     H43188   9.372   6.434   5.113  2.5525 -0.1940 -2.4746
  320MOL0     H43189   9.365   6.282   5.208  1.3996  0.7704 -0.1751
  320MOL0     H43190   9.195   6.360   4.974  0.3281 -0.9128 -0.5944
  320MOL0     H43191   9.168   6.235   5.091 -0.3143 -2.2144 -0.8511
  320MOL0     H43192   9.314   6.084   4.971 -0.7395 -3.1464 -5.3116
  320MOL0     H43193   9.388   6.205   4.871 -0.6730 -0.0847 -0.3357
  320MOL0     H43194   9.219   6.076   4.734  0.6234  0.5385 -0.3846
  320MOL0     H43195   9.098   6.099   4.857  0.1735  1.1722  2.9562
  320MOL0     H43196   8.999   6.434   4.640 -2.7563 -1.3400 -0.1980
  320MOL0     H43197   9.696   6.254   4.929 -1.1689  1.4020  0.0907
  320MOL0     H43198   9.933   6.281   4.856  1.0989 -1.4678  0.2753
  320MOL0     H43199  10.024   6.412   4.921  1.7032  0.0437 -0.8981
  320MOL0     H43200  10.035   6.268   5.008 -0.1750  1.4742  0.0449
  321MOL0     O43201   1.176   0.192   1.245  0.0793 -0.8730  0.9375
  321MOL0     C43202   1.169   0.254   1.348  0.1001 -0.5968  0.3093
  321MOL0     O43203   1.196   0.388   1.367 -0.8552  0.5129 -0.0716
  321MOL0     C43204   1.254   0.460   1.254 -1.1472 -0.5116 -0.1372
  321MOL0     C43205   1.397   0.464   1.239 -0.1093  0.9152  0.0270
  321MOL0     C43206   1.459   0.541   1.136 -0.5106 -0.3566 -0.9554
  321MOL0     C43207   1.385   0.605   1.050  0.2118 -0.0578  0.2733
  321MOL0     O43208   1.460   0.674   0.959 -0.3816  0.3854  0.5405
  321MOL0     C43209   1.422   0.812   0.949  0.5412 -0.9247 -0.8133
  321MOL0     C43210   1.482   0.905   1.073  0.2909 -0.7191  0.2086
  321MOL0     C43211   1.633   0.886   1.117  0.1005  0.2531  0.2294
  321MOL0     C43212   1.686   0.992   1.201  0.0992  0.5591 -0.2377
  321MOL0     C43213   1.647   0.971   1.348  0.0734 -0.1215  0.3622
  321MOL0     C43214   1.684   1.103   1.422  0.6032 -0.0067  0.1600
  321MOL0     C43215   1.652   1.080   1.573  0.6381  0.4262  0.2033
  321MOL0     C43216   1.678   1.209   1.654 -0.2635 -0.1929  1.0115
  321MOL0     N43217   1.602   1.326   1.608  0.3235  0.1459 -0.6005
  321MOL0     C43218   1.489   1.360   1.674  0.5910 -0.1678 -0.1303
  321MOL0     C43219   1.455   1.480   1.616  0.7466  0.0580 -0.4561
  321MOL0     C43220   1.359   1.583   1.664  0.3931  0.4145  0.0561
  321MOL0     C43221   1.211   1.541   1.689 -0.0697 -0.3779  0.8323
  321MOL0     C43222   1.134   1.666   1.724 -0.2176  0.9693 -0.5548
  321MOL0     C43223   1.012   1.623   1.797 -0.8272  0.5115  0.0556
  321MOL0     O43224   1.045   1.562   1.926 -0.0302 -0.2885  0.1817
  321MOL0     C43225   0.944   1.533   2.012 -0.2726 -0.1017 -0.0248
  321MOL0     C43226   0.815   1.549   1.991 -0.2214  0.7368 -0.1791
  321MOL0     C43227   0.721   1.489   2.073 -0.0375 -0.3092  0.2047
  321MOL0     C43228   0.765   1.418   2.189  0.5142  0.3411 -0.1244
  321MOL0     C43229   0.670   1.352   2.278 -0.5125 -0.2024 -0.4713
  321MOL0     O43230   0.550   1.324   2.224  0.0107 -0.5670 -0.2877
  321MOL0     C43231   0.446   1.301   2.307 -0.8563  0.2414 -0.0894
  321MOL0     C43232   0.450   1.207   2.422 -0.0981  0.0101  0.4623
  321MOL0     C43233   0.337   1.203   2.506 -0.1643  0.3820  0.2017
  321MOL0     C43234   0.234   1.290   2.497  0.8319 -1.3394  0.3931
  321MOL0     O43235   0.133   1.302   2.594 -0.6631 -0.2119 -0.3324
  321MOL0     C43236   0.043   1.201   2.618  0.0899 -0.1028 -0.3273
  321MOL0     C43237  -0.089   1.270   2.653 -0.5598 -0.0723 -0.8029
  321MOL0     C43238  -0.204   1.170   2.662 -0.5709  0.4693 -0.2193
  321MOL0     C43239  -0.291   1.199   2.781  0.9704  0.6098  1.2788
  321MOL0     C43240  -0.425   1.128   2.771  0.7900  0.4244 -0.3721
  321MOL0     C43241  -0.416   1.011   2.873  0.4533  0.4098  0.0865
  321MOL0     C43242  -0.569   0.954   2.882 -0.2982  0.6472  0.6045
  321MOL0     C43243  -0.570   0.798   2.849 -0.1380  0.0685 -0.3615
  321MOL0    Cl43244  -0.728   0.750   2.793 -0.2182  0.3574 -0.2620
  321MOL0     C43245   0.228   1.382   2.387 -0.2510 -0.1435 -0.4174
  321MOL0     C43246   0.332   1.384   2.291  0.2280  0.0851 -0.2127
  321MOL0     O43247   0.710   1.325   2.387  0.5872 -0.1355 -0.1770
  321MOL0     C43248   0.906   1.403   2.205 -0.7232  0.2442 -0.4361
  321MOL0     C43249   0.990   1.466   2.122 -0.4038  0.3305  0.1012
  321MOL0     N43250   1.551   1.505   1.521 -0.0124 -0.1203  0.6592
  321MOL0     N43251   1.638   1.416   1.514  0.4345 -0.1561  0.3294
  321MOL0     C43252   1.244   0.594   1.053  0.0030 -0.4777  0.7590
  321MOL0     C43253   1.175   0.525   1.158  0.1865 -0.2547 -0.8188
  321MOL0     C43254   1.113   0.187   1.468  0.3176 -1.2425 -0.3120
  321MOL0     C43255   1.169   0.069   1.515 -0.5034  0.7836 -0.1442
  321MOL0     C43256   1.127   0.008   1.637  0.7761  0.4681  0.6348
  321MOL0     C43257   1.020   0.062   1.707 -0.0642 -0.4991 -0.2158
  321MOL0     O43258   0.980  -0.003   1.821  0.6501 -0.1111  0.3343
  321MOL0     C43259   0.843   0.004   1.849  0.1301  0.4978 -0.7175
  321MOL0     C43260   0.809  -0.114   1.949  1.7532 -0.4240  1.0646
  321MOL0     C43261   0.798  -0.251   1.876 -0.4921  1.1193 -1.4724
  321MOL0     C43262   0.867  -0.366   1.952  0.5636  0.1039  0.0924
  321MOL0     C43263   1.008  -0.348   1.951 -0.3259 -0.5698 -0.0347
  321MOL0     C43264   1.118  -0.309   1.932 -0.3327  0.5005 -0.6553
  321MOL0     C43265   0.966   0.190   1.666 -0.3578  0.7168  0.0176
  321MOL0     C43266   1.012   0.245   1.549  0.3895 -0.7707  0.9733
  321MOL0     C43267   0.948   0.376   1.516  0.2669  0.0014 -0.1289
  321MOL0     H43268   1.451   0.415   1.320 -3.0611  1.4475  2.5364
  321MOL0     H43269   1.566   0.558   1.138 -0.1106 -2.0408  3.8369
  321MOL0     H43270   1.464   0.838   0.852 -4.2391 -2.3496 -3.5837
  321MOL0     H43271   1.314   0.828   0.943  0.4451 -1.4427 -0.5826
  321MOL0     H43272   1.423   0.890   1.163  1.7519 -3.3888  0.8161
  321MOL0     H43273   1.475   1.010   1.044  0.4626 -0.6215  0.5218
  321MOL0     H43274   1.705   0.886   1.034 -0.4388  1.7869 -0.2751
  321MOL0     H43275   1.638   0.793   1.174 -2.9445 -0.6548 -0.7732
  321MOL0     H43276   1.795   0.998   1.205  0.7213 -5.4244  1.3538
  321MOL0     H43277   1.638   1.078   1.154 -0.0376 -1.6142 -4.5627
  321MOL0     H43278   1.540   0.949   1.354  0.5755 -3.6405 -1.1518
  321MOL0     H43279   1.695   0.879   1.382  0.5372  0.3972  1.1549
  321MOL0     H43280   1.791   1.116   1.408  0.2534  4.1360  0.0969
  321MOL0     H43281   1.637   1.193   1.381  1.2255 -0.2049 -1.0225
  321MOL0     H43282   1.708   0.992   1.604  0.6300 -1.1070 -3.6044
  321MOL0     H43283   1.550   1.047   1.596  1.7207 -2.7472  0.9212
  321MOL0     H43284   1.643   1.183   1.755  2.8475  0.9522  2.5061
  321MOL0     H43285   1.786   1.221   1.661  0.3367 -2.8517 -1.5385
  321MOL0     H43286   1.466   1.314   1.770  2.3621 -1.4007 -0.2441
  321MOL0     H43287   1.394   1.624   1.759 -0.5160 -1.7600  1.4066
  321MOL0     H43288   1.354   1.651   1.578 -1.7991  0.1116 -0.1136
  321MOL0     H43289   1.184   1.482   1.601  2.1273 -0.0082 -0.1405
  321MOL0     H43290   1.216   1.476   1.777 -1.7626 -1.2719  0.3239
  321MOL0     H43291   1.118   1.711   1.626 -3.3040 -4.3225 -2.9853
  321MOL0     H43292   1.184   1.721   1.803 -0.8961  0.8980 -0.0645
  321MOL0     H43293   0.958   1.554   1.731 -4.5442  2.6636  0.5862
  321MOL0     H43294   0.956   1.714   1.819  2.5930  1.9672  4.0968
  321MOL0     H43295   0.788   1.585   1.892 -0.7371 -0.5397 -0.5143
  321MOL0     H43296   0.615   1.500   2.052  0.4343  1.3152 -1.5350
  321MOL0     H43297   0.522   1.128   2.441 -1.9682 -1.5577  1.4314
  321MOL0     H43298   0.338   1.137   2.591 -2.3490  1.1020  0.8417
  321MOL0     H43299   0.015   1.136   2.535 -0.8043 -0.7833  0.4901
  321MOL0     H43300   0.077   1.134   2.697 -1.6926 -1.3019 -0.5309
  321MOL0     H43301  -0.077   1.338   2.738  1.5453  1.3707 -2.1578
  321MOL0     H43302  -0.114   1.345   2.577 -0.4526  3.3821  2.3026
  321MOL0     H43303  -0.255   1.180   2.566  1.5795  3.9860 -1.1778
  321MOL0     H43304  -0.162   1.069   2.669  0.2025  0.8184  0.3507
  321MOL0     H43305  -0.315   1.306   2.778 -1.0710  0.1661 -0.4007
  321MOL0     H43306  -0.240   1.185   2.876 -0.6898  1.0974  2.2823
  321MOL0     H43307  -0.447   1.104   2.667  0.2430 -0.7964  0.0063
  321MOL0     H43308  -0.500   1.199   2.807  0.6604 -0.2244  0.6970
  321MOL0     H43309  -0.356   0.932   2.827 -0.7259 -1.3104  1.3783
  321MOL0     H43310  -0.365   1.029   2.968  1.1611 -0.8782 -0.0278
  321MOL0     H43311  -0.634   0.986   2.800  0.1675  2.0063  0.7470
  321MOL0     H43312  -0.610   0.977   2.980  2.9265  1.2194  1.9504
  321MOL0     H43313  -0.498   0.759   2.777  2.2150  2.3291  0.6003
  321MOL0     H43314  -0.532   0.747   2.938 -0.5002 -0.0862 -0.2946
  321MOL0     H43315   0.146   1.452   2.380 -0.9492 -0.8226  0.5743
  321MOL0     H43316   0.322   1.444   2.201  0.6539  0.5140  0.0252
  321MOL0     H43317   0.942   1.354   2.294  1.5887  1.5816 -0.5327
  321MOL0     H43318   1.095   1.444   2.139 -0.9827 -1.3528  1.9495
  321MOL0     H43319   1.181   0.645   0.981 -1.3526 -2.4395  0.4705
  321MOL0     H43320   1.067   0.534   1.159  0.3602  3.7423  0.6824
  321MOL0     H43321   1.245   0.020   1.456  0.9766  3.3084 -0.5246
  321MOL0     H43322   1.177  -0.079   1.677 -0.2980 -0.1359  0.6863
  321MOL0     H43323   0.782  -0.015   1.760 -2.8443  4.6803  0.1163
  321MOL0     H43324   0.810   0.100   1.888  1.4517  0.1270  1.4933
  321MOL0     H43325   0.710  -0.091   1.990  0.4238 -1.7198 -1.1711
  321MOL0     H43326   0.880  -0.107   2.032  2.1637  2.5044  0.5863
  321MOL0     H43327   0.835  -0.248   1.774  1.2129 -1.1039 -0.9916
  321MOL0     H43328   0.692  -0.276   1.872  0.1343 -1.9376 -0.9488
  321MOL0     H43329   0.837  -0.366   2.057 -0.6352 -1.5864 -0.1966
  321MOL0     H43330   0.833  -0.460   1.908  0.2631  1.1392 -1.9839
  321MOL0     H43331   1.221  -0.295   1.907 -0.3855 -2.6328 -3.3263
  321MOL0     H43332   0.886   0.230   1.728  1.2276 -1.8275  4.1026
  321MOL0     H43333   0.994   0.456   1.574 -0.9825  0.3235  0.4585
  321MOL0     H43334   0.958   0.397   1.410 -0.4145  0.1566 -0.1682
  321MOL0     H43335   0.841   0.372   1.538  0.0551 -0.5144 -1.1946
  322MOL0     O43336   2.009   9.452  10.151  0.9399  0.8110  0.6441
  322MOL0     C43337   2.001   9.571  10.129  0.0672  0.4183  1.7278
  322MOL0     O43338   2.108   9.648  10.091 -0.0784  0.4694  0.0343
  322MOL0     C43339   2.221   9.585  10.055  0.5699  0.0736 -0.3552
  322MOL0     C43340   2.341   9.645  10.092 -1.0037 -0.9878 -0.3315
  322MOL0     C43341   2.467   9.591  10.060 -0.8614  1.4032 -0.4213
  322MOL0     C43342   2.475   9.474   9.985 -0.8359  0.0126  0.2514
  322MOL0     O43343   2.604   9.428   9.944 -0.2407 -0.2481 -0.5470
  322MOL0     C43344   2.614   9.326   9.850  0.2332  0.1166  0.4509
  322MOL0     C43345   2.606   9.378   9.707 -0.1217 -0.1651 -0.5258
  322MOL0     C43346   2.571   9.279   9.588 -0.0963  0.1291 -0.1330
  322MOL0     C43347   2.614   9.132   9.599 -0.3169 -0.0987 -0.6874
  322MOL0     C43348   2.555   9.050   9.494 -0.4977  0.2358  0.5247
  322MOL0     C43349   2.611   8.903   9.490  0.4876  0.1209 -0.2541
  322MOL0     C43350   2.560   8.816   9.374  0.6446  0.5082 -0.0263
  322MOL0     C43351   2.542   8.666   9.403  0.7695  0.2662 -1.0123
  322MOL0     N43352   2.507   8.591   9.282  0.6480  0.3367  0.6293
  322MOL0     C43353   2.373   8.558   9.251  0.5720  0.7897 -0.2698
  322MOL0     C43354   2.382   8.467   9.149 -0.8208  0.2222  0.2589
  322MOL0     C43355   2.275   8.371   9.087  0.2290 -0.2457  0.1835
  322MOL0     C43356   2.147   8.454   9.091  1.2538 -0.3707 -0.0070
  322MOL0     C43357   2.048   8.393   8.990  0.2794 -0.0647 -0.9577
  322MOL0     C43358   1.925   8.475   8.962  0.2555  0.0354 -0.5879
  322MOL0     O43359   1.853   8.513   9.080  0.0036 -0.7530  0.0805
  322MOL0     C43360   1.761   8.606   9.050 -0.3003  0.0741  1.2010
  322MOL0     C43361   1.663   8.592   9.153 -1.1109 -0.1614 -1.4461
  322MOL0     C43362   1.558   8.679   9.142  0.2284  0.6308 -0.3704
  322MOL0     C43363   1.538   8.774   9.038 -1.0050  0.3476  0.5732
  322MOL0     C43364   1.428   8.863   9.038  0.2804 -1.4592 -0.0980
  322MOL0     O43365   1.351   8.887   9.154 -0.2325  0.5495  0.6616
  322MOL0     C43366   1.260   8.980   9.143 -0.1295 -0.1955 -0.4057
  322MOL0     C43367   1.266   9.103   9.211 -0.3289  0.1577  0.3684
  322MOL0     C43368   1.160   9.195   9.208 -0.4530 -0.4860 -0.7269
  322MOL0     C43369   1.036   9.157   9.165 -0.7465  0.3830  0.0163
  322MOL0     O43370   0.944   9.250   9.205  0.4337  0.0358 -0.0970
  322MOL0     C43371   0.812   9.212   9.231 -0.1131  0.3912 -0.2409
  322MOL0     C43372   0.725   9.337   9.222 -0.3157  0.3122 -0.3260
  322MOL0     C43373   0.749   9.452   9.318 -1.3195  0.2233  0.1260
  322MOL0     C43374   0.652   9.569   9.281 -0.2524 -0.2368 -0.7099
  322MOL0     C43375   0.639   9.689   9.379  0.7042  0.3237  0.2012
  322MOL0     C43376   0.750   9.788   9.418 -0.0858  0.1042  0.1853
  322MOL0     C43377   0.706   9.892   9.524  0.4347 -0.3561  0.1357
  322MOL0     C43378   0.729   9.835   9.654  0.2487  0.4764 -0.8053
  322MOL0    Cl43379   0.648   9.968   9.756 -0.3255 -0.0680 -0.0175
  322MOL0     C43380   1.023   9.024   9.114  0.8485 -0.2998 -0.8033
  322MOL0     C43381   1.133   8.942   9.096 -0.8315  0.7759  0.5458
  322MOL0     O43382   1.419   8.934   8.943  0.2262  0.2772  0.4509
  322MOL0     C43383   1.634   8.775   8.928  0.3884 -0.0318 -0.6819
  322MOL0     C43384   1.752   8.698   8.942 -0.0327 -0.3501 -0.2959
  322MOL0     N43385   2.519   8.450   9.123  0.3517  0.1228 -0.1036
  322MOL0     N43386   2.591   8.514   9.203  0.6096  0.2994 -0.4770
  322MOL0     C43387   2.361   9.415   9.942  0.0057 -0.0906  0.1112
  322MOL0     C43388   2.235   9.474   9.979  0.0112  1.6577  1.2068
  322MOL0     C43389   1.879   9.652  10.151  0.5561 -0.4215 -0.7471
  322MOL0     C43390   1.812   9.704  10.048 -0.1093 -0.2826  0.4138
  322MOL0     C43391   1.699   9.784  10.062  0.6078 -1.4916  0.7047
  322MOL0     C43392   1.648   9.822  10.186  0.3626 -0.2386 -0.5324
  322MOL0     O43393   1.546   9.913  10.200 -0.4033 -0.5474  0.7512
  322MOL0     C43394   1.503   9.952  10.326  0.5719 -0.0032 -0.0475
  322MOL0     C43395   1.384  10.043  10.315 -1.1353  0.6415  0.1513
  322MOL0     C43396   1.428  10.180  10.295  0.6392 -1.6991  1.5707
  322MOL0     C43397   1.304  10.266  10.280  0.0871 -0.6860 -0.8057
  322MOL0     C43398   1.244  10.292  10.415  0.8441  0.4553  0.4471
  322MOL0     C43399   1.188  10.289  10.520  0.7020  0.0431 -0.4414
  322MOL0     C43400   1.704   9.754  10.292  1.0810  0.2358 -0.4903
  322MOL0     C43401   1.815   9.667  10.276  1.4672  0.9564 -0.4143
  322MOL0     C43402   1.877   9.600  10.393 -0.4261  0.3668  0.2030
  322MOL0     H43403   2.329   9.739  10.145  0.0363 -0.9165 -0.2058
  322MOL0     H43404   2.559   9.645  10.082 -0.6682  0.4102  1.3298
  322MOL0     H43405   2.712   9.279   9.858  1.3610  1.5569 -2.9958
  322MOL0     H43406   2.553   9.238   9.874  2.1908 -1.9773 -1.7719
  322MOL0     H43407   2.704   9.418   9.679 -0.8914  1.6918 -0.7535
  322MOL0     H43408   2.543   9.468   9.699  3.6744  2.9742  1.2892
  322MOL0     H43409   2.620   9.317   9.498 -2.9174  1.4587 -1.2192
  322MOL0     H43410   2.464   9.285   9.569 -0.0352  3.2046  0.0444
  322MOL0     H43411   2.721   9.117   9.584 -0.9172 -4.7203 -1.8434
  322MOL0     H43412   2.596   9.096   9.700  0.7503  1.2825  0.0326
  322MOL0     H43413   2.447   9.060   9.503 -0.9203 -3.0109  0.3785
  322MOL0     H43414   2.582   9.096   9.398 -1.6987 -2.3156 -1.1581
  322MOL0     H43415   2.720   8.895   9.489  0.3567 -3.5232 -3.0342
  322MOL0     H43416   2.574   8.861   9.584  0.1036 -2.0598 -1.3334
  322MOL0     H43417   2.629   8.809   9.289  1.4660 -0.7257  0.7066
  322MOL0     H43418   2.468   8.859   9.335 -1.4642 -1.1225  2.8205
  322MOL0     H43419   2.640   8.629   9.435  0.7437 -0.0140 -1.2525
  322MOL0     H43420   2.466   8.642   9.478  1.8985 -0.4760 -0.0614
  322MOL0     H43421   2.280   8.599   9.291 -0.2339 -0.4210 -0.8489
  322MOL0     H43422   2.302   8.351   8.983  2.0680 -2.4076  1.0062
  322MOL0     H43423   2.271   8.275   9.139 -0.2961  0.7987  2.1750
  322MOL0     H43424   2.096   8.455   9.187  2.2729  2.4572  0.5890
  322MOL0     H43425   2.176   8.556   9.064 -2.0126  1.8003  3.8057
  322MOL0     H43426   2.019   8.308   9.053 -0.5197  2.2170  2.0009
  322MOL0     H43427   2.088   8.367   8.892 -1.6909  0.8712 -2.0637
  322MOL0     H43428   1.855   8.420   8.898 -2.8379 -1.0127  3.2463
  322MOL0     H43429   1.962   8.558   8.902 -0.1637  1.4943  1.0863
  322MOL0     H43430   1.681   8.521   9.233  0.9749  0.7480 -1.0337
  322MOL0     H43431   1.495   8.665   9.229  1.4534 -0.4417  0.3936
  322MOL0     H43432   1.366   9.126   9.246  0.1806 -1.4303  0.0042
  322MOL0     H43433   1.168   9.291   9.259 -2.0339  0.1108 -1.5222
  322MOL0     H43434   0.774   9.148   9.151 -2.0306 -0.1228  1.0319
  322MOL0     H43435   0.805   9.175   9.334  0.3722 -0.5288 -0.5337
  322MOL0     H43436   0.732   9.366   9.117  1.2501 -0.9901 -0.6205
  322MOL0     H43437   0.620   9.310   9.239 -0.1835 -0.2572 -0.3804
  322MOL0     H43438   0.736   9.425   9.423  3.4357 -3.0825  0.2115
  322MOL0     H43439   0.852   9.488   9.304 -0.9962 -1.3582 -2.1411
  322MOL0     H43440   0.550   9.536   9.257 -1.4571  3.0709 -0.5952
  322MOL0     H43441   0.685   9.600   9.181  0.4441  1.2135 -0.0575
  322MOL0     H43442   0.610   9.645   9.475  1.3706  2.2915  1.3724
  322MOL0     H43443   0.538   9.725   9.356 -1.0361 -3.4043  1.1957
  322MOL0     H43444   0.838   9.735   9.456 -0.3660  0.0809  0.8048
  322MOL0     H43445   0.784   9.844   9.330  2.7846  1.0887  1.7862
  322MOL0     H43446   0.598   9.911   9.515  0.8919  2.3412 -0.4732
  322MOL0     H43447   0.751   9.991   9.515 -1.5604  0.9116  2.7985
  322MOL0     H43448   0.685   9.735   9.660 -0.0312  0.6704  0.6862
  322MOL0     H43449   0.836   9.824   9.671 -0.1281  0.3679  1.9746
  322MOL0     H43450   0.921   8.987   9.102  0.5551 -0.1192  0.9237
  322MOL0     H43451   1.117   8.839   9.066  0.2622  0.9691 -0.8260
  322MOL0     H43452   1.639   8.865   8.867  1.2682  2.3604  2.6247
  322MOL0     H43453   1.819   8.729   8.862  0.4208  1.3405  0.6709
  322MOL0     H43454   2.353   9.322   9.887 -1.9433 -0.4062  0.8446
  322MOL0     H43455   2.143   9.422   9.956 -0.4595  2.2398  1.7386
  322MOL0     H43456   1.848   9.697   9.946 -0.3719 -0.6421  0.3453
  322MOL0     H43457   1.654   9.844   9.984 -0.0466 -1.3443  1.1936
  322MOL0     H43458   1.583  10.002  10.380  0.3518 -2.2483  2.5420
  322MOL0     H43459   1.471   9.871  10.392  0.3584  1.8043  2.1698
  322MOL0     H43460   1.328  10.035  10.408 -1.5230  1.0492 -0.0450
  322MOL0     H43461   1.326  10.007  10.230 -0.1331  0.3794 -0.4401
  322MOL0     H43462   1.486  10.179  10.202 -1.0742  1.7241  0.3104
  322MOL0     H43463   1.481  10.208  10.386  1.6470 -0.6543  0.6849
  322MOL0     H43464   1.314  10.361  10.227 -1.6102 -1.3740 -2.4607
  322MOL0     H43465   1.236  10.210  10.215 -0.6339  1.4244 -1.9604
  322MOL0     H43466   1.124  10.291  10.606  3.2187  1.0281  1.5437
  322MOL0     H43467   1.664   9.766  10.392 -1.1907  2.5732 -1.5568
  322MOL0     H43468   1.849   9.495  10.394  2.9691 -0.7063 -1.3798
  322MOL0     H43469   1.986   9.610  10.384 -0.4218 -0.9060 -1.4899
  322MOL0     H43470   1.826   9.651  10.475 -2.4625  0.7382 -1.2144
  323MOL0     O43471   3.131   2.164  10.597 -0.4439  0.3488  0.0347
  323MOL0     C43472   3.123   2.175  10.721 -0.1316  0.1242  0.2865
  323MOL0     O43473   3.224   2.135  10.808 -0.0020 -0.1735 -0.5176
  323MOL0     C43474   3.333   2.088  10.738 -0.4867 -0.6681  1.0507
  323MOL0     C43475   3.429   2.185  10.699 -0.6238  1.2704 -0.3299
  323MOL0     C43476   3.550   2.128  10.646 -0.6116  0.3833 -0.1122
  323MOL0     C43477   3.576   1.991  10.636 -0.0861  0.0459  0.1216
  323MOL0     O43478   3.695   1.940  10.584  0.8389  0.2348 -0.9013
  323MOL0     C43479   3.818   2.022  10.589  1.9419 -1.0419 -0.6689
  323MOL0     C43480   3.950   1.948  10.565  0.8734 -0.7956 -0.6792
  323MOL0     C43481   3.948   1.859  10.438 -0.0571  0.1810 -0.7295
  323MOL0     C43482   4.092   1.837  10.399 -0.6764  0.0855 -0.0804
  323MOL0     C43483   4.109   1.767  10.264 -1.5242 -1.1871  0.4518
  323MOL0     C43484   4.047   1.623  10.283 -0.5040 -0.9513  0.5817
  323MOL0     C43485   4.116   1.532  10.194 -0.3579 -0.5837 -0.1327
  323MOL0     C43486   4.092   1.550  10.044 -1.3569 -0.0313  0.2986
  323MOL0     N43487   4.196   1.637   9.983 -0.1471 -0.2596  0.0275
  323MOL0     C43488   4.173   1.755   9.924 -0.4558 -1.5501  0.6726
  323MOL0     C43489   4.295   1.811   9.907  0.2516  0.3196  0.2434
  323MOL0     C43490   4.325   1.926   9.835 -0.9819 -0.5121  0.2856
  323MOL0     C43491   4.239   2.044   9.894 -0.7403  0.0958  0.0642
  323MOL0     C43492   4.249   2.173   9.804 -0.3027 -0.2289 -0.2430
  323MOL0     C43493   4.142   2.271   9.867 -0.3954 -0.8721 -0.9904
  323MOL0     O43494   4.168   2.284  10.009  0.5980  0.1380 -0.6063
  323MOL0     C43495   4.065   2.333  10.086 -0.9144 -0.2143  0.3269
  323MOL0     C43496   3.993   2.238  10.170  0.2047 -0.3617  0.1387
  323MOL0     C43497   3.893   2.294  10.250 -0.5117  0.3584  0.4608
  323MOL0     C43498   3.863   2.438  10.266 -0.4494 -0.1907  0.8689
  323MOL0     C43499   3.755   2.496  10.352 -0.0721 -0.0584 -0.0879
  323MOL0     O43500   3.692   2.413  10.436 -0.2374 -0.7509 -0.4828
  323MOL0     C43501   3.615   2.477  10.536 -0.5096  1.3290 -0.2133
  323MOL0     C43502   3.486   2.515  10.498  1.2450  0.2964 -0.0460
  323MOL0     C43503   3.389   2.557  10.591 -0.1924 -0.6206  0.6320
  323MOL0     C43504   3.422   2.559  10.726 -0.1297  0.1336  0.7396
  323MOL0     O43505   3.321   2.598  10.812 -0.4365 -0.2884 -0.0680
  323MOL0     C43506   3.299   2.516  10.931 -0.6465 -0.9902  0.1450
  323MOL0     C43507   3.169   2.540  11.001 -0.3563  0.3290 -0.3019
  323MOL0     C43508   3.095   2.676  10.989 -0.9400  0.4306 -0.0301
  323MOL0     C43509   2.945   2.668  10.961 -0.0210 -0.5747 -0.4452
  323MOL0     C43510   2.856   2.801  10.970 -0.0704  0.2004  0.1611
  323MOL0     C43511   2.719   2.767  10.927  0.4258 -0.3231  0.7704
  323MOL0     C43512   2.638   2.899  10.934  0.3238  0.1735 -0.1238
  323MOL0     C43513   2.514   2.892  10.839 -0.4034 -0.1797 -0.0415
  323MOL0    Cl43514   2.384   2.792  10.920 -0.1515  0.3049  0.4551
  323MOL0     C43515   3.551   2.525  10.768  0.2152 -1.2936  0.2009
  323MOL0     C43516   3.651   2.487  10.678  0.3618  0.3106  0.1764
  323MOL0     O43517   3.745   2.617  10.343  0.9138  0.3501  0.2023
  323MOL0     C43518   3.940   2.514  10.177  0.4688 -1.0049  0.3068
  323MOL0     C43519   4.036   2.472  10.088 -1.4931  1.1082 -1.1948
  323MOL0     N43520   4.390   1.726   9.952 -0.9207  0.5410 -0.1072
  323MOL0     N43521   4.327   1.617   9.996  0.8808 -0.3331  0.8584
  323MOL0     C43522   3.473   1.901  10.670 -0.1004 -0.1119 -0.2666
  323MOL0     C43523   3.348   1.950  10.720 -0.1930  0.4814  0.5921
  323MOL0     C43524   2.996   2.227  10.769  0.4090 -0.0492  0.3088
  323MOL0     C43525   2.959   2.202  10.901 -0.3584 -0.6839  0.2990
  323MOL0     C43526   2.826   2.230  10.945 -0.2479  0.8834  0.1105
  323MOL0     C43527   2.741   2.293  10.865 -0.0582 -0.5948  0.2108
  323MOL0     O43528   2.622   2.311  10.910  0.2792  0.3120  0.3358
  323MOL0     C43529   2.543   2.416  10.864 -0.0436  0.1402  0.9127
  323MOL0     C43530   2.447   2.447  10.973  0.5880 -0.1251  0.0645
  323MOL0     C43531   2.361   2.333  11.021  0.7135 -0.1841  0.1593
  323MOL0     C43532   2.267   2.375  11.141 -0.4924  0.0144 -0.1905
  323MOL0     C43533   2.179   2.479  11.091 -0.3427 -0.2895 -0.2981
  323MOL0     C43534   2.112   2.576  11.060 -0.0201  0.0214  0.2634
  323MOL0     C43535   2.779   2.328  10.741  0.1205 -1.7532  0.8531
  323MOL0     C43536   2.897   2.293  10.689 -0.3562 -0.5328 -0.2115
  323MOL0     C43537   2.919   2.344  10.547 -0.6326  0.5332 -0.0952
  323MOL0     H43538   3.422   2.292  10.721  4.6374  1.7133  0.5096
  323MOL0     H43539   3.629   2.199  10.625  0.1413  0.4419  2.4636
  323MOL0     H43540   3.795   2.084  10.502  0.5993 -3.7108 -2.3318
  323MOL0     H43541   3.811   2.074  10.685 -0.3930 -2.4728  0.0062
  323MOL0     H43542   3.980   1.881  10.646 -1.1601 -2.0211 -0.8692
  323MOL0     H43543   4.031   2.020  10.553  1.1660 -0.6757  1.6473
  323MOL0     H43544   3.895   1.901  10.352  1.6199  0.6810 -1.5546
  323MOL0     H43545   3.897   1.771  10.478  0.9986 -0.0793  0.0886
  323MOL0     H43546   4.126   1.934  10.361 -0.7630  0.0487 -0.2504
  323MOL0     H43547   4.155   1.803  10.482  2.1878 -2.3502 -3.0082
  323MOL0     H43548   4.055   1.818  10.183  1.4967  2.9209  0.7442
  323MOL0     H43549   4.214   1.779  10.237 -1.5806 -1.5205  0.0660
  323MOL0     H43550   4.050   1.594  10.389 -1.5294  2.7215  1.7687
  323MOL0     H43551   3.942   1.621  10.253  0.3687  0.0155 -3.0265
  323MOL0     H43552   4.097   1.428  10.222  1.1021 -1.1966 -1.2525
  323MOL0     H43553   4.222   1.542  10.218 -0.9146  1.0903  1.8954
  323MOL0     H43554   4.115   1.452  10.001 -2.4116 -0.1744  0.0370
  323MOL0     H43555   3.988   1.579  10.028 -1.7372 -1.4377  0.0906
  323MOL0     H43556   4.071   1.780   9.898 -0.1452 -3.0912 -2.6009
  323MOL0     H43557   4.433   1.945   9.837 -1.0568 -0.1009  0.5774
  323MOL0     H43558   4.281   1.911   9.736 -4.0693  1.6667  1.1581
  323MOL0     H43559   4.136   2.012   9.906  0.2204 -2.7039  1.8297
  323MOL0     H43560   4.272   2.061   9.997 -1.3951  1.5716  0.0518
  323MOL0     H43561   4.207   2.144   9.708 -1.9198 -4.3410  1.4662
  323MOL0     H43562   4.348   2.215   9.787  0.4491 -1.5806  0.6225
  323MOL0     H43563   4.042   2.234   9.845 -0.1610 -1.7893 -0.5913
  323MOL0     H43564   4.155   2.370   9.823  0.2194 -1.1662 -1.5009
  323MOL0     H43565   4.008   2.131  10.162  0.9357 -0.1824 -1.1018
  323MOL0     H43566   3.840   2.216  10.303 -3.6453  2.1390  0.2284
  323MOL0     H43567   3.459   2.510  10.393 -4.0146 -1.5849  1.0805
  323MOL0     H43568   3.291   2.589  10.555  1.2216  0.9036 -2.1783
  323MOL0     H43569   3.297   2.412  10.895  0.7377 -0.4649 -1.5641
  323MOL0     H43570   3.375   2.541  11.006 -1.0504 -0.2334  0.3048
  323MOL0     H43571   3.090   2.465  10.993  2.3591 -3.0802  1.7491
  323MOL0     H43572   3.202   2.526  11.105  0.4606 -0.7158 -0.6881
  323MOL0     H43573   3.109   2.726  11.086 -0.1593 -3.4268  2.0328
  323MOL0     H43574   3.131   2.738  10.906 -0.2625  1.5657  1.0797
  323MOL0     H43575   2.898   2.607  11.038  2.1790 -1.9910 -0.1196
  323MOL0     H43576   2.944   2.621  10.862  0.1314 -1.4058 -0.0656
  323MOL0     H43577   2.887   2.875  10.896 -2.8472  1.8940  0.5405
  323MOL0     H43578   2.843   2.846  11.069  1.7791  0.8230  0.1551
  323MOL0     H43579   2.716   2.724  10.827 -2.1038 -2.1732  1.5399
  323MOL0     H43580   2.680   2.697  11.002  0.8466 -1.1236  0.2483
  323MOL0     H43581   2.703   2.974  10.890  1.1035 -1.0275 -1.1022
  323MOL0     H43582   2.603   2.934  11.031  1.1137  1.3095 -0.2326
  323MOL0     H43583   2.473   2.990  10.815 -2.7820 -1.4589 -1.5698
  323MOL0     H43584   2.543   2.853  10.741 -2.3943  0.8871 -1.1052
  323MOL0     H43585   3.582   2.540  10.871 -0.1476  0.6051  0.0641
  323MOL0     H43586   3.746   2.449  10.713 -0.2188 -0.5165  0.9082
  323MOL0     H43587   3.917   2.620  10.175 -1.7387 -1.4530 -0.6135
  323MOL0     H43588   4.099   2.541  10.033 -0.9219  1.1526 -0.4989
  323MOL0     H43589   3.500   1.796  10.664  3.7787  0.6161  1.1696
  323MOL0     H43590   3.283   1.866  10.744  2.0677 -1.9696 -1.2462
  323MOL0     H43591   3.018   2.140  10.968  0.0825 -0.4476  0.1341
  323MOL0     H43592   2.811   2.186  11.043  4.1098 -2.8993 -0.5414
  323MOL0     H43593   2.485   2.384  10.777  2.5082  0.5866 -1.1068
  323MOL0     H43594   2.605   2.501  10.832  0.7280 -1.1419 -1.2262
  323MOL0     H43595   2.387   2.529  10.933  1.4803  0.9797  0.9018
  323MOL0     H43596   2.504   2.491  11.055  0.7880  2.4299 -1.3450
  323MOL0     H43597   2.433   2.256  11.049  0.9577 -0.3430 -0.8554
  323MOL0     H43598   2.303   2.298  10.934  3.4288 -0.5709 -1.6140
  323MOL0     H43599   2.210   2.289  11.178 -3.4300  1.8296 -0.1924
  323MOL0     H43600   2.324   2.419  11.223  0.6979  0.0760 -1.0213
  323MOL0     H43601   2.065   2.670  11.037  0.6057  0.1128 -0.7129
  323MOL0     H43602   2.712   2.386  10.679  1.5044 -2.5323 -1.4835
  323MOL0     H43603   2.929   2.266  10.471 -0.3101 -0.0433  0.5257
  323MOL0     H43604   2.839   2.410  10.512  0.2876  2.0692  0.6039
  323MOL0     H43605   3.004   2.413  10.555 -0.9639  0.7393  2.4363
  324MOL0     O43606  11.071   4.314   0.893  0.2089 -0.6798 -0.1277
  324MOL0     C43607  11.057   4.438   0.896  0.1399  0.5733 -0.1203
  324MOL0     O43608  11.075   4.530   0.791 -0.3421  1.1536  0.3030
  324MOL0     C43609  11.131   4.511   0.663  0.1357 -0.6498  0.3883
  324MOL0     C43610  11.168   4.384   0.611  0.1396 -0.3578  0.2743
  324MOL0     C43611  11.199   4.371   0.472 -0.7625  0.8342 -0.0308
  324MOL0     C43612  11.223   4.483   0.399  0.0253 -0.8708  0.9365
  324MOL0     O43613  11.266   4.466   0.268 -1.2880  0.1611  0.3345
  324MOL0     C43614  11.365   4.551   0.211  0.0192  0.6462  0.7312
  324MOL0     C43615  11.376   4.523   0.062  0.1983 -0.3826 -0.3735
  324MOL0     C43616  11.241   4.571  -0.004  0.5446 -0.8157 -0.1849
  324MOL0     C43617  11.258   4.587  -0.155 -0.1352  0.6927  0.9351
  324MOL0     C43618  11.138   4.669  -0.216  0.7962  0.4022 -0.2890
  324MOL0     C43619  11.173   4.702  -0.358  0.4455  0.1472  0.3234
  324MOL0     C43620  11.057   4.789  -0.432 -0.4082  0.3569 -0.5846
  324MOL0     C43621  11.090   4.829  -0.580  0.5923  0.0811  0.2051
  324MOL0     N43622  10.983   4.919  -0.611 -0.7516  0.4330 -0.3675
  324MOL0     C43623  10.854   4.874  -0.633 -0.9437 -0.5615  0.5934
  324MOL0     C43624  10.783   4.986  -0.650 -0.2611 -0.7183 -0.7399
  324MOL0     C43625  10.629   4.984  -0.662 -0.4128 -0.3504 -0.2810
  324MOL0     C43626  10.574   5.020  -0.522  0.0868 -0.0527  0.1038
  324MOL0     C43627  10.594   5.174  -0.491 -1.0076 -0.2966  0.6061
  324MOL0     C43628  10.551   5.223  -0.347  0.1914 -0.2106 -0.0334
  324MOL0     O43629  10.412   5.202  -0.331 -0.4283 -0.6665  0.3393
  324MOL0     C43630  10.375   5.219  -0.200 -0.6809 -0.8790 -0.4045
  324MOL0     C43631  10.232   5.198  -0.176 -1.8640  0.0164  1.0226
  324MOL0     C43632  10.172   5.234  -0.057 -0.0480 -1.7883 -0.8236
  324MOL0     C43633  10.249   5.294   0.054 -0.3534  0.1901  0.9803
  324MOL0     C43634  10.184   5.303   0.184 -0.1818 -0.5549 -0.2528
  324MOL0     O43635  10.271   5.340   0.277  0.5436  0.3433 -0.2574
  324MOL0     C43636  10.237   5.378   0.397  0.3155 -0.1432 -0.1281
  324MOL0     C43637  10.139   5.332   0.479  0.1941  0.3670 -0.7723
  324MOL0     C43638  10.105   5.392   0.595 -0.2245 -1.2787 -0.8011
  324MOL0     C43639  10.185   5.497   0.648  0.9925  0.1791  0.5850
  324MOL0     O43640  10.165   5.544   0.778  0.3347  0.3446 -0.1227
  324MOL0     C43641  10.042   5.522   0.852  0.5974  0.4855 -0.4234
  324MOL0     C43642  10.030   5.660   0.925  0.2839  0.0354  0.3956
  324MOL0     C43643   9.997   5.763   0.824  0.0101  0.4862  0.5348
  324MOL0     C43644   9.994   5.911   0.878 -0.5060  0.6460  0.4784
  324MOL0     C43645  10.136   5.969   0.904 -0.3586 -0.2910 -0.1022
  324MOL0     C43646  10.189   6.066   0.788 -0.1277  0.1757 -0.0068
  324MOL0     C43647  10.226   6.003   0.649 -0.7718 -0.2487 -0.2390
  324MOL0     C43648  10.350   5.918   0.646 -0.7084 -0.2622 -0.0609
  324MOL0    Cl43649  10.378   5.871   0.463  0.3556 -0.6021 -0.0146
  324MOL0     C43650  10.297   5.532   0.568 -0.2287  0.6304 -0.9688
  324MOL0     C43651  10.325   5.477   0.446  0.5718 -0.1217 -0.0672
  324MOL0     O43652  10.065   5.290   0.194  0.5020  0.5237  0.6531
  324MOL0     C43653  10.392   5.314   0.034 -0.1924  0.1112 -0.0838
  324MOL0     C43654  10.449   5.273  -0.088  0.2355 -0.2074 -0.6715
  324MOL0     N43655  10.869   5.098  -0.631 -0.1933 -0.4189 -0.3747
  324MOL0     N43656  10.989   5.057  -0.606  0.3375 -0.1652 -0.0449
  324MOL0     C43657  11.205   4.611   0.458  0.5888  0.4776 -0.3998
  324MOL0     C43658  11.145   4.624   0.580  0.8720  1.2055 -0.8412
  324MOL0     C43659  11.002   4.497   1.017  0.2706 -0.4889 -0.2417
  324MOL0     C43660  11.044   4.631   1.045 -0.5646  0.0808  0.6722
  324MOL0     C43661  11.014   4.707   1.157  0.2690  0.1775 -0.5454
  324MOL0     C43662  10.928   4.643   1.255  0.3977  0.1070 -0.5153
  324MOL0     O43663  10.912   4.714   1.367  0.0255  0.4510 -0.3828
  324MOL0     C43664  10.877   4.666   1.494 -0.7507 -0.1067 -0.6351
  324MOL0     C43665  10.923   4.760   1.617  0.5285  0.0028 -0.1592
  324MOL0     C43666  10.836   4.891   1.624  0.1947  0.3827  0.6969
  324MOL0     C43667  10.867   4.981   1.737 -0.4597 -0.4137 -1.1366
  324MOL0     C43668  10.821   4.924   1.872 -0.9131  0.9613  0.9377
  324MOL0     C43669  10.795   4.893   1.978 -0.8503  0.0895 -0.9205
  324MOL0     C43670  10.868   4.517   1.226 -0.5671 -0.0525 -1.2247
  324MOL0     C43671  10.902   4.442   1.110  0.4731 -0.7316  0.1233
  324MOL0     C43672  10.835   4.308   1.099  0.3111 -0.7278  1.6909
  324MOL0     H43673  11.161   4.294   0.672 -1.5462 -0.2673  0.2481
  324MOL0     H43674  11.201   4.265   0.446  1.2303  0.9641 -0.5499
  324MOL0     H43675  11.338   4.657   0.213  0.8605  0.8627  0.8664
  324MOL0     H43676  11.466   4.538   0.251 -0.0380  1.2670  1.0885
  324MOL0     H43677  11.395   4.416   0.045  2.2352  0.2511 -2.5864
  324MOL0     H43678  11.461   4.573   0.017 -1.2382  0.6406 -2.0599
  324MOL0     H43679  11.224   4.671   0.035  1.4584 -1.0204  0.7825
  324MOL0     H43680  11.161   4.497   0.003  2.8856 -3.5596 -0.3150
  324MOL0     H43681  11.354   4.636  -0.171 -0.6677  1.1417 -1.0871
  324MOL0     H43682  11.259   4.496  -0.214  2.3368  2.1837 -1.5564
  324MOL0     H43683  11.056   4.597  -0.220  2.1457 -1.3205  1.3917
  324MOL0     H43684  11.103   4.756  -0.159 -0.4099  0.3053 -0.8404
  324MOL0     H43685  11.261   4.766  -0.367  0.7271 -0.2592  0.1799
  324MOL0     H43686  11.191   4.605  -0.405  5.0407  0.5355  0.8635
  324MOL0     H43687  11.020   4.876  -0.378  2.2451  1.1178  0.1499
  324MOL0     H43688  10.970   4.723  -0.428 -0.4997  0.5191  0.4253
  324MOL0     H43689  11.188   4.875  -0.592 -0.2953  1.8506 -0.7605
  324MOL0     H43690  11.094   4.750  -0.655  0.1828  3.3332 -3.5795
  324MOL0     H43691  10.819   4.771  -0.632 -1.4215 -0.4199  2.7476
  324MOL0     H43692  10.602   5.056  -0.739  2.8871 -2.2184 -3.5440
  324MOL0     H43693  10.586   4.887  -0.690  1.1763 -0.8269 -1.2554
  324MOL0     H43694  10.467   4.993  -0.520  0.1802 -0.4613 -0.2813
  324MOL0     H43695  10.623   4.954  -0.450  0.5708  0.6073  0.3874
  324MOL0     H43696  10.527   5.235  -0.552 -0.4865  0.2211  0.5521
  324MOL0     H43697  10.699   5.197  -0.506 -0.6529 -0.5252  2.5172
  324MOL0     H43698  10.585   5.323  -0.318 -0.5912 -0.6078  2.4158
  324MOL0     H43699  10.610   5.163  -0.278  0.8300  0.5726  0.1207
  324MOL0     H43700  10.172   5.146  -0.250 -0.6209 -1.1698  0.8191
  324MOL0     H43701  10.064   5.237  -0.049 -0.0890  1.0901 -1.4019
  324MOL0     H43702  10.076   5.255   0.435 -0.0307 -1.0195  1.7932
  324MOL0     H43703  10.020   5.358   0.653  0.1662 -0.6615  0.1604
  324MOL0     H43704   9.961   5.509   0.780  0.5388  1.3393 -0.5151
  324MOL0     H43705  10.056   5.447   0.932  1.0886 -0.6299 -1.5251
  324MOL0     H43706   9.967   5.652   1.014  1.7634 -4.0380  1.3424
  324MOL0     H43707  10.133   5.674   0.959  1.2358 -0.8425 -1.8938
  324MOL0     H43708  10.076   5.759   0.748 -0.9771  4.0207 -0.8385
  324MOL0     H43709   9.909   5.730   0.767  0.0467 -2.6967  2.1002
  324MOL0     H43710   9.934   5.925   0.968  1.0775 -0.4311  1.7602
  324MOL0     H43711   9.961   5.973   0.794 -0.6902  0.3496  0.3266
  324MOL0     H43712  10.197   5.878   0.913 -0.7256 -0.4430  0.9157
  324MOL0     H43713  10.133   6.023   0.999 -0.8073 -1.5947  0.6565
  324MOL0     H43714  10.118   6.149   0.780  2.1162  2.9616  4.3277
  324MOL0     H43715  10.272   6.128   0.823 -1.3483  0.4594  2.6384
  324MOL0     H43716  10.246   6.091   0.587  0.6670  0.2488  0.8881
  324MOL0     H43717  10.143   5.947   0.605 -1.4030  0.3891  0.1211
  324MOL0     H43718  10.429   5.991   0.669 -0.1680 -0.8710  0.0559
  324MOL0     H43719  10.340   5.835   0.716 -4.0532  0.0662 -0.0200
  324MOL0     H43720  10.365   5.597   0.623 -1.8810  2.0889 -0.5695
  324MOL0     H43721  10.401   5.507   0.375 -0.6469  0.9684 -0.9748
  324MOL0     H43722  10.452   5.341   0.120  0.4233 -0.0745 -0.4542
  324MOL0     H43723  10.551   5.304  -0.105  0.3425 -0.0436  0.2560
  324MOL0     H43724  11.191   4.704   0.405  1.1286  1.3338  0.9272
  324MOL0     H43725  11.091   4.714   0.608 -0.6757  0.6857 -2.0043
  324MOL0     H43726  11.103   4.681   0.968 -1.3733 -1.1525 -0.7932
  324MOL0     H43727  11.076   4.793   1.178  1.3736 -0.3110 -1.6773
  324MOL0     H43728  10.927   4.572   1.520  1.6728  1.5945  1.3577
  324MOL0     H43729  10.768   4.657   1.494 -0.7089 -0.6905  0.1687
  324MOL0     H43730  11.028   4.790   1.610 -0.2584  2.8244 -0.8894
  324MOL0     H43731  10.904   4.699   1.706 -0.0490  0.7266  0.2176
  324MOL0     H43732  10.736   4.853   1.643  0.2280 -0.3582 -0.5256
  324MOL0     H43733  10.827   4.938   1.525 -1.0412 -1.7304 -0.2466
  324MOL0     H43734  10.976   4.989   1.728 -0.4730  1.4295 -0.1161
  324MOL0     H43735  10.816   5.078   1.736 -2.9228 -1.6414 -2.4001
  324MOL0     H43736  10.781   4.868   2.081  0.2269 -1.3464 -1.0843
  324MOL0     H43737  10.805   4.476   1.305  0.8118  5.4278  3.3831
  324MOL0     H43738  10.884   4.249   1.177  3.4002 -0.0806  0.3918
  324MOL0     H43739  10.726   4.308   1.101  0.0138 -1.5643 -2.9657
  324MOL0     H43740  10.857   4.268   0.999 -1.3785  1.2417  0.4441
  325MOL0     O43741   5.098   5.576   4.900 -0.0863 -0.3532 -0.6614
  325MOL0     C43742   5.169   5.647   4.838  0.1854 -0.6372  0.2732
  325MOL0     O43743   5.301   5.631   4.830 -0.1991  0.3889 -0.5441
  325MOL0     C43744   5.369   5.534   4.897  0.4177  0.6231  0.4447
  325MOL0     C43745   5.330   5.467   5.014  0.6495  0.5402  0.2005
  325MOL0     C43746   5.416   5.366   5.071 -0.4465  0.3046 -0.1754
  325MOL0     C43747   5.541   5.337   5.016  0.7884 -0.3479  0.2973
  325MOL0     O43748   5.605   5.232   5.062 -0.3216 -0.8354 -1.0205
  325MOL0     C43749   5.681   5.166   4.970 -0.6746  0.6403  0.0215
  325MOL0     C43750   5.731   5.031   5.026 -0.0091  0.1564 -0.8944
  325MOL0     C43751   5.616   4.937   5.063  0.3608  0.9994 -0.2345
  325MOL0     C43752   5.670   4.802   5.104 -0.5345  0.7565 -0.5823
  325MOL0     C43753   5.546   4.720   5.147  0.0869 -0.2529 -0.2222
  325MOL0     C43754   5.583   4.574   5.167 -0.2028  0.2439 -0.0268
  325MOL0     C43755   5.475   4.475   5.208 -0.3438 -0.1338  0.9168
  325MOL0     C43756   5.419   4.401   5.089 -0.2280  0.0452  0.3738
  325MOL0     N43757   5.344   4.483   4.998 -0.3819  0.7854  0.7968
  325MOL0     C43758   5.229   4.539   5.041  0.3724  0.4292 -0.5896
  325MOL0     C43759   5.185   4.601   4.932  0.0020 -0.9816 -0.9604
  325MOL0     C43760   5.057   4.686   4.941 -0.3780 -0.3210 -0.5959
  325MOL0     C43761   5.059   4.812   4.860  0.6972  0.4079  0.4915
  325MOL0     C43762   4.944   4.912   4.893 -0.6979  0.2815  0.1902
  325MOL0     C43763   4.927   5.004   4.769  0.3238  0.4417  0.0079
  325MOL0     O43764   4.798   5.068   4.786  0.5491 -0.1896  0.7297
  325MOL0     C43765   4.787   5.186   4.868 -0.0316  1.0009  0.1167
  325MOL0     C43766   4.891   5.258   4.926 -0.5919  0.3115  0.2103
  325MOL0     C43767   4.877   5.377   5.005 -0.1073 -0.1708 -0.1249
  325MOL0     C43768   4.745   5.424   5.025 -0.5203 -0.8700 -0.0904
  325MOL0     C43769   4.723   5.553   5.086  0.1028  0.3056  0.6807
  325MOL0     O43770   4.840   5.609   5.147  0.2917 -0.3823  0.5427
  325MOL0     C43771   4.820   5.700   5.256 -0.6894 -0.1142  0.0362
  325MOL0     C43772   4.901   5.705   5.370 -1.0763  0.3120  0.0741
  325MOL0     C43773   4.905   5.822   5.451 -1.0030  0.1661 -0.3053
  325MOL0     C43774   4.813   5.931   5.447 -0.6159 -0.0645  0.9225
  325MOL0     O43775   4.805   6.042   5.526  0.6038  0.4157  0.4971
  325MOL0     C43776   4.856   6.031   5.657  0.1364 -0.1275  0.8594
  325MOL0     C43777   4.768   6.120   5.745  0.5009 -0.5625 -1.0276
  325MOL0     C43778   4.809   6.098   5.891 -0.1443 -0.3661  0.3464
  325MOL0     C43779   4.734   6.193   5.981  1.2143  0.4792 -0.4562
  325MOL0     C43780   4.797   6.329   5.995  0.7763  0.4845  0.4259
  325MOL0     C43781   4.691   6.435   6.044 -0.6869 -0.2726 -0.0913
  325MOL0     C43782   4.656   6.414   6.194  0.4431 -0.4767  0.0837
  325MOL0     C43783   4.539   6.494   6.264 -0.5038  0.4430 -0.4562
  325MOL0    Cl43784   4.537   6.672   6.265 -0.0004 -0.6106 -0.5300
  325MOL0     C43785   4.725   5.918   5.333 -0.7843 -0.4195  0.0910
  325MOL0     C43786   4.727   5.810   5.249 -1.1244  1.0276  0.6416
  325MOL0     O43787   4.607   5.592   5.101 -0.4648  0.1433 -0.3282
  325MOL0     C43788   4.636   5.360   4.969 -1.3528  0.3948 -0.1327
  325MOL0     C43789   4.657   5.247   4.891 -0.2810 -0.5333  0.0435
  325MOL0     N43790   5.266   4.581   4.831 -0.1621  0.2209 -0.0972
  325MOL0     N43791   5.369   4.510   4.870  0.3771 -0.5330  0.5019
  325MOL0     C43792   5.581   5.417   4.911 -0.0112 -0.4600  0.8087
  325MOL0     C43793   5.497   5.505   4.847 -0.1805 -1.2316 -0.6033
  325MOL0     C43794   5.099   5.764   4.760  0.3342 -0.3419 -0.2539
  325MOL0     C43795   4.974   5.807   4.804 -0.0007 -0.1112 -0.4167
  325MOL0     C43796   4.910   5.924   4.756 -0.6596  0.4276 -0.2569
  325MOL0     C43797   4.962   5.983   4.647  0.4868 -0.0593  0.0858
  325MOL0     O43798   4.888   6.093   4.607 -0.5139 -0.1240  0.5343
  325MOL0     C43799   4.946   6.189   4.517  0.3435  0.0299 -0.0821
  325MOL0     C43800   4.853   6.212   4.390 -0.4610  0.2289  0.7361
  325MOL0     C43801   4.709   6.243   4.424 -0.2777 -0.1294 -0.6205
  325MOL0     C43802   4.642   6.314   4.308  0.0479  1.0699  0.1450
  325MOL0     C43803   4.491   6.336   4.322 -0.8232  0.4841 -0.4983
  325MOL0     C43804   4.372   6.359   4.327 -0.3960 -1.3431  0.0507
  325MOL0     C43805   5.077   5.935   4.589 -0.6775  0.9456  0.1333
  325MOL0     C43806   5.144   5.821   4.639  0.1470  0.2181  0.4390
  325MOL0     C43807   5.258   5.759   4.563 -0.8187  0.1811  0.5028
  325MOL0     H43808   5.241   5.484   5.074  2.0512 -0.0550  2.5793
  325MOL0     H43809   5.379   5.310   5.156  1.3858  0.5100  0.7981
  325MOL0     H43810   5.629   5.140   4.877  1.6371  0.3044 -1.2516
  325MOL0     H43811   5.762   5.229   4.932  0.7742 -2.0905 -1.7618
  325MOL0     H43812   5.797   5.037   5.113  0.4550 -2.5703 -0.9863
  325MOL0     H43813   5.792   4.989   4.946  1.9792  2.2915 -0.6192
  325MOL0     H43814   5.551   4.924   4.976  2.6649  0.7009 -1.9893
  325MOL0     H43815   5.556   4.975   5.147  1.0708  1.1323  0.2184
  325MOL0     H43816   5.736   4.752   5.033 -2.4894 -2.2660 -0.4625
  325MOL0     H43817   5.735   4.822   5.190 -1.2580 -0.0619  0.1784
  325MOL0     H43818   5.496   4.764   5.234  0.2769 -1.6711  0.6293
  325MOL0     H43819   5.474   4.735   5.066  1.7320  0.9216 -1.5416
  325MOL0     H43820   5.630   4.541   5.074 -2.0960 -0.2455 -0.8631
  325MOL0     H43821   5.666   4.572   5.239 -0.2353 -4.9882  0.2242
  325MOL0     H43822   5.405   4.530   5.272  1.5171  1.7707  1.4253
  325MOL0     H43823   5.525   4.399   5.269  0.2681 -1.5269 -1.2345
  325MOL0     H43824   5.506   4.359   5.037 -0.7981  0.1397 -0.7024
  325MOL0     H43825   5.376   4.304   5.118 -0.3464 -0.0521 -0.1164
  325MOL0     H43826   5.179   4.541   5.138 -2.4897 -5.2221 -1.4761
  325MOL0     H43827   4.966   4.632   4.912 -1.9360  2.4578 -1.2941
  325MOL0     H43828   5.060   4.721   5.044 -1.7539 -1.2069 -0.2319
  325MOL0     H43829   5.157   4.858   4.875  1.4290 -0.2713 -1.8163
  325MOL0     H43830   5.053   4.775   4.757 -2.0207 -1.9562  1.3728
  325MOL0     H43831   4.986   4.960   4.982  0.2785 -1.5153  0.7628
  325MOL0     H43832   4.855   4.850   4.909  0.2146 -0.9288  0.7541
  325MOL0     H43833   4.937   4.940   4.680  3.2065 -0.0851  0.6195
  325MOL0     H43834   5.010   5.075   4.761  1.7923 -1.1713  0.2752
  325MOL0     H43835   4.988   5.220   4.899 -0.6021 -1.4673  2.4046
  325MOL0     H43836   4.961   5.432   5.045 -0.0529 -0.2627 -0.1123
  325MOL0     H43837   4.979   5.631   5.385 -0.6281  1.1146  1.9240
  325MOL0     H43838   4.977   5.821   5.532 -1.8581 -3.4757  0.6084
  325MOL0     H43839   4.865   5.932   5.702 -0.1027 -1.0331 -1.0019
  325MOL0     H43840   4.960   6.065   5.659  0.7399 -1.9462  2.1084
  325MOL0     H43841   4.788   6.222   5.709 -0.7367 -0.7116 -2.2192
  325MOL0     H43842   4.661   6.099   5.745  0.0463  1.2877  1.0363
  325MOL0     H43843   4.789   5.997   5.929 -1.4867 -0.5914 -0.8837
  325MOL0     H43844   4.914   6.128   5.888 -0.2513  0.0380  0.6144
  325MOL0     H43845   4.716   6.144   6.078  0.5706 -2.8173 -2.1019
  325MOL0     H43846   4.634   6.213   5.941  1.8648  2.5767 -1.1588
  325MOL0     H43847   4.842   6.349   5.897 -2.9474 -0.5597 -1.6936
  325MOL0     H43848   4.870   6.324   6.076  1.4704  0.5638 -0.1867
  325MOL0     H43849   4.737   6.534   6.037  1.4265 -0.6918  4.3200
  325MOL0     H43850   4.596   6.443   5.991 -0.8753  0.4543  0.3365
  325MOL0     H43851   4.741   6.429   6.262 -1.0934  0.7155  1.8185
  325MOL0     H43852   4.629   6.308   6.201 -2.4763  0.0018 -2.1736
  325MOL0     H43853   4.449   6.467   6.207 -0.7215  1.7126 -0.7416
  325MOL0     H43854   4.530   6.457   6.367 -1.4792  3.5182  0.6758
  325MOL0     H43855   4.653   5.997   5.312 -0.8600 -0.3709  0.5227
  325MOL0     H43856   4.652   5.817   5.170  3.2357  4.2313 -3.8278
  325MOL0     H43857   4.541   5.410   4.987 -0.0436  2.2937  1.9220
  325MOL0     H43858   4.577   5.206   4.831  1.9684 -0.5787 -3.1751
  325MOL0     H43859   5.679   5.410   4.864  0.3594 -1.2628  1.6597
  325MOL0     H43860   5.543   5.559   4.765  3.6257 -1.3197  1.2699
  325MOL0     H43861   4.944   5.760   4.897  1.3431 -1.8594 -0.8095
  325MOL0     H43862   4.833   5.976   4.812  1.6886  1.3773  2.3145
  325MOL0     H43863   5.048   6.169   4.483 -0.4558 -2.2182 -1.4091
  325MOL0     H43864   4.949   6.276   4.583 -0.4281  0.3089 -0.4120
  325MOL0     H43865   4.843   6.120   4.332 -1.9982  1.7116 -1.4916
  325MOL0     H43866   4.906   6.298   4.350  1.5302 -1.0521  0.4807
  325MOL0     H43867   4.721   6.318   4.502 -3.5683 -0.5790  0.4796
  325MOL0     H43868   4.645   6.160   4.454 -2.7787  0.8703 -2.8156
  325MOL0     H43869   4.701   6.404   4.290  4.5803 -0.5959  4.4594
  325MOL0     H43870   4.653   6.266   4.210 -4.9231  1.0162 -0.6486
  325MOL0     H43871   4.267   6.382   4.325  0.1368  1.3797 -1.3634
  325MOL0     H43872   5.128   5.974   4.502 -0.7948 -2.7371 -1.7893
  325MOL0     H43873   5.231   5.665   4.514 -0.7492  0.8932 -0.9321
  325MOL0     H43874   5.311   5.815   4.486  0.8424 -4.0824 -1.8244
  325MOL0     H43875   5.328   5.725   4.640  2.1365  0.0261 -2.0540
  326MOL0     O43876   8.692  11.286   0.119  0.4614  0.3599 -0.2833
  326MOL0     C43877   8.685  11.375   0.030 -0.4443  0.2255 -0.2365
  326MOL0     O43878   8.638  11.351  -0.096 -0.9895  0.0883  0.6688
  326MOL0     C43879   8.595  11.228  -0.130 -0.4162  0.1342  0.8152
  326MOL0     C43880   8.458  11.222  -0.165 -0.8861  0.7691 -0.2082
  326MOL0     C43881   8.402  11.108  -0.236 -0.0316 -0.2369  0.2492
  326MOL0     C43882   8.475  10.990  -0.260 -0.0968 -0.1949  0.1142
  326MOL0     O43883   8.411  10.881  -0.307 -0.4158  0.3506  0.1473
  326MOL0     C43884   8.486  10.764  -0.341  0.6495  0.0443  0.0322
  326MOL0     C43885   8.576  10.769  -0.472 -0.2435 -0.3102 -0.7560
  326MOL0     C43886   8.697  10.675  -0.470 -0.6589 -1.3774  0.0003
  326MOL0     C43887   8.764  10.687  -0.603 -0.0140  0.1491  0.5456
  326MOL0     C43888   8.905  10.634  -0.599  0.7144  0.3127 -0.2537
  326MOL0     C43889   8.963  10.612  -0.737 -0.1231  1.0478 -0.2229
  326MOL0     C43890   9.114  10.592  -0.747  1.1738 -0.1537  0.7628
  326MOL0     C43891   9.152  10.438  -0.715 -0.0807  0.4158  1.4954
  326MOL0     N43892   9.298  10.420  -0.726  0.0264  0.5881 -0.4987
  326MOL0     C43893   9.357  10.402  -0.847 -0.3838 -1.1922 -0.4754
  326MOL0     C43894   9.484  10.399  -0.824 -0.4295  0.0988 -0.5688
  326MOL0     C43895   9.580  10.375  -0.939  0.1495 -0.1298  0.3873
  326MOL0     C43896   9.664  10.239  -0.935  0.3146 -0.0523  0.0379
  326MOL0     C43897   9.776  10.229  -1.039  0.1892 -0.8001 -0.4905
  326MOL0     C43898   9.827  10.087  -1.065  0.4036 -0.8269 -0.2969
  326MOL0     O43899   9.726   9.994  -1.106 -0.6357 -0.6669  0.2103
  326MOL0     C43900   9.763   9.867  -1.142  0.8051  0.3555  0.6003
  326MOL0     C43901   9.898   9.834  -1.162 -0.6321 -0.2321 -1.2104
  326MOL0     C43902   9.938   9.701  -1.171 -0.8450 -0.9273 -0.5902
  326MOL0     C43903   9.850   9.595  -1.169 -0.3356  0.4254 -0.2073
  326MOL0     C43904   9.904   9.454  -1.166  0.8304  0.7223 -0.6747
  326MOL0     O43905  10.020   9.440  -1.237  0.0321  0.4405  0.4019
  326MOL0     C43906  10.108   9.342  -1.200  0.8684 -0.7017  0.9314
  326MOL0     C43907  10.174   9.271  -1.298 -0.0070 -0.2834 -0.2541
  326MOL0     C43908  10.271   9.183  -1.256  0.3983 -0.3795  0.2387
  326MOL0     C43909  10.313   9.172  -1.125 -0.0392 -0.6246 -0.9403
  326MOL0     O43910  10.409   9.078  -1.096 -0.1919 -0.0223  0.2138
  326MOL0     C43911  10.523   9.105  -1.015 -0.0651  0.0741 -0.2227
  326MOL0     C43912  10.629   8.998  -1.035  0.3847  0.1861  0.0367
  326MOL0     C43913  10.578   8.859  -0.976  0.1347 -0.8363  0.2361
  326MOL0     C43914  10.608   8.736  -1.067 -0.7880 -0.8021 -0.5794
  326MOL0     C43915  10.755   8.741  -1.109 -0.1351 -0.2910 -0.1266
  326MOL0     C43916  10.809   8.617  -1.179 -0.0533 -0.3105 -0.4233
  326MOL0     C43917  10.814   8.494  -1.085  0.0748 -0.4500 -0.5448
  326MOL0     C43918  10.950   8.423  -1.080 -0.0300  0.1336 -0.5184
  326MOL0    Cl43919  11.070   8.497  -0.957 -0.0669 -0.1016 -0.1367
  326MOL0     C43920  10.245   9.239  -1.033  0.2657  0.7108  0.5528
  326MOL0     C43921  10.140   9.320  -1.064  0.3115  0.7957 -0.7041
  326MOL0     O43922   9.851   9.369  -1.095  0.4243  0.1812  0.1646
  326MOL0     C43923   9.714   9.625  -1.151 -0.6994 -0.1900  0.4333
  326MOL0     C43924   9.672   9.759  -1.142  0.2625 -0.2682  0.4025
  326MOL0     N43925   9.508  10.418  -0.693 -0.7621  0.8629  0.0574
  326MOL0     N43926   9.395  10.430  -0.628 -0.8868  0.1811 -0.1193
  326MOL0     C43927   8.606  10.993  -0.214 -0.4439 -0.7249 -0.3550
  326MOL0     C43928   8.668  11.106  -0.156 -0.1331 -0.0452 -0.0675
  326MOL0     C43929   8.735  11.517   0.055 -0.2953  0.8035 -0.5124
  326MOL0     C43930   8.748  11.604  -0.058 -0.7865 -0.5096  0.0224
  326MOL0     C43931   8.790  11.742  -0.051 -0.2320 -0.3341  0.2899
  326MOL0     C43932   8.816  11.802   0.073 -0.5382  0.7944 -0.1520
  326MOL0     O43933   8.864  11.925   0.060  0.1539  0.4133 -0.2406
  326MOL0     C43934   8.866  11.995   0.184 -0.0880 -0.5429  0.6868
  326MOL0     C43935   8.912  12.148   0.167 -0.4981 -0.4505 -0.2751
  326MOL0     C43936   9.063  12.162   0.170 -0.4645  0.1538 -0.5004
  326MOL0     C43937   9.115  12.151   0.317 -0.1684 -0.2078  0.2191
  326MOL0     C43938   9.262  12.191   0.327  0.5769  0.0612 -0.8949
  326MOL0     C43939   9.386  12.209   0.336  0.7115  0.0704 -0.7010
  326MOL0     C43940   8.797  11.721   0.190  0.3309  0.0643  0.1376
  326MOL0     C43941   8.750  11.585   0.179  0.0297 -0.6508 -0.0070
  326MOL0     C43942   8.692  11.526   0.306  0.8921 -0.6360 -0.2932
  326MOL0     H43943   8.401  11.314  -0.160 -0.9555  0.6596  1.8359
  326MOL0     H43944   8.297  11.109  -0.263 -0.4647  2.1521  1.7548
  326MOL0     H43945   8.545  10.740  -0.253  0.1565 -0.4657  0.2249
  326MOL0     H43946   8.406  10.690  -0.349  2.1561 -2.2330  3.6059
  326MOL0     H43947   8.611  10.873  -0.469  1.5126 -0.8767  0.8603
  326MOL0     H43948   8.526  10.754  -0.568 -0.0678 -0.1159 -0.8794
  326MOL0     H43949   8.676  10.572  -0.438 -1.6936 -1.0373  0.4299
  326MOL0     H43950   8.760  10.727  -0.397  0.9178 -4.2274  0.8476
  326MOL0     H43951   8.693  10.638  -0.670  0.0038 -1.1681  1.4481
  326MOL0     H43952   8.779  10.793  -0.625  0.4464 -0.3495 -1.7535
  326MOL0     H43953   8.970  10.714  -0.562 -1.1626  1.9621 -0.3194
  326MOL0     H43954   8.895  10.539  -0.546  0.9781  0.0355 -0.6991
  326MOL0     H43955   8.916  10.534  -0.797  0.1241  2.2951 -2.1333
  326MOL0     H43956   8.941  10.697  -0.803 -4.0971  0.3629  0.0153
  326MOL0     H43957   9.161  10.665  -0.680 -0.3440 -0.3290  2.0578
  326MOL0     H43958   9.139  10.610  -0.852 -1.3529  1.0837  0.3241
  326MOL0     H43959   9.117  10.407  -0.617 -1.2255 -0.4337  0.8449
  326MOL0     H43960   9.100  10.378  -0.790  0.8490 -0.5835  1.6362
  326MOL0     H43961   9.306  10.375  -0.939 -2.8679  1.9575 -0.1829
  326MOL0     H43962   9.513  10.380  -1.025  0.8029  0.9040 -0.0864
  326MOL0     H43963   9.650  10.458  -0.957 -1.8894  1.5948  0.0025
  326MOL0     H43964   9.703  10.231  -0.833  0.8424  1.6058 -0.0071
  326MOL0     H43965   9.592  10.156  -0.942  3.1162 -2.6015 -0.6613
  326MOL0     H43966   9.864  10.284  -1.007 -0.0022  0.6217 -2.2607
  326MOL0     H43967   9.737  10.271  -1.133  1.8256 -1.2763 -1.4123
  326MOL0     H43968   9.861  10.032  -0.978  1.5044 -2.9374 -1.9624
  326MOL0     H43969   9.912  10.099  -1.133 -1.5920 -0.9461 -2.9802
  326MOL0     H43970   9.976   9.909  -1.153 -1.9102  1.3852 -2.8458
  326MOL0     H43971  10.041   9.669  -1.165 -0.3453  0.8547  3.4132
  326MOL0     H43972  10.144   9.284  -1.402 -0.1938 -0.7713 -0.2660
  326MOL0     H43973  10.330   9.126  -1.327  1.9388  2.5700 -1.0211
  326MOL0     H43974  10.562   9.205  -1.037 -0.2928  0.3307  0.4822
  326MOL0     H43975  10.484   9.108  -0.912 -0.8313  0.3867 -0.5120
  326MOL0     H43976  10.639   8.988  -1.143 -3.5642 -0.5804 -0.3971
  326MOL0     H43977  10.723   9.025  -0.987  1.6738  0.7425 -2.6163
  326MOL0     H43978  10.604   8.846  -0.871 -2.7899 -0.1274  1.1624
  326MOL0     H43979  10.470   8.859  -0.957  0.1935 -1.6456  0.6140
  326MOL0     H43980  10.541   8.713  -1.151  0.6664 -2.4389 -1.3628
  326MOL0     H43981  10.591   8.647  -1.006 -3.0028  0.3696  0.6194
  326MOL0     H43982  10.826   8.777  -1.034 -2.5805 -1.1738  2.7673
  326MOL0     H43983  10.757   8.813  -1.192 -1.6116 -3.0040 -2.7271
  326MOL0     H43984  10.753   8.604  -1.272  2.6813  2.4410 -2.6622
  326MOL0     H43985  10.911   8.649  -1.202  0.0927 -1.6860 -1.8193
  326MOL0     H43986  10.731   8.428  -1.113  1.1887 -1.2993 -2.0129
  326MOL0     H43987  10.799   8.531  -0.984  3.0680  0.7488 -0.4527
  326MOL0     H43988  10.917   8.324  -1.044  1.1777  0.0105  0.3014
  326MOL0     H43989  11.005   8.411  -1.173 -2.3625 -1.0873 -1.8278
  326MOL0     H43990  10.252   9.240  -0.925  3.5060  2.6201  0.4574
  326MOL0     H43991  10.085   9.374  -0.988  0.8012 -0.2875  0.4591
  326MOL0     H43992   9.636   9.549  -1.155  0.4422 -1.4356  0.7846
  326MOL0     H43993   9.567   9.787  -1.145 -0.6094 -3.0630  1.2912
  326MOL0     H43994   8.669  10.905  -0.229 -2.6958 -2.3915 -0.4992
  326MOL0     H43995   8.775  11.105  -0.135 -0.4650  3.0349  2.6381
  326MOL0     H43996   8.714  11.571  -0.156 -3.4637 -0.9083  0.9789
  326MOL0     H43997   8.818  11.796  -0.141  1.8995 -1.9078 -0.0759
  326MOL0     H43998   8.926  11.941   0.258 -1.2007 -1.4730  0.9522
  326MOL0     H43999   8.772  11.992   0.240  0.1966 -0.6850  1.1578
  326MOL0     H44000   8.873  12.215   0.244 -0.8389  1.1908 -1.8094
  326MOL0     H44001   8.875  12.183   0.070 -0.7101 -0.3056 -0.1436
  326MOL0     H44002   9.096  12.259   0.132  2.1036 -1.5803 -3.1664
  326MOL0     H44003   9.109  12.081   0.112  0.0186 -0.9866  1.3768
  326MOL0     H44004   9.058  12.233   0.361 -1.6232  0.0481 -1.9712
  326MOL0     H44005   9.100  12.049   0.352 -2.0385 -0.3778 -0.9138
  326MOL0     H44006   9.491  12.224   0.342  0.8415 -0.5876 -1.1284
  326MOL0     H44007   8.817  11.769   0.285 -3.8303  2.1475  0.2040
  326MOL0     H44008   8.586  11.506   0.288  0.8331  1.2119 -2.5079
  326MOL0     H44009   8.765  11.448   0.327  0.7711 -0.1169  2.4060
  326MOL0     H44010   8.707  11.584   0.398  2.3655  4.2709 -3.2304
  327MOL0     O44011   7.584   6.732   2.419  0.2754 -0.2421  0.6531
  327MOL0     C44012   7.521   6.835   2.398 -0.2549  0.6598  0.0328
  327MOL0     O44013   7.580   6.956   2.379 -0.2278  0.4955 -0.4386
  327MOL0     C44014   7.703   6.979   2.440  0.8630 -0.4021 -0.3948
  327MOL0     C44015   7.811   7.019   2.362  0.0774  0.3625  0.2609
  327MOL0     C44016   7.937   7.053   2.414  0.9594 -0.2805 -0.2579
  327MOL0     C44017   7.958   7.048   2.555  0.3191 -0.4693  0.8529
  327MOL0     O44018   8.081   7.091   2.598 -0.4339  0.2365 -0.0485
  327MOL0     C44019   8.138   7.038   2.719 -0.9334  0.5442  0.7189
  327MOL0     C44020   8.291   7.054   2.698  0.4635 -0.2890 -0.4325
  327MOL0     C44021   8.348   6.951   2.603  0.2647  0.2246  0.0302
  327MOL0     C44022   8.501   6.966   2.589 -0.5979  0.4640  0.2064
  327MOL0     C44023   8.578   6.835   2.541  0.9319 -0.3489 -0.1700
  327MOL0     C44024   8.571   6.806   2.383  0.0400 -0.6964 -0.5461
  327MOL0     C44025   8.694   6.724   2.346 -0.7718 -0.0920  0.4216
  327MOL0     C44026   8.676   6.672   2.207 -0.4943 -0.0549 -0.0424
  327MOL0     N44027   8.800   6.610   2.155 -1.0948 -0.0629 -0.6145
  327MOL0     C44028   8.868   6.505   2.216  0.0144  0.5978  0.4257
  327MOL0     C44029   8.963   6.473   2.121  0.1324 -0.2364  0.3938
  327MOL0     C44030   9.044   6.343   2.124  0.0843 -0.6950  0.5742
  327MOL0     C44031   9.129   6.339   2.248 -0.4741 -0.7965 -0.1974
  327MOL0     C44032   9.249   6.425   2.250 -0.0912 -0.1215 -0.0686
  327MOL0     C44033   9.346   6.410   2.367 -0.5669 -1.2323 -0.1226
  327MOL0     O44034   9.358   6.271   2.393  0.5722 -0.1116  0.2681
  327MOL0     C44035   9.371   6.230   2.519  0.3641 -0.0668 -0.7156
  327MOL0     C44036   9.487   6.257   2.589  0.0239 -0.6101 -0.4284
  327MOL0     C44037   9.494   6.210   2.718  0.1082  0.0705  0.1017
  327MOL0     C44038   9.391   6.147   2.786 -0.7993 -0.0561  0.3036
  327MOL0     C44039   9.401   6.078   2.914 -0.1294 -0.3175  0.0622
  327MOL0     O44040   9.294   6.061   2.991 -0.0167  0.0080 -0.3500
  327MOL0     C44041   9.304   5.974   3.099 -0.3496 -0.2096  0.2790
  327MOL0     C44042   9.275   6.029   3.225 -0.1806  0.1753  1.0180
  327MOL0     C44043   9.276   5.956   3.336  0.3686  1.0780  0.0402
  327MOL0     C44044   9.292   5.820   3.334  0.1857 -0.0713  0.1238
  327MOL0     O44045   9.305   5.738   3.448  0.2419  0.3727 -0.0031
  327MOL0     C44046   9.268   5.797   3.577 -0.8846  0.6551  0.9742
  327MOL0     C44047   9.284   5.704   3.695 -0.1259 -0.8510 -0.8094
  327MOL0     C44048   9.230   5.779   3.816 -0.1463  0.3190 -0.4396
  327MOL0     C44049   9.218   5.695   3.950 -0.6287 -0.6778 -0.4487
  327MOL0     C44050   9.121   5.580   3.937  0.5499  0.9086 -0.0491
  327MOL0     C44051   9.134   5.480   4.055  0.2071 -0.9224 -0.3405
  327MOL0     C44052   9.030   5.361   4.050 -0.0623 -0.5139  0.7661
  327MOL0     C44053   8.924   5.357   4.162  0.0777  0.3932 -0.1020
  327MOL0    Cl44054   8.817   5.209   4.146  0.5137  0.5720 -0.6258
  327MOL0     C44055   9.316   5.761   3.208  0.3499 -0.3414 -0.6828
  327MOL0     C44056   9.331   5.842   3.089 -0.6109 -0.2558 -0.3977
  327MOL0     O44057   9.518   6.054   2.947 -0.6060  0.2846  0.7095
  327MOL0     C44058   9.276   6.128   2.712 -0.2986  0.3027 -0.2586
  327MOL0     C44059   9.266   6.155   2.579 -0.3320  0.0273  0.2428
  327MOL0     N44060   8.945   6.548   2.005 -0.0932  0.3200  0.0208
  327MOL0     N44061   8.860   6.639   2.041 -0.5533 -0.3125 -0.1986
  327MOL0     C44062   7.855   6.994   2.637  0.0332 -0.3491  0.2551
  327MOL0     C44063   7.728   6.960   2.578  0.0254  0.4018 -0.9376
  327MOL0     C44064   7.365   6.824   2.384 -0.6286 -0.1332 -0.1830
  327MOL0     C44065   7.297   6.945   2.383  0.4462 -0.1442 -0.1066
  327MOL0     C44066   7.159   6.955   2.385  0.6571 -1.0692 -0.6135
  327MOL0     C44067   7.082   6.838   2.372 -0.3556 -0.7990 -0.3191
  327MOL0     O44068   6.947   6.848   2.358  0.0039  0.5446 -0.4484
  327MOL0     C44069   6.927   6.915   2.232  0.3880  0.0322 -0.5896
  327MOL0     C44070   6.773   6.964   2.228  0.6136  0.3213  0.1016
  327MOL0     C44071   6.677   6.859   2.276  1.0186 -0.2403  0.4252
  327MOL0     C44072   6.687   6.729   2.202  0.4625 -0.1987 -0.5637
  327MOL0     C44073   6.705   6.717   2.050 -0.1790  0.2706 -0.2777
  327MOL0     C44074   6.714   6.706   1.930  0.0224 -0.3613 -0.6439
  327MOL0     C44075   7.150   6.711   2.347 -0.9005 -0.0097  0.4507
  327MOL0     C44076   7.291   6.709   2.361 -0.8865 -0.5035  1.0274
  327MOL0     C44077   7.362   6.581   2.340 -0.2164 -0.2617 -0.1199
  327MOL0     H44078   7.809   7.005   2.254 -1.7784  0.0562  0.2949
  327MOL0     H44079   8.023   7.078   2.352 -0.4050  0.8396 -1.8004
  327MOL0     H44080   8.105   7.097   2.805 -0.0267 -0.2814  1.6724
  327MOL0     H44081   8.125   6.931   2.740 -0.5621  0.1826 -0.7729
  327MOL0     H44082   8.326   7.022   2.797  1.1223  1.8358  0.0581
  327MOL0     H44083   8.315   7.155   2.666 -0.3776 -0.0312 -0.2498
  327MOL0     H44084   8.303   6.951   2.503 -1.6101 -1.3724  0.8205
  327MOL0     H44085   8.329   6.853   2.648 -0.1717  0.9370  1.4267
  327MOL0     H44086   8.521   7.044   2.515 -2.4124  0.6388 -0.1590
  327MOL0     H44087   8.551   6.990   2.683 -0.8247  0.1389  0.4127
  327MOL0     H44088   8.681   6.840   2.578  0.4144 -0.0066  1.2501
  327MOL0     H44089   8.549   6.743   2.591  1.7025  0.3706  1.6932
  327MOL0     H44090   8.480   6.748   2.365 -0.0104 -1.0580  0.7673
  327MOL0     H44091   8.575   6.892   2.316  1.2911 -0.1960  0.1435
  327MOL0     H44092   8.712   6.647   2.422 -0.1514 -2.3581 -1.8842
  327MOL0     H44093   8.787   6.782   2.349  0.5295 -2.0835 -0.1375
  327MOL0     H44094   8.591   6.604   2.204 -1.1803  0.8215 -1.2718
  327MOL0     H44095   8.641   6.747   2.136 -3.1966 -1.8906 -0.8060
  327MOL0     H44096   8.848   6.456   2.310 -0.4071  0.8068  0.4474
  327MOL0     H44097   8.966   6.268   2.115  0.1178 -0.4781 -3.0295
  327MOL0     H44098   9.114   6.327   2.041  1.1710 -0.5585  1.4449
  327MOL0     H44099   9.066   6.366   2.333 -0.0476 -1.4418  0.3285
  327MOL0     H44100   9.177   6.242   2.263  3.3516  1.0604  0.9639
  327MOL0     H44101   9.213   6.529   2.247 -1.9738 -0.4931  3.9948
  327MOL0     H44102   9.312   6.403   2.163  1.1772  2.6390  0.0409
  327MOL0     H44103   9.328   6.481   2.448 -2.6927 -3.0721  1.1355
  327MOL0     H44104   9.444   6.439   2.326 -1.9491  1.5998 -1.7516
  327MOL0     H44105   9.571   6.306   2.541  0.1815 -4.6486 -5.0963
  327MOL0     H44106   9.588   6.220   2.771  0.9483  1.5232 -1.5762
  327MOL0     H44107   9.249   6.133   3.237  3.0817  1.1254  0.7198
  327MOL0     H44108   9.264   6.015   3.426  0.1110 -0.8099  1.3112
  327MOL0     H44109   9.345   5.873   3.592 -0.1933  0.9900 -3.0230
  327MOL0     H44110   9.173   5.851   3.568 -0.9003  0.4518 -0.2148
  327MOL0     H44111   9.217   5.619   3.674 -1.0036 -0.3593 -0.0780
  327MOL0     H44112   9.387   5.670   3.707 -0.2915 -0.9285  0.5587
  327MOL0     H44113   9.297   5.862   3.838  1.4877 -0.4790 -2.1034
  327MOL0     H44114   9.131   5.816   3.791 -1.5826 -1.5153  2.0111
  327MOL0     H44115   9.187   5.765   4.028  0.6678  0.1973 -0.6796
  327MOL0     H44116   9.317   5.661   3.981 -0.8209  0.4860  1.6483
  327MOL0     H44117   9.123   5.528   3.842  0.4489  3.2311 -1.3967
  327MOL0     H44118   9.026   5.635   3.937  0.8600  1.4978  1.2048
  327MOL0     H44119   9.234   5.437   4.059 -0.3112 -2.1291  2.3940
  327MOL0     H44120   9.120   5.544   4.143  0.8036  3.4220 -3.1047
  327MOL0     H44121   9.096   5.274   4.043  2.3545  1.2335  0.8278
  327MOL0     H44122   8.980   5.373   3.954 -1.3808  3.5728  1.7609
  327MOL0     H44123   8.994   5.351   4.246  0.9370  1.3964 -0.7293
  327MOL0     H44124   8.858   5.443   4.176  0.8823  1.4137 -2.1683
  327MOL0     H44125   9.354   5.660   3.209  1.9072  0.2199 -0.0852
  327MOL0     H44126   9.365   5.792   2.999 -1.0308  1.1689 -1.3712
  327MOL0     H44127   9.194   6.073   2.757  1.4490 -0.2933  2.3950
  327MOL0     H44128   9.177   6.132   2.522 -0.2018  2.6506 -1.1593
  327MOL0     H44129   7.870   6.982   2.743 -1.3275  3.4841  1.0518
  327MOL0     H44130   7.647   6.929   2.643  1.0848 -0.9391 -0.2041
  327MOL0     H44131   7.360   7.033   2.387  1.4553 -0.8801  1.1403
  327MOL0     H44132   7.103   7.048   2.389 -3.2275 -3.2396  1.0712
  327MOL0     H44133   6.946   6.833   2.163 -0.2205 -0.5875 -0.0325
  327MOL0     H44134   6.995   6.998   2.211  0.1488  0.8089  1.4343
  327MOL0     H44135   6.744   6.996   2.127  0.1923 -0.2966  0.0166
  327MOL0     H44136   6.767   7.056   2.286 -0.1634  1.1160 -1.1966
  327MOL0     H44137   6.576   6.899   2.263 -0.7595 -3.5164  2.6995
  327MOL0     H44138   6.686   6.841   2.383  2.0342  1.7022  0.7236
  327MOL0     H44139   6.765   6.672   2.254  1.2615  1.0409 -0.3670
  327MOL0     H44140   6.592   6.678   2.220  1.3991 -1.2791  1.8717
  327MOL0     H44141   6.703   6.685   1.826 -0.8110 -2.5580 -0.1600
  327MOL0     H44142   7.096   6.620   2.323 -1.5769 -1.0018  4.8350
  327MOL0     H44143   7.451   6.600   2.279  0.4119  2.7129  1.5533
  327MOL0     H44144   7.374   6.545   2.443 -0.9866  0.2444  0.1515
  327MOL0     H44145   7.303   6.509   2.282  0.4135  0.4054 -1.6078
  328MOL0     O44146   8.041   7.463   4.021 -0.2052 -0.8619  0.6092
  328MOL0     C44147   8.075   7.474   3.898 -0.5411  0.2505  0.1375
  328MOL0     O44148   8.037   7.581   3.817 -0.9568 -0.5760 -0.2279
  328MOL0     C44149   7.975   7.692   3.869  0.3119 -0.8135  0.7493
  328MOL0     C44150   7.853   7.678   3.939 -0.5865 -1.0523  0.7393
  328MOL0     C44151   7.781   7.778   4.001 -0.6859 -0.0782 -0.4511
  328MOL0     C44152   7.835   7.906   3.995  0.0589 -0.5628 -0.9244
  328MOL0     O44153   7.777   8.002   4.063  0.2160 -0.5529  0.1420
  328MOL0     C44154   7.674   7.982   4.168  0.1471  0.1329 -0.2390
  328MOL0     C44155   7.637   8.109   4.242 -0.5185  0.1285  0.3671
  328MOL0     C44156   7.535   8.108   4.358  0.6735  0.4062 -0.3532
  328MOL0     C44157   7.447   8.233   4.353  0.1376  0.5549 -0.4391
  328MOL0     C44158   7.321   8.239   4.429  0.8837 -0.0431  0.0504
  328MOL0     C44159   7.253   8.375   4.402  0.1369 -0.3039  0.2012
  328MOL0     C44160   7.102   8.352   4.433 -0.3365  0.3040 -0.3458
  328MOL0     C44161   7.066   8.301   4.576  0.2544  0.9595 -1.1089
  328MOL0     N44162   7.112   8.385   4.682 -0.3305 -0.7387 -0.4040
  328MOL0     C44163   7.046   8.497   4.712  1.3426  0.0483  0.3894
  328MOL0     C44164   7.116   8.558   4.805  0.2740 -0.4842 -0.0403
  328MOL0     C44165   7.089   8.687   4.879 -0.3449  0.3593 -0.0697
  328MOL0     C44166   6.977   8.667   4.980  0.3657  0.1229 -0.1696
  328MOL0     C44167   6.930   8.792   5.055 -1.0032  0.3464 -0.2248
  328MOL0     C44168   6.813   8.847   4.982 -0.1741  0.1009  0.3455
  328MOL0     O44169   6.707   8.749   5.010  0.3701  0.5293  0.0517
  328MOL0     C44170   6.622   8.731   4.906 -0.0785 -0.2174 -0.2357
  328MOL0     C44171   6.591   8.824   4.805  0.4092 -0.3884 -0.6700
  328MOL0     C44172   6.504   8.802   4.702  0.4061  0.0789 -0.5047
  328MOL0     C44173   6.443   8.671   4.692  0.2645  0.5889  0.7452
  328MOL0     C44174   6.363   8.640   4.573 -0.2071 -1.4770 -0.6328
  328MOL0     O44175   6.369   8.732   4.474 -0.0755  0.2672  0.1062
  328MOL0     C44176   6.286   8.723   4.362  0.8549 -0.1552  0.1164
  328MOL0     C44177   6.287   8.617   4.272 -0.7183  0.5031 -0.4412
  328MOL0     C44178   6.211   8.609   4.161  0.6691 -0.0957  0.3458
  328MOL0     C44179   6.111   8.711   4.142 -0.1600 -0.1082  1.1625
  328MOL0     O44180   6.029   8.713   4.032 -0.3824  0.5347  0.0649
  328MOL0     C44181   5.889   8.705   4.049 -0.6441 -1.2233  0.1328
  328MOL0     C44182   5.821   8.664   3.910 -0.3882  0.6211 -0.3491
  328MOL0     C44183   5.860   8.529   3.856  0.3274  0.2239  0.3535
  328MOL0     C44184   5.794   8.509   3.715 -0.8232  0.2552  0.4710
  328MOL0     C44185   5.904   8.526   3.593 -0.8099 -0.4577  0.8821
  328MOL0     C44186   5.970   8.389   3.560  1.0266 -0.6704 -0.2569
  328MOL0     C44187   5.902   8.294   3.459 -0.1738 -0.7345 -0.0537
  328MOL0     C44188   5.756   8.275   3.472  1.2141 -0.0142 -0.0627
  328MOL0    Cl44189   5.665   8.401   3.395 -0.1457 -0.9673  0.2763
  328MOL0     C44190   6.095   8.813   4.239 -0.2861 -0.7059 -0.1600
  328MOL0     C44191   6.187   8.815   4.337  0.6160 -0.3221 -0.0810
  328MOL0     O44192   6.312   8.529   4.557 -0.1137 -0.7067 -0.8457
  328MOL0     C44193   6.463   8.582   4.799 -0.1152  0.8238 -0.2240
  328MOL0     C44194   6.557   8.609   4.900  0.6861  0.8460  0.3469
  328MOL0     N44195   7.237   8.494   4.821 -0.0909  0.1547 -0.2408
  328MOL0     N44196   7.226   8.385   4.751  0.5104 -0.1405 -0.1738
  328MOL0     C44197   7.951   7.922   3.925 -0.5450 -0.5338 -0.7932
  328MOL0     C44198   8.026   7.828   3.862 -0.0759  0.1676  0.5101
  328MOL0     C44199   8.137   7.361   3.830  1.2968 -0.1019  0.5181
  328MOL0     C44200   8.175   7.382   3.692 -0.1562  0.5709 -0.5556
  328MOL0     C44201   8.243   7.284   3.621 -0.9678  0.2153 -0.4381
  328MOL0     C44202   8.255   7.158   3.674 -0.2572 -0.1261 -0.3868
  328MOL0     O44203   8.299   7.060   3.595  0.0853  0.6835 -0.0898
  328MOL0     C44204   8.404   6.976   3.658  0.5207 -1.1039  0.5066
  328MOL0     C44205   8.340   6.849   3.721 -0.6637 -0.6455  0.0548
  328MOL0     C44206   8.447   6.772   3.792 -0.4720  0.4780  1.0306
  328MOL0     C44207   8.519   6.827   3.923 -0.0586 -0.4359  0.5652
  328MOL0     C44208   8.424   6.827   4.028  0.4204 -0.4125 -1.0127
  328MOL0     C44209   8.349   6.829   4.131  0.4150  1.0848  0.5365
  328MOL0     C44210   8.226   7.145   3.816  0.5534 -0.5147  0.2778
  328MOL0     C44211   8.161   7.239   3.892  0.2961  0.5946  0.1975
  328MOL0     C44212   8.118   7.202   4.024  0.5314 -0.3637  0.8624
  328MOL0     H44213   7.810   7.579   3.949  1.3895 -1.9209  0.9349
  328MOL0     H44214   7.683   7.746   4.033 -0.2348 -1.4301 -0.3331
  328MOL0     H44215   7.588   7.926   4.131  0.9500  1.1192 -4.1007
  328MOL0     H44216   7.723   7.915   4.240  0.3857  0.6618  0.0947
  328MOL0     H44217   7.601   8.178   4.165  1.1898  1.3439  0.5933
  328MOL0     H44218   7.728   8.152   4.286  0.0014 -3.1397  2.8501
  328MOL0     H44219   7.594   8.091   4.448  0.8018 -5.7214 -1.1979
  328MOL0     H44220   7.469   8.022   4.350 -0.2727  1.0884 -0.0823
  328MOL0     H44221   7.504   8.311   4.405  0.3695 -0.3403  0.6847
  328MOL0     H44222   7.430   8.268   4.251  3.8021 -1.7543 -2.0875
  328MOL0     H44223   7.249   8.159   4.406 -0.1062  0.9541 -0.3932
  328MOL0     H44224   7.336   8.232   4.537  1.0084  0.9244  0.1020
  328MOL0     H44225   7.279   8.458   4.468  1.3893  1.3841 -2.2125
  328MOL0     H44226   7.268   8.407   4.298 -2.4140 -0.0036 -0.1375
  328MOL0     H44227   7.077   8.273   4.362  0.3413 -0.5840  0.3753
  328MOL0     H44228   7.055   8.441   4.391 -0.5101 -0.6964 -2.3975
  328MOL0     H44229   6.958   8.284   4.585  0.5570  0.1692  3.3849
  328MOL0     H44230   7.103   8.198   4.580 -1.6783  0.2559  1.4597
  328MOL0     H44231   6.953   8.525   4.662  1.4703 -0.9420 -0.4313
  328MOL0     H44232   7.182   8.717   4.929  0.4223  0.4749 -1.5270
  328MOL0     H44233   7.073   8.771   4.812  0.9069 -0.7833 -1.8854
  328MOL0     H44234   6.908   8.611   4.916 -0.0108  0.8583 -0.4083
  328MOL0     H44235   7.022   8.604   5.058  0.7654 -1.2733 -1.4661
  328MOL0     H44236   7.013   8.862   5.063  0.9397 -2.0052  2.3879
  328MOL0     H44237   6.895   8.765   5.155 -3.2484  0.2253 -0.9943
  328MOL0     H44238   6.846   8.860   4.878 -0.6332 -0.2937  0.1461
  328MOL0     H44239   6.790   8.944   5.027  0.0130 -0.1020  0.8875
  328MOL0     H44240   6.630   8.924   4.821  0.1064 -0.5549  1.3753
  328MOL0     H44241   6.506   8.870   4.618  0.3520 -1.6656 -1.9733
  328MOL0     H44242   6.372   8.550   4.284 -0.6018  0.5233 -1.1193
  328MOL0     H44243   6.224   8.536   4.082  0.3534 -0.5194  0.6767
  328MOL0     H44244   5.864   8.635   4.130 -0.0411 -2.3043 -0.5826
  328MOL0     H44245   5.862   8.803   4.088  0.9124 -0.8003  0.2443
  328MOL0     H44246   5.714   8.671   3.930 -0.4961  3.1496 -1.4660
  328MOL0     H44247   5.850   8.742   3.839  3.5145 -3.2188 -3.5168
  328MOL0     H44248   5.967   8.528   3.833  0.0672  0.9684 -1.0039
  328MOL0     H44249   5.839   8.447   3.925  2.9850  0.1322  1.1240
  328MOL0     H44250   5.726   8.593   3.694 -0.4013 -0.0575 -2.4910
  328MOL0     H44251   5.721   8.428   3.718 -0.2753 -0.2101  2.1352
  328MOL0     H44252   5.967   8.611   3.619 -2.4874  1.5601 -1.2433
  328MOL0     H44253   5.845   8.545   3.502 -0.4354  1.6599  1.0449
  328MOL0     H44254   6.073   8.412   3.531  1.4110  1.8701  2.6276
  328MOL0     H44255   5.985   8.339   3.656 -0.1090 -0.6132 -0.0429
  328MOL0     H44256   5.953   8.199   3.475  0.2214 -0.2101  2.0564
  328MOL0     H44257   5.921   8.324   3.356  0.1074  2.1432  0.7517
  328MOL0     H44258   5.740   8.180   3.421  3.2654  0.2419 -1.2702
  328MOL0     H44259   5.726   8.265   3.577  0.0693 -0.9609 -0.4572
  328MOL0     H44260   6.017   8.885   4.216 -0.0046 -0.8970 -1.8535
  328MOL0     H44261   6.174   8.911   4.387 -1.5723  0.3910 -1.8279
  328MOL0     H44262   6.420   8.483   4.792 -0.6272  1.0823 -0.7016
  328MOL0     H44263   6.575   8.534   4.975  1.1648  0.7140  0.1037
  328MOL0     H44264   7.983   8.025   3.916  1.0735 -0.7322  1.7076
  328MOL0     H44265   8.122   7.859   3.822  1.1040 -0.2570  2.8250
  328MOL0     H44266   8.174   7.476   3.638 -1.0541 -0.7476 -2.9943
  328MOL0     H44267   8.248   7.294   3.513 -3.0243 -1.6357 -0.7766
  328MOL0     H44268   8.457   7.033   3.735 -2.0249 -2.1099  3.2240
  328MOL0     H44269   8.463   6.939   3.574 -2.3910 -1.7889 -1.4046
  328MOL0     H44270   8.313   6.781   3.640  0.0899 -0.0657 -0.7024
  328MOL0     H44271   8.256   6.853   3.790  2.9577 -1.4957  5.0803
  328MOL0     H44272   8.532   6.760   3.724 -0.7764 -1.6189  0.9610
  328MOL0     H44273   8.408   6.672   3.816 -1.1126  0.3151 -0.5472
  328MOL0     H44274   8.600   6.758   3.950 -0.4448 -1.1721 -0.1299
  328MOL0     H44275   8.556   6.928   3.905  0.5850 -0.8479 -0.4643
  328MOL0     H44276   8.294   6.828   4.222  1.0837  0.2234  0.9469
  328MOL0     H44277   8.247   7.051   3.865  1.9064  0.5142  1.8086
  328MOL0     H44278   8.137   7.098   4.050  2.8955  0.1409  1.4310
  328MOL0     H44279   8.158   7.278   4.091 -1.0983 -0.4479  1.9858
  328MOL0     H44280   8.010   7.219   4.029  0.9676  2.7361  2.3436
  329MOL0     O44281   3.130   7.481  11.273 -0.4224  0.6255 -0.0233
  329MOL0     C44282   3.203   7.493  11.370 -0.2291 -0.7175 -0.8179
  329MOL0     O44283   3.309   7.414  11.395  0.5860  0.1874 -0.3104
  329MOL0     C44284   3.372   7.356  11.282 -0.2170 -0.2774  0.1924
  329MOL0     C44285   3.422   7.222  11.281 -0.0472 -0.0646  0.2903
  329MOL0     C44286   3.486   7.167  11.175 -1.2198 -0.4392 -0.2133
  329MOL0     C44287   3.512   7.251  11.061  0.1033  0.0332  0.2447
  329MOL0     O44288   3.593   7.223  10.958 -0.0448  0.3671 -0.2722
  329MOL0     C44289   3.629   7.089  10.916 -0.7126 -0.0783  0.1478
  329MOL0     C44290   3.711   7.089  10.795 -0.0073 -0.3278  0.9336
  329MOL0     C44291   3.853   7.152  10.796  0.0030  0.3909 -0.2376
  329MOL0     C44292   3.945   7.096  10.690  0.1724  0.5156 -0.6923
  329MOL0     C44293   4.076   7.175  10.663 -0.1377 -0.7837  0.2189
  329MOL0     C44294   4.186   7.158  10.771 -1.1574 -0.0705 -0.4720
  329MOL0     C44295   4.304   7.263  10.732  0.1881  0.3115  0.9889
  329MOL0     C44296   4.422   7.280  10.840 -0.3875 -0.3911  0.3166
  329MOL0     N44297   4.519   7.180  10.828  0.2855  0.9432 -0.2098
  329MOL0     C44298   4.642   7.195  10.774  0.0566 -0.3051 -0.0748
  329MOL0     C44299   4.691   7.068  10.758 -0.3498 -0.3711  0.6223
  329MOL0     C44300   4.833   7.054  10.700  0.6857 -0.2887 -0.0282
  329MOL0     C44301   4.937   7.050  10.809 -0.3662 -0.3364  0.9656
  329MOL0     C44302   5.074   7.008  10.760  0.4046 -0.2067 -0.2608
  329MOL0     C44303   5.091   6.865  10.702  0.1662 -0.3511 -0.5064
  329MOL0     O44304   5.063   6.757  10.791  0.6137  0.0985  0.0484
  329MOL0     C44305   5.063   6.624  10.738  0.7816  0.0987 -0.8613
  329MOL0     C44306   5.075   6.519  10.833 -0.2650 -1.3895  0.1926
  329MOL0     C44307   5.093   6.387  10.791  0.3390  0.2555 -0.1846
  329MOL0     C44308   5.089   6.351  10.661 -0.3821 -0.4648 -0.5547
  329MOL0     C44309   5.121   6.210  10.632  0.0729  0.8156 -1.0712
  329MOL0     O44310   5.095   6.120  10.734  0.0002 -0.0216  0.2640
  329MOL0     C44311   5.130   5.997  10.694  0.5000 -0.6275  0.2313
  329MOL0     C44312   5.056   5.912  10.619  0.0318 -0.6640 -0.4447
  329MOL0     C44313   5.097   5.790  10.569 -0.4194  0.5776 -0.4141
  329MOL0     C44314   5.219   5.745  10.602  0.2407 -0.7576  0.2442
  329MOL0     O44315   5.283   5.632  10.558 -0.3361 -0.9079  0.3699
  329MOL0     C44316   5.211   5.521  10.524 -0.4236  0.2269 -1.0015
  329MOL0     C44317   5.291   5.405  10.479 -0.1942  0.6103 -0.0665
  329MOL0     C44318   5.196   5.285  10.473 -0.1253  0.8739 -0.3165
  329MOL0     C44319   5.268   5.165  10.414  0.2242  0.5091  0.8996
  329MOL0     C44320   5.341   5.083  10.522  0.0843 -0.6201 -0.9110
  329MOL0     C44321   5.403   4.958  10.478  0.4111  0.6033  0.5840
  329MOL0     C44322   5.515   4.979  10.371  0.3475 -0.0922  0.0603
  329MOL0     C44323   5.606   4.853  10.372 -0.3458 -0.0344  1.2344
  329MOL0    Cl44324   5.706   4.838  10.520  0.0469  0.4210 -0.6478
  329MOL0     C44325   5.298   5.816  10.695  0.0609 -0.7527  0.4069
  329MOL0     C44326   5.245   5.941  10.740  0.1210 -0.3352  0.3087
  329MOL0     O44327   5.137   6.187  10.514  0.4055 -0.0042  0.4725
  329MOL0     C44328   5.085   6.451  10.558 -0.5068  0.8566 -0.2160
  329MOL0     C44329   5.061   6.582  10.602  0.1548  0.7470  0.3643
  329MOL0     N44330   4.589   6.979  10.797  0.0914  0.1202  0.4009
  329MOL0     N44331   4.489   7.044  10.838 -0.6522 -0.2071  0.0280
  329MOL0     C44332   3.464   7.377  11.054  0.0664 -0.8945  0.4273
  329MOL0     C44333   3.395   7.431  11.164  0.0556 -0.3794 -0.1714
  329MOL0     C44334   3.186   7.612  11.455 -0.1476 -1.1174  0.2145
  329MOL0     C44335   3.276   7.629  11.564 -0.2028 -0.8442  0.7277
  329MOL0     C44336   3.282   7.738  11.657  0.2825  0.1817 -0.4081
  329MOL0     C44337   3.192   7.840  11.634 -1.3628  0.0862  0.4007
  329MOL0     O44338   3.183   7.954  11.712 -0.3791  0.8664  0.0128
  329MOL0     C44339   3.281   7.973  11.815  0.8552 -0.4522  0.4007
  329MOL0     C44340   3.242   8.105  11.888 -0.3958 -0.0743 -0.1249
  329MOL0     C44341   3.262   8.216  11.776  0.3719  0.3046 -0.6466
  329MOL0     C44342   3.270   8.363  11.836  0.8723  0.5970 -0.6867
  329MOL0     C44343   3.398   8.402  11.907  0.1283  0.8228  0.0558
  329MOL0     C44344   3.502   8.437  11.951 -0.2897 -0.5343  0.0733
  329MOL0     C44345   3.105   7.831  11.526 -1.3046  0.3051 -0.1354
  329MOL0     C44346   3.096   7.726  11.438  0.2742  0.0974 -0.0354
  329MOL0     C44347   2.987   7.722  11.337 -0.2645  0.2719  0.2578
  329MOL0     H44348   3.423   7.171  11.377 -0.0733  2.4998  1.7706
  329MOL0     H44349   3.538   7.072  11.175 -1.2973 -0.4847  0.0958
  329MOL0     H44350   3.685   7.041  10.996  0.5873  0.8870 -0.1539
  329MOL0     H44351   3.543   7.024  10.897 -0.2388 -1.2442  1.7740
  329MOL0     H44352   3.656   7.150  10.722 -0.1643 -0.0007  1.3245
  329MOL0     H44353   3.717   6.983  10.766  3.0803  0.4486 -1.8547
  329MOL0     H44354   3.904   7.130  10.890 -0.4522  0.4625  0.0301
  329MOL0     H44355   3.855   7.260  10.781  1.4061  0.6137  1.3156
  329MOL0     H44356   3.971   6.992  10.710  3.5233  0.3361 -4.5261
  329MOL0     H44357   3.890   7.093  10.595  0.6596  0.0647 -0.9669
  329MOL0     H44358   4.115   7.146  10.565  2.1515 -0.3699  0.9464
  329MOL0     H44359   4.048   7.281  10.658 -1.3420 -1.1162 -0.8399
  329MOL0     H44360   4.144   7.188  10.867 -0.3358 -1.2541  0.2865
  329MOL0     H44361   4.220   7.054  10.772 -3.4524 -0.9002  0.9955
  329MOL0     H44362   4.256   7.360  10.721  0.2759  0.1655 -0.9019
  329MOL0     H44363   4.342   7.233  10.634  0.1350 -3.0177  1.8611
  329MOL0     H44364   4.467   7.379  10.829 -0.4459 -0.5989 -2.6787
  329MOL0     H44365   4.373   7.270  10.937  0.2777 -0.5119  0.6448
  329MOL0     H44366   4.699   7.286  10.756 -0.3149 -0.0719 -0.0648
  329MOL0     H44367   4.838   6.955  10.653  1.9025 -0.6283  0.7660
  329MOL0     H44368   4.858   7.136  10.633  2.8977  1.0715  2.2761
  329MOL0     H44369   4.949   7.143  10.864  1.9557 -0.1477  0.2361
  329MOL0     H44370   4.901   6.971  10.876 -4.3056 -0.0786 -0.5910
  329MOL0     H44371   5.146   7.023  10.841 -0.4369 -0.4560  0.5619
  329MOL0     H44372   5.119   7.082  10.694 -0.9045  1.6050  0.7768
  329MOL0     H44373   5.194   6.864  10.664  0.7254 -0.5714  0.9585
  329MOL0     H44374   5.009   6.857  10.630 -1.3751 -3.5062  1.4063
  329MOL0     H44375   5.087   6.554  10.935 -1.4425 -1.8212  0.4934
  329MOL0     H44376   5.117   6.313  10.867 -2.3527  0.7635  1.2787
  329MOL0     H44377   4.958   5.950  10.592 -2.3457 -3.4833  3.0904
  329MOL0     H44378   5.035   5.730  10.503 -1.5217  1.6037 -0.3307
  329MOL0     H44379   5.176   5.481  10.620  0.6888  0.7294 -0.3593
  329MOL0     H44380   5.137   5.558  10.453  0.4237  0.8301 -1.5939
  329MOL0     H44381   5.343   5.418  10.383  0.8316 -2.2985 -0.0124
  329MOL0     H44382   5.376   5.394  10.548  0.8896 -2.9193 -1.7287
  329MOL0     H44383   5.166   5.267  10.577 -0.6241  3.0532 -0.0316
  329MOL0     H44384   5.104   5.302  10.417  0.4836  2.9474 -0.7811
  329MOL0     H44385   5.340   5.202  10.341  0.0246 -1.2543 -0.2581
  329MOL0     H44386   5.192   5.104  10.364 -1.7241  1.2713  2.7462
  329MOL0     H44387   5.269   5.054  10.600  0.1961  0.6924 -0.3076
  329MOL0     H44388   5.404   5.146  10.585  0.0029  0.3529 -1.7987
  329MOL0     H44389   5.449   4.907  10.563  0.8883 -2.3060 -1.2883
  329MOL0     H44390   5.324   4.897  10.434 -0.2972 -0.1573  2.7728
  329MOL0     H44391   5.575   5.067  10.398 -0.0449  0.6804 -1.4865
  329MOL0     H44392   5.475   4.994  10.271  3.1078 -0.7346 -1.2350
  329MOL0     H44393   5.556   4.758  10.348  0.6702 -0.5048  0.9354
  329MOL0     H44394   5.677   4.877  10.293 -0.7321  0.2300  0.9599
  329MOL0     H44395   5.374   5.758  10.747 -1.1988  1.9039  5.9163
  329MOL0     H44396   5.291   5.994  10.823  1.7108  1.9044 -1.8211
  329MOL0     H44397   5.076   6.412  10.458 -0.3319 -0.6275  0.3232
  329MOL0     H44398   5.046   6.659  10.526 -1.5372  0.0756 -0.0052
  329MOL0     H44399   3.484   7.451  10.977 -1.6150  0.3568  1.1362
  329MOL0     H44400   3.349   7.528  11.149 -0.5866 -0.6271  0.1703
  329MOL0     H44401   3.344   7.546  11.580 -0.1875 -1.3530 -1.6450
  329MOL0     H44402   3.359   7.739  11.734  1.6530 -0.5160 -1.7080
  329MOL0     H44403   3.377   7.980  11.764 -1.1001 -1.0606 -3.8292
  329MOL0     H44404   3.280   7.884  11.879  1.4463 -1.3730 -0.8319
  329MOL0     H44405   3.304   8.134  11.974  1.1381  3.1287 -2.1121
  329MOL0     H44406   3.140   8.102  11.928  0.1639  0.4047  1.4361
  329MOL0     H44407   3.170   8.210  11.716 -0.1334 -1.2052  0.2259
  329MOL0     H44408   3.350   8.188  11.718 -0.5862 -0.1194 -1.9345
  329MOL0     H44409   3.251   8.423  11.747 -0.2605 -4.0841 -4.0234
  329MOL0     H44410   3.190   8.364  11.911  3.5566  0.1105  2.4136
  329MOL0     H44411   3.602   8.454  11.986 -0.5114  1.4679 -0.1518
  329MOL0     H44412   3.036   7.914  11.519 -2.1158 -0.2082  1.3970
  329MOL0     H44413   3.021   7.726  11.233  1.0766  3.8923  0.7151
  329MOL0     H44414   2.930   7.633  11.364 -0.1490  0.2926  0.5781
  329MOL0     H44415   2.928   7.813  11.348 -2.4345 -0.7778 -1.8166
  330MOL0     O44416   5.002   1.281   2.735  0.1876 -0.5434  0.2747
  330MOL0     C44417   4.944   1.172   2.756 -0.1527 -0.5497  0.2601
  330MOL0     O44418   5.003   1.051   2.784 -0.9598  0.3245  0.2096
  330MOL0     C44419   5.132   1.033   2.761  0.7421 -0.0126 -0.6712
  330MOL0     C44420   5.198   1.036   2.643  0.1431 -0.2785 -0.1261
  330MOL0     C44421   5.342   1.013   2.632 -0.1611  0.0472 -0.9188
  330MOL0     C44422   5.410   0.978   2.752 -0.4431 -0.2649  0.3669
  330MOL0     O44423   5.552   0.961   2.743  0.6389  0.2976 -0.2018
  330MOL0     C44424   5.624   0.913   2.849 -0.3009 -0.6408 -0.6985
  330MOL0     C44425   5.655   1.037   2.925 -0.6571 -0.0306 -0.1235
  330MOL0     C44426   5.785   1.023   2.995 -0.3866 -0.5973 -0.2458
  330MOL0     C44427   5.907   1.053   2.903 -0.2953  0.5789 -0.0656
  330MOL0     C44428   6.043   1.075   2.969 -0.7118 -0.3744 -0.7459
  330MOL0     C44429   6.149   1.153   2.889  0.0721  0.2001 -0.8958
  330MOL0     C44430   6.287   1.101   2.929 -0.3827 -0.7756 -0.9092
  330MOL0     C44431   6.399   1.154   2.838  0.1232 -0.3473 -0.3919
  330MOL0     N44432   6.413   1.302   2.825 -0.0456  0.4768 -0.4867
  330MOL0     C44433   6.481   1.376   2.917 -1.1653  0.1366  0.2647
  330MOL0     C44434   6.480   1.499   2.862 -0.3538 -0.8560  0.1947
  330MOL0     C44435   6.568   1.619   2.904 -0.4025 -0.1486  0.1300
  330MOL0     C44436   6.555   1.677   3.050  0.8008 -0.5423  0.7501
  330MOL0     C44437   6.584   1.584   3.166 -0.2894 -0.0572  0.6453
  330MOL0     C44438   6.625   1.669   3.289  0.7742  0.3556 -0.5146
  330MOL0     O44439   6.541   1.777   3.298 -0.1214  0.1578  0.1123
  330MOL0     C44440   6.537   1.842   3.419  0.6709  0.4088  0.1509
  330MOL0     C44441   6.479   1.980   3.421  0.5253  0.0660 -0.3065
  330MOL0     C44442   6.485   2.065   3.537  0.4144 -0.0387 -0.3327
  330MOL0     C44443   6.539   2.010   3.655  0.6528  0.6543 -0.4610
  330MOL0     C44444   6.527   2.101   3.771 -0.1276  0.7085 -0.3977
  330MOL0     O44445   6.444   2.209   3.763  0.4136  0.3757 -1.0828
  330MOL0     C44446   6.395   2.280   3.870 -0.0770 -0.1948 -0.5155
  330MOL0     C44447   6.258   2.274   3.903  0.3703  0.5250 -1.2556
  330MOL0     C44448   6.208   2.344   4.012 -0.0366  1.2522  0.1251
  330MOL0     C44449   6.290   2.429   4.080  0.1949 -0.3469  0.8408
  330MOL0     O44450   6.246   2.480   4.198  0.8096 -1.0270 -0.0117
  330MOL0     C44451   6.295   2.612   4.239 -0.6469  0.1939 -0.1145
  330MOL0     C44452   6.208   2.657   4.350 -0.7463 -0.1995  0.3653
  330MOL0     C44453   6.219   2.809   4.363 -0.1846 -0.2867  0.6484
  330MOL0     C44454   6.185   2.859   4.505 -0.5655 -0.7505 -0.2384
  330MOL0     C44455   6.036   2.861   4.533 -1.0549  1.4664 -0.1016
  330MOL0     C44456   5.992   2.887   4.674 -0.3507  0.1325 -0.9354
  330MOL0     C44457   6.043   2.772   4.765 -0.6758  0.7590 -0.3654
  330MOL0     C44458   5.999   2.794   4.906 -0.9881  0.4392  0.3803
  330MOL0    Cl44459   6.064   2.949   4.969 -0.2717 -0.1524  0.1107
  330MOL0     C44460   6.427   2.447   4.041  0.1341  1.0761 -0.6920
  330MOL0     C44461   6.475   2.374   3.937  0.4974  0.4002 -0.1576
  330MOL0     O44462   6.594   2.063   3.874  0.9339 -0.1746 -0.3791
  330MOL0     C44463   6.589   1.878   3.668  0.5211  0.2328 -0.7492
  330MOL0     C44464   6.593   1.795   3.545 -0.4380 -0.2869  1.0943
  330MOL0     N44465   6.428   1.501   2.735 -0.5105 -0.1213 -0.7746
  330MOL0     N44466   6.375   1.385   2.720 -0.0476 -0.5312 -0.6109
  330MOL0     C44467   5.340   0.973   2.868 -0.2107  0.0676 -0.5304
  330MOL0     C44468   5.208   1.004   2.876 -0.7052 -0.3538 -0.1722
  330MOL0     C44469   4.797   1.183   2.733  0.3806  0.5414  0.5512
  330MOL0     C44470   4.741   1.286   2.656  0.0263 -0.2990  0.7504
  330MOL0     C44471   4.612   1.299   2.627  1.3309  0.5085 -0.0517
  330MOL0     C44472   4.523   1.186   2.665 -1.3488 -0.4045 -0.8148
  330MOL0     O44473   4.391   1.184   2.647 -0.1549  0.6237 -0.6986
  330MOL0     C44474   4.332   1.313   2.644  0.3046 -0.1067 -0.2612
  330MOL0     C44475   4.175   1.302   2.674 -0.8007  0.4998  0.0449
  330MOL0     C44476   4.114   1.442   2.694  0.4157 -0.1129  0.5088
  330MOL0     C44477   4.175   1.545   2.600 -0.1489 -0.1999  0.2967
  330MOL0     C44478   4.091   1.660   2.616  0.0132 -0.9371  0.0073
  330MOL0     C44479   4.031   1.761   2.641 -0.1737 -1.0122 -1.9029
  330MOL0     C44480   4.577   1.080   2.730  0.9633  0.5801 -0.4201
  330MOL0     C44481   4.712   1.069   2.768  1.3771  0.4980  0.0471
  330MOL0     C44482   4.756   0.952   2.859 -0.9008  0.5259  0.2490
  330MOL0     H44483   5.128   1.056   2.562 -0.7277 -2.2635  0.0750
  330MOL0     H44484   5.387   1.036   2.536 -3.5309 -1.9177 -3.1855
  330MOL0     H44485   5.587   0.831   2.910 -1.7218  0.5669  0.1133
  330MOL0     H44486   5.718   0.877   2.806 -1.1190 -0.0263 -3.1585
  330MOL0     H44487   5.574   1.052   2.996  0.3074 -1.0848  1.2617
  330MOL0     H44488   5.648   1.128   2.865 -1.1923 -1.0773 -1.7162
  330MOL0     H44489   5.792   0.929   3.050 -1.6652 -0.8218 -0.4343
  330MOL0     H44490   5.791   1.107   3.065  0.1033  0.4750 -1.5277
  330MOL0     H44491   5.911   0.976   2.825 -3.7343  0.9342 -0.7544
  330MOL0     H44492   5.883   1.146   2.850 -0.8219 -0.0409 -0.9384
  330MOL0     H44493   6.025   1.127   3.064  3.0643  4.1051 -2.1612
  330MOL0     H44494   6.088   0.979   2.999  1.7824  0.5735 -1.2340
  330MOL0     H44495   6.136   1.138   2.781 -0.3448  1.3453 -1.0102
  330MOL0     H44496   6.131   1.258   2.912 -2.2450 -0.4027  0.2522
  330MOL0     H44497   6.296   0.993   2.944 -0.6717 -0.7616 -0.6092
  330MOL0     H44498   6.299   1.146   3.028  0.2909 -1.4951 -0.6545
  330MOL0     H44499   6.497   1.116   2.867  0.0779 -1.1968 -1.2775
  330MOL0     H44500   6.380   1.112   2.738 -0.0131 -1.0247 -0.0832
  330MOL0     H44501   6.541   1.348   3.002  2.3160 -1.5347 -2.4903
  330MOL0     H44502   6.671   1.582   2.896  0.3582  1.6039  1.2668
  330MOL0     H44503   6.570   1.708   2.841  1.6265  0.4742  1.0191
  330MOL0     H44504   6.607   1.770   3.072 -1.3158  0.6904  0.8973
  330MOL0     H44505   6.449   1.706   3.059  1.0854  1.2727 -0.8982
  330MOL0     H44506   6.660   1.508   3.144 -2.8862 -2.8724  0.6818
  330MOL0     H44507   6.496   1.522   3.186 -0.9353  0.9637  1.0483
  330MOL0     H44508   6.732   1.693   3.289  1.1058 -0.9265  1.4612
  330MOL0     H44509   6.607   1.609   3.378  2.5453  1.8905  0.9652
  330MOL0     H44510   6.428   2.011   3.330 -2.7927 -3.8277 -0.0876
  330MOL0     H44511   6.431   2.157   3.519 -2.8415 -2.1310 -2.4088
  330MOL0     H44512   6.194   2.204   3.851 -0.3517  0.6356 -0.5344
  330MOL0     H44513   6.110   2.324   4.054 -0.3719  4.4588  1.1189
  330MOL0     H44514   6.393   2.622   4.285 -0.4969  4.7689 -1.0061
  330MOL0     H44515   6.286   2.682   4.155  0.8893 -0.3582 -0.7640
  330MOL0     H44516   6.104   2.626   4.338 -0.2981 -1.9386  0.7579
  330MOL0     H44517   6.220   2.606   4.446 -1.8394  1.3569  1.3787
  330MOL0     H44518   6.322   2.838   4.339 -1.1302  0.5081 -3.0538
  330MOL0     H44519   6.166   2.861   4.283 -0.8568  2.3998  2.6800
  330MOL0     H44520   6.230   2.956   4.529  0.8553 -1.7423  1.4445
  330MOL0     H44521   6.225   2.790   4.581  0.7576  1.7407  1.4955
  330MOL0     H44522   5.997   2.766   4.497  0.5640  1.2414 -1.3834
  330MOL0     H44523   5.992   2.929   4.460 -0.7311 -1.9747 -3.7872
  330MOL0     H44524   6.025   2.984   4.712 -1.7548 -0.9260  3.7016
  330MOL0     H44525   5.884   2.897   4.667 -0.3845 -0.6957 -1.7318
  330MOL0     H44526   6.152   2.760   4.762 -0.8900 -1.7907 -0.3549
  330MOL0     H44527   5.992   2.684   4.724  0.3951  0.4950 -1.1775
  330MOL0     H44528   5.889   2.797   4.902 -1.0500  0.2936  1.5370
  330MOL0     H44529   6.040   2.712   4.965  0.2034  1.1409  0.5503
  330MOL0     H44530   6.494   2.515   4.092 -0.3166 -0.6017  2.3856
  330MOL0     H44531   6.581   2.382   3.913  1.0016 -0.8902  1.4860
  330MOL0     H44532   6.637   1.834   3.754 -1.2129 -1.1720 -0.4446
  330MOL0     H44533   6.655   1.705   3.536  1.4949  1.1394 -1.1813
  330MOL0     H44534   5.386   0.944   2.962 -1.5529  1.6146  0.6646
  330MOL0     H44535   5.168   0.997   2.977  3.1848 -0.5136  1.5482
  330MOL0     H44536   4.804   1.363   2.612 -0.3193 -0.3908  0.0833
  330MOL0     H44537   4.566   1.379   2.570 -1.1314 -0.7236  0.0758
  330MOL0     H44538   4.351   1.364   2.548  2.1804 -0.0590  0.0889
  330MOL0     H44539   4.372   1.378   2.722  0.3256  1.4672 -1.5399
  330MOL0     H44540   4.154   1.242   2.763 -1.2995 -1.3355 -1.2624
  330MOL0     H44541   4.122   1.251   2.593 -1.2886  0.6626  0.2585
  330MOL0     H44542   4.142   1.463   2.797  3.4890 -0.4072 -0.1797
  330MOL0     H44543   4.006   1.430   2.679  0.8003 -3.3836 -0.5608
  330MOL0     H44544   4.280   1.564   2.625  0.5815 -0.0363 -2.5320
  330MOL0     H44545   4.171   1.513   2.495  1.9702 -6.2010  1.6242
  330MOL0     H44546   3.978   1.846   2.679 -0.4642 -2.0902  0.2269
  330MOL0     H44547   4.516   0.994   2.756 -0.0210  0.9144 -1.5195
  330MOL0     H44548   4.830   0.974   2.936 -0.8277 -2.9661  1.3253
  330MOL0     H44549   4.672   0.896   2.900 -2.1197  0.7396 -1.7888
  330MOL0     H44550   4.803   0.891   2.781 -0.5770 -1.4976  1.9471
  331MOL0     O44551   4.227   3.964   9.511 -0.1693  0.6312 -0.6687
  331MOL0     C44552   4.318   3.958   9.425 -0.6423  0.4711 -0.0211
  331MOL0     O44553   4.314   3.888   9.307 -0.2401 -0.0657 -0.0247
  331MOL0     C44554   4.190   3.837   9.274  0.0078 -0.6585  1.0229
  331MOL0     C44555   4.170   3.700   9.261  0.3954  0.9981  0.3855
  331MOL0     C44556   4.043   3.643   9.223 -0.3169  0.3964 -0.3040
  331MOL0     C44557   3.943   3.729   9.183 -0.2539  0.8470  0.1158
  331MOL0     O44558   3.818   3.681   9.145  0.6827 -1.3634  0.0214
  331MOL0     C44559   3.774   3.719   9.014 -0.7099  0.9117  0.0188
  331MOL0     C44560   3.622   3.688   9.001 -0.1488  0.1780 -0.5773
  331MOL0     C44561   3.560   3.739   8.869  0.2721 -0.3330  0.9213
  331MOL0     C44562   3.440   3.657   8.808 -0.1678  0.5402  1.0281
  331MOL0     C44563   3.465   3.501   8.799  0.0273  1.0222  0.1469
  331MOL0     C44564   3.586   3.479   8.712 -1.1208 -0.1902  0.3921
  331MOL0     C44565   3.580   3.542   8.568  0.1624  0.0683  0.1821
  331MOL0     C44566   3.704   3.514   8.491  0.5737 -0.2221  1.1928
  331MOL0     N44567   3.746   3.371   8.464  0.4218  0.7446 -1.0141
  331MOL0     C44568   3.872   3.336   8.415 -0.3175  0.0036 -0.5518
  331MOL0     C44569   3.854   3.212   8.365 -0.1967 -0.1666 -0.9399
  331MOL0     C44570   3.968   3.119   8.328 -0.5994 -0.3654 -0.1087
  331MOL0     C44571   3.985   3.124   8.179 -0.1305  0.5717  0.8068
  331MOL0     C44572   4.076   3.008   8.133 -0.1544 -0.1247 -0.2828
  331MOL0     C44573   4.156   3.055   8.003  0.7371  0.0106 -0.2417
  331MOL0     O44574   4.243   2.945   7.971 -0.2988 -0.1676  0.3165
  331MOL0     C44575   4.272   2.910   7.843  0.5025  0.3270  0.0461
  331MOL0     C44576   4.231   2.970   7.725 -0.6900  0.9817 -0.3422
  331MOL0     C44577   4.270   2.932   7.596 -0.0224 -0.0025  0.0089
  331MOL0     C44578   4.343   2.815   7.575  0.2295  0.0208  0.0681
  331MOL0     C44579   4.349   2.771   7.437  0.1969  0.7882 -0.0219
  331MOL0     O44580   4.388   2.639   7.418 -0.2027 -0.5602 -0.5377
  331MOL0     C44581   4.453   2.602   7.308 -0.1133  0.4051  0.3691
  331MOL0     C44582   4.539   2.496   7.343 -0.1544  0.3532  0.8459
  331MOL0     C44583   4.634   2.447   7.258  0.7432  1.0536  0.2090
  331MOL0     C44584   4.638   2.494   7.130  0.2903  0.7874  0.8569
  331MOL0     O44585   4.729   2.443   7.050 -0.7008  0.5736 -0.5268
  331MOL0     C44586   4.718   2.454   6.909  0.8730  1.1576  0.4318
  331MOL0     C44587   4.839   2.392   6.839 -1.0558  0.6712  0.0889
  331MOL0     C44588   4.845   2.421   6.685 -0.3330  0.3244  1.2145
  331MOL0     C44589   4.984   2.406   6.632  1.0829  0.2171  0.7165
  331MOL0     C44590   5.022   2.449   6.492 -0.8121  0.8810 -0.4639
  331MOL0     C44591   4.923   2.391   6.383 -0.0683  0.0487  0.1891
  331MOL0     C44592   4.996   2.408   6.245  1.0083 -0.7115  0.8037
  331MOL0     C44593   4.924   2.341   6.136  0.3069 -0.2087 -0.2744
  331MOL0    Cl44594   4.946   2.153   6.148  0.4556 -0.6121 -0.4517
  331MOL0     C44595   4.546   2.598   7.091 -0.5025  0.1749  0.4676
  331MOL0     C44596   4.458   2.656   7.179 -0.0701  0.1238 -0.2757
  331MOL0     O44597   4.321   2.849   7.349 -0.0142  0.7503  0.6720
  331MOL0     C44598   4.387   2.742   7.693 -0.7461  0.6534 -0.1209
  331MOL0     C44599   4.344   2.795   7.818 -0.2337  1.0085  0.0997
  331MOL0     N44600   3.711   3.180   8.387  0.0439  0.2142 -0.0721
  331MOL0     N44601   3.652   3.278   8.446  0.9280 -0.1307  0.4407
  331MOL0     C44602   3.966   3.861   9.182  0.7863  0.4473 -0.6930
  331MOL0     C44603   4.080   3.923   9.230  0.7563 -0.5442  0.2829
  331MOL0     C44604   4.444   4.029   9.461 -0.6081  0.2399 -0.0227
  331MOL0     C44605   4.564   3.958   9.455 -0.0026  0.0620 -0.1124
  331MOL0     C44606   4.684   4.028   9.480  0.3066 -0.4729  0.9590
  331MOL0     C44607   4.680   4.171   9.502  0.3204  0.0935  0.0418
  331MOL0     O44608   4.801   4.231   9.528 -1.0095  0.1179 -0.7383
  331MOL0     C44609   4.844   4.355   9.462 -0.3366  0.1588 -0.2129
  331MOL0     C44610   4.860   4.333   9.306 -0.5907  0.2721 -0.0923
  331MOL0     C44611   4.909   4.451   9.226 -0.2520  0.2308 -0.2056
  331MOL0     C44612   5.056   4.449   9.200 -0.1780  0.2186 -0.0174
  331MOL0     C44613   5.090   4.555   9.103 -0.4365 -0.0044 -0.4471
  331MOL0     C44614   5.093   4.640   9.016  0.4033  0.8095 -0.1549
  331MOL0     C44615   4.549   4.232   9.498  0.0989  0.5813  0.1093
  331MOL0     C44616   4.432   4.160   9.487  0.1708 -0.4494  0.7384
  331MOL0     C44617   4.304   4.226   9.517 -0.9763 -0.7797 -0.6241
  331MOL0     H44618   4.242   3.624   9.288 -2.1055 -1.3386  0.8518
  331MOL0     H44619   4.019   3.538   9.237 -1.6760  0.6364 -0.6306
  331MOL0     H44620   3.783   3.827   9.000 -0.7198  0.9532  0.3245
  331MOL0     H44621   3.827   3.681   8.927 -0.1473  2.9122 -0.5593
  331MOL0     H44622   3.573   3.730   9.089  3.2553  2.0762  0.6046
  331MOL0     H44623   3.612   3.579   9.002 -3.3009  0.3904 -0.2213
  331MOL0     H44624   3.642   3.740   8.797 -1.4616  0.6484 -1.1719
  331MOL0     H44625   3.525   3.842   8.877 -2.1927 -1.0321  0.1236
  331MOL0     H44626   3.350   3.662   8.869 -0.6734  0.9412  0.2625
  331MOL0     H44627   3.421   3.693   8.706  2.3550 -0.9679 -0.0941
  331MOL0     H44628   3.481   3.459   8.899  1.3872 -3.0376 -1.5843
  331MOL0     H44629   3.394   3.443   8.741  1.0606 -0.0652 -0.0733
  331MOL0     H44630   3.672   3.526   8.762 -0.4412 -0.4391 -0.5029
  331MOL0     H44631   3.601   3.372   8.698 -1.9482 -0.1596 -0.9845
  331MOL0     H44632   3.583   3.652   8.571 -0.5010  0.0612  1.4377
  331MOL0     H44633   3.495   3.498   8.515 -0.0779 -0.0919  0.6946
  331MOL0     H44634   3.694   3.562   8.393  0.6473 -0.3885  1.1043
  331MOL0     H44635   3.787   3.562   8.544  0.8776 -1.2676  1.6808
  331MOL0     H44636   3.971   3.382   8.417  1.3521 -3.2000  2.7912
  331MOL0     H44637   4.059   3.152   8.379 -0.1774 -3.6700  1.5758
  331MOL0     H44638   3.939   3.019   8.361  1.2913 -0.9819 -0.1762
  331MOL0     H44639   3.894   3.112   8.121  1.6668 -0.2866 -2.0525
  331MOL0     H44640   4.031   3.222   8.161  3.9653 -1.1305  0.7598
  331MOL0     H44641   4.013   2.922   8.106 -2.1469  1.3319 -0.4956
  331MOL0     H44642   4.144   2.982   8.214 -0.5110  1.0430  0.4050
  331MOL0     H44643   4.200   3.153   8.019 -1.9223  1.0830  1.0401
  331MOL0     H44644   4.077   3.071   7.928 -0.0933  3.7038  1.1915
  331MOL0     H44645   4.169   3.060   7.729 -1.6189  0.3070  1.4683
  331MOL0     H44646   4.237   2.997   7.516 -0.2999  2.0618  1.7273
  331MOL0     H44647   4.527   2.447   7.440  0.2956 -0.6827  0.3860
  331MOL0     H44648   4.702   2.363   7.275 -1.2655 -0.5703  0.5864
  331MOL0     H44649   4.624   2.403   6.884  1.0174  1.6605 -1.3030
  331MOL0     H44650   4.712   2.558   6.875  1.5511  1.4111  1.0796
  331MOL0     H44651   4.933   2.415   6.890 -1.3561 -0.0299  0.9966
  331MOL0     H44652   4.830   2.283   6.842  2.6045  0.2461  0.3198
  331MOL0     H44653   4.777   2.365   6.620  0.4968  0.1077  0.5226
  331MOL0     H44654   4.824   2.526   6.661  2.8898  0.0812 -4.4269
  331MOL0     H44655   4.984   2.297   6.646 -3.3887 -0.1508 -0.4245
  331MOL0     H44656   5.060   2.427   6.708  2.6387 -3.1005  0.2686
  331MOL0     H44657   5.117   2.396   6.483 -2.6945 -2.4429 -2.7022
  331MOL0     H44658   5.030   2.557   6.475 -2.4722  1.1189  0.0526
  331MOL0     H44659   4.887   2.295   6.419  0.3783 -0.7946 -1.5110
  331MOL0     H44660   4.835   2.456   6.391  0.6495  0.9267  1.2321
  331MOL0     H44661   5.092   2.356   6.253  1.3921 -0.1493 -0.0021
  331MOL0     H44662   5.023   2.510   6.218  0.0030  0.7611  4.7745
  331MOL0     H44663   4.820   2.374   6.130  0.8261  2.1201  1.9346
  331MOL0     H44664   4.977   2.360   6.042  0.9868 -2.6469 -0.4484
  331MOL0     H44665   4.554   2.639   6.991  0.8615 -1.0647  0.0243
  331MOL0     H44666   4.389   2.732   7.143 -2.7840 -1.3777  1.3759
  331MOL0     H44667   4.447   2.652   7.701 -0.2085  1.1989  3.3036
  331MOL0     H44668   4.370   2.736   7.905 -0.4651  0.3563 -0.2675
  331MOL0     H44669   3.882   3.929   9.172  1.1455  0.8123 -1.2476
  331MOL0     H44670   4.089   4.031   9.235  0.1766 -0.4176 -0.9677
  331MOL0     H44671   4.566   3.854   9.423  0.6944  0.0433 -0.0222
  331MOL0     H44672   4.777   3.972   9.476  0.3971 -0.2731 -0.2907
  331MOL0     H44673   4.948   4.373   9.491 -0.7907  2.0027  0.3937
  331MOL0     H44674   4.772   4.433   9.486 -2.4466 -1.1136 -1.9678
  331MOL0     H44675   4.759   4.303   9.275 -1.3200  1.1027  1.3427
  331MOL0     H44676   4.924   4.245   9.299 -0.8707 -0.0665  1.2844
  331MOL0     H44677   4.878   4.546   9.270  1.8270 -0.5999  3.4332
  331MOL0     H44678   4.866   4.438   9.126  1.1465  2.6241 -1.2081
  331MOL0     H44679   5.129   4.461   9.281  1.2289 -0.8201 -1.0795
  331MOL0     H44680   5.081   4.347   9.168 -0.6363 -0.8573  2.6719
  331MOL0     H44681   5.080   4.725   8.952 -4.5629 -0.7118 -1.6082
  331MOL0     H44682   4.551   4.340   9.509 -0.7893  0.7763 -1.3473
  331MOL0     H44683   4.276   4.198   9.619 -1.1496  0.5007 -0.3000
  331MOL0     H44684   4.319   4.334   9.515 -0.1553 -0.8940 -0.7820
  331MOL0     H44685   4.238   4.205   9.433  2.2161  3.5602 -4.7761
  332MOL0     O44686   6.373   3.897   3.647  0.0572 -0.5562  0.3615
  332MOL0     C44687   6.310   3.997   3.693  0.0486  0.2926 -0.3061
  332MOL0     O44688   6.210   4.049   3.630  0.0792 -0.9595  0.2518
  332MOL0     C44689   6.191   4.024   3.495  0.5695 -0.0139 -0.2624
  332MOL0     C44690   6.123   3.911   3.450  0.4125  0.0382  0.5617
  332MOL0     C44691   6.080   3.892   3.318  0.5951  0.0039 -0.0645
  332MOL0     C44692   6.089   3.998   3.232  1.0746 -1.0315 -0.3860
  332MOL0     O44693   6.039   3.983   3.109  0.5935  0.4663 -0.8156
  332MOL0     C44694   6.030   4.085   3.013 -0.0126  0.3189 -0.1177
  332MOL0     C44695   5.941   4.030   2.898  0.4346 -0.5238  0.2477
  332MOL0     C44696   5.793   4.007   2.931  0.2685  0.1768 -0.2937
  332MOL0     C44697   5.701   4.003   2.812 -1.0053  0.2697 -0.0128
  332MOL0     C44698   5.667   4.141   2.745 -0.4027 -0.3933 -0.3262
  332MOL0     C44699   5.522   4.190   2.769 -0.8688  0.6443  0.7826
  332MOL0     C44700   5.483   4.210   2.909  0.1469 -0.4240  0.0790
  332MOL0     C44701   5.365   4.301   2.905  1.0836 -0.1016  0.1298
  332MOL0     N44702   5.301   4.315   3.037  0.5659 -0.5081 -0.5787
  332MOL0     C44703   5.359   4.399   3.135 -0.1343  0.9691 -0.3662
  332MOL0     C44704   5.273   4.394   3.238  0.3109  0.1194 -0.7665
  332MOL0     C44705   5.286   4.501   3.345  0.1325  0.2193 -0.1442
  332MOL0     C44706   5.291   4.441   3.477  0.0232  0.1007 -0.7042
  332MOL0     C44707   5.157   4.373   3.512 -0.9600 -0.2688  0.1160
  332MOL0     C44708   5.109   4.414   3.654  0.5161 -0.0018  0.3603
  332MOL0     O44709   5.065   4.550   3.652 -0.1867  0.2046  0.4750
  332MOL0     C44710   4.946   4.580   3.728 -0.1543  0.3999 -0.2067
  332MOL0     C44711   4.952   4.663   3.838 -0.6913  0.5197  0.4216
  332MOL0     C44712   4.839   4.707   3.899  0.0182 -0.6133  0.1104
  332MOL0     C44713   4.707   4.674   3.863  0.4901  0.1586  0.3950
  332MOL0     C44714   4.586   4.742   3.931 -1.5302 -0.1409  0.2902
  332MOL0     O44715   4.466   4.691   3.901 -0.4648 -0.1524  0.3288
  332MOL0     C44716   4.365   4.705   3.989 -0.0706  0.4993 -0.8764
  332MOL0     C44717   4.239   4.745   3.946  1.2124  0.8231  0.7365
  332MOL0     C44718   4.131   4.767   4.028 -0.1175 -0.2793 -0.3604
  332MOL0     C44719   4.154   4.760   4.172  0.1643  0.2747  0.2086
  332MOL0     O44720   4.062   4.795   4.261  0.8302  0.4771  0.8483
  332MOL0     C44721   4.019   4.691   4.357 -0.2318  0.2896  1.2363
  332MOL0     C44722   3.873   4.649   4.336  0.4292 -0.6698 -0.1404
  332MOL0     C44723   3.769   4.760   4.353 -0.0783  0.8170 -0.4004
  332MOL0     C44724   3.628   4.703   4.313 -0.5779  0.7534  0.3431
  332MOL0     C44725   3.610   4.710   4.160 -0.1933  0.1814 -0.2609
  332MOL0     C44726   3.469   4.714   4.117  0.9978 -0.8317 -0.0406
  332MOL0     C44727   3.412   4.587   4.159 -0.5660 -0.4818 -0.2803
  332MOL0     C44728   3.270   4.586   4.099  0.1447 -0.2037  0.2266
  332MOL0    Cl44729   3.205   4.415   4.117 -0.1834  0.6004 -0.1631
  332MOL0     C44730   4.276   4.706   4.217  0.8731 -0.0276 -0.6394
  332MOL0     C44731   4.382   4.692   4.130  0.4405  0.0929  0.5330
  332MOL0     O44732   4.607   4.836   4.011  0.2840  0.3243  0.3660
  332MOL0     C44733   4.700   4.571   3.764  0.9637  0.3679 -0.6621
  332MOL0     C44734   4.815   4.530   3.699 -0.4926  0.7781  0.5226
  332MOL0     N44735   5.179   4.297   3.214 -0.1156 -0.0565  0.6816
  332MOL0     N44736   5.198   4.245   3.094 -0.3484  0.3143 -0.3628
  332MOL0     C44737   6.153   4.113   3.273  0.1235  0.6663 -0.1253
  332MOL0     C44738   6.210   4.124   3.404 -0.1071  0.0234  0.0992
  332MOL0     C44739   6.350   4.053   3.825 -0.2008 -0.0700 -0.1342
  332MOL0     C44740   6.265   4.151   3.879 -0.4343 -0.5068 -0.0094
  332MOL0     C44741   6.301   4.236   3.985 -0.3181  0.1325 -0.3414
  332MOL0     C44742   6.419   4.220   4.049 -0.3984 -0.0275 -0.1562
  332MOL0     O44743   6.460   4.306   4.142 -0.4420 -0.3653  0.5131
  332MOL0     C44744   6.404   4.439   4.152 -0.0201 -0.3139 -1.0378
  332MOL0     C44745   6.532   4.520   4.128 -0.8768 -1.1786 -0.4524
  332MOL0     C44746   6.613   4.530   4.263 -1.1866  0.4823  0.2815
  332MOL0     C44747   6.695   4.660   4.264 -0.1446 -0.3361  0.1531
  332MOL0     C44748   6.768   4.690   4.385  0.1386  0.7438 -0.1675
  332MOL0     C44749   6.841   4.700   4.484  0.7367  0.4124 -0.7275
  332MOL0     C44750   6.497   4.112   4.009 -0.1739  0.6213 -0.3166
  332MOL0     C44751   6.477   4.034   3.897  0.2740 -1.0496  0.3996
  332MOL0     C44752   6.591   3.960   3.845  0.0714 -0.2333 -0.1174
  332MOL0     H44753   6.113   3.827   3.518  1.2553 -0.7019 -0.2005
  332MOL0     H44754   6.035   3.802   3.280  0.3376  0.9013 -2.0203
  332MOL0     H44755   5.992   4.174   3.064 -1.3951 -0.9513  1.1617
  332MOL0     H44756   6.127   4.106   2.966  0.3220  1.4287  0.9950
  332MOL0     H44757   5.993   3.936   2.876  3.1332  0.2416  2.7173
  332MOL0     H44758   5.930   4.103   2.817 -2.8857 -0.8471  0.2914
  332MOL0     H44759   5.764   4.085   3.002 -1.6364 -1.5802  0.9974
  332MOL0     H44760   5.786   3.908   2.977  0.3041  0.2544 -0.1228
  332MOL0     H44761   5.737   3.938   2.732 -1.0582  0.3424 -0.0952
  332MOL0     H44762   5.607   3.960   2.847  1.0706 -2.1906  3.1681
  332MOL0     H44763   5.740   4.217   2.775  1.0366 -2.8600  3.0517
  332MOL0     H44764   5.691   4.134   2.638 -0.4932 -0.2233 -0.3581
  332MOL0     H44765   5.514   4.285   2.715  1.0520  1.1245  1.2658
  332MOL0     H44766   5.455   4.115   2.726  0.6013  0.3682 -1.1624
  332MOL0     H44767   5.562   4.256   2.968 -1.6491  2.9414  0.1038
  332MOL0     H44768   5.461   4.115   2.957  0.3440  0.0275  1.0738
  332MOL0     H44769   5.381   4.401   2.864 -0.1835 -0.1679 -0.5776
  332MOL0     H44770   5.291   4.244   2.847 -0.1563  0.0683  1.4687
  332MOL0     H44771   5.447   4.460   3.122  0.3058  1.1728  2.7908
  332MOL0     H44772   5.371   4.568   3.326 -0.5317  0.7827 -1.1988
  332MOL0     H44773   5.196   4.561   3.336 -0.5183 -0.1083  3.0060
  332MOL0     H44774   5.379   4.376   3.477 -0.5715 -0.7622 -2.4874
  332MOL0     H44775   5.298   4.523   3.549 -1.4001 -1.3853  1.2327
  332MOL0     H44776   5.163   4.265   3.496  1.1359 -0.2966  0.7003
  332MOL0     H44777   5.080   4.394   3.438 -2.2125 -0.8790  1.1958
  332MOL0     H44778   5.198   4.408   3.716  1.1472 -1.6797 -0.6420
  332MOL0     H44779   5.022   4.353   3.680 -0.9281  1.9771  0.3969
  332MOL0     H44780   5.052   4.696   3.862 -0.5289  0.0504  0.4006
  332MOL0     H44781   4.857   4.785   3.973  0.5996  0.4606 -1.1239
  332MOL0     H44782   4.207   4.766   3.844  0.2378  2.0987  1.2870
  332MOL0     H44783   4.030   4.798   4.003 -1.4922 -2.4547  1.9847
  332MOL0     H44784   4.078   4.599   4.357 -0.0568  0.3686 -0.7727
  332MOL0     H44785   4.023   4.749   4.450 -1.7710  0.6249  1.1196
  332MOL0     H44786   3.865   4.602   4.237  2.5067  0.1983 -0.7663
  332MOL0     H44787   3.852   4.567   4.405 -2.6557  0.4817  0.4437
  332MOL0     H44788   3.756   4.787   4.458 -1.0447 -2.4864  0.4546
  332MOL0     H44789   3.791   4.848   4.292 -3.1606  0.8355 -1.6743
  332MOL0     H44790   3.555   4.770   4.361 -3.0311 -0.6696 -1.1688
  332MOL0     H44791   3.610   4.601   4.348 -0.5493  1.2083  1.7768
  332MOL0     H44792   3.662   4.623   4.118  2.3274  2.0751 -1.3278
  332MOL0     H44793   3.658   4.802   4.126 -2.4776  1.1590 -1.0682
  332MOL0     H44794   3.411   4.792   4.168  2.5037 -0.6129  1.4308
  332MOL0     H44795   3.464   4.722   4.008  4.6623  1.3885 -0.2295
  332MOL0     H44796   3.409   4.574   4.267  0.0503 -2.9257 -0.4977
  332MOL0     H44797   3.478   4.510   4.117  0.5515 -0.6403  1.6548
  332MOL0     H44798   3.200   4.656   4.146 -1.4569 -1.0730 -0.7988
  332MOL0     H44799   3.276   4.614   3.993  1.1089  1.7665  0.7453
  332MOL0     H44800   4.270   4.685   4.324  1.6005  0.0804 -0.5757
  332MOL0     H44801   4.472   4.656   4.178 -0.3408  1.6671  3.3733
  332MOL0     H44802   4.605   4.533   3.729  0.3885  0.6338  0.5545
  332MOL0     H44803   4.804   4.483   3.602 -0.8858 -2.7403  2.1162
  332MOL0     H44804   6.181   4.189   3.201  0.1184 -0.6266 -1.5472
  332MOL0     H44805   6.263   4.202   3.457  1.2870 -0.9460  0.1654
  332MOL0     H44806   6.170   4.164   3.829 -0.5300 -2.3409 -0.4020
  332MOL0     H44807   6.230   4.315   4.005 -0.7152 -0.1818 -0.5078
  332MOL0     H44808   6.353   4.463   4.246 -1.2011 -0.5444 -1.6059
  332MOL0     H44809   6.337   4.469   4.071 -0.6193  1.2144 -0.0276
  332MOL0     H44810   6.506   4.621   4.095  1.6042 -0.8473 -1.6338
  332MOL0     H44811   6.590   4.484   4.043 -1.4716 -2.6319 -0.2762
  332MOL0     H44812   6.673   4.438   4.262 -2.5295 -0.4364  0.5096
  332MOL0     H44813   6.542   4.530   4.347  0.6998  1.2849  1.9706
  332MOL0     H44814   6.760   4.656   4.177 -0.4132 -0.9083 -0.0285
  332MOL0     H44815   6.622   4.741   4.258  0.6192  0.5925  2.2043
  332MOL0     H44816   6.910   4.729   4.560 -0.3137 -2.9080  1.7130
  332MOL0     H44817   6.579   4.089   4.076 -0.5792 -4.2019 -1.0671
  332MOL0     H44818   6.589   3.972   3.737 -1.8608 -2.4368 -0.4175
  332MOL0     H44819   6.681   4.009   3.881 -0.8979  2.5090 -1.1969
  332MOL0     H44820   6.597   3.852   3.864  2.8242 -0.0557  0.4647
  333MOL0     O44821   8.369   6.083   8.602 -0.0400 -0.3275  0.3925
  333MOL0     C44822   8.352   5.985   8.538  0.5140  0.7865  0.0069
  333MOL0     O44823   8.447   5.889   8.514 -0.2047 -0.6556 -0.1074
  333MOL0     C44824   8.569   5.939   8.503 -0.0015 -0.5451 -0.9769
  333MOL0     C44825   8.616   6.043   8.432 -0.1238  0.0169 -0.1206
  333MOL0     C44826   8.758   6.080   8.435 -0.0516 -0.4523 -0.9909
  333MOL0     C44827   8.853   5.998   8.504 -0.6984 -0.6587  0.4534
  333MOL0     O44828   8.981   6.035   8.515 -0.1649  0.3901 -0.6387
  333MOL0     C44829   9.069   6.031   8.400 -1.2285  0.5065  0.3045
  333MOL0     C44830   9.212   5.962   8.425  0.7894 -0.3561  0.3990
  333MOL0     C44831   9.216   5.851   8.539  0.4786 -0.3279  0.5045
  333MOL0     C44832   9.239   5.910   8.681 -0.4723  0.1637 -1.4895
  333MOL0     C44833   9.195   5.808   8.795 -0.5312 -0.0016 -0.2169
  333MOL0     C44834   9.105   5.873   8.895 -0.6410 -0.2160  0.5716
  333MOL0     C44835   9.025   5.766   8.986 -0.6729 -0.4099  0.6350
  333MOL0     C44836   9.115   5.663   9.056 -0.6125  0.8745  0.5097
  333MOL0     N44837   9.186   5.733   9.166 -0.0534 -0.2492 -0.1558
  333MOL0     C44838   9.121   5.781   9.275  0.5554  0.2667 -0.8325
  333MOL0     C44839   9.216   5.816   9.362 -0.4551  0.0575 -0.7435
  333MOL0     C44840   9.202   5.880   9.502  0.6451  0.2199  0.3014
  333MOL0     C44841   9.156   5.781   9.606 -0.0190  0.1485  0.7491
  333MOL0     C44842   9.265   5.701   9.671 -0.6992  0.1207  0.5894
  333MOL0     C44843   9.266   5.561   9.608  0.0904  0.6236  0.1206
  333MOL0     O44844   9.159   5.483   9.673  0.2145  0.3198 -0.3975
  333MOL0     C44845   9.086   5.388   9.617  0.8575 -0.2766 -0.5536
  333MOL0     C44846   9.133   5.315   9.501 -0.2646  0.3312 -0.3125
  333MOL0     C44847   9.065   5.202   9.450 -0.1282 -0.0431 -0.7448
  333MOL0     C44848   8.941   5.157   9.504 -0.1021  0.0053 -1.3098
  333MOL0     C44849   8.861   5.039   9.456 -0.5212 -0.8392  0.0826
  333MOL0     O44850   8.739   5.008   9.528 -0.2335 -0.1824  0.4348
  333MOL0     C44851   8.658   4.902   9.489  0.7446  0.0688  0.3373
  333MOL0     C44852   8.520   4.928   9.497  0.9312  0.6512 -0.4184
  333MOL0     C44853   8.419   4.856   9.441  1.0418  1.4962  0.0087
  333MOL0     C44854   8.447   4.745   9.359 -0.2176  0.5623  0.1446
  333MOL0     O44855   8.347   4.680   9.298 -0.0386  0.0350 -0.2518
  333MOL0     C44856   8.278   4.583   9.385 -0.3002  0.7834 -0.5568
  333MOL0     C44857   8.358   4.453   9.394  0.3225  0.3938 -0.7242
  333MOL0     C44858   8.424   4.416   9.253 -0.8617  1.1142  0.3872
  333MOL0     C44859   8.490   4.275   9.264 -0.6043 -1.1680  0.4292
  333MOL0     C44860   8.579   4.248   9.143  0.2059  0.1221 -0.4136
  333MOL0     C44861   8.639   4.110   9.139  0.5028 -0.3014 -0.3743
  333MOL0     C44862   8.708   4.096   9.007  1.1680  0.9957  0.6306
  333MOL0     C44863   8.691   3.954   8.944 -0.3915  0.2224 -0.8545
  333MOL0    Cl44864   8.523   3.952   8.895  0.2392  0.0659  0.5855
  333MOL0     C44865   8.587   4.720   9.334  0.3204 -1.1756 -0.3261
  333MOL0     C44866   8.687   4.795   9.401 -0.5520  0.1531 -0.4343
  333MOL0     O44867   8.901   4.975   9.355 -0.5779 -0.2410  0.2306
  333MOL0     C44868   8.913   5.222   9.630  0.2238  1.2610  1.3134
  333MOL0     C44869   8.970   5.341   9.676 -0.0331 -0.6101 -0.2090
  333MOL0     N44870   9.337   5.767   9.325 -0.6047  0.5249  0.4300
  333MOL0     N44871   9.316   5.721   9.206 -0.1791  0.2405  0.5550
  333MOL0     C44872   8.795   5.898   8.589 -0.1144 -0.2085  0.5905
  333MOL0     C44873   8.656   5.870   8.586 -0.6486 -0.2579  0.6090
  333MOL0     C44874   8.214   5.951   8.505  0.3455 -1.0258  1.6591
  333MOL0     C44875   8.191   5.840   8.419  0.0467  0.0229  0.4650
  333MOL0     C44876   8.065   5.792   8.395 -0.2775 -0.0600  0.5248
  333MOL0     C44877   7.952   5.851   8.457  0.0460  1.1891  0.7114
  333MOL0     O44878   7.826   5.798   8.423 -0.1847  0.6037 -0.1675
  333MOL0     C44879   7.765   5.862   8.301  0.1751  1.3599  0.7016
  333MOL0     C44880   7.762   5.767   8.177 -0.4857  0.0056 -0.7670
  333MOL0     C44881   7.694   5.640   8.214 -0.4305 -0.8475 -0.3607
  333MOL0     C44882   7.663   5.544   8.103  0.2605  0.0791 -0.2124
  333MOL0     C44883   7.766   5.526   8.001 -0.4046  0.1134  1.1982
  333MOL0     C44884   7.852   5.493   7.928 -0.4239  0.8195  1.1929
  333MOL0     C44885   7.966   5.960   8.532 -0.0614 -0.5371  0.3449
  333MOL0     C44886   8.093   6.014   8.558 -1.2650 -0.7728  0.7342
  333MOL0     C44887   8.086   6.146   8.632  0.1435  0.0530  0.0813
  333MOL0     H44888   8.542   6.108   8.387  0.7855 -1.7214 -4.7417
  333MOL0     H44889   8.786   6.168   8.378  2.0953 -1.0156 -0.8893
  333MOL0     H44890   9.026   5.970   8.320 -2.3972  1.6851 -0.0161
  333MOL0     H44891   9.091   6.133   8.368 -0.5117  0.5053  0.7778
  333MOL0     H44892   9.290   6.033   8.453 -1.5685  2.9963 -0.8108
  333MOL0     H44893   9.239   5.910   8.333 -0.3147 -1.6732  0.7830
  333MOL0     H44894   9.290   5.771   8.528  0.6976  0.0307 -0.6486
  333MOL0     H44895   9.116   5.809   8.528 -0.4322  1.6198  1.0071
  333MOL0     H44896   9.339   5.954   8.693 -0.1289 -0.9829  0.2416
  333MOL0     H44897   9.168   5.994   8.688 -1.3028 -0.6255 -0.1292
  333MOL0     H44898   9.145   5.724   8.746  0.4589  0.3320 -1.8797
  333MOL0     H44899   9.280   5.768   8.850 -0.9574  1.2348  1.4263
  333MOL0     H44900   9.163   5.944   8.955  1.5973 -0.4935 -1.1049
  333MOL0     H44901   9.033   5.932   8.837  2.0310  1.3057 -1.4396
  333MOL0     H44902   8.967   5.713   8.910 -0.8021  0.5446  0.0502
  333MOL0     H44903   8.963   5.825   9.054  2.4019  1.4693  2.0033
  333MOL0     H44904   9.056   5.582   9.102  1.2146 -0.7521  0.1499
  333MOL0     H44905   9.187   5.614   8.990 -0.8204 -0.8512  1.4967
  333MOL0     H44906   9.016   5.775   9.302  0.7830 -0.3254 -0.0003
  333MOL0     H44907   9.296   5.929   9.530  2.4565 -2.1665 -1.1946
  333MOL0     H44908   9.118   5.949   9.489  1.1091  1.3054  2.6382
  333MOL0     H44909   9.110   5.845   9.682 -2.4063  1.0461 -1.3234
  333MOL0     H44910   9.078   5.714   9.569  0.3456  0.3044 -0.3318
  333MOL0     H44911   9.238   5.692   9.777  0.4916 -0.3266  0.8647
  333MOL0     H44912   9.361   5.751   9.656 -0.1225 -1.5598 -1.9842
  333MOL0     H44913   9.362   5.515   9.630 -1.9577 -4.3061  0.1497
  333MOL0     H44914   9.245   5.571   9.501 -0.4030  2.1758  0.3396
  333MOL0     H44915   9.227   5.345   9.458 -1.2486  0.7454 -2.2902
  333MOL0     H44916   9.103   5.146   9.365 -1.9371 -0.7292 -1.1679
  333MOL0     H44917   8.486   5.001   9.570  3.5047  0.8020  0.7317
  333MOL0     H44918   8.318   4.890   9.463  0.2783 -2.0196  2.9575
  333MOL0     H44919   8.276   4.638   9.480  4.8041  0.1066  0.2419
  333MOL0     H44920   8.178   4.561   9.346 -2.0656  2.2209  2.6908
  333MOL0     H44921   8.436   4.485   9.465 -1.7591 -1.2064  2.5415
  333MOL0     H44922   8.300   4.377   9.446 -1.2790  4.0506  3.4699
  333MOL0     H44923   8.341   4.402   9.183 -1.1162 -0.2386  0.9216
  333MOL0     H44924   8.495   4.484   9.206  1.6721 -2.6602 -1.8342
  333MOL0     H44925   8.408   4.204   9.277 -2.7641  1.2282  0.8988
  333MOL0     H44926   8.546   4.271   9.358  0.0836  0.9677  0.1772
  333MOL0     H44927   8.662   4.319   9.143  1.3320 -0.8002 -5.3925
  333MOL0     H44928   8.514   4.265   9.057  0.9087  1.0561 -0.7798
  333MOL0     H44929   8.708   4.101   9.223  0.0587  2.7162  0.4424
  333MOL0     H44930   8.564   4.031   9.152  3.2333 -3.1909 -0.9492
  333MOL0     H44931   8.813   4.125   9.020  1.4953 -0.1216  0.6512
  333MOL0     H44932   8.667   4.162   8.930 -3.4731 -1.6918  0.4454
  333MOL0     H44933   8.748   3.940   8.851 -3.7353 -0.3918 -2.9654
  333MOL0     H44934   8.712   3.875   9.017 -0.4969  1.9009  1.0785
  333MOL0     H44935   8.619   4.631   9.281  0.1894 -2.1141  1.0886
  333MOL0     H44936   8.791   4.771   9.378 -0.5963 -0.2254 -0.2315
  333MOL0     H44937   8.823   5.190   9.682 -0.2004 -4.0164 -1.8778
  333MOL0     H44938   8.940   5.402   9.760 -1.8588  0.9672 -1.9136
  333MOL0     H44939   8.846   5.825   8.651 -1.8460 -2.0599 -0.0280
  333MOL0     H44940   8.615   5.795   8.653 -0.3281  0.7217  1.9294
  333MOL0     H44941   8.275   5.782   8.383  0.2566  2.2972 -3.3181
  333MOL0     H44942   8.069   5.698   8.342  2.0037 -0.3275  1.0418
  333MOL0     H44943   7.819   5.953   8.272  1.4291  0.5054  0.2724
  333MOL0     H44944   7.669   5.903   8.332  0.0353  1.4780  0.1159
  333MOL0     H44945   7.858   5.735   8.134 -0.5239 -1.1703 -0.0057
  333MOL0     H44946   7.697   5.822   8.108 -3.4435  1.0984  2.5808
  333MOL0     H44947   7.602   5.651   8.271  0.5673 -1.4129  1.4404
  333MOL0     H44948   7.774   5.589   8.269 -0.1465 -1.5966 -1.4218
  333MOL0     H44949   7.646   5.444   8.145  0.4604 -0.3117 -1.0361
  333MOL0     H44950   7.562   5.558   8.065 -0.0352 -1.1835  0.0417
  333MOL0     H44951   7.931   5.465   7.861  0.9711 -0.8827  3.4171
  333MOL0     H44952   7.879   6.007   8.575  1.1322  1.3528  0.8212
  333MOL0     H44953   8.035   6.207   8.556  1.2973 -1.1178 -1.7143
  333MOL0     H44954   8.027   6.145   8.724 -0.0723  0.5780 -0.0491
  333MOL0     H44955   8.177   6.187   8.676  1.2390 -2.9272  0.8512
  334MOL0     O44956   2.713  11.098  10.050 -0.3768 -1.2311  0.2738
  334MOL0     C44957   2.668  11.210  10.086  1.0015  0.6759  0.1743
  334MOL0     O44958   2.742  11.331  10.081 -0.4863 -0.6634 -0.1226
  334MOL0     C44959   2.874  11.346  10.034  0.6263 -0.1996  0.4490
  334MOL0     C44960   2.964  11.252   9.993 -0.3269 -0.2780  0.9687
  334MOL0     C44961   3.093  11.284   9.954 -0.2508  0.0678 -0.4319
  334MOL0     C44962   3.130  11.411   9.948  0.0058 -0.2976  0.5121
  334MOL0     O44963   3.243  11.460   9.892  0.3355 -0.0945  0.1029
  334MOL0     C44964   3.307  11.387   9.786 -0.1491  0.1197 -0.7631
  334MOL0     C44965   3.431  11.469   9.746  0.4411 -0.0647 -1.2305
  334MOL0     C44966   3.383  11.604   9.694  1.1375 -0.1982 -0.4232
  334MOL0     C44967   3.496  11.682   9.621 -0.9853 -0.6286  0.9964
  334MOL0     C44968   3.450  11.765   9.494 -0.7482 -0.3829 -0.1823
  334MOL0     C44969   3.373  11.685   9.375  0.4566 -0.6563 -0.5499
  334MOL0     C44970   3.461  11.567   9.331 -0.2948  0.1234  0.1171
  334MOL0     C44971   3.400  11.493   9.209  0.5839  0.2626 -0.1837
  334MOL0     N44972   3.297  11.410   9.267 -0.5441  0.2049 -0.7205
  334MOL0     C44973   3.162  11.437   9.277  0.0269 -0.7101 -0.1935
  334MOL0     C44974   3.091  11.322   9.298 -0.8302 -0.3433 -0.2332
  334MOL0     C44975   2.946  11.308   9.281 -0.0806  0.0139  0.7429
  334MOL0     C44976   2.870  11.311   9.415  0.9726  0.3530 -0.1214
  334MOL0     C44977   2.896  11.187   9.498 -1.1851  0.8162 -0.1662
  334MOL0     C44978   2.824  11.184   9.632  0.1322  0.2050  0.3764
  334MOL0     O44979   2.683  11.199   9.584  0.8836 -0.6931  0.4580
  334MOL0     C44980   2.585  11.116   9.636  0.7326  0.0679 -0.5010
  334MOL0     C44981   2.460  11.123   9.579 -0.0087  0.3523  0.0488
  334MOL0     C44982   2.354  11.044   9.624  0.9773 -1.8140  0.0681
  334MOL0     C44983   2.362  10.976   9.744 -0.9856 -0.3275  0.8085
  334MOL0     C44984   2.242  10.900   9.791 -0.1197  0.3480  0.5476
  334MOL0     O44985   2.274  10.795   9.879  0.4866 -0.4547 -0.1250
  334MOL0     C44986   2.177  10.749   9.973  0.3213 -0.8523  0.0214
  334MOL0     C44987   2.100  10.828  10.056  0.1890 -0.3873  0.0614
  334MOL0     C44988   2.005  10.775  10.147  0.2882 -1.1264  0.4018
  334MOL0     C44989   2.001  10.631  10.173 -0.2711 -0.7858  0.2862
  334MOL0     O44990   1.928  10.572  10.276  0.3839 -0.1226  0.2293
  334MOL0     C44991   1.882  10.657  10.386 -1.2518 -0.0381  0.8769
  334MOL0     C44992   1.745  10.720  10.353 -0.5054  0.2527 -0.8836
  334MOL0     C44993   1.715  10.808  10.469 -0.6685  0.3598 -0.0849
  334MOL0     C44994   1.579  10.863  10.448  0.2579 -0.1419 -1.1784
  334MOL0     C44995   1.520  10.925  10.575  0.2733 -0.0383 -0.6214
  334MOL0     C44996   1.407  11.024  10.546 -0.0331  0.0073 -0.2470
  334MOL0     C44997   1.277  10.944  10.530  1.0792  0.2540 -0.1526
  334MOL0     C44998   1.161  11.020  10.472 -0.0799  0.3421 -0.0171
  334MOL0    Cl44999   1.012  10.910  10.441 -0.1118  0.0089  0.2209
  334MOL0     C45000   2.082  10.546  10.095 -0.2975 -0.4438  0.6983
  334MOL0     C45001   2.155  10.613   9.990 -0.6120  0.0713 -0.8066
  334MOL0     O45002   2.125  10.940   9.766 -0.0365 -0.0016  0.2080
  334MOL0     C45003   2.491  10.960   9.792 -0.2459 -0.3397 -0.8284
  334MOL0     C45004   2.604  11.026   9.747  0.8496  0.1206  0.6205
  334MOL0     N45005   3.188  11.219   9.314  0.6581 -0.8401 -0.3578
  334MOL0     N45006   3.302  11.278   9.289 -0.1591  0.2413  0.1932
  334MOL0     C45007   3.042  11.510   9.983  0.0683  0.2711 -0.2349
  334MOL0     C45008   2.908  11.479  10.032 -0.4385 -0.7986  0.8196
  334MOL0     C45009   2.537  11.191  10.154 -0.2249  1.6111 -0.2484
  334MOL0     C45010   2.487  11.058  10.194  0.8201 -1.2759 -0.1962
  334MOL0     C45011   2.361  11.044  10.244 -0.0740  0.1980 -0.0621
  334MOL0     C45012   2.278  11.150  10.261 -0.2552  0.5246  0.0542
  334MOL0     O45013   2.168  11.115  10.336  0.3560 -0.2564  0.4630
  334MOL0     C45014   2.069  11.222  10.370  0.2956 -0.1785 -0.3912
  334MOL0     C45015   1.931  11.162  10.394  0.1261 -0.4049 -0.0398
  334MOL0     C45016   1.830  11.274  10.440 -0.4275 -0.1677  1.0400
  334MOL0     C45017   1.683  11.233  10.437 -0.3206 -1.4484 -0.1324
  334MOL0     C45018   1.584  11.343  10.445  0.0261 -0.2936  0.0205
  334MOL0     C45019   1.523  11.448  10.455  0.0035 -0.3327 -0.5285
  334MOL0     C45020   2.323  11.280  10.232  0.4044  0.2826 -0.4197
  334MOL0     C45021   2.449  11.302  10.177  0.3938  0.6552  0.9296
  334MOL0     C45022   2.482  11.449  10.144 -0.5733  0.4025 -0.1980
  334MOL0     H45023   2.937  11.147  10.003 -1.3583 -0.1211  0.0473
  334MOL0     H45024   3.183  11.224   9.940 -0.0949  0.3176 -0.5191
  334MOL0     H45025   3.338  11.290   9.826  3.5469  1.2761 -0.4570
  334MOL0     H45026   3.229  11.371   9.710  0.1310 -1.8607 -0.6810
  334MOL0     H45027   3.497  11.413   9.679  0.5694 -1.3695 -0.0734
  334MOL0     H45028   3.484  11.470   9.842  0.3329 -2.3091 -1.0986
  334MOL0     H45029   3.334  11.669   9.767  2.5127  1.7244 -1.1294
  334MOL0     H45030   3.310  11.593   9.613  1.2829  1.9544 -0.9054
  334MOL0     H45031   3.536  11.750   9.697 -2.8336  0.1203  1.3702
  334MOL0     H45032   3.572  11.610   9.591 -2.6150 -1.5235 -1.2789
  334MOL0     H45033   3.396  11.848   9.538 -0.9640 -1.0301  0.8054
  334MOL0     H45034   3.534  11.812   9.442  1.0716 -4.0053 -0.8607
  334MOL0     H45035   3.276  11.646   9.406  0.6522 -1.5655 -1.0422
  334MOL0     H45036   3.351  11.754   9.293 -0.0062 -1.4988 -1.1455
  334MOL0     H45037   3.503  11.500   9.407 -3.0109 -4.6349 -2.1501
  334MOL0     H45038   3.543  11.613   9.274 -0.4677  0.9414  0.5232
  334MOL0     H45039   3.354  11.564   9.140  0.6119 -0.3269 -0.8220
  334MOL0     H45040   3.480  11.439   9.158  0.4695  2.2770 -2.6461
  334MOL0     H45041   3.108  11.526   9.249 -1.5421 -1.2219  1.0684
  334MOL0     H45042   2.917  11.388   9.212  2.5758  1.5692  1.2894
  334MOL0     H45043   2.915  11.213   9.238 -1.8289  0.4490  0.9614
  334MOL0     H45044   2.887  11.407   9.465 -1.0635  1.2629 -1.0638
  334MOL0     H45045   2.764  11.314   9.386  0.8818  0.0055  0.1705
  334MOL0     H45046   3.003  11.194   9.518 -1.5672  3.5121  1.3746
  334MOL0     H45047   2.866  11.096   9.444  1.6553 -0.6704  0.5727
  334MOL0     H45048   2.845  11.269   9.699 -1.9802 -0.5504  2.1373
  334MOL0     H45049   2.845  11.089   9.682 -0.1937 -1.5007 -2.5319
  334MOL0     H45050   2.453  11.188   9.493 -2.2424 -1.1484 -0.9825
  334MOL0     H45051   2.259  11.042   9.570  1.8026  0.5099 -1.6143
  334MOL0     H45052   2.108  10.933  10.029  6.1644 -0.5930 -0.2374
  334MOL0     H45053   1.937  10.840  10.202  2.7902  0.7928  1.4524
  334MOL0     H45054   1.877  10.590  10.472 -2.7689 -1.0496  0.0568
  334MOL0     H45055   1.953  10.739  10.402 -1.2449 -0.1389  1.3875
  334MOL0     H45056   1.740  10.765  10.253  0.8855 -0.1282 -1.1333
  334MOL0     H45057   1.672  10.639  10.354 -1.8491  1.4140  0.1514
  334MOL0     H45058   1.698  10.752  10.561 -0.7392  2.1114  1.0209
  334MOL0     H45059   1.798  10.876  10.491 -0.5403  0.2101 -0.1035
  334MOL0     H45060   1.512  10.780  10.423  3.0677 -2.2157 -2.3652
  334MOL0     H45061   1.584  10.932  10.364  1.5384  3.1868  1.3878
  334MOL0     H45062   1.599  10.987  10.619 -1.1402  2.6882 -1.6569
  334MOL0     H45063   1.494  10.842  10.640  1.1129  0.4902  0.4278
  334MOL0     H45064   1.396  11.090  10.632  1.7079  3.5021 -2.4744
  334MOL0     H45065   1.423  11.088  10.459 -1.1287  0.9065  0.1842
  334MOL0     H45066   1.247  10.898  10.625 -0.0135 -2.2690 -1.6012
  334MOL0     H45067   1.297  10.860  10.462 -0.9324  0.2719 -0.8376
  334MOL0     H45068   1.131  11.090  10.551 -2.0284 -1.6339  1.1402
  334MOL0     H45069   1.198  11.080  10.389  0.3861 -1.6069 -1.2803
  334MOL0     H45070   2.079  10.438  10.106  2.7020 -1.3740 -4.2950
  334MOL0     H45071   2.218  10.558   9.921  0.0637  1.3002 -1.2067
  334MOL0     H45072   2.503  10.883   9.868  0.3138  2.1789  1.7969
  334MOL0     H45073   2.693  10.995   9.802  0.3705 -0.0902  1.2865
  334MOL0     H45074   3.080  11.612   9.990  1.0986 -0.2013  1.9065
  334MOL0     H45075   2.841  11.560  10.060 -0.1681 -0.3993  0.3355
  334MOL0     H45076   2.552  10.972  10.180  3.0600  0.0369  1.6483
  334MOL0     H45077   2.333  10.942  10.268  1.5470 -0.4065 -0.5956
  334MOL0     H45078   2.065  11.304  10.296 -2.3114 -0.2183 -0.3818
  334MOL0     H45079   2.102  11.270  10.463 -0.2472 -0.4486 -0.0580
  334MOL0     H45080   1.944  11.091  10.476 -0.2727  2.3316  2.5570
  334MOL0     H45081   1.888  11.106  10.310 -0.2199 -1.1393  0.6098
  334MOL0     H45082   1.835  11.357  10.370  1.1251 -0.3120  0.9593
  334MOL0     H45083   1.859  11.303  10.542  1.2403 -1.1520  0.8693
  334MOL0     H45084   1.667  11.172  10.348 -4.1865 -1.9308  0.6777
  334MOL0     H45085   1.666  11.178  10.530  1.4963 -2.6362 -0.4428
  334MOL0     H45086   1.470  11.538  10.478  3.5276  1.4459  1.4123
  334MOL0     H45087   2.260  11.364  10.260 -1.0071 -0.1450 -2.1118
  334MOL0     H45088   2.531  11.459  10.047 -2.6566  2.6127 -1.1135
  334MOL0     H45089   2.389  11.507  10.139 -0.8682 -0.1929 -2.6941
  334MOL0     H45090   2.551  11.491  10.218 -2.2418  1.0566  1.0464
  335MOL0     O45091   6.656   4.879   6.486  0.2042 -0.5897 -0.0695
  335MOL0     C45092   6.658   4.806   6.588 -0.7250  0.8148  0.0179
  335MOL0     O45093   6.563   4.786   6.685  0.8683 -0.6936 -0.3480
  335MOL0     C45094   6.438   4.851   6.678  0.3503 -0.1773 -0.4007
  335MOL0     C45095   6.416   4.987   6.638  0.1824  0.0336  0.3100
  335MOL0     C45096   6.289   5.046   6.664 -0.4627  0.8516  0.4483
  335MOL0     C45097   6.176   4.971   6.705 -0.7229  0.3337  0.7774
  335MOL0     O45098   6.040   5.018   6.728  0.2907  0.1045  0.4340
  335MOL0     C45099   6.017   5.164   6.727  1.1776  1.1796 -0.3794
  335MOL0     C45100   5.873   5.221   6.748 -0.0811  0.0817  0.0372
  335MOL0     C45101   5.833   5.223   6.896 -0.0756 -0.4862  0.6702
  335MOL0     C45102   5.729   5.334   6.925 -0.0084  0.1929 -0.5175
  335MOL0     C45103   5.663   5.316   7.065 -0.8015 -0.4419  0.5457
  335MOL0     C45104   5.761   5.277   7.177  0.6834 -0.8478 -0.7140
  335MOL0     C45105   5.703   5.266   7.316  0.4111  0.2325 -0.9825
  335MOL0     C45106   5.726   5.380   7.413 -0.3768  0.0181 -1.1102
  335MOL0     N45107   5.857   5.401   7.473 -0.2033  0.5851 -0.7052
  335MOL0     C45108   5.927   5.323   7.562 -0.1878  0.0837 -0.1542
  335MOL0     C45109   6.026   5.398   7.596  0.5090  0.4569 -0.3890
  335MOL0     C45110   6.119   5.350   7.705 -0.0128 -0.2572  0.7723
  335MOL0     C45111   6.261   5.403   7.683  0.9125  0.4665 -0.0131
  335MOL0     C45112   6.343   5.351   7.804 -0.3635 -0.1622  0.0129
  335MOL0     C45113   6.487   5.402   7.810 -0.8754 -0.8438  0.0538
  335MOL0     O45114   6.492   5.546   7.797 -0.0138  0.8309 -0.5438
  335MOL0     C45115   6.614   5.614   7.809  0.1556  0.4522  0.1194
  335MOL0     C45116   6.724   5.566   7.883 -0.1200  0.1362  0.6083
  335MOL0     C45117   6.838   5.637   7.894 -0.1060 -1.2874  0.1122
  335MOL0     C45118   6.841   5.779   7.856 -0.2570  0.0445 -0.2079
  335MOL0     C45119   6.950   5.878   7.884  0.0365  0.0932  0.9492
  335MOL0     O45120   7.076   5.835   7.894 -0.6338 -0.6239  0.2895
  335MOL0     C45121   7.165   5.916   7.957 -0.9805 -0.8468  1.0856
  335MOL0     C45122   7.139   5.963   8.088  0.3816  0.2571  1.0628
  335MOL0     C45123   7.234   6.036   8.162 -0.6966  0.3317  1.1699
  335MOL0     C45124   7.361   6.063   8.097  0.0506  0.3202 -0.6239
  335MOL0     O45125   7.469   6.128   8.154 -0.2959  1.0082  0.1750
  335MOL0     C45126   7.461   6.219   8.263  0.2225  0.4261  0.1309
  335MOL0     C45127   7.585   6.316   8.266  0.1816 -0.2682  0.3882
  335MOL0     C45128   7.710   6.266   8.329  0.3672  0.4872  0.4606
  335MOL0     C45129   7.801   6.364   8.391 -0.6918 -0.7287 -0.5840
  335MOL0     C45130   7.742   6.438   8.514 -0.2214 -0.3116 -0.4583
  335MOL0     C45131   7.732   6.336   8.623  0.3936  0.1052  0.1818
  335MOL0     C45132   7.651   6.376   8.747  0.5047 -0.0981  0.3721
  335MOL0     C45133   7.711   6.499   8.813 -0.2900  0.3817  0.0734
  335MOL0    Cl45134   7.853   6.443   8.902  0.2508  0.2710 -0.1172
  335MOL0     C45135   7.391   6.013   7.968  0.9478  0.2757 -1.0628
  335MOL0     C45136   7.291   5.946   7.902  0.2179  0.1889  0.5571
  335MOL0     O45137   6.915   5.990   7.895 -0.4968 -1.4225 -0.1526
  335MOL0     C45138   6.718   5.824   7.797  0.1663  0.3840  0.5430
  335MOL0     C45139   6.607   5.747   7.766 -0.0323  0.5508  0.4019
  335MOL0     N45140   6.036   5.506   7.508 -0.5635 -0.6170  0.3147
  335MOL0     N45141   5.933   5.506   7.432  0.3146  0.4346  0.1411
  335MOL0     C45142   6.200   4.834   6.725 -0.1988  0.4079  0.1502
  335MOL0     C45143   6.328   4.780   6.714 -0.3075  0.1475  1.4749
  335MOL0     C45144   6.786   4.739   6.620  0.0123 -0.9717  0.8966
  335MOL0     C45145   6.855   4.789   6.727  0.8850  0.4338 -0.2389
  335MOL0     C45146   6.964   4.726   6.778 -0.8386  0.6063 -0.0579
  335MOL0     C45147   7.006   4.609   6.718  0.3297 -0.1418  0.3759
  335MOL0     O45148   7.089   4.516   6.773  0.2632  0.3693  0.0934
  335MOL0     C45149   7.029   4.437   6.881  0.2960  0.1614  0.7090
  335MOL0     C45150   7.017   4.509   7.016 -0.1363 -0.4610 -0.1333
  335MOL0     C45151   7.155   4.531   7.084  0.8169 -0.7989  0.8973
  335MOL0     C45152   7.124   4.644   7.183  0.4887 -0.1533  0.8230
  335MOL0     C45153   7.232   4.640   7.283  0.3072 -0.5568  1.1214
  335MOL0     C45154   7.319   4.642   7.367  0.5269  0.3023 -0.5392
  335MOL0     C45155   6.942   4.561   6.606 -0.8374  0.5747 -0.4910
  335MOL0     C45156   6.834   4.624   6.553  0.6711 -0.6064  0.5158
  335MOL0     C45157   6.751   4.566   6.439  0.1674  0.7811  0.0300
  335MOL0     H45158   6.497   5.055   6.616  0.9420 -0.9977 -0.1865
  335MOL0     H45159   6.277   5.150   6.638 -1.5236  1.1891  2.1355
  335MOL0     H45160   6.080   5.207   6.805  1.6480  2.2057 -1.3029
  335MOL0     H45161   6.058   5.205   6.634  0.5343  0.7954 -0.8415
  335MOL0     H45162   5.798   5.164   6.692  0.6676 -3.0925  2.0028
  335MOL0     H45163   5.888   5.324   6.714  2.2705  1.4174  4.4252
  335MOL0     H45164   5.927   5.252   6.943  2.2140 -0.6270 -3.3658
  335MOL0     H45165   5.796   5.124   6.921  1.1079 -1.8963 -2.5561
  335MOL0     H45166   5.784   5.429   6.916  3.8848 -1.6747  1.2946
  335MOL0     H45167   5.649   5.336   6.850 -0.0922  1.8008 -0.4303
  335MOL0     H45168   5.594   5.397   7.091 -0.7884 -0.0575 -0.5341
  335MOL0     H45169   5.610   5.224   7.037  0.9167 -0.7749 -2.0228
  335MOL0     H45170   5.792   5.175   7.153 -2.2463 -2.2048  0.7689
  335MOL0     H45171   5.840   5.352   7.191  1.2320 -1.9037  2.8594
  335MOL0     H45172   5.747   5.170   7.346  0.5368  0.1939 -1.2920
  335MOL0     H45173   5.595   5.250   7.309  0.0657  2.6545 -2.0798
  335MOL0     H45174   5.705   5.463   7.346 -0.8173 -0.1100 -1.1345
  335MOL0     H45175   5.665   5.376   7.504 -2.4382 -0.7997 -2.4808
  335MOL0     H45176   5.902   5.231   7.612 -3.8790  0.2582 -1.3597
  335MOL0     H45177   6.091   5.378   7.807  1.2068  3.1292  0.3227
  335MOL0     H45178   6.117   5.240   7.705 -1.1637 -0.2798 -1.0524
  335MOL0     H45179   6.293   5.356   7.590  1.0240  0.9346 -0.2118
  335MOL0     H45180   6.270   5.511   7.665 -0.5900  1.0614  2.3285
  335MOL0     H45181   6.346   5.242   7.818  1.3153 -0.1640 -0.0667
  335MOL0     H45182   6.293   5.390   7.893 -0.8834  1.3012 -0.8811
  335MOL0     H45183   6.542   5.341   7.738  0.7602  0.1618  0.4103
  335MOL0     H45184   6.522   5.378   7.912  3.1816 -1.6869 -1.3390
  335MOL0     H45185   6.727   5.464   7.920 -2.5297 -0.5019 -0.6750
  335MOL0     H45186   6.922   5.597   7.950 -1.3278 -2.7231  0.9860
  335MOL0     H45187   7.039   5.960   8.130  0.2979  0.2465  0.8642
  335MOL0     H45188   7.212   6.089   8.254  1.0550 -0.1214  1.9091
  335MOL0     H45189   7.376   6.283   8.241  0.0605  0.2470  0.2342
  335MOL0     H45190   7.447   6.172   8.361 -1.1087 -3.0704 -1.5557
  335MOL0     H45191   7.607   6.333   8.160 -1.8640  0.7143  0.0835
  335MOL0     H45192   7.548   6.405   8.318 -0.2398 -0.2462  0.0540
  335MOL0     H45193   7.689   6.192   8.407  0.7858  1.1516  1.2232
  335MOL0     H45194   7.773   6.205   8.265 -1.2905 -3.1029  1.9576
  335MOL0     H45195   7.834   6.436   8.315  2.7920 -2.3246 -0.7468
  335MOL0     H45196   7.884   6.301   8.422 -0.5042 -0.9740 -1.5307
  335MOL0     H45197   7.640   6.473   8.499 -1.0826 -0.9618  2.9917
  335MOL0     H45198   7.814   6.518   8.535 -0.0501 -1.0950  2.3619
  335MOL0     H45199   7.678   6.247   8.591  0.1207  0.6440 -0.9245
  335MOL0     H45200   7.834   6.310   8.654  0.2710 -0.8190 -0.1865
  335MOL0     H45201   7.662   6.291   8.814 -2.0950  0.6903  1.9617
  335MOL0     H45202   7.543   6.381   8.728  0.5692  1.5867  0.2492
  335MOL0     H45203   7.757   6.564   8.737  1.4589 -0.6821  0.1700
  335MOL0     H45204   7.641   6.539   8.887 -2.1687 -3.2475  0.4481
  335MOL0     H45205   7.497   6.030   7.951  1.0688 -1.3424 -2.0628
  335MOL0     H45206   7.304   5.920   7.798 -2.3740 -3.0171  0.8998
  335MOL0     H45207   6.707   5.927   7.764  2.7886  0.5900  0.0786
  335MOL0     H45208   6.520   5.796   7.723 -2.0509 -1.2622  2.1683
  335MOL0     H45209   6.108   4.784   6.753  0.9396 -2.3747 -0.6757
  335MOL0     H45210   6.333   4.674   6.736 -0.8081  0.1111  1.4202
  335MOL0     H45211   6.815   4.879   6.773 -0.3531  1.7859 -3.6354
  335MOL0     H45212   7.023   4.759   6.862  0.2757 -1.0348 -0.1572
  335MOL0     H45213   7.084   4.343   6.872 -1.5732 -0.7608 -3.5554
  335MOL0     H45214   6.932   4.396   6.852  2.4498 -3.4466 -2.2286
  335MOL0     H45215   6.955   4.443   7.077  1.7772 -1.7673  0.4953
  335MOL0     H45216   6.955   4.598   6.997  1.0178  0.4247  0.1396
  335MOL0     H45217   7.233   4.563   7.015 -0.7137 -0.4023 -0.7037
  335MOL0     H45218   7.187   4.442   7.140  2.5757 -1.1050 -0.4954
  335MOL0     H45219   7.129   4.737   7.124  5.2470 -0.5936  0.0726
  335MOL0     H45220   7.023   4.630   7.221 -0.5386 -0.4755 -1.8251
  335MOL0     H45221   7.403   4.625   7.431 -0.6748 -1.9649  0.5457
  335MOL0     H45222   6.987   4.474   6.560 -0.0443  0.8148 -0.1691
  335MOL0     H45223   6.686   4.641   6.394 -0.1504  0.5987  0.1804
  335MOL0     H45224   6.808   4.534   6.351 -0.4804  1.6955 -0.7445
  335MOL0     H45225   6.694   4.479   6.473 -0.6193  1.7144  1.2175
  336MOL0     O45226   4.226   9.763   2.061 -0.2515  1.0237  0.0295
  336MOL0     C45227   4.317   9.830   2.094 -0.8526 -0.4802 -0.7837
  336MOL0     O45228   4.332   9.965   2.078 -0.1814 -0.2766  0.1886
  336MOL0     C45229   4.250  10.032   1.990 -0.0878 -0.0487 -1.0852
  336MOL0     C45230   4.211  10.158   2.031  0.4982  0.1987 -0.7079
  336MOL0     C45231   4.131  10.240   1.953  0.5918 -0.0522 -0.2776
  336MOL0     C45232   4.079  10.191   1.837  0.5838  0.3681  0.3248
  336MOL0     O45233   3.976  10.261   1.780 -0.3091  0.6666  0.2491
  336MOL0     C45234   3.959  10.248   1.636  0.3141 -0.3024  0.4966
  336MOL0     C45235   4.083  10.285   1.555  0.2037 -0.0057 -0.2308
  336MOL0     C45236   4.060  10.431   1.507  0.2056  0.7033  0.0835
  336MOL0     C45237   4.138  10.459   1.379 -0.4980  0.5463  0.1479
  336MOL0     C45238   4.126  10.598   1.326  0.6883 -0.2527 -0.5272
  336MOL0     C45239   4.174  10.633   1.182 -0.1022 -0.2600 -0.1206
  336MOL0     C45240   4.117  10.768   1.120 -0.0058  0.8098 -1.0902
  336MOL0     C45241   4.207  10.889   1.167  0.6137 -0.0497 -0.3822
  336MOL0     N45242   4.158  11.022   1.128  0.1144  0.8369  0.6087
  336MOL0     C45243   4.064  11.055   1.036 -0.0384 -0.1242  0.5760
  336MOL0     C45244   4.065  11.189   1.028 -0.9338 -0.2754 -0.3911
  336MOL0     C45245   3.991  11.286   0.943  0.9426  0.9498 -0.7973
  336MOL0     C45246   4.063  11.308   0.811  0.1808 -0.4771  0.4394
  336MOL0     C45247   4.174  11.417   0.842  0.3546 -0.3316  0.1814
  336MOL0     C45248   4.293  11.415   0.736 -0.3426 -0.3024  0.0754
  336MOL0     O45249   4.249  11.384   0.601  0.5542 -0.0397 -0.1422
  336MOL0     C45250   4.210  11.496   0.531  0.1545 -0.2701 -0.6861
  336MOL0     C45251   4.194  11.485   0.395  0.2327  0.6803  0.0952
  336MOL0     C45252   4.151  11.595   0.314  0.3210  0.6195 -0.3791
  336MOL0     C45253   4.141  11.725   0.363 -0.3352  0.4519  0.1157
  336MOL0     C45254   4.095  11.836   0.271  0.0065 -0.6255 -0.5666
  336MOL0     O45255   4.072  11.816   0.135 -0.0946  0.6348 -0.0723
  336MOL0     C45256   4.070  11.915   0.041 -0.1889  0.0074  0.3786
  336MOL0     C45257   4.142  11.886  -0.074 -0.9869  0.3753  0.5112
  336MOL0     C45258   4.138  11.971  -0.183 -0.0720 -0.3795 -0.5763
  336MOL0     C45259   4.060  12.092  -0.178 -0.8131  0.2957 -0.1306
  336MOL0     O45260   4.060  12.187  -0.277  0.1887 -0.9666 -0.2038
  336MOL0     C45261   4.122  12.192  -0.401 -0.8035  0.4092 -0.5872
  336MOL0     C45262   4.090  12.323  -0.467  0.4396  0.2098  0.2603
  336MOL0     C45263   4.141  12.325  -0.607 -0.2614 -0.7665 -0.4740
  336MOL0     C45264   4.087  12.450  -0.679  0.9032 -1.2755 -0.1488
  336MOL0     C45265   4.210  12.536  -0.728  0.5385 -0.2858  0.2418
  336MOL0     C45266   4.158  12.657  -0.821  0.3199  0.3479  0.4407
  336MOL0     C45267   4.271  12.763  -0.849  0.7125  0.0893  0.4467
  336MOL0     C45268   4.234  12.882  -0.921  0.2774 -0.6151  0.9042
  336MOL0    Cl45269   4.378  12.958  -0.980  0.0979 -0.1322  0.0483
  336MOL0     C45270   3.995  12.124  -0.056 -0.4744 -1.1715 -1.1617
  336MOL0     C45271   3.991  12.033   0.053  0.1613 -0.0487  0.1287
  336MOL0     O45272   4.103  11.948   0.323 -0.0560  0.2909 -0.2830
  336MOL0     C45273   4.159  11.745   0.502 -0.0463  0.0805 -0.9399
  336MOL0     C45274   4.191  11.631   0.582 -0.1047 -0.4784  0.0865
  336MOL0     N45275   4.150  11.239   1.118 -0.0887 -0.6644 -0.5785
  336MOL0     N45276   4.215  11.141   1.181  0.0169 -0.4894  0.1102
  336MOL0     C45277   4.110  10.060   1.794  1.1291 -0.4513 -0.5126
  336MOL0     C45278   4.193   9.983   1.871  0.1911 -0.7037  0.4668
  336MOL0     C45279   4.444   9.774   2.161 -0.5264  0.4986  0.0973
  336MOL0     C45280   4.416   9.654   2.240  0.3325 -0.2829 -0.1833
  336MOL0     C45281   4.525   9.581   2.299  0.2342 -0.8491 -0.1193
  336MOL0     C45282   4.661   9.637   2.277  0.7010 -0.2927 -1.1366
  336MOL0     O45283   4.775   9.594   2.342  0.3779 -0.2026  0.4565
  336MOL0     C45284   4.790   9.460   2.391 -0.4117 -0.0479  0.6473
  336MOL0     C45285   4.861   9.365   2.282 -0.0908 -0.7016  0.2656
  336MOL0     C45286   4.994   9.421   2.239  0.0994  0.0514 -0.4975
  336MOL0     C45287   5.074   9.347   2.127  0.6183 -0.0597 -0.3242
  336MOL0     C45288   5.151   9.226   2.173 -0.1860 -0.6768 -0.4816
  336MOL0     C45289   5.204   9.116   2.190  0.1513 -0.1970  0.0621
  336MOL0     C45290   4.682   9.749   2.197  0.8870  0.1429 -0.5376
  336MOL0     C45291   4.573   9.815   2.137  0.6447 -0.0129  0.1137
  336MOL0     C45292   4.612   9.935   2.049 -0.1509 -0.0780 -0.2073
  336MOL0     H45293   4.250  10.197   2.125  0.8704  1.8583 -1.5122
  336MOL0     H45294   4.093  10.340   1.965 -1.7134 -0.7046 -1.4339
  336MOL0     H45295   3.926  10.148   1.606 -0.0772  0.7091 -2.8061
  336MOL0     H45296   3.869  10.306   1.613 -1.4555 -2.8300  0.6384
  336MOL0     H45297   4.091  10.225   1.464  2.1376 -1.2854  0.7087
  336MOL0     H45298   4.177  10.293   1.611  1.1721 -2.9120 -1.2569
  336MOL0     H45299   4.111  10.492   1.582  2.0330 -0.5184 -0.0994
  336MOL0     H45300   3.956  10.460   1.491  0.2971  0.8936 -0.1815
  336MOL0     H45301   4.243  10.439   1.402 -1.4027  0.4029  5.6021
  336MOL0     H45302   4.111  10.384   1.304  0.8119 -1.5413  1.6373
  336MOL0     H45303   4.026  10.640   1.336  0.1805 -1.1888 -1.4987
  336MOL0     H45304   4.186  10.650   1.402 -0.3243 -1.9039  1.4625
  336MOL0     H45305   4.282  10.626   1.166  0.0667 -0.4040  1.0427
  336MOL0     H45306   4.139  10.550   1.120 -1.5055  1.8651 -2.3493
  336MOL0     H45307   4.016  10.783   1.160  0.6308 -3.0165  2.5185
  336MOL0     H45308   4.127  10.769   1.011  4.3281 -0.7598 -0.8764
  336MOL0     H45309   4.202  10.887   1.276 -3.7172 -0.4576 -0.4126
  336MOL0     H45310   4.305  10.868   1.123 -0.7082  0.3279 -3.9117
  336MOL0     H45311   3.995  10.991   0.983 -1.4323 -0.7015  2.9136
  336MOL0     H45312   3.889  11.249   0.935  0.9937 -1.1387  4.2314
  336MOL0     H45313   3.974  11.379   0.998 -3.3392 -0.4689  0.6908
  336MOL0     H45314   4.109  11.222   0.762 -1.3552 -0.0180 -1.9854
  336MOL0     H45315   3.991  11.357   0.744  1.7708  2.1234  0.4872
  336MOL0     H45316   4.205  11.400   0.945  2.6707 -1.4946 -0.6383
  336MOL0     H45317   4.127  11.515   0.852  0.6558 -0.2986  1.3915
  336MOL0     H45318   4.359  11.330   0.756 -0.1852 -0.0871  0.4759
  336MOL0     H45319   4.348  11.508   0.746 -2.0522  0.5358  2.5162
  336MOL0     H45320   4.197  11.390   0.342 -1.9518  1.5089 -1.7008
  336MOL0     H45321   4.144  11.597   0.206 -2.8895 -1.8239 -0.3563
  336MOL0     H45322   4.195  11.791  -0.076 -0.4508  0.6757 -0.2578
  336MOL0     H45323   4.185  11.942  -0.277 -2.9834  1.5350 -2.8097
  336MOL0     H45324   4.227  12.175  -0.376 -1.1053 -0.4833  0.1070
  336MOL0     H45325   4.077  12.117  -0.466 -3.6735  1.1470  0.4004
  336MOL0     H45326   3.982  12.333  -0.463  0.2503 -1.6830  0.8610
  336MOL0     H45327   4.130  12.407  -0.410  0.1280  1.5849 -1.4484
  336MOL0     H45328   4.246  12.351  -0.595 -0.4786  0.0072 -0.1739
  336MOL0     H45329   4.116  12.237  -0.666  1.0779 -0.2661 -1.8459
  336MOL0     H45330   4.041  12.518  -0.607 -1.3655 -3.2119  0.3300
  336MOL0     H45331   4.024  12.433  -0.767  3.1289  3.2355 -3.0331
  336MOL0     H45332   4.286  12.478  -0.780 -0.3718 -1.3398  0.0372
  336MOL0     H45333   4.264  12.574  -0.641  4.0381 -1.7276 -1.1099
  336MOL0     H45334   4.135  12.616  -0.920 -3.2986  0.0010  1.2672
  336MOL0     H45335   4.063  12.702  -0.791  0.2195  0.4516 -0.0195
  336MOL0     H45336   4.343  12.716  -0.916 -0.9965 -1.2235 -0.5472
  336MOL0     H45337   4.307  12.784  -0.748 -0.2221 -2.4651  1.4067
  336MOL0     H45338   4.176  12.848  -1.008 -0.6004  1.1968  0.7282
  336MOL0     H45339   4.179  12.950  -0.856  0.4733  0.8096 -0.3552
  336MOL0     H45340   3.934  12.213  -0.040 -2.1435 -2.3035 -1.0032
  336MOL0     H45341   3.935  12.048   0.145  0.6389 -4.3803  1.3612
  336MOL0     H45342   4.153  11.839   0.557 -0.8666 -0.1096 -0.6985
  336MOL0     H45343   4.191  11.659   0.686  2.2963 -0.5669  0.1787
  336MOL0     H45344   4.058  10.028   1.704 -1.0723  1.4446 -0.0153
  336MOL0     H45345   4.217   9.887   1.827  0.5264  0.3083 -1.7052
  336MOL0     H45346   4.313   9.635   2.266 -0.8596  1.8925 -2.8705
  336MOL0     H45347   4.501   9.493   2.359  2.1616 -1.2333  0.1579
  336MOL0     H45348   4.694   9.422   2.427 -0.7964 -0.5183 -0.7721
  336MOL0     H45349   4.855   9.465   2.479 -0.7247 -2.3792  1.0642
  336MOL0     H45350   4.796   9.362   2.194 -0.4979  3.0405  0.2589
  336MOL0     H45351   4.884   9.272   2.334 -3.3536 -2.2225 -0.7512
  336MOL0     H45352   5.057   9.451   2.324 -0.3414 -0.4795  0.0328
  336MOL0     H45353   4.963   9.521   2.210  0.8570 -0.3595 -2.8930
  336MOL0     H45354   5.019   9.316   2.037 -1.7221  1.9527  0.3002
  336MOL0     H45355   5.145   9.418   2.084  0.6217  0.3649  0.3654
  336MOL0     H45356   5.257   9.025   2.208  1.0668  0.2904 -0.1233
  336MOL0     H45357   4.785   9.784   2.193  1.0437 -0.2964 -0.3662
  336MOL0     H45358   4.596  10.022   2.114 -0.1584  1.0559 -1.6746
  336MOL0     H45359   4.718   9.937   2.023 -0.5496  1.2737 -1.9049
  336MOL0     H45360   4.551   9.946   1.959  0.9891  0.6230 -0.9268
  337MOL0     O45361   1.020   5.333   1.382  0.0072  0.7116 -0.1417
  337MOL0     C45362   1.146   5.346   1.378  0.3815  0.2470  0.4133
  337MOL0     O45363   1.228   5.255   1.320  0.4352  0.6460  0.1617
  337MOL0     C45364   1.184   5.129   1.284  0.5348 -0.1835  0.5813
  337MOL0     C45365   1.131   5.100   1.163 -0.0495  0.5603  0.8939
  337MOL0     C45366   1.067   4.977   1.142  0.9907 -0.5501  1.5581
  337MOL0     C45367   1.074   4.876   1.236 -0.2179 -0.8125  0.7143
  337MOL0     O45368   1.037   4.752   1.208 -0.4888  0.1308  0.0283
  337MOL0     C45369   1.138   4.640   1.219  0.1177 -0.2758 -0.2843
  337MOL0     C45370   1.145   4.564   1.095  0.0172 -0.4287 -0.6998
  337MOL0     C45371   1.016   4.475   1.086  0.4958 -0.1591  1.0134
  337MOL0     C45372   1.013   4.417   0.943  1.0802  0.2277  0.3412
  337MOL0     C45373   0.904   4.319   0.921  0.3813 -0.2841 -0.4252
  337MOL0     C45374   0.954   4.176   0.970  0.1468 -0.5561 -0.1763
  337MOL0     C45375   0.829   4.085   0.988 -0.1638 -0.4615 -0.7449
  337MOL0     C45376   0.857   3.946   1.060  0.0767  0.4701 -0.0576
  337MOL0     N45377   0.940   3.963   1.178 -0.3503  0.1216 -0.0163
  337MOL0     C45378   0.914   4.033   1.297  0.0672  0.0543  0.8182
  337MOL0     C45379   1.029   4.020   1.368 -0.6420  0.4492  0.9463
  337MOL0     C45380   1.042   4.069   1.509  0.7782  0.1629  0.9642
  337MOL0     C45381   1.169   4.169   1.514  0.7894  0.1902  0.4201
  337MOL0     C45382   1.291   4.088   1.561 -0.0200 -1.4090  0.4428
  337MOL0     C45383   1.422   4.169   1.576 -0.0428 -0.0076 -0.5769
  337MOL0     O45384   1.478   4.166   1.444 -0.3137 -0.5967  0.0696
  337MOL0     C45385   1.576   4.261   1.430 -0.4610  0.4173  0.4182
  337MOL0     C45386   1.540   4.380   1.364 -0.4650 -0.0574 -0.2723
  337MOL0     C45387   1.634   4.470   1.327  0.2402 -0.1515 -0.6814
  337MOL0     C45388   1.765   4.441   1.353  1.0174 -0.4802 -0.0823
  337MOL0     C45389   1.870   4.522   1.285  0.8511  0.0655 -0.0333
  337MOL0     O45390   1.828   4.647   1.246 -0.1076 -0.6490 -0.5300
  337MOL0     C45391   1.926   4.733   1.197  0.8035  0.1069  0.1598
  337MOL0     C45392   2.045   4.742   1.256 -1.0267  0.5608 -0.5004
  337MOL0     C45393   2.141   4.829   1.200  0.9957 -1.0673 -0.1992
  337MOL0     C45394   2.097   4.912   1.092 -0.3673 -0.2843  0.2200
  337MOL0     O45395   2.180   5.008   1.048 -0.5228  0.1837  0.1785
  337MOL0     C45396   2.179   5.134   1.105  0.4005 -0.0851  0.2524
  337MOL0     C45397   2.074   5.215   1.021 -1.1053  0.6867 -1.2639
  337MOL0     C45398   2.088   5.227   0.867  0.0761 -0.7368 -0.3130
  337MOL0     C45399   1.957   5.264   0.807 -0.1005 -0.1094 -0.0364
  337MOL0     C45400   1.954   5.275   0.659 -0.7153 -0.9167  0.3811
  337MOL0     C45401   1.956   5.133   0.598 -0.1651  0.1476  0.4156
  337MOL0     C45402   1.903   5.127   0.454 -0.0817 -0.3196  0.1942
  337MOL0     C45403   1.939   5.000   0.386 -0.2126  0.5408 -1.0362
  337MOL0    Cl45404   1.830   4.876   0.453  0.3785 -0.0323 -0.2956
  337MOL0     C45405   1.967   4.908   1.031 -0.2583  0.3467  0.1507
  337MOL0     C45406   1.890   4.811   1.092 -0.5444 -1.0425  0.4773
  337MOL0     O45407   1.981   4.473   1.258  0.4159 -0.5016 -0.3595
  337MOL0     C45408   1.806   4.315   1.416  0.0418  0.0039  0.2884
  337MOL0     C45409   1.707   4.219   1.450  0.3985  0.4779  1.2746
  337MOL0     N45410   1.121   3.938   1.302  0.0369  0.2323 -0.3280
  337MOL0     N45411   1.061   3.907   1.194  0.4711  0.1504  0.5542
  337MOL0     C45412   1.117   4.905   1.366  0.1272  0.8066  1.2354
  337MOL0     C45413   1.171   5.038   1.390 -0.5764 -0.1398  0.1312
  337MOL0     C45414   1.219   5.475   1.408  0.2067  0.4633 -0.4056
  337MOL0     C45415   1.352   5.490   1.372  0.2471  0.8173 -0.5628
  337MOL0     C45416   1.417   5.611   1.393  0.6755  0.2148  0.2578
  337MOL0     C45417   1.356   5.719   1.456  0.4490  0.3936  0.7875
  337MOL0     O45418   1.419   5.840   1.482  0.7628  1.2331  0.1271
  337MOL0     C45419   1.549   5.868   1.446 -0.7889  0.2754 -0.0462
  337MOL0     C45420   1.556   6.016   1.421 -0.7946 -0.7445 -0.2678
  337MOL0     C45421   1.459   6.067   1.311  0.3337 -0.2861  0.8872
  337MOL0     C45422   1.472   5.988   1.175 -0.7726 -0.5791  1.1767
  337MOL0     C45423   1.607   5.981   1.115  0.5997  0.7478 -0.4879
  337MOL0     C45424   1.718   5.973   1.071  0.0759 -0.8034 -0.8229
  337MOL0     C45425   1.223   5.704   1.488  0.3837  0.1369 -0.0005
  337MOL0     C45426   1.159   5.584   1.477  0.7928  0.7763  0.0000
  337MOL0     C45427   1.025   5.574   1.549  0.9310 -0.9764 -0.2217
  337MOL0     H45428   1.118   5.175   1.086 -3.7650  0.5611  1.3384
  337MOL0     H45429   1.031   4.952   1.042 -1.5680  0.7728  2.0677
  337MOL0     H45430   1.242   4.671   1.234 -0.6257  1.9288  0.7344
  337MOL0     H45431   1.108   4.578   1.305 -0.9103 -2.4601 -2.1198
  337MOL0     H45432   1.237   4.505   1.087  3.0806  3.1572  3.5048
  337MOL0     H45433   1.145   4.618   1.000 -2.4439 -5.3616 -3.9524
  337MOL0     H45434   0.922   4.529   1.100 -0.1276 -0.8966 -0.1030
  337MOL0     H45435   1.017   4.394   1.160 -1.8715 -2.2659 -1.0463
  337MOL0     H45436   0.989   4.507   0.886 -3.0280 -0.9144 -0.0265
  337MOL0     H45437   1.107   4.368   0.915  2.2704  1.3464  2.1444
  337MOL0     H45438   0.828   4.359   0.990  1.1538  3.5799 -1.5496
  337MOL0     H45439   0.872   4.331   0.817  0.1334  1.1696 -0.2043
  337MOL0     H45440   1.030   4.141   0.900  2.0622  0.0867  1.4844
  337MOL0     H45441   1.006   4.183   1.066  1.7893 -1.7200 -0.9332
  337MOL0     H45442   0.788   4.064   0.889  1.1797 -1.9563 -1.0332
  337MOL0     H45443   0.767   4.138   1.060  1.8654 -1.9213  2.2653
  337MOL0     H45444   0.778   3.891   1.112  0.7874 -1.5318 -1.0266
  337MOL0     H45445   0.889   3.874   0.985  0.0759 -2.2196  2.3741
  337MOL0     H45446   0.817   4.071   1.326 -2.0435 -5.1189  1.6257
  337MOL0     H45447   0.955   4.127   1.541 -0.3271  1.6622 -3.9746
  337MOL0     H45448   1.078   3.988   1.574  2.6782  0.5563  0.4468
  337MOL0     H45449   1.184   4.214   1.416  1.8347 -0.7467  0.1294
  337MOL0     H45450   1.153   4.247   1.588 -1.2152  1.6397 -1.4157
  337MOL0     H45451   1.302   4.017   1.480 -0.5177 -0.5163 -0.4320
  337MOL0     H45452   1.270   4.044   1.659 -1.1698  0.2658  1.0161
  337MOL0     H45453   1.492   4.136   1.653 -0.0418 -0.3834 -0.7342
  337MOL0     H45454   1.397   4.269   1.612 -0.3846 -1.5806  4.1958
  337MOL0     H45455   1.439   4.401   1.332 -0.7487 -3.3725 -1.9807
  337MOL0     H45456   1.612   4.558   1.268 -0.1871  0.7310  0.7247
  337MOL0     H45457   2.079   4.680   1.338  1.7911 -0.1281 -2.0375
  337MOL0     H45458   2.240   4.851   1.238 -0.1261  0.2584  2.1419
  337MOL0     H45459   2.162   5.132   1.213  5.9762 -1.5178  1.4052
  337MOL0     H45460   2.272   5.188   1.085 -0.5982  0.8948 -2.0987
  337MOL0     H45461   1.970   5.184   1.039 -0.3418 -1.7583 -0.6777
  337MOL0     H45462   2.066   5.310   1.074  0.4748 -0.5267  1.3124
  337MOL0     H45463   2.156   5.306   0.834  0.5634 -1.3430 -0.7947
  337MOL0     H45464   2.113   5.127   0.830  0.8150 -2.0836  3.3852
  337MOL0     H45465   1.912   5.356   0.847  1.9949  1.0801 -0.2249
  337MOL0     H45466   1.888   5.185   0.838 -0.0003  1.0530  3.5022
  337MOL0     H45467   2.036   5.336   0.622  0.9944 -0.7625  4.0954
  337MOL0     H45468   1.860   5.316   0.621  1.9516  4.4768 -1.3582
  337MOL0     H45469   2.060   5.100   0.599 -0.8520 -2.2259  0.2615
  337MOL0     H45470   1.899   5.063   0.660  2.3984 -2.8496 -0.3417
  337MOL0     H45471   1.943   5.213   0.400  0.1508 -0.3579  0.3011
  337MOL0     H45472   1.796   5.131   0.435  0.6014  2.6450 -4.8835
  337MOL0     H45473   1.921   5.003   0.278 -3.0240 -3.1163 -0.8620
  337MOL0     H45474   2.046   4.986   0.405 -0.0832  0.3158 -1.8740
  337MOL0     H45475   1.943   4.953   0.936 -0.0606 -1.8542 -0.9971
  337MOL0     H45476   1.800   4.785   1.039 -0.1832 -0.9995 -0.1678
  337MOL0     H45477   1.914   4.300   1.421 -0.1034 -1.3257 -0.2108
  337MOL0     H45478   1.728   4.116   1.474 -1.8843 -1.2316 -3.0638
  337MOL0     H45479   1.084   4.828   1.436 -1.8941 -1.0960 -1.6101
  337MOL0     H45480   1.209   5.061   1.489  3.4228 -3.3608 -0.3750
  337MOL0     H45481   1.419   5.416   1.329  0.7398  0.5953  0.5689
  337MOL0     H45482   1.523   5.614   1.370  0.7660  2.2422  0.7592
  337MOL0     H45483   1.580   5.808   1.360 -1.0243 -1.2530  0.9072
  337MOL0     H45484   1.620   5.855   1.528  1.4214 -1.9880 -2.1639
  337MOL0     H45485   1.652   6.059   1.392 -1.1027 -0.5754 -1.0847
  337MOL0     H45486   1.535   6.077   1.509 -1.1243  1.2051 -1.6194
  337MOL0     H45487   1.465   6.173   1.285 -0.1365 -0.6350 -0.7417
  337MOL0     H45488   1.357   6.062   1.351  0.4370  0.9635  1.3633
  337MOL0     H45489   1.430   5.887   1.179 -1.2294 -0.4558 -0.0912
  337MOL0     H45490   1.418   6.049   1.103  1.4148  1.2010  0.9507
  337MOL0     H45491   1.816   5.981   1.029 -0.0962  0.0396 -1.1029
  337MOL0     H45492   1.169   5.791   1.521 -2.0690 -0.3386 -2.3803
  337MOL0     H45493   1.004   5.644   1.630 -3.4734 -3.7524  1.4732
  337MOL0     H45494   0.947   5.578   1.472  1.2670 -0.0464 -0.5255
  337MOL0     H45495   1.011   5.473   1.588 -2.4386  0.0219  1.5934
  338MOL0     O45496   6.558   4.602  11.219  0.3525 -0.0981 -0.8839
  338MOL0     C45497   6.660   4.562  11.277 -0.0991 -0.9211 -0.3353
  338MOL0     O45498   6.741   4.660  11.345 -0.5211 -0.2215 -0.0293
  338MOL0     C45499   6.729   4.794  11.314  0.5602 -0.0134  1.0851
  338MOL0     C45500   6.615   4.876  11.322  0.8162  0.4725  1.1550
  338MOL0     C45501   6.623   5.006  11.274 -0.4693 -0.3736  0.6207
  338MOL0     C45502   6.745   5.056  11.223 -0.0996 -0.2801  0.0061
  338MOL0     O45503   6.764   5.192  11.195 -0.2081  0.7288  0.2674
  338MOL0     C45504   6.652   5.282  11.176  0.2165 -0.2099  0.4715
  338MOL0     C45505   6.559   5.260  11.062  0.0461  0.1345 -0.1448
  338MOL0     C45506   6.443   5.350  11.062 -0.0722 -0.3250  0.5965
  338MOL0     C45507   6.367   5.324  10.935 -0.9176  0.9589 -0.5495
  338MOL0     C45508   6.216   5.274  10.959 -0.2824 -0.0918 -0.5174
  338MOL0     C45509   6.232   5.126  11.021  1.0950 -0.9115 -0.2595
  338MOL0     C45510   6.096   5.076  11.069  0.8242  0.0686 -0.1884
  338MOL0     C45511   5.991   5.056  10.958 -0.1959 -0.3384  0.0050
  338MOL0     N45512   5.855   5.060  11.017  0.8805  0.8633 -0.4339
  338MOL0     C45513   5.750   5.113  10.946  0.5189 -0.7903 -0.7149
  338MOL0     C45514   5.636   5.065  11.000 -0.4685 -0.1307 -0.1106
  338MOL0     C45515   5.497   5.091  10.946  0.2121 -0.4471  0.2490
  338MOL0     C45516   5.403   5.098  11.062 -0.3153 -0.0764  0.3907
  338MOL0     C45517   5.266   5.130  11.014  0.3370 -0.9869  0.7149
  338MOL0     C45518   5.256   5.283  11.007  0.3088  0.2723 -0.3407
  338MOL0     O45519   5.137   5.335  10.948  0.0558 -0.4692 -0.1323
  338MOL0     C45520   5.127   5.475  10.953 -0.1474 -0.4326  0.2041
  338MOL0     C45521   5.000   5.526  10.918  0.1848  0.4207 -1.1532
  338MOL0     C45522   4.973   5.661  10.941 -0.2125  0.2742 -0.2607
  338MOL0     C45523   5.071   5.760  10.974 -0.2309  1.2499 -0.5575
  338MOL0     C45524   5.034   5.899  10.990 -0.8094 -0.1421 -0.7846
  338MOL0     O45525   4.896   5.914  10.985 -0.6999 -0.2154  0.1541
  338MOL0     C45526   4.844   6.032  11.005  0.2256  0.0659 -0.3803
  338MOL0     C45527   4.828   6.122  10.902 -0.0953 -0.0691  0.8293
  338MOL0     C45528   4.798   6.258  10.931 -1.3272  0.6472 -1.0293
  338MOL0     C45529   4.780   6.300  11.063  0.7087 -0.6806 -0.1452
  338MOL0     O45530   4.748   6.432  11.096  0.7678  0.1622 -0.2217
  338MOL0     C45531   4.814   6.486  11.213 -0.0283 -0.3397  0.1258
  338MOL0     C45532   4.728   6.586  11.274 -0.1700 -0.4378  0.5668
  338MOL0     C45533   4.810   6.672  11.374  0.0350 -0.0575 -0.2794
  338MOL0     C45534   4.769   6.814  11.413  0.1144  0.6622 -0.9001
  338MOL0     C45535   4.800   6.914  11.297 -0.5020 -0.5248  0.6067
  338MOL0     C45536   4.729   7.049  11.294 -0.1266  0.6760  0.1256
  338MOL0     C45537   4.757   7.123  11.162 -0.5551  0.6572 -0.3652
  338MOL0     C45538   4.736   7.276  11.180 -0.0085 -0.1677 -0.4784
  338MOL0    Cl45539   4.759   7.370  11.033  0.4550 -0.6407 -0.0822
  338MOL0     C45540   4.783   6.200  11.163 -0.4848 -0.0415 -0.5518
  338MOL0     C45541   4.816   6.070  11.131  0.1108 -0.5091 -0.9027
  338MOL0     O45542   5.113   5.972  11.052 -0.4280 -0.4130 -0.2760
  338MOL0     C45543   5.200   5.701  10.999 -0.3718 -0.3625  0.5649
  338MOL0     C45544   5.231   5.563  10.995 -0.0015  0.2615  0.0151
  338MOL0     N45545   5.684   4.968  11.088  0.8512 -1.2008  0.1130
  338MOL0     N45546   5.806   4.968  11.108 -0.3380  0.9871  0.1384
  338MOL0     C45547   6.853   4.979  11.219 -0.9860  0.4341 -0.4059
  338MOL0     C45548   6.848   4.849  11.263 -0.2492 -0.5355 -0.5953
  338MOL0     C45549   6.699   4.419  11.285  0.4431 -0.5687 -0.3590
  338MOL0     C45550   6.833   4.389  11.304 -0.1951 -1.5618  0.5661
  338MOL0     C45551   6.882   4.259  11.319  0.5363  0.3017  0.1976
  338MOL0     C45552   6.793   4.156  11.306 -0.5730  0.8547  0.0245
  338MOL0     O45553   6.853   4.030  11.302 -0.1928 -0.1673  1.0613
  338MOL0     C45554   6.774   3.910  11.261 -0.5771 -0.4303 -1.2179
  338MOL0     C45555   6.685   3.862  11.380  0.2408 -0.6294 -0.8342
  338MOL0     C45556   6.643   3.717  11.367 -0.0591  0.0387  0.8166
  338MOL0     C45557   6.559   3.701  11.238 -0.2391 -0.3534  0.2290
  338MOL0     C45558   6.644   3.648  11.135  0.0619 -0.9087 -0.3152
  338MOL0     C45559   6.702   3.606  11.037  0.1028  0.0165 -0.7131
  338MOL0     C45560   6.654   4.180  11.289 -0.7745  0.1505  1.2003
  338MOL0     C45561   6.604   4.307  11.284  0.6981  0.6197 -0.6421
  338MOL0     C45562   6.452   4.321  11.269 -0.2904  0.0133  0.4645
  338MOL0     H45563   6.525   4.829  11.361 -0.2169  1.2658 -0.1938
  338MOL0     H45564   6.537   5.071  11.264  0.0460  1.1261  4.4294
  338MOL0     H45565   6.586   5.291  11.262 -1.5343  1.2851 -0.9543
  338MOL0     H45566   6.701   5.379  11.163  1.2323 -0.9910 -2.2518
  338MOL0     H45567   6.524   5.156  11.061 -0.8956  0.4456 -0.5206
  338MOL0     H45568   6.619   5.267  10.971 -0.9633 -2.3845 -1.0708
  338MOL0     H45569   6.482   5.451  11.076  2.1182 -1.2090  1.4909
  338MOL0     H45570   6.380   5.322  11.147  0.5596 -4.2134 -0.0239
  338MOL0     H45571   6.355   5.421  10.886 -2.1468  1.1684  0.1209
  338MOL0     H45572   6.422   5.257  10.868 -0.7178  1.2622 -0.6945
  338MOL0     H45573   6.165   5.352  11.016  0.5651  0.7162 -0.8271
  338MOL0     H45574   6.172   5.253  10.861  2.9408 -1.3727 -1.8251
  338MOL0     H45575   6.274   5.053  10.951 -1.7830 -1.6051 -1.3859
  338MOL0     H45576   6.306   5.134  11.102  1.4897 -0.4966 -0.6527
  338MOL0     H45577   6.057   5.152  11.138  0.2600  0.5594 -1.0279
  338MOL0     H45578   6.097   4.981  11.124 -2.4075  0.0239  0.0274
  338MOL0     H45579   5.999   5.144  10.893  0.7846 -1.0160 -0.8296
  338MOL0     H45580   6.004   4.962  10.904  0.2653 -1.1093  1.4233
  338MOL0     H45581   5.748   5.181  10.861  0.3657  1.2761  0.8593
  338MOL0     H45582   5.504   5.182  10.887 -1.8061  0.7214  1.7031
  338MOL0     H45583   5.468   5.010  10.879 -0.0143  0.5335 -0.8550
  338MOL0     H45584   5.400   4.995  11.100 -0.3355 -0.4093 -0.4964
  338MOL0     H45585   5.444   5.174  11.130  1.2497 -0.0017 -0.5937
  338MOL0     H45586   5.187   5.094  11.081 -1.5191 -1.8206 -1.7490
  338MOL0     H45587   5.235   5.083  10.920  0.6780  2.5150 -1.3215
  338MOL0     H45588   5.348   5.323  10.963  2.0524 -0.6251  2.2628
  338MOL0     H45589   5.247   5.314  11.111 -5.2826 -3.5750  0.8000
  338MOL0     H45590   4.936   5.444  10.887  1.8488  0.2849 -4.7164
  338MOL0     H45591   4.870   5.692  10.923  0.0821  1.0925 -0.5540
  338MOL0     H45592   4.840   6.085  10.800  0.3252  0.7823  0.5547
  338MOL0     H45593   4.784   6.331  10.851 -0.0449 -1.8348 -3.6929
  338MOL0     H45594   4.840   6.404  11.281  1.3503  1.0449  1.3435
  338MOL0     H45595   4.901   6.537  11.171 -1.2205  2.6193  1.0462
  338MOL0     H45596   4.672   6.640  11.198 -2.2085  0.0665  2.3258
  338MOL0     H45597   4.649   6.537  11.332  0.7467 -3.5857 -0.6743
  338MOL0     H45598   4.823   6.609  11.463  1.5846 -1.6917 -1.6028
  338MOL0     H45599   4.911   6.688  11.335  0.8391  0.8058  1.9703
  338MOL0     H45600   4.839   6.835  11.495  1.9666  0.2877 -2.3284
  338MOL0     H45601   4.665   6.804  11.447  0.5357 -0.5752  0.1109
  338MOL0     H45602   4.801   6.870  11.197  4.4739 -1.8529  0.9539
  338MOL0     H45603   4.905   6.942  11.306 -0.2178 -1.2166 -0.3585
  338MOL0     H45604   4.621   7.032  11.297  0.1543 -1.1453  1.1609
  338MOL0     H45605   4.749   7.103  11.387 -0.3851 -0.3373  0.7789
  338MOL0     H45606   4.690   7.093  11.081 -0.2758  1.7190 -1.0216
  338MOL0     H45607   4.862   7.109  11.137 -0.1178  0.0845  1.6178
  338MOL0     H45608   4.637   7.305  11.219  0.3411 -0.7523  0.9310
  338MOL0     H45609   4.804   7.316  11.256 -0.6480  2.6504 -1.3006
  338MOL0     H45610   4.759   6.222  11.266  0.8491  1.6507 -0.5620
  338MOL0     H45611   4.829   5.996  11.210  3.7115 -0.3623 -1.1804
  338MOL0     H45612   5.274   5.770  11.037  1.7862 -0.8399 -2.4521
  338MOL0     H45613   5.325   5.528  11.035 -0.7243  0.4762  2.0236
  338MOL0     H45614   6.947   5.016  11.178 -0.5650 -2.6557 -2.6590
  338MOL0     H45615   6.935   4.784  11.262  0.4722  0.3571  0.8393
  338MOL0     H45616   6.913   4.463  11.307 -1.3405 -0.0888 -2.1023
  338MOL0     H45617   6.990   4.249  11.326  0.5166 -0.7068 -0.5456
  338MOL0     H45618   6.840   3.834  11.218  0.7558  0.9838 -1.7442
  338MOL0     H45619   6.713   3.940  11.176 -0.9525 -2.5492 -1.7681
  338MOL0     H45620   6.593   3.917  11.402  0.0195 -1.0396 -0.7143
  338MOL0     H45621   6.744   3.872  11.472 -0.1582 -0.8711 -0.5469
  338MOL0     H45622   6.588   3.688  11.456 -3.1694 -2.5081 -1.6917
  338MOL0     H45623   6.729   3.650  11.373  0.0269 -0.0993 -1.0919
  338MOL0     H45624   6.470   3.640  11.247 -0.0751 -1.1235 -2.4528
  338MOL0     H45625   6.518   3.797  11.205  3.5910  1.8601  1.1644
  338MOL0     H45626   6.770   3.565  10.965  1.1976  1.6366 -0.6434
  338MOL0     H45627   6.580   4.102  11.287  0.7477 -1.3513  1.3520
  338MOL0     H45628   6.420   4.384  11.353  0.3457 -1.6220  1.9883
  338MOL0     H45629   6.429   4.380  11.180 -2.9326 -2.5976 -0.7271
  338MOL0     H45630   6.398   4.227  11.282 -1.1607  0.7406  2.6471
  339MOL0     O45631   1.829   1.024   3.827 -0.0293 -0.6030  0.9547
  339MOL0     C45632   1.887   0.923   3.875 -0.1527 -0.8172 -0.8590
  339MOL0     O45633   1.832   0.828   3.959 -0.2004 -1.2540 -0.0313
  339MOL0     C45634   1.729   0.873   4.036  0.2305 -0.2058 -0.2548
  339MOL0     C45635   1.751   0.892   4.170  0.2357 -1.1963 -0.3716
  339MOL0     C45636   1.654   0.944   4.254 -1.0114 -0.2762  0.1165
  339MOL0     C45637   1.527   0.974   4.202 -0.2699  0.9418 -1.1917
  339MOL0     O45638   1.434   1.028   4.291  0.0528  0.2575  0.2303
  339MOL0     C45639   1.309   1.070   4.239  0.3484 -0.1967  0.0772
  339MOL0     C45640   1.212   1.091   4.353 -0.1826 -0.1589 -0.0487
  339MOL0     C45641   1.257   1.181   4.482  0.3223  1.1287 -0.3830
  339MOL0     C45642   1.163   1.166   4.602  0.1050 -0.7413  0.9734
  339MOL0     C45643   1.202   1.270   4.713  0.9344  0.3391  0.6173
  339MOL0     C45644   1.106   1.249   4.829  0.2075 -0.0221 -0.5932
  339MOL0     C45645   1.144   1.351   4.941  0.0554 -0.1737 -0.0934
  339MOL0     C45646   1.052   1.483   4.926 -0.0489  0.1820  0.2414
  339MOL0     N45647   1.094   1.584   5.027  0.6139 -0.0822 -0.0863
  339MOL0     C45648   1.210   1.589   5.088 -0.5587  0.1282 -0.8786
  339MOL0     C45649   1.182   1.674   5.192 -0.2760 -0.2717  0.4915
  339MOL0     C45650   1.277   1.715   5.294 -0.5304 -0.5352  0.1389
  339MOL0     C45651   1.259   1.859   5.347 -0.3027  0.1482 -0.7668
  339MOL0     C45652   1.378   1.961   5.330 -0.7342 -0.7799 -0.7988
  339MOL0     C45653   1.416   1.987   5.181 -0.2120 -0.7118  0.4977
  339MOL0     O45654   1.534   2.072   5.171  0.5907 -0.0665 -1.0665
  339MOL0     C45655   1.514   2.206   5.196 -0.5649 -0.4075  0.0589
  339MOL0     C45656   1.409   2.289   5.188  0.0600  0.5268 -1.2729
  339MOL0     C45657   1.416   2.427   5.222 -0.4008 -0.8940  0.2638
  339MOL0     C45658   1.543   2.485   5.256  0.2803  1.1933  0.2038
  339MOL0     C45659   1.554   2.617   5.308  0.5578  0.5282  0.0295
  339MOL0     O45660   1.456   2.708   5.282 -0.3945 -0.6903  0.4019
  339MOL0     C45661   1.484   2.838   5.283 -0.0645  0.6812  0.2620
  339MOL0     C45662   1.408   2.925   5.354  0.0324 -0.1258 -0.5012
  339MOL0     C45663   1.420   3.060   5.357 -0.3892  0.4908 -0.3701
  339MOL0     C45664   1.509   3.121   5.273 -1.2480  0.1341 -0.1773
  339MOL0     O45665   1.501   3.257   5.262 -0.2639  0.1410  0.6037
  339MOL0     C45666   1.490   3.306   5.125 -0.5660  0.1487 -1.1876
  339MOL0     C45667   1.416   3.437   5.142  0.1214 -0.3991  0.5121
  339MOL0     C45668   1.437   3.518   5.277 -0.4187  0.5590 -0.6171
  339MOL0     C45669   1.578   3.515   5.325 -0.0892 -1.1361 -1.2225
  339MOL0     C45670   1.602   3.641   5.411  0.1226 -0.6160 -0.1183
  339MOL0     C45671   1.738   3.624   5.489  0.8660 -0.5349  0.8989
  339MOL0     C45672   1.716   3.528   5.606  0.9458  0.8662  0.0299
  339MOL0     C45673   1.709   3.588   5.741 -0.7897 -0.3624 -0.0750
  339MOL0    Cl45674   1.867   3.671   5.777  0.1592  0.4293  0.2372
  339MOL0     C45675   1.596   3.043   5.198  0.0237  0.1111 -0.0907
  339MOL0     C45676   1.577   2.906   5.204 -0.3204  0.0436  0.3416
  339MOL0     O45677   1.649   2.641   5.384 -0.1361  0.3858  0.3784
  339MOL0     C45678   1.659   2.410   5.245 -0.3022  0.7313 -0.9915
  339MOL0     C45679   1.642   2.272   5.221  0.1243  0.0629 -0.2760
  339MOL0     N45680   1.049   1.711   5.195  0.4880 -0.6793 -0.1806
  339MOL0     N45681   0.999   1.659   5.096 -0.3525 -0.2459 -0.0560
  339MOL0     C45682   1.500   0.948   4.070  0.1218  0.1127  0.0746
  339MOL0     C45683   1.601   0.902   3.989 -0.4374  0.6090  0.8702
  339MOL0     C45684   2.032   0.911   3.840  0.5777  0.0497 -0.1220
  339MOL0     C45685   2.121   0.856   3.935 -0.8416  0.5412 -0.1143
  339MOL0     C45686   2.257   0.840   3.904  0.0164  0.1265  0.9472
  339MOL0     C45687   2.308   0.879   3.783  0.0634 -0.6457  0.2222
  339MOL0     O45688   2.443   0.895   3.741  0.8051  0.4750  0.1668
  339MOL0     C45689   2.535   0.807   3.802  0.4626  0.1746 -0.1630
  339MOL0     C45690   2.672   0.882   3.812 -0.0200  0.6845 -0.0031
  339MOL0     C45691   2.672   1.002   3.905 -0.0477 -0.4114  0.4709
  339MOL0     C45692   2.815   1.022   3.969 -0.5621 -0.9817 -0.8011
  339MOL0     C45693   2.812   1.144   4.053  0.1007 -0.7070 -0.4544
  339MOL0     C45694   2.805   1.249   4.109  0.0810  0.1183 -0.2465
  339MOL0     C45695   2.209   0.927   3.690 -0.6991  0.6697 -0.4350
  339MOL0     C45696   2.077   0.945   3.713 -0.8193  0.3381  0.1016
  339MOL0     C45697   1.989   1.000   3.594 -0.2868  0.0352 -0.1021
  339MOL0     H45698   1.850   0.872   4.209 -0.1304 -2.2798  0.0284
  339MOL0     H45699   1.679   0.962   4.358 -3.4489 -0.4112  0.7737
  339MOL0     H45700   1.344   1.159   4.186 -0.4935  1.0099  1.4610
  339MOL0     H45701   1.269   1.011   4.156 -0.4005 -3.5277  2.5884
  339MOL0     H45702   1.182   0.995   4.396 -1.7702 -0.8596 -2.4768
  339MOL0     H45703   1.124   1.128   4.300  0.1641  0.6787 -0.0595
  339MOL0     H45704   1.279   1.285   4.456  1.9206  1.2696  1.3611
  339MOL0     H45705   1.351   1.137   4.516 -0.9529 -0.5982  1.1222
  339MOL0     H45706   1.069   1.193   4.553  1.0580 -2.2698 -1.9103
  339MOL0     H45707   1.154   1.067   4.649  0.5419 -0.5906  1.3898
  339MOL0     H45708   1.306   1.262   4.746  1.3800  1.6032 -0.4104
  339MOL0     H45709   1.189   1.371   4.675 -1.3005 -0.6084 -1.3855
  339MOL0     H45710   1.003   1.258   4.794  0.7511 -0.9716 -2.5802
  339MOL0     H45711   1.108   1.151   4.877 -2.3393  1.1004  2.1402
  339MOL0     H45712   1.252   1.369   4.932 -0.2112  0.8588 -1.7171
  339MOL0     H45713   1.114   1.289   5.026  1.0877  0.6576  0.9124
  339MOL0     H45714   1.066   1.528   4.827 -0.0470  0.3998  0.3381
  339MOL0     H45715   0.948   1.452   4.935  0.3136 -1.1351  0.1265
  339MOL0     H45716   1.307   1.544   5.069 -0.6683 -0.2061 -0.6642
  339MOL0     H45717   1.247   1.647   5.374 -0.4651 -0.1970  0.4563
  339MOL0     H45718   1.380   1.692   5.264 -0.2191 -0.7486  1.3046
  339MOL0     H45719   1.172   1.906   5.299  0.4824  1.9961 -0.4686
  339MOL0     H45720   1.238   1.846   5.454 -1.4804 -3.7535 -1.3095
  339MOL0     H45721   1.464   1.935   5.393 -0.8323 -0.9625 -0.7393
  339MOL0     H45722   1.350   2.059   5.369  2.0295 -0.0267 -0.5135
  339MOL0     H45723   1.328   2.023   5.127  0.2414 -2.1543 -1.2731
  339MOL0     H45724   1.433   1.889   5.135  0.9422 -0.8526  1.1759
  339MOL0     H45725   1.312   2.245   5.165  1.2116 -2.1459 -1.3561
  339MOL0     H45726   1.333   2.497   5.223  2.0084  2.1830  0.7369
  339MOL0     H45727   1.341   2.887   5.430  0.4584  0.5746  0.2335
  339MOL0     H45728   1.352   3.123   5.414  0.4401 -0.6576  2.0112
  339MOL0     H45729   1.589   3.336   5.089  0.2083  1.8818  1.9337
  339MOL0     H45730   1.440   3.238   5.056  3.2802 -3.4991 -0.7900
  339MOL0     H45731   1.444   3.499   5.056  1.1889 -2.5155 -0.7836
  339MOL0     H45732   1.314   3.402   5.127 -0.1956  0.7215 -0.0089
  339MOL0     H45733   1.408   3.620   5.253  4.2245  2.7232  1.5899
  339MOL0     H45734   1.364   3.488   5.352 -0.0703  2.3990  0.5199
  339MOL0     H45735   1.650   3.513   5.242  0.3292 -1.1846 -0.8591
  339MOL0     H45736   1.590   3.430   5.393 -3.7414 -0.4190  0.5699
  339MOL0     H45737   1.518   3.666   5.477  3.3864 -1.6541  4.9531
  339MOL0     H45738   1.607   3.715   5.330 -1.8954 -0.3555 -0.0680
  339MOL0     H45739   1.816   3.587   5.422  2.4421  1.9501  1.2209
  339MOL0     H45740   1.770   3.723   5.522 -0.6320 -0.5682  2.5945
  339MOL0     H45741   1.789   3.447   5.604  1.3846  1.2688 -0.6216
  339MOL0     H45742   1.625   3.470   5.586  0.8138  1.3229 -0.7503
  339MOL0     H45743   1.629   3.662   5.745 -2.5315 -2.1020 -0.7435
  339MOL0     H45744   1.691   3.518   5.823  2.6240 -1.1912  0.0963
  339MOL0     H45745   1.665   3.079   5.123 -0.1445  1.5412  0.4055
  339MOL0     H45746   1.653   2.852   5.150  0.0979  2.0236 -1.1891
  339MOL0     H45747   1.759   2.448   5.259 -0.8452  2.2602 -1.0616
  339MOL0     H45748   1.734   2.216   5.218 -0.1017 -0.2734 -1.0167
  339MOL0     H45749   1.412   0.988   4.020  0.3922 -1.9556 -2.2466
  339MOL0     H45750   1.579   0.901   3.883  1.2335 -1.3330  0.4734
  339MOL0     H45751   2.087   0.833   4.036 -1.3783  2.5438  0.1919
  339MOL0     H45752   2.326   0.806   3.982  1.1877  0.3368  0.0325
  339MOL0     H45753   2.542   0.721   3.735 -4.5047  1.7096 -3.1580
  339MOL0     H45754   2.516   0.784   3.908  1.3335  1.1746  0.2263
  339MOL0     H45755   2.706   0.934   3.721 -0.5592  0.3475 -0.4035
  339MOL0     H45756   2.738   0.802   3.848 -0.1806 -2.1029 -4.9316
  339MOL0     H45757   2.594   0.994   3.982  1.9560 -0.7130  2.5638
  339MOL0     H45758   2.648   1.089   3.843  1.8095  0.4252  0.8726
  339MOL0     H45759   2.850   0.937   4.028  0.5394 -0.3718 -0.5664
  339MOL0     H45760   2.886   1.046   3.890 -0.1617 -2.0267 -0.7742
  339MOL0     H45761   2.825   1.341   4.162 -3.0152  0.6100  0.2539
  339MOL0     H45762   2.251   0.948   3.592  3.5924 -3.2756  0.2265
  339MOL0     H45763   1.919   0.928   3.551 -2.6075  3.0891 -1.7789
  339MOL0     H45764   1.930   1.086   3.628 -1.3398  0.5346 -2.9627
  339MOL0     H45765   2.051   1.032   3.510  1.7136 -0.9759  0.9207
  340MOL0     O45766   3.953   4.623   6.478  0.3039 -0.5903  0.3242
  340MOL0     C45767   3.951   4.685   6.370  0.0709  0.2854  0.0185
  340MOL0     O45768   3.940   4.615   6.246 -0.2195 -0.9921  0.3140
  340MOL0     C45769   3.901   4.481   6.248  0.6245  0.2539  0.3185
  340MOL0     C45770   3.774   4.450   6.222  0.1627 -0.2682 -0.1085
  340MOL0     C45771   3.745   4.310   6.231  1.0056 -0.5196  0.0069
  340MOL0     C45772   3.828   4.207   6.268  0.3660 -0.3600 -0.1270
  340MOL0     O45773   3.799   4.074   6.305 -0.0613  0.1512 -0.0532
  340MOL0     C45774   3.664   4.026   6.267 -0.9608 -0.4330  0.0025
  340MOL0     C45775   3.673   3.868   6.250  0.1425 -0.5454  0.9184
  340MOL0     C45776   3.544   3.821   6.167 -0.5290  0.1422 -0.8642
  340MOL0     C45777   3.556   3.677   6.123 -0.1735 -0.1020  0.2465
  340MOL0     C45778   3.421   3.627   6.064  0.3930  0.9725 -0.2587
  340MOL0     C45779   3.433   3.474   6.041 -0.1280  0.1665 -0.3927
  340MOL0     C45780   3.343   3.421   5.932  0.4003 -0.0176  0.4391
  340MOL0     C45781   3.359   3.268   5.935  0.6843 -0.0129  0.2075
  340MOL0     N45782   3.241   3.184   5.902 -0.8111  1.5321  0.2885
  340MOL0     C45783   3.257   3.051   5.885 -0.0264 -0.1742  0.2970
  340MOL0     C45784   3.132   3.004   5.879  0.1394 -0.9099 -0.5878
  340MOL0     C45785   3.104   2.852   5.843  0.0913  0.4733 -0.6041
  340MOL0     C45786   3.218   2.750   5.878 -1.1070  0.2991 -0.0796
  340MOL0     C45787   3.168   2.615   5.891  0.7090  1.0437  0.1784
  340MOL0     C45788   3.138   2.554   5.752 -0.8667 -0.1460 -0.3553
  340MOL0     O45789   3.119   2.418   5.779  0.0705  0.5641 -1.0399
  340MOL0     C45790   3.197   2.327   5.711  0.3492 -1.0363  0.0871
  340MOL0     C45791   3.164   2.291   5.586  0.1188  0.1503 -0.0730
  340MOL0     C45792   3.233   2.202   5.509  0.2612 -0.7794  0.6135
  340MOL0     C45793   3.345   2.138   5.551 -0.5580  0.0659 -0.2447
  340MOL0     C45794   3.430   2.050   5.460  0.4257  0.1463 -0.0625
  340MOL0     O45795   3.387   2.051   5.334  0.5784 -0.5762  0.3987
  340MOL0     C45796   3.444   1.961   5.244  0.3478  0.0171  0.8550
  340MOL0     C45797   3.387   1.827   5.232  1.1916 -1.1046  0.4620
  340MOL0     C45798   3.455   1.740   5.149 -0.0120  0.5254 -0.1701
  340MOL0     C45799   3.572   1.774   5.084  0.2042  0.5206  1.1228
  340MOL0     O45800   3.619   1.674   5.009  0.6842  0.6471 -0.0170
  340MOL0     C45801   3.701   1.702   4.892 -0.5080  0.2150 -0.1674
  340MOL0     C45802   3.750   1.576   4.823 -0.1744 -0.4432  0.1191
  340MOL0     C45803   3.635   1.502   4.756 -0.3293  0.1263  0.2718
  340MOL0     C45804   3.699   1.373   4.704 -0.3297  0.1836 -0.0281
  340MOL0     C45805   3.585   1.275   4.637 -0.1065  0.6539  0.2542
  340MOL0     C45806   3.647   1.150   4.564 -0.5727  1.0555  0.5571
  340MOL0     C45807   3.647   1.160   4.406  0.3346 -0.5480 -0.0771
  340MOL0     C45808   3.722   1.296   4.373  0.3397 -0.4042 -0.6142
  340MOL0    Cl45809   3.806   1.305   4.213  0.2448 -0.1290 -0.5108
  340MOL0     C45810   3.629   1.900   5.096  0.1965  0.7066  0.2150
  340MOL0     C45811   3.562   1.993   5.170 -0.2645  0.0507  0.2129
  340MOL0     O45812   3.514   1.976   5.501  0.6468  0.1004 -0.1423
  340MOL0     C45813   3.381   2.162   5.690 -0.0510  0.4144  0.1570
  340MOL0     C45814   3.309   2.261   5.765  0.0489  0.3674 -0.2560
  340MOL0     N45815   3.040   3.111   5.894 -0.3627 -0.3254 -0.2654
  340MOL0     N45816   3.116   3.222   5.902 -0.0390 -0.7035 -0.3308
  340MOL0     C45817   3.963   4.247   6.279  0.0222  0.0224 -0.2815
  340MOL0     C45818   3.998   4.384   6.268  0.2109  0.4756  0.2064
  340MOL0     C45819   3.982   4.830   6.375  0.3663 -0.3263  0.3298
  340MOL0     C45820   4.002   4.886   6.250  0.4894  0.2608  0.5793
  340MOL0     C45821   4.020   5.022   6.229  0.4848 -0.1294 -0.4221
  340MOL0     C45822   4.021   5.108   6.341  0.3645 -0.3942 -0.0449
  340MOL0     O45823   4.036   5.245   6.346 -0.4843  0.0688 -0.2283
  340MOL0     C45824   4.011   5.325   6.227  0.2279  0.1206 -0.5445
  340MOL0     C45825   4.047   5.475   6.246 -0.4955 -1.6263  0.5994
  340MOL0     C45826   3.970   5.547   6.360  0.5611 -0.2172 -0.0279
  340MOL0     C45827   4.006   5.696   6.351 -1.0273 -0.1745  0.2710
  340MOL0     C45828   3.952   5.759   6.228 -0.4841  0.0463  0.3464
  340MOL0     C45829   3.912   5.794   6.122  0.5660 -0.8158  0.1021
  340MOL0     C45830   4.007   5.053   6.473  0.0122 -0.2050  0.0751
  340MOL0     C45831   3.985   4.913   6.493  0.3685  0.6352  0.3596
  340MOL0     C45832   3.965   4.856   6.630  0.7966 -0.8734  0.0498
  340MOL0     H45833   3.691   4.516   6.200 -0.1044 -0.7191 -0.4733
  340MOL0     H45834   3.637   4.307   6.237  1.0162  1.2717  2.7792
  340MOL0     H45835   3.584   4.053   6.337 -2.0935 -0.4346 -1.2712
  340MOL0     H45836   3.637   4.069   6.170  0.1818  0.0404 -0.1235
  340MOL0     H45837   3.694   3.816   6.344  3.6051 -2.8896 -0.9059
  340MOL0     H45838   3.760   3.840   6.189 -0.6080 -1.3964  0.2223
  340MOL0     H45839   3.521   3.885   6.081 -3.6016 -1.1465 -1.1442
  340MOL0     H45840   3.461   3.826   6.238  0.5267 -0.2879  0.4373
  340MOL0     H45841   3.639   3.671   6.053 -1.1643  2.9712 -1.3548
  340MOL0     H45842   3.580   3.620   6.214  2.7395  2.4089  1.2088
  340MOL0     H45843   3.344   3.636   6.142 -2.1341  5.3577 -2.8374
  340MOL0     H45844   3.378   3.672   5.975 -0.6371  0.7914  0.1249
  340MOL0     H45845   3.536   3.452   6.014  1.6651  4.6665  1.6381
  340MOL0     H45846   3.415   3.426   6.137 -0.1280 -0.5800 -0.7598
  340MOL0     H45847   3.379   3.460   5.836 -1.5584 -0.1044 -0.3882
  340MOL0     H45848   3.237   3.446   5.946 -0.3871 -1.2407 -2.4812
  340MOL0     H45849   3.444   3.246   5.870  0.6295 -1.6768  0.6582
  340MOL0     H45850   3.390   3.237   6.035  2.2929 -0.7973 -0.5073
  340MOL0     H45851   3.346   2.989   5.875 -0.2687 -0.5077  0.2077
  340MOL0     H45852   3.011   2.830   5.897 -0.5833 -0.3137 -2.0254
  340MOL0     H45853   3.087   2.833   5.737  0.3565 -0.1868 -0.5396
  340MOL0     H45854   3.297   2.770   5.805 -1.1278  2.0679  0.3310
  340MOL0     H45855   3.250   2.782   5.977 -3.6451  1.2372  0.5201
  340MOL0     H45856   3.073   2.618   5.945 -0.7162 -0.4551 -2.0556
  340MOL0     H45857   3.248   2.554   5.935  1.1150  1.3986 -0.0538
  340MOL0     H45858   3.235   2.560   5.702  0.0781 -1.7517  1.1930
  340MOL0     H45859   3.051   2.609   5.714  1.2686  2.0643 -2.3358
  340MOL0     H45860   3.068   2.330   5.550  0.4266 -0.5263 -1.7418
  340MOL0     H45861   3.195   2.164   5.415  2.3724 -5.1180  1.2505
  340MOL0     H45862   3.294   1.799   5.281  0.4698 -2.0672 -1.3790
  340MOL0     H45863   3.409   1.642   5.155 -0.9703  0.8804 -1.4569
  340MOL0     H45864   3.649   1.777   4.832  0.4720  1.4117  0.4391
  340MOL0     H45865   3.791   1.747   4.935 -0.9927 -0.1801  1.2987
  340MOL0     H45866   3.836   1.593   4.758  1.6866  1.5235  2.8673
  340MOL0     H45867   3.796   1.516   4.901 -3.0010 -0.3725  1.9837
  340MOL0     H45868   3.558   1.477   4.830  0.9438 -1.8234  1.0094
  340MOL0     H45869   3.594   1.560   4.673 -0.2259  2.3811  1.7097
  340MOL0     H45870   3.736   1.307   4.783  1.1160  1.6279  0.5586
  340MOL0     H45871   3.773   1.387   4.625 -0.0698 -0.0778  0.1669
  340MOL0     H45872   3.535   1.336   4.561  1.9701  2.5917  0.3140
  340MOL0     H45873   3.530   1.229   4.720  0.5985 -1.3227 -0.3208
  340MOL0     H45874   3.750   1.130   4.593 -0.5591 -1.6676 -0.9782
  340MOL0     H45875   3.608   1.053   4.598  1.6937 -0.7051 -1.4772
  340MOL0     H45876   3.543   1.168   4.373  1.5592  1.8169 -4.0482
  340MOL0     H45877   3.680   1.066   4.360 -0.7519  0.3102 -2.8106
  340MOL0     H45878   3.652   1.378   4.395  0.1444 -0.3413 -1.4651
  340MOL0     H45879   3.804   1.321   4.442  0.6352  4.1821 -2.2661
  340MOL0     H45880   3.725   1.925   5.055  0.1340  2.1088  0.8708
  340MOL0     H45881   3.614   2.087   5.186 -0.3461  0.5782 -2.1643
  340MOL0     H45882   3.456   2.107   5.746 -0.4733 -2.2241 -1.6800
  340MOL0     H45883   3.315   2.271   5.873 -4.1762  1.8586  0.0271
  340MOL0     H45884   4.042   4.175   6.296 -0.7020 -0.9986 -1.0914
  340MOL0     H45885   4.105   4.405   6.265  0.5324 -1.1273 -1.3621
  340MOL0     H45886   3.979   4.837   6.155 -3.7341 -0.1324  1.5927
  340MOL0     H45887   4.028   5.077   6.136 -2.1994  0.3742 -0.4100
  340MOL0     H45888   3.912   5.290   6.196  0.7726 -1.9746 -0.0925
  340MOL0     H45889   4.086   5.277   6.163  1.1203 -0.3355  0.8207
  340MOL0     H45890   4.013   5.523   6.153 -1.9096  0.6596  2.2020
  340MOL0     H45891   4.156   5.480   6.255 -0.3324 -0.8107 -1.2791
  340MOL0     H45892   4.000   5.490   6.449  1.1009 -0.7479 -0.5459
  340MOL0     H45893   3.861   5.538   6.352  0.3097  2.0720  0.1129
  340MOL0     H45894   3.963   5.757   6.431 -0.1829  0.8458 -0.0394
  340MOL0     H45895   4.114   5.709   6.351 -1.2030  1.6876  1.0788
  340MOL0     H45896   3.867   5.828   6.030  1.9056  0.4314 -0.1308
  340MOL0     H45897   4.020   5.121   6.556  0.5509  1.3053 -1.2040
  340MOL0     H45898   3.942   4.941   6.695  0.5453 -1.4116  0.6661
  340MOL0     H45899   3.872   4.799   6.636  0.3797 -0.2040  0.0513
  340MOL0     H45900   4.052   4.795   6.654  0.6731 -1.2053 -0.3247
  341MOL0     O45901   8.982  11.439   7.784 -1.0905 -0.2067 -0.5819
  341MOL0     C45902   8.938  11.437   7.896 -0.4435 -0.9118  0.4185
  341MOL0     O45903   8.976  11.351   7.999 -0.4197  0.2133  0.0915
  341MOL0     C45904   9.099  11.288   7.988 -0.2908  0.0225 -0.3707
  341MOL0     C45905   9.086  11.155   7.943  0.7948 -0.8460  0.1408
  341MOL0     C45906   9.192  11.073   7.963 -0.8164  0.5193  0.8735
  341MOL0     C45907   9.319  11.108   8.012  0.1320 -0.4368 -0.2843
  341MOL0     O45908   9.413  11.004   8.024  0.1200 -0.3954 -0.3519
  341MOL0     C45909   9.546  11.047   8.061  0.3296  0.0628 -0.0650
  341MOL0     C45910   9.648  10.934   8.052  0.2321  0.4231 -0.3468
  341MOL0     C45911   9.606  10.803   8.137  0.5890 -0.7301 -0.4676
  341MOL0     C45912   9.609  10.689   8.046  0.3499  0.7974  0.5455
  341MOL0     C45913   9.746  10.661   7.961 -0.7300 -0.4128 -0.8414
  341MOL0     C45914   9.802  10.514   7.967 -0.1399  0.5327 -0.2129
  341MOL0     C45915   9.710  10.409   7.905 -0.4243  0.2244 -0.2849
  341MOL0     C45916   9.792  10.297   7.844  0.4225 -0.5142 -0.5324
  341MOL0     N45917   9.822  10.182   7.940  0.0182 -0.8445 -0.5933
  341MOL0     C45918   9.777  10.049   7.925 -0.3446 -0.1051  1.4023
  341MOL0     C45919   9.841   9.976   8.011 -0.0316  0.3944  0.3752
  341MOL0     C45920   9.818   9.826   8.048 -0.2997  0.3427 -0.8574
  341MOL0     C45921   9.918   9.748   7.965 -0.2261 -0.2228  0.7510
  341MOL0     C45922   9.923   9.606   8.016 -1.2425  0.3337 -0.1816
  341MOL0     C45923  10.019   9.588   8.136 -0.2926 -0.2850  1.3282
  341MOL0     O45924  10.150   9.591   8.094 -0.5897  0.1911 -0.2641
  341MOL0     C45925  10.248   9.620   8.185  0.4226  0.0062 -1.0112
  341MOL0     C45926  10.369   9.649   8.137  0.5244 -0.7773 -1.0273
  341MOL0     C45927  10.480   9.678   8.219  0.2523  0.9568 -0.5580
  341MOL0     C45928  10.465   9.662   8.359 -1.0135  0.8665 -0.3486
  341MOL0     C45929  10.583   9.674   8.440  0.1129 -0.5223 -0.0830
  341MOL0     O45930  10.696   9.720   8.378  0.3605 -0.5961 -0.2256
  341MOL0     C45931  10.808   9.719   8.446  0.5648 -0.6174 -0.4093
  341MOL0     C45932  10.840   9.835   8.518  0.2766 -0.0835 -0.4511
  341MOL0     C45933  10.958   9.836   8.588  0.1789  0.8682 -0.0075
  341MOL0     C45934  11.032   9.716   8.617  1.0704 -0.4208 -0.2852
  341MOL0     O45935  11.132   9.728   8.711  0.1054 -0.2218 -0.1603
  341MOL0     C45936  11.254   9.659   8.675 -0.7456  0.3744 -0.5427
  341MOL0     C45937  11.272   9.511   8.704 -0.1700 -0.4407  0.8940
  341MOL0     C45938  11.182   9.460   8.816 -0.7312  0.3459 -0.4685
  341MOL0     C45939  11.208   9.316   8.852  0.3699 -0.8961 -0.0546
  341MOL0     C45940  11.171   9.210   8.749  1.0113 -0.4510  0.0536
  341MOL0     C45941  11.022   9.187   8.725 -0.6438  0.2134  0.0864
  341MOL0     C45942  11.000   9.073   8.623 -0.2479  0.1293  0.4914
  341MOL0     C45943  11.045   9.100   8.476  0.4800  0.3499 -0.2751
  341MOL0    Cl45944  10.964   9.249   8.406  0.3326 -0.3994  0.8156
  341MOL0     C45945  10.994   9.608   8.540 -0.3203  0.3881 -0.0398
  341MOL0     C45946  10.892   9.616   8.442 -0.2875  0.2969  0.6234
  341MOL0     O45947  10.574   9.662   8.563  0.1855  1.2474  0.4593
  341MOL0     C45948  10.337   9.637   8.413 -0.2175  0.6294  0.5704
  341MOL0     C45949  10.228   9.624   8.321 -0.2825  0.2531 -0.0468
  341MOL0     N45950   9.934  10.064   8.071  0.5480  0.5451  0.0052
  341MOL0     N45951   9.930  10.181   8.023 -0.3709  0.2878 -0.0891
  341MOL0     C45952   9.336  11.239   8.052  0.3272  0.0278  0.3966
  341MOL0     C45953   9.227  11.332   8.034 -0.1881 -0.2898  0.1181
  341MOL0     C45954   8.822  11.519   7.925 -0.1355 -0.7059 -0.3695
  341MOL0     C45955   8.763  11.585   7.812  0.7725 -0.5311 -0.1522
  341MOL0     C45956   8.643  11.663   7.828  0.1685  0.1595  0.6281
  341MOL0     C45957   8.582  11.673   7.953  0.4780 -0.8622 -0.0951
  341MOL0     O45958   8.465  11.748   7.980 -0.3241  0.1199 -0.2796
  341MOL0     C45959   8.388  11.804   7.864  0.0817  0.2718  0.4931
  341MOL0     C45960   8.245  11.826   7.911 -0.3092 -0.4860 -0.8232
  341MOL0     C45961   8.160  11.854   7.785  0.5607  0.4720  0.9455
  341MOL0     C45962   8.017  11.874   7.827 -0.0840 -0.6625  0.6570
  341MOL0     C45963   7.946  11.748   7.828  0.4764 -0.4979 -0.0869
  341MOL0     C45964   7.895  11.637   7.836 -0.1772  0.3510  0.2472
  341MOL0     C45965   8.639  11.613   8.061 -0.9049  0.4254  0.4884
  341MOL0     C45966   8.757  11.529   8.056  0.3935  1.3249  0.3050
  341MOL0     C45967   8.814  11.483   8.190 -0.8002  0.9296  0.4946
  341MOL0     H45968   8.985  11.123   7.917  1.0609 -0.9705 -0.7466
  341MOL0     H45969   9.171  10.975   7.922 -0.9905  0.8752  0.0894
  341MOL0     H45970   9.589  11.135   8.012  1.5543  1.7289  3.6249
  341MOL0     H45971   9.537  11.077   8.166 -0.0131  0.0346 -0.0860
  341MOL0     H45972   9.737  10.972   8.104 -1.3499  2.0567  1.2984
  341MOL0     H45973   9.659  10.901   7.948 -1.4242 -0.2159 -0.3430
  341MOL0     H45974   9.504  10.816   8.174  1.2693  0.9764  0.9970
  341MOL0     H45975   9.670  10.784   8.224 -0.9887  1.5240  1.2960
  341MOL0     H45976   9.597  10.599   8.107  3.4903 -1.9947 -2.4727
  341MOL0     H45977   9.518  10.703   7.987  2.1267 -1.0412 -2.9649
  341MOL0     H45978   9.711  10.685   7.860 -3.7251 -1.2509 -0.1073
  341MOL0     H45979   9.824  10.730   7.993 -1.3744 -0.0569 -0.0159
  341MOL0     H45980   9.903  10.515   7.925  0.6488 -2.3825  1.3170
  341MOL0     H45981   9.810  10.488   8.073  0.1954  0.0205 -0.3616
  341MOL0     H45982   9.645  10.446   7.826 -1.2413  1.6266  0.9896
  341MOL0     H45983   9.646  10.364   7.981 -0.1856 -0.7011 -0.6252
  341MOL0     H45984   9.741  10.256   7.757 -2.2522  3.3123 -1.0223
  341MOL0     H45985   9.881  10.348   7.805 -2.4978  4.0171 -2.0130
  341MOL0     H45986   9.684  10.018   7.877  0.7451 -1.9014  0.3561
  341MOL0     H45987   9.846   9.810   8.153  1.2592 -0.7069 -1.3801
  341MOL0     H45988   9.716   9.789   8.039 -0.1756  0.3033 -2.5205
  341MOL0     H45989   9.896   9.762   7.859  5.1689 -1.7392 -0.8461
  341MOL0     H45990  10.017   9.788   7.985 -0.7804  0.5005  2.1953
  341MOL0     H45991   9.962   9.532   7.946 -1.2059  0.6340 -0.4810
  341MOL0     H45992   9.821   9.575   8.043 -1.3705  1.5075  0.7917
  341MOL0     H45993  10.004   9.485   8.168 -2.4599 -1.1137 -1.8991
  341MOL0     H45994   9.994   9.662   8.213 -0.8862 -0.0895  0.9506
  341MOL0     H45995  10.384   9.665   8.030 -3.3682 -1.5775 -1.8306
  341MOL0     H45996  10.578   9.682   8.174  0.4051 -1.1902 -0.4870
  341MOL0     H45997  10.768   9.915   8.506 -2.2557 -2.4283 -2.5086
  341MOL0     H45998  10.989   9.931   8.630 -1.9343  1.3402  0.5753
  341MOL0     H45999  11.271   9.666   8.567  0.0918 -1.8751 -0.6064
  341MOL0     H46000  11.336   9.706   8.729 -0.3759 -0.8173 -0.0509
  341MOL0     H46001  11.254   9.457   8.611 -1.8597  1.9659 -0.2737
  341MOL0     H46002  11.374   9.501   8.742 -0.6431 -0.7017  2.1369
  341MOL0     H46003  11.184   9.535   8.895 -0.1247  0.1829 -0.3280
  341MOL0     H46004  11.078   9.471   8.783 -2.5192 -4.5254  2.3787
  341MOL0     H46005  11.159   9.296   8.948 -4.3629  0.2972 -1.9253
  341MOL0     H46006  11.314   9.303   8.872  0.2634  0.4506  1.5610
  341MOL0     H46007  11.220   9.113   8.761  0.5868 -1.2528 -3.5602
  341MOL0     H46008  11.215   9.244   8.655 -0.1048  0.1117 -0.2850
  341MOL0     H46009  10.974   9.172   8.822 -2.6728  2.0358 -0.5484
  341MOL0     H46010  10.986   9.280   8.679 -1.0986 -0.1214 -0.2526
  341MOL0     H46011  10.892   9.056   8.631 -0.5095  0.8082 -1.1380
  341MOL0     H46012  11.047   8.980   8.653  1.7419  0.3843 -1.5722
  341MOL0     H46013  11.155   9.107   8.478  0.7352 -2.6521  0.5365
  341MOL0     H46014  11.018   9.010   8.420  0.2143  0.5096 -0.4037
  341MOL0     H46015  11.052   9.516   8.540  1.2212  1.2517  2.8997
  341MOL0     H46016  10.872   9.526   8.384  2.8819 -1.2311  1.6368
  341MOL0     H46017  10.321   9.607   8.516  2.5314 -2.2714  0.2859
  341MOL0     H46018  10.128   9.606   8.360 -0.0983 -0.1635  0.2508
  341MOL0     H46019   9.432  11.278   8.087  1.2345  0.0327 -1.8835
  341MOL0     H46020   9.239  11.437   8.060 -0.8124  0.9123 -3.8150
  341MOL0     H46021   8.800  11.572   7.711  2.8035 -0.5363  0.5510
  341MOL0     H46022   8.600  11.706   7.738  0.5489 -0.4406  0.1495
  341MOL0     H46023   8.373  11.729   7.786  0.5025 -1.3535  1.9034
  341MOL0     H46024   8.427  11.903   7.838 -1.9808  1.1971  0.6588
  341MOL0     H46025   8.255  11.904   7.988 -1.2348 -1.1505 -0.0005
  341MOL0     H46026   8.226  11.741   7.977  1.1847  0.3389  0.7578
  341MOL0     H46027   8.161  11.781   7.704  1.0250  4.0618 -2.5946
  341MOL0     H46028   8.200  11.938   7.729  1.5767 -1.4911 -1.4511
  341MOL0     H46029   8.026  11.923   7.924  1.1304 -0.2178  0.3353
  341MOL0     H46030   7.965  11.948   7.766  0.3403  1.0086  2.2529
  341MOL0     H46031   7.849  11.541   7.839  2.3343 -0.9158  0.9183
  341MOL0     H46032   8.594  11.617   8.160  2.7670 -0.5034  2.4133
  341MOL0     H46033   8.792  11.376   8.198  3.8180 -0.2324  0.0736
  341MOL0     H46034   8.920  11.509   8.182  0.3125 -1.3284  4.7235
  341MOL0     H46035   8.776  11.541   8.274 -4.3030 -0.5648  0.1468
  342MOL0     O46036   7.925   4.342   8.048 -0.1608 -0.2367 -0.3337
  342MOL0     C46037   7.980   4.418   7.975  0.0130  0.7727  0.6163
  342MOL0     O46038   8.113   4.458   7.985  0.0082  0.3715  0.4574
  342MOL0     C46039   8.194   4.381   8.063 -0.2047  0.0612 -0.3505
  342MOL0     C46040   8.187   4.389   8.205  0.7672  1.0336  0.0599
  342MOL0     C46041   8.270   4.300   8.280  0.4945  0.1715 -0.5647
  342MOL0     C46042   8.356   4.209   8.228 -0.6754  1.1976 -0.6308
  342MOL0     O46043   8.427   4.114   8.307  0.8664 -0.2587 -0.0867
  342MOL0     C46044   8.433   4.123   8.450  0.0450  0.1261  0.3569
  342MOL0     C46045   8.546   4.216   8.496 -0.4069  0.8708  0.2890
  342MOL0     C46046   8.678   4.147   8.459 -0.4053 -0.3043  0.7737
  342MOL0     C46047   8.733   4.173   8.316 -0.6585  0.4019  0.3986
  342MOL0     C46048   8.868   4.112   8.308 -0.0728  0.5785  0.4414
  342MOL0     C46049   8.922   4.125   8.174 -0.8401  1.3177  0.1886
  342MOL0     C46050   8.988   4.253   8.128  0.7714  0.1461 -0.0980
  342MOL0     C46051   8.941   4.313   7.993  0.8497  0.2591 -0.5864
  342MOL0     N46052   8.804   4.366   8.004 -0.0101 -0.2485  0.7120
  342MOL0     C46053   8.762   4.497   8.022 -0.2568 -0.6767 -0.4003
  342MOL0     C46054   8.628   4.501   8.012  0.1784  0.0938 -1.0655
  342MOL0     C46055   8.560   4.628   8.032  0.4814  0.7326  0.3749
  342MOL0     C46056   8.500   4.692   7.914  0.0993  0.5286  0.3117
  342MOL0     C46057   8.600   4.726   7.798  1.0403 -0.1616 -0.5158
  342MOL0     C46058   8.568   4.855   7.728  0.2581  0.0315  0.2003
  342MOL0     O46059   8.565   4.963   7.827 -0.0611 -1.1090  0.4981
  342MOL0     C46060   8.587   5.096   7.795 -0.2680 -0.3184  0.0281
  342MOL0     C46061   8.574   5.151   7.672  0.6888 -0.5642  0.1660
  342MOL0     C46062   8.610   5.284   7.650  0.3105  0.2088  0.3338
  342MOL0     C46063   8.630   5.374   7.758  0.1955 -0.4757 -0.2263
  342MOL0     C46064   8.656   5.513   7.730 -0.0074 -0.1743  0.5512
  342MOL0     O46065   8.724   5.574   7.821 -0.5386 -0.6110 -0.0828
  342MOL0     C46066   8.710   5.710   7.839  0.9574  0.4044  0.1539
  342MOL0     C46067   8.802   5.756   7.932  0.5423 -0.1128 -0.5005
  342MOL0     C46068   8.789   5.889   7.993 -0.0067  0.5183 -0.0796
  342MOL0     C46069   8.695   5.971   7.943 -0.9879  0.1385 -0.1912
  342MOL0     O46070   8.699   6.094   8.000 -0.1023  0.1223  0.2867
  342MOL0     C46071   8.608   6.204   7.985  0.0147  0.5543  0.3780
  342MOL0     C46072   8.642   6.305   8.103  0.1986  0.2783 -0.9266
  342MOL0     C46073   8.548   6.424   8.090  0.4958  0.2075 -0.3820
  342MOL0     C46074   8.555   6.504   8.216 -0.1085 -0.4289 -0.6174
  342MOL0     C46075   8.532   6.654   8.197 -0.4733 -0.1827  0.3106
  342MOL0     C46076   8.567   6.752   8.322  0.3004 -0.0249  0.3404
  342MOL0     C46077   8.709   6.736   8.389 -0.0404  1.5805  0.1301
  342MOL0     C46078   8.811   6.797   8.305  0.9851 -0.1025 -0.1237
  342MOL0    Cl46079   8.957   6.774   8.400  0.1729 -0.3926  0.2217
  342MOL0     C46080   8.616   5.935   7.843  0.5806 -0.5451  1.0593
  342MOL0     C46081   8.613   5.806   7.792  0.4222 -0.4351  0.4131
  342MOL0     O46082   8.618   5.555   7.623 -0.0182 -0.4757  0.6753
  342MOL0     C46083   8.631   5.325   7.890 -0.3693 -0.2991  0.8984
  342MOL0     C46084   8.617   5.184   7.904  1.2788 -0.8092  0.4994
  342MOL0     N46085   8.593   4.377   7.953  0.2357  0.7337 -0.2510
  342MOL0     N46086   8.699   4.300   7.952 -0.1203  0.3960  0.0408
  342MOL0     C46087   8.355   4.202   8.089 -0.3243  0.4325 -0.6789
  342MOL0     C46088   8.281   4.288   8.009  0.2757  0.3020  0.1690
  342MOL0     C46089   7.889   4.507   7.891  0.0095  0.5489 -0.8415
  342MOL0     C46090   7.753   4.509   7.930 -0.2246 -0.6993  0.1300
  342MOL0     C46091   7.661   4.590   7.869  0.2885 -0.6664  0.4018
  342MOL0     C46092   7.694   4.667   7.757 -0.4673 -0.1037 -1.4354
  342MOL0     O46093   7.595   4.746   7.707  0.5344 -0.0158 -0.3002
  342MOL0     C46094   7.625   4.829   7.591  0.2967  0.1251  0.2421
  342MOL0     C46095   7.678   4.963   7.631  0.3319 -0.4697  0.7221
  342MOL0     C46096   7.575   5.034   7.722  0.2142 -0.1116 -0.1808
  342MOL0     C46097   7.616   5.180   7.756  0.0577 -0.1499 -0.7355
  342MOL0     C46098   7.579   5.271   7.650 -0.3719  0.7244  0.0928
  342MOL0     C46099   7.569   5.350   7.558  0.5424  0.2031  0.5819
  342MOL0     C46100   7.832   4.651   7.705  0.2633  0.3938  1.2398
  342MOL0     C46101   7.923   4.573   7.773 -0.0568 -0.2618 -0.0695
  342MOL0     C46102   8.060   4.579   7.726  0.5394 -0.1660  0.0311
  342MOL0     H46103   8.112   4.453   8.252 -0.8301  0.9513 -2.2204
  342MOL0     H46104   8.258   4.316   8.387 -2.2003  2.8791 -1.1074
  342MOL0     H46105   8.338   4.156   8.494 -0.6443 -2.6035  1.1759
  342MOL0     H46106   8.433   4.026   8.501 -2.2674  1.8007  3.9546
  342MOL0     H46107   8.545   4.219   8.606 -0.5852 -0.5692  0.3460
  342MOL0     H46108   8.547   4.313   8.446  2.6234  0.1732 -1.2337
  342MOL0     H46109   8.658   4.042   8.478  2.4561 -1.2574 -0.8250
  342MOL0     H46110   8.755   4.179   8.529  0.8742 -1.2420 -0.1426
  342MOL0     H46111   8.670   4.122   8.242 -0.1223  3.0280 -2.0846
  342MOL0     H46112   8.731   4.280   8.291 -1.2044  0.1160 -0.8674
  342MOL0     H46113   8.939   4.157   8.378  2.0037 -2.0499  0.2022
  342MOL0     H46114   8.853   4.006   8.332 -1.7903  0.6161 -0.3547
  342MOL0     H46115   8.992   4.041   8.178 -0.0405  1.9868  3.1881
  342MOL0     H46116   8.848   4.104   8.097  0.7458  1.7727 -1.5200
  342MOL0     H46117   9.096   4.241   8.128  0.5637 -2.1329 -1.3124
  342MOL0     H46118   8.967   4.326   8.207 -0.4987  0.3237 -0.5713
  342MOL0     H46119   9.011   4.397   7.986  1.7668  0.1661  4.1496
  342MOL0     H46120   8.950   4.251   7.903 -1.8554  3.0426 -3.0190
  342MOL0     H46121   8.818   4.580   8.064  2.1139 -3.6926  2.9871
  342MOL0     H46122   8.481   4.622   8.107  0.3436  0.2668  0.1921
  342MOL0     H46123   8.637   4.702   8.057  0.1219  1.2527 -0.0189
  342MOL0     H46124   8.413   4.642   7.870  0.1668  0.7462 -0.0816
  342MOL0     H46125   8.470   4.792   7.947  0.8954  0.9644 -0.2427
  342MOL0     H46126   8.604   4.644   7.726  3.4430  0.2617 -0.9438
  342MOL0     H46127   8.701   4.727   7.840  0.6230 -0.4102  0.5414
  342MOL0     H46128   8.471   4.840   7.679 -0.2191 -1.8429  1.6001
  342MOL0     H46129   8.640   4.881   7.649 -1.5975 -0.3168 -1.7003
  342MOL0     H46130   8.535   5.095   7.588 -1.5362  0.9048  0.1334
  342MOL0     H46131   8.600   5.317   7.548 -1.9737  3.2865  1.4214
  342MOL0     H46132   8.884   5.689   7.956  1.9461  1.9208  0.7002
  342MOL0     H46133   8.858   5.928   8.067  0.5187 -1.1090  0.3284
  342MOL0     H46134   8.642   6.257   7.896  2.1482 -2.1763 -0.5710
  342MOL0     H46135   8.502   6.178   7.979  0.4203 -0.9609 -0.9869
  342MOL0     H46136   8.627   6.239   8.189  0.3109 -1.2030 -1.9964
  342MOL0     H46137   8.744   6.344   8.093 -0.5687  2.4305 -0.8268
  342MOL0     H46138   8.576   6.481   8.001  1.3791  2.1126  1.0363
  342MOL0     H46139   8.448   6.383   8.075 -0.4471  1.0844  2.7025
  342MOL0     H46140   8.652   6.485   8.262 -1.5654  0.0765  3.0062
  342MOL0     H46141   8.486   6.464   8.291  1.8266  1.6068  2.4624
  342MOL0     H46142   8.425   6.660   8.173 -0.3797 -0.4764 -0.1901
  342MOL0     H46143   8.604   6.684   8.120 -3.0397 -0.8946 -2.5469
  342MOL0     H46144   8.545   6.848   8.274 -4.8216 -1.6954 -1.3114
  342MOL0     H46145   8.490   6.757   8.400  0.4204 -0.5078  0.4942
  342MOL0     H46146   8.726   6.630   8.409  0.2950  1.4078 -1.0299
  342MOL0     H46147   8.705   6.793   8.482  1.9722  1.1756  0.5127
  342MOL0     H46148   8.817   6.735   8.215  0.3859 -1.6533  0.8664
  342MOL0     H46149   8.787   6.904   8.294  0.1434 -0.0269  1.9258
  342MOL0     H46150   8.553   6.009   7.796 -0.4921 -3.2638 -2.1557
  342MOL0     H46151   8.549   5.777   7.709  0.1236  2.8482 -0.6464
  342MOL0     H46152   8.672   5.380   7.974 -1.4847  1.2534  0.4668
  342MOL0     H46153   8.640   5.138   8.000  0.6344 -2.9341 -0.3122
  342MOL0     H46154   8.404   4.122   8.034  2.0961  0.9517  0.5942
  342MOL0     H46155   8.288   4.282   7.901 -1.1717 -0.7124  0.1027
  342MOL0     H46156   7.711   4.469   8.021  0.4582  1.1472  1.3164
  342MOL0     H46157   7.565   4.596   7.919 -0.4319 -1.1794 -0.8789
  342MOL0     H46158   7.534   4.846   7.534 -0.5308 -0.7421  1.2432
  342MOL0     H46159   7.690   4.775   7.522 -1.5560 -0.0622 -1.4453
  342MOL0     H46160   7.692   5.033   7.548 -2.0207  1.4120  1.7792
  342MOL0     H46161   7.769   4.964   7.691 -0.2963  0.7966  1.7189
  342MOL0     H46162   7.565   4.970   7.810  0.7896 -1.3822 -1.0054
  342MOL0     H46163   7.480   5.046   7.668 -0.0629 -0.7815  0.1480
  342MOL0     H46164   7.582   5.216   7.853 -1.7856 -1.6512 -0.7825
  342MOL0     H46165   7.724   5.178   7.777 -0.1405  0.6177  0.4580
  342MOL0     H46166   7.562   5.414   7.473  1.4237  1.3412  1.3463
  342MOL0     H46167   7.867   4.709   7.620  0.9089 -0.8073  0.6601
  342MOL0     H46168   8.067   4.628   7.628  1.3874 -1.3915 -0.5547
  342MOL0     H46169   8.135   4.629   7.788  0.1070  0.8846 -0.2695
  342MOL0     H46170   8.088   4.475   7.708 -1.3436 -0.6988 -0.0056
  343MOL0     O46171  10.723   1.132   1.704  0.0733 -0.0117 -0.0005
  343MOL0     C46172  10.786   1.133   1.810 -0.3337  0.2712 -1.1221
  343MOL0     O46173  10.840   1.022   1.874  0.1779  0.0628  0.3871
  343MOL0     C46174  10.794   0.897   1.828  0.1917 -0.0866 -0.1571
  343MOL0     C46175  10.888   0.824   1.742  0.3040  0.3517  0.8178
  343MOL0     C46176  10.856   0.694   1.692 -0.0782 -0.3466 -1.0680
  343MOL0     C46177  10.736   0.639   1.732 -0.3300  0.6230  0.8447
  343MOL0     O46178  10.716   0.509   1.693 -0.5183 -0.2614  0.5218
  343MOL0     C46179  10.619   0.493   1.591 -0.6776 -1.1959 -1.0270
  343MOL0     C46180  10.625   0.353   1.528  0.5800 -0.1590 -0.0622
  343MOL0     C46181  10.592   0.230   1.616 -0.4790 -1.8273 -0.6583
  343MOL0     C46182  10.726   0.172   1.671  0.7166  0.9717 -0.4907
  343MOL0     C46183  10.703   0.100   1.810 -1.2031  0.2795 -0.3521
  343MOL0     C46184  10.604  -0.010   1.809  0.2927 -0.1484 -0.8710
  343MOL0     C46185  10.568  -0.053   1.961 -0.1973  0.0677 -1.1260
  343MOL0     C46186  10.450   0.033   2.000  0.2699 -0.5033  0.3659
  343MOL0     N46187  10.392   0.009   2.138 -0.4879 -0.4876 -0.1242
  343MOL0     C46188  10.390  -0.114   2.198 -0.5743 -0.2468  0.1221
  343MOL0     C46189  10.346  -0.081   2.322 -0.3645  0.1259 -1.3120
  343MOL0     C46190  10.309  -0.178   2.423  0.7905  0.8238  0.1616
  343MOL0     C46191  10.409  -0.290   2.445 -0.3745 -0.2630 -0.4046
  343MOL0     C46192  10.542  -0.242   2.509  1.0181 -0.6164  0.2518
  343MOL0     C46193  10.622  -0.338   2.590 -0.2709 -0.1415 -0.5705
  343MOL0     O46194  10.686  -0.269   2.697  0.1394  0.0568 -0.1433
  343MOL0     C46195  10.795  -0.199   2.670 -0.9911  0.6026  0.4603
  343MOL0     C46196  10.883  -0.213   2.558 -0.1936  0.1243  0.0432
  343MOL0     C46197  10.992  -0.126   2.553 -0.6452 -0.4410  0.7816
  343MOL0     C46198  11.018  -0.026   2.647  0.1596  0.1109  0.8403
  343MOL0     C46199  11.136   0.057   2.637  0.4040 -0.6187 -0.2279
  343MOL0     O46200  11.166   0.154   2.728  0.2985  0.1102 -0.7991
  343MOL0     C46201  11.265   0.257   2.716  0.1922  1.5409 -0.0098
  343MOL0     C46202  11.339   0.282   2.599  0.2833  0.1863  0.6823
  343MOL0     C46203  11.432   0.386   2.585  0.8424  0.4997 -0.6793
  343MOL0     C46204  11.446   0.471   2.696  0.6117  0.3465  0.7007
  343MOL0     O46205  11.532   0.567   2.696 -0.3316  0.5048 -1.9364
  343MOL0     C46206  11.489   0.670   2.611 -0.5037 -0.2652  0.5815
  343MOL0     C46207  11.583   0.795   2.637 -0.0684 -1.0301  0.4212
  343MOL0     C46208  11.737   0.770   2.615  0.6529 -0.4664  0.9507
  343MOL0     C46209  11.785   0.743   2.471 -0.2690  0.0013 -0.4051
  343MOL0     C46210  11.936   0.781   2.452  0.3888 -0.5064  0.3711
  343MOL0     C46211  11.964   0.802   2.305 -0.1709 -0.5311 -0.4671
  343MOL0     C46212  12.108   0.800   2.251  0.3303 -0.4539 -0.2692
  343MOL0     C46213  12.200   0.920   2.286  0.3980  0.6737 -1.1990
  343MOL0    Cl46214  12.382   0.883   2.260  0.0931 -0.2587 -0.1015
  343MOL0     C46215  11.378   0.442   2.816  0.2418  1.3032 -0.0666
  343MOL0     C46216  11.283   0.337   2.830 -0.3957  0.1406  0.5200
  343MOL0     O46217  11.217   0.013   2.561 -0.4774  0.2982 -0.0580
  343MOL0     C46218  10.923  -0.015   2.748 -0.0529 -0.1472 -0.5760
  343MOL0     C46219  10.816  -0.097   2.762 -0.4594  0.0480  0.5725
  343MOL0     N46220  10.339   0.056   2.343  0.1056  0.6167  0.9539
  343MOL0     N46221  10.359   0.104   2.226  0.8218  0.2487  0.4264
  343MOL0     C46222  10.637   0.716   1.796 -0.3131 -0.1168 -0.6545
  343MOL0     C46223  10.676   0.846   1.853  0.1733 -0.0809  0.1251
  343MOL0     C46224  10.823   1.275   1.865 -0.1431 -1.2244 -0.1653
  343MOL0     C46225  10.755   1.379   1.800 -0.8159 -0.2568  0.6256
  343MOL0     C46226  10.796   1.511   1.842  0.0410 -0.3673  0.0750
  343MOL0     C46227  10.900   1.536   1.932  0.4241 -0.1910 -0.5864
  343MOL0     O46228  10.933   1.669   1.967  0.8210 -0.0372  0.2854
  343MOL0     C46229  11.002   1.693   2.090 -0.7806  0.0329  0.5645
  343MOL0     C46230  10.973   1.830   2.135  0.0734 -0.2404  0.1807
  343MOL0     C46231  11.004   1.943   2.021  0.6504  0.5144 -1.1962
  343MOL0     C46232  11.147   1.952   1.972  0.5342  0.4211  0.0018
  343MOL0     C46233  11.159   1.999   1.838 -0.5035 -0.0951  0.7946
  343MOL0     C46234  11.171   2.024   1.720  0.0688 -0.0552  0.2436
  343MOL0     C46235  10.959   1.427   1.991  0.6597  0.6037  0.5265
  343MOL0     C46236  10.922   1.300   1.967  0.6103  0.6963  0.1212
  343MOL0     C46237  10.990   1.184   2.033 -1.0760 -0.0228 -0.3309
  343MOL0     H46238  10.979   0.875   1.714  0.7136 -1.7445 -2.1001
  343MOL0     H46239  10.931   0.638   1.637  0.2707 -4.2028  2.8163
  343MOL0     H46240  10.520   0.516   1.632  0.1538  2.9916 -0.8932
  343MOL0     H46241  10.642   0.565   1.511  0.1183 -1.4302 -1.0153
  343MOL0     H46242  10.726   0.351   1.485  2.0157  2.6758  2.7517
  343MOL0     H46243  10.556   0.351   1.443 -0.8846  0.6929  1.0747
  343MOL0     H46244  10.548   0.155   1.549  0.9952 -2.0596 -1.3988
  343MOL0     H46245  10.518   0.259   1.692 -0.2747  1.7474 -1.6477
  343MOL0     H46246  10.773   0.106   1.598  2.8190 -1.0459  2.4821
  343MOL0     H46247  10.794   0.255   1.692  1.0002  0.7079 -0.3614
  343MOL0     H46248  10.801   0.055   1.831 -1.2839  0.8698  1.4551
  343MOL0     H46249  10.688   0.176   1.887 -0.3301  2.3946 -2.1513
  343MOL0     H46250  10.510   0.012   1.758 -0.7686 -1.9378  0.1780
  343MOL0     H46251  10.643  -0.105   1.770  2.6878  1.6545 -3.1984
  343MOL0     H46252  10.653  -0.021   2.022 -0.7723  1.5020 -1.0336
  343MOL0     H46253  10.549  -0.161   1.966  1.4804 -0.2722 -1.3257
  343MOL0     H46254  10.497   0.132   1.990  0.7310 -0.7001  0.5753
  343MOL0     H46255  10.371   0.011   1.928  0.2472  3.5260 -1.1166
  343MOL0     H46256  10.429  -0.209   2.163 -1.6956 -0.4315 -0.7289
  343MOL0     H46257  10.276  -0.127   2.513 -0.2579  3.8466 -1.7751
  343MOL0     H46258  10.219  -0.230   2.389  0.4045  1.2916  0.4583
  343MOL0     H46259  10.370  -0.362   2.517 -0.9544 -1.2491 -1.6611
  343MOL0     H46260  10.443  -0.348   2.358  4.4353 -4.0216  3.3711
  343MOL0     H46261  10.514  -0.155   2.569  5.0784  0.5214  0.8144
  343MOL0     H46262  10.603  -0.206   2.426  1.4803 -1.6408  0.1235
  343MOL0     H46263  10.703  -0.379   2.529 -0.3749 -0.1968 -0.6714
  343MOL0     H46264  10.561  -0.420   2.629 -0.0734  0.1033  0.2870
  343MOL0     H46265  10.875  -0.297   2.489  3.1513 -1.1522  1.0074
  343MOL0     H46266  11.069  -0.155   2.482  1.0760  5.0341 -0.0635
  343MOL0     H46267  11.321   0.224   2.509  2.3668 -0.9106  0.9185
  343MOL0     H46268  11.499   0.406   2.502  2.0044 -0.5638 -0.0357
  343MOL0     H46269  11.494   0.644   2.505  0.4223 -1.7356  0.9524
  343MOL0     H46270  11.386   0.707   2.619 -0.2290  0.2133  2.3684
  343MOL0     H46271  11.566   0.884   2.576 -0.6737 -0.6412  1.1478
  343MOL0     H46272  11.552   0.832   2.735  0.2711  0.8779 -0.1499
  343MOL0     H46273  11.778   0.871   2.631  1.0764 -0.7229  1.5274
  343MOL0     H46274  11.785   0.705   2.688  0.1907 -0.7559  1.0052
  343MOL0     H46275  11.718   0.805   2.411 -0.5079 -0.1800 -0.3313
  343MOL0     H46276  11.755   0.641   2.444  3.2232 -1.6708  1.3967
  343MOL0     H46277  12.000   0.698   2.481 -0.0983 -0.5812  1.2561
  343MOL0     H46278  11.962   0.875   2.503  3.3653 -1.9521  1.7880
  343MOL0     H46279  11.911   0.721   2.255 -1.8131 -0.1460  0.5645
  343MOL0     H46280  11.929   0.905   2.295  2.2188  1.0266  4.0950
  343MOL0     H46281  12.117   0.797   2.142 -0.3505  2.5373 -0.4886
  343MOL0     H46282  12.155   0.709   2.289 -1.0647 -1.1902 -0.2241
  343MOL0     H46283  12.172   1.016   2.242 -0.8460  1.4271  1.0510
  343MOL0     H46284  12.186   0.936   2.393  1.4016  3.2884 -1.3870
  343MOL0     H46285  11.407   0.516   2.888  2.9331 -1.5792  2.0889
  343MOL0     H46286  11.235   0.313   2.924  3.5331  3.0325  3.5850
  343MOL0     H46287  10.935   0.073   2.811 -0.1019  2.1003 -3.4976
  343MOL0     H46288  10.737  -0.074   2.833 -2.5548  0.8514 -1.8662
  343MOL0     H46289  10.536   0.680   1.807 -1.1010  1.2899 -2.6424
  343MOL0     H46290  10.608   0.903   1.915  0.4038  0.7537 -0.3747
  343MOL0     H46291  10.673   1.371   1.730 -0.6601 -1.9649  0.5873
  343MOL0     H46292  10.741   1.592   1.795 -1.1590 -1.7635 -1.0273
  343MOL0     H46293  11.108   1.670   2.073 -1.2556 -0.9583 -1.3881
  343MOL0     H46294  10.971   1.630   2.173  0.8447  0.5852  1.6392
  343MOL0     H46295  11.046   1.861   2.210  0.3623  0.0789 -0.2271
  343MOL0     H46296  10.870   1.843   2.168 -1.6022 -1.3631 -4.0164
  343MOL0     H46297  10.977   2.035   2.073  0.0667  0.6560 -1.7302
  343MOL0     H46298  10.935   1.935   1.936 -1.4611 -1.3895  0.5441
  343MOL0     H46299  11.205   2.010   2.044  0.4207  0.1327  0.3244
  343MOL0     H46300  11.192   1.852   1.971 -1.6381 -0.6040  0.6376
  343MOL0     H46301  11.185   2.049   1.617  1.9866  2.7808  1.0719
  343MOL0     H46302  11.031   1.427   2.071 -1.7371  0.8805  2.8224
  343MOL0     H46303  10.914   1.129   2.088 -1.4815  0.5662 -0.2883
  343MOL0     H46304  11.059   1.125   1.972  2.0336  2.6820  0.2604
  343MOL0     H46305  11.054   1.217   2.115 -0.6583 -1.3876 -0.0794
  344MOL0     O46306  10.373   7.094   9.995  0.7260  0.4877 -0.9184
  344MOL0     C46307  10.253   7.076   9.970  0.4970 -0.3533 -0.0223
  344MOL0     O46308  10.179   7.158   9.892 -0.0474  0.0546 -0.5510
  344MOL0     C46309  10.223   7.278   9.834 -0.0735  0.6854 -0.4357
  344MOL0     C46310  10.210   7.303   9.703 -0.3654  0.2557  0.0860
  344MOL0     C46311  10.276   7.411   9.638  0.5611 -0.9112 -1.1226
  344MOL0     C46312  10.365   7.492   9.704 -0.3182 -0.9594 -1.6577
  344MOL0     O46313  10.427   7.606   9.661  0.4239  0.1022  0.2478
  344MOL0     C46314  10.467   7.604   9.523  0.5387 -0.0915  0.1742
  344MOL0     C46315  10.609   7.660   9.524  0.4840 -1.0241 -0.0069
  344MOL0     C46316  10.713   7.574   9.614  0.6662  0.0384 -1.3889
  344MOL0     C46317  10.711   7.425   9.596  0.9895  0.3523  0.7024
  344MOL0     C46318  10.822   7.347   9.659 -0.2859 -0.3104  0.3325
  344MOL0     C46319  10.799   7.350   9.810 -0.3526  0.5340  0.0527
  344MOL0     C46320  10.873   7.234   9.886 -0.4937 -0.6503 -0.0896
  344MOL0     C46321  11.026   7.253   9.917 -0.3811  0.5352 -0.4189
  344MOL0     N46322  11.114   7.133   9.921 -0.9511  0.2328 -1.1107
  344MOL0     C46323  11.139   7.054   9.819 -0.1586  0.4257 -0.0516
  344MOL0     C46324  11.222   6.957   9.853 -0.8031 -0.0273  0.1667
  344MOL0     C46325  11.263   6.828   9.787 -0.4487  1.0031 -0.9415
  344MOL0     C46326  11.187   6.716   9.852 -0.4548  0.4565  0.0128
  344MOL0     C46327  11.177   6.595   9.755 -0.3626  0.0779  0.8500
  344MOL0     C46328  11.130   6.479   9.832 -0.3104  0.0403  1.1250
  344MOL0     O46329  11.102   6.364   9.744 -0.4134  0.8348 -0.3960
  344MOL0     C46330  11.041   6.246   9.799  0.2769 -0.7596  0.0713
  344MOL0     C46331  11.001   6.158   9.702 -0.4395  0.4333  0.2211
  344MOL0     C46332  10.926   6.041   9.722  0.6435  0.6238  0.1327
  344MOL0     C46333  10.917   5.987   9.857  0.1194 -0.0695 -0.2682
  344MOL0     C46334  10.862   5.850   9.880  1.4857 -0.4293  0.3675
  344MOL0     O46335  10.786   5.787   9.777 -0.0141 -0.5938  0.5016
  344MOL0     C46336  10.754   5.658   9.793 -0.5576  0.0424  0.2625
  344MOL0     C46337  10.633   5.643   9.857 -0.0996 -0.0340  0.2481
  344MOL0     C46338  10.580   5.513   9.870  0.0970 -0.0657  0.4187
  344MOL0     C46339  10.654   5.405   9.825 -0.7555 -0.3197 -0.2977
  344MOL0     O46340  10.616   5.272   9.844  0.2024 -0.7012 -0.8639
  344MOL0     C46341  10.484   5.243   9.796  0.2744 -0.1517 -0.5306
  344MOL0     C46342  10.507   5.121   9.702  0.3661  0.1650 -0.4250
  344MOL0     C46343  10.378   5.075   9.623 -0.4116 -0.0982 -0.0119
  344MOL0     C46344  10.409   4.954   9.534  0.5939  0.6881  0.2136
  344MOL0     C46345  10.300   4.936   9.430 -0.0164  0.2661  0.4046
  344MOL0     C46346  10.322   4.807   9.341 -0.4400  0.6976 -1.3544
  344MOL0     C46347  10.258   4.829   9.206 -0.5254  0.2330  0.0835
  344MOL0     C46348  10.278   4.709   9.113  0.5590  0.6826  1.0228
  344MOL0    Cl46349  10.443   4.625   9.123 -0.3185  0.1327  0.3215
  344MOL0     C46350  10.782   5.426   9.778  0.3081  0.9103  0.0084
  344MOL0     C46351  10.824   5.555   9.749  1.2909 -0.6150 -0.6858
  344MOL0     O46352  10.907   5.791   9.984 -0.0373  0.0368  0.4873
  344MOL0     C46353  10.956   6.075   9.965  0.6209  0.2991  0.2412
  344MOL0     C46354  11.018   6.199   9.932  0.3587  0.0827 -0.5923
  344MOL0     N46355  11.268   6.996   9.977  0.4177 -0.2852  0.5636
  344MOL0     N46356  11.208   7.104  10.014  0.3071 -0.5316 -0.2148
  344MOL0     C46357  10.371   7.472   9.845 -0.3374 -0.2220  0.0004
  344MOL0     C46358  10.307   7.364   9.911  0.6567 -0.4863  0.4646
  344MOL0     C46359  10.187   6.947  10.001 -0.3182  1.0978 -1.0840
  344MOL0     C46360  10.270   6.838  10.026  0.1720 -0.0533 -0.2319
  344MOL0     C46361  10.225   6.708  10.035 -0.0903 -0.2290  0.3141
  344MOL0     C46362  10.085   6.684  10.036 -0.6430 -0.6993 -1.1777
  344MOL0     O46363  10.043   6.551  10.045  0.3242 -0.6385 -0.2813
  344MOL0     C46364   9.991   6.506   9.926  0.3768  0.7713  0.2115
  344MOL0     C46365  10.039   6.369   9.902  0.3000  0.7491 -0.7389
  344MOL0     C46366  10.189   6.342   9.885 -0.2437 -0.0187 -0.4665
  344MOL0     C46367  10.248   6.350   9.739  0.6351  0.7396 -0.4628
  344MOL0     C46368  10.190   6.242   9.650 -0.3685 -0.9887  0.4390
  344MOL0     C46369  10.155   6.171   9.560  0.3270  0.3503  0.2862
  344MOL0     C46370  10.001   6.791  10.023  1.3927  1.3990  0.0424
  344MOL0     C46371  10.050   6.920   9.999  0.2555  0.2785  0.3909
  344MOL0     C46372   9.937   7.017   9.960  1.1095 -0.1105  0.5383
  344MOL0     H46373  10.140   7.243   9.646 -0.0937 -1.7362  1.7592
  344MOL0     H46374  10.266   7.427   9.531 -3.5286  0.2257 -0.7124
  344MOL0     H46375  10.462   7.506   9.475  0.8102  0.9639 -2.1939
  344MOL0     H46376  10.398   7.668   9.466 -1.0224 -0.9223  1.0591
  344MOL0     H46377  10.603   7.765   9.553  0.0802 -1.4435  1.5236
  344MOL0     H46378  10.638   7.651   9.419 -3.5649 -1.2904 -1.3059
  344MOL0     H46379  10.701   7.582   9.723  0.4663 -3.8834 -0.9519
  344MOL0     H46380  10.814   7.614   9.602  0.9916  0.1589  1.0563
  344MOL0     H46381  10.611   7.398   9.630  0.0392 -1.3913 -3.0135
  344MOL0     H46382  10.699   7.408   9.489 -0.3216  1.7303  0.6154
  344MOL0     H46383  10.829   7.244   9.621  2.0345 -0.3482  0.7302
  344MOL0     H46384  10.913   7.406   9.646 -0.2420 -0.6059 -0.7506
  344MOL0     H46385  10.824   7.445   9.858 -2.4834  1.5067 -0.6283
  344MOL0     H46386  10.693   7.325   9.824 -0.0288 -1.2846 -0.4710
  344MOL0     H46387  10.853   7.145   9.826 -1.9487  0.0232 -0.6596
  344MOL0     H46388  10.819   7.215   9.980 -0.6385  4.0564  1.0123
  344MOL0     H46389  11.075   7.316   9.842  0.4649  0.7755  0.3334
  344MOL0     H46390  11.035   7.314  10.007  0.5454  0.2873 -0.3373
  344MOL0     H46391  11.090   7.065   9.723  0.2540 -0.6343 -0.3941
  344MOL0     H46392  11.231   6.841   9.683 -0.5163 -2.0740 -1.3797
  344MOL0     H46393  11.368   6.799   9.793 -0.7016  0.2640  0.2271
  344MOL0     H46394  11.231   6.683   9.947 -3.3340  0.4297  1.4321
  344MOL0     H46395  11.085   6.750   9.872 -0.2242 -0.0918  2.3335
  344MOL0     H46396  11.273   6.569   9.709 -2.7837 -4.4542 -2.5048
  344MOL0     H46397  11.120   6.609   9.663  3.0627 -1.3973 -1.7754
  344MOL0     H46398  11.038   6.514   9.880 -1.5705  0.9596 -1.7382
  344MOL0     H46399  11.199   6.458   9.914  1.2508  3.1989  0.7511
  344MOL0     H46400  11.019   6.179   9.597  0.3161  2.9368  0.7892
  344MOL0     H46401  10.874   5.982   9.647  0.6289 -0.6317  1.1126
  344MOL0     H46402  10.574   5.732   9.876  0.2918  0.1524  0.6002
  344MOL0     H46403  10.483   5.502   9.919 -1.6343  1.1672 -2.4596
  344MOL0     H46404  10.416   5.210   9.875 -3.5624 -1.3126 -3.9839
  344MOL0     H46405  10.435   5.324   9.742  0.5326  2.1054  2.3540
  344MOL0     H46406  10.577   5.162   9.629 -1.2214  1.4321 -1.3148
  344MOL0     H46407  10.564   5.047   9.758  2.0825  2.6833  1.4174
  344MOL0     H46408  10.290   5.048   9.682 -0.8161 -2.9363 -1.7243
  344MOL0     H46409  10.364   5.166   9.564 -0.2452  0.5154  0.8804
  344MOL0     H46410  10.417   4.874   9.608  1.2373 -0.9843 -1.5615
  344MOL0     H46411  10.506   4.958   9.483  1.2346 -2.7643  0.9132
  344MOL0     H46412  10.286   5.025   9.368 -2.4611  0.1024  0.6125
  344MOL0     H46413  10.205   4.932   9.486  0.7589 -1.1569  1.7181
  344MOL0     H46414  10.429   4.791   9.326 -0.1122 -1.9581  2.4214
  344MOL0     H46415  10.288   4.719   9.396 -0.6401  0.5347 -1.7333
  344MOL0     H46416  10.307   4.912   9.154 -3.6347  1.2212 -1.4858
  344MOL0     H46417  10.151   4.849   9.209 -1.2364 -2.8742 -0.9303
  344MOL0     H46418  10.196   4.640   9.138 -0.1907  0.9121 -0.6953
  344MOL0     H46419  10.255   4.758   9.019  0.6444  2.5908  1.9536
  344MOL0     H46420  10.832   5.332   9.761 -0.1733  0.3181  1.7337
  344MOL0     H46421  10.921   5.581   9.709  2.5790 -5.2719 -1.2401
  344MOL0     H46422  10.945   6.035  10.066 -1.5629  2.0791  0.7869
  344MOL0     H46423  11.042   6.262  10.017 -2.3359 -0.0117  0.3363
  344MOL0     H46424  10.429   7.547   9.897 -2.1427 -0.9898  3.4610
  344MOL0     H46425  10.298   7.361  10.020 -3.0578  1.9409  0.4114
  344MOL0     H46426  10.375   6.853  10.051  0.5772 -0.0384 -1.8657
  344MOL0     H46427  10.293   6.625  10.052  3.4400  2.0350 -1.4440
  344MOL0     H46428  10.017   6.569   9.840  0.3409 -1.1940 -1.3250
  344MOL0     H46429   9.882   6.505   9.927  0.3469 -1.5326  0.0270
  344MOL0     H46430   9.996   6.328   9.810  0.6105 -1.8271  0.2115
  344MOL0     H46431   9.998   6.311   9.985  1.5883 -1.0591 -1.3060
  344MOL0     H46432  10.206   6.243   9.928 -1.3568  0.4103  1.0143
  344MOL0     H46433  10.242   6.412   9.950 -4.0857  0.4116  2.4745
  344MOL0     H46434  10.234   6.446   9.688 -0.3215  1.7890  1.6549
  344MOL0     H46435  10.353   6.322   9.747  1.0347  1.5688 -2.3237
  344MOL0     H46436  10.109   6.116   9.481 -2.4170  2.1483  0.4595
  344MOL0     H46437   9.894   6.772  10.031  1.8714 -1.1559  1.8498
  344MOL0     H46438   9.915   7.048   9.858  2.0622 -1.1864 -0.0182
  344MOL0     H46439   9.840   6.974   9.988  0.3780 -0.5260 -2.3060
  344MOL0     H46440   9.952   7.106  10.022 -2.9406  2.3622 -1.5615
  345MOL0     O46441  11.250   1.569  10.738 -0.2357  0.1488  0.3606
  345MOL0     C46442  11.259   1.619  10.847  0.0134  0.0453  0.2073
  345MOL0     O46443  11.349   1.591  10.933  0.0619  0.5707  0.0908
  345MOL0     C46444  11.442   1.493  10.896 -1.2240 -0.9438  0.4416
  345MOL0     C46445  11.572   1.539  10.838 -0.7122  0.6697 -0.2991
  345MOL0     C46446  11.670   1.448  10.802 -0.0714 -0.0428  0.1017
  345MOL0     C46447  11.641   1.308  10.814 -0.1394  0.1565  0.5989
  345MOL0     O46448  11.727   1.204  10.769  0.0185 -0.0153 -0.3664
  345MOL0     C46449  11.859   1.228  10.722 -0.1347  0.2904  0.0170
  345MOL0     C46450  11.901   1.120  10.624 -0.5082  0.3794 -0.3253
  345MOL0     C46451  11.991   1.154  10.512  0.5260  0.1271  0.6534
  345MOL0     C46452  12.121   1.221  10.554 -0.2138 -0.3288 -0.5928
  345MOL0     C46453  12.211   1.250  10.430  1.2188  0.0908 -0.3488
  345MOL0     C46454  12.324   1.345  10.487  0.2185 -0.0648  0.0859
  345MOL0     C46455  12.455   1.337  10.423 -0.8464 -0.1964  0.1478
  345MOL0     C46456  12.443   1.372  10.276 -0.1143 -0.1849 -0.6720
  345MOL0     N46457  12.563   1.350  10.194  1.1100  0.6288 -0.3097
  345MOL0     C46458  12.560   1.303  10.062  0.5990  0.1119 -0.9157
  345MOL0     C46459  12.693   1.298  10.022  0.5793 -0.2696  0.3288
  345MOL0     C46460  12.769   1.269   9.886  0.9679 -0.3218  0.0278
  345MOL0     C46461  12.732   1.367   9.774 -0.9954 -0.0089  0.3489
  345MOL0     C46462  12.820   1.489   9.748  0.3970  0.5215 -0.0641
  345MOL0     C46463  12.787   1.615   9.833 -0.2377  0.4625 -0.5964
  345MOL0     O46464  12.648   1.623   9.869 -0.7025  0.2288  0.1077
  345MOL0     C46465  12.601   1.748   9.898 -0.0147 -0.2811 -0.4241
  345MOL0     C46466  12.605   1.856   9.799 -0.3503  0.1658 -0.4772
  345MOL0     C46467  12.552   1.983   9.818  0.2885 -0.6503 -0.3712
  345MOL0     C46468  12.471   2.008   9.929 -0.5145  0.3712  0.5209
  345MOL0     C46469  12.405   2.133   9.967 -0.7706 -0.2643 -0.5561
  345MOL0     O46470  12.341   2.140  10.084  0.0754 -0.3182 -0.3183
  345MOL0     C46471  12.271   2.250  10.137 -0.0761 -0.6347 -1.0405
  345MOL0     C46472  12.200   2.227  10.260  0.0081  0.4003 -0.1622
  345MOL0     C46473  12.115   2.316  10.313 -0.3477 -0.3647  1.0278
  345MOL0     C46474  12.092   2.438  10.243 -1.1159  0.1633 -0.5280
  345MOL0     O46475  12.014   2.524  10.318  0.2090 -0.3564 -0.1568
  345MOL0     C46476  11.920   2.615  10.250 -0.3669 -0.0037  0.4724
  345MOL0     C46477  11.858   2.727  10.344 -1.0112  0.0617  0.8711
  345MOL0     C46478  11.766   2.811  10.246 -0.4239  0.2803  0.0037
  345MOL0     C46479  11.711   2.939  10.311  0.2718 -0.3290  0.4244
  345MOL0     C46480  11.584   2.978  10.235 -0.1991  0.0242  0.0146
  345MOL0     C46481  11.516   3.100  10.290 -0.1457 -1.2773 -0.7552
  345MOL0     C46482  11.457   3.090  10.432  0.0210 -0.5997 -0.3026
  345MOL0     C46483  11.378   2.969  10.457  0.4442  0.2326  0.5896
  345MOL0    Cl46484  11.241   2.957  10.359  0.1021 -0.1884  0.2670
  345MOL0     C46485  12.161   2.469  10.123  0.3358  0.3815 -0.1914
  345MOL0     C46486  12.248   2.373  10.066  0.3743 -0.2632 -0.2371
  345MOL0     O46487  12.417   2.222   9.885 -0.1486  0.1783  0.1750
  345MOL0     C46488  12.458   1.903  10.019  0.0955  0.5020 -0.3636
  345MOL0     C46489  12.525   1.776  10.008 -0.5827 -0.0915 -0.9029
  345MOL0     N46490  12.772   1.323  10.129 -0.1948  0.1274 -0.6485
  345MOL0     N46491  12.697   1.348  10.230 -1.0440 -0.7827 -0.7537
  345MOL0     C46492  11.511   1.274  10.869  0.1095 -0.0827 -0.4373
  345MOL0     C46493  11.416   1.362  10.906  0.0924 -0.8827 -0.6613
  345MOL0     C46494  11.163   1.723  10.894  0.7738 -1.3361 -0.1845
  345MOL0     C46495  11.157   1.752  11.033  0.4295 -0.7170  0.1149
  345MOL0     C46496  11.064   1.839  11.089 -0.0104 -0.5716 -0.0067
  345MOL0     C46497  10.969   1.899  10.999  0.6149 -0.5973 -0.0328
  345MOL0     O46498  10.877   1.978  11.064 -0.3072 -0.5058  0.0399
  345MOL0     C46499  10.792   2.076  10.999  0.7047  0.2317 -0.4731
  345MOL0     C46500  10.740   2.144  11.118  0.1667  0.1080  0.0444
  345MOL0     C46501  10.642   2.255  11.079  0.8444  0.0672 -0.3803
  345MOL0     C46502  10.591   2.344  11.196  0.4885  0.0217 -0.6620
  345MOL0     C46503  10.454   2.397  11.162  0.1040  0.4588 -1.0843
  345MOL0     C46504  10.348   2.441  11.123  0.7906 -0.6694 -0.6596
  345MOL0     C46505  10.973   1.871  10.864 -0.0473  0.3296  0.4986
  345MOL0     C46506  11.074   1.788  10.801  0.0001 -1.2476 -0.0069
  345MOL0     C46507  11.064   1.774  10.652 -0.2236  0.0583  0.1804
  345MOL0     H46508  11.579   1.646  10.824 -1.4355  0.6776 -0.6883
  345MOL0     H46509  11.762   1.490  10.763 -0.7428  1.9383  0.5248
  345MOL0     H46510  11.860   1.324  10.670 -1.3467  2.6704  4.0130
  345MOL0     H46511  11.920   1.230  10.812 -0.9112  0.0654  0.5640
  345MOL0     H46512  11.802   1.102  10.580 -1.3299  4.4089 -0.4677
  345MOL0     H46513  11.945   1.032  10.673  1.7262  1.4260 -0.3712
  345MOL0     H46514  11.926   1.221  10.454 -1.2657 -1.4959  0.6725
  345MOL0     H46515  12.011   1.065  10.453  0.1223  1.6577 -1.9501
  345MOL0     H46516  12.096   1.311  10.609 -1.8268 -0.9546 -0.2629
  345MOL0     H46517  12.175   1.158  10.626 -2.9281 -1.2809  0.7584
  345MOL0     H46518  12.253   1.156  10.393  1.1663 -0.2480  0.4404
  345MOL0     H46519  12.147   1.304  10.359 -3.1117 -1.2703  2.1573
  345MOL0     H46520  12.299   1.451  10.492 -1.6728 -0.5103  1.7129
  345MOL0     H46521  12.338   1.316  10.592  0.0607  1.0291  0.4155
  345MOL0     H46522  12.486   1.234  10.445 -1.9195 -0.0725  2.6247
  345MOL0     H46523  12.521   1.408  10.474  3.9717 -3.8513 -0.2740
  345MOL0     H46524  12.366   1.304  10.240 -0.1027 -1.0543  0.9017
  345MOL0     H46525  12.385   1.461  10.250 -2.2822 -0.8555  1.5312
  345MOL0     H46526  12.474   1.291   9.997  1.5347 -0.1934 -2.1339
  345MOL0     H46527  12.878   1.267   9.897  1.1733  0.1858 -1.7122
  345MOL0     H46528  12.740   1.167   9.860  1.3515 -0.4637  0.1527
  345MOL0     H46529  12.758   1.311   9.684 -0.1849  2.0291 -0.7453
  345MOL0     H46530  12.624   1.379   9.762 -1.0600 -1.0685 -0.2343
  345MOL0     H46531  12.786   1.528   9.651  1.6060  0.9551 -0.3249
  345MOL0     H46532  12.922   1.459   9.772  0.3209  0.1209 -0.2269
  345MOL0     H46533  12.816   1.710   9.786  0.7689  0.9596  0.9341
  345MOL0     H46534  12.841   1.604   9.928 -0.6651 -0.8644 -0.4886
  345MOL0     H46535  12.684   1.849   9.725  0.8692  2.3028  0.5355
  345MOL0     H46536  12.580   2.061   9.747  0.1258 -0.1549  0.1110
  345MOL0     H46537  12.214   2.134  10.313  2.0609  0.8539  0.1904
  345MOL0     H46538  12.070   2.290  10.408 -1.1236  0.4579  0.9048
  345MOL0     H46539  11.973   2.670  10.171  3.3897 -2.0903  1.3190
  345MOL0     H46540  11.831   2.560  10.219  0.8262 -0.9959 -1.3840
  345MOL0     H46541  11.803   2.693  10.433 -1.5684 -1.3131  0.0465
  345MOL0     H46542  11.939   2.796  10.366 -0.0751 -1.3309  1.9527
  345MOL0     H46543  11.831   2.839  10.163  0.8280  0.9772  1.1722
  345MOL0     H46544  11.686   2.747  10.207 -2.5427  0.4781  3.5127
  345MOL0     H46545  11.784   3.020  10.323 -0.2464 -0.0503  2.0449
  345MOL0     H46546  11.688   2.909  10.414  3.0655 -6.2211 -0.2658
  345MOL0     H46547  11.523   2.889  10.219 -1.1129  0.4906  0.8349
  345MOL0     H46548  11.607   3.011  10.133  3.2173  0.9442  0.9424
  345MOL0     H46549  11.579   3.190  10.286 -4.9200  2.3991 -3.5994
  345MOL0     H46550  11.437   3.122  10.218  0.3038  1.5395 -0.5081
  345MOL0     H46551  11.399   3.180  10.455  1.0456  1.2621 -4.0829
  345MOL0     H46552  11.530   3.085  10.514 -3.1118  1.9000  2.9476
  345MOL0     H46553  11.442   2.882  10.440 -0.0288 -0.7787  3.5069
  345MOL0     H46554  11.357   2.961  10.564  1.8582  0.5780  0.9188
  345MOL0     H46555  12.155   2.559  10.063 -2.7323  1.7595  1.8906
  345MOL0     H46556  12.314   2.396   9.983  0.0384  1.2211 -0.1111
  345MOL0     H46557  12.405   1.917  10.113  0.5054  1.2063 -0.2342
  345MOL0     H46558  12.525   1.709  10.093  1.6723  1.8494  0.7805
  345MOL0     H46559  11.482   1.170  10.864 -0.0099  0.0045 -2.1572
  345MOL0     H46560  11.321   1.317  10.936  0.1840 -1.8054 -1.6844
  345MOL0     H46561  11.222   1.693  11.096  0.0357 -0.3737  0.8512
  345MOL0     H46562  11.058   1.849  11.197  1.5115  2.5098 -0.0997
  345MOL0     H46563  10.711   2.036  10.937  2.2101  0.5546 -2.7490
  345MOL0     H46564  10.835   2.151  10.933 -3.3835  3.0966 -0.2286
  345MOL0     H46565  10.825   2.177  11.179 -0.1144  2.4792 -0.7574
  345MOL0     H46566  10.690   2.068  11.178  1.5058  1.9439  3.8017
  345MOL0     H46567  10.558   2.222  11.017  0.4210  2.3068 -1.0978
  345MOL0     H46568  10.717   2.310  11.020  0.2884 -1.7934 -2.9920
  345MOL0     H46569  10.589   2.276  11.282  2.0180 -0.7287 -1.1853
  345MOL0     H46570  10.657   2.427  11.223  0.3883 -0.3047  0.6803
  345MOL0     H46571  10.255   2.469  11.078 -0.8415 -3.8249  0.4187
  345MOL0     H46572  10.893   1.902  10.797 -0.3553 -2.5604 -0.6118
  345MOL0     H46573  11.026   1.861  10.597 -4.0183 -1.4310  0.1894
  345MOL0     H46574  11.157   1.741  10.605 -0.3684 -0.0293 -0.0457
  345MOL0     H46575  10.989   1.697  10.636 -1.1099  1.0370 -0.5761
  346MOL0     O46576   3.422   6.561   0.395  0.1086 -0.6548  0.6959
  346MOL0     C46577   3.411   6.447   0.367 -0.9652 -0.0700 -0.3869
  346MOL0     O46578   3.369   6.358   0.464  0.2514 -0.2194 -0.1663
  346MOL0     C46579   3.334   6.408   0.590  0.5030  0.5536 -0.1011
  346MOL0     C46580   3.442   6.439   0.667  0.5112 -0.1067 -0.1056
  346MOL0     C46581   3.411   6.491   0.791  0.3330 -0.8492  0.1823
  346MOL0     C46582   3.284   6.504   0.838  0.3001  0.7549  0.1280
  346MOL0     O46583   3.254   6.545   0.968 -0.0140  0.1938 -0.4051
  346MOL0     C46584   3.334   6.468   1.060 -0.2219 -1.2892  0.2543
  346MOL0     C46585   3.263   6.453   1.190 -0.4117  0.4605  0.5714
  346MOL0     C46586   3.196   6.570   1.253 -0.7075 -0.6528 -0.8061
  346MOL0     C46587   3.198   6.567   1.407 -0.6575  0.0678 -0.5305
  346MOL0     C46588   3.134   6.696   1.453 -0.2917 -0.5445 -0.4441
  346MOL0     C46589   3.160   6.723   1.595  0.2175 -0.2170 -0.4672
  346MOL0     C46590   3.081   6.627   1.692 -0.7133 -0.3624 -1.1143
  346MOL0     C46591   3.062   6.704   1.832  0.4007  0.5382 -0.6419
  346MOL0     N46592   3.182   6.739   1.898  0.2029  0.5046 -0.1531
  346MOL0     C46593   3.223   6.871   1.907 -0.0526  0.3791  0.2645
  346MOL0     C46594   3.335   6.861   1.980 -0.0085 -0.1498 -0.0586
  346MOL0     C46595   3.430   6.978   2.021  0.4868 -0.2343  0.7486
  346MOL0     C46596   3.511   6.941   2.146  0.3080 -0.5841 -0.4322
  346MOL0     C46597   3.541   7.064   2.234  0.6866  0.4419  0.9682
  346MOL0     C46598   3.594   7.004   2.369 -0.3873 -0.4733  0.5030
  346MOL0     O46599   3.611   7.113   2.458  0.6296 -0.4843  0.3632
  346MOL0     C46600   3.671   7.074   2.585 -0.4067 -0.9548  1.0119
  346MOL0     C46601   3.673   7.170   2.682  0.3400  0.0603 -0.8122
  346MOL0     C46602   3.732   7.148   2.800  0.6236  0.3742 -0.5041
  346MOL0     C46603   3.803   7.034   2.831 -0.0374  0.5452 -0.2444
  346MOL0     C46604   3.869   7.025   2.963  0.3431 -0.5230  0.5609
  346MOL0     O46605   3.840   7.128   3.059  0.0734 -0.1703 -0.6448
  346MOL0     C46606   3.852   7.103   3.196  0.4411 -0.9250  0.1898
  346MOL0     C46607   3.957   7.033   3.255  0.4933  1.6311 -1.0849
  346MOL0     C46608   3.951   7.020   3.399 -0.1671  0.1493  0.5530
  346MOL0     C46609   3.846   7.064   3.482  0.9356  0.2968 -0.5875
  346MOL0     O46610   3.847   7.054   3.625 -0.1001 -0.1062  0.6800
  346MOL0     C46611   3.745   7.120   3.702 -0.0376  0.5920 -0.0445
  346MOL0     C46612   3.617   7.027   3.705  0.0332  0.0050  0.0124
  346MOL0     C46613   3.488   7.109   3.692  0.1542  0.5701  0.5895
  346MOL0     C46614   3.417   7.099   3.828  0.3344  0.0795  0.2417
  346MOL0     C46615   3.269   7.134   3.819 -0.2967 -0.1039 -0.0545
  346MOL0     C46616   3.247   7.277   3.773 -0.2914 -0.5308 -0.9435
  346MOL0     C46617   3.099   7.307   3.788  0.1252  0.0305  0.9580
  346MOL0     C46618   3.040   7.275   3.919  0.3407 -0.6142  0.7470
  346MOL0    Cl46619   3.128   7.359   4.043 -0.1660  0.0147 -0.4542
  346MOL0     C46620   3.742   7.128   3.410 -0.4466 -0.4087 -0.2659
  346MOL0     C46621   3.747   7.153   3.271 -0.5333 -0.6052  0.4163
  346MOL0     O46622   3.944   6.932   2.981  0.1130 -0.7224 -0.3593
  346MOL0     C46623   3.820   6.948   2.727 -0.8800  0.1171  0.4399
  346MOL0     C46624   3.743   6.957   2.613  0.2533  0.0225  0.0046
  346MOL0     N46625   3.355   6.729   2.020 -0.0287  0.5044 -0.2067
  346MOL0     N46626   3.261   6.651   1.977 -0.3108 -0.5083  0.2478
  346MOL0     C46627   3.180   6.469   0.755 -0.9768 -0.9999  0.4787
  346MOL0     C46628   3.207   6.414   0.635 -0.3808 -0.8211  0.1096
  346MOL0     C46629   3.484   6.384   0.251 -0.4598 -0.5767  0.6276
  346MOL0     C46630   3.597   6.457   0.197 -0.5370  0.5687  0.3134
  346MOL0     C46631   3.670   6.404   0.088 -0.0225  1.2218  0.7209
  346MOL0     C46632   3.644   6.275   0.032  0.2317 -0.9103  0.4424
  346MOL0     O46633   3.726   6.217  -0.056 -0.1631  0.0155  0.1869
  346MOL0     C46634   3.783   6.291  -0.167  0.0406  0.0648  0.4680
  346MOL0     C46635   3.909   6.235  -0.239  0.7938 -0.0915  0.1291
  346MOL0     C46636   3.923   6.299  -0.374 -0.0861  0.5104 -0.3858
  346MOL0     C46637   3.986   6.200  -0.471 -0.1612  0.8217  0.1388
  346MOL0     C46638   4.020   6.275  -0.599 -0.2940 -0.6633  0.3598
  346MOL0     C46639   4.044   6.337  -0.697 -1.0757 -0.5606  0.0898
  346MOL0     C46640   3.538   6.204   0.087  0.4857 -0.6514  2.1531
  346MOL0     C46641   3.468   6.250   0.200  0.6922  1.5627  0.4452
  346MOL0     C46642   3.367   6.173   0.268  0.1732  0.8375 -0.1249
  346MOL0     H46643   3.543   6.418   0.633 -0.3692 -2.0931 -1.7040
  346MOL0     H46644   3.497   6.523   0.850 -1.1172 -1.8440  3.0206
  346MOL0     H46645   3.344   6.366   1.022 -3.2633 -1.6717  0.2224
  346MOL0     H46646   3.431   6.516   1.077 -1.6192  1.8180  0.0238
  346MOL0     H46647   3.341   6.406   1.251  0.4851  2.2455  0.8662
  346MOL0     H46648   3.184   6.379   1.170 -1.0091  0.3945  2.8677
  346MOL0     H46649   3.095   6.576   1.210 -1.0128 -2.3477 -0.3993
  346MOL0     H46650   3.249   6.663   1.227 -0.6429  0.5937  3.1038
  346MOL0     H46651   3.146   6.477   1.442 -0.3980  0.6992  1.5848
  346MOL0     H46652   3.300   6.566   1.446 -0.3950  0.6908 -1.1755
  346MOL0     H46653   3.167   6.779   1.389 -2.8487  0.6331 -0.3292
  346MOL0     H46654   3.026   6.709   1.443 -0.0428  2.4791 -0.0538
  346MOL0     H46655   3.269   6.725   1.596  0.2271 -0.4209 -0.9561
  346MOL0     H46656   3.132   6.828   1.610 -0.8814 -0.5745  0.0856
  346MOL0     H46657   3.141   6.537   1.709 -0.8127  0.2027  3.2263
  346MOL0     H46658   2.986   6.590   1.651 -2.0264 -5.5691  5.1102
  346MOL0     H46659   3.000   6.793   1.815 -3.9467 -0.4116  6.1922
  346MOL0     H46660   3.003   6.650   1.907 -1.9934  3.0594 -0.5344
  346MOL0     H46661   3.165   6.952   1.864  0.3062  0.8095  0.5743
  346MOL0     H46662   3.492   6.992   1.932 -1.1268 -0.6430 -0.4759
  346MOL0     H46663   3.368   7.068   2.031  0.8780  0.0825  0.3481
  346MOL0     H46664   3.450   6.868   2.200  0.8542 -2.1977 -1.9134
  346MOL0     H46665   3.608   6.894   2.126  1.7781  2.3472 -0.7462
  346MOL0     H46666   3.452   7.125   2.250  0.7582  0.8686 -0.1355
  346MOL0     H46667   3.627   7.124   2.203  2.3721 -0.3482  3.7610
  346MOL0     H46668   3.688   6.948   2.357 -2.0492 -2.9510 -2.6102
  346MOL0     H46669   3.526   6.928   2.410 -0.2493  0.2552  2.1806
  346MOL0     H46670   3.627   7.267   2.669  0.0178 -0.2785 -2.5725
  346MOL0     H46671   3.730   7.230   2.872  1.9377 -0.9151  1.0876
  346MOL0     H46672   4.035   6.996   3.190  0.9818  1.2403 -0.2913
  346MOL0     H46673   4.035   6.970   3.446  0.2879 -0.8107 -1.1898
  346MOL0     H46674   3.773   7.125   3.808 -3.1857 -5.1837  1.4819
  346MOL0     H46675   3.725   7.213   3.648  2.7428  2.2226  1.5036
  346MOL0     H46676   3.629   6.955   3.624  2.0423  0.5789 -0.2577
  346MOL0     H46677   3.614   6.972   3.800  2.8163  0.4256  0.4373
  346MOL0     H46678   3.509   7.212   3.661 -0.7090  0.6323  0.1864
  346MOL0     H46679   3.421   7.074   3.612 -2.6007  1.4928  2.3697
  346MOL0     H46680   3.468   7.154   3.907  1.6120  0.2546 -0.6690
  346MOL0     H46681   3.417   6.996   3.866  1.3600 -0.7453 -1.8510
  346MOL0     H46682   3.223   7.107   3.915  1.2200 -1.6615  0.2851
  346MOL0     H46683   3.223   7.061   3.751 -3.3673  1.4498  0.1754
  346MOL0     H46684   3.310   7.347   3.830 -2.1212  1.0959 -0.8242
  346MOL0     H46685   3.260   7.284   3.665 -0.3998  2.1574 -0.8614
  346MOL0     H46686   3.037   7.251   3.717 -1.8818  1.3471  1.6203
  346MOL0     H46687   3.080   7.412   3.763 -2.3955  0.6010  4.5153
  346MOL0     H46688   2.938   7.316   3.922  0.1700 -0.8947 -0.3898
  346MOL0     H46689   3.032   7.166   3.928  3.5851 -0.8527  1.9760
  346MOL0     H46690   3.647   7.150   3.457 -0.5835 -2.5180  0.5416
  346MOL0     H46691   3.671   7.214   3.222  0.3407 -1.9679 -2.9578
  346MOL0     H46692   3.874   6.854   2.737  1.5111  1.3019 -0.7186
  346MOL0     H46693   3.742   6.873   2.545 -2.5494 -0.8517  0.9716
  346MOL0     H46694   3.081   6.500   0.787 -1.5494 -1.9992 -0.2721
  346MOL0     H46695   3.126   6.397   0.565 -0.0626  0.2949 -0.5627
  346MOL0     H46696   3.622   6.553   0.239  1.6360  0.5810 -0.8446
  346MOL0     H46697   3.749   6.467   0.050  3.1203 -0.5857  3.6747
  346MOL0     H46698   3.811   6.391  -0.132 -1.9959  0.3390  1.4645
  346MOL0     H46699   3.704   6.295  -0.243 -0.2700 -0.7514  0.7407
  346MOL0     H46700   3.888   6.128  -0.246 -1.7146  0.4020 -0.7626
  346MOL0     H46701   4.004   6.257  -0.189  2.4015  0.0905 -2.8240
  346MOL0     H46702   3.988   6.386  -0.355 -0.3742  1.2001 -2.2835
  346MOL0     H46703   3.830   6.342  -0.413  1.2354  0.4652 -3.9528
  346MOL0     H46704   4.074   6.162  -0.418 -0.0192 -1.7726 -1.7666
  346MOL0     H46705   3.922   6.113  -0.484  0.8933 -0.1734  1.3256
  346MOL0     H46706   4.045   6.401  -0.784  1.8576 -2.3641 -1.3629
  346MOL0     H46707   3.521   6.103   0.050  0.1223  0.2655 -0.3757
  346MOL0     H46708   3.274   6.230   0.273  0.2736  0.8954  1.8559
  346MOL0     H46709   3.346   6.076   0.221  1.8011  1.0300 -1.3466
  346MOL0     H46710   3.391   6.139   0.369 -0.3928 -2.6438 -1.0144
  347MOL0     O46711   2.122   2.769   9.292  0.0706  1.0975 -0.2195
  347MOL0     C46712   2.198   2.768   9.198  0.0714  0.4979  0.1498
  347MOL0     O46713   2.240   2.882   9.139  0.5505 -0.3556  0.1602
  347MOL0     C46714   2.204   3.009   9.186 -0.0576 -0.5383 -0.6367
  347MOL0     C46715   2.210   3.111   9.083  0.3603  0.8813  0.2195
  347MOL0     C46716   2.222   3.243   9.125 -0.3631  0.7551  0.3797
  347MOL0     C46717   2.219   3.281   9.258  0.0779  0.1699  0.0099
  347MOL0     O46718   2.256   3.407   9.269 -0.1903 -0.2768  0.1531
  347MOL0     C46719   2.222   3.472   9.390 -0.4448  0.3208 -0.3243
  347MOL0     C46720   2.248   3.623   9.374 -0.2226  0.0910  0.5607
  347MOL0     C46721   2.224   3.710   9.494 -0.4644  0.4148 -0.6888
  347MOL0     C46722   2.315   3.671   9.622 -0.1230 -0.4469 -0.0826
  347MOL0     C46723   2.462   3.676   9.586 -1.3389 -0.9394  0.3005
  347MOL0     C46724   2.562   3.640   9.695 -0.7275 -0.6068 -0.2525
  347MOL0     C46725   2.581   3.751   9.799  0.3264 -0.1108 -0.3361
  347MOL0     C46726   2.640   3.698   9.932 -0.1833  0.9542 -0.4456
  347MOL0     N46727   2.790   3.660   9.920  0.6594  0.4874 -0.0822
  347MOL0     C46728   2.872   3.702  10.021 -0.2130  0.2894  0.0999
  347MOL0     C46729   2.992   3.644   9.981 -0.0767  0.4445  0.0997
  347MOL0     C46730   3.130   3.650  10.032 -0.5600 -0.2106  0.3658
  347MOL0     C46731   3.149   3.738  10.154 -0.4564  0.2204  0.8984
  347MOL0     C46732   3.296   3.772  10.181  0.5029 -0.3230 -0.2824
  347MOL0     C46733   3.333   3.775  10.328 -0.0758  0.2435 -0.3365
  347MOL0     O46734   3.462   3.829  10.344 -0.8259  0.0773  0.5333
  347MOL0     C46735   3.521   3.794  10.464 -0.1292  0.5202 -0.4032
  347MOL0     C46736   3.478   3.704  10.568  0.9929 -0.2733  0.0852
  347MOL0     C46737   3.555   3.663  10.675 -0.2951  0.0494  1.2359
  347MOL0     C46738   3.684   3.713  10.688  0.1685 -0.0072 -0.1900
  347MOL0     C46739   3.778   3.665  10.801 -1.1708  0.5400 -0.6182
  347MOL0     O46740   3.901   3.717  10.809  0.1240  0.2638  0.6054
  347MOL0     C46741   3.988   3.660  10.894  0.1640 -0.7060  0.2293
  347MOL0     C46742   4.012   3.524  10.915 -0.2322 -0.2030  0.7630
  347MOL0     C46743   4.096   3.478  11.023  0.0299  0.4513 -0.3624
  347MOL0     C46744   4.167   3.560  11.103 -1.0463 -0.7151 -0.2263
  347MOL0     O46745   4.253   3.512  11.198 -0.5112 -0.7365 -0.2412
  347MOL0     C46746   4.217   3.393  11.275 -0.7208  0.5298  0.2281
  347MOL0     C46747   4.301   3.393  11.399  0.4799  0.0690 -0.5188
  347MOL0     C46748   4.266   3.517  11.485 -0.3087 -0.5348 -0.1207
  347MOL0     C46749   4.387   3.557  11.566  0.2429 -0.0008 -0.1398
  347MOL0     C46750   4.334   3.646  11.679 -0.1776 -0.1523  0.3178
  347MOL0     C46751   4.447   3.683  11.773 -0.1016 -0.5460 -0.0101
  347MOL0     C46752   4.422   3.685  11.923  0.0964  0.0585  0.9012
  347MOL0     C46753   4.311   3.786  11.951 -0.0890 -0.1828 -0.1593
  347MOL0    Cl46754   4.329   3.963  11.901 -0.1290 -0.1097  0.1898
  347MOL0     C46755   4.161   3.700  11.067 -0.0005 -0.6461 -0.6141
  347MOL0     C46756   4.066   3.748  10.971  0.0332 -0.1203  0.1172
  347MOL0     O46757   3.728   3.585  10.877 -0.5005  0.8724 -0.2069
  347MOL0     C46758   3.719   3.815  10.602 -0.1927  0.3344  0.6283
  347MOL0     C46759   3.651   3.860  10.490  0.3373  0.6350 -0.0946
  347MOL0     N46760   2.972   3.563   9.870 -0.0661  0.0281  0.9187
  347MOL0     N46761   2.849   3.574   9.828 -0.1108 -0.1767 -0.5651
  347MOL0     C46762   2.213   3.183   9.357 -0.7654 -0.1458 -0.0263
  347MOL0     C46763   2.196   3.052   9.320  0.1249  0.7282  0.2679
  347MOL0     C46764   2.253   2.642   9.151 -0.1073  1.2050 -0.1078
  347MOL0     C46765   2.353   2.652   9.060  0.3956 -0.8583 -0.0528
  347MOL0     C46766   2.421   2.542   9.018  0.1230 -0.0925 -0.5705
  347MOL0     C46767   2.378   2.413   9.053 -1.0750 -0.1746 -0.4254
  347MOL0     O46768   2.450   2.304   9.015  0.2792  0.6015 -0.1878
  347MOL0     C46769   2.558   2.252   9.100  0.6884 -0.6217  0.2942
  347MOL0     C46770   2.533   2.102   9.101  0.0719 -1.1945 -0.0098
  347MOL0     C46771   2.603   2.024   9.212 -1.1405 -0.1693  0.7780
  347MOL0     C46772   2.742   2.074   9.253  0.6180  0.0244 -0.1922
  347MOL0     C46773   2.844   2.062   9.153 -0.4426 -0.3463  0.3948
  347MOL0     C46774   2.924   2.046   9.054  0.3782 -0.1062 -0.7017
  347MOL0     C46775   2.263   2.403   9.123 -0.1092  0.4787  0.2196
  347MOL0     C46776   2.189   2.511   9.174 -0.0221  0.0763 -1.0115
  347MOL0     C46777   2.054   2.485   9.252  0.0060  0.6253  0.3007
  347MOL0     H46778   2.207   3.095   8.976  0.3785 -0.0975  0.3611
  347MOL0     H46779   2.223   3.328   9.058 -0.2821  0.0790 -0.4870
  347MOL0     H46780   2.118   3.451   9.418  0.5828 -1.8767  2.1721
  347MOL0     H46781   2.280   3.450   9.480 -2.7549  0.2264  1.2343
  347MOL0     H46782   2.179   3.647   9.292  1.0915  2.4865  0.0758
  347MOL0     H46783   2.348   3.641   9.333 -2.0291  3.2346 -3.0730
  347MOL0     H46784   2.121   3.685   9.519 -0.1835 -0.3157 -0.2371
  347MOL0     H46785   2.248   3.815   9.472  0.2379 -0.3109 -3.9655
  347MOL0     H46786   2.292   3.745   9.700  0.4520 -1.3300  0.9426
  347MOL0     H46787   2.283   3.574   9.661 -1.5798 -0.6737 -1.6990
  347MOL0     H46788   2.464   3.603   9.505 -3.5633  0.0969 -0.7956
  347MOL0     H46789   2.487   3.777   9.553  2.8891 -1.2814  1.8338
  347MOL0     H46790   2.525   3.544   9.733  1.0320 -1.0270  0.4952
  347MOL0     H46791   2.659   3.619   9.648 -0.3345  1.0667 -0.2641
  347MOL0     H46792   2.487   3.785   9.844  1.3571  0.0097  1.8424
  347MOL0     H46793   2.646   3.828   9.757  0.1869 -0.5409 -1.3728
  347MOL0     H46794   2.639   3.765  10.018  0.5310 -0.9016  1.0833
  347MOL0     H46795   2.588   3.612   9.976  1.9314  0.9834  2.3974
  347MOL0     H46796   2.857   3.767  10.107 -1.1652 -4.2688  3.7503
  347MOL0     H46797   3.158   3.547  10.055 -2.4693 -0.7860  0.2594
  347MOL0     H46798   3.197   3.685   9.953  2.3763  0.0172  2.7644
  347MOL0     H46799   3.091   3.829  10.135 -1.2507 -0.2721  0.9498
  347MOL0     H46800   3.111   3.684  10.240  1.2164 -2.0979  0.2910
  347MOL0     H46801   3.320   3.873  10.145 -2.0627  1.1929  1.8973
  347MOL0     H46802   3.364   3.703  10.129  1.9082  2.4079 -2.3180
  347MOL0     H46803   3.325   3.671  10.360  0.1623  0.5292  0.7004
  347MOL0     H46804   3.259   3.829  10.389 -0.9775  0.6230 -1.7322
  347MOL0     H46805   3.383   3.652  10.570 -0.0027  1.4835  2.0867
  347MOL0     H46806   3.522   3.594  10.752 -2.0189  2.0587  2.4064
  347MOL0     H46807   3.938   3.466  10.860 -2.4465  0.7526  2.5893
  347MOL0     H46808   4.102   3.371  11.040  2.2498  0.3655 -1.3514
  347MOL0     H46809   4.109   3.406  11.286 -0.9049  0.3467 -1.2024
  347MOL0     H46810   4.233   3.310  11.206  1.1955  1.0408 -0.0022
  347MOL0     H46811   4.281   3.301  11.456 -1.6359  0.5314 -0.3985
  347MOL0     H46812   4.397   3.395  11.348 -0.0295  0.2834 -1.4881
  347MOL0     H46813   4.236   3.607  11.429  2.6946 -0.0321 -1.1064
  347MOL0     H46814   4.184   3.485  11.549  1.5363  0.4601  2.9520
  347MOL0     H46815   4.452   3.622  11.506  0.7446 -0.1418  0.2402
  347MOL0     H46816   4.447   3.467  11.586  0.3946  0.6409  2.8143
  347MOL0     H46817   4.254   3.593  11.730 -0.2744  0.0179  0.3443
  347MOL0     H46818   4.297   3.746  11.653  3.7152  0.8129 -2.5668
  347MOL0     H46819   4.529   3.612  11.756 -1.2845 -1.2727 -3.4454
  347MOL0     H46820   4.482   3.784  11.749 -3.4410  0.2733 -1.9367
  347MOL0     H46821   4.515   3.714  11.972  1.8643 -2.0733 -0.9919
  347MOL0     H46822   4.388   3.586  11.956 -2.3673  1.2513  2.2607
  347MOL0     H46823   4.215   3.764  11.903  0.6583  3.0906 -3.6446
  347MOL0     H46824   4.295   3.782  12.059 -0.9877  2.1896 -0.1408
  347MOL0     H46825   4.230   3.769  11.114  1.2545 -2.0537 -0.3147
  347MOL0     H46826   4.061   3.855  10.951  1.5461  0.2042  1.3274
  347MOL0     H46827   3.823   3.845  10.615 -0.4540  0.8490  1.6237
  347MOL0     H46828   3.696   3.936  10.427  1.0971 -0.0063 -0.3346
  347MOL0     H46829   2.234   3.216   9.459  0.8283  2.4277 -1.0971
  347MOL0     H46830   2.219   2.977   9.395  0.3098 -3.1009 -3.2686
  347MOL0     H46831   2.375   2.751   9.020 -0.7302 -1.2418 -1.7178
  347MOL0     H46832   2.507   2.550   8.952 -1.6532 -0.3542 -3.0637
  347MOL0     H46833   2.534   2.290   9.199  0.5790 -1.6531  0.6731
  347MOL0     H46834   2.659   2.277   9.065 -1.0773  1.3011 -4.2270
  347MOL0     H46835   2.557   2.063   9.002 -2.0867 -1.4132 -0.4951
  347MOL0     H46836   2.428   2.103   9.132  0.9853  1.0226  3.7334
  347MOL0     H46837   2.611   1.921   9.178 -1.6951  0.5569 -1.7864
  347MOL0     H46838   2.529   2.028   9.292 -1.6661  1.6651  0.2625
  347MOL0     H46839   2.722   2.173   9.295 -2.6944 -1.3750  1.9645
  347MOL0     H46840   2.773   2.010   9.336  1.0253 -2.5994 -2.2110
  347MOL0     H46841   3.002   2.022   8.985  0.1980  0.0398 -0.9581
  347MOL0     H46842   2.243   2.297   9.136  0.0869 -0.1636 -3.5954
  347MOL0     H46843   2.045   2.529   9.352 -2.1597  0.1998  0.3573
  347MOL0     H46844   1.973   2.518   9.185  1.1777 -0.5637 -1.8042
  347MOL0     H46845   2.046   2.376   9.255 -2.1574  0.6986 -0.7513
  348MOL0     O46846   8.357   6.385   2.740 -0.4567 -1.0614 -0.9991
  348MOL0     C46847   8.305   6.472   2.678  0.2835 -0.0441 -0.4187
  348MOL0     O46848   8.329   6.506   2.551  0.4258 -0.2772 -0.6532
  348MOL0     C46849   8.422   6.421   2.490  1.2610  0.1783 -0.4545
  348MOL0     C46850   8.556   6.423   2.525 -0.6150  0.4863  0.1068
  348MOL0     C46851   8.649   6.352   2.456 -0.1088 -0.6808 -0.3598
  348MOL0     C46852   8.616   6.269   2.348  0.0771 -0.9874 -0.4799
  348MOL0     O46853   8.702   6.204   2.273  0.8052  1.2684 -0.3608
  348MOL0     C46854   8.662   6.067   2.245  0.6791 -0.1983  0.0513
  348MOL0     C46855   8.774   5.966   2.246 -0.5304  0.3063 -0.5211
  348MOL0     C46856   8.725   5.831   2.197  0.3300  0.5562 -0.0517
  348MOL0     C46857   8.834   5.725   2.200  0.5842  0.4905 -0.9215
  348MOL0     C46858   8.774   5.586   2.146 -0.5768  0.3038 -0.2174
  348MOL0     C46859   8.886   5.490   2.111 -0.8421 -0.4403  0.0840
  348MOL0     C46860   9.013   5.464   2.204  0.6132 -0.2950  0.2404
  348MOL0     C46861   8.971   5.402   2.335  0.4043  0.3306 -0.7428
  348MOL0     N46862   8.962   5.253   2.323  0.3625 -0.4063  0.3510
  348MOL0     C46863   9.057   5.168   2.347 -0.0950  1.4156  0.7360
  348MOL0     C46864   9.011   5.046   2.290 -0.2851 -0.7150 -0.5066
  348MOL0     C46865   9.089   4.913   2.313 -0.2600  0.9445  0.6220
  348MOL0     C46866   8.991   4.822   2.386  1.0349  0.4597 -0.3156
  348MOL0     C46867   9.055   4.683   2.398  0.4096 -0.9636  0.3289
  348MOL0     C46868   8.955   4.566   2.431  0.0397  0.9964  0.4323
  348MOL0     O46869   9.002   4.445   2.367  0.0696 -0.1393  0.2506
  348MOL0     C46870   8.899   4.370   2.328 -0.3653 -0.1545  0.1886
  348MOL0     C46871   8.847   4.267   2.407 -0.5575 -0.4712 -0.1855
  348MOL0     C46872   8.735   4.193   2.355 -1.1285 -0.6858 -0.0964
  348MOL0     C46873   8.681   4.219   2.228 -0.3404  0.4456  0.2636
  348MOL0     C46874   8.564   4.127   2.189 -0.2753 -0.5097  0.2870
  348MOL0     O46875   8.540   4.117   2.057  0.4357 -0.3986 -0.7255
  348MOL0     C46876   8.409   4.093   2.026 -0.5130 -0.0090  0.6032
  348MOL0     C46877   8.296   4.069   2.113  0.6054  0.8127  1.3789
  348MOL0     C46878   8.174   4.034   2.061 -0.1868  0.5067 -0.6343
  348MOL0     C46879   8.166   4.015   1.924  0.1110  0.2525 -0.2697
  348MOL0     O46880   8.045   3.980   1.852 -0.1392 -0.6440  0.4369
  348MOL0     C46881   7.938   3.913   1.920  0.7592  0.0338 -0.7864
  348MOL0     C46882   7.820   3.892   1.823 -0.7420 -0.2952 -0.2556
  348MOL0     C46883   7.861   3.786   1.725  0.5908  0.0473 -0.0788
  348MOL0     C46884   7.840   3.843   1.575 -0.1422  0.3637  0.0131
  348MOL0     C46885   7.864   3.739   1.475 -0.7494 -0.0867 -0.1322
  348MOL0     C46886   8.014   3.745   1.436  0.0023  0.3495 -0.2722
  348MOL0     C46887   8.050   3.859   1.340 -0.0756 -0.7610  0.1716
  348MOL0     C46888   8.205   3.890   1.329  0.0260 -0.4195  0.7785
  348MOL0    Cl46889   8.276   3.968   1.481 -0.2441 -0.8224 -0.2858
  348MOL0     C46890   8.259   4.061   1.834  1.0239  0.7315  1.1243
  348MOL0     C46891   8.381   4.091   1.883 -0.0901  0.3171 -0.3016
  348MOL0     O46892   8.504   4.066   2.281  0.2166  0.1943  0.3881
  348MOL0     C46893   8.744   4.320   2.145  0.6403  0.0581  0.4321
  348MOL0     C46894   8.849   4.392   2.199  0.5237 -0.3104 -0.5559
  348MOL0     N46895   8.883   5.067   2.253  0.5142  0.0293  0.5289
  348MOL0     N46896   8.846   5.185   2.282 -0.2619 -0.2626  0.6472
  348MOL0     C46897   8.475   6.271   2.308  0.1186  0.0290 -0.0550
  348MOL0     C46898   8.383   6.346   2.383 -0.5228  0.7024 -0.3793
  348MOL0     C46899   8.182   6.534   2.740  0.6213  1.4475  0.1918
  348MOL0     C46900   8.098   6.612   2.662  0.1825  0.6038 -0.6267
  348MOL0     C46901   7.994   6.675   2.717 -0.1825 -0.1834  0.3707
  348MOL0     C46902   7.948   6.647   2.842  0.3545 -1.0133 -0.4385
  348MOL0     O46903   7.830   6.704   2.879 -0.3046  0.2657  0.4544
  348MOL0     C46904   7.827   6.758   3.007  0.3175  0.3103  0.5933
  348MOL0     C46905   7.680   6.744   3.051  0.3482 -0.0100 -0.1512
  348MOL0     C46906   7.598   6.855   2.969 -0.0484 -0.4744  0.5668
  348MOL0     C46907   7.446   6.848   3.013  0.5659  0.3281  0.1765
  348MOL0     C46908   7.410   6.923   3.137 -0.5393 -0.0156  0.4361
  348MOL0     C46909   7.355   6.969   3.240 -0.2952  0.2565 -0.7086
  348MOL0     C46910   8.016   6.552   2.919 -0.6531 -0.4082  0.5988
  348MOL0     C46911   8.133   6.506   2.871 -0.1317 -0.5008 -0.1909
  348MOL0     C46912   8.204   6.407   2.971 -0.4557 -0.9679 -0.7904
  348MOL0     H46913   8.578   6.485   2.611  1.1582  1.2514 -0.8334
  348MOL0     H46914   8.756   6.359   2.475  0.3609  0.4296 -3.0169
  348MOL0     H46915   8.583   6.028   2.309  1.9423 -2.4840  0.3209
  348MOL0     H46916   8.624   6.064   2.143 -1.7463  2.4784  0.7448
  348MOL0     H46917   8.821   5.951   2.344 -1.0773  3.9380  0.4368
  348MOL0     H46918   8.849   6.003   2.174 -2.0104  1.2738 -1.6334
  348MOL0     H46919   8.703   5.845   2.091 -1.7198 -2.0359 -0.0487
  348MOL0     H46920   8.636   5.799   2.250  0.1707  0.1766 -0.5472
  348MOL0     H46921   8.909   5.756   2.126  0.4259 -1.0007 -1.7348
  348MOL0     H46922   8.878   5.731   2.300 -0.8863  1.9656 -0.3042
  348MOL0     H46923   8.711   5.522   2.209 -0.0607  0.5553  0.5704
  348MOL0     H46924   8.713   5.611   2.059 -3.6074 -4.4349  0.1921
  348MOL0     H46925   8.851   5.392   2.077 -0.6711 -1.1847  1.9615
  348MOL0     H46926   8.917   5.528   2.013  1.4044 -1.1027  0.5014
  348MOL0     H46927   9.053   5.565   2.217 -3.8564  1.6022  0.9990
  348MOL0     H46928   9.087   5.406   2.148  0.3575  1.2465 -1.8179
  348MOL0     H46929   9.041   5.413   2.418 -1.4705 -3.0505  1.5392
  348MOL0     H46930   8.873   5.448   2.352 -0.1247 -0.9109 -0.3218
  348MOL0     H46931   9.156   5.184   2.388 -0.1373 -0.1124  1.5418
  348MOL0     H46932   9.114   4.872   2.215 -3.4611  1.9318 -0.7379
  348MOL0     H46933   9.182   4.921   2.370  0.4221  0.4927 -0.4090
  348MOL0     H46934   8.969   4.855   2.488 -1.4545 -0.1223 -0.6028
  348MOL0     H46935   8.893   4.829   2.338 -0.3282  1.0743  2.3699
  348MOL0     H46936   9.125   4.688   2.482  1.0037 -2.7131 -0.0192
  348MOL0     H46937   9.126   4.675   2.316  1.0504 -0.4728  0.8199
  348MOL0     H46938   8.858   4.598   2.393  0.7527  0.6400 -1.7907
  348MOL0     H46939   8.949   4.561   2.541  0.9632  2.0283  0.5493
  348MOL0     H46940   8.904   4.250   2.498  1.2629  0.6302 -1.0572
  348MOL0     H46941   8.704   4.112   2.421 -2.2760  0.6540  1.1071
  348MOL0     H46942   8.299   4.057   2.221 -2.8497 -0.1854  1.4923
  348MOL0     H46943   8.089   4.009   2.123  0.0535  2.3898  0.5180
  348MOL0     H46944   7.984   3.818   1.949  1.4642  0.8131  0.7903
  348MOL0     H46945   7.911   3.971   2.009  5.2372  1.6324 -0.2154
  348MOL0     H46946   7.739   3.859   1.889 -0.3321  1.0766  1.0092
  348MOL0     H46947   7.793   3.987   1.776 -1.3081 -0.2965  0.0642
  348MOL0     H46948   7.967   3.767   1.744  0.7659  2.5289  2.0615
  348MOL0     H46949   7.793   3.702   1.740 -1.3586  1.4319 -0.7347
  348MOL0     H46950   7.890   3.938   1.553 -0.9410  1.1149  1.2825
  348MOL0     H46951   7.732   3.861   1.577 -0.7870 -2.4188 -2.7663
  348MOL0     H46952   7.803   3.747   1.385 -0.8213 -0.0596 -0.0810
  348MOL0     H46953   7.847   3.637   1.513  0.9609  0.7647  3.3665
  348MOL0     H46954   8.081   3.751   1.522  0.0429  0.6935 -0.3245
  348MOL0     H46955   8.033   3.658   1.372 -5.4523 -1.0771 -0.4701
  348MOL0     H46956   7.997   3.952   1.365  0.2063 -0.1664 -1.3770
  348MOL0     H46957   8.014   3.843   1.238 -1.1073  0.6490  0.2780
  348MOL0     H46958   8.260   3.795   1.322 -3.6337 -2.6316 -1.2720
  348MOL0     H46959   8.225   3.947   1.238 -0.5040 -1.2611  0.1164
  348MOL0     H46960   8.224   4.058   1.731 -1.0223 -2.6336  1.7401
  348MOL0     H46961   8.459   4.105   1.809 -1.0958 -2.8868 -2.1293
  348MOL0     H46962   8.708   4.342   2.045  0.3396  2.2000  0.9509
  348MOL0     H46963   8.904   4.456   2.131  0.0893  0.3064 -0.3368
  348MOL0     H46964   8.454   6.212   2.219  1.7363  1.3490 -1.3890
  348MOL0     H46965   8.283   6.354   2.342  0.3609 -1.2814 -3.2321
  348MOL0     H46966   8.118   6.641   2.559  0.9307 -1.1246 -1.0174
  348MOL0     H46967   7.925   6.722   2.648 -0.5557 -1.7678 -0.3924
  348MOL0     H46968   7.871   6.857   2.993 -0.5552  0.5470 -0.6041
  348MOL0     H46969   7.889   6.710   3.084  0.4689 -0.8555 -0.2276
  348MOL0     H46970   7.664   6.746   3.159  1.7908 -1.1875  0.1087
  348MOL0     H46971   7.646   6.642   3.033 -1.3817  0.5511 -0.2810
  348MOL0     H46972   7.597   6.838   2.861  4.3833 -1.2609  0.4513
  348MOL0     H46973   7.642   6.951   2.997 -3.3898  1.4865 -0.3627
  348MOL0     H46974   7.381   6.887   2.934 -0.2983 -1.4456 -0.0354
  348MOL0     H46975   7.412   6.745   3.026  1.7119 -0.2823 -1.3878
  348MOL0     H46976   7.314   6.997   3.335  1.3069 -2.9046  1.0952
  348MOL0     H46977   7.974   6.524   3.015  0.4350  2.1873  1.9412
  348MOL0     H46978   8.184   6.306   2.934  0.8729 -1.7122  0.4054
  348MOL0     H46979   8.313   6.420   2.959 -0.3068 -0.7178  0.6922
  348MOL0     H46980   8.174   6.416   3.076 -3.6872 -2.0636 -1.5179
  349MOL0     O46981   8.439   0.253   6.912 -0.3951 -0.0258 -0.2577
  349MOL0     C46982   8.520   0.349   6.921  0.2087 -0.2207  0.6988
  349MOL0     O46983   8.633   0.352   6.997  0.1087  0.1055 -0.6166
  349MOL0     C46984   8.665   0.257   7.102  0.3890 -1.3961  0.8132
  349MOL0     C46985   8.714   0.298   7.219 -0.3183 -0.2913 -0.1483
  349MOL0     C46986   8.753   0.204   7.314  0.7917 -0.2659 -1.4315
  349MOL0     C46987   8.728   0.074   7.293 -0.4597  0.0246 -0.6546
  349MOL0     O46988   8.754  -0.002   7.411  0.3032 -0.5947 -0.3356
  349MOL0     C46989   8.730  -0.141   7.411 -0.9043 -0.4440 -0.3942
  349MOL0     C46990   8.770  -0.215   7.545  0.5037  0.4901  0.3151
  349MOL0     C46991   8.761  -0.364   7.518 -0.6157 -0.1111 -0.1095
  349MOL0     C46992   8.822  -0.454   7.619 -0.3794 -0.4948 -0.2067
  349MOL0     C46993   8.834  -0.598   7.560  0.4913  1.1866  0.0276
  349MOL0     C46994   8.885  -0.689   7.674 -1.4851 -0.0029  1.0217
  349MOL0     C46995   8.920  -0.833   7.627 -0.0630  0.2418  0.3468
  349MOL0     C46996   8.799  -0.918   7.617 -0.1282  0.6530  0.9391
  349MOL0     N46997   8.837  -1.052   7.588  0.9586  0.1061 -0.2032
  349MOL0     C46998   8.807  -1.102   7.460  0.6696 -0.6490  0.8821
  349MOL0     C46999   8.852  -1.228   7.470  0.2510  1.3923 -0.3925
  349MOL0     C47000   8.864  -1.306   7.348 -0.4169 -0.1942  0.6636
  349MOL0     C47001   8.971  -1.420   7.360 -0.3175 -0.1785 -0.7992
  349MOL0     C47002   8.980  -1.525   7.250  0.1081  0.1040 -0.0676
  349MOL0     C47003   9.051  -1.651   7.299  0.6048  0.2758  0.0870
  349MOL0     O47004   8.997  -1.758   7.219 -0.6612 -0.7393 -0.3417
  349MOL0     C47005   8.894  -1.832   7.267  0.2586  0.4501 -0.2958
  349MOL0     C47006   8.813  -1.884   7.167  0.6957  0.4635 -0.2432
  349MOL0     C47007   8.701  -1.962   7.205 -0.2869  0.3840 -0.2227
  349MOL0     C47008   8.698  -2.013   7.336  0.1508 -0.0882 -0.4688
  349MOL0     C47009   8.641  -2.136   7.367  0.6505 -0.4918 -0.6517
  349MOL0     O47010   8.588  -2.149   7.500 -0.3029 -0.0323  1.1813
  349MOL0     C47011   8.465  -2.219   7.523  0.4453 -0.1617 -0.4544
  349MOL0     C47012   8.411  -2.200   7.651  0.2988 -0.6197 -0.1722
  349MOL0     C47013   8.299  -2.267   7.691  0.3821 -1.1764  0.3949
  349MOL0     C47014   8.232  -2.360   7.608 -0.0230  0.0695 -0.9389
  349MOL0     O47015   8.132  -2.428   7.670  0.0046 -0.1393  0.5087
  349MOL0     C47016   8.037  -2.504   7.588  0.2290 -0.2004  0.0269
  349MOL0     C47017   7.943  -2.438   7.487  0.1250  0.0758 -0.7756
  349MOL0     C47018   7.861  -2.325   7.545 -0.1937 -0.2916  0.1908
  349MOL0     C47019   7.870  -2.197   7.456 -0.4310 -0.8404  0.4690
  349MOL0     C47020   7.994  -2.107   7.478  0.0817  0.1371  0.0332
  349MOL0     C47021   8.015  -2.036   7.603 -0.2454 -0.2752  0.0481
  349MOL0     C47022   8.136  -1.922   7.617  0.0558  0.7019 -0.1944
  349MOL0     C47023   8.183  -1.862   7.484  1.1079 -0.0220 -0.0391
  349MOL0    Cl47024   8.292  -1.973   7.385 -0.3677  0.1419 -0.1636
  349MOL0     C47025   8.287  -2.373   7.479 -0.2223 -0.3226  1.1019
  349MOL0     C47026   8.392  -2.296   7.432  0.1974  0.1652  1.2595
  349MOL0     O47027   8.633  -2.219   7.278  0.2545 -0.3188 -0.2472
  349MOL0     C47028   8.761  -1.947   7.437 -0.0103 -0.2237 -0.1608
  349MOL0     C47029   8.869  -1.858   7.402 -0.5748  0.6970 -0.3237
  349MOL0     N47030   8.930  -1.247   7.584  0.2178  0.8141 -1.0234
  349MOL0     N47031   8.929  -1.142   7.652  0.1150  0.1491  0.8483
  349MOL0     C47032   8.683   0.030   7.164  0.2094  0.8285 -0.2222
  349MOL0     C47033   8.649   0.121   7.076  0.9609  0.2931 -0.4749
  349MOL0     C47034   8.505   0.462   6.827 -0.0185  0.9363 -0.5685
  349MOL0     C47035   8.620   0.537   6.793  0.2072  0.3604 -0.5792
  349MOL0     C47036   8.603   0.660   6.728 -0.0699 -0.9574 -0.9880
  349MOL0     C47037   8.481   0.710   6.683 -0.1911  0.5293  0.6095
  349MOL0     O47038   8.486   0.827   6.607 -0.6164  0.1076  0.1452
  349MOL0     C47039   8.366   0.859   6.526 -0.2534  0.5361  0.3312
  349MOL0     C47040   8.258   0.909   6.617 -0.2772 -0.0841  0.0647
  349MOL0     C47041   8.170   1.008   6.547  0.1936  0.1919  0.4390
  349MOL0     C47042   8.075   0.960   6.443 -0.0065  0.0809 -0.5398
  349MOL0     C47043   8.001   0.834   6.478  0.0944  0.1308 -0.8545
  349MOL0     C47044   7.958   0.730   6.518 -0.4326  0.4412 -0.4893
  349MOL0     C47045   8.370   0.630   6.699  0.5098  0.6011 -0.0082
  349MOL0     C47046   8.380   0.522   6.789  0.6380  1.1766  0.2204
  349MOL0     C47047   8.246   0.470   6.836  0.4959  0.1669  0.7661
  349MOL0     H47048   8.742   0.400   7.241 -0.1390 -0.7344  1.8753
  349MOL0     H47049   8.816   0.230   7.398 -0.3691  0.2359 -0.6824
  349MOL0     H47050   8.622  -0.155   7.394 -0.9122  1.2828 -2.1762
  349MOL0     H47051   8.791  -0.189   7.334 -0.4128  0.6027 -0.6767
  349MOL0     H47052   8.696  -0.181   7.618 -1.5492  1.2809 -1.9941
  349MOL0     H47053   8.869  -0.176   7.570  0.2589  1.6267 -0.3689
  349MOL0     H47054   8.824  -0.369   7.429  3.2255  6.1150  1.6303
  349MOL0     H47055   8.658  -0.397   7.502 -0.1802 -1.3671 -0.3847
  349MOL0     H47056   8.924  -0.423   7.647 -0.4288 -0.4429 -0.0832
  349MOL0     H47057   8.752  -0.451   7.703 -1.5904 -3.1644 -1.0440
  349MOL0     H47058   8.735  -0.633   7.529  0.5251  0.1206  1.0540
  349MOL0     H47059   8.914  -0.589   7.486  1.7668  0.6197  1.2814
  349MOL0     H47060   8.984  -0.648   7.694  0.0327  0.1346 -4.9155
  349MOL0     H47061   8.821  -0.688   7.763 -1.2514  0.0195  1.1894
  349MOL0     H47062   8.976  -0.881   7.708 -1.7335  2.6926  3.1461
  349MOL0     H47063   8.975  -0.825   7.533  1.2613 -2.0561  0.8568
  349MOL0     H47064   8.732  -0.912   7.703 -1.0230  0.6210  0.2637
  349MOL0     H47065   8.736  -0.872   7.539  1.6754  2.0148  0.2076
  349MOL0     H47066   8.737  -1.057   7.390  1.8658  1.7341  1.1150
  349MOL0     H47067   8.769  -1.348   7.315  0.8103  0.0727 -3.7637
  349MOL0     H47068   8.894  -1.246   7.262 -1.1661  0.0260  0.5426
  349MOL0     H47069   9.066  -1.366   7.367 -1.9731  2.8618  0.4384
  349MOL0     H47070   8.968  -1.460   7.462 -2.1526  0.8193 -0.4210
  349MOL0     H47071   9.013  -1.499   7.149 -1.4689  2.4907 -0.0616
  349MOL0     H47072   8.874  -1.551   7.243 -0.2896  1.2596  1.1462
  349MOL0     H47073   9.043  -1.667   7.407  3.3690  2.6643  0.7807
  349MOL0     H47074   9.160  -1.652   7.284  0.7598 -0.4749  1.1380
  349MOL0     H47075   8.834  -1.858   7.063 -0.7346  1.1096 -0.3875
  349MOL0     H47076   8.635  -2.004   7.130 -2.1828 -3.3182  3.1742
  349MOL0     H47077   8.456  -2.139   7.728 -0.7181 -0.6216  0.4498
  349MOL0     H47078   8.266  -2.247   7.792  3.1598 -0.2335  1.2148
  349MOL0     H47079   8.096  -2.581   7.537 -0.4701 -0.3370 -0.6029
  349MOL0     H47080   7.985  -2.577   7.650  3.2131 -2.6651 -0.1252
  349MOL0     H47081   8.014  -2.404   7.410  2.1691 -1.7728  0.1640
  349MOL0     H47082   7.878  -2.519   7.455 -0.2099 -0.5426  1.3252
  349MOL0     H47083   7.759  -2.364   7.546  0.4646 -2.1419  2.0628
  349MOL0     H47084   7.886  -2.303   7.649  1.3819  3.3601 -0.8167
  349MOL0     H47085   7.777  -2.143   7.472 -0.6606 -1.2157  0.4229
  349MOL0     H47086   7.866  -2.217   7.348 -0.1618  2.1732 -0.1683
  349MOL0     H47087   7.974  -2.037   7.396 -2.7256  1.8026  1.9927
  349MOL0     H47088   8.085  -2.165   7.457 -0.1845 -0.9090  1.6222
  349MOL0     H47089   7.915  -2.002   7.632 -0.5567 -2.5431  1.9623
  349MOL0     H47090   8.051  -2.114   7.670 -0.5388 -3.0059 -2.7729
  349MOL0     H47091   8.223  -1.954   7.675 -0.7487 -1.4354 -0.0884
  349MOL0     H47092   8.093  -1.853   7.691  1.6467  0.3586  1.1118
  349MOL0     H47093   8.104  -1.835   7.414  2.8951 -0.6271 -2.4071
  349MOL0     H47094   8.235  -1.770   7.510  1.0546  0.2676 -0.9305
  349MOL0     H47095   8.252  -2.451   7.413 -0.0866 -0.3053  1.0086
  349MOL0     H47096   8.438  -2.324   7.338  2.2012 -1.1923  2.5600
  349MOL0     H47097   8.757  -1.976   7.541  2.7772 -0.8777 -0.1481
  349MOL0     H47098   8.939  -1.834   7.482  1.1237 -0.7771 -1.2987
  349MOL0     H47099   8.661  -0.073   7.136  2.4454  0.1101  0.4518
  349MOL0     H47100   8.597   0.086   6.987 -1.4442  0.3476  0.8315
  349MOL0     H47101   8.721   0.512   6.822  0.0279  2.1997  1.9199
  349MOL0     H47102   8.692   0.715   6.698 -0.6962 -0.0554 -1.2643
  349MOL0     H47103   8.326   0.774   6.470 -2.0475  1.1378  0.6146
  349MOL0     H47104   8.403   0.934   6.455 -1.7969  2.4644  1.4603
  349MOL0     H47105   8.309   0.962   6.698  3.4405 -3.4250  0.2295
  349MOL0     H47106   8.200   0.829   6.663  0.8156 -1.3500 -0.6878
  349MOL0     H47107   8.222   1.097   6.509  0.0526  1.4459  2.9787
  349MOL0     H47108   8.106   1.045   6.627 -0.4524  1.0743 -0.4500
  349MOL0     H47109   7.999   1.037   6.426 -0.4454  0.0701  1.2288
  349MOL0     H47110   8.137   0.938   6.355 -0.0050  0.1287 -0.5500
  349MOL0     H47111   7.937   0.648   6.584  1.0769 -0.3141 -0.9048
  349MOL0     H47112   8.271   0.644   6.657  0.1488 -2.4483 -0.3917
  349MOL0     H47113   8.234   0.363   6.820  2.7556  0.1072 -1.0569
  349MOL0     H47114   8.244   0.494   6.943 -0.0519 -2.0014  1.2882
  349MOL0     H47115   8.157   0.515   6.791 -0.8203 -1.2209  1.8976
  350MOL0     O47116   4.143   9.470   9.349 -0.2562 -0.8555 -0.7057
  350MOL0     C47117   4.235   9.455   9.262  0.8465 -0.3580  0.2545
  350MOL0     O47118   4.310   9.338   9.242 -0.0286 -0.0122 -0.4714
  350MOL0     C47119   4.279   9.227   9.318  1.0248  0.3712 -0.5106
  350MOL0     C47120   4.288   9.224   9.457  0.0243  0.9869 -1.5538
  350MOL0     C47121   4.247   9.111   9.537  0.0944 -0.8109  0.6191
  350MOL0     C47122   4.189   8.994   9.485 -0.3252 -0.8639  0.0145
  350MOL0     O47123   4.133   8.893   9.565  0.2553 -0.7057  0.1030
  350MOL0     C47124   4.032   8.817   9.501 -0.1124  1.0440 -0.1427
  350MOL0     C47125   3.966   8.735   9.612 -0.1664  0.5210  0.4536
  350MOL0     C47126   3.849   8.648   9.565  0.2283  0.4241 -0.3693
  350MOL0     C47127   3.757   8.620   9.689 -0.0496  0.4230  0.5165
  350MOL0     C47128   3.822   8.520   9.796  0.6047  0.4517 -0.3340
  350MOL0     C47129   3.754   8.526   9.922  0.2420 -0.0587 -0.1571
  350MOL0     C47130   3.840   8.452  10.027 -1.5974  0.4054 -0.3458
  350MOL0     C47131   3.788   8.456  10.170  0.1106 -0.2916 -1.1131
  350MOL0     N47132   3.784   8.322  10.230 -0.9562 -0.4653 -1.0727
  350MOL0     C47133   3.888   8.273  10.314  0.7299 -0.5362  0.9835
  350MOL0     C47134   3.827   8.164  10.374 -0.9641  0.5747 -0.5083
  350MOL0     C47135   3.879   8.051  10.456 -0.9826 -0.0803  0.3971
  350MOL0     C47136   3.943   7.941  10.366  0.6610  0.3249 -0.2053
  350MOL0     C47137   4.093   7.941  10.349  0.3427 -0.0154 -0.5647
  350MOL0     C47138   4.124   7.846  10.227 -0.3491 -0.2958  0.2615
  350MOL0     O47139   4.265   7.852  10.202  0.8303 -0.1548 -0.0337
  350MOL0     C47140   4.342   7.767  10.278 -0.2644 -0.6214 -0.2098
  350MOL0     C47141   4.476   7.769  10.245  0.1175 -0.1091 -0.4963
  350MOL0     C47142   4.564   7.690  10.313 -0.2044 -0.8470  0.5796
  350MOL0     C47143   4.531   7.606  10.417 -0.1712  0.7159  0.2904
  350MOL0     C47144   4.634   7.528  10.483  0.3679 -0.5185 -0.2936
  350MOL0     O47145   4.768   7.535  10.436  0.0507  0.8757 -0.4863
  350MOL0     C47146   4.872   7.480  10.508 -0.0569  0.2678  0.5456
  350MOL0     C47147   4.964   7.400  10.438 -0.6267 -0.3615  0.5675
  350MOL0     C47148   5.070   7.349  10.507 -0.7675  0.5161 -0.0670
  350MOL0     C47149   5.097   7.377  10.643  0.0454 -1.4234  0.8762
  350MOL0     O47150   5.205   7.327  10.709  0.1296  0.0529 -0.9887
  350MOL0     C47151   5.326   7.388  10.669 -0.5007 -0.5009  1.0625
  350MOL0     C47152   5.434   7.305  10.725  0.6658 -0.0099  0.0266
  350MOL0     C47153   5.443   7.154  10.676  0.3658  0.1567  0.6977
  350MOL0     C47154   5.527   7.152  10.548  0.4996  0.3373  0.4151
  350MOL0     C47155   5.545   7.024  10.462  0.1060  0.1379 -1.1769
  350MOL0     C47156   5.402   6.962  10.442  0.2722  0.2880 -0.1222
  350MOL0     C47157   5.424   6.831  10.368  0.1013 -0.0034  0.6447
  350MOL0     C47158   5.310   6.725  10.390 -0.4391 -0.2565  0.4544
  350MOL0    Cl47159   5.356   6.582  10.320 -0.0834  0.1864 -0.1571
  350MOL0     C47160   5.000   7.456  10.709 -0.3315 -0.3703  0.4929
  350MOL0     C47161   4.889   7.505  10.643 -0.4751 -0.1553 -0.5708
  350MOL0     O47162   4.597   7.480  10.593  1.2541  0.1305  0.4630
  350MOL0     C47163   4.398   7.599  10.450  0.3344  1.0248  0.4634
  350MOL0     C47164   4.303   7.676  10.381  0.1654 -1.3921  0.0031
  350MOL0     N47165   3.696   8.152  10.316  0.5987 -0.1600  0.1732
  350MOL0     N47166   3.676   8.244  10.232  0.1680 -0.0981  0.9354
  350MOL0     C47167   4.175   9.005   9.338 -0.1631  0.2619 -0.7613
  350MOL0     C47168   4.217   9.122   9.261  1.2082  0.7588 -0.3398
  350MOL0     C47169   4.274   9.581   9.176  0.9394  0.4889 -0.8973
  350MOL0     C47170   4.255   9.705   9.241  0.2672 -0.4897  0.7819
  350MOL0     C47171   4.290   9.817   9.173 -0.3115 -0.9651 -0.3480
  350MOL0     C47172   4.358   9.818   9.052 -2.0528 -0.0723 -0.3881
  350MOL0     O47173   4.390   9.945   8.998 -0.2270 -0.4884  0.3522
  350MOL0     C47174   4.516   9.960   8.940 -0.2892 -0.3832 -0.1077
  350MOL0     C47175   4.569  10.103   8.966 -0.3992  0.1659  0.1889
  350MOL0     C47176   4.676  10.118   9.076 -0.1707  1.0146  0.4129
  350MOL0     C47177   4.758  10.248   9.068 -0.1638 -0.1476 -0.3869
  350MOL0     C47178   4.662  10.361   9.053 -0.2646 -0.9080 -0.3259
  350MOL0     C47179   4.594  10.458   9.058  0.7334 -0.6045  0.3362
  350MOL0     C47180   4.386   9.693   8.993  0.6195  1.1193  0.8276
  350MOL0     C47181   4.339   9.574   9.052 -0.6645  0.4487 -0.6296
  350MOL0     C47182   4.342   9.450   8.968  0.4388 -0.0823  0.8686
  350MOL0     H47183   4.321   9.308   9.516 -0.6933  1.2087 -1.4621
  350MOL0     H47184   4.251   9.120   9.645 -0.4229 -1.4008  0.6930
  350MOL0     H47185   3.950   8.873   9.454 -0.3193  0.3479 -0.6337
  350MOL0     H47186   4.070   8.742   9.431 -0.2369 -0.5270  1.4032
  350MOL0     H47187   3.940   8.803   9.694  1.2124  0.3914  1.0349
  350MOL0     H47188   4.038   8.657   9.641  1.3810  1.1831 -1.4256
  350MOL0     H47189   3.882   8.556   9.514  0.6093 -0.6931  1.7806
  350MOL0     H47190   3.788   8.701   9.491 -0.8842  0.5549  0.6052
  350MOL0     H47191   3.734   8.717   9.734 -2.9058  0.2219 -0.3208
  350MOL0     H47192   3.659   8.586   9.654  1.2654 -0.4206 -2.6890
  350MOL0     H47193   3.834   8.420   9.752 -0.1983  0.7359 -1.2197
  350MOL0     H47194   3.915   8.569   9.824  0.2750  1.8506 -1.6069
  350MOL0     H47195   3.732   8.629   9.951  0.3192 -0.5778  1.8859
  350MOL0     H47196   3.656   8.476   9.925  1.2615 -2.1464  0.8536
  350MOL0     H47197   3.941   8.492  10.035 -0.0023 -3.1296 -0.8258
  350MOL0     H47198   3.873   8.350  10.004  2.1566  0.8816  2.0234
  350MOL0     H47199   3.837   8.531  10.232 -2.3834 -0.4707  1.2375
  350MOL0     H47200   3.686   8.494  10.177  0.1837 -0.1295 -0.9182
  350MOL0     H47201   3.987   8.312  10.335  1.2179 -2.2724  2.0821
  350MOL0     H47202   3.952   8.097  10.522  1.6960  1.5896 -3.3257
  350MOL0     H47203   3.798   8.001  10.509 -0.4025 -0.1712  1.2204
  350MOL0     H47204   3.903   7.844  10.395  0.6202  0.4908  0.2935
  350MOL0     H47205   3.887   7.945  10.271  0.8721 -2.9667 -0.5790
  350MOL0     H47206   4.141   7.909  10.443 -1.1745 -3.8066 -0.8859
  350MOL0     H47207   4.120   8.045  10.333  2.4922 -0.2617  0.9500
  350MOL0     H47208   4.069   7.868  10.136 -0.8261  0.7363  0.7787
  350MOL0     H47209   4.099   7.741  10.246  1.0817 -1.3436 -2.9740
  350MOL0     H47210   4.483   7.832  10.157 -2.8028 -2.9053 -3.0040
  350MOL0     H47211   4.670   7.696  10.291 -0.3974  0.1400 -0.1214
  350MOL0     H47212   4.950   7.377  10.332  0.9957 -0.5075  0.3578
  350MOL0     H47213   5.136   7.275  10.460 -1.9700 -2.1144  2.0997
  350MOL0     H47214   5.327   7.387  10.560 -0.5696 -2.3461  1.0391
  350MOL0     H47215   5.341   7.489  10.708  0.7452 -0.3175  0.1692
  350MOL0     H47216   5.529   7.355  10.702  0.4359  0.4864  0.1506
  350MOL0     H47217   5.419   7.300  10.834 -2.0269  0.8172 -0.2519
  350MOL0     H47218   5.487   7.110  10.766  0.3260 -0.8571  0.2295
  350MOL0     H47219   5.342   7.113  10.670 -0.0265  1.2003 -0.2114
  350MOL0     H47220   5.629   7.180  10.573 -0.2974  0.9232  3.4183
  350MOL0     H47221   5.477   7.221  10.480  1.5159 -0.4276 -1.1759
  350MOL0     H47222   5.617   6.957  10.511  0.4496  0.2285 -1.5577
  350MOL0     H47223   5.583   7.046  10.362  0.2248  0.6402 -1.0253
  350MOL0     H47224   5.342   6.942  10.531  0.1987  0.2822 -0.1736
  350MOL0     H47225   5.348   7.037  10.384  0.6073  0.3796 -0.3162
  350MOL0     H47226   5.518   6.788  10.404  1.8644  2.9977  0.0078
  350MOL0     H47227   5.437   6.849  10.261 -0.3789 -4.0874 -0.2383
  350MOL0     H47228   5.299   6.709  10.498 -0.5182 -0.1676  0.4603
  350MOL0     H47229   5.217   6.747  10.337  1.1799  1.3521 -1.9288
  350MOL0     H47230   5.002   7.469  10.817  1.0415 -1.0249  0.5555
  350MOL0     H47231   4.818   7.555  10.709 -0.1829  0.3128 -0.6097
  350MOL0     H47232   4.367   7.519  10.516 -0.7167  0.4746 -0.6619
  350MOL0     H47233   4.198   7.670  10.406  0.2948 -1.7334  0.4965
  350MOL0     H47234   4.116   8.922   9.300  0.4685 -1.6409  2.1191
  350MOL0     H47235   4.171   9.122   9.163  0.5282  2.8277 -0.0438
  350MOL0     H47236   4.222   9.699   9.344  0.9387 -0.5132  1.0020
  350MOL0     H47237   4.273   9.913   9.222  0.1241 -1.4486  0.7891
  350MOL0     H47238   4.489   9.951   8.835  0.1493 -1.1082 -0.1678
  350MOL0     H47239   4.587   9.882   8.969  0.3718 -0.2449 -1.2776
  350MOL0     H47240   4.482  10.161   9.000  0.9331  0.9217  2.5230
  350MOL0     H47241   4.602  10.152   8.874  2.7486 -0.1963  1.0145
  350MOL0     H47242   4.739  10.030   9.057 -1.1899  0.4908 -0.7322
  350MOL0     H47243   4.621  10.114   9.170 -1.8381 -1.8070 -0.5317
  350MOL0     H47244   4.828  10.257   9.152  1.3759  1.6705 -1.7728
  350MOL0     H47245   4.835  10.248   8.990  2.6094  1.8568  2.1129
  350MOL0     H47246   4.544  10.552   9.072  0.1317 -0.6777 -1.1285
  350MOL0     H47247   4.435   9.689   8.896  2.4027  2.1726  1.6228
  350MOL0     H47248   4.405   9.447   8.879 -0.2247 -0.8607  0.4093
  350MOL0     H47249   4.370   9.355   9.014  0.3511 -0.1573  0.7707
  350MOL0     H47250   4.242   9.442   8.923  1.0349  0.7990 -0.6822
  351MOL0     O47251   4.511   9.773   0.196 -0.0047  0.4880  0.2049
  351MOL0     C47252   4.568   9.781   0.305 -0.2169 -0.3598  1.2721
  351MOL0     O47253   4.544   9.695   0.411 -0.4462  0.4058  0.5601
  351MOL0     C47254   4.414   9.698   0.463  0.6232  0.4499 -1.2726
  351MOL0     C47255   4.393   9.758   0.586  1.2582 -0.4463 -0.9243
  351MOL0     C47256   4.267   9.787   0.631 -0.2923 -0.4753  0.0156
  351MOL0     C47257   4.156   9.747   0.569 -0.3845 -0.3147  0.1601
  351MOL0     O47258   4.035   9.778   0.631  0.1580 -0.5611  0.0836
  351MOL0     C47259   3.915   9.783   0.542 -0.7448  0.4406 -0.0202
  351MOL0     C47260   3.808   9.883   0.601 -1.0735 -0.0855  0.7325
  351MOL0     C47261   3.733   9.831   0.726 -1.0079 -0.8062  0.0479
  351MOL0     C47262   3.706   9.928   0.832  0.3959 -0.3537 -0.6264
  351MOL0     C47263   3.622   9.866   0.942 -0.1635 -0.5969 -0.2540
  351MOL0     C47264   3.474   9.905   0.944 -0.2498 -0.6323  0.4979
  351MOL0     C47265   3.406   9.877   1.075  0.2540  0.2654 -0.1425
  351MOL0     C47266   3.317   9.748   1.062  0.8000 -0.6238  0.2464
  351MOL0     N47267   3.379   9.632   0.997 -0.1869 -0.3934  0.0630
  351MOL0     C47268   3.457   9.545   1.064 -0.1971 -0.4634  0.1937
  351MOL0     C47269   3.501   9.461   0.974 -0.9742  0.1522  0.4265
  351MOL0     C47270   3.586   9.339   0.990  0.5478 -0.1005 -0.3101
  351MOL0     C47271   3.734   9.372   0.958  0.6918  0.0604  0.2972
  351MOL0     C47272   3.775   9.436   0.817  0.4026  0.2291 -0.4860
  351MOL0     C47273   3.930   9.455   0.816  0.2197  0.6775  0.4751
  351MOL0     O47274   4.002   9.321   0.812 -0.8781 -0.0702 -0.6712
  351MOL0     C47275   4.124   9.307   0.762  0.7830  0.0393  1.2201
  351MOL0     C47276   4.210   9.416   0.750 -0.1586 -0.3783  0.1087
  351MOL0     C47277   4.336   9.400   0.687  0.2041  0.9178 -0.9022
  351MOL0     C47278   4.366   9.263   0.654 -0.4268  0.1186 -0.2850
  351MOL0     C47279   4.496   9.231   0.589  0.1398 -0.9542 -0.5376
  351MOL0     O47280   4.557   9.111   0.602 -0.0363 -0.5369  0.8916
  351MOL0     C47281   4.685   9.084   0.543  0.7608 -0.2970 -0.7504
  351MOL0     C47282   4.738   8.955   0.572  0.2373  0.3021  0.1263
  351MOL0     C47283   4.857   8.916   0.514  0.1745  0.1569 -1.0500
  351MOL0     C47284   4.925   8.994   0.431  0.4141 -0.7153  1.2371
  351MOL0     O47285   5.046   8.953   0.384  0.5741 -0.0835  0.3560
  351MOL0     C47286   5.165   9.019   0.438  0.1674 -0.4005  0.0805
  351MOL0     C47287   5.194   8.976   0.580 -0.5237 -0.1942  0.8057
  351MOL0     C47288   5.295   8.859   0.568 -0.6043  0.5071 -0.1552
  351MOL0     C47289   5.301   8.774   0.699  0.3236  0.6561  0.3479
  351MOL0     C47290   5.389   8.643   0.686 -0.9181 -1.1109 -0.1145
  351MOL0     C47291   5.402   8.584   0.827  0.1389  0.1457  0.4956
  351MOL0     C47292   5.287   8.483   0.866 -0.1160 -0.3189  0.3585
  351MOL0     C47293   5.321   8.391   0.988 -0.3281  0.6956  0.4616
  351MOL0    Cl47294   5.341   8.486   1.144 -0.0620 -0.2044  0.2295
  351MOL0     C47295   4.860   9.114   0.387 -0.5021 -0.0052  0.1586
  351MOL0     C47296   4.747   9.164   0.445  0.1464  0.7641  0.3594
  351MOL0     O47297   4.540   9.329   0.531  0.8578 -0.3432  1.0610
  351MOL0     C47298   4.278   9.150   0.676  0.1466 -0.4276  0.7719
  351MOL0     C47299   4.154   9.175   0.728 -0.9223 -0.7697  0.2749
  351MOL0     N47300   3.456   9.493   0.850  0.0134  0.6957 -0.2016
  351MOL0     N47301   3.379   9.593   0.870 -0.1163  0.8853  0.0470
  351MOL0     C47302   4.168   9.678   0.452 -1.4082  0.5924  1.0320
  351MOL0     C47303   4.301   9.652   0.397 -0.9926  0.2526 -0.1298
  351MOL0     C47304   4.694   9.868   0.303 -0.4037  0.5434 -0.5769
  351MOL0     C47305   4.796   9.842   0.396 -0.8103  0.8393 -0.0371
  351MOL0     C47306   4.919   9.913   0.404  0.7677 -0.4414 -0.3887
  351MOL0     C47307   4.941  10.008   0.304 -0.0734 -0.1233 -0.1976
  351MOL0     O47308   5.064  10.071   0.312  0.7247  0.2104  0.0787
  351MOL0     C47309   5.078  10.212   0.287  0.7436  0.4337  0.4842
  351MOL0     C47310   5.221  10.251   0.279  0.3651 -0.2407 -0.0661
  351MOL0     C47311   5.291  10.208   0.159  0.9390 -0.3638  0.7387
  351MOL0     C47312   5.438  10.261   0.148 -0.1577 -0.7844 -0.4116
  351MOL0     C47313   5.494  10.229   0.018  0.5026  0.6169  0.2955
  351MOL0     C47314   5.559  10.206  -0.087  0.6651  0.8240 -0.0651
  351MOL0     C47315   4.839  10.028   0.202  0.1750 -1.0227 -0.1184
  351MOL0     C47316   4.721   9.966   0.201  0.0829  0.1946  0.2491
  351MOL0     C47317   4.622  10.027   0.105  1.2983 -0.9429 -0.8202
  351MOL0     H47318   4.476   9.803   0.640  2.5526 -0.8904 -2.4628
  351MOL0     H47319   4.236   9.840   0.721 -0.1294 -0.7045  0.2071
  351MOL0     H47320   3.942   9.812   0.440  1.5949  2.0130  0.9618
  351MOL0     H47321   3.873   9.682   0.534 -1.2942  0.5335  1.3668
  351MOL0     H47322   3.735   9.916   0.527  0.3753  2.3395  0.2852
  351MOL0     H47323   3.869   9.969   0.630 -0.5682 -1.0303  2.7168
  351MOL0     H47324   3.795   9.752   0.769  0.7710  0.5797  0.1258
  351MOL0     H47325   3.644   9.785   0.682  1.3601 -6.2653  0.2126
  351MOL0     H47326   3.801   9.969   0.868 -1.9199  2.3219  3.1682
  351MOL0     H47327   3.651  10.018   0.804  2.1810  0.9004 -0.2658
  351MOL0     H47328   3.631   9.757   0.950  3.6449 -0.3599  0.3518
  351MOL0     H47329   3.664   9.914   1.031  0.0407 -3.2586  1.1910
  351MOL0     H47330   3.470  10.014   0.934 -2.0363 -0.7026  0.0056
  351MOL0     H47331   3.427   9.864   0.853  1.2994  2.0839 -1.6977
  351MOL0     H47332   3.335   9.956   1.101 -1.8529 -1.4878 -0.2919
  351MOL0     H47333   3.470   9.867   1.163 -0.2894 -0.3549  0.1935
  351MOL0     H47334   3.274   9.718   1.158  0.8936 -0.7551  0.2478
  351MOL0     H47335   3.235   9.764   0.991  1.8880  0.9956 -0.7077
  351MOL0     H47336   3.476   9.524   1.169 -0.1495 -3.1463 -0.2609
  351MOL0     H47337   3.570   9.305   1.093 -1.9073  0.3073 -0.4955
  351MOL0     H47338   3.553   9.260   0.922  0.7121 -1.0556  0.6995
  351MOL0     H47339   3.764   9.438   1.040 -1.4037  3.0153 -1.1252
  351MOL0     H47340   3.797   9.282   0.966 -0.2250 -0.6950 -0.7328
  351MOL0     H47341   3.719   9.529   0.822 -2.0632 -1.0164  6.2865
  351MOL0     H47342   3.735   9.376   0.735  0.2388 -1.0449  0.4883
  351MOL0     H47343   3.965   9.503   0.908 -0.6822  1.6164  0.3428
  351MOL0     H47344   3.952   9.519   0.731 -3.8805  2.8950  0.8422
  351MOL0     H47345   4.184   9.514   0.790 -1.3712 -0.0518 -1.3809
  351MOL0     H47346   4.396   9.490   0.682 -0.5417  1.4451 -0.4119
  351MOL0     H47347   4.683   8.886   0.636  1.2896  0.2205  0.9781
  351MOL0     H47348   4.907   8.823   0.539 -2.1419 -0.7804  0.4332
  351MOL0     H47349   5.241   9.008   0.360 -0.0873 -2.5328  0.0764
  351MOL0     H47350   5.148   9.127   0.434 -0.5135 -0.3175  2.9498
  351MOL0     H47351   5.231   9.055   0.645  0.2096  0.6485 -0.5984
  351MOL0     H47352   5.098   8.945   0.624 -0.7568 -1.4794 -0.5425
  351MOL0     H47353   5.282   8.792   0.484 -0.0008  0.1808  0.0070
  351MOL0     H47354   5.394   8.905   0.553 -1.2843  2.2782  0.4442
  351MOL0     H47355   5.197   8.750   0.724 -0.2360 -0.7214 -2.7912
  351MOL0     H47356   5.337   8.841   0.777 -0.1372  2.0208 -0.5729
  351MOL0     H47357   5.493   8.670   0.662 -1.9837  0.9462 -2.9478
  351MOL0     H47358   5.349   8.568   0.618 -2.0274 -1.1525  0.5518
  351MOL0     H47359   5.499   8.535   0.831  2.8260  4.8668  0.3794
  351MOL0     H47360   5.385   8.661   0.903 -1.1718 -2.2672  2.8487
  351MOL0     H47361   5.276   8.425   0.773 -0.7820 -0.2387  0.3821
  351MOL0     H47362   5.202   8.548   0.888  1.7453  1.5300  2.6070
  351MOL0     H47363   5.229   8.334   1.005  0.7038 -0.7696  1.3647
  351MOL0     H47364   5.405   8.323   0.975  0.5667  2.2384 -2.8666
  351MOL0     H47365   4.913   9.162   0.305 -2.0386  3.3241  0.9383
  351MOL0     H47366   4.709   9.259   0.407 -3.0302  1.1061  3.8348
  351MOL0     H47367   4.299   9.046   0.653 -1.6144 -0.3255 -1.6043
  351MOL0     H47368   4.079   9.097   0.723 -2.5604  0.7260  0.7447
  351MOL0     H47369   4.084   9.654   0.388  0.0476  0.9577 -1.1333
  351MOL0     H47370   4.322   9.624   0.295 -0.2232  3.6246 -1.0126
  351MOL0     H47371   4.789   9.766   0.474 -1.0324  1.4784  0.5805
  351MOL0     H47372   5.004   9.899   0.470 -1.9550 -3.1225  2.9880
  351MOL0     H47373   5.032  10.266   0.370  0.5698  2.8788 -1.1040
  351MOL0     H47374   5.034  10.251   0.194 -2.0730 -2.7536  0.3105
  351MOL0     H47375   5.266  10.217   0.373 -0.5989  2.4986  1.5137
  351MOL0     H47376   5.225  10.360   0.272 -0.0117 -0.1806  0.6352
  351MOL0     H47377   5.241  10.243   0.068 -0.0283 -1.4315  0.8424
  351MOL0     H47378   5.297  10.100   0.172  1.0436 -0.6928 -1.5733
  351MOL0     H47379   5.457  10.368   0.165  0.6884 -1.1060  0.8314
  351MOL0     H47380   5.486  10.203   0.227  0.6993 -1.3656 -1.3311
  351MOL0     H47381   5.607  10.193  -0.182 -3.7427  2.3766 -2.7986
  351MOL0     H47382   4.845  10.119   0.144 -0.3585  1.6473  3.6432
  351MOL0     H47383   4.527  10.039   0.157  1.8321  0.5415 -0.1290
  351MOL0     H47384   4.660  10.126   0.077  3.4229 -1.5643 -0.3146
  351MOL0     H47385   4.582   9.969   0.021  0.1184 -0.5430 -0.5509
  352MOL0     O47386   6.260   0.940   9.434 -0.2066 -0.2054  0.4735
  352MOL0     C47387   6.360   0.880   9.469 -0.2282 -1.0063 -0.4213
  352MOL0     O47388   6.494   0.932   9.450 -0.6276  0.9386  0.8864
  352MOL0     C47389   6.500   1.067   9.452 -0.0219 -0.7073 -0.4743
  352MOL0     C47390   6.426   1.156   9.539  0.4278 -0.5917  0.6025
  352MOL0     C47391   6.411   1.292   9.515 -0.6597 -0.7387 -0.4774
  352MOL0     C47392   6.486   1.347   9.409 -0.1863 -0.0326  0.3456
  352MOL0     O47393   6.481   1.482   9.395 -0.8688 -0.2056 -0.0398
  352MOL0     C47394   6.533   1.557   9.274 -0.0133 -0.7931  0.4995
  352MOL0     C47395   6.475   1.703   9.278 -0.6964  1.0713  1.0116
  352MOL0     C47396   6.325   1.693   9.256  0.5180  0.2627 -0.1859
  352MOL0     C47397   6.270   1.831   9.230  0.7282  0.6125  0.1177
  352MOL0     C47398   6.124   1.837   9.172 -0.5198 -0.6068 -0.6551
  352MOL0     C47399   6.067   1.973   9.191 -0.3339 -1.0512  0.9667
  352MOL0     C47400   5.912   1.958   9.165 -0.5628  0.4127 -0.0134
  352MOL0     C47401   5.864   2.061   9.057  0.7442  1.0098  0.1035
  352MOL0     N47402   5.739   2.005   9.002  0.0040 -0.1007 -0.1914
  352MOL0     C47403   5.610   2.059   9.015  0.0123 -0.8464 -0.5351
  352MOL0     C47404   5.541   1.991   8.920  0.2743 -0.3654 -0.3732
  352MOL0     C47405   5.396   2.007   8.897 -0.2549 -0.1723 -0.2989
  352MOL0     C47406   5.326   1.871   8.873 -0.0335 -0.4906 -0.2960
  352MOL0     C47407   5.169   1.878   8.861 -0.1601  0.3252  1.1215
  352MOL0     C47408   5.094   1.743   8.869  0.2837 -0.2326 -1.5711
  352MOL0     O47409   5.117   1.653   8.760  0.3321  0.4393  0.3333
  352MOL0     C47410   5.024   1.572   8.705  2.0823 -0.0306 -0.2299
  352MOL0     C47411   5.063   1.479   8.613  0.1556  1.0725  0.1961
  352MOL0     C47412   4.981   1.401   8.530 -0.4553  0.1725  0.3350
  352MOL0     C47413   4.840   1.424   8.535 -0.6396 -0.2046 -0.3664
  352MOL0     C47414   4.749   1.345   8.443 -0.2103  0.3701 -0.5297
  352MOL0     O47415   4.814   1.287   8.342 -0.2407  0.2858  0.0776
  352MOL0     C47416   4.722   1.211   8.273  0.6841  0.6931  0.1722
  352MOL0     C47417   4.642   1.279   8.177 -0.6279 -0.5307  0.2974
  352MOL0     C47418   4.537   1.211   8.109 -0.8465 -0.8372  0.1931
  352MOL0     C47419   4.510   1.081   8.142 -0.3489 -0.1466 -0.0250
  352MOL0     O47420   4.393   1.020   8.117 -0.0166 -0.2905  0.2047
  352MOL0     C47421   4.402   0.906   8.024  0.3959 -0.5580  0.3867
  352MOL0     C47422   4.253   0.850   8.017 -1.2888 -0.9696  0.0802
  352MOL0     C47423   4.238   0.716   7.956 -1.2958  0.2087 -0.2745
  352MOL0     C47424   4.097   0.651   7.965 -0.4882  0.5798 -0.5403
  352MOL0     C47425   3.994   0.740   7.882  0.1747  1.0461  0.6590
  352MOL0     C47426   3.945   0.661   7.759 -0.3030  0.2607 -0.0651
  352MOL0     C47427   4.051   0.650   7.650 -0.2186 -1.1282 -0.6517
  352MOL0     C47428   4.001   0.621   7.513 -0.1446  0.3294 -0.2100
  352MOL0    Cl47429   4.122   0.614   7.380 -0.0538 -0.0144  0.3394
  352MOL0     C47430   4.595   1.016   8.222 -0.0284 -0.1908 -0.1754
  352MOL0     C47431   4.699   1.075   8.288  0.5784 -0.3301 -0.6119
  352MOL0     O47432   4.634   1.341   8.479  0.7530 -1.1827 -0.3400
  352MOL0     C47433   4.792   1.511   8.635  0.2318 -0.3836 -0.2578
  352MOL0     C47434   4.885   1.584   8.727  0.8956  0.8714 -0.5600
  352MOL0     N47435   5.616   1.900   8.851 -0.9152 -0.2145  0.1347
  352MOL0     N47436   5.737   1.908   8.903  1.1165 -0.2277  0.5135
  352MOL0     C47437   6.576   1.259   9.341 -0.4781  0.3479 -0.4744
  352MOL0     C47438   6.572   1.128   9.358 -0.2847  0.0748 -0.1424
  352MOL0     C47439   6.336   0.737   9.509 -0.0171 -0.2490  0.3969
  352MOL0     C47440   6.300   0.631   9.415  0.0239 -0.6287  1.3685
  352MOL0     C47441   6.267   0.502   9.447  0.1500 -0.5291  0.2136
  352MOL0     C47442   6.262   0.468   9.586 -0.2485 -0.6829  0.8682
  352MOL0     O47443   6.226   0.338   9.606  0.6409  0.5530 -0.0478
  352MOL0     C47444   6.165   0.311   9.732 -0.3268 -0.2367  0.6659
  352MOL0     C47445   6.120   0.160   9.726  0.6706  0.3305 -0.1659
  352MOL0     C47446   6.242   0.064   9.730  0.2102 -0.8515 -0.3467
  352MOL0     C47447   6.199  -0.078   9.722  0.9145  0.5396 -0.1186
  352MOL0     C47448   6.319  -0.164   9.698 -0.5982  0.1134  0.7578
  352MOL0     C47449   6.420  -0.229   9.664  0.3961  0.0419 -0.6280
  352MOL0     C47450   6.280   0.569   9.677 -0.6417  0.3971 -0.1912
  352MOL0     C47451   6.327   0.699   9.645 -0.5912 -0.4526 -0.0881
  352MOL0     C47452   6.352   0.804   9.752 -0.3376  0.7346 -1.3554
  352MOL0     H47453   6.377   1.115   9.627 -0.1512 -0.4230  0.3566
  352MOL0     H47454   6.360   1.349   9.592  0.1647 -0.7991  0.1269
  352MOL0     H47455   6.640   1.556   9.297  0.2066 -0.7613 -0.5030
  352MOL0     H47456   6.508   1.512   9.178  0.2776  0.3395 -0.1231
  352MOL0     H47457   6.514   1.769   9.201 -2.1843 -1.1883 -1.8648
  352MOL0     H47458   6.494   1.747   9.377 -0.3859  1.7261  0.6668
  352MOL0     H47459   6.274   1.669   9.350 -1.2115  2.8266 -0.3596
  352MOL0     H47460   6.290   1.612   9.192 -1.3115  1.2327 -0.4782
  352MOL0     H47461   6.268   1.884   9.326 -2.6037  0.6156  0.1442
  352MOL0     H47462   6.328   1.882   9.153  0.9500  0.6443  0.3041
  352MOL0     H47463   6.139   1.808   9.068 -0.2039 -1.4244 -0.3897
  352MOL0     H47464   6.065   1.755   9.215 -2.0216  0.5579 -0.4164
  352MOL0     H47465   6.082   1.999   9.296  0.8325  1.6524  0.2168
  352MOL0     H47466   6.102   2.052   9.124 -1.2080 -1.5888 -0.1641
  352MOL0     H47467   5.853   1.975   9.256 -3.8065 -2.0635 -1.4769
  352MOL0     H47468   5.891   1.854   9.140  3.8918 -0.6900 -0.1323
  352MOL0     H47469   5.838   2.155   9.104 -4.3623 -1.6697  3.5707
  352MOL0     H47470   5.940   2.084   8.982  0.7138 -1.8522 -0.9585
  352MOL0     H47471   5.577   2.141   9.078 -0.2156  0.0688 -1.8035
  352MOL0     H47472   5.355   2.054   8.986  0.5596 -0.5360  0.2803
  352MOL0     H47473   5.363   2.074   8.817 -0.8310  2.3894  1.9565
  352MOL0     H47474   5.359   1.837   8.775  3.6961 -0.9498  0.9739
  352MOL0     H47475   5.354   1.798   8.949  0.9430 -0.5730 -0.7283
  352MOL0     H47476   5.154   1.930   8.766  4.3726 -0.6454 -0.3497
  352MOL0     H47477   5.129   1.944   8.939 -3.2695 -0.7553  0.6107
  352MOL0     H47478   4.988   1.771   8.876 -0.1218 -1.9354  0.1365
  352MOL0     H47479   5.111   1.701   8.969 -3.9185 -1.0206 -0.9722
  352MOL0     H47480   5.167   1.461   8.588  0.2593  0.0928  1.2310
  352MOL0     H47481   5.026   1.326   8.466  0.2533 -0.0923  1.1183
  352MOL0     H47482   4.666   1.383   8.157 -1.1923 -0.0196  2.1570
  352MOL0     H47483   4.463   1.245   8.038 -3.0514 -4.4716  0.5217
  352MOL0     H47484   4.424   0.954   7.928  0.1243  1.9727  1.4917
  352MOL0     H47485   4.474   0.828   8.050 -1.2228 -1.8426  1.2503
  352MOL0     H47486   4.219   0.841   8.121 -3.9969 -1.1089 -0.7455
  352MOL0     H47487   4.179   0.917   7.972 -1.9093 -2.8114 -1.7960
  352MOL0     H47488   4.276   0.725   7.853 -2.5435 -0.9441 -0.8629
  352MOL0     H47489   4.310   0.645   8.000  1.0504  2.8753  0.4853
  352MOL0     H47490   4.078   0.643   8.072  1.6477  0.7837 -0.0955
  352MOL0     H47491   4.101   0.545   7.939  1.6878 -0.1799  2.3841
  352MOL0     H47492   4.041   0.833   7.852 -2.0266  2.6077  1.7934
  352MOL0     H47493   3.907   0.772   7.941 -0.9845  3.8149 -2.2521
  352MOL0     H47494   3.922   0.560   7.796  2.8411  0.2092  2.1194
  352MOL0     H47495   3.856   0.705   7.714  1.1395  1.7824 -1.5665
  352MOL0     H47496   4.126   0.584   7.694 -1.5566 -2.2319  0.0487
  352MOL0     H47497   4.090   0.751   7.639 -1.3581 -0.8117 -2.3390
  352MOL0     H47498   3.951   0.523   7.514  3.7222 -1.8630  2.0466
  352MOL0     H47499   3.930   0.695   7.474 -1.9113 -0.6576  0.9591
  352MOL0     H47500   4.575   0.911   8.241 -2.3970  0.1736 -0.3915
  352MOL0     H47501   4.761   1.026   8.363 -2.1738 -3.5443 -0.2325
  352MOL0     H47502   4.686   1.527   8.647  0.3542 -0.4392  1.1003
  352MOL0     H47503   4.846   1.658   8.796  1.2459  0.6950 -0.1677
  352MOL0     H47504   6.644   1.297   9.266 -0.3536  0.3305 -0.3707
  352MOL0     H47505   6.630   1.067   9.290 -2.7250 -1.8166 -0.6919
  352MOL0     H47506   6.294   0.658   9.310  0.2185 -1.3697  1.1664
  352MOL0     H47507   6.259   0.419   9.378 -1.6674 -0.3080  0.1052
  352MOL0     H47508   6.075   0.373   9.741 -0.1783  0.1495 -0.4230
  352MOL0     H47509   6.228   0.326   9.820 -1.1784 -1.0117  1.4253
  352MOL0     H47510   6.078   0.140   9.627  0.3301 -0.2345  0.0895
  352MOL0     H47511   6.042   0.138   9.800 -1.8028  2.9486 -1.7696
  352MOL0     H47512   6.299   0.082   9.821 -1.3884  0.2170  0.4789
  352MOL0     H47513   6.318   0.079   9.652  2.1280  0.4265  1.6587
  352MOL0     H47514   6.148  -0.106   9.814 -0.4485 -1.2930 -1.3453
  352MOL0     H47515   6.137  -0.104   9.635  1.2076 -2.5251  0.5053
  352MOL0     H47516   6.511  -0.285   9.659  0.6549  0.0243  2.3049
  352MOL0     H47517   6.251   0.546   9.779 -3.4832  1.2157 -0.7403
  352MOL0     H47518   6.368   0.902   9.706 -2.4623  1.1524 -1.3053
  352MOL0     H47519   6.259   0.811   9.809  0.9857 -1.9682  1.3891
  352MOL0     H47520   6.430   0.770   9.820  1.4975  1.3222 -3.0589
  353MOL0     O47521   6.287   0.515  10.080 -1.0813  0.5267  0.1811
  353MOL0     C47522   6.374   0.427  10.101 -0.7618 -0.4679  0.9962
  353MOL0     O47523   6.508   0.454  10.077 -0.2519 -0.0297  0.7872
  353MOL0     C47524   6.547   0.580  10.069 -0.6476  0.7014  0.3500
  353MOL0     C47525   6.625   0.619   9.952 -0.3386  0.6349 -0.0955
  353MOL0     C47526   6.670   0.756   9.957 -0.3370  0.5149  0.2984
  353MOL0     C47527   6.642   0.835  10.066  0.2575 -0.4672 -0.6744
  353MOL0     O47528   6.696   0.961  10.075 -0.3597  0.1906 -0.5376
  353MOL0     C47529   6.749   1.035   9.972  0.8168 -0.4114  0.0095
  353MOL0     C47530   6.787   1.164  10.032 -0.6530 -0.2914  0.0027
  353MOL0     C47531   6.807   1.272   9.920 -0.1989 -0.3857 -0.0978
  353MOL0     C47532   6.681   1.298   9.837  0.2566 -1.1477 -0.3124
  353MOL0     C47533   6.679   1.407   9.735 -0.0524 -0.4944 -0.2985
  353MOL0     C47534   6.706   1.540   9.815  0.0196  0.2037  0.5213
  353MOL0     C47535   6.644   1.650   9.735 -0.2465 -0.9171  0.1226
  353MOL0     C47536   6.702   1.788   9.783 -0.6278  0.6155  0.8560
  353MOL0     N47537   6.647   1.834   9.906  0.1811 -0.3266 -0.3357
  353MOL0     C47538   6.517   1.845   9.937 -0.2242  0.1387 -0.3640
  353MOL0     C47539   6.525   1.892  10.061 -0.4315 -0.2511  0.1521
  353MOL0     C47540   6.402   1.923  10.139 -1.1147 -0.8219  0.2669
  353MOL0     C47541   6.326   1.800  10.184 -0.7672  0.6988 -0.5498
  353MOL0     C47542   6.420   1.692  10.250 -0.3480  0.2303  0.7769
  353MOL0     C47543   6.492   1.740  10.374 -0.5946 -0.1466  0.1446
  353MOL0     O47544   6.556   1.629  10.433 -0.4176  0.9707  0.0651
  353MOL0     C47545   6.665   1.583  10.365 -0.8236  0.1194 -0.1999
  353MOL0     C47546   6.780   1.663  10.338  0.8325  0.0669  0.6906
  353MOL0     C47547   6.899   1.609  10.284  0.0724  0.0482  1.1570
  353MOL0     C47548   6.912   1.473  10.265  0.4733  0.6730  0.2745
  353MOL0     C47549   7.028   1.416  10.207  0.5403  1.4417  0.0153
  353MOL0     O47550   7.120   1.495  10.140  0.3982  0.7580  0.4600
  353MOL0     C47551   7.239   1.434  10.111  0.1615  1.1048  0.0725
  353MOL0     C47552   7.269   1.412   9.972 -0.3270  0.6546  0.5368
  353MOL0     C47553   7.399   1.359   9.943  0.2190  0.4971  0.1883
  353MOL0     C47554   7.491   1.325  10.053 -0.7114  0.4846  0.3192
  353MOL0     O47555   7.616   1.268  10.024 -0.3770  0.5173 -0.2206
  353MOL0     C47556   7.701   1.357   9.945  0.7109 -0.2719  0.1651
  353MOL0     C47557   7.845   1.359   9.996  0.5986  0.0303  0.1572
  353MOL0     C47558   7.857   1.430  10.129  0.1776  0.9521  0.4049
  353MOL0     C47559   7.914   1.333  10.227  0.5035 -0.7699 -1.1064
  353MOL0     C47560   7.954   1.406  10.371  0.5224 -0.5645 -0.8547
  353MOL0     C47561   8.070   1.335  10.436 -0.7631  0.3262 -0.3779
  353MOL0     C47562   8.025   1.250  10.552 -0.7151  0.3452  0.3332
  353MOL0     C47563   8.146   1.166  10.601  0.5588 -0.2341 -0.0675
  353MOL0    Cl47564   8.287   1.269  10.670  0.1802 -0.0557  0.5927
  353MOL0     C47565   7.449   1.349  10.183  0.1012 -0.4614  0.0062
  353MOL0     C47566   7.321   1.399  10.210 -1.2452 -0.9004 -1.1930
  353MOL0     O47567   7.026   1.292  10.201  0.5812 -0.3314 -1.1671
  353MOL0     C47568   6.801   1.390  10.297 -0.8561 -0.3264  0.3104
  353MOL0     C47569   6.689   1.450  10.353  0.0344 -0.4191 -0.3856
  353MOL0     N47570   6.657   1.901  10.105 -0.8220  0.9833 -0.3961
  353MOL0     N47571   6.729   1.855  10.015  0.0425 -0.0018  0.4697
  353MOL0     C47572   6.540   0.791  10.159 -0.2204 -0.1092  0.6342
  353MOL0     C47573   6.499   0.664  10.158  0.3319 -0.6081 -0.2309
  353MOL0     C47574   6.329   0.291  10.113 -0.8117 -0.3113  0.0251
  353MOL0     C47575   6.423   0.190  10.101  0.3623 -0.5831 -1.2934
  353MOL0     C47576   6.399   0.062  10.092  0.2654  0.5194  0.7804
  353MOL0     C47577   6.267   0.017  10.110 -0.1637 -0.5015  0.4081
  353MOL0     O47578   6.243  -0.115  10.105  0.3268 -0.1543  0.6326
  353MOL0     C47579   6.108  -0.156  10.103  0.6106  2.3407  0.4748
  353MOL0     C47580   6.112  -0.305  10.102 -0.1439  0.3353 -0.5966
  353MOL0     C47581   5.971  -0.371  10.111 -1.1542 -0.4045 -0.4662
  353MOL0     C47582   5.912  -0.367  10.254 -0.5132  0.7488 -0.0831
  353MOL0     C47583   6.005  -0.429  10.353 -0.4335 -0.2218  1.1487
  353MOL0     C47584   6.085  -0.454  10.434  0.8575  0.9025 -0.1159
  353MOL0     C47585   6.167   0.116  10.133  0.2005 -0.6104 -0.0979
  353MOL0     C47586   6.199   0.256  10.137  0.5415  1.0262 -0.4321
  353MOL0     C47587   6.084   0.347  10.179 -0.0007  0.7523  0.6359
  353MOL0     H47588   6.656   0.542   9.883  1.9146  0.1653  1.3083
  353MOL0     H47589   6.736   0.791   9.879  0.5917  2.5215  1.8916
  353MOL0     H47590   6.831   0.983   9.922  2.1677 -0.6661  2.3319
  353MOL0     H47591   6.662   1.042   9.906 -0.1549  1.0553  1.3608
  353MOL0     H47592   6.873   1.141  10.096 -1.6514 -2.3775  0.6654
  353MOL0     H47593   6.705   1.190  10.099  1.0707  1.2376  1.6500
  353MOL0     H47594   6.877   1.242   9.842 -1.5212 -1.1901 -1.0228
  353MOL0     H47595   6.848   1.367   9.956 -0.5776  0.1186 -0.9538
  353MOL0     H47596   6.666   1.210   9.773  1.0466  0.0743 -2.2815
  353MOL0     H47597   6.594   1.309   9.903  0.1722 -1.2098 -0.4118
  353MOL0     H47598   6.770   1.409   9.674  0.9274  3.8041  0.9123
  353MOL0     H47599   6.588   1.400   9.676 -1.5367 -1.7716  1.9600
  353MOL0     H47600   6.656   1.523   9.911 -1.7625 -2.9256 -0.7979
  353MOL0     H47601   6.813   1.563   9.819  0.1803  0.2596 -2.0792
  353MOL0     H47602   6.535   1.653   9.739 -0.2496  0.7386 -0.4065
  353MOL0     H47603   6.676   1.639   9.631 -0.2738  0.9180 -0.1134
  353MOL0     H47604   6.810   1.782   9.799 -1.0239 -1.1422  3.3516
  353MOL0     H47605   6.681   1.861   9.704  2.8845  2.8820  1.8037
  353MOL0     H47606   6.425   1.836   9.879 -0.6136 -0.1145  0.2822
  353MOL0     H47607   6.436   1.979  10.227  1.5453  0.1814 -1.3121
  353MOL0     H47608   6.330   1.993  10.095  0.4361  1.2620  0.8810
  353MOL0     H47609   6.242   1.825  10.249 -1.9707 -2.3336 -0.8052
  353MOL0     H47610   6.285   1.758  10.092 -1.1752 -0.6861  0.2345
  353MOL0     H47611   6.494   1.664  10.175 -1.6757 -2.5779  0.3963
  353MOL0     H47612   6.354   1.605  10.256 -1.5380  0.9918 -0.5215
  353MOL0     H47613   6.419   1.782  10.444 -1.1328 -1.3895  0.3644
  353MOL0     H47614   6.565   1.819  10.354  0.2832 -0.0628  3.1659
  353MOL0     H47615   6.770   1.771  10.334  2.4700  0.2131 -2.1856
  353MOL0     H47616   6.973   1.683  10.255 -1.4810 -0.1279 -4.2356
  353MOL0     H47617   7.198   1.451   9.899 -0.1687  1.5008  0.8204
  353MOL0     H47618   7.418   1.352   9.837 -2.0165 -2.4602 -0.1297
  353MOL0     H47619   7.699   1.323   9.841  2.9583 -1.1383  0.3422
  353MOL0     H47620   7.679   1.464   9.956  2.5379  0.0096  1.6003
  353MOL0     H47621   7.870   1.253   9.985 -2.4655 -0.6431 -1.7082
  353MOL0     H47622   7.900   1.401   9.912 -1.4808  1.9812 -0.3288
  353MOL0     H47623   7.921   1.518  10.124  1.2620  0.1592  0.0481
  353MOL0     H47624   7.757   1.452  10.169  1.0911  0.1819  3.3749
  353MOL0     H47625   8.011   1.296  10.193  1.8913  1.9972 -0.5166
  353MOL0     H47626   7.846   1.253  10.256  2.6246 -1.5945  2.0603
  353MOL0     H47627   7.864   1.407  10.434  3.5117  0.3414  3.9220
  353MOL0     H47628   7.981   1.511  10.356  0.1068 -0.6140 -2.1026
  353MOL0     H47629   8.119   1.270  10.362 -0.8932 -0.9953  0.6588
  353MOL0     H47630   8.146   1.407  10.467  0.0595  0.0621 -1.7105
  353MOL0     H47631   7.949   1.189  10.501  1.0205  0.3326 -2.4443
  353MOL0     H47632   7.989   1.318  10.629 -0.3865 -1.1218  1.8313
  353MOL0     H47633   8.110   1.105  10.684  2.6400 -1.8935 -0.3233
  353MOL0     H47634   8.192   1.111  10.519  1.7135  1.9527 -0.9604
  353MOL0     H47635   7.524   1.353  10.261  1.0763  0.0958 -0.9303
  353MOL0     H47636   7.299   1.429  10.312  2.8068 -1.1309 -0.0667
  353MOL0     H47637   6.795   1.283  10.280 -0.9952 -0.0907 -1.2605
  353MOL0     H47638   6.609   1.388  10.393 -2.7341  2.8532 -0.3789
  353MOL0     H47639   6.512   0.865  10.232  2.3016 -0.7860  2.4327
  353MOL0     H47640   6.439   0.637  10.245  0.2323 -2.8150 -0.8997
  353MOL0     H47641   6.527   0.206  10.075  1.2471 -0.5435  1.7875
  353MOL0     H47642   6.479  -0.006  10.065 -0.5290  1.0618 -3.7701
  353MOL0     H47643   6.046  -0.132  10.017 -4.4803  0.9397  3.3148
  353MOL0     H47644   6.041  -0.118  10.181 -0.3611  0.5031  0.5948
  353MOL0     H47645   6.172  -0.335  10.188 -1.3024  2.9662  1.2719
  353MOL0     H47646   6.155  -0.330  10.004 -0.9875  1.5411 -1.3108
  353MOL0     H47647   5.989  -0.477  10.092  3.6110  0.2734 -1.0504
  353MOL0     H47648   5.892  -0.337  10.043 -1.8847 -2.4956 -0.7188
  353MOL0     H47649   5.903  -0.260  10.276 -1.7505  0.7846 -0.7084
  353MOL0     H47650   5.816  -0.419  10.252  0.5420 -1.3530  0.9609
  353MOL0     H47651   6.162  -0.475  10.506 -1.5276 -0.6390  2.2166
  353MOL0     H47652   6.062   0.091  10.136  0.5632 -2.6385 -1.8899
  353MOL0     H47653   6.095   0.430  10.249  0.2785  2.5950 -1.4694
  353MOL0     H47654   6.023   0.389  10.098 -1.1183 -1.7897  0.0431
  353MOL0     H47655   6.018   0.273  10.225 -0.1737 -0.7325 -1.8238
  354MOL0     O47656  10.987   5.923   7.933 -0.2267 -0.3659  0.2613
  354MOL0     C47657  11.029   6.014   7.859 -0.0478  0.5344  0.2394
  354MOL0     O47658  11.132   6.096   7.887 -0.2357 -0.3190 -0.4527
  354MOL0     C47659  11.198   6.069   7.998  0.4963  0.4438  0.0257
  354MOL0     C47660  11.321   6.009   8.000  0.5395  0.7586  1.0505
  354MOL0     C47661  11.404   6.003   8.104 -0.4372 -0.5768  0.2656
  354MOL0     C47662  11.353   6.042   8.228 -0.9387  0.0576 -0.2856
  354MOL0     O47663  11.430   6.037   8.340 -0.2792  0.2804 -0.6475
  354MOL0     C47664  11.383   5.943   8.440 -0.7258 -1.1663 -0.1583
  354MOL0     C47665  11.414   5.983   8.583 -0.0897  0.3420  0.3071
  354MOL0     C47666  11.565   5.971   8.604  0.4933  0.2929  0.0881
  354MOL0     C47667  11.608   6.008   8.746 -0.0993  0.3986  0.4363
  354MOL0     C47668  11.759   5.973   8.754 -0.2042  0.1065 -0.4517
  354MOL0     C47669  11.819   6.008   8.893  0.3057 -0.1185 -0.3446
  354MOL0     C47670  11.964   5.961   8.892  0.1625 -0.1736 -1.1578
  354MOL0     C47671  12.025   5.929   9.031  0.2951 -0.6014  0.9605
  354MOL0     N47672  12.052   6.047   9.117 -0.6694 -0.1200 -0.6567
  354MOL0     C47673  11.999   6.054   9.249  0.2027  0.0677  0.2532
  354MOL0     C47674  12.016   6.188   9.285 -0.7348  0.6054 -0.9425
  354MOL0     C47675  11.962   6.242   9.419  0.2175 -0.5861 -0.8141
  354MOL0     C47676  12.022   6.162   9.540  0.2827 -0.9812 -0.0932
  354MOL0     C47677  11.964   6.204   9.669 -0.6097  0.3896 -0.3360
  354MOL0     C47678  11.997   6.115   9.782 -0.3318  1.0035  0.9613
  354MOL0     O47679  12.146   6.093   9.789 -0.0933 -0.3216 -0.8766
  354MOL0     C47680  12.227   6.190   9.827 -0.2850 -0.6459 -0.7887
  354MOL0     C47681  12.366   6.170   9.812 -0.5680  0.0309 -0.0929
  354MOL0     C47682  12.455   6.276   9.844  0.0740 -0.2010 -0.1110
  354MOL0     C47683  12.413   6.405   9.890  0.1767  0.4142 -0.3460
  354MOL0     C47684  12.504   6.523   9.900 -0.3003 -0.6491  0.0815
  354MOL0     O47685  12.624   6.500   9.871 -1.0300  0.4116 -0.1914
  354MOL0     C47686  12.718   6.602   9.914 -0.5369  0.1531  0.8261
  354MOL0     C47687  12.763   6.622  10.048  0.4637 -0.5048  0.3214
  354MOL0     C47688  12.884   6.697  10.059 -0.0296 -0.0426  0.9044
  354MOL0     C47689  12.956   6.753   9.951  0.0195  1.0899 -0.4624
  354MOL0     O47690  13.068   6.825   9.982  0.3148  0.7248 -0.2613
  354MOL0     C47691  13.090   6.954   9.915  0.8793 -0.4626 -0.1970
  354MOL0     C47692  13.054   7.061  10.020 -0.6261  0.1229 -0.0630
  354MOL0     C47693  13.085   7.194   9.958  0.9565  0.6577 -0.5624
  354MOL0     C47694  13.020   7.308  10.039 -0.3335  0.4851  0.3100
  354MOL0     C47695  13.084   7.438   9.991  0.5047 -1.1740  0.2360
  354MOL0     C47696  13.012   7.561  10.043  0.8628  0.0051  0.2400
  354MOL0     C47697  13.040   7.583  10.191  0.0646 -0.4351 -0.3890
  354MOL0     C47698  13.035   7.737  10.230  0.7625  0.4808 -0.1691
  354MOL0    Cl47699  12.868   7.789  10.207  0.0224  0.3570 -0.0249
  354MOL0     C47700  12.904   6.735   9.828 -0.4513  0.4294  0.1151
  354MOL0     C47701  12.789   6.660   9.812  0.0732 -0.5496 -0.4093
  354MOL0     O47702  12.464   6.638   9.930  0.6505  1.0037 -0.1274
  354MOL0     C47703  12.270   6.426   9.903 -0.7614 -0.1426  0.8797
  354MOL0     C47704  12.182   6.320   9.873 -0.3402  0.0124  0.3410
  354MOL0     N47705  12.063   6.258   9.177  1.1798 -0.3298 -0.0952
  354MOL0     N47706  12.079   6.173   9.080 -0.5598  0.0472  0.3450
  354MOL0     C47707  11.233   6.104   8.229  0.1191 -0.2489 -0.5672
  354MOL0     C47708  11.159   6.131   8.120 -0.5018 -0.2102 -0.6064
  354MOL0     C47709  10.951   6.052   7.740 -0.7077  0.3982  0.8382
  354MOL0     C47710  10.948   6.191   7.709  1.2500 -0.5842  0.6598
  354MOL0     C47711  10.876   6.230   7.589 -0.3249 -0.7475  0.4621
  354MOL0     C47712  10.797   6.147   7.514  0.1141 -0.5829  0.2236
  354MOL0     O47713  10.716   6.195   7.414 -0.3223  0.4316 -0.5600
  354MOL0     C47714  10.784   6.241   7.290  0.4289  0.0935  0.0918
  354MOL0     C47715  10.677   6.324   7.210  0.0363  0.6461 -0.3586
  354MOL0     C47716  10.548   6.256   7.187  0.4839  0.3962  0.5506
  354MOL0     C47717  10.467   6.325   7.076 -0.4174 -0.1164  0.9149
  354MOL0     C47718  10.345   6.252   7.037 -0.4844 -0.6852 -0.4573
  354MOL0     C47719  10.248   6.193   6.991  0.5385  0.4484 -0.4697
  354MOL0     C47720  10.804   6.014   7.549 -0.5944 -0.4885 -0.7005
  354MOL0     C47721  10.879   5.961   7.661  0.6654  0.0793  0.7710
  354MOL0     C47722  10.851   5.817   7.698 -0.6452  0.4710  0.2195
  354MOL0     H47723  11.355   5.963   7.907  1.0850  4.3859 -0.7252
  354MOL0     H47724  11.501   5.954   8.099 -1.1830 -2.0297 -1.0037
  354MOL0     H47725  11.278   5.925   8.415 -1.8054  4.6075 -1.2898
  354MOL0     H47726  11.449   5.858   8.422  0.9521  0.1673 -0.6104
  354MOL0     H47727  11.347   5.923   8.646 -1.9341  0.0541 -1.8169
  354MOL0     H47728  11.393   6.090   8.588 -0.4740  0.4717 -2.5321
  354MOL0     H47729  11.611   6.038   8.530 -1.5362  0.8353 -0.7361
  354MOL0     H47730  11.597   5.872   8.572 -0.3418 -0.3376  1.1521
  354MOL0     H47731  11.594   6.116   8.761  0.4712  0.6880 -0.9586
  354MOL0     H47732  11.553   5.952   8.821 -1.1720  2.2167  1.0693
  354MOL0     H47733  11.749   5.864   8.754 -3.6891  0.2817  0.4918
  354MOL0     H47734  11.819   6.009   8.670  0.4161 -2.2400 -1.0746
  354MOL0     H47735  11.827   6.116   8.906  0.9712 -0.2954  0.8682
  354MOL0     H47736  11.764   5.964   8.977  2.5768  0.0550  1.3128
  354MOL0     H47737  12.015   6.048   8.848 -1.5160 -0.1349 -3.1692
  354MOL0     H47738  11.985   5.875   8.829 -0.3775 -0.9996 -0.2333
  354MOL0     H47739  11.968   5.858   9.092  0.0628  0.7631  2.4131
  354MOL0     H47740  12.115   5.883   8.992  0.0076 -0.0197 -0.4269
  354MOL0     H47741  11.956   5.967   9.298 -0.1476 -1.1468 -2.0441
  354MOL0     H47742  11.972   6.351   9.423  3.1198 -0.6311 -3.4178
  354MOL0     H47743  11.857   6.213   9.416 -0.1998  0.8617 -0.9575
  354MOL0     H47744  12.001   6.056   9.523  0.3572 -1.2504  1.3951
  354MOL0     H47745  12.131   6.161   9.540  0.2840 -2.2320 -0.2571
  354MOL0     H47746  11.856   6.215   9.654 -0.8537 -2.3084 -1.0866
  354MOL0     H47747  12.005   6.303   9.693 -1.4428  0.7661 -0.4207
  354MOL0     H47748  11.956   6.014   9.777  0.7032  0.3811  3.2507
  354MOL0     H47749  11.960   6.164   9.873 -2.9404  4.0111 -1.4658
  354MOL0     H47750  12.410   6.088   9.756  1.8706  1.7138 -0.8439
  354MOL0     H47751  12.556   6.248   9.813 -0.6343 -2.3106 -0.6639
  354MOL0     H47752  12.728   6.565  10.133  0.8621  3.6993  3.6629
  354MOL0     H47753  12.924   6.709  10.159  1.2149 -0.4919  0.4789
  354MOL0     H47754  13.193   6.941   9.880  0.4705  2.3740 -2.8295
  354MOL0     H47755  13.033   6.963   9.823 -1.3107 -3.7549  0.6580
  354MOL0     H47756  12.946   7.064  10.041 -0.3903 -0.0338  1.2366
  354MOL0     H47757  13.105   7.056  10.116 -0.7924 -0.1335  0.0128
  354MOL0     H47758  13.193   7.198   9.942  1.2862  0.0260  1.2745
  354MOL0     H47759  13.037   7.199   9.860 -2.6749  4.8844  1.0782
  354MOL0     H47760  13.040   7.278  10.142  0.0369 -1.2043 -0.2275
  354MOL0     H47761  12.913   7.308  10.016 -0.0252 -0.1805 -1.2597
  354MOL0     H47762  13.095   7.442   9.882 -1.3448 -1.8102 -0.0146
  354MOL0     H47763  13.188   7.439  10.026  0.6670 -1.1096 -0.2407
  354MOL0     H47764  13.051   7.646   9.987  2.8766  0.1120  1.6878
  354MOL0     H47765  12.906   7.556  10.017  0.8642  1.0120  0.0006
  354MOL0     H47766  13.130   7.530  10.224 -2.0961 -2.8604  2.0897
  354MOL0     H47767  12.962   7.541  10.256  2.7121 -3.6027  1.0319
  354MOL0     H47768  13.059   7.734  10.337 -0.3825 -1.9275  0.0942
  354MOL0     H47769  13.102   7.800  10.171 -0.6407  2.1929 -0.0251
  354MOL0     H47770  12.944   6.779   9.738 -0.2406  3.6477  1.6402
  354MOL0     H47771  12.762   6.634   9.710 -2.5810 -0.2536  0.1642
  354MOL0     H47772  12.228   6.519   9.940 -0.1531  0.9916 -1.1320
  354MOL0     H47773  12.076   6.343   9.876 -0.4867 -0.2430 -1.4795
  354MOL0     H47774  11.195   6.147   8.321 -0.1264  1.0547 -1.2552
  354MOL0     H47775  11.064   6.184   8.126 -0.5544 -0.2365 -1.1590
  354MOL0     H47776  11.012   6.251   7.772  0.2356  1.7781 -0.4345
  354MOL0     H47777  10.882   6.332   7.553  0.8666 -0.2645  1.9167
  354MOL0     H47778  10.804   6.153   7.228  1.2280  0.6156 -0.4072
  354MOL0     H47779  10.876   6.297   7.306 -0.0218  0.3828  1.8907
  354MOL0     H47780  10.720   6.357   7.116 -0.4741  1.9818 -0.1470
  354MOL0     H47781  10.662   6.415   7.268 -0.3600  1.8055 -2.2181
  354MOL0     H47782  10.486   6.239   7.276  0.4519 -2.4921  0.0805
  354MOL0     H47783  10.589   6.158   7.159 -1.3309 -1.6413  4.2737
  354MOL0     H47784  10.448   6.429   7.105  3.2437  1.7035 -2.2718
  354MOL0     H47785  10.538   6.327   6.993  1.1918 -1.0397  2.1904
  354MOL0     H47786  10.161   6.142   6.955  1.4835 -2.7427  1.3918
  354MOL0     H47787  10.732   5.950   7.499 -2.2384 -0.0644  1.0251
  354MOL0     H47788  10.936   5.759   7.736 -1.4921 -2.9822 -2.6353
  354MOL0     H47789  10.769   5.801   7.768 -0.1051 -2.5659  0.2745
  354MOL0     H47790  10.815   5.759   7.613  4.3493 -2.7775 -0.0750
  355MOL0     O47791   6.139   5.739   5.882  0.4753  0.4846  0.7435
  355MOL0     C47792   6.080   5.845   5.893  0.7874  0.2022  0.9518
  355MOL0     O47793   6.043   5.903   6.009 -0.2072  0.3920  0.1014
  355MOL0     C47794   6.061   5.826   6.127  0.1991  0.0837 -0.0815
  355MOL0     C47795   6.170   5.838   6.219 -0.0932 -0.5245  0.5772
  355MOL0     C47796   6.169   5.750   6.327 -0.9509 -0.6910  1.0858
  355MOL0     C47797   6.071   5.656   6.354 -0.6334  0.1710  0.3425
  355MOL0     O47798   6.085   5.572   6.466 -0.2059  0.2388 -0.1965
  355MOL0     C47799   6.105   5.640   6.589  0.2299 -0.5710 -0.0111
  355MOL0     C47800   6.101   5.540   6.705  0.2438  0.6866  0.7098
  355MOL0     C47801   6.130   5.607   6.846 -0.1101  0.0640  0.0550
  355MOL0     C47802   6.073   5.530   6.970 -0.1458  0.2474  0.7463
  355MOL0     C47803   6.136   5.579   7.104  0.6114  0.6133  0.4824
  355MOL0     C47804   6.088   5.730   7.131 -0.3133  0.7048  0.5447
  355MOL0     C47805   5.938   5.753   7.147  0.2419  0.3177 -0.0175
  355MOL0     C47806   5.895   5.861   7.241  0.7624  0.1128 -0.0573
  355MOL0     N47807   5.752   5.871   7.270  0.2738 -0.3993  0.6355
  355MOL0     C47808   5.653   5.794   7.219  0.4385  0.7831  0.4293
  355MOL0     C47809   5.534   5.833   7.282 -1.1044 -0.4853 -1.0096
  355MOL0     C47810   5.388   5.798   7.265 -0.3532  0.2845  0.5272
  355MOL0     C47811   5.324   5.892   7.160 -0.7798  0.4870 -0.4685
  355MOL0     C47812   5.270   6.023   7.222 -1.5799  0.6293  0.0098
  355MOL0     C47813   5.137   5.993   7.291 -0.1030 -0.2820 -0.0005
  355MOL0     O47814   5.087   6.101   7.367 -0.4521 -0.3048 -0.1698
  355MOL0     C47815   5.115   6.099   7.503  0.5891  0.7226 -0.5185
  355MOL0     C47816   5.212   6.019   7.565  0.1075  0.8282  0.0493
  355MOL0     C47817   5.235   6.038   7.700 -0.1920 -0.0144  0.2372
  355MOL0     C47818   5.167   6.128   7.783 -0.1498 -0.3599 -0.0410
  355MOL0     C47819   5.208   6.165   7.923 -0.9962  0.2772  0.0726
  355MOL0     O47820   5.124   6.250   7.988  0.5422 -0.3488  1.2699
  355MOL0     C47821   5.129   6.271   8.115 -0.6349  0.5897 -0.2960
  355MOL0     C47822   5.244   6.283   8.198  0.0550  0.2459  0.0696
  355MOL0     C47823   5.229   6.297   8.339 -0.6113  0.7069 -0.1653
  355MOL0     C47824   5.112   6.324   8.396 -0.4791 -0.4075 -0.3688
  355MOL0     O47825   5.079   6.347   8.525 -0.9221  0.2664 -0.2057
  355MOL0     C47826   5.185   6.309   8.624 -0.0739  0.1882  0.5420
  355MOL0     C47827   5.141   6.328   8.763 -0.0692  0.9949  0.2682
  355MOL0     C47828   5.138   6.475   8.800 -1.5974  0.2531  0.0684
  355MOL0     C47829   5.038   6.486   8.905 -0.1818  0.8646  0.5336
  355MOL0     C47830   5.054   6.628   8.965 -0.2593  0.0367  0.1529
  355MOL0     C47831   5.021   6.750   8.878  0.2798 -0.4680  0.3007
  355MOL0     C47832   4.883   6.746   8.811 -0.7434  0.9394 -0.4227
  355MOL0     C47833   4.843   6.877   8.750 -0.1461 -0.0611 -0.0186
  355MOL0    Cl47834   4.931   6.887   8.598  0.0633 -0.1265  0.1111
  355MOL0     C47835   5.004   6.324   8.313  0.2736  0.9018 -0.2948
  355MOL0     C47836   5.009   6.305   8.175  0.0789 -0.9401  1.2234
  355MOL0     O47837   5.310   6.110   7.973  0.8024 -0.0013  0.2775
  355MOL0     C47838   5.066   6.196   7.722 -0.5213 -0.3798  0.0249
  355MOL0     C47839   5.038   6.182   7.582 -0.7640 -0.5127 -0.0150
  355MOL0     N47840   5.582   5.926   7.371  0.0716  0.0461  0.0366
  355MOL0     N47841   5.707   5.947   7.375  0.4739 -0.4172 -0.2708
  355MOL0     C47842   5.960   5.654   6.270 -0.0975 -0.6083 -0.2107
  355MOL0     C47843   5.954   5.738   6.156  0.3039 -0.7585  0.6390
  355MOL0     C47844   6.062   5.928   5.774 -0.2156 -0.2241 -1.1542
  355MOL0     C47845   5.940   5.996   5.752 -0.7197 -0.6215 -0.6221
  355MOL0     C47846   5.937   6.084   5.641  0.5684 -0.0623  0.2751
  355MOL0     C47847   6.042   6.086   5.545  0.1338 -0.8485  0.7654
  355MOL0     O47848   6.017   6.155   5.432  0.0873 -0.3436  0.6585
  355MOL0     C47849   6.127   6.203   5.353 -0.0764  0.9992  0.6522
  355MOL0     C47850   6.085   6.317   5.263 -0.3758 -0.0980 -0.1508
  355MOL0     C47851   6.190   6.379   5.176  0.5020 -0.1235  0.7240
  355MOL0     C47852   6.129   6.491   5.080  0.3474  0.7210  0.7096
  355MOL0     C47853   6.129   6.467   4.931  0.0276  0.4517 -0.1487
  355MOL0     C47854   6.135   6.441   4.815 -0.7716 -0.5966  0.4518
  355MOL0     C47855   6.153   6.005   5.560 -0.4971  0.6121 -0.8196
  355MOL0     C47856   6.176   5.940   5.684  1.1663 -0.5005  0.7497
  355MOL0     C47857   6.316   5.891   5.715  0.7602 -0.6447 -0.4865
  355MOL0     H47858   6.249   5.909   6.203 -0.3692  0.0082  1.5303
  355MOL0     H47859   6.247   5.755   6.403 -1.4906 -0.9148  1.6626
  355MOL0     H47860   6.209   5.674   6.588  0.8928 -2.3613 -2.2333
  355MOL0     H47861   6.042   5.728   6.600  1.6404  0.4893 -0.0845
  355MOL0     H47862   6.178   5.465   6.688  2.1460  2.5844  0.4703
  355MOL0     H47863   5.998   5.504   6.704  0.7651 -0.9151 -1.7217
  355MOL0     H47864   6.091   5.709   6.838  0.3304  0.3781  1.6134
  355MOL0     H47865   6.239   5.604   6.848 -0.1308 -2.4298  1.9331
  355MOL0     H47866   5.965   5.547   6.967 -0.1581  0.0153 -0.4949
  355MOL0     H47867   6.106   5.425   6.968  1.9807  0.8382  1.3630
  355MOL0     H47868   6.101   5.511   7.182  0.0984  1.6170  1.1562
  355MOL0     H47869   6.244   5.575   7.118  0.5004 -3.2174  1.2146
  355MOL0     H47870   6.136   5.777   7.217  2.7048  2.1314 -1.7450
  355MOL0     H47871   6.119   5.792   7.047 -0.1288  0.0816  0.1447
  355MOL0     H47872   5.900   5.658   7.186 -0.4336  0.3204 -0.6572
  355MOL0     H47873   5.893   5.761   7.048 -0.2973 -1.3765  0.0691
  355MOL0     H47874   5.949   5.849   7.335  2.5635  3.8987 -0.4132
  355MOL0     H47875   5.921   5.959   7.199  1.0871 -1.0323 -2.7110
  355MOL0     H47876   5.657   5.723   7.137 -0.3355  0.0552  1.0114
  355MOL0     H47877   5.379   5.694   7.234 -0.9314 -0.2783  2.4651
  355MOL0     H47878   5.326   5.809   7.354 -3.6250  0.4154 -1.5994
  355MOL0     H47879   5.407   5.920   7.095  3.2120  0.9646  4.3196
  355MOL0     H47880   5.244   5.842   7.103  1.4607 -5.0644  0.6344
  355MOL0     H47881   5.239   6.100   7.151 -2.4064 -0.3778 -0.7594
  355MOL0     H47882   5.330   6.057   7.307  2.8340 -1.3488 -1.9833
  355MOL0     H47883   5.134   5.904   7.354  0.8683 -0.7870 -0.6544
  355MOL0     H47884   5.064   5.956   7.219  1.3632 -3.5911  0.0485
  355MOL0     H47885   5.272   5.947   7.510 -0.6612 -0.8648  1.3118
  355MOL0     H47886   5.324   5.993   7.743  0.9506 -0.7388 -2.6919
  355MOL0     H47887   5.344   6.263   8.161  0.9960  0.6670  2.2091
  355MOL0     H47888   5.317   6.288   8.402 -2.6902 -0.6968  2.7737
  355MOL0     H47889   5.207   6.204   8.603 -3.6730 -0.4920 -0.5125
  355MOL0     H47890   5.279   6.359   8.596 -0.3033  1.3002  1.6566
  355MOL0     H47891   5.050   6.268   8.775  0.8272 -0.1216  1.8572
  355MOL0     H47892   5.221   6.302   8.834 -0.2296  2.5769  1.0837
  355MOL0     H47893   5.234   6.495   8.849 -1.2966  0.9453 -0.7781
  355MOL0     H47894   5.115   6.540   8.715 -0.0210  0.6608 -0.0714
  355MOL0     H47895   5.054   6.409   8.982  1.0294  1.5031  0.9377
  355MOL0     H47896   4.936   6.474   8.865 -1.2845  0.8128  3.1422
  355MOL0     H47897   5.156   6.640   9.002 -0.3852  0.6138  0.3245
  355MOL0     H47898   4.987   6.638   9.051  2.3592  2.5056  2.0878
  355MOL0     H47899   5.029   6.834   8.948  2.6336 -0.7085  0.4084
  355MOL0     H47900   5.101   6.755   8.804  1.0036 -0.9686  1.0230
  355MOL0     H47901   4.796   6.718   8.872  0.3510 -1.4205  0.1597
  355MOL0     H47902   4.883   6.676   8.728  2.5154  2.5237 -1.9370
  355MOL0     H47903   4.735   6.888   8.738 -0.0335  3.2264  0.8343
  355MOL0     H47904   4.877   6.959   8.815 -1.4287 -0.6725  1.4729
  355MOL0     H47905   4.914   6.347   8.370  1.8634 -0.5904  3.0540
  355MOL0     H47906   4.912   6.303   8.127 -0.0308  1.0507  1.2811
  355MOL0     H47907   5.012   6.270   7.780 -0.7315 -2.0481  2.0843
  355MOL0     H47908   4.964   6.243   7.531 -1.0560 -2.5484 -2.2112
  355MOL0     H47909   5.876   5.597   6.309 -0.3676 -0.0816 -0.0153
  355MOL0     H47910   5.870   5.749   6.088 -1.5558 -0.5281  2.8364
  355MOL0     H47911   5.854   5.988   5.818 -3.2711 -1.8471 -3.8150
  355MOL0     H47912   5.845   6.136   5.614 -0.5709 -3.2658 -2.8344
  355MOL0     H47913   6.183   6.123   5.303  1.0363  1.0419  1.8037
  355MOL0     H47914   6.208   6.242   5.415  5.0747 -2.6605 -2.8321
  355MOL0     H47915   6.046   6.394   5.331 -2.1490 -2.0789  1.2245
  355MOL0     H47916   6.002   6.289   5.197  0.0602 -0.4716 -0.5417
  355MOL0     H47917   6.231   6.296   5.117 -0.7210  1.3878 -2.5197
  355MOL0     H47918   6.278   6.415   5.229 -0.4051  0.4391  1.8791
  355MOL0     H47919   6.027   6.505   5.116  0.8721 -1.0012  3.2133
  355MOL0     H47920   6.180   6.587   5.089  2.8808 -0.2698 -1.6000
  355MOL0     H47921   6.136   6.413   4.711 -1.6757 -2.7132  0.9613
  355MOL0     H47922   6.235   6.003   5.489  0.0064 -2.4289 -0.2748
  355MOL0     H47923   6.338   5.892   5.822 -1.5272 -0.0889  0.0292
  355MOL0     H47924   6.338   5.797   5.664  1.7260 -0.4820 -0.3900
  355MOL0     H47925   6.384   5.960   5.665  2.3142 -2.6198 -1.2215
  356MOL0     O47926   6.499   9.536   2.885 -0.0757  0.5976 -0.5247
  356MOL0     C47927   6.518   9.485   2.999 -0.1848 -0.1239  0.6454
  356MOL0     O47928   6.486   9.544   3.122 -0.0740 -0.1578  1.1607
  356MOL0     C47929   6.470   9.681   3.118  0.4747  0.8864  0.2600
  356MOL0     C47930   6.399   9.763   3.028  0.5390 -0.2269 -0.9034
  356MOL0     C47931   6.374   9.900   3.056  1.1280 -0.2139  0.0388
  356MOL0     C47932   6.432   9.959   3.173 -0.1464  0.3498  1.2203
  356MOL0     O47933   6.412  10.097   3.196 -0.0863  0.6427  0.7850
  356MOL0     C47934   6.530  10.174   3.147  1.1529 -0.1159 -0.4866
  356MOL0     C47935   6.537  10.325   3.192 -0.0149 -0.2551 -0.1483
  356MOL0     C47936   6.436  10.422   3.134 -0.4666  0.0831 -0.1916
  356MOL0     C47937   6.294  10.413   3.205 -0.5104  0.6546 -0.6429
  356MOL0     C47938   6.194  10.519   3.154  0.2723 -0.4162 -0.1685
  356MOL0     C47939   6.132  10.493   3.015 -0.4694 -0.7160  0.9880
  356MOL0     C47940   6.045  10.366   3.004  0.3801 -0.4781 -0.7802
  356MOL0     C47941   6.011  10.323   2.851  0.8020  0.1688 -0.0609
  356MOL0     N47942   6.118  10.297   2.757 -0.1756 -0.1556 -0.1307
  356MOL0     C47943   6.237  10.230   2.784 -0.4752  1.0691 -0.2048
  356MOL0     C47944   6.301  10.246   2.665 -0.2234  0.5625  0.1833
  356MOL0     C47945   6.431  10.195   2.614  0.6821  1.1846 -0.8750
  356MOL0     C47946   6.550  10.242   2.702  0.4941 -0.8532 -0.1379
  356MOL0     C47947   6.556  10.395   2.739  0.2748  0.2106 -0.2235
  356MOL0     C47948   6.582  10.478   2.617 -0.7001  1.4616  0.2393
  356MOL0     O47949   6.605  10.617   2.653  0.2963 -0.1267 -0.3105
  356MOL0     C47950   6.513  10.716   2.649  0.0101 -0.1669 -0.2454
  356MOL0     C47951   6.374  10.679   2.633 -0.0016  0.2655 -1.0232
  356MOL0     C47952   6.285  10.781   2.608  0.4254 -0.6018  0.2214
  356MOL0     C47953   6.319  10.920   2.613 -0.2202  0.4392 -1.3219
  356MOL0     C47954   6.221  11.035   2.594  0.5944 -0.1753 -0.4734
  356MOL0     O47955   6.271  11.163   2.604  0.6119 -0.0774 -0.0094
  356MOL0     C47956   6.180  11.266   2.606 -0.0766 -0.1488  0.7570
  356MOL0     C47957   6.089  11.288   2.705  0.5098  0.1244 -0.5217
  356MOL0     C47958   6.002  11.397   2.696 -0.3745  0.7600  0.4294
  356MOL0     C47959   6.027  11.500   2.605 -0.6976 -0.5972 -0.1228
  356MOL0     O47960   5.949  11.612   2.606 -0.7980  0.7473  0.5659
  356MOL0     C47961   5.865  11.641   2.492 -0.7784  0.4996  0.6736
  356MOL0     C47962   5.751  11.730   2.545 -0.2142  0.3142 -0.3131
  356MOL0     C47963   5.643  11.742   2.433 -0.5597 -0.9581  0.4477
  356MOL0     C47964   5.690  11.771   2.292  0.6124  0.2835  0.6375
  356MOL0     C47965   5.579  11.847   2.209 -0.4118  0.0982 -0.9444
  356MOL0     C47966   5.455  11.753   2.194  0.0658  0.2411 -0.7112
  356MOL0     C47967   5.473  11.635   2.090 -0.1804  0.0112  0.0271
  356MOL0     C47968   5.349  11.554   2.093  0.0462 -0.1956  0.2084
  356MOL0    Cl47969   5.205  11.632   2.009  0.3870 -0.8798 -0.6252
  356MOL0     C47970   6.124  11.476   2.506  0.6494  0.0668  0.1796
  356MOL0     C47971   6.192  11.354   2.504 -0.2426  0.4432  1.2303
  356MOL0     O47972   6.101  11.011   2.582  0.5613  0.0656 -0.1496
  356MOL0     C47973   6.450  10.950   2.641 -0.0117 -0.1771  0.8584
  356MOL0     C47974   6.545  10.847   2.646  0.0944  0.6575 -0.7430
  356MOL0     N47975   6.224  10.326   2.580 -0.4904 -0.2525  1.0788
  356MOL0     N47976   6.116  10.352   2.634  0.3225  0.4481  0.4061
  356MOL0     C47977   6.493   9.879   3.268 -0.0817 -0.7451 -1.2485
  356MOL0     C47978   6.516   9.744   3.235 -0.6531 -0.2617 -0.1248
  356MOL0     C47979   6.568   9.349   3.004  1.2622 -0.7964 -0.0102
  356MOL0     C47980   6.555   9.274   3.129 -0.4838 -0.0460 -0.1158
  356MOL0     C47981   6.602   9.138   3.134  0.3826 -0.6266  1.0225
  356MOL0     C47982   6.661   9.081   3.026  0.2444  0.1110  0.0262
  356MOL0     O47983   6.712   8.957   3.037  0.2798 -0.0313 -0.4703
  356MOL0     C47984   6.622   8.856   3.086 -0.1137 -0.2727  0.0133
  356MOL0     C47985   6.480   8.843   3.033 -0.3222 -0.3640  1.1729
  356MOL0     C47986   6.487   8.847   2.879 -0.8111 -0.7004 -0.3116
  356MOL0     C47987   6.356   8.791   2.814 -0.3739  0.1586  0.5238
  356MOL0     C47988   6.340   8.642   2.828 -0.5868 -0.0194  0.0323
  356MOL0     C47989   6.331   8.520   2.817 -1.1808 -0.2977  1.2714
  356MOL0     C47990   6.692   9.161   2.918  0.1149  0.2575 -0.2744
  356MOL0     C47991   6.639   9.288   2.896 -0.0246  0.4048 -0.2181
  356MOL0     C47992   6.684   9.357   2.772 -0.6098  0.6926 -0.1055
  356MOL0     H47993   6.354   9.711   2.945  2.5274 -2.8750 -0.4714
  356MOL0     H47994   6.320   9.966   2.989  0.2832  1.8272  2.5473
  356MOL0     H47995   6.627  10.138   3.184  2.8308  4.2828 -0.0831
  356MOL0     H47996   6.526  10.165   3.039 -2.7216 -3.0910 -0.3044
  356MOL0     H47997   6.637  10.352   3.160  0.6851 -0.3756  1.7876
  356MOL0     H47998   6.516  10.338   3.299 -1.2372  2.6992 -0.6591
  356MOL0     H47999   6.443  10.395   3.028 -0.4422  0.5051 -0.2991
  356MOL0     H48000   6.476  10.524   3.138  0.5354 -0.3254  1.0019
  356MOL0     H48001   6.262  10.309   3.188  2.4522  0.0394 -3.3702
  356MOL0     H48002   6.292  10.426   3.313  0.5691  0.4355 -0.5849
  356MOL0     H48003   6.113  10.525   3.227 -0.2030 -2.1132 -0.5080
  356MOL0     H48004   6.244  10.616   3.151  0.3444 -0.4102  0.8995
  356MOL0     H48005   6.067  10.576   2.985 -1.5241 -0.6356  3.2849
  356MOL0     H48006   6.214  10.507   2.943 -1.6810 -0.2995 -0.3524
  356MOL0     H48007   5.956  10.388   3.064  0.3516  1.6586 -1.4897
  356MOL0     H48008   6.101  10.289   3.058  2.4446 -0.0151 -2.1084
  356MOL0     H48009   5.956  10.228   2.859  2.1329 -0.5090  1.6757
  356MOL0     H48010   5.939  10.392   2.807 -0.5885 -0.4747  1.0904
  356MOL0     H48011   6.264  10.170   2.870  1.4896  0.4584 -1.1837
  356MOL0     H48012   6.438  10.086   2.609  0.8318  1.2130 -1.3733
  356MOL0     H48013   6.444  10.225   2.509 -1.9892 -1.7023 -2.2179
  356MOL0     H48014   6.540  10.188   2.796  1.6266  1.0301  1.1255
  356MOL0     H48015   6.646  10.222   2.655  0.0324  1.4403 -2.2631
  356MOL0     H48016   6.639  10.413   2.808  1.9715 -1.8562 -1.5705
  356MOL0     H48017   6.462  10.421   2.789  0.0864 -0.2793 -0.3192
  356MOL0     H48018   6.502  10.472   2.542 -0.4306 -1.4424  0.0855
  356MOL0     H48019   6.677  10.443   2.576 -0.0264  0.2724  2.6528
  356MOL0     H48020   6.334  10.578   2.642  0.1240  0.3863  2.9550
  356MOL0     H48021   6.179  10.774   2.585  0.6520  0.8384 -1.4524
  356MOL0     H48022   6.071  11.221   2.788  2.1452  1.0013  0.6096
  356MOL0     H48023   5.916  11.413   2.759 -0.9683  1.6752 -0.5763
  356MOL0     H48024   5.920  11.697   2.416 -0.7589  3.1004  2.4610
  356MOL0     H48025   5.844  11.545   2.445  1.1920 -0.1566  1.0495
  356MOL0     H48026   5.712  11.696   2.641  2.2079 -0.7963  0.3359
  356MOL0     H48027   5.784  11.834   2.560 -0.5444  1.0186 -3.7089
  356MOL0     H48028   5.587  11.648   2.422 -3.7235  0.8506 -0.3920
  356MOL0     H48029   5.568  11.816   2.462  1.2032  1.9090 -1.7636
  356MOL0     H48030   5.707  11.677   2.241  2.5818  0.7585  0.3524
  356MOL0     H48031   5.784  11.826   2.301  0.0396  1.6227 -1.1007
  356MOL0     H48032   5.629  11.864   2.113  3.2078 -2.4710  0.2694
  356MOL0     H48033   5.547  11.938   2.261  1.0423  0.9714 -1.5079
  356MOL0     H48034   5.430  11.710   2.291  2.3567  0.5030  0.0463
  356MOL0     H48035   5.380  11.814   2.143  1.4054  2.3228 -0.3079
  356MOL0     H48036   5.553  11.567   2.118 -0.4314  0.0398  0.8465
  356MOL0     H48037   5.498  11.678   1.992  1.3100 -1.3798 -0.2439
  356MOL0     H48038   5.373  11.455   2.053  1.0558  0.2931 -0.4243
  356MOL0     H48039   5.319  11.533   2.196  1.2274  1.2179  0.8743
  356MOL0     H48040   6.144  11.559   2.439  1.7133  2.7606  3.5625
  356MOL0     H48041   6.261  11.332   2.423 -0.1456  1.7037  0.9626
  356MOL0     H48042   6.486  11.050   2.664 -4.6722  2.0656 -0.3363
  356MOL0     H48043   6.644  10.887   2.667 -0.0105  1.2333 -1.3200
  356MOL0     H48044   6.518   9.922   3.365  1.0215 -4.0882  0.0731
  356MOL0     H48045   6.573   9.687   3.308  0.7206  2.4677  1.0724
  356MOL0     H48046   6.521   9.311   3.225 -0.3597 -1.1433  0.3667
  356MOL0     H48047   6.594   9.077   3.223 -0.7033 -0.0116  1.3658
  356MOL0     H48048   6.610   8.848   3.194  0.2291  0.8711  0.1499
  356MOL0     H48049   6.678   8.768   3.056 -0.9850  0.2144 -3.4481
  356MOL0     H48050   6.422   8.929   3.066 -0.3954  0.0135  0.0957
  356MOL0     H48051   6.432   8.749   3.063  0.6754 -1.5501 -0.7222
  356MOL0     H48052   6.568   8.783   2.841  1.0155  1.7843 -0.8692
  356MOL0     H48053   6.496   8.950   2.844 -0.5980  0.5704  3.1495
  356MOL0     H48054   6.264   8.846   2.833 -0.5855 -0.7492  2.3159
  356MOL0     H48055   6.379   8.814   2.710  2.3894  0.5306  1.1233
  356MOL0     H48056   6.344   8.417   2.790  0.5012  0.0219  0.6992
  356MOL0     H48057   6.747   9.116   2.836  0.9443 -1.4115  1.1308
  356MOL0     H48058   6.714   9.462   2.787 -2.4820  1.1229  0.9623
  356MOL0     H48059   6.766   9.304   2.723 -0.2877  1.4768 -0.4444
  356MOL0     H48060   6.599   9.358   2.704 -1.2883 -1.3211  0.6511
  357MOL0     O48061   0.009   5.132   4.209 -0.4361  0.1631 -0.1505
  357MOL0     C48062   0.005   5.052   4.117  0.5818 -0.2954  0.4992
  357MOL0     O48063   0.085   4.939   4.102  0.9027 -0.3300 -0.3655
  357MOL0     C48064   0.201   4.942   4.172 -0.3949 -0.0005 -0.2518
  357MOL0     C48065   0.325   4.968   4.106  0.5938  0.2922  0.6318
  357MOL0     C48066   0.448   4.972   4.174  0.0384  0.5016  1.6282
  357MOL0     C48067   0.449   4.959   4.308  0.4511  0.1167  0.1949
  357MOL0     O48068   0.567   4.947   4.373 -0.5494  0.4262 -0.5414
  357MOL0     C48069   0.604   5.075   4.425 -0.4387 -0.7718  0.1050
  357MOL0     C48070   0.641   5.056   4.566 -0.3798  0.7398 -1.4784
  357MOL0     C48071   0.523   5.024   4.664  0.0979 -0.3483  0.1780
  357MOL0     C48072   0.418   5.143   4.664 -0.5515  0.7675 -1.1103
  357MOL0     C48073   0.475   5.288   4.687  0.4251 -0.2573  0.2823
  357MOL0     C48074   0.362   5.393   4.708 -0.3526 -0.0464 -0.2211
  357MOL0     C48075   0.409   5.532   4.722 -0.0562 -0.8593 -0.2807
  357MOL0     C48076   0.296   5.636   4.734  0.1373 -0.0513 -0.1878
  357MOL0     N48077   0.324   5.783   4.711  0.5950  0.6816 -0.3422
  357MOL0     C48078   0.443   5.847   4.685  0.0989 -0.7629  0.4185
  357MOL0     C48079   0.408   5.972   4.643 -0.0399 -0.2550 -0.6577
  357MOL0     C48080   0.505   6.077   4.610 -0.4094  0.6461  0.4298
  357MOL0     C48081   0.504   6.174   4.731  0.1581 -0.4734  0.1918
  357MOL0     C48082   0.478   6.323   4.674 -0.7825  0.4132 -0.2092
  357MOL0     C48083   0.336   6.330   4.623  0.3838 -0.8048 -1.0481
  357MOL0     O48084   0.303   6.472   4.612  0.4025  1.0686  0.1137
  357MOL0     C48085   0.329   6.540   4.497  0.7665 -0.7488  0.1110
  357MOL0     C48086   0.388   6.493   4.375 -0.1808 -0.4471  0.7026
  357MOL0     C48087   0.419   6.582   4.270 -0.2235  0.3607 -0.1522
  357MOL0     C48088   0.396   6.721   4.272  0.7128 -0.2594 -0.4118
  357MOL0     C48089   0.414   6.805   4.154 -0.0094 -1.0634  0.3298
  357MOL0     O48090   0.366   6.932   4.161 -0.4908 -0.0851 -0.7223
  357MOL0     C48091   0.396   7.007   4.048 -0.6836 -0.4774 -0.4466
  357MOL0     C48092   0.298   7.009   3.943 -0.5984 -0.0411 -0.1861
  357MOL0     C48093   0.329   7.082   3.825 -0.7959  0.6702  0.8397
  357MOL0     C48094   0.457   7.144   3.819  1.3321 -0.5343  0.0179
  357MOL0     O48095   0.498   7.224   3.720  0.4312  0.0312  0.2202
  357MOL0     C48096   0.420   7.222   3.599  0.3328  0.9324  0.4904
  357MOL0     C48097   0.453   7.336   3.500 -0.6969  0.3076  0.7015
  357MOL0     C48098   0.369   7.307   3.376 -0.4785  0.2712  1.0502
  357MOL0     C48099   0.406   7.391   3.253  0.7580 -0.1229 -0.0142
  357MOL0     C48100   0.358   7.532   3.249  0.6389 -0.6056  0.1756
  357MOL0     C48101   0.404   7.612   3.132  0.5438 -0.1530 -0.9406
  357MOL0     C48102   0.546   7.667   3.157 -0.2093 -0.2660  1.1390
  357MOL0     C48103   0.603   7.767   3.052  1.0908  1.9424 -0.1225
  357MOL0    Cl48104   0.520   7.933   3.037  0.0503  0.3964 -0.7789
  357MOL0     C48105   0.551   7.141   3.923  2.3706 -0.1033  0.9978
  357MOL0     C48106   0.518   7.072   4.035  0.1606 -0.1663  0.2498
  357MOL0     O48107   0.472   6.756   4.055 -0.2645 -0.1707  0.1219
  357MOL0     C48108   0.322   6.765   4.382  0.4679  0.3548  0.3094
  357MOL0     C48109   0.287   6.678   4.489  0.4866 -0.0960  0.2565
  357MOL0     N48110   0.274   5.976   4.619  1.0776 -0.1918  0.6049
  357MOL0     N48111   0.225   5.864   4.665 -0.1741 -0.8253  0.2946
  357MOL0     C48112   0.325   4.945   4.382 -0.7295 -0.0769 -0.6614
  357MOL0     C48113   0.204   4.934   4.312 -0.0493  0.3838  0.4150
  357MOL0     C48114  -0.108   5.063   4.029  0.8829  0.0326  0.2196
  357MOL0     C48115  -0.176   4.947   3.989  0.8692 -0.5259 -1.0798
  357MOL0     C48116  -0.294   4.952   3.919  0.3191 -0.5722  0.7573
  357MOL0     C48117  -0.340   5.082   3.878 -0.6526 -0.0990  0.9604
  357MOL0     O48118  -0.460   5.103   3.813 -0.0175 -0.0948 -0.2046
  357MOL0     C48119  -0.567   5.003   3.812 -0.6459  0.4318  0.3658
  357MOL0     C48120  -0.703   5.068   3.828  0.6187  0.5933 -0.3139
  357MOL0     C48121  -0.746   5.187   3.736 -0.9601 -0.0810 -0.4875
  357MOL0     C48122  -0.889   5.235   3.773  0.2274  0.1975 -0.4306
  357MOL0     C48123  -0.942   5.334   3.686  0.5340  0.5538 -0.0707
  357MOL0     C48124  -0.998   5.416   3.627  0.5534  0.6005  0.2089
  357MOL0     C48125  -0.264   5.194   3.904 -0.4337 -0.2521  0.1817
  357MOL0     C48126  -0.148   5.190   3.974  0.2249  0.2618  0.0738
  357MOL0     C48127  -0.073   5.325   3.990 -0.3698  0.5789 -0.1627
  357MOL0     H48128   0.324   4.979   3.998  2.3779 -0.2941  0.5207
  357MOL0     H48129   0.542   4.984   4.122 -0.5999 -1.2473 -0.0707
  357MOL0     H48130   0.695   5.088   4.365 -0.1923 -1.1792  0.3872
  357MOL0     H48131   0.530   5.152   4.405 -0.3288 -0.7337 -0.1597
  357MOL0     H48132   0.691   5.145   4.606 -0.5092  0.3716 -0.4637
  357MOL0     H48133   0.726   4.989   4.580 -0.8059 -0.0829 -2.7183
  357MOL0     H48134   0.571   5.017   4.761 -1.6169  0.7386  1.1715
  357MOL0     H48135   0.452   4.944   4.640  1.1706 -2.0899  2.4698
  357MOL0     H48136   0.359   5.143   4.573 -2.0497  3.8384 -0.2828
  357MOL0     H48137   0.355   5.118   4.750 -0.5926  2.3116 -0.6618
  357MOL0     H48138   0.534   5.273   4.778  0.2630  1.7747  0.7751
  357MOL0     H48139   0.544   5.326   4.611 -0.5245  0.0878 -0.4311
  357MOL0     H48140   0.292   5.390   4.624  0.9638 -0.8343 -1.3312
  357MOL0     H48141   0.306   5.367   4.798  1.6160 -2.5500  0.4264
  357MOL0     H48142   0.466   5.544   4.629  1.7768 -1.9716  0.6380
  357MOL0     H48143   0.473   5.533   4.810  1.3354  0.3691 -1.2441
  357MOL0     H48144   0.212   5.614   4.667  1.6831 -0.5779 -2.0315
  357MOL0     H48145   0.242   5.631   4.829 -0.0550 -4.3335 -0.3370
  357MOL0     H48146   0.547   5.816   4.695  0.8120  2.0099  2.9260
  357MOL0     H48147   0.604   6.031   4.600 -1.2103 -1.4136  1.2966
  357MOL0     H48148   0.480   6.105   4.507 -1.3597  0.1636  0.5120
  357MOL0     H48149   0.432   6.141   4.806  0.8514  0.6333  1.3940
  357MOL0     H48150   0.601   6.153   4.778 -0.6523  1.4303  2.9696
  357MOL0     H48151   0.555   6.349   4.601 -0.5216 -1.4643 -0.6449
  357MOL0     H48152   0.488   6.396   4.755  1.4149  3.0846 -2.6504
  357MOL0     H48153   0.266   6.271   4.683 -2.2714 -0.2678 -3.4205
  357MOL0     H48154   0.323   6.279   4.527 -1.7306 -0.7532 -0.8147
  357MOL0     H48155   0.417   6.391   4.352 -2.7395 -0.6222 -2.4488
  357MOL0     H48156   0.467   6.543   4.181 -0.7244  1.8509 -1.1189
  357MOL0     H48157   0.216   6.942   3.964  0.3095 -0.5887  1.9357
  357MOL0     H48158   0.264   7.076   3.738 -2.1460  1.3102  1.7715
  357MOL0     H48159   0.427   7.126   3.546 -2.8545 -0.2687  1.9405
  357MOL0     H48160   0.314   7.237   3.625  0.6010  2.6056  0.6982
  357MOL0     H48161   0.434   7.431   3.551  3.0813  0.4095  2.2479
  357MOL0     H48162   0.559   7.332   3.476 -1.0044 -0.6352 -0.5911
  357MOL0     H48163   0.370   7.200   3.353 -2.9202  0.1679  1.1451
  357MOL0     H48164   0.267   7.340   3.396 -0.2791  0.5981  1.5410
  357MOL0     H48165   0.369   7.348   3.160 -1.9442  1.8316  0.0551
  357MOL0     H48166   0.516   7.390   3.253  0.7996 -1.0196  2.0314
  357MOL0     H48167   0.381   7.568   3.350  1.6643 -0.2782 -0.1620
  357MOL0     H48168   0.250   7.523   3.240  0.7663 -0.6064 -1.7770
  357MOL0     H48169   0.385   7.544   3.048 -1.5622 -0.0408 -0.5979
  357MOL0     H48170   0.337   7.696   3.114 -1.4078 -1.1318  1.2306
  357MOL0     H48171   0.611   7.580   3.173  3.0079  1.3749 -1.6580
  357MOL0     H48172   0.544   7.731   3.246 -0.1058  0.7767  0.4121
  357MOL0     H48173   0.706   7.786   3.083  2.3043 -1.5076 -1.5483
  357MOL0     H48174   0.610   7.710   2.959  0.3631  3.1687 -0.9656
  357MOL0     H48175   0.642   7.200   3.915  2.0629  0.2382 -0.0489
  357MOL0     H48176   0.596   7.061   4.110  0.3712  3.3788  0.7607
  357MOL0     H48177   0.287   6.867   4.385 -2.2122 -0.4676 -0.1120
  357MOL0     H48178   0.233   6.729   4.568  2.8035  0.3508  1.6340
  357MOL0     H48179   0.321   4.940   4.490  4.0182  0.2028 -0.2616
  357MOL0     H48180   0.113   4.918   4.370 -1.9671 -4.7530 -3.1732
  357MOL0     H48181  -0.138   4.851   4.023  0.4709 -1.0623 -2.0931
  357MOL0     H48182  -0.347   4.861   3.892  2.1880 -1.6326  0.5481
  357MOL0     H48183  -0.562   4.918   3.881 -1.5386 -0.7020 -0.9156
  357MOL0     H48184  -0.565   4.950   3.716 -3.1482 -1.8680  1.4444
  357MOL0     H48185  -0.699   5.117   3.925 -0.9185 -2.5396  1.4786
  357MOL0     H48186  -0.780   4.991   3.813 -0.7551  2.1725 -2.0003
  357MOL0     H48187  -0.744   5.153   3.632 -0.4155  0.4157 -0.6453
  357MOL0     H48188  -0.681   5.275   3.749 -3.3508  1.7648 -0.2173
  357MOL0     H48189  -0.966   5.158   3.780  1.0648 -0.7506 -1.2511
  357MOL0     H48190  -0.881   5.278   3.873 -0.3159 -0.4527 -0.1008
  357MOL0     H48191  -1.046   5.475   3.551 -1.0755 -0.3442  0.4566
  357MOL0     H48192  -0.294   5.292   3.868  1.4981  0.1648 -0.4110
  357MOL0     H48193   0.033   5.313   4.013  0.1860  0.6275 -2.5103
  357MOL0     H48194  -0.086   5.391   3.904 -0.5216 -0.1601 -0.7202
  357MOL0     H48195  -0.128   5.374   4.071 -0.9558 -0.2755 -0.0307
  358MOL0     O48196  10.960   3.989   9.806 -0.9384 -0.5406  0.5792
  358MOL0     C48197  11.006   4.054   9.898 -0.0539 -0.4180  0.1261
  358MOL0     O48198  11.016   4.010  10.033 -0.2842 -0.4770  0.7611
  358MOL0     C48199  10.951   3.899  10.081 -0.4806 -1.2806 -0.9734
  358MOL0     C48200  11.008   3.826  10.183 -0.1516 -0.7272  0.3281
  358MOL0     C48201  10.943   3.716  10.238  0.8711 -0.6394  0.9097
  358MOL0     C48202  10.815   3.686  10.199  0.2190  0.6684  0.3598
  358MOL0     O48203  10.749   3.591  10.263 -0.6887  0.5536 -0.3181
  358MOL0     C48204  10.627   3.539  10.208 -0.2604  0.4444 -0.6903
  358MOL0     C48205  10.597   3.409  10.294  0.2589  0.1602  0.1420
  358MOL0     C48206  10.462   3.337  10.255  0.0928  0.0829 -0.1756
  358MOL0     C48207  10.337   3.415  10.307  0.4320  0.3332  0.8620
  358MOL0     C48208  10.219   3.319  10.299  0.1200 -0.2430  0.1776
  358MOL0     C48209  10.215   3.228  10.419 -0.1553  0.4173 -0.9055
  358MOL0     C48210  10.087   3.147  10.424  0.3502  0.4804  0.6698
  358MOL0     C48211  10.082   3.051  10.543  1.0149 -0.2709  0.5048
  358MOL0     N48212   9.956   2.978  10.544  0.4893  0.0236  0.5865
  358MOL0     C48213   9.944   2.840  10.553  0.3889 -0.4873 -0.3251
  358MOL0     C48214   9.813   2.823  10.541 -0.1307  0.4286  0.2353
  358MOL0     C48215   9.746   2.692  10.566  0.3277  0.3167 -0.1470
  358MOL0     C48216   9.639   2.697  10.670  0.4095  0.0574 -0.7148
  358MOL0     C48217   9.582   2.552  10.697  1.0980 -0.9286  0.7353
  358MOL0     C48218   9.682   2.448  10.737  0.4121  0.3995  0.0433
  358MOL0     O48219   9.755   2.388  10.629  0.2352  0.2307 -0.7718
  358MOL0     C48220   9.683   2.324  10.535  0.7258  0.0769 -0.1677
  358MOL0     C48221   9.689   2.360  10.403 -0.0680 -0.0953  0.0809
  358MOL0     C48222   9.616   2.286  10.312  0.2606  0.2967 -0.1103
  358MOL0     C48223   9.522   2.183  10.348 -0.4388 -0.3838  0.3878
  358MOL0     C48224   9.436   2.112  10.248  0.1857 -0.1668  0.0927
  358MOL0     O48225   9.320   2.057  10.307 -0.0949  0.3139 -0.2603
  358MOL0     C48226   9.262   1.939  10.278 -0.4575 -0.2286 -0.9072
  358MOL0     C48227   9.308   1.849  10.188 -0.8189  0.8070  1.1503
  358MOL0     C48228   9.237   1.730  10.151 -0.2086 -0.3978 -0.0704
  358MOL0     C48229   9.115   1.708  10.210  1.4045 -0.0697 -0.6867
  358MOL0     O48230   9.056   1.589  10.179 -0.5035 -0.0777  0.3967
  358MOL0     C48231   8.923   1.549  10.219  0.0398  0.4264  0.9413
  358MOL0     C48232   8.864   1.437  10.126  0.1454 -0.4380 -0.6809
  358MOL0     C48233   8.873   1.478   9.977 -0.2915 -0.3989  0.2379
  358MOL0     C48234   8.750   1.559   9.946 -0.2483  0.5788  0.5481
  358MOL0     C48235   8.759   1.635   9.817 -0.0072  0.0393 -0.1836
  358MOL0     C48236   8.772   1.551   9.686 -0.6732  0.8867 -0.2916
  358MOL0     C48237   8.917   1.542   9.641 -0.9968  0.7787 -0.4588
  358MOL0     C48238   8.972   1.659   9.553  0.4357 -0.1577 -0.3251
  358MOL0    Cl48239   9.141   1.654   9.521 -0.0309  0.0210 -0.5891
  358MOL0     C48240   9.064   1.800  10.304 -0.2493 -0.3515 -0.7159
  358MOL0     C48241   9.137   1.918  10.335 -0.5287 -0.4941  0.1511
  358MOL0     O48242   9.472   2.090  10.135  0.7602  0.3383  0.9166
  358MOL0     C48243   9.514   2.148  10.478 -0.3368 -0.1217 -1.1148
  358MOL0     C48244   9.593   2.218  10.575  0.8916  0.5343  0.7437
  358MOL0     N48245   9.751   2.940  10.499  0.4795 -0.1947 -0.6771
  358MOL0     N48246   9.833   3.041  10.523  0.0829  0.6650  0.5685
  358MOL0     C48247  10.753   3.760  10.093 -0.6789  0.2307  0.1145
  358MOL0     C48248  10.825   3.866  10.040 -0.7468 -0.5259  0.5136
  358MOL0     C48249  11.065   4.185   9.859 -0.5058 -0.1845 -1.0062
  358MOL0     C48250  11.179   4.233   9.920  0.6080 -0.8120 -0.5608
  358MOL0     C48251  11.244   4.349   9.881  0.4225  0.2386 -0.2780
  358MOL0     C48252  11.196   4.421   9.766 -0.6276 -0.1802 -0.3424
  358MOL0     O48253  11.256   4.533   9.721 -0.8740  0.1972 -0.2807
  358MOL0     C48254  11.230   4.571   9.583  0.4435 -0.0450 -0.5435
  358MOL0     C48255  11.290   4.477   9.485 -0.4852  0.2759  0.5063
  358MOL0     C48256  11.439   4.460   9.496  0.8224  0.7799  0.5684
  358MOL0     C48257  11.497   4.402   9.356  0.2179  0.3962 -0.6353
  358MOL0     C48258  11.649   4.388   9.361  0.3414 -0.2674 -0.5544
  358MOL0     C48259  11.770   4.379   9.351  0.2988  1.0958 -0.7891
  358MOL0     C48260  11.075   4.367   9.712 -0.0442 -0.1673 -0.0185
  358MOL0     C48261  11.007   4.261   9.754 -0.0763  0.1273 -0.2592
  358MOL0     C48262  10.892   4.219   9.666  0.0864 -0.0114 -0.2591
  358MOL0     H48263  11.105   3.855  10.224 -1.9590  2.5250  2.7433
  358MOL0     H48264  10.999   3.651  10.304  0.0355 -1.5444  0.7513
  358MOL0     H48265  10.546   3.608  10.232 -2.1995 -2.0906  0.6633
  358MOL0     H48266  10.623   3.523  10.100 -1.1469 -0.7967 -0.5078
  358MOL0     H48267  10.591   3.458  10.392  2.9625 -2.2415  1.6280
  358MOL0     H48268  10.691   3.355  10.301  1.2346  1.8627  0.9126
  358MOL0     H48269  10.471   3.240  10.304 -0.8471 -0.5324 -1.1826
  358MOL0     H48270  10.462   3.324  10.147 -0.6322  0.4228 -0.2213
  358MOL0     H48271  10.362   3.456  10.405  1.9422  3.1429 -0.5863
  358MOL0     H48272  10.320   3.498  10.238  2.4981 -0.0922 -0.2571
  358MOL0     H48273  10.123   3.372  10.301 -0.4181 -1.1933  2.8119
  358MOL0     H48274  10.229   3.271  10.201  2.9308  2.9494 -1.3590
  358MOL0     H48275  10.307   3.170  10.415  0.2467  0.9796 -0.1806
  358MOL0     H48276  10.224   3.277  10.516  0.8458  0.0563 -0.8127
  358MOL0     H48277  10.103   3.102  10.325  0.1730  0.9434  0.4275
  358MOL0     H48278   9.999   3.212  10.418 -0.7928 -0.7584  2.8408
  358MOL0     H48279  10.163   2.982  10.519 -0.9463 -1.0354 -5.4116
  358MOL0     H48280  10.091   3.102  10.640  4.3923  1.0937 -0.3645
  358MOL0     H48281  10.024   2.767  10.562  0.3410 -0.5408 -0.3340
  358MOL0     H48282   9.712   2.648  10.473 -2.3986 -0.8734  1.3196
  358MOL0     H48283   9.830   2.633  10.605  1.5659  2.4246  0.5928
  358MOL0     H48284   9.686   2.740  10.758  3.7874  1.8577 -3.1439
  358MOL0     H48285   9.552   2.756  10.638 -0.1459 -0.1651  0.3435
  358MOL0     H48286   9.522   2.528  10.608  0.2724 -2.1416  1.5827
  358MOL0     H48287   9.502   2.547  10.772 -3.5487 -4.7286 -3.7021
  358MOL0     H48288   9.650   2.356  10.788 -0.2231  0.1566 -0.7770
  358MOL0     H48289   9.768   2.487  10.793  2.8195 -3.1373 -0.8344
  358MOL0     H48290   9.741   2.454  10.393  1.1284 -0.5068  1.8876
  358MOL0     H48291   9.619   2.310  10.206 -0.2269 -0.9853 -0.4265
  358MOL0     H48292   9.398   1.869  10.130 -0.7631 -1.8568  0.1835
  358MOL0     H48293   9.258   1.662  10.069 -0.6761  0.4378 -0.9005
  358MOL0     H48294   8.934   1.503  10.317  0.0073  0.1504  0.8174
  358MOL0     H48295   8.853   1.633  10.220  0.5555  1.0064 -2.1127
  358MOL0     H48296   8.929   1.351  10.144 -0.5931 -0.6493  1.2321
  358MOL0     H48297   8.765   1.401  10.156  0.2427 -2.0234 -2.1244
  358MOL0     H48298   8.967   1.526   9.950 -0.1531 -0.5580  0.4322
  358MOL0     H48299   8.873   1.393   9.908  2.6830 -1.0122  0.8644
  358MOL0     H48300   8.723   1.622  10.031  0.1993 -0.3194  1.3836
  358MOL0     H48301   8.670   1.486   9.926  0.5134 -0.2996  0.6516
  358MOL0     H48302   8.841   1.708   9.818  0.1367 -0.0363  2.7916
  358MOL0     H48303   8.665   1.689   9.806 -0.8334 -1.6282 -1.9373
  358MOL0     H48304   8.731   1.450   9.695 -0.8536  0.7867 -1.8854
  358MOL0     H48305   8.710   1.595   9.607 -0.7572 -1.7136 -1.7792
  358MOL0     H48306   8.924   1.453   9.577  1.0354  0.3859  0.2383
  358MOL0     H48307   8.991   1.529   9.720  2.1357 -1.1600 -3.4410
  358MOL0     H48308   8.929   1.647   9.454  0.0438 -1.1949 -0.0428
  358MOL0     H48309   8.941   1.750   9.607  1.2932 -0.4298  0.6620
  358MOL0     H48310   8.985   1.769  10.372 -0.5344 -1.1726 -1.4043
  358MOL0     H48311   9.097   1.992  10.404  1.5080  0.7356  0.1130
  358MOL0     H48312   9.429   2.089  10.510 -0.9777  1.2328 -0.1731
  358MOL0     H48313   9.580   2.187  10.678 -2.2972  1.3343  0.6697
  358MOL0     H48314  10.655   3.733  10.056  0.7528 -4.0754 -1.2101
  358MOL0     H48315  10.783   3.926   9.960 -1.5403  0.1316  1.3904
  358MOL0     H48316  11.224   4.180  10.004  1.3459 -1.9393 -1.6352
  358MOL0     H48317  11.336   4.381   9.929  0.9595 -0.5572 -0.7296
  358MOL0     H48318  11.284   4.666   9.578 -2.7909  1.9609 -0.1312
  358MOL0     H48319  11.124   4.593   9.576  0.6500  2.4193  2.3115
  358MOL0     H48320  11.261   4.515   9.386  0.6315  3.2286  1.2190
  358MOL0     H48321  11.246   4.378   9.500  1.4966 -0.3730  2.5019
  358MOL0     H48322  11.453   4.392   9.580 -0.6507 -0.9427 -0.5078
  358MOL0     H48323  11.478   4.560   9.518  1.0684  0.3649  2.0918
  358MOL0     H48324  11.450   4.305   9.337  1.3924 -0.0634 -1.3004
  358MOL0     H48325  11.484   4.472   9.273  0.3052  0.7827 -0.3216
  358MOL0     H48326  11.875   4.364   9.343  0.2109 -1.7868  1.8515
  358MOL0     H48327  11.025   4.424   9.635 -1.0771 -0.9902  0.0214
  358MOL0     H48328  10.940   4.147   9.599  4.9816  2.6777 -0.1326
  358MOL0     H48329  10.814   4.169   9.725  0.0664  0.2979 -0.0219
  358MOL0     H48330  10.831   4.295   9.617 -1.9248 -0.7820  0.9060
  359MOL0     O48331  10.636   8.553   6.483 -1.0180 -0.0167 -0.3784
  359MOL0     C48332  10.686   8.452   6.530  0.0985  0.8646 -0.2335
  359MOL0     O48333  10.737   8.443   6.663 -0.1216  0.1600 -0.4325
  359MOL0     C48334  10.796   8.549   6.728  0.3166 -0.2445 -0.2383
  359MOL0     C48335  10.832   8.666   6.677  0.3178 -1.0817 -0.7750
  359MOL0     C48336  10.885   8.768   6.752 -0.0617 -0.2063 -0.0875
  359MOL0     C48337  10.928   8.747   6.890  0.2089 -0.1554 -0.1632
  359MOL0     O48338  10.964   8.847   6.984  0.6366  0.7636  0.6313
  359MOL0     C48339  11.100   8.888   6.973 -0.4205  1.3242  0.2368
  359MOL0     C48340  11.104   9.040   6.994 -1.0173 -0.1105 -0.2033
  359MOL0     C48341  11.240   9.103   7.042  0.6259 -0.4295 -0.7509
  359MOL0     C48342  11.290   9.041   7.171 -0.6231 -0.5008  0.2063
  359MOL0     C48343  11.418   9.108   7.229  0.4380  0.0446  0.6229
  359MOL0     C48344  11.471   9.048   7.361  0.4463 -0.3902 -0.4173
  359MOL0     C48345  11.605   9.113   7.392  0.2074  0.2374  0.0767
  359MOL0     C48346  11.612   9.230   7.495 -0.3329  0.3284  0.0055
  359MOL0     N48347  11.751   9.270   7.533  0.6656  0.5325 -0.2960
  359MOL0     C48348  11.795   9.393   7.505 -0.9521 -0.4422 -0.3807
  359MOL0     C48349  11.923   9.392   7.570 -0.0403 -0.5223 -0.6410
  359MOL0     C48350  12.023   9.511   7.562  0.2912 -0.0125  0.8322
  359MOL0     C48351  12.176   9.470   7.577  0.5035  0.2254  0.0169
  359MOL0     C48352  12.289   9.548   7.521 -0.7776 -0.7210 -0.1566
  359MOL0     C48353  12.411   9.485   7.549  0.3514  0.2054 -0.2636
  359MOL0     O48354  12.510   9.570   7.484  0.2151 -0.4739  0.5420
  359MOL0     C48355  12.645   9.531   7.482 -0.0997  0.8363  0.1282
  359MOL0     C48356  12.694   9.395   7.505  0.2253 -0.0384 -0.2787
  359MOL0     C48357  12.830   9.379   7.530  0.0663  0.0687 -0.0517
  359MOL0     C48358  12.921   9.484   7.524 -0.0044  0.0262  0.3534
  359MOL0     C48359  13.066   9.464   7.550  0.3281 -0.1452  0.4003
  359MOL0     O48360  13.152   9.570   7.561  1.1215 -0.2504 -0.1028
  359MOL0     C48361  13.264   9.568   7.639  0.4595 -0.3874 -0.2361
  359MOL0     C48362  13.299   9.468   7.736  1.1314  0.1473 -0.8424
  359MOL0     C48363  13.410   9.470   7.820  1.3645  0.5923  0.2266
  359MOL0     C48364  13.509   9.562   7.789 -0.8388  0.5202  0.3163
  359MOL0     O48365  13.623   9.558   7.864 -0.2177 -0.8104 -0.1443
  359MOL0     C48366  13.742   9.590   7.801  0.0243 -0.2438  0.8135
  359MOL0     C48367  13.853   9.563   7.899 -0.2005  0.0551 -0.0092
  359MOL0     C48368  13.986   9.611   7.856  0.3239  0.1036  0.3895
  359MOL0     C48369  14.004   9.765   7.874  0.0516 -0.2756 -0.1137
  359MOL0     C48370  14.159   9.815   7.881  0.6789 -0.6831 -0.4797
  359MOL0     C48371  14.233   9.764   7.751  0.1829 -0.9060  0.3491
  359MOL0     C48372  14.196   9.830   7.612 -0.2531 -0.4222 -1.2356
  359MOL0     C48373  14.320   9.830   7.525  0.2838  0.6939 -0.3941
  359MOL0    Cl48374  14.470   9.891   7.610 -0.1201 -0.0294 -0.5688
  359MOL0     C48375  13.474   9.666   7.701 -0.0657  0.6942 -0.5192
  359MOL0     C48376  13.355   9.667   7.626 -0.0379  0.5275  0.1626
  359MOL0     O48377  13.101   9.350   7.567  0.5153  0.7568 -0.7046
  359MOL0     C48378  12.872   9.610   7.482  0.6463  0.1825  1.0788
  359MOL0     C48379  12.737   9.641   7.471  0.1399 -0.1103 -0.0034
  359MOL0     N48380  11.960   9.266   7.607  0.1686  0.8438 -0.3402
  359MOL0     N48381  11.856   9.198   7.591 -0.4475 -0.0946  0.3420
  359MOL0     C48382  10.873   8.627   6.942 -0.9004  0.4060 -0.5851
  359MOL0     C48383  10.816   8.528   6.866 -0.7332 -0.7847  0.1566
  359MOL0     C48384  10.661   8.329   6.459 -0.4523  0.2451  0.0384
  359MOL0     C48385  10.631   8.214   6.543 -0.3533  0.4042  0.0587
  359MOL0     C48386  10.614   8.092   6.479  0.7973  0.2989 -0.6457
  359MOL0     C48387  10.615   8.078   6.344  0.0725 -0.3552 -0.7511
  359MOL0     O48388  10.607   7.956   6.275 -0.0854  0.0336 -0.4158
  359MOL0     C48389  10.625   7.827   6.344 -0.5367  0.3723 -0.3055
  359MOL0     C48390  10.771   7.826   6.387 -0.9349  0.0849 -0.4965
  359MOL0     C48391  10.791   7.698   6.458 -0.2781  0.3112 -0.3275
  359MOL0     C48392  10.921   7.668   6.503 -0.2010  0.1288 -0.6173
  359MOL0     C48393  10.989   7.780   6.579 -0.0720 -0.0024 -1.1089
  359MOL0     C48394  11.044   7.867   6.650 -1.0865  0.3885  0.2225
  359MOL0     C48395  10.630   8.191   6.268 -0.3566 -1.0697 -0.2889
  359MOL0     C48396  10.660   8.313   6.319  1.3582  0.7887  0.2053
  359MOL0     C48397  10.678   8.424   6.218 -0.4542 -0.8732  0.7983
  359MOL0     H48398  10.811   8.686   6.572 -0.6025  0.2490 -0.3701
  359MOL0     H48399  10.912   8.855   6.693  0.0152  0.3950  0.8167
  359MOL0     H48400  11.162   8.850   7.055  1.7632  1.2389 -1.3479
  359MOL0     H48401  11.135   8.859   6.873 -2.3853  0.7055 -0.3032
  359MOL0     H48402  11.024   9.084   7.054  0.3070  1.9966  0.1351
  359MOL0     H48403  11.080   9.078   6.894 -0.7754  1.0556  0.1590
  359MOL0     H48404  11.240   9.213   7.039 -0.2638 -0.4438 -1.7983
  359MOL0     H48405  11.312   9.075   6.964 -0.3306 -0.4941 -1.6244
  359MOL0     H48406  11.217   9.053   7.252 -1.0475 -2.5812  0.1885
  359MOL0     H48407  11.301   8.932   7.164 -1.0866 -0.4816 -1.1995
  359MOL0     H48408  11.499   9.097   7.156  1.3025 -4.4464  1.9645
  359MOL0     H48409  11.404   9.216   7.218 -3.9555 -0.2376  1.5951
  359MOL0     H48410  11.400   9.062   7.443 -0.1498  2.1265 -1.2591
  359MOL0     H48411  11.491   8.943   7.339  1.1461 -0.1011 -1.2208
  359MOL0     H48412  11.638   9.154   7.296 -0.7844 -0.4118 -0.5537
  359MOL0     H48413  11.679   9.039   7.425  2.4512  1.3204 -2.1568
  359MOL0     H48414  11.552   9.310   7.450 -2.4351 -2.3472 -2.2945
  359MOL0     H48415  11.566   9.190   7.586 -2.2246 -1.2456 -1.5549
  359MOL0     H48416  11.745   9.473   7.451 -0.7517 -0.5487 -0.7251
  359MOL0     H48417  11.999   9.562   7.468 -3.0878 -1.4212  0.7910
  359MOL0     H48418  11.995   9.579   7.643  1.7497 -0.5591  1.8268
  359MOL0     H48419  12.205   9.459   7.682 -0.6040 -1.2748  0.1979
  359MOL0     H48420  12.190   9.369   7.537  2.0566  0.3975  0.0806
  359MOL0     H48421  12.272   9.638   7.581  2.2674  1.0964 -1.7622
  359MOL0     H48422  12.277   9.580   7.417 -0.0969 -1.7430 -0.5696
  359MOL0     H48423  12.399   9.383   7.512  3.3351 -0.2115 -0.3371
  359MOL0     H48424  12.429   9.489   7.657  0.0780 -1.0370 -0.1588
  359MOL0     H48425  12.616   9.320   7.512 -0.7576  0.6699 -2.6057
  359MOL0     H48426  12.872   9.279   7.540  2.4706  0.3594 -4.7197
  359MOL0     H48427  13.223   9.396   7.764  1.9434  0.7307  3.8211
  359MOL0     H48428  13.415   9.401   7.903  1.4906  0.6868  0.2985
  359MOL0     H48429  13.764   9.532   7.711 -0.7141  3.8362 -2.3069
  359MOL0     H48430  13.746   9.695   7.769 -1.0599 -0.8500 -1.5432
  359MOL0     H48431  13.830   9.608   7.996 -0.2029 -1.2904  0.6365
  359MOL0     H48432  13.850   9.455   7.914  1.7458  0.1941  1.7714
  359MOL0     H48433  14.054   9.561   7.926  0.3641  0.6149  0.7188
  359MOL0     H48434  14.001   9.579   7.752 -0.7047  3.0941 -0.7951
  359MOL0     H48435  13.967   9.792   7.974  0.1188 -0.5585 -0.0120
  359MOL0     H48436  13.942   9.824   7.805 -2.0069  0.9218  2.5717
  359MOL0     H48437  14.206   9.762   7.964  1.4268 -1.9469 -1.6652
  359MOL0     H48438  14.171   9.923   7.895  0.3112 -0.7456  0.3960
  359MOL0     H48439  14.337   9.782   7.781 -0.3757  2.4659  0.6255
  359MOL0     H48440  14.224   9.657   7.731 -0.1088 -0.9210  0.5571
  359MOL0     H48441  14.151   9.929   7.621 -1.7331 -1.1820  0.3836
  359MOL0     H48442  14.127   9.772   7.551  0.4344 -0.6559 -1.8096
  359MOL0     H48443  14.338   9.731   7.482 -2.4797  0.0221 -0.1943
  359MOL0     H48444  14.296   9.911   7.456  2.6008  2.9642  1.2735
  359MOL0     H48445  13.542   9.750   7.694  0.0931  0.7186  1.0202
  359MOL0     H48446  13.318   9.749   7.565 -1.3624 -0.8363 -0.9649
  359MOL0     H48447  12.936   9.697   7.477 -0.2212  0.7953  0.0207
  359MOL0     H48448  12.695   9.740   7.457 -2.8716 -1.4885 -1.6320
  359MOL0     H48449  10.892   8.594   7.044 -0.5543 -0.0659 -0.7922
  359MOL0     H48450  10.773   8.438   6.909 -2.7516  0.2386  0.4096
  359MOL0     H48451  10.612   8.225   6.649  2.7260 -0.5838  0.8082
  359MOL0     H48452  10.602   8.011   6.550  2.3251 -0.4994 -1.2564
  359MOL0     H48453  10.594   7.754   6.269 -2.4213  0.4252  0.3648
  359MOL0     H48454  10.561   7.813   6.432 -0.1269  0.5968  0.0343
  359MOL0     H48455  10.796   7.910   6.452 -0.0492  0.1768 -0.9415
  359MOL0     H48456  10.841   7.843   6.304  2.3262 -0.9422  1.8625
  359MOL0     H48457  10.746   7.630   6.385 -1.8805 -0.0804  0.9608
  359MOL0     H48458  10.732   7.699   6.550  2.6801  0.3629  1.7060
  359MOL0     H48459  10.921   7.589   6.578  2.5973 -0.8809 -1.5412
  359MOL0     H48460  10.987   7.630   6.424 -1.4211 -2.4243 -0.5110
  359MOL0     H48461  11.087   7.931   6.725  1.8729 -2.0500  0.7839
  359MOL0     H48462  10.617   8.179   6.161  2.6958  0.7734 -0.9974
  359MOL0     H48463  10.626   8.519   6.232  1.5760  0.2397  1.1240
  359MOL0     H48464  10.780   8.452   6.190 -0.6189  1.0380  1.9450
  359MOL0     H48465  10.633   8.402   6.121 -1.0826  2.6517  0.1552
  360MOL0     O48466   1.818   4.689   2.760  0.3206  0.2297 -0.4149
  360MOL0     C48467   1.700   4.691   2.746  0.8014 -0.7347 -0.2809
  360MOL0     O48468   1.631   4.602   2.674 -0.5334  0.0393  0.0055
  360MOL0     C48469   1.689   4.482   2.632  0.5706 -0.6806  0.0215
  360MOL0     C48470   1.628   4.363   2.659  0.2141 -0.4375  0.0637
  360MOL0     C48471   1.680   4.243   2.613  0.1474  0.8709  0.8589
  360MOL0     C48472   1.803   4.242   2.558  0.1505  0.3602 -1.0528
  360MOL0     O48473   1.841   4.117   2.511  0.1317 -0.0037  0.5013
  360MOL0     C48474   1.953   4.060   2.568 -0.9530  0.5505  0.5873
  360MOL0     C48475   2.068   4.029   2.463  0.3019  0.6860  0.4908
  360MOL0     C48476   2.030   3.971   2.323 -0.5926  0.2106  0.3507
  360MOL0     C48477   2.143   3.889   2.257  0.0904  0.4488 -0.1733
  360MOL0     C48478   2.076   3.829   2.130  0.2290 -0.9283  0.3002
  360MOL0     C48479   2.160   3.714   2.064 -0.1596 -0.5316  0.0739
  360MOL0     C48480   2.087   3.661   1.950 -1.1467 -0.2784  0.5166
  360MOL0     C48481   2.133   3.528   1.887 -0.4930 -0.7206  0.0632
  360MOL0     N48482   2.280   3.510   1.881 -0.2207  0.3071 -0.3552
  360MOL0     C48483   2.367   3.604   1.828 -0.5668  0.5111 -0.4319
  360MOL0     C48484   2.494   3.557   1.851 -0.3052  0.8822  0.3148
  360MOL0     C48485   2.632   3.620   1.812 -0.3196  0.5474  0.2155
  360MOL0     C48486   2.726   3.636   1.934 -1.0035 -0.4317 -0.6978
  360MOL0     C48487   2.841   3.751   1.901 -1.3727  0.3183 -0.2257
  360MOL0     C48488   2.918   3.795   2.029  0.0724 -0.7240 -0.3249
  360MOL0     O48489   2.826   3.870   2.099  0.3631 -0.1222 -0.5085
  360MOL0     C48490   2.871   3.955   2.199  0.1714  0.9549 -0.3979
  360MOL0     C48491   2.775   4.026   2.269 -0.7051  0.0033  0.4540
  360MOL0     C48492   2.827   4.124   2.360 -0.1509  0.0868 -0.3508
  360MOL0     C48493   2.960   4.135   2.394  0.1962 -0.7547  0.1848
  360MOL0     C48494   3.000   4.235   2.496  0.3803 -0.1259 -1.0821
  360MOL0     O48495   2.898   4.304   2.560  0.3305 -0.1207  0.2391
  360MOL0     C48496   2.937   4.418   2.632  0.5456  0.7607  0.3450
  360MOL0     C48497   3.049   4.430   2.711  0.6637  1.0270  1.0440
  360MOL0     C48498   3.080   4.543   2.780 -0.4003 -1.0829  0.6367
  360MOL0     C48499   3.001   4.661   2.767  0.1716 -0.0925 -0.6638
  360MOL0     O48500   3.015   4.791   2.822  0.0569 -0.1708 -0.3322
  360MOL0     C48501   3.142   4.807   2.887 -0.0146  0.5427  0.0926
  360MOL0     C48502   3.159   4.738   3.029  0.0272 -0.5825  0.7836
  360MOL0     C48503   3.072   4.814   3.127 -0.9695 -0.7766 -0.0669
  360MOL0     C48504   3.119   4.767   3.266  0.1283  0.9674  0.2411
  360MOL0     C48505   3.037   4.844   3.380  0.6015  0.4254  1.0967
  360MOL0     C48506   3.130   4.860   3.508  0.3542  0.4061 -0.5658
  360MOL0     C48507   3.146   4.730   3.587  0.4878  0.6905 -0.7908
  360MOL0     C48508   3.279   4.727   3.670 -1.0070  0.4622 -0.4986
  360MOL0    Cl48509   3.408   4.650   3.573  0.3706  0.2004 -0.0207
  360MOL0     C48510   2.883   4.644   2.702  0.4783 -0.5201  0.0766
  360MOL0     C48511   2.845   4.526   2.648  0.0583 -0.2489  0.5045
  360MOL0     O48512   3.123   4.258   2.508  0.3750 -0.4706 -0.0711
  360MOL0     C48513   3.057   4.043   2.339 -0.8770  0.2359  0.5790
  360MOL0     C48514   3.012   3.958   2.237 -0.3016  0.1646  0.3093
  360MOL0     N48515   2.485   3.432   1.910  1.0917 -1.1518  0.2916
  360MOL0     N48516   2.359   3.404   1.931  0.2525  0.1083  0.3433
  360MOL0     C48517   1.871   4.359   2.525 -0.2422 -0.0056 -0.4121
  360MOL0     C48518   1.810   4.477   2.563  0.0945  0.6209  0.5965
  360MOL0     C48519   1.616   4.800   2.806  0.6894 -0.0207  0.5852
  360MOL0     C48520   1.477   4.807   2.774  1.4922 -1.2269  0.2789
  360MOL0     C48521   1.391   4.914   2.804 -0.3014 -1.0771  0.0645
  360MOL0     C48522   1.457   5.023   2.879  0.5555  0.5605 -0.4821
  360MOL0     O48523   1.390   5.130   2.928 -0.4414  0.2796  0.4721
  360MOL0     C48524   1.247   5.146   2.911 -0.0908  0.3950 -0.2271
  360MOL0     C48525   1.214   5.286   2.986  0.7256  0.3084 -0.0121
  360MOL0     C48526   1.065   5.289   2.991  0.4472 -0.2906  0.4115
  360MOL0     C48527   1.009   5.405   3.084  0.2146 -0.4493 -0.1319
  360MOL0     C48528   0.869   5.372   3.119 -0.2765 -0.3819 -0.2703
  360MOL0     C48529   0.751   5.349   3.140  0.0288 -0.2803 -0.0925
  360MOL0     C48530   1.583   5.014   2.928 -0.4234  0.8630  0.0875
  360MOL0     C48531   1.663   4.902   2.895 -0.0186 -0.2697  0.4122
  360MOL0     C48532   1.791   4.889   2.963  0.3886 -0.7129  0.0716
  360MOL0     H48533   1.531   4.346   2.704  0.2489 -1.1509 -0.1148
  360MOL0     H48534   1.629   4.151   2.638  1.4788  0.5792  2.7029
  360MOL0     H48535   2.002   4.115   2.649  1.1387  2.1355 -1.6032
  360MOL0     H48536   1.932   3.959   2.603 -0.6058  0.5694  0.8616
  360MOL0     H48537   2.134   3.961   2.519 -0.4735  1.6812  2.7602
  360MOL0     H48538   2.131   4.115   2.440  1.1284 -0.0798 -0.1778
  360MOL0     H48539   2.008   4.045   2.246  0.1463 -0.5352 -0.6054
  360MOL0     H48540   1.937   3.915   2.335 -1.0696  1.2321  1.7439
  360MOL0     H48541   2.229   3.952   2.233  1.2943 -1.7316 -1.9877
  360MOL0     H48542   2.175   3.813   2.329 -0.9517  0.7684  0.6500
  360MOL0     H48543   1.972   3.803   2.154  1.4667 -3.6635  3.4503
  360MOL0     H48544   2.072   3.905   2.051 -0.0105  0.4765  1.6038
  360MOL0     H48545   2.257   3.756   2.035 -1.0561  1.0430 -0.7484
  360MOL0     H48546   2.177   3.635   2.138  0.3109 -1.4490 -0.9867
  360MOL0     H48547   2.068   3.731   1.868 -5.9209 -3.3198 -1.4098
  360MOL0     H48548   1.988   3.630   1.983 -1.7351  1.7533  0.8348
  360MOL0     H48549   2.101   3.433   1.931  1.3754 -1.6490 -0.4945
  360MOL0     H48550   2.092   3.534   1.785  1.2580  3.9658 -0.6005
  360MOL0     H48551   2.336   3.692   1.773  2.3809  0.6815 -2.0693
  360MOL0     H48552   2.676   3.566   1.727  0.2531  1.3034  0.0262
  360MOL0     H48553   2.609   3.716   1.763 -3.4783 -0.8944 -1.4953
  360MOL0     H48554   2.667   3.674   2.018  0.7964  2.2232 -0.5077
  360MOL0     H48555   2.781   3.546   1.963 -0.4283  0.6207  1.7939
  360MOL0     H48556   2.795   3.841   1.859 -1.3546  0.1765 -0.5553
  360MOL0     H48557   2.908   3.720   1.821  2.1642  1.7556  1.9381
  360MOL0     H48558   2.997   3.865   1.997 -0.0308 -1.5651 -2.6645
  360MOL0     H48559   2.963   3.715   2.088  1.7975 -0.0626 -0.6858
  360MOL0     H48560   2.667   4.021   2.254 -1.4200  3.5714  3.0046
  360MOL0     H48561   2.747   4.185   2.402 -1.5896  1.1188 -4.2074
  360MOL0     H48562   3.123   4.350   2.710  2.2776  2.4451  1.5130
  360MOL0     H48563   3.179   4.542   2.825 -1.7332  1.0876  3.9812
  360MOL0     H48564   3.213   4.750   2.826 -1.4354 -1.3988  0.1696
  360MOL0     H48565   3.156   4.916   2.886 -5.1985  1.4600 -1.1454
  360MOL0     H48566   3.122   4.635   3.027 -1.8527  0.0574 -1.4815
  360MOL0     H48567   3.263   4.745   3.063 -0.5829 -2.2347  3.3036
  360MOL0     H48568   3.086   4.923   3.120 -1.3913 -0.7544 -0.7334
  360MOL0     H48569   2.967   4.793   3.102 -1.4992  0.0528  1.3380
  360MOL0     H48570   3.223   4.798   3.268 -0.0523  2.0417 -2.5080
  360MOL0     H48571   3.128   4.658   3.270 -2.1477  0.7046 -0.1882
  360MOL0     H48572   2.944   4.787   3.387  1.1694 -1.4642 -3.1924
  360MOL0     H48573   3.016   4.942   3.336  2.0968 -0.5216 -2.0389
  360MOL0     H48574   3.232   4.888   3.484  1.1168 -0.0480  1.8540
  360MOL0     H48575   3.082   4.934   3.573  0.5793  0.9372 -1.0031
  360MOL0     H48576   3.136   4.633   3.537  0.2116 -2.4685  4.6520
  360MOL0     H48577   3.062   4.742   3.656 -2.0513 -0.6000 -3.4398
  360MOL0     H48578   3.312   4.824   3.710 -2.5899 -0.0963  2.4307
  360MOL0     H48579   3.248   4.671   3.758 -5.8105 -0.2447 -2.3450
  360MOL0     H48580   2.813   4.728   2.696  1.8989  0.6018 -1.4718
  360MOL0     H48581   2.747   4.514   2.603 -0.7228  1.3361  1.6805
  360MOL0     H48582   3.160   4.041   2.374 -0.9266 -1.3344  0.7073
  360MOL0     H48583   3.088   3.889   2.204 -1.7008 -0.8034 -1.0842
  360MOL0     H48584   1.964   4.350   2.471 -0.6041  0.6686 -1.1639
  360MOL0     H48585   1.854   4.572   2.536 -1.0537  0.9507 -0.1711
  360MOL0     H48586   1.450   4.731   2.702  0.0050  0.2309 -0.7848
  360MOL0     H48587   1.284   4.920   2.787 -0.5613  3.7562  2.0461
  360MOL0     H48588   1.194   5.061   2.955  0.2949 -0.4706 -1.3850
  360MOL0     H48589   1.235   5.146   2.802  2.1567 -0.8246 -0.5372
  360MOL0     H48590   1.255   5.369   2.928 -2.3982  1.6265 -0.5477
  360MOL0     H48591   1.252   5.304   3.087 -0.8057  0.9826  0.4739
  360MOL0     H48592   1.015   5.196   3.019 -0.1587 -0.2912 -0.5962
  360MOL0     H48593   1.040   5.303   2.885  0.6242  3.0537  0.6921
  360MOL0     H48594   1.060   5.427   3.179  1.9404  1.1963 -1.3696
  360MOL0     H48595   1.022   5.490   3.017 -0.4013  1.0720  1.5812
  360MOL0     H48596   0.645   5.350   3.148 -0.0701  1.7523 -0.9752
  360MOL0     H48597   1.628   5.093   2.988  1.9585 -0.0855 -0.3607
  360MOL0     H48598   1.877   4.897   2.896  1.3363 -2.2040  1.0287
  360MOL0     H48599   1.805   4.954   3.049 -0.6784  1.9055 -1.6343
  360MOL0     H48600   1.802   4.783   2.988  0.9878 -1.7404 -3.8609
  361MOL0     O48601   2.345   3.405   7.706 -0.2635 -0.1434 -1.0088
  361MOL0     C48602   2.312   3.392   7.823  0.9597  0.7469  0.2229
  361MOL0     O48603   2.331   3.277   7.890  0.2451 -0.0372 -0.2616
  361MOL0     C48604   2.417   3.178   7.847  0.4872 -0.4968 -0.3123
  361MOL0     C48605   2.542   3.190   7.785  0.0341 -0.1205  0.1892
  361MOL0     C48606   2.614   3.088   7.732 -0.6246  0.9256 -0.2727
  361MOL0     C48607   2.572   2.953   7.748  0.2055 -0.5641 -0.6231
  361MOL0     O48608   2.609   2.831   7.695 -0.8731  0.2762 -0.5269
  361MOL0     C48609   2.744   2.818   7.649  0.3286  0.3786  0.0788
  361MOL0     C48610   2.844   2.832   7.757 -0.0184  0.1791  0.5440
  361MOL0     C48611   2.964   2.750   7.715 -0.5862 -0.0282  0.3741
  361MOL0     C48612   3.025   2.792   7.576  0.4804 -0.3657  0.9664
  361MOL0     C48613   3.157   2.720   7.537 -0.2948 -0.2843 -0.3220
  361MOL0     C48614   3.279   2.783   7.601  0.6300 -0.4674  0.1667
  361MOL0     C48615   3.405   2.720   7.548 -0.2259  1.0267 -0.4852
  361MOL0     C48616   3.445   2.764   7.414 -0.2207  0.0972  0.0876
  361MOL0     N48617   3.590   2.771   7.409  0.1959  0.5436  1.2738
  361MOL0     C48618   3.671   2.723   7.312  0.8415 -0.3934  0.5173
  361MOL0     C48619   3.796   2.771   7.351  0.5178 -0.2519 -0.3764
  361MOL0     C48620   3.939   2.769   7.302 -0.1820 -0.0436 -1.3740
  361MOL0     C48621   3.970   2.665   7.197  0.6838 -0.6894 -0.4415
  361MOL0     C48622   4.098   2.692   7.138  0.4166 -0.2064 -0.1387
  361MOL0     C48623   4.144   2.576   7.050  0.2123 -0.3787 -0.4126
  361MOL0     O48624   4.244   2.629   6.960  0.7786 -0.2067 -0.0291
  361MOL0     C48625   4.287   2.560   6.855  0.4044  0.4685 -0.1075
  361MOL0     C48626   4.278   2.415   6.860  0.1570  0.1864  0.5403
  361MOL0     C48627   4.331   2.347   6.749  0.5098 -0.2820 -0.1482
  361MOL0     C48628   4.396   2.405   6.649 -0.7802 -0.4798 -0.5292
  361MOL0     C48629   4.460   2.326   6.538 -0.8574  0.3062  0.1820
  361MOL0     O48630   4.517   2.206   6.570 -0.2580  0.3819 -0.3976
  361MOL0     C48631   4.567   2.119   6.463  0.9449 -1.1384  0.2595
  361MOL0     C48632   4.703   2.073   6.468  0.8021  0.4105 -1.4080
  361MOL0     C48633   4.737   1.975   6.378  0.1927 -0.2503 -0.0797
  361MOL0     C48634   4.651   1.920   6.277  0.0411 -0.2478  0.3367
  361MOL0     O48635   4.682   1.815   6.188  0.0877  0.7679 -1.0707
  361MOL0     C48636   4.817   1.765   6.189 -0.0152  0.3155  0.7387
  361MOL0     C48637   4.859   1.719   6.044  0.8917 -0.2516  0.0573
  361MOL0     C48638   4.798   1.582   6.014  0.3378  0.2666  0.0137
  361MOL0     C48639   4.833   1.523   5.877  0.6388 -0.2446 -0.4948
  361MOL0     C48640   4.800   1.372   5.894 -0.9072 -0.0146 -0.7933
  361MOL0     C48641   4.762   1.302   5.765 -0.0045 -0.1293  0.1456
  361MOL0     C48642   4.615   1.320   5.730  0.3283 -0.2243 -0.0922
  361MOL0     C48643   4.529   1.228   5.809  0.2154  0.0679 -0.1589
  361MOL0    Cl48644   4.349   1.267   5.803 -0.1643  0.0910  0.1171
  361MOL0     C48645   4.528   1.987   6.256 -0.4831  1.2847 -0.1733
  361MOL0     C48646   4.485   2.078   6.355  0.2331 -1.1919 -0.5835
  361MOL0     O48647   4.451   2.375   6.425  0.1705  0.5102 -0.2112
  361MOL0     C48648   4.409   2.542   6.643  0.0621  0.2587  0.0079
  361MOL0     C48649   4.350   2.618   6.746 -0.7583  0.5490  0.5494
  361MOL0     N48650   3.772   2.864   7.460 -0.5467  0.4643 -0.8924
  361MOL0     N48651   3.652   2.855   7.493  0.3435  0.0974 -0.1781
  361MOL0     C48652   2.451   2.940   7.827  0.2192 -0.3088 -0.3364
  361MOL0     C48653   2.375   3.047   7.873  0.0402 -0.3324  0.2155
  361MOL0     C48654   2.253   3.512   7.888 -0.1516 -0.1435  0.0587
  361MOL0     C48655   2.192   3.499   8.010 -0.2996  0.1938 -0.5445
  361MOL0     C48656   2.153   3.612   8.085  0.3757  0.2508  0.2150
  361MOL0     C48657   2.164   3.742   8.044 -0.0386 -0.1122  0.2004
  361MOL0     O48658   2.123   3.839   8.132  0.6469  0.0580  0.2742
  361MOL0     C48659   2.099   3.966   8.074 -0.2361  0.4623  0.1438
  361MOL0     C48660   2.038   4.046   8.185  0.7626 -0.3952 -0.0491
  361MOL0     C48661   1.901   3.983   8.222  0.5788 -0.3341  0.7400
  361MOL0     C48662   1.811   4.079   8.295  0.3796 -0.4713  0.0112
  361MOL0     C48663   1.877   4.160   8.393  0.3861  0.2722  0.2794
  361MOL0     C48664   1.909   4.219   8.491  0.6127 -0.9161  0.5281
  361MOL0     C48665   2.229   3.755   7.922  0.4541 -0.8830  0.3172
  361MOL0     C48666   2.276   3.649   7.844  0.1992  0.2164 -0.3734
  361MOL0     C48667   2.368   3.687   7.730  1.0509 -0.2471  0.6763
  361MOL0     H48668   2.589   3.288   7.786  0.9558 -0.5448 -0.0220
  361MOL0     H48669   2.713   3.101   7.689  0.0188 -0.2074  0.8051
  361MOL0     H48670   2.759   2.717   7.609  1.8916 -0.6753  2.9973
  361MOL0     H48671   2.768   2.884   7.565  3.4602 -1.6004 -0.7803
  361MOL0     H48672   2.806   2.781   7.847 -1.6258 -0.8310 -0.6514
  361MOL0     H48673   2.873   2.935   7.781  0.6336  0.2644 -0.5632
  361MOL0     H48674   2.930   2.646   7.716  0.7429 -0.4851  1.7259
  361MOL0     H48675   3.040   2.764   7.792  0.4114  2.4475 -0.9523
  361MOL0     H48676   2.954   2.778   7.494  0.5993  3.7058 -0.0704
  361MOL0     H48677   3.046   2.900   7.576 -1.3275  0.0407 -0.6792
  361MOL0     H48678   3.146   2.615   7.568 -3.4076  0.6494  2.3065
  361MOL0     H48679   3.168   2.738   7.430 -2.3810  1.1606 -0.3682
  361MOL0     H48680   3.272   2.889   7.574 -4.1855 -1.3170 -3.1119
  361MOL0     H48681   3.276   2.773   7.710  0.3090 -1.8823  0.0473
  361MOL0     H48682   3.404   2.611   7.540  1.5092  0.4480  4.0655
  361MOL0     H48683   3.484   2.727   7.623  1.3040 -2.8508 -1.5421
  361MOL0     H48684   3.402   2.699   7.337 -0.7186  3.7112 -3.0064
  361MOL0     H48685   3.406   2.864   7.390 -0.6898  0.1271  0.9485
  361MOL0     H48686   3.645   2.655   7.231  0.6699  0.5165 -0.2035
  361MOL0     H48687   3.967   2.868   7.263  1.9110 -0.3231 -0.7487
  361MOL0     H48688   4.007   2.755   7.387  1.5621  2.8504 -2.1274
  361MOL0     H48689   3.966   2.564   7.239 -0.9760 -0.2492  0.5284
  361MOL0     H48690   3.887   2.678   7.127 -1.4738 -1.1394  1.8980
  361MOL0     H48691   4.167   2.708   7.221 -1.3225  0.3924  1.2581
  361MOL0     H48692   4.081   2.780   7.077 -1.0060 -1.3369 -1.4499
  361MOL0     H48693   4.061   2.534   6.992 -0.6213 -1.5773  1.5717
  361MOL0     H48694   4.172   2.492   7.113 -0.2276  1.0398  1.7716
  361MOL0     H48695   4.216   2.365   6.934 -0.2908 -1.6801 -1.0025
  361MOL0     H48696   4.308   2.241   6.738 -2.0398 -0.1723  2.8178
  361MOL0     H48697   4.766   2.095   6.553 -0.3493 -3.2602  0.6024
  361MOL0     H48698   4.839   1.938   6.384 -0.7610 -3.0381  4.2052
  361MOL0     H48699   4.888   1.844   6.217  0.4668 -0.6163  2.2332
  361MOL0     H48700   4.823   1.683   6.261 -0.5069 -0.5818 -0.2184
  361MOL0     H48701   4.837   1.787   5.962 -0.1526 -3.0761 -2.1798
  361MOL0     H48702   4.968   1.712   6.045  0.9904  1.0847  0.1088
  361MOL0     H48703   4.838   1.522   6.096  0.2977 -0.3525 -0.4086
  361MOL0     H48704   4.688   1.589   6.015  0.1141 -0.1531 -3.9689
  361MOL0     H48705   4.940   1.541   5.870  0.8034 -0.4576  1.0369
  361MOL0     H48706   4.793   1.573   5.788 -2.8926  0.6490  1.4101
  361MOL0     H48707   4.731   1.349   5.975 -0.2588 -0.5067 -0.3774
  361MOL0     H48708   4.899   1.339   5.927  0.5786  4.0690 -0.5474
  361MOL0     H48709   4.826   1.331   5.681  1.5054 -0.1905  1.2395
  361MOL0     H48710   4.773   1.196   5.788 -1.8989 -0.2316  0.7911
  361MOL0     H48711   4.598   1.299   5.624 -1.1468 -2.0255  0.4428
  361MOL0     H48712   4.578   1.423   5.740 -0.1957 -0.5909  2.8095
  361MOL0     H48713   4.543   1.124   5.777  1.4499  0.0239  0.4671
  361MOL0     H48714   4.574   1.231   5.909  1.7648 -1.7907 -0.7394
  361MOL0     H48715   4.461   1.965   6.173  0.0870  2.2978 -0.9305
  361MOL0     H48716   4.377   2.088   6.355  0.2436 -1.0908 -1.0039
  361MOL0     H48717   4.457   2.595   6.562 -2.8505 -0.3232 -2.2829
  361MOL0     H48718   4.377   2.724   6.745 -2.8203  1.1279 -1.0227
  361MOL0     H48719   2.413   2.841   7.850  0.7308 -0.5476 -0.4952
  361MOL0     H48720   2.280   3.042   7.926  0.3553  2.6539  1.2515
  361MOL0     H48721   2.189   3.401   8.057  1.2189 -0.0089 -0.8325
  361MOL0     H48722   2.112   3.592   8.184  0.4795 -1.5397 -0.0766
  361MOL0     H48723   2.037   3.963   7.985 -0.6167  0.6098  0.4037
  361MOL0     H48724   2.191   4.022   8.056  0.1889 -0.8001 -2.0252
  361MOL0     H48725   2.008   4.147   8.155  0.2158 -0.5600 -0.0781
  361MOL0     H48726   2.105   4.056   8.271 -0.9926  1.5379  1.1970
  361MOL0     H48727   1.927   3.904   8.293  1.4584  0.7336  1.6269
  361MOL0     H48728   1.847   3.944   8.135  2.5710  1.8559 -1.6227
  361MOL0     H48729   1.768   4.145   8.219  1.0703 -0.2993 -0.2393
  361MOL0     H48730   1.725   4.027   8.338  0.3830 -0.1903  0.3542
  361MOL0     H48731   1.907   4.278   8.581 -0.6193 -2.0300  1.2526
  361MOL0     H48732   2.253   3.855   7.888 -0.4112 -0.2550  1.4788
  361MOL0     H48733   2.464   3.636   7.746  1.7842  0.4627 -1.1829
  361MOL0     H48734   2.325   3.652   7.636  0.9541 -1.4586  1.1569
  361MOL0     H48735   2.392   3.794   7.731  1.7557 -0.3642  2.9826
  362MOL0     O48736   8.602   8.652   0.355 -0.9267  0.3043 -0.4466
  362MOL0     C48737   8.596   8.618   0.469  0.3167 -0.1127 -0.7164
  362MOL0     O48738   8.522   8.687   0.560 -0.5762  0.1408  0.7055
  362MOL0     C48739   8.509   8.826   0.540  0.5922  0.0257  0.0290
  362MOL0     C48740   8.393   8.894   0.567 -0.6536  0.7505 -0.5046
  362MOL0     C48741   8.382   9.032   0.589  0.6259 -0.0326 -0.5495
  362MOL0     C48742   8.496   9.114   0.582  0.1391 -0.5346  1.0073
  362MOL0     O48743   8.472   9.250   0.594 -0.1469 -0.6006  0.1648
  362MOL0     C48744   8.581   9.344   0.599 -0.0373 -0.1480  0.3659
  362MOL0     C48745   8.547   9.459   0.703 -0.3824 -0.1548 -0.4559
  362MOL0     C48746   8.423   9.547   0.664 -0.6044  0.0920  1.0602
  362MOL0     C48747   8.457   9.681   0.586  0.6096  0.8596  0.5608
  362MOL0     C48748   8.547   9.777   0.661  0.4464 -0.1347 -0.6728
  362MOL0     C48749   8.569   9.899   0.569  0.4616  0.3480 -0.3950
  362MOL0     C48750   8.655  10.002   0.631  0.9186 -0.4110 -0.4857
  362MOL0     C48751   8.576  10.110   0.699  0.2388  0.7483  0.5696
  362MOL0     N48752   8.656  10.193   0.785 -0.1288  0.1720  0.5900
  362MOL0     C48753   8.723  10.302   0.735 -0.7430  0.2651  0.1066
  362MOL0     C48754   8.769  10.361   0.846  0.5192 -0.4763 -0.4086
  362MOL0     C48755   8.857  10.478   0.830  0.4997  0.2380 -1.8159
  362MOL0     C48756   8.789  10.618   0.828 -0.1228 -0.9185 -0.4490
  362MOL0     C48757   8.901  10.731   0.839 -0.5659 -1.0301 -0.8007
  362MOL0     C48758   8.822  10.870   0.852 -0.2454 -0.2377 -0.6121
  362MOL0     O48759   8.734  10.864   0.972  0.3094 -0.0117  0.4384
  362MOL0     C48760   8.789  10.920   1.082  0.3619 -0.2290 -0.6106
  362MOL0     C48761   8.866  10.834   1.171 -0.2490  0.3655 -0.3967
  362MOL0     C48762   8.917  10.876   1.289  0.7702 -0.7239  0.1077
  362MOL0     C48763   8.874  11.004   1.335  0.5864 -0.0151  1.1981
  362MOL0     C48764   8.928  11.049   1.467 -0.8469 -0.7778 -0.0120
  362MOL0     O48765   8.859  11.162   1.499  0.1400 -0.2976 -0.6167
  362MOL0     C48766   8.899  11.210   1.631  0.1179 -0.4176  0.2257
  362MOL0     C48767   8.957  11.337   1.642 -0.6775 -0.6514  0.5525
  362MOL0     C48768   8.997  11.383   1.765 -0.3130  1.2000 -0.0032
  362MOL0     C48769   8.958  11.319   1.886 -0.6514 -1.3199 -1.1458
  362MOL0     O48770   8.987  11.380   2.008  0.3934  0.8925 -0.2281
  362MOL0     C48771   8.987  11.524   2.030 -0.9421 -0.6633 -0.1100
  362MOL0     C48772   9.087  11.561   2.135  0.5991  0.1043  0.6211
  362MOL0     C48773   9.229  11.532   2.106  0.3934  0.5556  0.0974
  362MOL0     C48774   9.289  11.593   1.988 -0.2112  0.0238  0.0539
  362MOL0     C48775   9.430  11.531   1.969 -0.0834 -0.7623  0.0962
  362MOL0     C48776   9.517  11.620   1.880  0.1143 -0.2259 -0.0220
  362MOL0     C48777   9.468  11.655   1.740  0.8931  0.0437 -0.6384
  362MOL0     C48778   9.580  11.710   1.649 -0.8387  0.4780 -0.5168
  362MOL0    Cl48779   9.664  11.839   1.743 -0.0881 -0.8324 -0.1829
  362MOL0     C48780   8.896  11.194   1.873  0.2461  0.1615  1.0274
  362MOL0     C48781   8.882  11.136   1.751  1.1314 -0.4809 -0.6752
  362MOL0     O48782   9.016  11.003   1.532 -0.0792 -0.2393  0.8883
  362MOL0     C48783   8.799  11.085   1.250 -0.1335  0.5484 -0.0424
  362MOL0     C48784   8.762  11.051   1.120 -0.7112 -0.3453  0.1548
  362MOL0     N48785   8.730  10.294   0.958 -0.6808 -0.4964 -0.1751
  362MOL0     N48786   8.644  10.202   0.921 -0.2565  0.2941  0.3028
  362MOL0     C48787   8.613   9.054   0.544 -0.4206 -1.0987 -0.0264
  362MOL0     C48788   8.623   8.915   0.521 -0.0417  0.5037 -0.6142
  362MOL0     C48789   8.681   8.507   0.514 -0.0408  1.6645  0.2895
  362MOL0     C48790   8.607   8.395   0.553 -0.0365 -1.2569 -0.1010
  362MOL0     C48791   8.668   8.271   0.574 -0.1430 -0.6209  0.3367
  362MOL0     C48792   8.809   8.267   0.572  0.1099  0.1505  0.0817
  362MOL0     O48793   8.868   8.137   0.567 -0.3257 -0.4248 -0.1755
  362MOL0     C48794   8.999   8.118   0.613 -0.0840 -0.2640  0.0771
  362MOL0     C48795   9.019   7.971   0.633 -0.5361 -0.6448 -0.0657
  362MOL0     C48796   9.134   7.957   0.738  0.8833 -0.1715  0.1529
  362MOL0     C48797   9.173   7.808   0.747  0.9734 -0.7032  0.0611
  362MOL0     C48798   9.060   7.714   0.771 -0.0814 -0.1359  0.6146
  362MOL0     C48799   8.973   7.629   0.805  0.2674  0.6952  1.2350
  362MOL0     C48800   8.883   8.385   0.550  0.1263 -0.3430 -0.1002
  362MOL0     C48801   8.824   8.508   0.519  0.0087 -0.1828 -0.0595
  362MOL0     C48802   8.906   8.628   0.493 -0.3856 -0.2128 -0.4663
  362MOL0     H48803   8.310   8.826   0.580  0.5224 -0.9160 -1.2860
  362MOL0     H48804   8.289   9.078   0.622  1.0499 -0.0334  0.6957
  362MOL0     H48805   8.679   9.303   0.623 -0.4046 -1.3034 -0.0395
  362MOL0     H48806   8.601   9.373   0.495  2.9252 -4.5898 -0.5619
  362MOL0     H48807   8.631   9.529   0.707  1.3210 -2.1702  1.2533
  362MOL0     H48808   8.532   9.409   0.799  3.0722 -0.3012  0.1274
  362MOL0     H48809   8.362   9.581   0.749 -2.1279  1.8951 -0.6427
  362MOL0     H48810   8.363   9.484   0.599 -0.2887 -0.2219  1.0700
  362MOL0     H48811   8.511   9.654   0.494 -1.0184  1.7582 -0.7025
  362MOL0     H48812   8.357   9.718   0.563  1.0969  0.2849 -3.0586
  362MOL0     H48813   8.494   9.816   0.748 -1.9766  1.6669 -2.7923
  362MOL0     H48814   8.646   9.743   0.694  0.4954  0.1675 -0.4985
  362MOL0     H48815   8.626   9.870   0.480 -0.8501  3.2179 -2.3245
  362MOL0     H48816   8.481   9.951   0.530  0.9031  0.7038 -0.9278
  362MOL0     H48817   8.722  10.047   0.557 -0.3014  0.8648 -0.8713
  362MOL0     H48818   8.724   9.960   0.705  0.4111 -0.3959  0.0049
  362MOL0     H48819   8.516  10.166   0.627  1.3627  0.1527 -0.8877
  362MOL0     H48820   8.500  10.065   0.763 -0.3994 -2.4904 -2.1785
  362MOL0     H48821   8.732  10.331   0.631  0.0618  1.6290  0.5358
  362MOL0     H48822   8.935  10.475   0.906 -1.5785  0.1523  0.4304
  362MOL0     H48823   8.921  10.457   0.744  1.9726 -3.4314 -0.0122
  362MOL0     H48824   8.732  10.630   0.735  1.6941  3.5508 -1.2332
  362MOL0     H48825   8.729  10.634   0.918  1.3591  0.4826  0.3556
  362MOL0     H48826   8.952  10.739   0.742  1.2431  0.8781  0.2257
  362MOL0     H48827   8.972  10.717   0.921 -0.4886  0.9207 -0.4822
  362MOL0     H48828   8.772  10.889   0.757  1.9862 -4.2156 -2.8232
  362MOL0     H48829   8.882  10.962   0.853  0.8148 -0.7806 -3.8267
  362MOL0     H48830   8.889  10.730   1.148  3.6290  0.9932 -0.0651
  362MOL0     H48831   8.966  10.807   1.357  1.8585 -0.8438 -0.7707
  362MOL0     H48832   8.965  11.404   1.557  1.2912 -2.2249 -0.5774
  362MOL0     H48833   9.037  11.483   1.764 -0.1518  1.1349 -0.0792
  362MOL0     H48834   9.006  11.583   1.940 -0.9983  0.7038  0.7522
  362MOL0     H48835   8.894  11.545   2.082  0.0208 -1.0033  1.8331
  362MOL0     H48836   9.076  11.669   2.155 -1.0998 -0.1903  1.5384
  362MOL0     H48837   9.055  11.506   2.224  1.4965  1.2966  1.7237
  362MOL0     H48838   9.293  11.550   2.192  0.3912 -0.0393  0.2318
  362MOL0     H48839   9.232  11.422   2.097 -1.6183  0.4995 -0.4954
  362MOL0     H48840   9.293  11.702   2.000 -3.6033 -0.0165  3.0641
  362MOL0     H48841   9.229  11.567   1.900 -0.5848  0.5802  0.1433
  362MOL0     H48842   9.418  11.430   1.928 -2.0983 -0.5761  0.1498
  362MOL0     H48843   9.476  11.523   2.068 -0.9088  0.9327  0.6484
  362MOL0     H48844   9.545  11.711   1.933  2.9148 -0.7236 -0.4936
  362MOL0     H48845   9.612  11.568   1.863  1.2486  1.0892  1.9351
  362MOL0     H48846   9.381  11.718   1.759  0.0799 -2.1536  4.8849
  362MOL0     H48847   9.422  11.569   1.691 -3.7291  0.3610  2.5338
  362MOL0     H48848   9.663  11.643   1.626  1.3937  2.8778 -0.0532
  362MOL0     H48849   9.534  11.743   1.555  1.5917 -0.2648 -2.0496
  362MOL0     H48850   8.882  11.139   1.966 -0.8118 -2.3967 -0.5319
  362MOL0     H48851   8.862  11.029   1.748  1.4668 -0.6663  1.6974
  362MOL0     H48852   8.782  11.187   1.285 -0.2309 -0.0160  1.6641
  362MOL0     H48853   8.722  11.127   1.054  1.0172 -1.0745 -1.8674
  362MOL0     H48854   8.698   9.116   0.521 -0.1351 -0.6966  1.9165
  362MOL0     H48855   8.723   8.877   0.504  0.5548  1.7132  0.0335
  362MOL0     H48856   8.498   8.396   0.555 -0.1121  0.9954 -2.2187
  362MOL0     H48857   8.613   8.177   0.571  0.5305 -1.0019 -0.1498
  362MOL0     H48858   9.000   8.176   0.706 -0.2988  1.4559 -0.9531
  362MOL0     H48859   9.069   8.161   0.540  0.6856  1.5066  1.7604
  362MOL0     H48860   9.049   7.918   0.542  0.6238 -1.2833  0.6622
  362MOL0     H48861   8.935   7.927   0.686  0.2062 -1.7362  0.2336
  362MOL0     H48862   9.099   7.989   0.836  3.5867  0.8199  0.8694
  362MOL0     H48863   9.221   8.018   0.714 -1.1058  1.7512 -3.0213
  362MOL0     H48864   9.210   7.793   0.646 -0.5871  3.0329 -1.2193
  362MOL0     H48865   9.251   7.796   0.823  1.8056  3.3490  0.0225
  362MOL0     H48866   8.898   7.556   0.780  0.7715  1.2030 -2.1566
  362MOL0     H48867   8.991   8.372   0.549  0.5143  2.2562 -1.4229
  362MOL0     H48868   8.887   8.655   0.388 -2.3275 -0.5830 -0.2508
  362MOL0     H48869   8.862   8.704   0.558 -0.6782 -1.2747  0.5925
  362MOL0     H48870   9.013   8.611   0.504 -0.9343 -3.9503  0.3829
  363MOL0     O48871  11.432  10.882  10.987 -0.7065  0.4072 -0.2109
  363MOL0     C48872  11.428  10.757  10.988 -1.5489 -0.6572  0.8436
  363MOL0     O48873  11.309  10.688  10.987 -0.2902  0.6396 -0.8067
  363MOL0     C48874  11.185  10.736  11.009  1.5574  0.5743 -0.0232
  363MOL0     C48875  11.150  10.855  11.076 -0.3320  0.1895 -0.6900
  363MOL0     C48876  11.013  10.895  11.090  0.5314 -0.3198  0.6150
  363MOL0     C48877  10.912  10.820  11.038  0.3879 -0.3101  0.7358
  363MOL0     O48878  10.781  10.856  11.063 -0.4250 -0.1965 -0.6494
  363MOL0     C48879  10.676  10.812  10.969 -0.9122  1.2236 -0.8362
  363MOL0     C48880  10.544  10.882  10.991  0.2208  0.3157 -0.2187
  363MOL0     C48881  10.560  11.031  10.991 -0.2781  0.1137 -0.3772
  363MOL0     C48882  10.434  11.108  11.019 -0.0972 -0.1134  0.8186
  363MOL0     C48883  10.377  11.091  11.162 -0.1512  0.2053  0.9116
  363MOL0     C48884  10.245  11.163  11.175  0.3126 -0.5471 -0.5252
  363MOL0     C48885  10.164  11.132  11.303 -0.6070  0.2248 -0.4078
  363MOL0     C48886  10.036  11.224  11.322 -1.0222  0.4041  0.2025
  363MOL0     N48887   9.940  11.224  11.208 -0.4107  0.2910 -0.4601
  363MOL0     C48888   9.900  11.119  11.131 -0.5756  0.0532 -0.1707
  363MOL0     C48889   9.870  11.173  11.010  0.2688 -0.5238 -0.1138
  363MOL0     C48890   9.816  11.101  10.889 -0.1348  0.2826 -0.4357
  363MOL0     C48891   9.902  10.997  10.825  0.4069  0.1275  0.1425
  363MOL0     C48892  10.028  11.068  10.754  0.2827  0.8366 -0.8354
  363MOL0     C48893   9.988  11.151  10.636 -0.0049 -0.2711 -0.1737
  363MOL0     O48894  10.094  11.212  10.561 -0.1247 -0.1566  0.5010
  363MOL0     C48895  10.217  11.148  10.550  0.4061  1.2511  0.1702
  363MOL0     C48896  10.332  11.182  10.614 -0.0598  0.2330 -0.0633
  363MOL0     C48897  10.441  11.100  10.609 -0.4638  0.1377  0.1898
  363MOL0     C48898  10.451  10.983  10.538  0.4929 -0.3582  0.3839
  363MOL0     C48899  10.578  10.900  10.527 -0.3717 -0.1757 -0.1647
  363MOL0     O48900  10.675  10.910  10.615 -0.1255  0.0805 -0.7631
  363MOL0     C48901  10.777  10.819  10.625 -0.0896  0.2561  0.3676
  363MOL0     C48902  10.784  10.683  10.590 -0.4932 -0.7184 -0.1173
  363MOL0     C48903  10.901  10.609  10.599  0.7619 -0.3136  0.6206
  363MOL0     C48904  11.024  10.667  10.630 -0.8969  0.3019 -0.2255
  363MOL0     O48905  11.130  10.584  10.644  0.2762  1.0149 -0.8005
  363MOL0     C48906  11.260  10.639  10.634 -0.0482 -0.7879 -0.4424
  363MOL0     C48907  11.368  10.531  10.682  0.3013  0.5959 -0.7433
  363MOL0     C48908  11.405  10.431  10.568  0.5364  0.5575  0.2016
  363MOL0     C48909  11.533  10.350  10.588  0.5473 -0.2011 -0.1817
  363MOL0     C48910  11.538  10.246  10.471  0.1531 -0.9668 -0.7239
  363MOL0     C48911  11.637  10.135  10.514 -0.1363 -1.1291  0.1074
  363MOL0     C48912  11.654  10.020  10.412 -0.7825 -0.3605  0.4076
  363MOL0     C48913  11.797   9.977  10.424  0.2561 -0.9617 -0.2943
  363MOL0    Cl48914  11.825   9.835  10.308  0.4409 -0.1512 -0.0949
  363MOL0     C48915  11.015  10.797  10.671  0.4593 -0.5373 -0.3492
  363MOL0     C48916  10.893  10.870  10.674 -0.2004 -1.5302 -0.5762
  363MOL0     O48917  10.581  10.826  10.431 -0.2197 -0.7735  0.4719
  363MOL0     C48918  10.333  10.956  10.464  0.0998  0.8082  0.5660
  363MOL0     C48919  10.220  11.025  10.467 -0.0629 -0.3797 -0.2720
  363MOL0     N48920   9.871  11.310  11.030 -1.0547 -0.0179 -0.6000
  363MOL0     N48921   9.928  11.340  11.144 -0.7804  1.3089  0.9353
  363MOL0     C48922  10.948  10.707  10.961  0.0257  0.2376  0.2696
  363MOL0     C48923  11.082  10.672  10.951 -0.4858  0.6912  0.3871
  363MOL0     C48924  11.551  10.677  10.971  0.4880  0.3330  0.4840
  363MOL0     C48925  11.541  10.533  10.983 -0.0356 -0.4388 -1.5901
  363MOL0     C48926  11.644  10.448  10.950  1.0964  0.0555 -0.8062
  363MOL0     C48927  11.771  10.496  10.922  0.9081  0.0238 -0.1581
  363MOL0     O48928  11.873  10.414  10.884  0.0801  0.1578  0.1930
  363MOL0     C48929  11.851  10.275  10.865  0.9197 -0.3259 -0.6993
  363MOL0     C48930  11.990  10.210  10.863 -0.4133  0.9262  0.1744
  363MOL0     C48931  12.012  10.110  10.743  1.2482  0.0376  0.3731
  363MOL0     C48932  11.999   9.963  10.783 -0.9438  0.1821  0.0158
  363MOL0     C48933  11.877   9.940  10.849 -0.4980  0.7184 -0.3542
  363MOL0     C48934  11.778   9.901  10.912  0.0405 -0.1904 -0.7698
  363MOL0     C48935  11.793  10.632  10.924  0.1976 -0.0824 -0.2593
  363MOL0     C48936  11.686  10.723  10.944 -0.2177 -1.4797 -0.2253
  363MOL0     C48937  11.726  10.874  10.941  0.0132  0.4982 -0.1337
  363MOL0     H48938  11.231  10.919  11.112  0.5282 -1.7254  0.9667
  363MOL0     H48939  10.984  10.992  11.130 -0.8406 -1.4244  2.4724
  363MOL0     H48940  10.719  10.840  10.872  1.8179  3.7102  0.9437
  363MOL0     H48941  10.657  10.705  10.964  1.4442  0.7011  0.2436
  363MOL0     H48942  10.500  10.846  11.085 -2.6924 -1.0125 -1.9634
  363MOL0     H48943  10.475  10.846  10.915  1.0439 -1.8103 -0.0299
  363MOL0     H48944  10.602  11.072  10.898  0.7227 -0.0306 -0.0020
  363MOL0     H48945  10.631  11.058  11.070  1.0700  1.8225 -2.0455
  363MOL0     H48946  10.453  11.213  10.996  0.5629 -0.5247 -0.5940
  363MOL0     H48947  10.352  11.074  10.954  0.9197 -2.6671  0.7367
  363MOL0     H48948  10.372  10.986  11.191  1.0764  0.3332  1.7043
  363MOL0     H48949  10.441  11.135  11.240 -1.9245  2.6676  1.1035
  363MOL0     H48950  10.262  11.270  11.162  0.5508 -0.4156  0.7039
  363MOL0     H48951  10.176  11.129  11.097  0.8199  1.3666 -1.8639
  363MOL0     H48952  10.227  11.148  11.390 -2.2532 -4.7166  2.0813
  363MOL0     H48953  10.139  11.025  11.310  1.4647 -0.2019  1.5035
  363MOL0     H48954   9.992  11.180  11.412 -1.8609 -0.2668 -0.5078
  363MOL0     H48955  10.058  11.329  11.343  2.6193  0.0457 -1.0107
  363MOL0     H48956   9.903  11.017  11.169 -1.6999  0.9811  2.6373
  363MOL0     H48957   9.719  11.063  10.924 -2.2262  4.3384 -1.1723
  363MOL0     H48958   9.781  11.174  10.816 -1.4041 -0.8825 -1.0438
  363MOL0     H48959   9.944  10.937  10.907 -0.0541  1.5495  1.4644
  363MOL0     H48960   9.832  10.929  10.776  0.5199  0.2471 -0.1846
  363MOL0     H48961  10.096  10.995  10.710 -0.6424 -0.1987 -0.5952
  363MOL0     H48962  10.072  11.147  10.816  1.8874  0.7630 -1.8213
  363MOL0     H48963   9.921  11.230  10.673 -0.3695 -1.8372  2.9021
  363MOL0     H48964   9.934  11.088  10.566  1.1897  0.5222 -1.8744
  363MOL0     H48965  10.342  11.269  10.678  2.4553  0.4469 -0.6420
  363MOL0     H48966  10.528  11.129  10.667  1.2937 -5.0769  0.6081
  363MOL0     H48967  10.691  10.636  10.558 -0.5745 -1.3250  0.9655
  363MOL0     H48968  10.893  10.501  10.586  1.4911 -0.4256  1.0313
  363MOL0     H48969  11.285  10.671  10.533  1.6889 -0.3264  0.1041
  363MOL0     H48970  11.270  10.711  10.715 -2.6511 -3.3476  2.4421
  363MOL0     H48971  11.463  10.571  10.719 -0.5058  1.5705  0.3893
  363MOL0     H48972  11.330  10.479  10.770  0.7374 -0.6604 -1.2746
  363MOL0     H48973  11.322  10.361  10.586  1.1648 -0.5534 -1.0490
  363MOL0     H48974  11.411  10.473  10.467 -0.4203 -0.4572 -0.3072
  363MOL0     H48975  11.517  10.297  10.683  0.7969  0.8688  0.4759
  363MOL0     H48976  11.623  10.412  10.595  1.8306 -1.9219 -0.7799
  363MOL0     H48977  11.583  10.292  10.382  2.0303  0.9527  1.0991
  363MOL0     H48978  11.437  10.207  10.451 -0.4150  0.4976 -0.8684
  363MOL0     H48979  11.731  10.188  10.529 -0.8552  0.7780 -1.7829
  363MOL0     H48980  11.612  10.088  10.610  0.2349  0.0948  0.8261
  363MOL0     H48981  11.653  10.064  10.312  3.7795  2.2958  1.2831
  363MOL0     H48982  11.586   9.934  10.422 -1.4924  0.1191 -0.1495
  363MOL0     H48983  11.856  10.063  10.391 -1.2361 -0.8796 -3.1001
  363MOL0     H48984  11.825   9.962  10.528 -0.7251  0.4411  0.2022
  363MOL0     H48985  11.108  10.832  10.713  0.4801 -0.0533 -0.7887
  363MOL0     H48986  10.907  10.970  10.712  1.7361 -2.7331  2.3425
  363MOL0     H48987  10.324  10.873  10.394  0.0103  1.0464  0.2940
  363MOL0     H48988  10.133  11.007  10.404 -0.9294 -1.1262  1.0973
  363MOL0     H48989  10.871  10.639  10.926 -0.1426  0.0971  0.8966
  363MOL0     H48990  11.099  10.576  10.905  1.1274  1.1364 -0.0263
  363MOL0     H48991  11.451  10.477  11.005  0.4789 -1.4076 -1.9289
  363MOL0     H48992  11.615  10.343  10.953  0.5422  0.2053 -0.7531
  363MOL0     H48993  11.794  10.250  10.775 -1.5151  0.3686  0.5441
  363MOL0     H48994  11.795  10.244  10.954  2.8092 -1.4116  0.1534
  363MOL0     H48995  12.024  10.169  10.959  2.9740 -1.2208 -1.7273
  363MOL0     H48996  12.066  10.286  10.845  0.1019  0.2233 -0.7075
  363MOL0     H48997  12.096  10.134  10.678 -0.8336  5.2960 -0.8793
  363MOL0     H48998  11.932  10.133  10.671  2.3426  0.0110 -0.8855
  363MOL0     H48999  11.991   9.901  10.693  1.8353 -0.1407 -0.0954
  363MOL0     H49000  12.092   9.933  10.832 -1.2716  2.5260  2.2641
  363MOL0     H49001  11.701   9.848  10.962 -0.7198 -0.0304 -1.7358
  363MOL0     H49002  11.890  10.674  10.903 -1.0520  3.1654 -0.1047
  363MOL0     H49003  11.666  10.915  10.859 -2.9058 -1.2235  0.9499
  363MOL0     H49004  11.701  10.915  11.039  3.9078 -0.5012  1.4758
  363MOL0     H49005  11.833  10.886  10.926 -0.3787  1.6170 -2.4898
  364MOL0     O49006   0.030   6.376  11.318  0.7613  0.7661 -0.5803
  364MOL0     C49007   0.080   6.488  11.318 -0.0212  0.5897 -0.8888
  364MOL0     O49008   0.022   6.616  11.295  0.5511  0.5435 -0.1295
  364MOL0     C49009  -0.107   6.608  11.278  0.1446  0.2688 -0.8222
  364MOL0     C49010  -0.158   6.565  11.156  0.0556  1.5045 -0.0618
  364MOL0     C49011  -0.291   6.535  11.118  0.3738  0.7793 -0.1074
  364MOL0     C49012  -0.384   6.541  11.222 -0.3666 -0.3142 -0.0874
  364MOL0     O49013  -0.508   6.485  11.192 -0.1814 -0.2650  0.6918
  364MOL0     C49014  -0.601   6.466  11.296 -0.4304 -0.2740 -0.2101
  364MOL0     C49015  -0.725   6.391  11.254  0.4577  0.6215  1.0925
  364MOL0     C49016  -0.793   6.306  11.363  0.0627  0.5972 -1.0102
  364MOL0     C49017  -0.903   6.216  11.298  0.5195  0.2275 -0.9407
  364MOL0     C49018  -0.870   6.059  11.286 -0.2040 -0.1549  0.3710
  364MOL0     C49019  -0.853   5.991  11.419  1.1796 -0.0228 -0.2078
  364MOL0     C49020  -0.855   5.835  11.392  0.2148 -1.0362 -0.6586
  364MOL0     C49021  -0.732   5.781  11.315 -0.7920  0.2412  0.5117
  364MOL0     N49022  -0.712   5.641  11.325  0.3487 -0.5237 -0.6194
  364MOL0     C49023  -0.585   5.580  11.326 -0.9899  0.4431  0.4392
  364MOL0     C49024  -0.619   5.447  11.354 -0.2403 -0.6907  0.1209
  364MOL0     C49025  -0.519   5.337  11.372  0.1098 -0.3843  0.4853
  364MOL0     C49026  -0.437   5.317  11.244  0.8553 -0.6203  1.3426
  364MOL0     C49027  -0.358   5.191  11.238 -0.4868  0.9442  0.3986
  364MOL0     C49028  -0.247   5.206  11.122 -0.3013  0.4366  1.1196
  364MOL0     O49029  -0.122   5.200  11.179  0.2710 -0.7612 -0.4759
  364MOL0     C49030  -0.058   5.080  11.200  0.3632  0.0830 -0.3491
  364MOL0     C49031   0.035   5.068  11.310  0.9453 -0.0716 -0.2707
  364MOL0     C49032   0.103   4.946  11.342 -0.1781  0.2872  1.3157
  364MOL0     C49033   0.082   4.836  11.255  0.9095 -0.2287 -0.0268
  364MOL0     C49034   0.155   4.704  11.275  0.1366 -0.7120 -0.1413
  364MOL0     O49035   0.232   4.712  11.391 -0.4317  0.6800 -0.1262
  364MOL0     C49036   0.328   4.612  11.419 -0.3139  1.0885  0.8089
  364MOL0     C49037   0.415   4.564  11.323  0.1457 -0.7576  0.5251
  364MOL0     C49038   0.503   4.460  11.366  0.4547 -0.9808  0.0834
  364MOL0     C49039   0.510   4.417  11.498 -0.8884  0.0263  0.5877
  364MOL0     O49040   0.614   4.329  11.542  0.9430 -0.2961  0.2591
  364MOL0     C49041   0.751   4.382  11.556  0.1768  0.1069 -0.0618
  364MOL0     C49042   0.856   4.271  11.566 -0.6666 -0.5625 -0.2709
  364MOL0     C49043   0.833   4.168  11.455 -0.0572 -1.1161 -1.2877
  364MOL0     C49044   0.837   4.221  11.310 -0.6016  0.0059  0.1254
  364MOL0     C49045   0.844   4.104  11.203  0.0072 -0.7618 -0.6717
  364MOL0     C49046   0.990   4.045  11.191  0.8464  0.5972 -0.0212
  364MOL0     C49047   0.996   3.961  11.064  0.4789 -0.4243 -0.2754
  364MOL0     C49048   1.086   4.035  10.962  0.1364 -0.7997  0.2199
  364MOL0    Cl49049   1.011   4.185  10.901 -0.2486  0.3838  0.1272
  364MOL0     C49050   0.422   4.475  11.591 -0.3640 -0.8785 -0.5656
  364MOL0     C49051   0.333   4.574  11.553  0.2237 -0.5354  0.5671
  364MOL0     O49052   0.158   4.614  11.191  0.5163 -0.1091 -0.7190
  364MOL0     C49053   0.018   4.853  11.132  0.8697  0.0446  0.6233
  364MOL0     C49054  -0.060   4.968  11.110 -0.3578  0.2046  0.4691
  364MOL0     N49055  -0.757   5.439  11.366  0.0007  0.2565  0.1262
  364MOL0     N49056  -0.808   5.552  11.344 -0.4321 -0.6359  0.5020
  364MOL0     C49057  -0.344   6.599  11.343 -0.2352  0.1827  0.2542
  364MOL0     C49058  -0.205   6.631  11.374  0.2420 -0.3665  0.0952
  364MOL0     C49059   0.225   6.494  11.340 -0.1636 -0.1515 -0.1714
  364MOL0     C49060   0.284   6.620  11.315 -0.5318  0.7207  0.5193
  364MOL0     C49061   0.418   6.645  11.347  0.3216  0.2894 -0.1628
  364MOL0     C49062   0.498   6.549  11.414  0.1115  0.4124 -0.3776
  364MOL0     O49063   0.614   6.574  11.465 -0.0153 -0.0499 -0.2423
  364MOL0     C49064   0.636   6.700  11.521  0.1274 -0.1263  0.3264
  364MOL0     C49065   0.753   6.683  11.616 -0.0323  0.4719 -0.0731
  364MOL0     C49066   0.780   6.541  11.686 -0.4589  0.6256 -0.7352
  364MOL0     C49067   0.852   6.445  11.591  0.1251 -0.6125  1.0293
  364MOL0     C49068   0.984   6.421  11.623 -0.0873  0.0745  0.0262
  364MOL0     C49069   1.108   6.411  11.650  0.4744 -0.5089  0.7585
  364MOL0     C49070   0.432   6.429  11.449  0.8051  0.0265  0.5639
  364MOL0     C49071   0.301   6.395  11.403  0.4460 -0.6120  0.0333
  364MOL0     C49072   0.243   6.270  11.454 -0.3665 -0.6867 -0.4247
  364MOL0     H49073  -0.087   6.526  11.084  0.0467 -2.3203  1.7472
  364MOL0     H49074  -0.315   6.486  11.024  3.8545  0.1414 -0.8247
  364MOL0     H49075  -0.542   6.404  11.365  2.1640 -0.0876 -2.0960
  364MOL0     H49076  -0.625   6.558  11.349 -1.2843 -0.4085 -0.3475
  364MOL0     H49077  -0.692   6.326  11.172 -3.9772  1.6616 -1.8861
  364MOL0     H49078  -0.801   6.455  11.208  0.8398 -0.9782 -2.1214
  364MOL0     H49079  -0.839   6.350  11.452 -0.9904 -0.0952 -1.2009
  364MOL0     H49080  -0.713   6.243  11.403 -1.8315  0.3905  2.8641
  364MOL0     H49081  -0.996   6.226  11.354 -0.8536 -3.3867 -2.2529
  364MOL0     H49082  -0.931   6.246  11.197  0.5022 -0.9486 -1.2988
  364MOL0     H49083  -0.965   6.013  11.255 -0.2398  0.1002  0.0917
  364MOL0     H49084  -0.787   6.058  11.215 -1.2977  3.2306 -1.1834
  364MOL0     H49085  -0.758   6.018  11.466  0.4702  0.0166  1.2484
  364MOL0     H49086  -0.934   6.023  11.485  1.6486  2.1220 -0.6120
  364MOL0     H49087  -0.945   5.802  11.340 -2.1113  2.4858  0.8255
  364MOL0     H49088  -0.862   5.792  11.492 -5.7110  1.6586  0.4924
  364MOL0     H49089  -0.746   5.798  11.208 -0.2803 -2.8875 -0.1345
  364MOL0     H49090  -0.641   5.835  11.343 -1.9227  3.6230 -1.6738
  364MOL0     H49091  -0.484   5.620  11.316 -0.6782  0.0926  1.9521
  364MOL0     H49092  -0.450   5.362  11.453  2.8347 -3.2119 -0.7576
  364MOL0     H49093  -0.570   5.245  11.401  0.4964 -1.1034 -0.9996
  364MOL0     H49094  -0.500   5.330  11.156  0.3197 -0.0060  1.8049
  364MOL0     H49095  -0.373   5.405  11.241 -0.9871  0.7385 -0.7729
  364MOL0     H49096  -0.421   5.108  11.205  0.1316  0.1143  1.2263
  364MOL0     H49097  -0.324   5.187  11.342  3.2316 -0.8764 -0.6734
  364MOL0     H49098  -0.269   5.300  11.070 -0.6263 -0.1962  0.1056
  364MOL0     H49099  -0.260   5.127  11.048  3.4120 -0.2099  0.9544
  364MOL0     H49100   0.051   5.149  11.381  0.5373 -1.4621  1.4758
  364MOL0     H49101   0.173   4.935  11.424  1.6184  1.3289 -0.0093
  364MOL0     H49102   0.408   4.599  11.221 -4.0806  3.0964  1.7924
  364MOL0     H49103   0.568   4.418  11.289  0.8548 -3.5024  1.6915
  364MOL0     H49104   0.776   4.444  11.469  0.5001 -2.8013 -2.1813
  364MOL0     H49105   0.763   4.446  11.644  1.4812 -0.3923  0.1491
  364MOL0     H49106   0.955   4.318  11.561 -0.7578 -0.4820 -1.7365
  364MOL0     H49107   0.841   4.233  11.667 -2.1129  4.0174  1.4816
  364MOL0     H49108   0.906   4.087  11.464  2.4113  0.9436 -1.4113
  364MOL0     H49109   0.729   4.141  11.470  0.1439 -1.3684 -0.2403
  364MOL0     H49110   0.921   4.287  11.287  0.8828 -2.5492 -2.6561
  364MOL0     H49111   0.752   4.283  11.280  0.6833  1.7786 -0.0161
  364MOL0     H49112   0.821   4.150  11.106 -2.5246 -1.0533 -0.2813
  364MOL0     H49113   0.770   4.026  11.223  0.6961 -1.2558 -0.0379
  364MOL0     H49114   1.058   4.130  11.181  0.0764  1.0756 -1.4116
  364MOL0     H49115   1.031   3.987  11.274  0.0741 -2.1965 -1.4556
  364MOL0     H49116   0.898   3.942  11.021 -0.0095  0.1056  0.5744
  364MOL0     H49117   1.032   3.864  11.101 -1.1591 -0.3669  1.6717
  364MOL0     H49118   1.182   4.052  11.011 -1.1154  4.2560  1.4787
  364MOL0     H49119   1.126   3.978  10.877  0.8598  0.8932 -0.6225
  364MOL0     H49120   0.431   4.455  11.697  0.2809  0.3394 -0.3701
  364MOL0     H49121   0.259   4.617  11.619 -1.9377 -2.3869 -0.4944
  364MOL0     H49122   0.021   4.779  11.052 -0.1677  0.3472  0.2844
  364MOL0     H49123  -0.104   4.992  11.013  0.0909  3.9225  1.0604
  364MOL0     H49124  -0.416   6.602  11.424 -1.3502  1.3336 -0.7375
  364MOL0     H49125  -0.173   6.671  11.470 -2.1935  1.6365  0.1797
  364MOL0     H49126   0.233   6.703  11.267 -3.7106 -0.3762  1.7460
  364MOL0     H49127   0.454   6.742  11.315 -4.4591  2.3134 -0.3013
  364MOL0     H49128   0.548   6.712  11.585 -1.1871 -1.3857 -1.1698
  364MOL0     H49129   0.655   6.783  11.452 -0.8979  1.2294  1.6169
  364MOL0     H49130   0.746   6.759  11.694 -0.7146 -0.4154  0.7531
  364MOL0     H49131   0.837   6.711  11.551  0.2504 -0.3367 -0.0663
  364MOL0     H49132   0.683   6.504  11.720 -0.1107  1.3140  1.1703
  364MOL0     H49133   0.831   6.557  11.782 -1.3685  2.5250 -0.5129
  364MOL0     H49134   0.783   6.361  11.604 -1.0663  0.3054  0.8076
  364MOL0     H49135   0.831   6.465  11.485 -2.5538  1.8204  1.8933
  364MOL0     H49136   1.212   6.386  11.661 -0.1621 -6.6556 -2.4603
  364MOL0     H49137   0.482   6.367  11.522  1.7818  1.8931  1.5585
  364MOL0     H49138   0.200   6.208  11.375 -2.7104 -2.6751  2.2095
  364MOL0     H49139   0.323   6.202  11.485  0.5869 -0.0833 -1.4827
  364MOL0     H49140   0.173   6.284  11.536  1.4325 -2.0983  1.4852
  365MOL0     O49141   7.411  10.659   7.791 -0.2531 -0.5688  0.8321
  365MOL0     C49142   7.466  10.567   7.737  0.4268  0.4337  0.0938
  365MOL0     O49143   7.403  10.457   7.700 -0.3414  0.0808  0.1066
  365MOL0     C49144   7.276  10.419   7.747 -0.2117 -1.2478 -0.1932
  365MOL0     C49145   7.183  10.361   7.657 -0.5099  0.0085 -0.7395
  365MOL0     C49146   7.049  10.330   7.688  0.6286  0.3107 -0.7028
  365MOL0     C49147   7.016  10.345   7.826  0.1433  0.4270 -0.0896
  365MOL0     O49148   6.886  10.315   7.849  0.3048  0.0313 -0.2511
  365MOL0     C49149   6.828  10.390   7.959 -0.6557  0.7624  0.6162
  365MOL0     C49150   6.672  10.367   7.966 -0.7189 -0.0484  0.5450
  365MOL0     C49151   6.623  10.235   7.913 -0.6504  0.5913 -0.6663
  365MOL0     C49152   6.630  10.212   7.759 -1.2388  0.3135  0.3018
  365MOL0     C49153   6.529  10.124   7.704 -0.9896  0.5043 -0.0676
  365MOL0     C49154   6.555   9.975   7.744  0.5428  0.5504 -0.6301
  365MOL0     C49155   6.454   9.889   7.680  0.0714  1.0196  0.2074
  365MOL0     C49156   6.308   9.905   7.728  0.1958 -0.1936 -0.8238
  365MOL0     N49157   6.231   9.797   7.684  0.5127 -0.0028 -0.4839
  365MOL0     C49158   6.160   9.799   7.567  0.4688 -0.6481  0.0990
  365MOL0     C49159   6.078   9.697   7.574 -1.0930  0.8279 -0.0700
  365MOL0     C49160   5.972   9.645   7.478 -0.2428  0.8810 -0.1618
  365MOL0     C49161   6.011   9.632   7.333  0.3487 -0.6787  0.8505
  365MOL0     C49162   6.087   9.502   7.304  0.5018 -0.0254  0.1954
  365MOL0     C49163   6.235   9.507   7.341  0.0109  1.1062 -0.6273
  365MOL0     O49164   6.289   9.606   7.259 -0.5387 -0.5737  0.0147
  365MOL0     C49165   6.395   9.693   7.303  0.3297 -0.2166 -0.4881
  365MOL0     C49166   6.423   9.812   7.238 -0.2091 -0.7193  0.6530
  365MOL0     C49167   6.538   9.884   7.251  0.1652 -0.3004  0.5320
  365MOL0     C49168   6.630   9.837   7.348 -0.4060 -0.9109 -1.6473
  365MOL0     C49169   6.755   9.894   7.380 -1.1275 -1.2925 -0.1311
  365MOL0     O49170   6.815   9.869   7.503 -0.3718 -0.1287 -0.1626
  365MOL0     C49171   6.944   9.894   7.526 -0.0228  0.4318 -0.0942
  365MOL0     C49172   6.991   9.974   7.639 -0.2873  0.0784 -0.0458
  365MOL0     C49173   7.127   9.982   7.659  0.7361 -0.3864 -0.7487
  365MOL0     C49174   7.224   9.922   7.576 -0.0496  0.0379  0.0498
  365MOL0     O49175   7.358   9.934   7.603  0.2058 -0.0743  0.1916
  365MOL0     C49176   7.414  10.068   7.613 -0.3683 -0.2142 -1.3275
  365MOL0     C49177   7.561  10.049   7.681 -0.0676 -0.6655 -0.0303
  365MOL0     C49178   7.669   9.963   7.591 -0.6367 -0.7882 -0.1250
  365MOL0     C49179   7.708  10.022   7.450  0.1072  0.1936 -0.0177
  365MOL0     C49180   7.808   9.923   7.382 -0.8799  0.1983  0.6674
  365MOL0     C49181   7.858   9.982   7.243 -0.3510  0.0173 -0.9658
  365MOL0     C49182   7.962   9.889   7.164 -0.2900  0.3202 -0.2113
  365MOL0     C49183   8.031   9.959   7.048 -1.1484  0.1235 -0.7171
  365MOL0    Cl49184   7.930   9.971   6.911 -0.4163  0.7116  0.7216
  365MOL0     C49185   7.182   9.825   7.484  0.1370 -0.3041  0.1400
  365MOL0     C49186   7.045   9.818   7.465  0.5328 -0.3997 -0.5975
  365MOL0     O49187   6.815   9.959   7.289  1.7571  0.5331 -0.1356
  365MOL0     C49188   6.600   9.721   7.421 -0.4252 -0.2830  0.1307
  365MOL0     C49189   6.482   9.644   7.404 -0.0635 -0.4370  0.4400
  365MOL0     N49190   6.112   9.630   7.693  0.7807 -0.1282  0.2643
  365MOL0     N49191   6.196   9.688   7.763  0.0599 -0.1771  0.3499
  365MOL0     C49192   7.110  10.391   7.921 -0.0593 -0.4310 -0.0540
  365MOL0     C49193   7.241  10.429   7.876 -0.4047  1.3516 -0.8787
  365MOL0     C49194   7.615  10.574   7.714  0.1208  0.4427  0.4215
  365MOL0     C49195   7.664  10.511   7.598  0.5598 -0.3376 -1.1392
  365MOL0     C49196   7.796  10.517   7.575 -0.1338  0.1750  0.2582
  365MOL0     C49197   7.891  10.572   7.651 -0.2579  0.1293 -0.6703
  365MOL0     O49198   8.027  10.570   7.614  0.9559 -0.4222  0.1196
  365MOL0     C49199   8.105  10.685   7.646  0.4383 -0.9650 -0.1371
  365MOL0     C49200   8.036  10.819   7.598 -1.0188  0.2759  0.6735
  365MOL0     C49201   8.141  10.941   7.614  1.1208  0.4334 -0.6319
  365MOL0     C49202   8.110  11.074   7.542 -0.2952 -0.9419  0.6652
  365MOL0     C49203   7.974  11.107   7.575 -0.0296 -0.6328  1.2539
  365MOL0     C49204   7.857  11.141   7.590  0.6642 -0.4440 -0.0108
  365MOL0     C49205   7.845  10.636   7.771  1.1753  0.4618  0.2918
  365MOL0     C49206   7.703  10.630   7.807 -0.3670  0.2286  0.5708
  365MOL0     C49207   7.667  10.680   7.942  1.0591  0.0503  0.5997
  365MOL0     H49208   7.225  10.362   7.557  0.4618  2.4673 -0.3643
  365MOL0     H49209   6.985  10.322   7.601  0.7140  2.3615 -0.9974
  365MOL0     H49210   6.883  10.359   8.048  0.9848  1.5698 -0.0564
  365MOL0     H49211   6.850  10.497   7.954  1.7378  0.3049 -0.1179
  365MOL0     H49212   6.626  10.453   7.917 -0.8889 -0.5462 -0.1696
  365MOL0     H49213   6.649  10.368   8.073  1.4821 -0.1664  1.0657
  365MOL0     H49214   6.519  10.234   7.947  0.0964 -3.3286  2.2663
  365MOL0     H49215   6.674  10.154   7.966 -0.2501  1.7933  0.8739
  365MOL0     H49216   6.620  10.311   7.714  2.1084  0.2830 -0.8239
  365MOL0     H49217   6.729  10.171   7.734 -1.4976 -0.7247  0.9057
  365MOL0     H49218   6.428  10.163   7.718 -0.7319  1.7887 -1.4804
  365MOL0     H49219   6.547  10.128   7.596 -0.9755 -3.0278 -0.3118
  365MOL0     H49220   6.648   9.931   7.706  0.4458 -0.7091  0.5029
  365MOL0     H49221   6.551   9.978   7.854  1.0444  1.1848 -0.6221
  365MOL0     H49222   6.464   9.785   7.711  0.4837  1.4980  1.7362
  365MOL0     H49223   6.458   9.900   7.571  2.8433  0.5463  0.1760
  365MOL0     H49224   6.317   9.919   7.836  3.8627 -2.2286 -0.7247
  365MOL0     H49225   6.282  10.002   7.682  2.2187 -0.0639 -1.8330
  365MOL0     H49226   6.168   9.883   7.499  0.4185  0.3360  1.2783
  365MOL0     H49227   5.933   9.550   7.515  2.5248 -0.9764 -1.6638
  365MOL0     H49228   5.882   9.707   7.475  0.3134  2.0163  2.6024
  365MOL0     H49229   5.918   9.633   7.277  0.7386  4.1287 -0.1669
  365MOL0     H49230   6.057   9.727   7.302  1.9753 -2.1205 -1.4927
  365MOL0     H49231   6.080   9.476   7.198 -3.3020  0.8308  0.0920
  365MOL0     H49232   6.036   9.418   7.354 -0.6618  0.5511  0.0122
  365MOL0     H49233   6.281   9.409   7.326 -0.0314  1.2245 -1.5383
  365MOL0     H49234   6.237   9.536   7.447 -1.2952 -1.6835  0.2848
  365MOL0     H49235   6.369   9.833   7.147  0.6331 -0.7846  0.1237
  365MOL0     H49236   6.568   9.963   7.183 -0.2850 -2.0328 -1.7972
  365MOL0     H49237   6.928  10.016   7.717  1.8349  1.4783  1.0054
  365MOL0     H49238   7.146  10.055   7.737  0.2390  0.0673 -1.0461
  365MOL0     H49239   7.420  10.108   7.512  1.1167  0.1057 -1.1301
  365MOL0     H49240   7.350  10.130   7.677 -1.6559 -0.0718 -2.7096
  365MOL0     H49241   7.594  10.150   7.708 -2.5631 -0.4648  2.8840
  365MOL0     H49242   7.552   9.999   7.778  0.4936 -0.2532  0.2442
  365MOL0     H49243   7.756   9.954   7.657 -0.3317 -1.9853 -0.6610
  365MOL0     H49244   7.639   9.858   7.586 -3.1821 -0.1794  0.8352
  365MOL0     H49245   7.748  10.123   7.462 -0.8315  0.7641 -1.4528
  365MOL0     H49246   7.617  10.022   7.389 -0.4118 -4.3512  0.3667
  365MOL0     H49247   7.777   9.818   7.388 -0.5932  0.0190 -0.6232
  365MOL0     H49248   7.892   9.938   7.451 -1.2476 -2.1839  1.7406
  365MOL0     H49249   7.774   9.984   7.172  1.8861 -3.1472 -4.0079
  365MOL0     H49250   7.894  10.083   7.264  0.5763  0.1230 -2.8292
  365MOL0     H49251   7.917   9.794   7.134  0.0653  1.3417 -4.5956
  365MOL0     H49252   8.035   9.861   7.241 -0.1409 -0.9565 -0.7781
  365MOL0     H49253   8.069  10.057   7.076  0.4792 -1.0766  1.6349
  365MOL0     H49254   8.124   9.907   7.025 -1.0765 -2.1144  3.4949
  365MOL0     H49255   7.255   9.780   7.418  0.2182  1.2867 -0.8955
  365MOL0     H49256   7.017   9.758   7.378 -3.1387 -0.8210  0.6972
  365MOL0     H49257   6.683   9.675   7.474  1.1394 -0.0383 -1.9567
  365MOL0     H49258   6.476   9.552   7.461 -1.5475  0.8681  2.5370
  365MOL0     H49259   7.094  10.415   8.025  0.1717 -3.0609  0.6528
  365MOL0     H49260   7.316  10.474   7.940  3.4465 -0.6517 -3.5194
  365MOL0     H49261   7.594  10.477   7.523  0.3557 -4.4236  0.6576
  365MOL0     H49262   7.824  10.478   7.478 -0.2793 -6.4755  2.3716
  365MOL0     H49263   8.197  10.684   7.588  0.0552 -1.5201 -0.7549
  365MOL0     H49264   8.125  10.697   7.753 -0.7537  3.2492 -0.2193
  365MOL0     H49265   7.962  10.852   7.672  0.9367  1.5509  2.1741
  365MOL0     H49266   7.989  10.807   7.500 -0.3479  3.5840 -0.1869
  365MOL0     H49267   8.231  10.891   7.575 -0.9642 -4.9852  0.5508
  365MOL0     H49268   8.153  10.948   7.722  0.3235 -1.2105 -0.4030
  365MOL0     H49269   8.178  11.154   7.574  0.0564 -1.6313  1.6950
  365MOL0     H49270   8.119  11.069   7.433  1.9484 -1.6257  0.8196
  365MOL0     H49271   7.757  11.173   7.608 -1.1586 -4.4874 -1.8237
  365MOL0     H49272   7.905  10.693   7.841 -3.0728  1.9675  3.1206
  365MOL0     H49273   7.608  10.772   7.949  0.8070  0.2632 -2.9613
  365MOL0     H49274   7.618  10.600   7.999 -1.7563 -1.2903 -3.3260
  365MOL0     H49275   7.755  10.721   7.992  0.5004  1.6490  0.3280
  366MOL0     O49276   4.827   9.256   6.018 -0.3735 -0.0271 -0.1501
  366MOL0     C49277   4.723   9.322   5.998  0.0250 -0.1362 -0.9226
  366MOL0     O49278   4.690   9.450   6.044 -0.4741  1.2909 -0.3118
  366MOL0     C49279   4.777   9.503   6.130  0.3458  0.3655 -0.2590
  366MOL0     C49280   4.830   9.437   6.245  1.4935  0.0262 -0.5890
  366MOL0     C49281   4.920   9.508   6.334  0.0893 -0.6681 -0.5487
  366MOL0     C49282   4.945   9.652   6.306  0.3271  1.4248  0.6259
  366MOL0     O49283   5.020   9.736   6.388  0.0466  1.0028 -0.3173
  366MOL0     C49284   5.140   9.699   6.446  0.1710  1.0145  0.5519
  366MOL0     C49285   5.252   9.666   6.359  0.0669  0.1472  0.9205
  366MOL0     C49286   5.308   9.773   6.258 -0.3830 -0.3737  0.6090
  366MOL0     C49287   5.368   9.707   6.134 -0.1850  0.0207  0.1455
  366MOL0     C49288   5.498   9.631   6.162 -0.3105 -0.6781 -0.2772
  366MOL0     C49289   5.542   9.553   6.046  0.3154 -1.3056 -0.1680
  366MOL0     C49290   5.683   9.505   6.057 -0.5375  0.1758 -0.4215
  366MOL0     C49291   5.707   9.367   5.994  0.2662 -0.2962  1.7226
  366MOL0     N49292   5.846   9.347   6.004  1.0549 -0.0393  0.1368
  366MOL0     C49293   5.923   9.305   6.109  0.1368  0.5007  0.0471
  366MOL0     C49294   6.051   9.279   6.051  0.3048 -0.2773  0.3447
  366MOL0     C49295   6.180   9.228   6.121 -0.0090  0.5875  0.1265
  366MOL0     C49296   6.294   9.329   6.099 -0.5396 -0.3792  0.2527
  366MOL0     C49297   6.417   9.285   6.171 -0.2412  0.0215 -0.2271
  366MOL0     C49298   6.496   9.405   6.224  0.4039  0.2639 -0.0444
  366MOL0     O49299   6.533   9.493   6.112  0.1545 -0.2514  0.3121
  366MOL0     C49300   6.660   9.552   6.118  0.1349 -0.1549  0.0676
  366MOL0     C49301   6.711   9.585   5.998 -0.7753  0.4339  0.4987
  366MOL0     C49302   6.841   9.640   5.991  0.0151  0.0555 -1.0360
  366MOL0     C49303   6.916   9.665   6.113  0.9661 -0.2149 -0.3209
  366MOL0     C49304   7.048   9.724   6.094 -0.6666  0.8036  0.8886
  366MOL0     O49305   7.125   9.697   6.200 -1.1932 -0.9486  0.2505
  366MOL0     C49306   7.261   9.733   6.196 -0.2938  0.3227  0.0101
  366MOL0     C49307   7.350   9.633   6.236 -0.4242 -0.2852  0.1665
  366MOL0     C49308   7.497   9.665   6.235  1.1930  0.4476 -0.2463
  366MOL0     C49309   7.543   9.791   6.187 -0.5289  0.2613  0.0159
  366MOL0     O49310   7.676   9.806   6.176 -0.4843 -0.2321  0.0078
  366MOL0     C49311   7.719   9.937   6.208 -0.0459  0.9658 -0.4984
  366MOL0     C49312   7.864   9.916   6.251  0.0277 -0.8146  0.0205
  366MOL0     C49313   7.958   9.915   6.131  0.3023  0.1192 -0.4768
  366MOL0     C49314   8.102   9.906   6.176 -0.3181 -0.4856  0.7474
  366MOL0     C49315   8.204   9.857   6.071  0.2211  1.0937  0.2355
  366MOL0     C49316   8.343   9.912   6.096  0.0064 -1.3460 -0.3315
  366MOL0     C49317   8.435   9.829   6.007 -0.0506  0.5155 -0.9826
  366MOL0     C49318   8.579   9.840   6.064 -0.5548 -0.4038  0.2482
  366MOL0    Cl49319   8.602   9.750   6.228 -0.0440  0.2117 -0.4206
  366MOL0     C49320   7.447   9.882   6.157 -0.3964  0.3598  0.0013
  366MOL0     C49321   7.308   9.858   6.171 -0.3747 -0.3132 -0.3994
  366MOL0     O49322   7.083   9.768   5.986 -0.7947 -0.0279  1.4629
  366MOL0     C49323   6.858   9.626   6.238 -0.8464  0.6665  0.1774
  366MOL0     C49324   6.726   9.577   6.242 -0.4490  0.0468  0.7579
  366MOL0     N49325   6.043   9.303   5.917 -0.1090  1.2148 -0.1159
  366MOL0     N49326   5.919   9.336   5.894 -0.3929  0.5215  0.1337
  366MOL0     C49327   4.871   9.714   6.204 -1.3157 -0.0533  0.5193
  366MOL0     C49328   4.798   9.633   6.114 -0.0968 -0.0615  0.2791
  366MOL0     C49329   4.620   9.266   5.905  0.6278  0.5102  0.8272
  366MOL0     C49330   4.489   9.311   5.926  0.2231 -0.7036 -0.3325
  366MOL0     C49331   4.384   9.252   5.862  0.0764  0.1932  0.8927
  366MOL0     C49332   4.410   9.155   5.764  0.1322  0.5520  0.1569
  366MOL0     O49333   4.300   9.115   5.688  0.4218 -0.4208  0.1380
  366MOL0     C49334   4.283   8.984   5.631 -0.8887  0.2131  0.0939
  366MOL0     C49335   4.309   8.859   5.719  0.0780 -0.6343 -0.5122
  366MOL0     C49336   4.273   8.886   5.867 -0.1353  0.1816 -0.0204
  366MOL0     C49337   4.132   8.896   5.903  0.6526 -0.3088 -0.3249
  366MOL0     C49338   4.114   8.893   6.045 -0.2027  0.7799  0.3816
  366MOL0     C49339   4.087   8.893   6.160 -1.0436  0.1872  0.0138
  366MOL0     C49340   4.534   9.109   5.744  0.1555 -0.5652  0.2459
  366MOL0     C49341   4.640   9.156   5.810 -0.2408 -0.4741  0.1146
  366MOL0     C49342   4.776   9.086   5.797  0.6508 -0.2540 -0.3753
  366MOL0     H49343   4.797   9.339   6.277 -0.5403  1.0864  0.7998
  366MOL0     H49344   4.965   9.450   6.414  0.0723 -0.4864 -0.4079
  366MOL0     H49345   5.165   9.783   6.512  0.7766 -0.5333  2.3852
  366MOL0     H49346   5.129   9.612   6.511 -0.6583 -0.6895 -1.7311
  366MOL0     H49347   5.238   9.568   6.312  1.3115  1.2426 -1.9059
  366MOL0     H49348   5.332   9.654   6.433 -0.2484  4.7515  2.3144
  366MOL0     H49349   5.379   9.840   6.307  0.0931  1.1755 -2.0327
  366MOL0     H49350   5.236   9.840   6.210 -1.0695  0.8648  3.2147
  366MOL0     H49351   5.293   9.644   6.084  0.7944  0.5962 -2.2169
  366MOL0     H49352   5.376   9.782   6.054 -0.5093 -0.7341 -0.6180
  366MOL0     H49353   5.578   9.702   6.186  0.4681 -1.5103 -0.3624
  366MOL0     H49354   5.486   9.570   6.252  1.5115  1.4243  1.5124
  366MOL0     H49355   5.477   9.468   6.025  0.3368 -0.9923 -1.5854
  366MOL0     H49356   5.541   9.613   5.954  0.4061  2.1303  1.8820
  366MOL0     H49357   5.702   9.504   6.164  0.3083  3.1331 -0.4543
  366MOL0     H49358   5.751   9.578   6.010  2.4482 -1.5354  0.9433
  366MOL0     H49359   5.642   9.295   6.046 -1.1929  1.3081  2.2169
  366MOL0     H49360   5.683   9.374   5.888 -4.4206  2.3899  2.6962
  366MOL0     H49361   5.899   9.296   6.214  0.7177  1.8414  0.3112
  366MOL0     H49362   6.157   9.222   6.228 -3.1843 -1.7964 -0.5404
  366MOL0     H49363   6.206   9.126   6.091 -0.1591  0.7017 -0.4088
  366MOL0     H49364   6.325   9.336   5.994 -4.4532  1.5335 -0.9489
  366MOL0     H49365   6.268   9.432   6.126 -0.4947 -0.5204  0.8380
  366MOL0     H49366   6.481   9.241   6.094  0.7301  1.0384 -0.0327
  366MOL0     H49367   6.383   9.216   6.250  0.5461  1.3651  1.3592
  366MOL0     H49368   6.587   9.371   6.275  0.4635  1.0209  0.3703
  366MOL0     H49369   6.438   9.463   6.296  2.2820  0.4528  1.3920
  366MOL0     H49370   6.666   9.551   5.905  0.3939 -2.2402  0.8305
  366MOL0     H49371   6.896   9.662   5.900  0.6318  0.4361 -0.5830
  366MOL0     H49372   7.314   9.538   6.276  0.0788 -0.2872  0.6287
  366MOL0     H49373   7.564   9.588   6.269  0.0931  0.7346  2.8425
  366MOL0     H49374   7.706   9.992   6.115 -1.9850 -2.6442 -2.5494
  366MOL0     H49375   7.665   9.975   6.295  0.3188 -3.6401  2.0533
  366MOL0     H49376   7.898   9.987   6.327 -2.1325 -1.6539  1.9301
  366MOL0     H49377   7.869   9.819   6.303 -0.9349 -1.6545 -1.3776
  366MOL0     H49378   7.931   9.822   6.079 -1.3886 -1.0322  2.2284
  366MOL0     H49379   7.936   9.997   6.062 -2.3103  1.0049  1.2547
  366MOL0     H49380   8.110   9.845   6.266  0.1566 -0.2211  0.8845
  366MOL0     H49381   8.136  10.005   6.209 -4.7536  0.2653  4.0439
  366MOL0     H49382   8.165   9.891   5.975 -1.6560 -0.2967  0.4496
  366MOL0     H49383   8.197   9.750   6.049  3.3810  1.0684 -1.1041
  366MOL0     H49384   8.338  10.016   6.063  3.6724 -1.5402 -1.9958
  366MOL0     H49385   8.369   9.899   6.201  3.0140 -1.6390 -0.9976
  366MOL0     H49386   8.436   9.864   5.903  1.3544  2.5803 -0.3445
  366MOL0     H49387   8.397   9.727   5.998  2.3410 -0.4511 -0.8742
  366MOL0     H49388   8.655   9.806   5.993  2.1451 -0.8814  3.1462
  366MOL0     H49389   8.601   9.945   6.081  3.8471 -1.0360 -0.2070
  366MOL0     H49390   7.470   9.982   6.121  4.3710  1.0836  3.9348
  366MOL0     H49391   7.232   9.934   6.156 -2.2551 -2.3722 -2.2858
  366MOL0     H49392   6.920   9.639   6.326 -0.8906  0.1143  0.2958
  366MOL0     H49393   6.674   9.559   6.336  1.1303  4.2173  2.6515
  366MOL0     H49394   4.870   9.820   6.182 -0.9144  0.1411  1.3917
  366MOL0     H49395   4.755   9.682   6.027  0.7691  1.7725  0.8291
  366MOL0     H49396   4.460   9.396   5.986 -4.5109 -2.2382 -0.0762
  366MOL0     H49397   4.285   9.292   5.880 -0.2281  1.5091 -2.8470
  366MOL0     H49398   4.344   8.971   5.541 -1.4123 -3.4109  0.1114
  366MOL0     H49399   4.185   8.971   5.584  0.3695 -1.9553 -2.1747
  366MOL0     H49400   4.417   8.843   5.714 -0.0446 -1.0491 -2.2211
  366MOL0     H49401   4.251   8.781   5.669  1.6296 -1.4495 -1.0937
  366MOL0     H49402   4.327   8.976   5.895  1.6938 -0.6473 -0.6990
  366MOL0     H49403   4.322   8.804   5.921 -1.4380 -0.1114  0.7628
  366MOL0     H49404   4.087   8.986   5.860  1.1445 -0.6915 -1.7146
  366MOL0     H49405   4.072   8.811   5.868 -0.6601 -0.0367  1.1645
  366MOL0     H49406   4.058   8.887   6.264 -2.6977 -2.0352 -0.4982
  366MOL0     H49407   4.552   9.015   5.694  0.8284 -0.4139  0.1917
  366MOL0     H49408   4.776   9.018   5.712 -0.3059  2.4658 -2.7149
  366MOL0     H49409   4.859   9.157   5.784  1.6163 -1.5967 -1.9767
  366MOL0     H49410   4.795   9.031   5.890 -0.5208  0.7950  0.5099
  367MOL0     O49411   0.472   4.682   0.413 -0.8082  0.0530 -0.1757
  367MOL0     C49412   0.547   4.767   0.462  0.6939 -0.1426  0.3327
  367MOL0     O49413   0.566   4.890   0.413  0.3303 -0.8738 -0.0015
  367MOL0     C49414   0.554   4.921   0.284 -0.8602 -0.4112  0.1044
  367MOL0     C49415   0.529   5.058   0.255  0.3181 -0.5693  0.1575
  367MOL0     C49416   0.504   5.099   0.129  0.1210 -0.4315 -0.7815
  367MOL0     C49417   0.520   5.013   0.025  0.1346  0.0533  0.1071
  367MOL0     O49418   0.492   5.067  -0.101  0.4711 -0.3755 -0.1452
  367MOL0     C49419   0.558   5.000  -0.203  0.4082 -0.6450 -0.7554
  367MOL0     C49420   0.531   5.080  -0.328 -0.4701 -0.7295 -0.9286
  367MOL0     C49421   0.402   5.039  -0.393 -0.9538 -1.3392 -0.5891
  367MOL0     C49422   0.405   5.062  -0.539  0.0798 -0.6368  0.7157
  367MOL0     C49423   0.277   4.984  -0.598 -0.0311 -1.3130  0.3894
  367MOL0     C49424   0.261   5.023  -0.736  0.2069 -0.2187  0.4421
  367MOL0     C49425   0.387   5.018  -0.829  0.3800 -0.2456 -0.3325
  367MOL0     C49426   0.342   5.038  -0.976  0.0850 -0.2170 -0.7992
  367MOL0     N49427   0.310   5.179  -0.991 -0.6397 -0.5524  1.2605
  367MOL0     C49428   0.187   5.235  -0.997 -0.6719  0.1249 -1.0063
  367MOL0     C49429   0.198   5.369  -1.014 -0.4868  0.2018 -0.2823
  367MOL0     C49430   0.077   5.457  -1.012  0.5235  0.4654 -0.3625
  367MOL0     C49431  -0.011   5.422  -1.135  0.1781  0.5151 -0.4977
  367MOL0     C49432  -0.099   5.544  -1.156 -0.7588 -0.0317 -0.2016
  367MOL0     C49433  -0.185   5.525  -1.279  0.5684 -0.8310 -0.0792
  367MOL0     O49434  -0.103   5.503  -1.391  0.5737 -0.4896  0.3280
  367MOL0     C49435  -0.158   5.425  -1.486  0.2270  1.3578  0.6274
  367MOL0     C49436  -0.069   5.344  -1.569 -0.1437  0.4684  0.4414
  367MOL0     C49437  -0.118   5.278  -1.684  0.5274  0.7337  0.7204
  367MOL0     C49438  -0.253   5.266  -1.702  0.7538 -0.1127  0.7226
  367MOL0     C49439  -0.309   5.186  -1.813 -0.6390  0.6390 -0.0679
  367MOL0     O49440  -0.441   5.207  -1.846 -0.4678  0.7759 -0.2693
  367MOL0     C49441  -0.493   5.159  -1.963  0.1813  0.1269  0.2198
  367MOL0     C49442  -0.625   5.108  -1.952  0.4831 -0.1475  0.5531
  367MOL0     C49443  -0.679   5.046  -2.063 -0.1040 -0.3672  0.4846
  367MOL0     C49444  -0.610   5.041  -2.184  0.6293  0.1660 -0.0856
  367MOL0     O49445  -0.653   5.000  -2.310 -0.1525  0.2569  0.5827
  367MOL0     C49446  -0.744   4.901  -2.320 -0.5474  0.0862  0.4613
  367MOL0     C49447  -0.776   4.867  -2.452  0.5929  0.6948  0.2818
  367MOL0     C49448  -0.891   4.948  -2.507  0.5200 -0.7971  0.2673
  367MOL0     C49449  -0.937   4.904  -2.644  0.0707 -0.6523 -0.2617
  367MOL0     C49450  -1.030   5.004  -2.714  0.7905 -0.2594 -0.0641
  367MOL0     C49451  -0.988   5.150  -2.731 -0.5044  0.5233 -0.5786
  367MOL0     C49452  -1.097   5.231  -2.804  0.2737 -0.1594 -0.6478
  367MOL0     C49453  -1.222   5.267  -2.730  0.1366  0.3468 -0.1223
  367MOL0    Cl49454  -1.373   5.303  -2.838  0.4969 -0.2729 -0.3973
  367MOL0     C49455  -0.490   5.108  -2.196  0.3138  0.2159 -0.2161
  367MOL0     C49456  -0.430   5.170  -2.082  0.3815  0.4851  0.4580
  367MOL0     O49457  -0.237   5.094  -1.857  0.1416 -1.0690 -0.6053
  367MOL0     C49458  -0.338   5.343  -1.625  1.1217  0.5086 -0.2848
  367MOL0     C49459  -0.291   5.423  -1.522  0.4280  0.4896  0.4156
  367MOL0     N49460   0.334   5.388  -1.045  0.2824 -1.1395 -0.5339
  367MOL0     N49461   0.395   5.280  -1.036 -0.3414  0.5847  0.5787
  367MOL0     C49462   0.537   4.881   0.047  0.9606  0.1666  0.1544
  367MOL0     C49463   0.566   4.835   0.171  0.2688 -0.3825 -0.3343
  367MOL0     C49464   0.589   4.765   0.606  0.6679 -0.8127  0.8050
  367MOL0     C49465   0.611   4.891   0.669  0.8871  0.8472 -0.4035
  367MOL0     C49466   0.648   4.890   0.797 -0.1563  0.5583 -0.1257
  367MOL0     C49467   0.696   4.774   0.865 -0.3415 -0.5576  1.1173
  367MOL0     O49468   0.755   4.790   0.991 -0.6224 -0.2102  0.2515
  367MOL0     C49469   0.695   4.854   1.106 -0.5506  0.3509 -0.0860
  367MOL0     C49470   0.686   4.750   1.218 -0.4907 -0.5511  0.2974
  367MOL0     C49471   0.652   4.807   1.358  0.1888 -0.2453 -0.5317
  367MOL0     C49472   0.625   4.707   1.469 -0.3426 -0.6556 -0.6586
  367MOL0     C49473   0.505   4.631   1.431 -0.0767 -0.8136 -0.3474
  367MOL0     C49474   0.413   4.556   1.412 -0.1036  0.5088  0.6266
  367MOL0     C49475   0.695   4.660   0.794 -0.5080  0.7879  0.0581
  367MOL0     C49476   0.636   4.649   0.667 -1.1032 -0.0856  0.6181
  367MOL0     C49477   0.632   4.511   0.602 -0.3434  0.1205 -0.3342
  367MOL0     H49478   0.508   5.132   0.332  0.3127  0.6162 -0.9536
  367MOL0     H49479   0.475   5.202   0.109  1.0461 -0.0508 -0.2223
  367MOL0     H49480   0.666   5.004  -0.187  0.0989 -0.8368  1.6862
  367MOL0     H49481   0.524   4.896  -0.212 -2.2108  0.2129 -1.9554
  367MOL0     H49482   0.617   5.074  -0.395  0.2071 -4.4382  0.0253
  367MOL0     H49483   0.539   5.184  -0.297  4.2326 -0.7332 -1.4016
  367MOL0     H49484   0.321   5.102  -0.355 -2.3532 -1.9177 -2.4754
  367MOL0     H49485   0.367   4.937  -0.371 -0.4940 -1.5261 -0.7081
  367MOL0     H49486   0.402   5.166  -0.571 -0.3109 -0.5874  0.9157
  367MOL0     H49487   0.498   5.020  -0.579  1.9419  1.7551  2.2291
  367MOL0     H49488   0.284   4.875  -0.587 -0.6901 -1.3356  0.5889
  367MOL0     H49489   0.190   5.016  -0.540 -0.6687 -0.8153 -0.8208
  367MOL0     H49490   0.183   4.960  -0.780  0.1545 -0.8636  1.4335
  367MOL0     H49491   0.213   5.122  -0.739 -0.5466 -0.5562  0.9875
  367MOL0     H49492   0.436   4.921  -0.821  1.8395  0.3430 -1.4795
  367MOL0     H49493   0.458   5.098  -0.803 -1.0761  0.5746  1.2795
  367MOL0     H49494   0.421   5.008  -1.046  0.9986  0.1481  0.0583
  367MOL0     H49495   0.257   4.978  -1.011 -1.1438  0.7600  0.4346
  367MOL0     H49496   0.094   5.190  -0.962 -0.5055  1.9088  2.0870
  367MOL0     H49497   0.021   5.443  -0.919  1.2726 -0.5270 -0.0350
  367MOL0     H49498   0.125   5.555  -1.011  3.2395 -0.7549 -0.4901
  367MOL0     H49499   0.043   5.385  -1.222  2.1679 -1.5364  1.4754
  367MOL0     H49500  -0.071   5.332  -1.115  2.6129 -0.5616  2.7240
  367MOL0     H49501  -0.029   5.625  -1.178  0.2517 -1.2725 -1.7566
  367MOL0     H49502  -0.162   5.560  -1.068 -2.5953  1.6424 -1.7420
  367MOL0     H49503  -0.250   5.611  -1.298  0.2526 -1.3391 -1.3840
  367MOL0     H49504  -0.253   5.440  -1.272  2.6712 -2.7134 -1.1842
  367MOL0     H49505   0.035   5.338  -1.538  1.1331  2.4252 -2.9634
  367MOL0     H49506  -0.052   5.212  -1.741 -1.8876 -0.9324 -0.3214
  367MOL0     H49507  -0.671   5.112  -1.854  0.5040  2.8809  0.5362
  367MOL0     H49508  -0.776   4.998  -2.058  0.7463 -2.0122  2.6296
  367MOL0     H49509  -0.705   4.813  -2.268  0.0784 -0.5069 -0.9599
  367MOL0     H49510  -0.841   4.919  -2.272 -0.1791  1.2938  0.8050
  367MOL0     H49511  -0.686   4.874  -2.514  0.9862 -2.7853  0.2334
  367MOL0     H49512  -0.814   4.764  -2.449 -0.6479  1.0763 -1.1460
  367MOL0     H49513  -0.977   4.935  -2.440 -0.9782 -0.3047 -1.4668
  367MOL0     H49514  -0.866   5.054  -2.511  0.3711 -0.6743  1.9195
  367MOL0     H49515  -0.984   4.806  -2.650  0.3822 -0.7174 -2.8405
  367MOL0     H49516  -0.844   4.900  -2.701  1.9358  0.9569  2.4021
  367MOL0     H49517  -1.122   5.018  -2.656 -0.2464 -0.2604 -1.6517
  367MOL0     H49518  -1.070   4.969  -2.809 -2.0159  2.4708 -0.0987
  367MOL0     H49519  -0.950   5.203  -2.643  2.0874  0.6471 -1.6896
  367MOL0     H49520  -0.909   5.144  -2.807  0.1845  0.8716  0.0967
  367MOL0     H49521  -1.135   5.181  -2.894  1.2466 -1.8615 -0.1572
  367MOL0     H49522  -1.047   5.324  -2.831 -2.7968  2.2299  1.2692
  367MOL0     H49523  -1.246   5.185  -2.662  1.4144  0.9321  1.0838
  367MOL0     H49524  -1.211   5.357  -2.668  1.3504 -0.5682  1.0680
  367MOL0     H49525  -0.445   5.111  -2.294  0.9516 -3.8693 -0.2045
  367MOL0     H49526  -0.343   5.235  -2.091 -0.6782  1.6157 -5.4937
  367MOL0     H49527  -0.443   5.358  -1.650  1.2395 -0.4666 -1.4117
  367MOL0     H49528  -0.366   5.491  -1.481 -0.2022  0.6600 -0.9642
  367MOL0     H49529   0.538   4.818  -0.041 -1.8548  1.0014 -0.5669
  367MOL0     H49530   0.603   4.734   0.189  1.0621 -0.0087  0.1778
  367MOL0     H49531   0.583   4.988   0.629 -2.7929  0.0560 -0.1150
  367MOL0     H49532   0.657   4.984   0.852 -2.5553  1.2818 -0.8439
  367MOL0     H49533   0.597   4.892   1.079 -0.7985 -0.6733 -0.7042
  367MOL0     H49534   0.747   4.941   1.147 -2.0922  1.2292  0.0392
  367MOL0     H49535   0.782   4.698   1.230  0.7604  1.5992  0.0879
  367MOL0     H49536   0.614   4.673   1.186  1.3944 -2.9200  1.4350
  367MOL0     H49537   0.565   4.873   1.350  1.8727  2.2205  0.2328
  367MOL0     H49538   0.734   4.872   1.390 -1.1013  1.7293 -0.9877
  367MOL0     H49539   0.714   4.646   1.488  1.0153  1.7502  1.3452
  367MOL0     H49540   0.612   4.750   1.569 -1.6985  2.2941 -1.9887
  367MOL0     H49541   0.335   4.483   1.418 -0.3177  0.7586  0.9458
  367MOL0     H49542   0.750   4.582   0.845  0.3797  1.4179  0.0998
  367MOL0     H49543   0.706   4.444   0.647  1.1986  1.4424 -0.8048
  367MOL0     H49544   0.526   4.482   0.604 -1.5035  3.7636 -1.3832
  367MOL0     H49545   0.664   4.526   0.498 -1.4419  0.9087 -0.5825
  368MOL0     O49546   4.839   7.900  10.893  0.0002 -0.0200 -0.3632
  368MOL0     C49547   4.810   7.908  10.769 -1.1929 -0.0326  1.1125
  368MOL0     O49548   4.880   7.976  10.680  0.0536 -0.6672 -0.4066
  368MOL0     C49549   5.014   7.961  10.687 -0.1864  0.3260  0.2948
  368MOL0     C49550   5.088   7.839  10.702  0.2487  0.2051 -0.5898
  368MOL0     C49551   5.233   7.834  10.698  0.2311 -0.8303  0.6270
  368MOL0     C49552   5.306   7.945  10.662 -0.8314 -0.4676  0.1560
  368MOL0     O49553   5.444   7.942  10.649  0.3817 -0.1387 -0.4949
  368MOL0     C49554   5.518   8.050  10.592  0.0388  0.0588  0.4897
  368MOL0     C49555   5.669   8.021  10.612  1.3695 -0.0480 -0.1423
  368MOL0     C49556   5.710   7.877  10.588  0.4702  0.2891  0.4494
  368MOL0     C49557   5.766   7.824  10.717 -1.3330  0.3147  0.5128
  368MOL0     C49558   5.805   7.682  10.696 -0.6294 -0.6371 -1.3744
  368MOL0     C49559   5.890   7.623  10.815 -0.0460 -0.2593  0.3282
  368MOL0     C49560   5.884   7.470  10.815  0.5626 -0.2071  0.6408
  368MOL0     C49561   5.928   7.407  10.683  0.0417  0.4214 -0.5829
  368MOL0     N49562   5.942   7.260  10.684  0.3315 -0.1134  0.9291
  368MOL0     C49563   5.838   7.173  10.720  0.2830 -0.3659 -0.0716
  368MOL0     C49564   5.899   7.052  10.705 -0.6475  0.4658 -0.4881
  368MOL0     C49565   5.844   6.915  10.715 -0.3685  0.4945 -0.3970
  368MOL0     C49566   5.938   6.789  10.723 -0.4516  0.2910 -0.0527
  368MOL0     C49567   5.999   6.793  10.865 -0.6158 -0.2284 -0.0435
  368MOL0     C49568   6.110   6.692  10.887 -0.3876 -0.2632 -1.5814
  368MOL0     O49569   6.220   6.681  10.796  0.8812  0.3562  0.0946
  368MOL0     C49570   6.336   6.626  10.830 -0.6017  0.1565  0.6035
  368MOL0     C49571   6.454   6.674  10.781 -0.0056 -0.0436 -1.4203
  368MOL0     C49572   6.574   6.637  10.827  0.3425  0.0601  0.5243
  368MOL0     C49573   6.587   6.549  10.932 -0.1493  0.2948 -0.3204
  368MOL0     C49574   6.725   6.527  10.982 -0.5438 -0.0810 -0.7729
  368MOL0     O49575   6.742   6.417  11.061 -0.6365  0.4484 -0.6811
  368MOL0     C49576   6.866   6.416  11.120  0.0042  0.3628 -0.0075
  368MOL0     C49577   6.992   6.417  11.053  1.0574 -0.6896 -0.6185
  368MOL0     C49578   7.106   6.391  11.130  0.0078 -1.2416  0.2835
  368MOL0     C49579   7.109   6.366  11.266 -0.0613  0.7427 -0.0157
  368MOL0     O49580   7.218   6.349  11.338  0.3187  0.6556  0.2430
  368MOL0     C49581   7.316   6.445  11.315  0.0523 -0.0205 -0.8275
  368MOL0     C49582   7.425   6.433  11.418 -0.0425  0.5952  0.1113
  368MOL0     C49583   7.506   6.307  11.382 -0.6742  0.0904 -0.2673
  368MOL0     C49584   7.620   6.342  11.282  0.3036 -0.1470 -0.2330
  368MOL0     C49585   7.712   6.222  11.252 -0.0490 -1.1398  0.3020
  368MOL0     C49586   7.639   6.098  11.203 -0.7767 -0.0243  0.2747
  368MOL0     C49587   7.734   5.992  11.149  0.3647  0.0664  0.7753
  368MOL0     C49588   7.805   6.021  11.013 -0.4050 -0.0261 -0.4142
  368MOL0    Cl49589   7.699   5.983  10.873 -0.3892 -0.5176  0.5098
  368MOL0     C49590   6.982   6.377  11.334  0.0202 -0.2810  0.2377
  368MOL0     C49591   6.869   6.402  11.255  0.0055  0.2359 -0.4116
  368MOL0     O49592   6.808   6.615  10.947 -1.3666  0.6497 -0.2810
  368MOL0     C49593   6.477   6.490  10.984  0.2054  0.5933  0.4532
  368MOL0     C49594   6.348   6.539  10.943 -0.0565  0.5047  0.0859
  368MOL0     N49595   6.032   7.065  10.678 -0.1213 -1.3198 -0.0001
  368MOL0     N49596   6.054   7.194  10.664  0.5698  0.1831  0.3135
  368MOL0     C49597   5.235   8.062  10.628  1.2976  0.1645 -0.0389
  368MOL0     C49598   5.095   8.074  10.648  0.6443  0.0980 -0.2689
  368MOL0     C49599   4.670   7.871  10.739 -0.1995  0.0622 -0.8695
  368MOL0     C49600   4.610   7.783  10.839  0.5233  0.5392  0.4689
  368MOL0     C49601   4.480   7.741  10.820 -0.3707  0.8794  0.8554
  368MOL0     C49602   4.407   7.787  10.710  0.6091 -1.3206 -0.6069
  368MOL0     O49603   4.268   7.777  10.696  0.1918  0.1209  0.0096
  368MOL0     C49604   4.185   7.711  10.800  0.6926  0.4692 -0.2118
  368MOL0     C49605   4.091   7.613  10.726 -0.2711  0.5093 -0.8557
  368MOL0     C49606   3.979   7.685  10.647 -0.8381 -0.2473 -0.1679
  368MOL0     C49607   3.897   7.586  10.557  0.9234  0.7896 -0.7045
  368MOL0     C49608   3.775   7.657  10.525  0.7243 -0.1352 -0.2066
  368MOL0     C49609   3.667   7.711  10.505 -0.0842 -0.3658  0.1295
  368MOL0     C49610   4.461   7.868  10.619 -0.2841  0.3794 -0.3862
  368MOL0     C49611   4.593   7.908  10.626 -0.6687  0.9138  0.2064
  368MOL0     C49612   4.649   7.990  10.512 -0.5948  0.4710 -0.6283
  368MOL0     H49613   5.029   7.752  10.730 -2.0445  1.4120 -1.4013
  368MOL0     H49614   5.291   7.743  10.706 -0.1365 -0.9596  2.1961
  368MOL0     H49615   5.488   8.049  10.487 -1.2962 -3.6379  0.7599
  368MOL0     H49616   5.507   8.152  10.632  1.3932 -0.3032  1.9000
  368MOL0     H49617   5.691   8.065  10.710 -2.1906 -1.0498  1.2783
  368MOL0     H49618   5.712   8.080  10.531  2.5290  4.1712  3.1925
  368MOL0     H49619   5.788   7.867  10.512 -1.1483  2.8160 -1.6834
  368MOL0     H49620   5.617   7.825  10.560  0.9903 -1.7391  2.1448
  368MOL0     H49621   5.854   7.882  10.746 -0.9616  1.0356 -1.8394
  368MOL0     H49622   5.687   7.833  10.792 -1.4420 -0.6198  0.5178
  368MOL0     H49623   5.715   7.623  10.679 -1.3132 -0.2823  0.7714
  368MOL0     H49624   5.866   7.682  10.605  0.5009  1.4258 -0.6779
  368MOL0     H49625   5.993   7.649  10.792 -1.1716  3.0434 -1.7083
  368MOL0     H49626   5.858   7.666  10.910  2.0011  0.4859  0.7286
  368MOL0     H49627   5.780   7.445  10.834 -1.0210  1.2760 -4.5531
  368MOL0     H49628   5.952   7.430  10.891  2.9802 -1.1186 -1.8224
  368MOL0     H49629   5.858   7.435  10.603 -2.1844  0.1863  1.1810
  368MOL0     H49630   6.031   7.439  10.664  0.6649 -0.6925  0.7347
  368MOL0     H49631   5.734   7.198  10.741 -0.7613 -3.8285 -0.4502
  368MOL0     H49632   5.789   6.911  10.808 -2.2521 -0.1970 -1.4932
  368MOL0     H49633   5.791   6.903  10.620 -2.5959 -0.3633  0.8769
  368MOL0     H49634   5.879   6.699  10.704  2.1361 -1.5099 -0.0500
  368MOL0     H49635   6.021   6.802  10.653  2.2058 -0.0285  2.8703
  368MOL0     H49636   5.927   6.784  10.947  0.2528 -0.4050  0.7092
  368MOL0     H49637   6.049   6.888  10.882  0.6400 -0.6881 -1.0278
  368MOL0     H49638   6.057   6.598  10.902 -3.0211  1.0595 -2.1413
  368MOL0     H49639   6.160   6.707  10.983 -2.0619 -2.5914 -0.2253
  368MOL0     H49640   6.443   6.747  10.702 -2.4072  2.5305  1.0670
  368MOL0     H49641   6.660   6.693  10.793 -1.3797  2.0692 -0.8041
  368MOL0     H49642   6.992   6.435  10.946 -1.1662 -4.4908 -1.4495
  368MOL0     H49643   7.201   6.377  11.080 -0.1730 -2.7902  0.3392
  368MOL0     H49644   7.362   6.424  11.218  2.1947  2.2266 -0.3668
  368MOL0     H49645   7.264   6.541  11.309  0.7800  0.3885 -0.6553
  368MOL0     H49646   7.506   6.506  11.409  2.6755 -1.5309  4.4497
  368MOL0     H49647   7.372   6.431  11.514  1.1408 -0.1880  0.7592
  368MOL0     H49648   7.540   6.260  11.474  0.7804 -2.4742 -1.9655
  368MOL0     H49649   7.444   6.227  11.339  1.5443 -1.9866  0.1517
  368MOL0     H49650   7.680   6.423  11.324 -4.4235  3.0830  1.1301
  368MOL0     H49651   7.586   6.383  11.186 -1.0802 -0.0624  0.2679
  368MOL0     H49652   7.762   6.196  11.345  4.1867  3.3940 -0.3187
  368MOL0     H49653   7.792   6.243  11.181  1.6511 -2.5268  1.7314
  368MOL0     H49654   7.579   6.051  11.282  1.2976 -3.0721  0.1945
  368MOL0     H49655   7.579   6.139  11.122 -0.1531  0.3499 -0.0043
  368MOL0     H49656   7.682   5.898  11.131 -0.9705  1.4409 -4.3352
  368MOL0     H49657   7.819   5.972  11.216  2.0300  2.1801 -0.5765
  368MOL0     H49658   7.842   6.124  11.010  0.8330 -0.4748 -1.6532
  368MOL0     H49659   7.896   5.963  11.000 -0.7880 -0.1252 -3.4834
  368MOL0     H49660   6.976   6.363  11.441  2.1040 -1.9908  0.2014
  368MOL0     H49661   6.780   6.426  11.312  0.9537  1.2059  0.7244
  368MOL0     H49662   6.493   6.429  11.073  0.3458  1.9117  1.3684
  368MOL0     H49663   6.257   6.504  10.992  2.5402 -0.6975  4.6687
  368MOL0     H49664   5.286   8.150  10.593  2.1065 -0.2152  0.1627
  368MOL0     H49665   5.045   8.170  10.633  4.1052  2.5884  2.5532
  368MOL0     H49666   4.676   7.757  10.921 -0.5312 -3.5552  0.2668
  368MOL0     H49667   4.431   7.678  10.893 -0.8940  2.7468  2.1623
  368MOL0     H49668   4.119   7.782  10.851 -3.1059 -2.3850 -0.6822
  368MOL0     H49669   4.237   7.651  10.876 -0.7273 -1.8536 -0.9530
  368MOL0     H49670   4.045   7.535  10.787  0.7739  1.7603  1.7031
  368MOL0     H49671   4.154   7.550  10.662 -1.9526 -0.9348 -1.1470
  368MOL0     H49672   4.016   7.771  10.590  1.0522 -0.9562 -0.0872
  368MOL0     H49673   3.913   7.735  10.718 -0.9922 -0.5780 -0.0763
  368MOL0     H49674   3.951   7.565  10.464 -0.5231  1.9083 -1.8446
  368MOL0     H49675   3.884   7.493  10.614  0.1728  1.6190  0.5365
  368MOL0     H49676   3.565   7.743  10.495 -0.1342 -0.8638 -1.0876
  368MOL0     H49677   4.407   7.906  10.533  1.7365  1.0341 -1.4552
  368MOL0     H49678   4.726   7.934  10.459 -1.1480 -0.9935  0.0558
  368MOL0     H49679   4.577   8.023  10.437 -1.2828  2.3993  0.7863
  368MOL0     H49680   4.684   8.083  10.558  1.2438 -0.5642  0.1988
  369MOL0     O49681   5.534  10.600   6.705  0.2060 -0.1941 -0.6156
  369MOL0     C49682   5.578  10.693   6.635 -0.9471  0.9148  0.1158
  369MOL0     O49683   5.599  10.826   6.675 -0.3696  0.4998 -0.6957
  369MOL0     C49684   5.640  10.848   6.813  0.7961 -0.4501 -0.4974
  369MOL0     C49685   5.613  10.973   6.876  0.1316 -0.1336  0.4609
  369MOL0     C49686   5.652  11.000   7.005 -0.0865 -0.4303  0.1525
  369MOL0     C49687   5.721  10.907   7.077  0.1964  0.2019 -0.6616
  369MOL0     O49688   5.727  10.918   7.219 -0.5815  0.1261 -0.0790
  369MOL0     C49689   5.641  11.010   7.281  0.2578 -0.4205 -1.2780
  369MOL0     C49690   5.491  10.971   7.286 -0.2267  0.2448 -0.4004
  369MOL0     C49691   5.416  11.037   7.401  0.3157 -0.6519 -0.7988
  369MOL0     C49692   5.479  11.069   7.534  0.6985  0.4619  0.2900
  369MOL0     C49693   5.375  11.148   7.628  0.0649  0.4959  1.0988
  369MOL0     C49694   5.441  11.214   7.752  0.8612  0.4470 -0.7379
  369MOL0     C49695   5.563  11.298   7.716  0.0036  0.5886  0.7308
  369MOL0     C49696   5.691  11.213   7.760  0.3542 -0.2576 -0.2337
  369MOL0     N49697   5.815  11.284   7.746  0.3516  0.0122 -0.8427
  369MOL0     C49698   5.940  11.224   7.735  0.4433 -0.5350  0.3108
  369MOL0     C49699   6.020  11.333   7.742 -0.8255 -0.2820  0.2296
  369MOL0     C49700   6.169  11.324   7.728 -0.3970  0.8045  0.4691
  369MOL0     C49701   6.245  11.334   7.856  0.0705  0.6121 -0.2794
  369MOL0     C49702   6.267  11.209   7.932 -0.3679 -0.5346  0.4701
  369MOL0     C49703   6.347  11.229   8.056 -1.1998 -0.0611 -0.4010
  369MOL0     O49704   6.464  11.308   8.039 -0.7541  0.3007  0.4897
  369MOL0     C49705   6.534  11.357   8.152  0.5684 -0.4748  0.7352
  369MOL0     C49706   6.491  11.356   8.287 -0.4039  0.0786 -0.5774
  369MOL0     C49707   6.579  11.393   8.387 -0.7462 -0.2293 -0.0054
  369MOL0     C49708   6.707  11.439   8.358 -0.3224  0.2884 -0.1924
  369MOL0     C49709   6.792  11.479   8.472 -0.2336  0.3728  0.5157
  369MOL0     O49710   6.731  11.468   8.597  0.0228  0.0926 -0.1387
  369MOL0     C49711   6.783  11.527   8.707 -1.0369  0.0579 -0.8423
  369MOL0     C49712   6.884  11.626   8.716  0.2278  0.3727  0.8497
  369MOL0     C49713   6.917  11.670   8.844  0.6597 -1.8524 -0.2982
  369MOL0     C49714   6.848  11.633   8.961 -0.8037 -0.4138 -0.5040
  369MOL0     O49715   6.884  11.672   9.088  0.2026 -0.0903 -0.2908
  369MOL0     C49716   7.019  11.702   9.121  0.0810  0.4781  0.5885
  369MOL0     C49717   7.095  11.575   9.154 -0.3683 -1.0806  0.5397
  369MOL0     C49718   7.019  11.483   9.250 -0.2058  0.5606  0.3880
  369MOL0     C49719   6.995  11.547   9.389 -0.6319  0.2384  0.0629
  369MOL0     C49720   6.931  11.450   9.493  0.0254 -0.0634 -0.0127
  369MOL0     C49721   6.895  11.515   9.626 -0.2430  0.8909 -0.4994
  369MOL0     C49722   6.853  11.410   9.724 -0.3697  0.3891 -0.3390
  369MOL0     C49723   6.835  11.462   9.862 -0.7587 -0.8964 -0.9674
  369MOL0    Cl49724   6.697  11.573   9.884 -0.0106  0.7071 -0.2133
  369MOL0     C49725   6.765  11.528   8.948  0.2470 -0.5059 -0.8740
  369MOL0     C49726   6.722  11.485   8.826 -0.2056  0.3514  0.5689
  369MOL0     O49727   6.913  11.508   8.452 -0.1176 -0.6916  0.0443
  369MOL0     C49728   6.751  11.445   8.225 -0.5476 -0.3322  0.4167
  369MOL0     C49729   6.665  11.400   8.126  0.0588  0.3811  0.8171
  369MOL0     N49730   5.954  11.451   7.767 -0.0915  0.0083 -0.4712
  369MOL0     N49731   5.829  11.421   7.761  0.3130  0.2476 -0.2565
  369MOL0     C49732   5.768  10.791   7.015  0.1215 -0.3274 -0.3480
  369MOL0     C49733   5.718  10.757   6.884 -0.2897  0.8097 -0.6922
  369MOL0     C49734   5.633  10.663   6.501 -0.0968  0.5531  0.6660
  369MOL0     C49735   5.704  10.767   6.435 -0.9635  0.4408  0.1858
  369MOL0     C49736   5.736  10.759   6.294 -0.0194 -0.3798  1.3491
  369MOL0     C49737   5.690  10.643   6.219  0.1084 -0.2928 -0.3182
  369MOL0     O49738   5.721  10.640   6.091  0.0919 -0.6482  0.5204
  369MOL0     C49739   5.754  10.515   6.028 -0.2134 -0.6287 -0.1748
  369MOL0     C49740   5.876  10.444   6.088 -0.0358 -0.7799 -0.4157
  369MOL0     C49741   5.925  10.312   6.030  0.0172 -0.2367  0.0862
  369MOL0     C49742   5.940  10.315   5.869 -0.9193  0.2920 -1.5100
  369MOL0     C49743   6.031  10.217   5.810 -0.4200 -0.2242  0.5224
  369MOL0     C49744   6.123  10.164   5.748 -0.1754 -0.9991  0.5393
  369MOL0     C49745   5.627  10.544   6.294 -0.9805  0.3854  0.3061
  369MOL0     C49746   5.597  10.545   6.424 -0.5247 -0.3387 -1.1464
  369MOL0     C49747   5.505  10.429   6.477 -0.9353 -0.0883  0.6183
  369MOL0     H49748   5.568  11.060   6.830  1.5876 -0.8074 -2.5115
  369MOL0     H49749   5.611  11.088   7.053 -0.8855 -2.2410  3.0213
  369MOL0     H49750   5.666  11.015   7.387  0.3876 -0.1597 -1.3216
  369MOL0     H49751   5.652  11.116   7.258  2.5736 -0.1213  0.7909
  369MOL0     H49752   5.490  10.865   7.311 -2.2137  0.5200  0.8419
  369MOL0     H49753   5.449  10.978   7.185  0.8613  0.7142 -0.8477
  369MOL0     H49754   5.335  10.971   7.431 -0.2049  0.0257 -0.6901
  369MOL0     H49755   5.379  11.131   7.357 -0.8959  0.3271  2.1205
  369MOL0     H49756   5.507  10.978   7.587  3.7285  0.6765 -0.7992
  369MOL0     H49757   5.570  11.128   7.521  1.1777 -0.4878 -0.8444
  369MOL0     H49758   5.335  11.225   7.562  2.0944  0.8589  0.2234
  369MOL0     H49759   5.286  11.091   7.653  0.2626 -1.5362 -2.1256
  369MOL0     H49760   5.376  11.280   7.811 -0.4634 -1.6709  0.2674
  369MOL0     H49761   5.463  11.135   7.823  0.6289 -1.0580 -2.2784
  369MOL0     H49762   5.561  11.390   7.775  0.0717 -0.0400  1.7504
  369MOL0     H49763   5.581  11.316   7.610 -0.7922 -2.1758  0.0298
  369MOL0     H49764   5.680  11.174   7.862 -0.9067  1.2094  0.2519
  369MOL0     H49765   5.720  11.132   7.694  1.3876  1.5366 -2.1003
  369MOL0     H49766   5.958  11.117   7.725 -2.5560 -1.2262  1.1503
  369MOL0     H49767   6.185  11.229   7.676 -0.7324 -0.6589  2.8920
  369MOL0     H49768   6.205  11.408   7.667  4.2926 -1.2800 -0.0521
  369MOL0     H49769   6.343  11.378   7.833  0.1563  0.6452  0.1357
  369MOL0     H49770   6.191  11.407   7.917  1.1597 -0.2420  1.8191
  369MOL0     H49771   6.313  11.136   7.865  0.5699 -0.6083  1.1803
  369MOL0     H49772   6.174  11.167   7.971 -0.2809  0.7358  2.1465
  369MOL0     H49773   6.362  11.135   8.110 -1.6450  0.1129  0.0427
  369MOL0     H49774   6.290  11.293   8.125 -0.8093 -0.5437  0.3833
  369MOL0     H49775   6.395  11.322   8.327 -0.3984  3.0941  2.3524
  369MOL0     H49776   6.541  11.390   8.489  0.2154 -0.5408  0.3583
  369MOL0     H49777   6.942  11.660   8.631  3.1256  2.3722  3.4055
  369MOL0     H49778   6.990  11.751   8.855 -0.5051 -0.9252  0.8998
  369MOL0     H49779   7.070  11.764   9.046 -2.2135  0.1273 -1.3760
  369MOL0     H49780   7.017  11.760   9.214 -1.1506  0.9360  0.2931
  369MOL0     H49781   7.107  11.518   9.061 -0.8202  0.1640 -0.3193
  369MOL0     H49782   7.194  11.599   9.193  1.9143 -2.0662 -3.9443
  369MOL0     H49783   6.926  11.444   9.208  0.9636  2.1367 -4.1828
  369MOL0     H49784   7.091  11.403   9.267  1.4198  1.5385 -1.5514
  369MOL0     H49785   6.933  11.635   9.370  1.3327  1.9117  0.9809
  369MOL0     H49786   7.087  11.592   9.427 -0.2500  0.2178 -0.8087
  369MOL0     H49787   7.012  11.381   9.514  0.0873 -1.1603 -3.3074
  369MOL0     H49788   6.838  11.402   9.461  1.6292 -3.1867 -0.3128
  369MOL0     H49789   6.990  11.558   9.659  1.5219 -3.4607  0.8802
  369MOL0     H49790   6.814  11.587   9.610  0.3553  1.7730  0.3590
  369MOL0     H49791   6.918  11.322   9.718  2.2986  2.2836 -5.1793
  369MOL0     H49792   6.755  11.389   9.679  0.7025 -0.0121 -2.6535
  369MOL0     H49793   6.825  11.379   9.933  0.4447  0.7835  1.2953
  369MOL0     H49794   6.931  11.503   9.896  0.5124 -4.1980 -0.1074
  369MOL0     H49795   6.737  11.474   9.038  2.3656  0.4045  0.3974
  369MOL0     H49796   6.650  11.404   8.817 -0.7615  0.9901 -1.1307
  369MOL0     H49797   6.851  11.485   8.207 -0.0037 -1.6371  0.4268
  369MOL0     H49798   6.687  11.401   8.020 -3.3970  0.3516 -0.0423
  369MOL0     H49799   5.837  10.735   7.076  1.1351 -0.3544 -1.4772
  369MOL0     H49800   5.751  10.662   6.844  0.6626  1.9754 -2.8163
  369MOL0     H49801   5.731  10.863   6.478 -3.2743  2.2504 -2.0848
  369MOL0     H49802   5.791  10.848   6.264 -0.0362 -0.3130  1.5146
  369MOL0     H49803   5.785  10.538   5.925  2.5032  4.0365  1.3623
  369MOL0     H49804   5.666  10.451   6.032 -1.4539  1.0190  0.0916
  369MOL0     H49805   5.858  10.413   6.191 -0.4055  0.1332 -0.1886
  369MOL0     H49806   5.962  10.510   6.104 -0.6273  0.1203 -0.8709
  369MOL0     H49807   5.854  10.232   6.053 -2.7394  1.3859 -2.2267
  369MOL0     H49808   6.014  10.288   6.088 -2.5746 -1.8557  3.7557
  369MOL0     H49809   5.839  10.301   5.832 -1.3684 -2.8894  0.6011
  369MOL0     H49810   5.985  10.413   5.848 -0.1453 -0.5102 -3.8414
  369MOL0     H49811   6.196  10.100   5.703 -0.1895 -0.4987 -0.2047
  369MOL0     H49812   5.595  10.451   6.247 -1.8758  1.3669 -1.1028
  369MOL0     H49813   5.535  10.389   6.575 -2.1471  1.1616  1.5424
  369MOL0     H49814   5.401  10.462   6.484 -0.4107  1.8455 -0.0563
  369MOL0     H49815   5.504  10.342   6.411 -0.8077  0.0509  0.4322
  370MOL0     O49816   4.845   3.627   1.537 -1.0279 -0.8856  0.1843
  370MOL0     C49817   4.891   3.514   1.537 -0.3356 -0.0856 -0.4709
  370MOL0     O49818   4.823   3.410   1.478  0.2745 -0.3776 -0.2245
  370MOL0     C49819   4.681   3.399   1.480 -0.0895 -0.1284 -0.0175
  370MOL0     C49820   4.616   3.354   1.594 -0.6429  0.7490  0.0859
  370MOL0     C49821   4.477   3.344   1.611  0.2006 -0.1643  0.5213
  370MOL0     C49822   4.403   3.391   1.499 -0.9600  0.8265 -0.0710
  370MOL0     O49823   4.259   3.404   1.512 -0.6241  0.6749  0.6394
  370MOL0     C49824   4.224   3.542   1.473 -0.6532 -0.2719  0.3726
  370MOL0     C49825   4.256   3.647   1.574  0.6964 -0.2209 -0.4654
  370MOL0     C49826   4.162   3.774   1.570  0.2259 -0.4526 -0.1843
  370MOL0     C49827   4.135   3.848   1.437  1.1657  0.0171  0.4860
  370MOL0     C49828   3.986   3.890   1.419 -0.3226  0.0537  0.0412
  370MOL0     C49829   3.988   4.029   1.357 -0.6166  0.7258 -0.0893
  370MOL0     C49830   3.850   4.051   1.308 -0.5797 -0.9379  0.5583
  370MOL0     C49831   3.743   4.056   1.417 -0.4346 -0.1504  0.0030
  370MOL0     N49832   3.615   4.123   1.390 -0.1864  0.3472  0.0013
  370MOL0     C49833   3.598   4.250   1.352 -0.1145  0.8644 -0.1612
  370MOL0     C49834   3.468   4.262   1.356 -1.2100 -0.2115  0.1783
  370MOL0     C49835   3.395   4.384   1.292  0.3722  0.2558 -0.4344
  370MOL0     C49836   3.334   4.338   1.152  0.0836 -0.4412 -0.4797
  370MOL0     C49837   3.458   4.327   1.063  0.2519  0.2866 -0.7101
  370MOL0     C49838   3.428   4.263   0.931  0.3714 -0.2556 -0.8625
  370MOL0     O49839   3.388   4.124   0.963  0.2629 -1.2491 -0.3519
  370MOL0     C49840   3.468   4.019   0.933 -0.4031 -0.4330  0.0662
  370MOL0     C49841   3.605   4.012   0.937  0.4529 -0.0905  0.0159
  370MOL0     C49842   3.672   3.889   0.911 -0.4506  0.3972 -0.0496
  370MOL0     C49843   3.613   3.771   0.885  1.0109 -0.1302  0.3886
  370MOL0     C49844   3.693   3.642   0.874 -0.1572  0.8213  1.3016
  370MOL0     O49845   3.642   3.516   0.853  0.3084 -0.2979  0.6563
  370MOL0     C49846   3.737   3.413   0.831  0.4148 -0.5115 -0.4587
  370MOL0     C49847   3.823   3.418   0.720 -0.1086  0.5134  0.5036
  370MOL0     C49848   3.895   3.309   0.674 -1.1564  0.9435 -0.2859
  370MOL0     C49849   3.892   3.184   0.749  0.6118 -0.0041 -0.2138
  370MOL0     O49850   3.957   3.075   0.714 -0.6137 -0.1309  0.3336
  370MOL0     C49851   4.099   3.095   0.679  0.5450  0.7110  0.2389
  370MOL0     C49852   4.170   2.960   0.706 -0.1466  0.1033  0.9954
  370MOL0     C49853   4.085   2.839   0.650 -0.5457  0.3985  0.2882
  370MOL0     C49854   4.079   2.849   0.494 -0.3833  0.1235  0.4533
  370MOL0     C49855   4.076   2.704   0.450  0.0465 -0.5100 -0.0437
  370MOL0     C49856   4.056   2.714   0.301 -0.3100 -0.2776  0.9244
  370MOL0     C49857   4.044   2.574   0.252 -0.2565  0.1908 -0.6260
  370MOL0     C49858   4.002   2.581   0.109 -0.1635  0.0821  0.4038
  370MOL0    Cl49859   4.040   2.430   0.016 -0.0463  0.0717  0.0079
  370MOL0     C49860   3.802   3.187   0.866  0.1182  0.2630  0.4243
  370MOL0     C49861   3.726   3.299   0.902  0.0772  0.1145 -0.1358
  370MOL0     O49862   3.812   3.661   0.888  0.0267  0.2162  0.4179
  370MOL0     C49863   3.476   3.770   0.890  0.2597  0.1047  0.7496
  370MOL0     C49864   3.413   3.897   0.911 -0.2792 -0.3177  0.8349
  370MOL0     N49865   3.405   4.140   1.361  0.4446  0.8192 -0.4845
  370MOL0     N49866   3.498   4.055   1.404  0.7218 -0.1389  0.2132
  370MOL0     C49867   4.471   3.420   1.373  0.2864  0.4526 -0.1400
  370MOL0     C49868   4.608   3.435   1.372  0.5196  0.7473 -0.1800
  370MOL0     C49869   5.018   3.499   1.613  0.3775  0.3234 -1.0112
  370MOL0     C49870   5.089   3.378   1.582  0.9631 -0.7301  0.1758
  370MOL0     C49871   5.210   3.346   1.641  0.0373  0.4778  0.8343
  370MOL0     C49872   5.274   3.436   1.725 -0.2833 -0.2479 -0.4925
  370MOL0     O49873   5.394   3.405   1.789  0.7406 -0.6170  0.2772
  370MOL0     C49874   5.504   3.399   1.694 -0.1695  0.3130  0.2891
  370MOL0     C49875   5.568   3.540   1.667 -0.2928 -1.2871 -0.2190
  370MOL0     C49876   5.669   3.562   1.558  0.5899 -0.0773  0.5162
  370MOL0     C49877   5.797   3.490   1.583 -0.9269 -0.1193 -0.6088
  370MOL0     C49878   5.868   3.447   1.462  0.9283 -0.2568 -0.3037
  370MOL0     C49879   5.934   3.409   1.370  0.0252  0.5085 -0.2225
  370MOL0     C49880   5.210   3.561   1.756  1.1632  0.3155 -0.3847
  370MOL0     C49881   5.081   3.587   1.697  0.4724 -0.0836 -0.6251
  370MOL0     C49882   5.016   3.708   1.755 -0.7987 -0.7386 -0.0148
  370MOL0     H49883   4.675   3.324   1.680 -1.2523 -3.0203 -0.6231
  370MOL0     H49884   4.417   3.325   1.700 -1.2161  0.4995 -0.2615
  370MOL0     H49885   4.265   3.582   1.380  1.0489  5.1926  3.0357
  370MOL0     H49886   4.116   3.523   1.467 -0.3342 -1.9951 -0.8744
  370MOL0     H49887   4.361   3.678   1.575  0.6701 -0.0913 -1.4471
  370MOL0     H49888   4.238   3.590   1.666  0.8297 -1.5619 -1.2330
  370MOL0     H49889   4.213   3.853   1.627 -1.0071 -0.9942  1.7961
  370MOL0     H49890   4.072   3.750   1.628  0.8500 -2.2809  0.0863
  370MOL0     H49891   4.202   3.934   1.445 -0.7906  1.5833  0.6850
  370MOL0     H49892   4.173   3.784   1.357  0.8713  1.1561 -0.5788
  370MOL0     H49893   3.937   3.819   1.352  1.6440 -3.2616  1.7890
  370MOL0     H49894   3.927   3.898   1.510  0.3379  0.7451  0.4197
  370MOL0     H49895   4.006   4.099   1.438 -0.5884 -0.0705  0.6066
  370MOL0     H49896   4.062   4.042   1.277  2.1993  1.2930  2.4473
  370MOL0     H49897   3.820   3.990   1.223 -1.3351  0.2776 -0.0717
  370MOL0     H49898   3.854   4.149   1.259  0.1352 -1.2462 -0.0211
  370MOL0     H49899   3.728   3.958   1.462  2.0477 -0.2507  0.7436
  370MOL0     H49900   3.775   4.119   1.501 -1.9376 -0.8617  1.1547
  370MOL0     H49901   3.676   4.318   1.320  0.1161  0.8711  0.4014
  370MOL0     H49902   3.305   4.412   1.348  1.1902  2.3633 -0.0910
  370MOL0     H49903   3.459   4.473   1.282  0.9469  0.3041  2.6194
  370MOL0     H49904   3.271   4.248   1.151 -2.8093  1.2046  3.9533
  370MOL0     H49905   3.267   4.416   1.114 -0.8225 -0.8142  0.2867
  370MOL0     H49906   3.530   4.258   1.108 -0.7889 -1.6047 -1.8057
  370MOL0     H49907   3.510   4.423   1.053 -0.2776  0.5632 -0.8537
  370MOL0     H49908   3.513   4.270   0.862  0.0240 -0.2248 -1.2933
  370MOL0     H49909   3.341   4.317   0.893 -2.6924 -2.9467  1.7164
  370MOL0     H49910   3.650   4.098   0.988 -0.4672  0.6697 -0.4226
  370MOL0     H49911   3.778   3.899   0.931 -0.6169  1.0329  0.5878
  370MOL0     H49912   3.829   3.513   0.670  1.5015 -0.7227 -1.8567
  370MOL0     H49913   3.953   3.311   0.583  0.3825 -1.4967  0.5495
  370MOL0     H49914   4.107   3.106   0.570  0.6684  0.3330  0.2084
  370MOL0     H49915   4.148   3.174   0.736 -0.4132  1.0895  0.5580
  370MOL0     H49916   4.268   2.970   0.658 -0.8330  1.7918 -0.1335
  370MOL0     H49917   4.177   2.948   0.814  1.0181 -0.3826  0.8790
  370MOL0     H49918   4.125   2.745   0.687 -1.4561  0.2945  1.0681
  370MOL0     H49919   3.987   2.822   0.695  0.8355 -1.6870  2.7331
  370MOL0     H49920   4.153   2.903   0.434 -1.3565 -0.0651 -0.9617
  370MOL0     H49921   3.984   2.894   0.466  0.4128  0.2894 -2.2700
  370MOL0     H49922   4.003   2.640   0.499  1.3716 -3.4101 -1.6301
  370MOL0     H49923   4.177   2.667   0.467 -0.1751 -1.0974 -0.0027
  370MOL0     H49924   3.966   2.761   0.261 -1.0671 -1.3185  1.3649
  370MOL0     H49925   4.153   2.752   0.266  0.1321 -1.8318  0.3667
  370MOL0     H49926   3.966   2.518   0.305  1.3792 -0.9994  0.6574
  370MOL0     H49927   4.135   2.513   0.239  0.1844  1.1678 -2.4221
  370MOL0     H49928   3.895   2.601   0.101 -0.1004 -0.0750 -1.1616
  370MOL0     H49929   4.055   2.663   0.059 -0.0420  0.8241  1.7292
  370MOL0     H49930   3.786   3.095   0.921 -2.4252  0.4780  0.1662
  370MOL0     H49931   3.662   3.289   0.989 -0.7235  0.5682 -0.6597
  370MOL0     H49932   3.404   3.690   0.877  0.2604 -0.1403  2.1057
  370MOL0     H49933   3.307   3.889   0.932 -0.7611  0.0442 -1.2489
  370MOL0     H49934   4.419   3.437   1.279  1.1346  0.1785 -0.6730
  370MOL0     H49935   4.657   3.455   1.278 -1.6477  0.8289 -1.3616
  370MOL0     H49936   5.042   3.311   1.510 -0.9534 -0.8578  1.4604
  370MOL0     H49937   5.264   3.254   1.621  1.1578  1.5819 -1.6385
  370MOL0     H49938   5.472   3.359   1.597  1.7454  0.4518 -0.4527
  370MOL0     H49939   5.576   3.327   1.734 -1.9864 -0.5283  2.1953
  370MOL0     H49940   5.617   3.575   1.758 -3.4589  1.6623  0.5627
  370MOL0     H49941   5.486   3.611   1.652 -0.7670 -1.9872 -1.0612
  370MOL0     H49942   5.693   3.668   1.543  0.5783 -0.2623 -0.9556
  370MOL0     H49943   5.622   3.531   1.465 -0.3402 -0.2246  1.0210
  370MOL0     H49944   5.857   3.555   1.648 -0.5315  0.7283 -1.7799
  370MOL0     H49945   5.792   3.394   1.635  3.8086 -0.9332 -1.2445
  370MOL0     H49946   5.975   3.369   1.280 -1.6551  1.0153 -1.2671
  370MOL0     H49947   5.248   3.641   1.819  0.4857  1.0306 -0.8609
  370MOL0     H49948   5.049   3.788   1.687 -0.0023  0.2468  1.4770
  370MOL0     H49949   4.907   3.700   1.758 -0.7800 -0.8690  2.5471
  370MOL0     H49950   5.050   3.738   1.854 -1.4381 -0.6331  0.1745
  371MOL0     O49951   2.267   0.866   8.901  0.2127 -0.0849  0.3849
  371MOL0     C49952   2.276   0.979   8.948 -0.3430  0.5285  0.8505
  371MOL0     O49953   2.192   1.083   8.919 -0.0140 -0.5905 -0.8574
  371MOL0     C49954   2.057   1.061   8.883 -1.4239 -0.7881 -0.5287
  371MOL0     C49955   2.010   1.114   8.763  0.4640  0.4163  0.3541
  371MOL0     C49956   1.883   1.089   8.720  1.0026  0.1728 -0.6783
  371MOL0     C49957   1.792   1.018   8.800 -0.2964  0.1244  0.8926
  371MOL0     O49958   1.661   1.003   8.754  0.5661 -0.1963 -0.5347
  371MOL0     C49959   1.564   1.028   8.855 -0.2239 -0.4302 -0.1812
  371MOL0     C49960   1.428   1.017   8.773  1.2857 -1.2159 -0.5328
  371MOL0     C49961   1.311   1.051   8.877  0.3562 -0.3410 -1.2748
  371MOL0     C49962   1.240   1.180   8.854 -0.0863  0.1463 -0.2707
  371MOL0     C49963   1.341   1.299   8.845  0.3243  0.6823  0.4283
  371MOL0     C49964   1.265   1.426   8.877  0.1843 -0.3716  0.3327
  371MOL0     C49965   1.371   1.543   8.878 -0.6256  0.5112  0.1996
  371MOL0     C49966   1.334   1.673   8.928  1.3596 -0.8206  0.9728
  371MOL0     N49967   1.204   1.701   8.865  0.6374  0.4244 -0.1251
  371MOL0     C49968   1.097   1.756   8.925 -0.0262 -0.3857  0.1322
  371MOL0     C49969   1.004   1.772   8.825  0.2962  0.1000  0.4658
  371MOL0     C49970   0.852   1.795   8.849  0.1964 -0.0077  0.6808
  371MOL0     C49971   0.770   1.668   8.841  0.1047  0.3620 -0.5161
  371MOL0     C49972   0.781   1.574   8.972  0.7457  0.0426  1.0302
  371MOL0     C49973   0.914   1.492   8.983  0.9204 -0.4724 -0.3889
  371MOL0     O49974   0.871   1.362   9.034  0.0887  0.1761 -0.2352
  371MOL0     C49975   0.859   1.266   8.932 -0.1656 -0.3818  0.1318
  371MOL0     C49976   0.912   1.137   8.959  0.2001 -0.2480 -0.0549
  371MOL0     C49977   0.890   1.029   8.869 -0.6161 -0.4815 -1.4614
  371MOL0     C49978   0.821   1.050   8.751  0.4627  0.9644 -0.8325
  371MOL0     C49979   0.798   0.935   8.664  0.5321  0.0862  0.1945
  371MOL0     O49980   0.897   0.851   8.632  0.0796 -0.9195 -0.7399
  371MOL0     C49981   0.877   0.730   8.563  0.7322 -0.6471 -0.3694
  371MOL0     C49982   0.755   0.652   8.568  0.2879 -0.5766  0.7868
  371MOL0     C49983   0.746   0.542   8.485  0.2849  0.1158  0.9522
  371MOL0     C49984   0.839   0.500   8.396 -0.6557 -0.7980  0.1679
  371MOL0     O49985   0.838   0.394   8.310  0.4740  0.2018  1.0168
  371MOL0     C49986   0.807   0.268   8.379 -0.3680  0.3902 -0.0340
  371MOL0     C49987   0.811   0.165   8.278  0.2867 -0.4275  0.5517
  371MOL0     C49988   0.951   0.133   8.241  0.5728 -0.1176 -0.6108
  371MOL0     C49989   1.005   0.011   8.329 -0.4147  0.7365 -0.6849
  371MOL0     C49990   1.084  -0.082   8.235 -0.8867  0.5600 -0.0751
  371MOL0     C49991   1.083  -0.226   8.282 -0.6427  0.8521 -0.0641
  371MOL0     C49992   1.132  -0.259   8.429  0.2449  0.4461 -0.6062
  371MOL0     C49993   1.134  -0.409   8.456 -0.3097 -0.5794 -0.3491
  371MOL0    Cl49994   1.284  -0.428   8.552 -0.1753  0.0882  0.0265
  371MOL0     C49995   0.962   0.570   8.394  0.9207  1.1925 -0.5239
  371MOL0     C49996   0.977   0.677   8.476 -0.0480 -0.0714 -0.6597
  371MOL0     O49997   0.683   0.940   8.604 -0.0659  0.4132  0.8357
  371MOL0     C49998   0.773   1.183   8.712 -0.7568 -0.3705  1.1475
  371MOL0     C49999   0.796   1.286   8.809 -0.5568  0.3800  0.1645
  371MOL0     N50000   1.058   1.738   8.700 -0.1543 -0.4870 -0.0072
  371MOL0     N50001   1.183   1.693   8.726  1.3662 -0.1434  0.0504
  371MOL0     C50002   1.838   0.969   8.925  0.6472 -0.4404 -0.5533
  371MOL0     C50003   1.971   0.989   8.962  0.0814  0.7189 -0.4310
  371MOL0     C50004   2.410   1.005   9.016  0.0203 -1.0280 -0.1430
  371MOL0     C50005   2.524   0.978   8.935 -0.6317 -0.4278  0.3171
  371MOL0     C50006   2.648   1.011   8.985 -0.4554  0.5649 -0.9821
  371MOL0     C50007   2.670   1.058   9.118 -0.0208 -0.7230  1.1275
  371MOL0     O50008   2.801   1.073   9.144 -0.8230 -0.2997  0.3444
  371MOL0     C50009   2.851   1.170   9.238  0.4862  0.0239 -0.5159
  371MOL0     C50010   2.989   1.197   9.220  0.7367 -0.0222 -0.4040
  371MOL0     C50011   3.077   1.080   9.278  0.0173  1.0054 -0.0121
  371MOL0     C50012   3.135   1.109   9.425  0.2997  0.4487  0.6542
  371MOL0     C50013   3.273   1.045   9.446 -0.5437 -0.3960  0.3694
  371MOL0     C50014   3.378   1.017   9.508 -0.3039  0.9026  0.3962
  371MOL0     C50015   2.563   1.094   9.194  1.0685 -0.0337 -0.2991
  371MOL0     C50016   2.434   1.066   9.142  1.2863 -0.2819  0.0257
  371MOL0     C50017   2.316   1.085   9.233 -0.1384 -0.4110 -0.1888
  371MOL0     H50018   2.076   1.175   8.702  0.1398 -0.7229 -1.2125
  371MOL0     H50019   1.859   1.129   8.622  2.7032 -1.2421 -1.7259
  371MOL0     H50020   1.564   0.959   8.939 -1.8174 -0.5456 -0.2390
  371MOL0     H50021   1.572   1.128   8.899  2.2027 -1.4806  2.0227
  371MOL0     H50022   1.418   0.915   8.736 -0.5972 -0.7457 -1.4223
  371MOL0     H50023   1.422   1.085   8.687 -0.2555  2.1044  1.9526
  371MOL0     H50024   1.359   1.056   8.974 -1.6482  1.4517 -0.3014
  371MOL0     H50025   1.229   0.978   8.880 -0.4957  0.6262 -0.1986
  371MOL0     H50026   1.183   1.167   8.762  0.1008  0.0297 -0.3706
  371MOL0     H50027   1.176   1.187   8.942 -0.8766  4.0344 -0.9817
  371MOL0     H50028   1.428   1.278   8.908  2.0113  0.6083 -1.8014
  371MOL0     H50029   1.370   1.308   8.740 -4.7031 -1.8140 -1.4900
  371MOL0     H50030   1.174   1.453   8.823  1.5246  0.8766 -1.4451
  371MOL0     H50031   1.216   1.414   8.974  0.3384 -2.2471  0.2068
  371MOL0     H50032   1.396   1.552   8.772 -0.6101  0.3394  0.1888
  371MOL0     H50033   1.455   1.499   8.933 -1.9437 -2.8895 -0.2832
  371MOL0     H50034   1.338   1.687   9.036 -1.1683  0.9753  0.9111
  371MOL0     H50035   1.389   1.754   8.879 -2.8257  0.5044 -2.1425
  371MOL0     H50036   1.086   1.768   9.032  0.7461  1.0721  0.0753
  371MOL0     H50037   0.845   1.841   8.948  4.8585  3.2267 -0.1366
  371MOL0     H50038   0.816   1.864   8.773 -2.8155 -0.8288  1.2387
  371MOL0     H50039   0.668   1.695   8.813  0.2768  0.3332 -1.1909
  371MOL0     H50040   0.792   1.603   8.755 -0.6769 -3.1877  1.7663
  371MOL0     H50041   0.690   1.516   8.986  1.1976 -0.6956  0.9661
  371MOL0     H50042   0.780   1.633   9.064 -0.0651  0.7537  0.5749
  371MOL0     H50043   0.978   1.543   9.055 -0.8949  0.9182  0.2999
  371MOL0     H50044   0.959   1.491   8.883 -1.2408 -1.2629 -1.4249
  371MOL0     H50045   0.963   1.115   9.052  0.4472 -0.2959 -0.2013
  371MOL0     H50046   0.918   0.930   8.905  1.5296  1.8512  4.4201
  371MOL0     H50047   0.673   0.692   8.626  1.4853 -0.6800  2.6369
  371MOL0     H50048   0.645   0.502   8.487  0.0104  0.7929  2.8184
  371MOL0     H50049   0.869   0.235   8.463 -0.5611 -0.7402 -0.3210
  371MOL0     H50050   0.705   0.281   8.415  0.7379  3.5437  2.4879
  371MOL0     H50051   0.759   0.073   8.306 -1.3551  0.4230  0.4036
  371MOL0     H50052   0.755   0.204   8.193 -3.0449  1.2687  3.2964
  371MOL0     H50053   0.955   0.114   8.133  3.7332  2.7503 -1.2004
  371MOL0     H50054   1.016   0.218   8.265 -1.2121  0.7070  1.6902
  371MOL0     H50055   0.920  -0.052   8.357  0.8095 -1.9806 -2.6002
  371MOL0     H50056   1.061   0.046   8.415  1.3810 -2.2001 -0.5362
  371MOL0     H50057   1.186  -0.043   8.237 -1.0908  1.4315 -2.6443
  371MOL0     H50058   1.054  -0.076   8.130 -2.3440  1.2283  0.3462
  371MOL0     H50059   0.993  -0.284   8.261  1.6162 -2.5851 -1.0850
  371MOL0     H50060   1.159  -0.272   8.219  0.9450  1.0522  1.6252
  371MOL0     H50061   1.071  -0.217   8.510 -0.1693  0.3588 -0.8682
  371MOL0     H50062   1.234  -0.224   8.444 -0.5637  2.7068  0.0067
  371MOL0     H50063   1.039  -0.447   8.493 -0.7336  1.0374  0.3200
  371MOL0     H50064   1.144  -0.456   8.357  1.8903  0.6731 -0.8012
  371MOL0     H50065   1.036   0.535   8.322 -1.9415 -1.4248 -2.4861
  371MOL0     H50066   1.072   0.728   8.471 -0.5834  1.0460  0.2463
  371MOL0     H50067   0.722   1.197   8.617 -0.2899 -0.5258  0.8686
  371MOL0     H50068   0.773   1.386   8.773  1.8729  0.8967 -0.1047
  371MOL0     H50069   1.765   0.918   8.987 -2.7377  3.0386 -1.2879
  371MOL0     H50070   2.003   0.951   9.058 -1.3016  2.3344  0.7462
  371MOL0     H50071   2.512   0.929   8.839 -0.3109  0.9123 -0.4304
  371MOL0     H50072   2.732   0.974   8.927 -0.0390  1.7983 -1.1853
  371MOL0     H50073   2.831   1.145   9.342  2.3843 -2.4900 -0.6889
  371MOL0     H50074   2.797   1.266   9.237 -1.6803 -0.9607  3.0367
  371MOL0     H50075   3.009   1.281   9.287 -2.3884 -0.2584  1.0048
  371MOL0     H50076   3.012   1.224   9.116 -2.0115  0.3578 -0.9829
  371MOL0     H50077   3.163   1.071   9.211 -0.2009  1.3253 -0.3381
  371MOL0     H50078   3.029   0.982   9.280  2.3593 -0.2110  0.0008
  371MOL0     H50079   3.150   1.216   9.442  0.1781  1.5007 -4.1827
  371MOL0     H50080   3.056   1.065   9.487  0.1129  0.6682  0.5740
  371MOL0     H50081   3.472   0.993   9.552  1.3429  2.7696 -1.8341
  371MOL0     H50082   2.568   1.142   9.291  2.4304 -0.8954  0.0868
  371MOL0     H50083   2.260   1.170   9.195 -0.2383  0.5130  1.8651
  371MOL0     H50084   2.248   1.002   9.211  0.2475 -0.7486 -0.1133
  371MOL0     H50085   2.331   1.100   9.341  1.1843 -0.3343 -0.3744
  372MOL0     O50086   1.138   7.176   2.619 -0.2107  0.2673 -0.3408
  372MOL0     C50087   1.128   7.090   2.709  0.0344 -0.8561 -0.2975
  372MOL0     O50088   1.102   6.960   2.690  0.0380  0.4861 -0.0621
  372MOL0     C50089   1.131   6.894   2.574 -0.1142  0.0252  0.3685
  372MOL0     C50090   1.232   6.946   2.484  0.0270 -0.6351  0.4935
  372MOL0     C50091   1.246   6.908   2.349  0.9831 -0.1138 -0.4018
  372MOL0     C50092   1.159   6.809   2.300  0.4457  0.1274  0.1528
  372MOL0     O50093   1.163   6.757   2.178  0.2231  0.7989 -1.4759
  372MOL0     C50094   1.251   6.813   2.079 -0.3694  0.9824  0.2555
  372MOL0     C50095   1.286   6.690   1.984 -0.4123  0.3491 -0.3707
  372MOL0     C50096   1.338   6.738   1.841  0.1461  0.2952  0.5580
  372MOL0     C50097   1.261   6.674   1.720 -0.8407  0.8416 -0.3836
  372MOL0     C50098   1.128   6.744   1.699 -0.1767  0.2980  0.3153
  372MOL0     C50099   1.142   6.856   1.594 -0.3203  0.1813  0.1126
  372MOL0     C50100   1.006   6.891   1.531  0.5031 -0.2479 -0.4831
  372MOL0     C50101   0.900   6.911   1.644  0.3100 -0.3079  1.1446
  372MOL0     N50102   0.771   6.954   1.588 -0.1800 -0.6175  0.3771
  372MOL0     C50103   0.731   7.071   1.537 -1.1636  0.8692  0.2052
  372MOL0     C50104   0.620   7.068   1.467  0.8172  0.6547 -0.0823
  372MOL0     C50105   0.532   7.177   1.428  0.0261 -0.1392  0.4136
  372MOL0     C50106   0.557   7.211   1.280  0.3789  0.4365 -0.2078
  372MOL0     C50107   0.507   7.332   1.221 -0.1000 -0.9971 -0.1809
  372MOL0     C50108   0.529   7.344   1.068 -0.3560 -0.5964 -0.2568
  372MOL0     O50109   0.418   7.283   0.998 -0.6323  0.3145  0.2297
  372MOL0     C50110   0.429   7.272   0.860  1.5260 -0.5856  0.2440
  372MOL0     C50111   0.523   7.326   0.773  0.8386  0.3636  0.8360
  372MOL0     C50112   0.499   7.296   0.628  0.1200  0.7466  0.4618
  372MOL0     C50113   0.387   7.230   0.586  0.4776  0.5173  0.1094
  372MOL0     C50114   0.368   7.221   0.440  0.4362 -0.3605  0.2419
  372MOL0     O50115   0.246   7.254   0.391 -0.2118 -0.0241 -0.2699
  372MOL0     C50116   0.215   7.223   0.261 -0.2808 -0.3391 -0.2999
  372MOL0     C50117   0.226   7.303   0.147 -0.1823 -0.0100 -0.1342
  372MOL0     C50118   0.188   7.250   0.025 -0.4537 -0.3127 -0.4920
  372MOL0     C50119   0.129   7.115   0.020 -1.2725 -0.6485 -0.1277
  372MOL0     O50120   0.083   7.061  -0.101  0.0028  0.4312 -0.1671
  372MOL0     C50121   0.145   7.108  -0.224 -0.0700  0.1116  0.2026
  372MOL0     C50122   0.091   7.025  -0.336  1.7425  0.3125 -0.2427
  372MOL0     C50123  -0.025   7.102  -0.403 -0.0679  0.6641  0.7851
  372MOL0     C50124  -0.109   6.994  -0.480  0.3061 -0.3560 -0.7465
  372MOL0     C50125  -0.204   7.045  -0.580  0.1222  0.0723  0.5303
  372MOL0     C50126  -0.294   6.931  -0.625  0.3486  0.1015 -0.7232
  372MOL0     C50127  -0.389   6.974  -0.738 -0.5917  0.4568 -0.3403
  372MOL0     C50128  -0.491   7.086  -0.723 -0.1322  0.2550  0.1443
  372MOL0    Cl50129  -0.406   7.247  -0.750 -0.2281  0.4600 -0.1668
  372MOL0     C50130   0.122   7.034   0.134  0.2887  0.7537  0.5665
  372MOL0     C50131   0.174   7.086   0.254  0.6581 -0.4382  0.0782
  372MOL0     O50132   0.464   7.190   0.375 -0.4852 -0.1128  0.1683
  372MOL0     C50133   0.304   7.174   0.678 -0.1767 -0.5472 -0.8365
  372MOL0     C50134   0.322   7.201   0.814 -0.4247 -0.3470  0.0079
  372MOL0     N50135   0.590   6.926   1.465  0.3689 -0.0385 -0.4187
  372MOL0     N50136   0.675   6.868   1.543 -0.3377  0.3736 -0.4737
  372MOL0     C50137   1.068   6.747   2.395 -0.7833  0.3483  0.3007
  372MOL0     C50138   1.057   6.788   2.525  0.0897  0.3040 -0.4873
  372MOL0     C50139   1.124   7.139   2.845 -0.5794 -0.3006  0.5981
  372MOL0     C50140   1.066   7.057   2.939 -0.5784 -0.5982 -1.1304
  372MOL0     C50141   1.078   7.083   3.073 -0.0043  0.6287  0.0013
  372MOL0     C50142   1.149   7.194   3.114  0.1369 -0.5951 -1.3706
  372MOL0     O50143   1.173   7.227   3.245 -0.4233  0.2383 -0.5835
  372MOL0     C50144   1.248   7.128   3.318 -0.4061  0.3365 -0.6916
  372MOL0     C50145   1.363   7.208   3.392 -0.2770 -0.0022  0.0624
  372MOL0     C50146   1.478   7.277   3.300 -0.3942  0.2083 -0.4157
  372MOL0     C50147   1.611   7.286   3.367 -0.9678 -0.2093  0.1595
  372MOL0     C50148   1.613   7.374   3.487 -0.8989  0.6037 -0.1194
  372MOL0     C50149   1.624   7.444   3.585  0.8225  0.7470 -0.5892
  372MOL0     C50150   1.209   7.285   3.022 -0.3273  0.4650  0.1377
  372MOL0     C50151   1.192   7.260   2.886  0.4982 -0.2217  0.2231
  372MOL0     C50152   1.267   7.359   2.787  0.1983 -0.0470  0.5372
  372MOL0     H50153   1.303   7.020   2.521 -0.3969  0.9760 -1.7458
  372MOL0     H50154   1.323   6.962   2.295 -1.5025  2.8937 -1.2919
  372MOL0     H50155   1.199   6.899   2.035 -3.0523 -0.8451 -0.3857
  372MOL0     H50156   1.351   6.839   2.116  1.4980 -3.7428 -0.7737
  372MOL0     H50157   1.196   6.629   1.977 -0.2634  0.2547 -1.6381
  372MOL0     H50158   1.362   6.626   2.032 -1.6303 -0.4357  0.5837
  372MOL0     H50159   1.444   6.712   1.829  0.4239  1.6816 -0.1746
  372MOL0     H50160   1.325   6.846   1.835  3.0504  0.8501  2.1304
  372MOL0     H50161   1.327   6.686   1.634 -3.3707 -0.4762 -2.6181
  372MOL0     H50162   1.251   6.566   1.731 -1.0028  0.9019  0.0823
  372MOL0     H50163   1.052   6.669   1.674  1.5487 -1.4680  0.0580
  372MOL0     H50164   1.085   6.790   1.789  1.7895  1.5958  0.6695
  372MOL0     H50165   1.202   6.936   1.638  0.2008 -0.1296 -0.0228
  372MOL0     H50166   1.197   6.825   1.504 -1.6604 -0.4184 -0.5358
  372MOL0     H50167   0.974   6.810   1.465  0.3629  0.6225 -1.5090
  372MOL0     H50168   1.017   6.986   1.477 -1.5545  0.1631 -0.2713
  372MOL0     H50169   0.878   6.815   1.691 -3.2406 -2.0582 -3.2713
  372MOL0     H50170   0.941   6.982   1.716  1.6478 -1.7248  1.8509
  372MOL0     H50171   0.783   7.159   1.572  1.2667 -1.4048  2.8912
  372MOL0     H50172   0.427   7.153   1.449 -0.5694  2.4066  0.6770
  372MOL0     H50173   0.568   7.268   1.478  2.1585  1.0080 -2.8405
  372MOL0     H50174   0.666   7.200   1.271  0.1466 -1.6017 -1.0406
  372MOL0     H50175   0.508   7.131   1.224 -0.4172 -0.5809  1.8444
  372MOL0     H50176   0.568   7.416   1.256 -0.7254 -1.5234  2.3777
  372MOL0     H50177   0.403   7.357   1.243  0.1732  2.8965 -2.3894
  372MOL0     H50178   0.628   7.317   1.031 -1.0753 -1.4818 -1.6068
  372MOL0     H50179   0.542   7.452   1.056  0.4505 -0.7023 -0.3635
  372MOL0     H50180   0.615   7.370   0.811  0.8822  1.2373 -0.2230
  372MOL0     H50181   0.580   7.325   0.562  1.2830  1.4961  2.1563
  372MOL0     H50182   0.249   7.409   0.147 -0.7738  0.1490 -2.1146
  372MOL0     H50183   0.208   7.319  -0.057  2.0148 -0.5456 -0.1494
  372MOL0     H50184   0.124   7.215  -0.231  1.2195  0.3911  0.4193
  372MOL0     H50185   0.253   7.096  -0.217 -0.1955 -1.2126  0.2271
  372MOL0     H50186   0.167   6.991  -0.407  1.5974 -2.7839  0.9087
  372MOL0     H50187   0.065   6.925  -0.299  1.7239 -0.2458 -1.6945
  372MOL0     H50188  -0.080   7.158  -0.327 -0.4431  2.6327 -0.8688
  372MOL0     H50189   0.014   7.175  -0.474  0.2676 -0.8181 -0.6257
  372MOL0     H50190  -0.164   6.942  -0.401  0.6813  0.0791 -0.1880
  372MOL0     H50191  -0.040   6.921  -0.525  0.3116 -1.4333  0.9201
  372MOL0     H50192  -0.163   7.094  -0.669 -0.8360  1.6715  0.9221
  372MOL0     H50193  -0.276   7.113  -0.533 -0.8565 -0.1543 -0.5840
  372MOL0     H50194  -0.236   6.839  -0.642  0.7483  0.1348  0.3575
  372MOL0     H50195  -0.370   6.921  -0.546 -0.1773  4.3056 -0.4932
  372MOL0     H50196  -0.449   6.887  -0.766 -1.4161  0.8261  0.2562
  372MOL0     H50197  -0.346   7.003  -0.835 -4.6429 -0.6746 -2.7175
  372MOL0     H50198  -0.572   7.082  -0.797 -2.1299 -1.6317  2.2425
  372MOL0     H50199  -0.545   7.076  -0.627 -0.7602  0.2505 -0.2031
  372MOL0     H50200   0.108   6.927   0.136  0.5153  0.7293  1.5040
  372MOL0     H50201   0.150   7.045   0.352 -0.3943  1.2562  0.5681
  372MOL0     H50202   0.223   7.104   0.659 -0.8734  0.8176 -3.3685
  372MOL0     H50203   0.248   7.162   0.883  0.7487 -0.3778  1.3017
  372MOL0     H50204   1.016   6.659   2.359  2.4534 -1.7166  0.2868
  372MOL0     H50205   1.003   6.726   2.597 -1.7686  3.4109  1.0565
  372MOL0     H50206   1.022   6.965   2.901  0.5157 -0.1613 -3.6389
  372MOL0     H50207   1.036   7.023   3.153 -1.0190  1.0069 -0.2279
  372MOL0     H50208   1.301   7.053   3.259 -0.6053 -1.2473  1.0635
  372MOL0     H50209   1.184   7.073   3.387 -0.4800  3.2137  1.7522
  372MOL0     H50210   1.414   7.139   3.460 -2.0037  0.0994  1.5401
  372MOL0     H50211   1.331   7.282   3.466  1.7021  1.3752 -0.3568
  372MOL0     H50212   1.440   7.373   3.264 -2.6150 -0.1967  0.6252
  372MOL0     H50213   1.496   7.204   3.220  1.3330 -0.5239  0.5923
  372MOL0     H50214   1.651   7.187   3.391 -0.7388 -0.2272 -0.2860
  372MOL0     H50215   1.686   7.323   3.298  1.0474 -1.1642  1.7243
  372MOL0     H50216   1.641   7.518   3.660  0.5752  0.7381 -0.5239
  372MOL0     H50217   1.289   7.349   3.060  0.8784 -0.0657 -1.3874
  372MOL0     H50218   1.198   7.399   2.713  2.3844  2.0529 -0.4864
  372MOL0     H50219   1.299   7.447   2.844 -1.7296 -0.5220  2.4963
  372MOL0     H50220   1.357   7.313   2.744  0.0077 -0.9276  1.0495
  373MOL0     O50221   1.948   6.000   5.530  0.1670 -0.5072  0.4853
  373MOL0     C50222   2.032   6.042   5.450  0.7333  0.2606  0.0304
  373MOL0     O50223   2.000   6.141   5.360 -0.4218  0.6033 -0.2802
  373MOL0     C50224   1.866   6.181   5.350  0.1277 -0.4053  0.2225
  373MOL0     C50225   1.783   6.238   5.455  0.1555  0.1888  0.5373
  373MOL0     C50226   1.663   6.299   5.426  0.4697 -0.8036 -0.2653
  373MOL0     C50227   1.605   6.289   5.301  0.2173  0.2990  0.4288
  373MOL0     O50228   1.479   6.357   5.282  0.0847  0.4227 -0.0380
  373MOL0     C50229   1.454   6.383   5.141  0.6552 -1.0011  1.0769
  373MOL0     C50230   1.318   6.459   5.134 -0.6859  0.3678 -0.3872
  373MOL0     C50231   1.265   6.447   4.983 -0.2699 -0.0770  0.1906
  373MOL0     C50232   1.336   6.552   4.903  0.7356  0.2386 -0.0256
  373MOL0     C50233   1.267   6.610   4.774 -0.7529  0.2901 -0.5912
  373MOL0     C50234   1.250   6.490   4.675 -0.4561 -0.2862 -0.2195
  373MOL0     C50235   1.180   6.535   4.544 -0.5840 -0.8891 -0.6672
  373MOL0     C50236   1.131   6.413   4.476  0.7591 -0.3730  0.7596
  373MOL0     N50237   1.043   6.455   4.360 -0.5944  1.2402 -0.6383
  373MOL0     C50238   0.943   6.550   4.351 -0.2919 -0.4659  0.5426
  373MOL0     C50239   0.899   6.536   4.229  0.1555  0.0503  0.6168
  373MOL0     C50240   0.794   6.619   4.157  0.9125  0.1760 -0.2844
  373MOL0     C50241   0.846   6.743   4.085 -0.1290 -0.4054  0.0132
  373MOL0     C50242   0.857   6.716   3.936  1.3631  1.0503  0.0168
  373MOL0     C50243   0.896   6.850   3.861 -0.1173 -0.8499 -0.0025
  373MOL0     O50244   0.890   6.832   3.722 -0.1667 -0.4256 -0.1132
  373MOL0     C50245   0.759   6.839   3.658 -0.0627 -0.4504 -0.4638
  373MOL0     C50246   0.768   6.859   3.518  0.3489 -0.5061  0.3521
  373MOL0     C50247   0.646   6.878   3.445 -0.4997  0.4806  0.0781
  373MOL0     C50248   0.516   6.876   3.504 -0.6991  0.8911  0.8419
  373MOL0     C50249   0.402   6.907   3.421  0.3988 -0.3194  0.5342
  373MOL0     O50250   0.280   6.919   3.480  0.2179  0.8086  0.4862
  373MOL0     C50251   0.172   6.962   3.402 -0.2693 -0.0670 -0.1521
  373MOL0     C50252   0.129   6.890   3.290 -0.0998 -0.7898  0.2773
  373MOL0     C50253   0.015   6.937   3.218 -1.3626  0.6162  0.2974
  373MOL0     C50254  -0.052   7.054   3.251  0.7673  0.0815  0.7332
  373MOL0     O50255  -0.170   7.090   3.187 -0.4785  0.4331 -0.2759
  373MOL0     C50256  -0.163   7.102   3.048 -1.0239 -0.3288  0.1007
  373MOL0     C50257  -0.263   7.193   2.990  0.1329  0.3950 -0.0625
  373MOL0     C50258  -0.241   7.243   2.837 -0.0454  0.2638 -0.1622
  373MOL0     C50259  -0.227   7.129   2.732  0.2117  0.1431 -0.1426
  373MOL0     C50260  -0.218   7.178   2.585 -0.5748 -0.0321  0.1535
  373MOL0     C50261  -0.216   7.060   2.486 -0.3304 -0.1030 -0.2870
  373MOL0     C50262  -0.073   7.000   2.497  0.0888 -0.5179  0.5478
  373MOL0     C50263   0.026   7.066   2.400 -0.3669  0.0800  0.6835
  373MOL0    Cl50264   0.192   7.041   2.465 -0.2822 -0.1486  0.0678
  373MOL0     C50265  -0.013   7.115   3.359 -0.2691 -0.4755 -0.7012
  373MOL0     C50266   0.106   7.080   3.434  0.3953  0.2847  0.7187
  373MOL0     O50267   0.423   6.933   3.300  0.0229  0.3378  0.0974
  373MOL0     C50268   0.511   6.856   3.641 -0.3002 -0.8896 -0.2970
  373MOL0     C50269   0.634   6.845   3.715  0.5682 -0.3695  0.0033
  373MOL0     N50270   0.978   6.443   4.159  0.9651  0.1422 -0.2849
  373MOL0     N50271   1.061   6.391   4.238 -0.4523  0.2422 -0.1431
  373MOL0     C50272   1.693   6.247   5.205 -0.3533 -0.0744 -0.1652
  373MOL0     C50273   1.814   6.181   5.224  0.3223  0.2874 -0.8569
  373MOL0     C50274   2.166   5.973   5.442 -0.1343 -0.2893  0.7686
  373MOL0     C50275   2.234   5.933   5.566  0.6294  0.0000  1.1103
  373MOL0     C50276   2.360   5.864   5.553 -0.6261  0.2170  0.6100
  373MOL0     C50277   2.427   5.838   5.432  0.1418  0.0899 -0.3119
  373MOL0     O50278   2.549   5.770   5.448 -0.3435  0.4041 -0.8773
  373MOL0     C50279   2.609   5.737   5.327 -0.9444  1.0096 -0.5129
  373MOL0     C50280   2.743   5.663   5.352  0.7278  0.1597 -0.1124
  373MOL0     C50281   2.700   5.548   5.461 -0.5050 -0.1030 -0.1770
  373MOL0     C50282   2.807   5.436   5.463  0.3935 -0.6115  0.1836
  373MOL0     C50283   2.809   5.366   5.331 -0.2630 -0.5515  0.6067
  373MOL0     C50284   2.811   5.307   5.227 -0.1756  0.2694  1.5248
  373MOL0     C50285   2.358   5.879   5.312  0.6488 -0.3740  0.6374
  373MOL0     C50286   2.226   5.942   5.317 -0.8649 -0.5013 -0.4025
  373MOL0     C50287   2.162   5.965   5.184  0.1800 -0.5116 -0.3063
  373MOL0     H50288   1.812   6.225   5.559  1.9247  0.3998  0.1083
  373MOL0     H50289   1.595   6.336   5.501 -0.8323  1.2169 -2.3215
  373MOL0     H50290   1.529   6.455   5.107 -0.1668 -0.1321  1.0780
  373MOL0     H50291   1.456   6.294   5.078  1.7660 -1.1817  1.3326
  373MOL0     H50292   1.320   6.561   5.173 -1.5207 -0.0948  0.9235
  373MOL0     H50293   1.241   6.406   5.191  0.0461  0.0780  0.3503
  373MOL0     H50294   1.158   6.468   4.986 -0.2519  0.2464 -0.9299
  373MOL0     H50295   1.289   6.347   4.945 -0.2364 -0.1659  0.4441
  373MOL0     H50296   1.341   6.644   4.962  0.9845  0.9320 -1.1007
  373MOL0     H50297   1.439   6.520   4.890  0.2379 -0.9006 -1.4833
  373MOL0     H50298   1.170   6.654   4.800 -2.7430 -3.6446 -0.6003
  373MOL0     H50299   1.333   6.681   4.725  0.7136 -1.0053 -0.5604
  373MOL0     H50300   1.344   6.440   4.650 -0.6837 -0.6139 -0.4311
  373MOL0     H50301   1.180   6.416   4.714  1.3122 -1.5798  0.6758
  373MOL0     H50302   1.252   6.593   4.486 -0.3537 -0.4545  0.0380
  373MOL0     H50303   1.090   6.596   4.558  0.5839  1.2265 -1.8562
  373MOL0     H50304   1.210   6.346   4.440 -1.2402 -0.9955 -2.9278
  373MOL0     H50305   1.074   6.358   4.551  0.7282  0.7647  1.5902
  373MOL0     H50306   0.894   6.621   4.417 -3.2611 -1.9219  0.1024
  373MOL0     H50307   0.738   6.558   4.086  0.1710 -0.3012  0.6944
  373MOL0     H50308   0.710   6.635   4.226  1.8182 -2.0651  1.4521
  373MOL0     H50309   0.785   6.831   4.108 -0.4365 -0.3361 -1.0465
  373MOL0     H50310   0.945   6.768   4.126 -0.4765 -0.8221  1.1561
  373MOL0     H50311   0.772   6.671   3.884  1.3486  2.1969 -1.0007
  373MOL0     H50312   0.929   6.636   3.920 -1.0668 -1.2412 -0.2010
  373MOL0     H50313   1.000   6.874   3.885 -0.6276  1.0529  0.4581
  373MOL0     H50314   0.832   6.932   3.894  0.0264 -2.3685  4.8577
  373MOL0     H50315   0.872   6.869   3.487  0.1589 -3.3127 -1.5806
  373MOL0     H50316   0.662   6.891   3.339  2.8439 -3.8604 -0.2222
  373MOL0     H50317   0.171   6.799   3.249 -2.3795 -1.1081 -1.5695
  373MOL0     H50318   0.004   6.872   3.132 -1.6553  4.5618 -2.9680
  373MOL0     H50319  -0.063   7.140   3.023 -0.5693 -2.3396 -1.3758
  373MOL0     H50320  -0.169   7.001   3.006  0.5212  0.3016 -1.8038
  373MOL0     H50321  -0.364   7.153   2.984 -1.2470  3.4832  0.5956
  373MOL0     H50322  -0.267   7.284   3.050  2.4023  0.1316  0.5759
  373MOL0     H50323  -0.327   7.309   2.821  0.7087  1.1249 -0.7881
  373MOL0     H50324  -0.155   7.307   2.815 -0.4906  0.6765 -0.7176
  373MOL0     H50325  -0.315   7.064   2.733  2.0866 -2.6149  2.4730
  373MOL0     H50326  -0.147   7.064   2.768  0.2609  2.6165  5.1001
  373MOL0     H50327  -0.128   7.240   2.584 -0.3266 -0.3487  1.2321
  373MOL0     H50328  -0.302   7.244   2.560  2.1318  2.4876 -3.3717
  373MOL0     H50329  -0.287   6.989   2.530  1.8636 -1.2559  1.6317
  373MOL0     H50330  -0.236   7.082   2.381 -0.8571 -3.9627 -1.1571
  373MOL0     H50331  -0.083   6.898   2.460 -2.4595 -0.9131  2.1230
  373MOL0     H50332  -0.033   6.989   2.598  4.0449  0.5866 -0.7411
  373MOL0     H50333   0.008   7.012   2.307  0.0421 -0.3562  0.8488
  373MOL0     H50334   0.008   7.171   2.377  0.9516 -0.1597 -1.7993
  373MOL0     H50335  -0.073   7.188   3.412 -2.2198 -2.7371  0.3633
  373MOL0     H50336   0.125   7.141   3.522 -2.3013  0.9457  0.9330
  373MOL0     H50337   0.417   6.853   3.695  1.3024 -0.1657  2.8044
  373MOL0     H50338   0.632   6.850   3.824  1.5117 -1.6591  0.1025
  373MOL0     H50339   1.678   6.251   5.097  1.4431 -3.1290 -0.6751
  373MOL0     H50340   1.870   6.138   5.141  1.0068  0.5107 -0.5216
  373MOL0     H50341   2.182   5.950   5.660 -0.1372  2.5915  0.2766
  373MOL0     H50342   2.408   5.832   5.645  0.9106 -1.4900 -0.6730
  373MOL0     H50343   2.645   5.830   5.281 -1.8232  0.6972 -1.9037
  373MOL0     H50344   2.550   5.685   5.251  0.2326 -2.7166  0.9335
  373MOL0     H50345   2.817   5.727   5.402  2.4576  0.0477 -2.4003
  373MOL0     H50346   2.780   5.611   5.263  3.7018 -1.7534  2.0660
  373MOL0     H50347   2.605   5.498   5.442  1.2363 -3.6608 -0.2133
  373MOL0     H50348   2.705   5.577   5.566  3.6705 -3.6348  0.8511
  373MOL0     H50349   2.908   5.472   5.485  0.2403 -1.1109  1.7889
  373MOL0     H50350   2.781   5.364   5.541  0.1275  0.4903  1.1298
  373MOL0     H50351   2.819   5.252   5.135 -2.8147  2.6919 -0.3289
  373MOL0     H50352   2.391   5.864   5.210 -3.8146  1.3253 -1.2780
  373MOL0     H50353   2.052   5.962   5.181  0.0736  1.7689 -0.2113
  373MOL0     H50354   2.187   6.065   5.149 -0.5665  1.0171  3.0521
  373MOL0     H50355   2.183   5.883   5.115  0.8588 -1.7630  1.3141
  374MOL0     O50356   2.196   8.176   5.519 -0.2936 -0.6491  0.0512
  374MOL0     C50357   2.178   8.297   5.512  0.3834  0.3229  0.2394
  374MOL0     O50358   2.105   8.373   5.600  0.2902  0.2847 -0.6937
  374MOL0     C50359   2.055   8.309   5.703  0.5875  0.4207 -0.4226
  374MOL0     C50360   1.918   8.288   5.703 -0.3353  0.2663  0.5241
  374MOL0     C50361   1.861   8.214   5.805 -0.2653  0.5937 -0.6572
  374MOL0     C50362   1.936   8.158   5.907 -0.4322  0.5582 -0.4395
  374MOL0     O50363   1.886   8.075   6.015 -0.4363 -0.6306 -0.5588
  374MOL0     C50364   1.929   8.098   6.148 -0.3621  0.1290 -0.9021
  374MOL0     C50365   1.835   8.034   6.247  0.9394 -1.2640  0.7123
  374MOL0     C50366   1.804   8.131   6.368  0.1037 -0.3414  0.3508
  374MOL0     C50367   1.913   8.148   6.476 -1.1587  1.2112  0.7035
  374MOL0     C50368   1.855   8.209   6.598 -0.2171 -0.0813 -0.0913
  374MOL0     C50369   1.954   8.238   6.701  0.2246 -0.8521  0.1026
  374MOL0     C50370   1.899   8.341   6.814  0.0277  0.3053  0.5222
  374MOL0     C50371   2.025   8.397   6.886  0.3471  0.1945  0.2017
  374MOL0     N50372   2.108   8.295   6.946 -0.0452 -0.2954  0.7778
  374MOL0     C50373   2.238   8.273   6.903 -0.4429 -0.9054  0.0747
  374MOL0     C50374   2.287   8.187   6.993 -1.2866  0.7995 -0.4413
  374MOL0     C50375   2.428   8.111   7.000  0.8698  0.4876  0.5631
  374MOL0     C50376   2.465   8.053   6.863 -0.1292  0.0698  0.0728
  374MOL0     C50377   2.588   7.963   6.870  0.4637 -0.3570  0.2039
  374MOL0     C50378   2.705   8.018   6.950  0.2142 -0.3188 -0.6227
  374MOL0     O50379   2.829   7.963   6.898 -0.1213 -1.1831  1.1016
  374MOL0     C50380   2.893   7.881   6.971 -0.8384 -0.0206 -0.3935
  374MOL0     C50381   2.838   7.799   7.064  0.7691  0.4974 -1.7338
  374MOL0     C50382   2.909   7.698   7.123  0.5268  0.1266  0.4321
  374MOL0     C50383   3.058   7.704   7.108  0.6191  0.1011  0.4875
  374MOL0     C50384   3.143   7.618   7.183  0.1056  0.1982 -1.4510
  374MOL0     O50385   3.078   7.540   7.267 -0.5921 -0.2199 -0.0393
  374MOL0     C50386   3.140   7.437   7.333 -0.5327 -0.6628  0.3836
  374MOL0     C50387   3.260   7.372   7.302  0.0128  0.1925 -0.2375
  374MOL0     C50388   3.300   7.259   7.373 -0.8243  1.0690 -0.1339
  374MOL0     C50389   3.219   7.210   7.480  1.0873 -0.4213  0.2853
  374MOL0     O50390   3.260   7.103   7.547 -0.2184  0.8809  0.9252
  374MOL0     C50391   3.159   7.017   7.592 -0.3245 -0.6979  0.0357
  374MOL0     C50392   3.144   7.028   7.746 -1.4285 -0.3306 -0.2149
  374MOL0     C50393   3.018   6.952   7.790 -0.0176 -0.1140 -0.5702
  374MOL0     C50394   3.017   6.800   7.753  0.3738  0.7757  0.3738
  374MOL0     C50395   2.918   6.720   7.821  0.4259 -0.2294 -1.0981
  374MOL0     C50396   2.895   6.588   7.736 -0.0096 -0.0362 -0.0241
  374MOL0     C50397   2.809   6.490   7.823  0.3297 -0.4723  0.2772
  374MOL0     C50398   2.763   6.372   7.741 -0.0015  0.3426 -0.5681
  374MOL0    Cl50399   2.651   6.452   7.622 -0.3784 -0.4960  0.1781
  374MOL0     C50400   3.102   7.287   7.521  0.1511 -0.1864  1.0822
  374MOL0     C50401   3.064   7.399   7.437  0.2994  0.1686  0.5529
  374MOL0     O50402   3.262   7.623   7.166  1.1643  0.3100 -0.4016
  374MOL0     C50403   3.112   7.799   7.022  0.0405  0.5693 -0.3482
  374MOL0     C50404   3.034   7.877   6.945  0.3401  1.1080 -0.0318
  374MOL0     N50405   2.187   8.155   7.082  0.3239  0.1951 -0.3341
  374MOL0     N50406   2.083   8.221   7.053  0.8276  0.1635 -0.1399
  374MOL0     C50407   2.073   8.182   5.913  0.7625  0.0990 -0.1033
  374MOL0     C50408   2.135   8.256   5.805  0.3050  0.4787 -1.2189
  374MOL0     C50409   2.230   8.347   5.385  0.6033  0.3701 -0.0989
  374MOL0     C50410   2.154   8.462   5.338 -0.0535  0.2112  0.8186
  374MOL0     C50411   2.193   8.530   5.228 -0.8910  0.1612  0.0867
  374MOL0     C50412   2.297   8.491   5.144  0.3316 -0.9785 -0.1389
  374MOL0     O50413   2.302   8.550   5.020  0.0281  1.0355 -0.6551
  374MOL0     C50414   2.395   8.509   4.919 -0.7255  0.2339  0.3874
  374MOL0     C50415   2.363   8.607   4.805  0.2468  0.3758  0.4714
  374MOL0     C50416   2.405   8.756   4.845 -0.1849 -0.4662  0.1426
  374MOL0     C50417   2.331   8.842   4.752  0.0533 -0.9768  0.0892
  374MOL0     C50418   2.387   8.836   4.616 -0.4415  0.3812  0.1221
  374MOL0     C50419   2.424   8.835   4.505  0.0019  0.2391 -0.0592
  374MOL0     C50420   2.377   8.380   5.186  0.4498 -0.6453  0.2379
  374MOL0     C50421   2.343   8.305   5.304  0.5899  0.0926  1.3265
  374MOL0     C50422   2.411   8.181   5.319  0.2071 -1.1189 -0.5866
  374MOL0     H50423   1.851   8.327   5.627  0.4499  1.9053  0.6238
  374MOL0     H50424   1.753   8.209   5.801 -0.2122 -0.4721 -1.2109
  374MOL0     H50425   2.024   8.046   6.161 -0.6866 -0.0981  0.7001
  374MOL0     H50426   1.932   8.207   6.162  1.6794  0.0642 -0.5249
  374MOL0     H50427   1.885   7.946   6.289  2.0109 -1.7602 -1.4952
  374MOL0     H50428   1.746   7.989   6.202  2.0857 -2.5085 -0.3912
  374MOL0     H50429   1.713   8.098   6.419  0.4830  0.7301  1.7701
  374MOL0     H50430   1.780   8.232   6.331 -1.6977 -0.1837  1.7903
  374MOL0     H50431   1.958   8.049   6.487  1.5224  2.3855  1.0866
  374MOL0     H50432   1.991   8.205   6.424 -1.2741  1.0468  0.3426
  374MOL0     H50433   1.815   8.302   6.557  0.2099  0.4242  0.6152
  374MOL0     H50434   1.765   8.159   6.637 -0.8828  0.8024 -0.4679
  374MOL0     H50435   1.993   8.149   6.753  0.0026  1.9465  5.8342
  374MOL0     H50436   2.042   8.291   6.663  2.0545 -2.0624  2.3679
  374MOL0     H50437   1.830   8.285   6.877 -3.0770  0.8936 -2.0884
  374MOL0     H50438   1.838   8.420   6.769 -0.4206 -1.8863 -3.1414
  374MOL0     H50439   2.086   8.458   6.819 -0.6919  1.1604  0.0974
  374MOL0     H50440   1.976   8.450   6.968  0.5131  0.7369 -0.0488
  374MOL0     H50441   2.291   8.307   6.814 -0.1459 -0.2190  0.5081
  374MOL0     H50442   2.514   8.170   7.034 -0.1504  0.4248  3.5584
  374MOL0     H50443   2.418   8.024   7.066 -1.7196 -0.4889 -0.9729
  374MOL0     H50444   2.387   8.008   6.800 -0.3069  0.9426 -0.3474
  374MOL0     H50445   2.496   8.135   6.797  1.0182 -1.2070 -1.0211
  374MOL0     H50446   2.610   7.957   6.763 -0.7071  4.2482 -0.4890
  374MOL0     H50447   2.552   7.865   6.905 -3.0590  1.9963  4.2160
  374MOL0     H50448   2.682   8.009   7.057  1.3827  2.9799  0.0393
  374MOL0     H50449   2.707   8.126   6.932  4.1516 -0.0540  0.5282
  374MOL0     H50450   2.731   7.801   7.086  1.1362 -1.2179  0.6995
  374MOL0     H50451   2.852   7.626   7.182  0.2756  0.2118  0.2951
  374MOL0     H50452   3.312   7.413   7.216  0.5622 -0.9599 -0.4745
  374MOL0     H50453   3.390   7.206   7.343 -2.1564 -1.9378  0.7785
  374MOL0     H50454   3.070   7.051   7.538  0.4401  2.4017  0.5604
  374MOL0     H50455   3.179   6.917   7.554 -3.9961 -1.2164 -0.9284
  374MOL0     H50456   3.231   6.981   7.792  0.0260  2.8970  0.5568
  374MOL0     H50457   3.145   7.130   7.784  1.4382 -0.5910  0.6186
  374MOL0     H50458   3.006   6.958   7.899 -1.1427 -0.3158 -0.6733
  374MOL0     H50459   2.934   7.006   7.745  1.3505  0.7063 -2.2336
  374MOL0     H50460   3.107   6.764   7.804 -0.1772  2.5608  2.8283
  374MOL0     H50461   3.020   6.796   7.644 -0.7336  0.8182  0.3338
  374MOL0     H50462   2.827   6.772   7.849  0.5265 -2.3102  4.4053
  374MOL0     H50463   2.954   6.690   7.920 -0.0779 -2.0107 -1.4238
  374MOL0     H50464   2.861   6.610   7.634 -2.2995 -0.3708  0.5973
  374MOL0     H50465   2.988   6.531   7.726 -1.6516 -3.9641  3.7909
  374MOL0     H50466   2.719   6.547   7.849  0.3233 -1.2845  2.1866
  374MOL0     H50467   2.851   6.467   7.921 -1.9621  1.5734  1.8760
  374MOL0     H50468   2.842   6.327   7.680 -1.0605  2.1676 -3.5259
  374MOL0     H50469   2.709   6.314   7.816 -1.8567  0.1838 -1.9369
  374MOL0     H50470   3.033   7.249   7.596 -0.1366 -2.8540 -0.4034
  374MOL0     H50471   2.972   7.448   7.467  0.6432  2.5593 -1.9600
  374MOL0     H50472   3.216   7.783   6.995 -0.7658  0.0940 -3.5754
  374MOL0     H50473   3.082   7.938   6.869  1.8151 -1.1038 -0.9709
  374MOL0     H50474   2.134   8.140   5.992  1.8996  2.7147  0.5020
  374MOL0     H50475   2.241   8.275   5.806  0.4828 -0.3983 -1.9140
  374MOL0     H50476   2.063   8.491   5.390 -0.0075 -0.0804  1.0618
  374MOL0     H50477   2.127   8.611   5.197 -0.3765  1.7308  2.7995
  374MOL0     H50478   2.389   8.401   4.900  0.2966  0.5804 -2.2626
  374MOL0     H50479   2.493   8.548   4.949 -2.1237  3.1990  1.5268
  374MOL0     H50480   2.254   8.609   4.793  0.1257 -0.9083  1.2226
  374MOL0     H50481   2.423   8.585   4.717 -0.0907 -1.3163  0.6312
  374MOL0     H50482   2.513   8.772   4.836 -0.7879  2.8767 -3.6916
  374MOL0     H50483   2.372   8.777   4.947 -0.0993  2.8494 -0.4056
  374MOL0     H50484   2.224   8.822   4.746 -0.0278 -0.1774 -1.5896
  374MOL0     H50485   2.343   8.944   4.789  0.8544 -0.0501 -2.5282
  374MOL0     H50486   2.455   8.834   4.403 -0.9300 -1.3879 -0.3639
  374MOL0     H50487   2.447   8.350   5.108 -1.5106 -0.9140 -1.5316
  374MOL0     H50488   2.349   8.091   5.311  0.0954 -1.0749 -0.2264
  374MOL0     H50489   2.490   8.171   5.244 -1.0923  1.7634 -2.4822
  374MOL0     H50490   2.448   8.173   5.422 -2.8600  0.9478  0.8154
  375MOL0     O50491   6.336   5.565  10.643  0.2876 -0.9271 -0.3090
  375MOL0     C50492   6.265   5.663  10.645  0.0150 -0.6837  0.7887
  375MOL0     O50493   6.252   5.755  10.745  0.2447  0.4551  1.0002
  375MOL0     C50494   6.287   5.732  10.872  0.1482  0.0947 -0.2202
  375MOL0     C50495   6.208   5.636  10.948 -0.6247 -0.7581 -1.0892
  375MOL0     C50496   6.240   5.607  11.081 -0.1331  0.0142 -1.6097
  375MOL0     C50497   6.345   5.686  11.139 -0.4258 -0.1558 -0.0027
  375MOL0     O50498   6.362   5.664  11.271  0.0621  0.7954 -0.9097
  375MOL0     C50499   6.307   5.762  11.358 -0.7102  0.5232  0.7808
  375MOL0     C50500   6.272   5.696  11.499  0.7882  0.4955  0.3447
  375MOL0     C50501   6.180   5.577  11.490  1.0745  0.9373  0.7677
  375MOL0     C50502   6.029   5.635  11.465 -0.1978  0.3440  0.8693
  375MOL0     C50503   5.964   5.574  11.345  0.3623 -0.2915 -0.7239
  375MOL0     C50504   5.815   5.604  11.355  0.6381  0.5034  0.1417
  375MOL0     C50505   5.741   5.521  11.251  0.5321 -0.4467 -0.3090
  375MOL0     C50506   5.781   5.550  11.107 -0.2829  0.2629  0.6836
  375MOL0     N50507   5.760   5.685  11.054 -0.8819 -0.0004 -0.7031
  375MOL0     C50508   5.862   5.779  11.045 -1.1356  0.0872 -0.1164
  375MOL0     C50509   5.799   5.895  11.015  0.3729  0.2456 -0.3092
  375MOL0     C50510   5.850   6.039  10.995 -0.8711  0.6606 -0.2472
  375MOL0     C50511   5.795   6.145  11.094  0.7060 -0.5424  0.4752
  375MOL0     C50512   5.862   6.281  11.070  0.6939  0.2614  0.6111
  375MOL0     C50513   5.817   6.397  11.169 -0.1581  0.1393 -0.4106
  375MOL0     O50514   5.927   6.494  11.164 -0.5407 -0.3402  0.4910
  375MOL0     C50515   5.933   6.588  11.263  0.2011 -0.4931  0.2352
  375MOL0     C50516   5.946   6.544  11.395  0.2446 -0.3631  0.0329
  375MOL0     C50517   5.935   6.628  11.502 -0.1226  0.4833 -0.5513
  375MOL0     C50518   5.928   6.769  11.479 -1.1661 -0.1529  0.8484
  375MOL0     C50519   5.932   6.855  11.596 -1.7458  0.1654  0.5407
  375MOL0     O50520   5.922   6.799  11.719 -0.0652 -0.1491  0.4956
  375MOL0     C50521   5.869   6.856  11.834 -0.0198 -0.1080  0.3953
  375MOL0     C50522   5.796   6.977  11.840  0.3466  0.1182 -0.0585
  375MOL0     C50523   5.749   7.035  11.968 -1.2689 -0.0952 -0.2056
  375MOL0     C50524   5.787   6.976  12.089 -0.1497  1.0865  0.0345
  375MOL0     O50525   5.736   7.027  12.204 -0.3638  0.4985 -0.5141
  375MOL0     C50526   5.684   6.926  12.291 -0.8824  0.5298  0.0530
  375MOL0     C50527   5.537   6.896  12.248 -0.0609 -1.0357 -0.3660
  375MOL0     C50528   5.538   6.816  12.120  0.7461  0.9198 -0.6214
  375MOL0     C50529   5.416   6.726  12.092 -0.3047 -1.1179 -0.6495
  375MOL0     C50530   5.420   6.660  11.957 -0.4406 -0.0330 -0.0514
  375MOL0     C50531   5.297   6.578  11.921  0.3204  0.9353 -0.3838
  375MOL0     C50532   5.170   6.661  11.884  0.1938 -0.1381  0.1030
  375MOL0     C50533   5.071   6.567  11.801 -0.5949  0.5166  0.1941
  375MOL0    Cl50534   5.151   6.499  11.655 -0.0564  0.0177  0.3351
  375MOL0     C50535   5.853   6.843  12.083  0.7291  0.1186 -1.3196
  375MOL0     C50536   5.894   6.786  11.958 -0.1622 -0.8287  0.5426
  375MOL0     O50537   5.942   6.977  11.567 -0.1583 -1.0735  0.9486
  375MOL0     C50538   5.909   6.815  11.349 -0.0367  0.8661  1.3394
  375MOL0     C50539   5.912   6.727  11.240 -0.0749  0.0765  0.1331
  375MOL0     N50540   5.666   5.881  11.022  1.2317 -0.3032  0.0077
  375MOL0     N50541   5.647   5.755  11.023  0.0279 -0.1744 -0.0411
  375MOL0     C50542   6.416   5.787  11.068 -0.2819  0.1063  0.0111
  375MOL0     C50543   6.389   5.804  10.933  0.1725  0.2357 -0.1748
  375MOL0     C50544   6.204   5.692  10.517  0.6031  0.4527 -0.0250
  375MOL0     C50545   6.259   5.640  10.397 -0.0825  1.0490 -0.8499
  375MOL0     C50546   6.215   5.673  10.275  0.6540  1.7566  1.0367
  375MOL0     C50547   6.120   5.777  10.268  0.6092 -0.4289 -0.3002
  375MOL0     O50548   6.089   5.824  10.140 -0.0295 -0.0745  0.5291
  375MOL0     C50549   5.995   5.930  10.120 -0.6435 -0.3218 -0.6209
  375MOL0     C50550   5.953   5.946   9.977 -0.1046  0.0827  0.5260
  375MOL0     C50551   5.885   6.078   9.957  0.1177 -0.4101  0.3615
  375MOL0     C50552   5.811   6.095   9.831  0.4194 -0.4084 -0.1152
  375MOL0     C50553   5.897   6.072   9.721 -0.5931 -0.1267  0.4981
  375MOL0     C50554   5.974   6.040   9.637  0.4798 -0.2243  0.7674
  375MOL0     C50555   6.060   5.825  10.385 -0.3136 -0.8928  0.1599
  375MOL0     C50556   6.095   5.770  10.508 -0.4213 -0.0635  0.1510
  375MOL0     C50557   6.005   5.834  10.628 -0.1682  0.7505 -0.3237
  375MOL0     H50558   6.133   5.584  10.889 -0.4634 -2.2557 -0.0322
  375MOL0     H50559   6.197   5.536  11.151  0.7284  1.3089  0.3245
  375MOL0     H50560   6.388   5.831  11.383 -0.4250 -0.4495  2.7920
  375MOL0     H50561   6.230   5.827  11.315  1.6929  2.2796 -1.1258
  375MOL0     H50562   6.213   5.767  11.557 -3.4182 -2.0497 -0.3912
  375MOL0     H50563   6.365   5.673  11.551  0.8934  0.1368  0.0077
  375MOL0     H50564   6.197   5.517  11.580  2.6676  0.8168  0.4129
  375MOL0     H50565   6.215   5.512  11.409  2.1992  2.0361  0.3578
  375MOL0     H50566   5.973   5.586  11.546  1.4499 -1.1873  1.1384
  375MOL0     H50567   6.013   5.742  11.479 -2.4298  0.5987 -2.5182
  375MOL0     H50568   6.021   5.616  11.262  1.1317  0.8470  0.3585
  375MOL0     H50569   5.981   5.468  11.367  2.3185 -0.1013 -1.1284
  375MOL0     H50570   5.783   5.567  11.453  0.4306 -0.1707 -0.1745
  375MOL0     H50571   5.790   5.709  11.334 -2.1566 -0.4308 -1.8227
  375MOL0     H50572   5.633   5.526  11.261  0.7933  2.4520  3.6057
  375MOL0     H50573   5.772   5.418  11.274 -3.0945 -1.4175  0.9612
  375MOL0     H50574   5.882   5.508  11.109 -0.0312  0.6306 -1.4531
  375MOL0     H50575   5.711   5.486  11.053 -1.4107  1.1046  1.1125
  375MOL0     H50576   5.970   5.778  11.055 -0.9661  2.7468 -1.0167
  375MOL0     H50577   5.956   6.030  11.020 -1.2628  1.6952  2.0179
  375MOL0     H50578   5.833   6.072  10.892  0.1176 -1.8832 -1.3255
  375MOL0     H50579   5.691   6.164  11.069  1.5199  3.4062 -0.6292
  375MOL0     H50580   5.811   6.105  11.194 -0.6505  1.7623  1.6918
  375MOL0     H50581   5.841   6.311  10.967 -6.0767 -1.0050  1.1451
  375MOL0     H50582   5.971   6.272  11.075  0.6666 -2.3253 -1.3079
  375MOL0     H50583   5.803   6.357  11.270 -1.7839  2.4720  0.3616
  375MOL0     H50584   5.717   6.436  11.153 -1.2262 -0.7983  3.0459
  375MOL0     H50585   5.975   6.441  11.412  0.1200 -0.4338 -0.1764
  375MOL0     H50586   5.952   6.583  11.599 -2.3162 -0.9854 -0.7756
  375MOL0     H50587   5.784   7.038  11.751  0.6780 -0.1042 -0.2565
  375MOL0     H50588   5.679   7.118  11.971 -2.2552 -0.9421  1.5208
  375MOL0     H50589   5.750   6.840  12.307 -0.0018  0.7916 -1.8783
  375MOL0     H50590   5.690   6.971  12.391 -0.1483  1.4767 -0.3954
  375MOL0     H50591   5.482   6.843  12.327 -0.9056 -1.7917 -1.4278
  375MOL0     H50592   5.488   6.993  12.234 -1.1873 -1.6655 -0.9743
  375MOL0     H50593   5.569   6.875  12.034 -0.5701  0.6584 -1.3139
  375MOL0     H50594   5.618   6.745  12.144  1.7500  2.9603  2.6926
  375MOL0     H50595   5.325   6.781  12.114  0.5534 -0.2678  0.9887
  375MOL0     H50596   5.415   6.642  12.162  1.0773  1.1104  2.2453
  375MOL0     H50597   5.503   6.589  11.966 -1.1189 -0.7700  0.6509
  375MOL0     H50598   5.451   6.743  11.893  1.4550 -0.4910  0.2155
  375MOL0     H50599   5.333   6.530  11.829 -0.1695 -0.1847  0.0014
  375MOL0     H50600   5.283   6.500  11.996  1.6650  3.4737  2.7659
  375MOL0     H50601   5.205   6.750  11.830  3.0740 -0.6063  0.9963
  375MOL0     H50602   5.136   6.695  11.983  0.5092 -1.1034  0.5561
  375MOL0     H50603   5.034   6.495  11.873 -0.0809  0.7214  0.6731
  375MOL0     H50604   4.987   6.632  11.776 -0.1167  0.6541 -1.1516
  375MOL0     H50605   5.860   6.781  12.172 -1.8576  0.0774 -1.0506
  375MOL0     H50606   5.962   6.701  11.957 -0.0942 -0.8060 -1.5339
  375MOL0     H50607   5.893   6.920  11.327  0.2826  0.9756  1.6280
  375MOL0     H50608   5.887   6.772  11.144  2.0088 -0.7215 -0.8484
  375MOL0     H50609   6.495   5.844  11.115  1.0898 -0.8345 -1.1066
  375MOL0     H50610   6.447   5.873  10.873 -0.3665  0.9244  0.0830
  375MOL0     H50611   6.349   5.581  10.407  0.9202  1.9758 -3.4211
  375MOL0     H50612   6.257   5.619  10.191 -3.9064  0.4761 -0.7452
  375MOL0     H50613   6.051   6.017  10.155 -0.4873 -0.8108  0.3766
  375MOL0     H50614   5.910   5.912  10.185  0.6643  4.4578  3.0138
  375MOL0     H50615   5.894   5.863   9.937 -0.0656  1.0150 -1.6129
  375MOL0     H50616   6.044   5.950   9.917 -1.1164  1.1551 -1.0375
  375MOL0     H50617   5.970   6.145   9.975  1.1524 -1.6897  0.3845
  375MOL0     H50618   5.815   6.106  10.036 -1.1485  1.5839 -1.3396
  375MOL0     H50619   5.731   6.022   9.842  0.8309 -0.9065 -0.3951
  375MOL0     H50620   5.761   6.192   9.820  2.1113  0.5605  0.4334
  375MOL0     H50621   6.033   6.044   9.547  1.1874  1.6906  1.2529
  375MOL0     H50622   5.977   5.895  10.378 -1.6150 -2.2493  1.2747
  375MOL0     H50623   5.940   5.908  10.580  0.2624  0.9314 -0.6261
  375MOL0     H50624   5.942   5.756  10.673  1.0113  0.3984  0.7649
  375MOL0     H50625   6.052   5.878  10.717 -1.1566 -0.5539  0.8879
  376MOL0     O50626   2.072   2.633  10.071  0.5224  0.2934 -0.2148
  376MOL0     C50627   2.053   2.751  10.062  0.0402 -0.0442 -0.2794
  376MOL0     O50628   2.126   2.836   9.970 -0.3227  0.5008 -0.2659
  376MOL0     C50629   2.206   2.768   9.885 -0.4448 -0.0879 -0.7921
  376MOL0     C50630   2.173   2.737   9.755  0.0439 -0.1877  0.6993
  376MOL0     C50631   2.256   2.665   9.661  0.3947 -0.3340 -1.2244
  376MOL0     C50632   2.379   2.617   9.710 -0.0190  0.1426 -0.1425
  376MOL0     O50633   2.448   2.518   9.647 -0.2527  0.6757  0.1545
  376MOL0     C50634   2.491   2.551   9.513 -0.1586  0.3220  1.1984
  376MOL0     C50635   2.647   2.526   9.512  0.9610  0.0142  0.5546
  376MOL0     C50636   2.705   2.563   9.369  0.1806  0.1088  0.0730
  376MOL0     C50637   2.861   2.535   9.372 -0.0547 -0.1310 -0.4630
  376MOL0     C50638   2.920   2.555   9.230  0.1111 -0.8060 -0.7734
  376MOL0     C50639   3.062   2.492   9.229 -0.0793  0.2673  1.2482
  376MOL0     C50640   3.138   2.535   9.100 -0.2751  0.8567 -0.8758
  376MOL0     C50641   3.073   2.474   8.976 -0.4355  0.6574  0.4598
  376MOL0     N50642   2.970   2.565   8.916 -0.2347 -0.4862 -0.6666
  376MOL0     C50643   2.994   2.678   8.842  0.1397 -0.6609  0.2058
  376MOL0     C50644   2.883   2.693   8.769  0.0898 -0.4792  0.5970
  376MOL0     C50645   2.881   2.790   8.648  0.3815 -0.0123 -0.2553
  376MOL0     C50646   2.872   2.713   8.513 -0.1432 -0.3843  0.6187
  376MOL0     C50647   2.983   2.619   8.481  0.2258  0.1780  0.2879
  376MOL0     C50648   2.963   2.535   8.347 -0.3796 -0.2048  0.5895
  376MOL0     O50649   2.966   2.628   8.235 -0.2905  0.7584  0.8211
  376MOL0     C50650   2.998   2.573   8.115 -0.2553  0.1705 -0.2742
  376MOL0     C50651   2.908   2.509   8.043 -0.0599  0.9829 -0.7393
  376MOL0     C50652   2.940   2.448   7.924 -0.0151 -0.2407 -0.1103
  376MOL0     C50653   3.070   2.460   7.870 -0.8002  0.2408  0.3374
  376MOL0     C50654   3.104   2.386   7.743  0.5410 -0.1189  0.4133
  376MOL0     O50655   3.010   2.333   7.665 -0.1285 -0.0350 -0.0084
  376MOL0     C50656   3.029   2.258   7.550 -0.2540 -0.5987 -0.6354
  376MOL0     C50657   2.941   2.279   7.442 -0.4504 -0.3632 -0.8634
  376MOL0     C50658   2.963   2.216   7.318 -0.5720  0.6882 -1.1221
  376MOL0     C50659   3.060   2.115   7.305  0.3900 -0.0286  0.3583
  376MOL0     O50660   3.070   2.059   7.181 -0.6530  0.7509  0.9327
  376MOL0     C50661   3.157   2.142   7.099  0.6132  0.7037  0.3901
  376MOL0     C50662   3.178   2.080   6.969  1.1680  1.0063 -0.9005
  376MOL0     C50663   3.279   2.135   6.882  0.2294 -0.5437 -0.1656
  376MOL0     C50664   3.223   2.174   6.744  0.4319 -0.0656 -0.3466
  376MOL0     C50665   3.161   2.314   6.754 -0.6352  0.3447  0.3292
  376MOL0     C50666   3.111   2.348   6.610  1.2575  0.5566 -0.4688
  376MOL0     C50667   2.952   2.333   6.593  0.6373  0.1894  0.2433
  376MOL0     C50668   2.901   2.368   6.449  0.3100  0.7419  0.6574
  376MOL0    Cl50669   2.986   2.281   6.313 -0.1283 -0.3758  0.2196
  376MOL0     C50670   3.138   2.080   7.411  0.3955  0.4861 -0.1515
  376MOL0     C50671   3.126   2.160   7.524  0.1699 -0.4614 -0.3426
  376MOL0     O50672   3.226   2.363   7.732 -0.1599  0.3833 -0.2859
  376MOL0     C50673   3.165   2.535   7.945 -0.7905 -0.1703  0.5806
  376MOL0     C50674   3.124   2.597   8.063  0.0613  0.1959 -0.3586
  376MOL0     N50675   2.784   2.603   8.823 -0.2975 -0.2629  0.6492
  376MOL0     N50676   2.848   2.517   8.901  0.6874  0.2666  0.0766
  376MOL0     C50677   2.415   2.646   9.839  0.0681 -1.8989 -0.4604
  376MOL0     C50678   2.330   2.718   9.927  0.3290 -0.2505  0.3415
  376MOL0     C50679   1.952   2.821  10.129  0.0735 -0.1152 -0.4350
  376MOL0     C50680   1.852   2.901  10.072  0.2152 -0.5199  0.4183
  376MOL0     C50681   1.755   2.973  10.145 -0.2747 -0.6622 -0.5955
  376MOL0     C50682   1.752   2.964  10.289 -0.9198  0.5776  0.0543
  376MOL0     O50683   1.665   3.028  10.368 -0.1476  0.0775 -0.5693
  376MOL0     C50684   1.571   3.111  10.305  0.7354  0.1931 -0.2017
  376MOL0     C50685   1.500   3.208  10.403 -0.0167  0.0147  0.4226
  376MOL0     C50686   1.577   3.220  10.533  0.4137 -0.0579  1.2141
  376MOL0     C50687   1.501   3.322  10.630 -0.5526  0.3939 -0.4993
  376MOL0     C50688   1.577   3.352  10.755  0.2414 -0.4385  0.6427
  376MOL0     C50689   1.634   3.375  10.863 -0.1606 -0.3427  0.6780
  376MOL0     C50690   1.843   2.877  10.344  0.8605  0.1629 -0.7255
  376MOL0     C50691   1.942   2.810  10.271  0.3347  0.0725 -0.9428
  376MOL0     C50692   2.036   2.718  10.351  0.1020 -0.5283  0.5500
  376MOL0     H50693   2.075   2.776   9.732  0.6634  2.7750  2.6555
  376MOL0     H50694   2.220   2.648   9.560 -3.4077  1.4330 -0.3642
  376MOL0     H50695   2.457   2.483   9.435  3.1660  1.9710 -1.9428
  376MOL0     H50696   2.480   2.656   9.485  1.5660  0.0312 -0.7562
  376MOL0     H50697   2.677   2.426   9.546  2.1818  0.8198  1.9772
  376MOL0     H50698   2.687   2.606   9.576  0.4905 -1.4523  2.7912
  376MOL0     H50699   2.688   2.666   9.337  1.8578  0.2288 -0.5153
  376MOL0     H50700   2.668   2.494   9.292  2.9800  0.0270 -1.3236
  376MOL0     H50701   2.897   2.607   9.445  0.6245 -0.4621 -0.4615
  376MOL0     H50702   2.895   2.433   9.393  1.8052  1.0717  3.1010
  376MOL0     H50703   2.864   2.495   9.158  0.0050 -2.8974  0.9257
  376MOL0     H50704   2.928   2.661   9.205  2.7604 -0.3619  1.5190
  376MOL0     H50705   3.117   2.533   9.314  0.2126 -0.7209  1.5552
  376MOL0     H50706   3.056   2.384   9.246  1.7150 -0.6562 -2.7499
  376MOL0     H50707   3.240   2.496   9.104 -0.6869 -0.1724  0.1273
  376MOL0     H50708   3.152   2.643   9.089 -0.4548  0.9695 -0.0694
  376MOL0     H50709   3.147   2.471   8.896 -2.1771 -1.0366 -1.1840
  376MOL0     H50710   3.048   2.368   8.986  4.9843 -0.9278  0.6516
  376MOL0     H50711   3.087   2.731   8.822  0.3759 -1.4161 -0.7339
  376MOL0     H50712   2.795   2.858   8.655  1.4003  1.2022  1.2292
  376MOL0     H50713   2.971   2.851   8.657  0.4821 -0.4071  1.7595
  376MOL0     H50714   2.775   2.666   8.498 -0.6110 -0.1659  2.7026
  376MOL0     H50715   2.882   2.787   8.433  1.0221  1.5638  2.4454
  376MOL0     H50716   3.000   2.556   8.569  2.4609  1.1021  0.5914
  376MOL0     H50717   3.078   2.670   8.463  0.1413  0.1355 -0.2928
  376MOL0     H50718   2.864   2.489   8.354  0.9775 -3.1192  2.5351
  376MOL0     H50719   3.041   2.458   8.340  1.3829  1.6029 -4.7210
  376MOL0     H50720   2.804   2.521   8.074  0.8450  4.4362  1.5581
  376MOL0     H50721   2.869   2.386   7.870 -0.4122 -1.6206  1.8944
  376MOL0     H50722   2.867   2.357   7.456  1.7802  2.1970 -2.3857
  376MOL0     H50723   2.907   2.225   7.226 -1.3144 -1.9380 -0.9825
  376MOL0     H50724   3.109   2.240   7.091 -2.1462 -0.3016  2.6926
  376MOL0     H50725   3.251   2.160   7.151  1.9317 -1.6113 -1.0288
  376MOL0     H50726   3.181   1.971   6.983 -4.1722  0.5987 -0.7078
  376MOL0     H50727   3.085   2.090   6.911  0.9168 -1.3979 -1.0472
  376MOL0     H50728   3.316   2.224   6.934 -2.4568  0.4440  0.2103
  376MOL0     H50729   3.367   2.070   6.869  1.3976 -0.1626  4.2029
  376MOL0     H50730   3.146   2.108   6.704 -1.8784  1.8858  0.6410
  376MOL0     H50731   3.303   2.180   6.670 -0.3753  2.2969 -1.1164
  376MOL0     H50732   3.245   2.381   6.774 -0.7958  0.1522  1.7681
  376MOL0     H50733   3.083   2.309   6.831  0.7816 -1.5231  1.7329
  376MOL0     H50734   3.130   2.456   6.611  0.2676  0.7518 -1.0442
  376MOL0     H50735   3.178   2.307   6.534 -0.6804 -1.1877 -1.3617
  376MOL0     H50736   2.909   2.400   6.667 -1.2290 -0.0240 -0.5937
  376MOL0     H50737   2.931   2.227   6.608  0.2335 -0.0274 -1.6010
  376MOL0     H50738   2.794   2.343   6.448  0.6465 -1.7847  4.7787
  376MOL0     H50739   2.918   2.475   6.433 -1.3650  1.1040  1.0717
  376MOL0     H50740   3.217   2.006   7.415  0.7767  0.8420 -0.9166
  376MOL0     H50741   3.196   2.136   7.604  0.9084  0.4881 -0.6799
  376MOL0     H50742   3.269   2.529   7.916 -0.6876 -2.2535  1.1767
  376MOL0     H50743   3.179   2.672   8.119 -3.2786  1.5822  1.4011
  376MOL0     H50744   2.508   2.603   9.875  2.1404 -0.2447 -3.3277
  376MOL0     H50745   2.370   2.733  10.026 -0.9320  2.4861  0.5269
  376MOL0     H50746   1.862   2.907   9.965 -0.4143 -0.7438  0.3457
  376MOL0     H50747   1.688   3.040  10.092  2.3972  1.8214 -1.1279
  376MOL0     H50748   1.488   3.045  10.278 -0.7956  1.1731  1.8062
  376MOL0     H50749   1.610   3.172  10.223 -0.2455  0.5338 -0.4360
  376MOL0     H50750   1.405   3.156  10.423 -2.1567  3.4326 -0.0583
  376MOL0     H50751   1.485   3.304  10.353 -1.9820 -0.7647 -0.6222
  376MOL0     H50752   1.681   3.247  10.510  0.7214 -0.6494  1.8525
  376MOL0     H50753   1.593   3.126  10.585 -1.4114  0.4201  2.7583
  376MOL0     H50754   1.489   3.413  10.570 -3.8337  2.2206  2.5296
  376MOL0     H50755   1.401   3.285  10.658 -0.0947 -0.4981  0.0022
  376MOL0     H50756   1.685   3.403  10.953  1.5846  1.6225 -0.8205
  376MOL0     H50757   1.838   2.871  10.453 -0.1993  2.5215 -0.5719
  376MOL0     H50758   2.130   2.684  10.308  0.5574  0.7960  0.4643
  376MOL0     H50759   2.064   2.773  10.441  0.0925 -1.1927  0.9650
  376MOL0     H50760   1.975   2.635  10.390 -3.5609  1.6524 -0.0600
  377MOL0     O50761   3.410   2.730   4.007  0.2975 -0.4551  0.6037
  377MOL0     C50762   3.447   2.847   4.005 -0.4526  0.3737  0.7642
  377MOL0     O50763   3.575   2.890   4.002  0.0155 -0.4473  0.6000
  377MOL0     C50764   3.674   2.798   3.998  0.0497 -0.8877 -0.1546
  377MOL0     C50765   3.736   2.763   4.120  0.0904  1.3035  0.7385
  377MOL0     C50766   3.826   2.649   4.116  0.0010 -0.7960  0.1187
  377MOL0     C50767   3.850   2.582   3.997 -0.2215  0.6621 -0.4397
  377MOL0     O50768   3.943   2.472   4.007 -0.2443  0.1724 -0.6686
  377MOL0     C50769   3.953   2.385   3.894 -0.1466  0.4327 -0.4918
  377MOL0     C50770   3.977   2.245   3.936  0.5734 -0.0433  0.5294
  377MOL0     C50771   3.984   2.152   3.817 -0.0461  0.2570  0.7625
  377MOL0     C50772   3.843   2.108   3.779  0.2140 -1.0371 -0.0424
  377MOL0     C50773   3.857   2.006   3.663 -0.6431 -0.3060 -0.2167
  377MOL0     C50774   3.721   1.943   3.618 -0.5408 -0.4477  0.6458
  377MOL0     C50775   3.643   2.042   3.534 -0.6211 -0.2124  0.1411
  377MOL0     C50776   3.517   1.976   3.479 -1.1876  0.4200  0.1153
  377MOL0     N50777   3.438   2.074   3.394 -0.3142 -0.0040 -1.2791
  377MOL0     C50778   3.350   2.175   3.419 -1.3386  0.3422  0.3047
  377MOL0     C50779   3.322   2.236   3.296 -0.0631  0.8660 -0.9232
  377MOL0     C50780   3.233   2.359   3.303 -0.1532 -0.6846  0.7150
  377MOL0     C50781   3.088   2.314   3.316 -0.3191 -0.3539  0.2575
  377MOL0     C50782   2.987   2.414   3.258 -0.0003 -0.4177 -0.4900
  377MOL0     C50783   3.019   2.559   3.291 -0.2170  0.0209 -0.0983
  377MOL0     O50784   2.907   2.648   3.296  0.0787  0.0776  0.4740
  377MOL0     C50785   2.837   2.686   3.183 -0.0025  0.8478  0.8834
  377MOL0     C50786   2.739   2.783   3.208  0.7907  0.6277 -0.2359
  377MOL0     C50787   2.647   2.818   3.112 -0.4855 -0.0085 -0.2356
  377MOL0     C50788   2.641   2.753   2.986 -0.1514 -0.0856 -0.6646
  377MOL0     C50789   2.534   2.763   2.890 -0.4308 -0.1895  0.0614
  377MOL0     O50790   2.431   2.850   2.920 -0.4347 -0.4852 -0.7115
  377MOL0     C50791   2.331   2.885   2.836  0.0298 -0.8196 -0.2075
  377MOL0     C50792   2.345   2.897   2.695 -0.0684 -0.5812 -0.0402
  377MOL0     C50793   2.238   2.940   2.617 -0.3242 -0.1101 -1.0419
  377MOL0     C50794   2.119   2.985   2.676 -0.6905 -0.8545  0.5830
  377MOL0     O50795   2.014   3.044   2.598 -0.4222  0.5136  0.4760
  377MOL0     C50796   1.922   3.127   2.661 -0.5619  0.2688  0.3416
  377MOL0     C50797   1.820   3.154   2.550  0.2505 -0.1539  0.1356
  377MOL0     C50798   1.700   3.240   2.613  0.2093  0.0871 -0.2131
  377MOL0     C50799   1.597   3.244   2.504  0.3590 -0.0435 -0.5934
  377MOL0     C50800   1.484   3.354   2.518 -0.6251 -0.5374 -0.5943
  377MOL0     C50801   1.393   3.386   2.401  0.5107  1.0076 -0.3748
  377MOL0     C50802   1.456   3.400   2.259 -0.9801  0.6534  0.0417
  377MOL0     C50803   1.339   3.401   2.163 -0.2167 -0.6609  0.2463
  377MOL0    Cl50804   1.405   3.473   2.021 -0.2129 -0.5248  0.2078
  377MOL0     C50805   2.112   2.984   2.818 -0.1527 -0.0622  0.2306
  377MOL0     C50806   2.212   2.936   2.901 -0.3680  0.2130 -0.7413
  377MOL0     O50807   2.531   2.681   2.799 -0.0054 -0.5180  0.3634
  377MOL0     C50808   2.751   2.660   2.963  0.3455  0.6385  0.1452
  377MOL0     C50809   2.847   2.633   3.057 -0.7395  0.1382  0.3416
  377MOL0     N50810   3.378   2.158   3.201 -0.6196  0.4121 -0.3498
  377MOL0     N50811   3.445   2.069   3.259 -0.5148 -0.0221  0.6690
  377MOL0     C50812   3.798   2.630   3.877  0.3380  0.2135 -0.4073
  377MOL0     C50813   3.715   2.737   3.883  0.0470 -0.4836 -0.7817
  377MOL0     C50814   3.340   2.947   3.955  0.0827  0.4040 -0.0599
  377MOL0     C50815   3.379   3.069   3.902 -0.2921 -0.2501 -0.1494
  377MOL0     C50816   3.273   3.154   3.859  0.1317  0.0275  0.8269
  377MOL0     C50817   3.138   3.126   3.847 -0.5110 -0.1928  1.1594
  377MOL0     O50818   3.038   3.198   3.788 -0.4352 -0.0755 -0.1708
  377MOL0     C50819   3.031   3.335   3.829 -1.1767  0.5522 -0.1661
  377MOL0     C50820   2.899   3.400   3.779 -0.5604  0.0486 -0.7795
  377MOL0     C50821   2.771   3.350   3.848  0.4642 -0.4017 -1.0066
  377MOL0     C50822   2.755   3.394   3.994 -0.2332  0.4655  0.0861
  377MOL0     C50823   2.798   3.302   4.102 -0.3318 -0.2364  0.7146
  377MOL0     C50824   2.836   3.231   4.189  0.7009  0.3719 -0.4116
  377MOL0     C50825   3.100   3.008   3.909 -0.3120  0.0226 -0.0006
  377MOL0     C50826   3.201   2.919   3.968  0.4930  0.5835 -0.1282
  377MOL0     C50827   3.138   2.806   4.053 -0.1928 -0.4578 -0.3602
  377MOL0     H50828   3.702   2.795   4.218  1.3759 -2.8037  2.7613
  377MOL0     H50829   3.863   2.613   4.212  2.3355  2.0892  0.4559
  377MOL0     H50830   3.860   2.381   3.836 -0.4987  0.7461  0.0476
  377MOL0     H50831   4.040   2.418   3.837  1.0138 -2.9737 -0.9083
  377MOL0     H50832   3.882   2.229   3.988 -2.3144  1.4369 -3.7143
  377MOL0     H50833   4.064   2.235   4.001  2.1479  1.3626 -1.2587
  377MOL0     H50834   4.032   2.057   3.843 -2.1141 -0.9792  0.3470
  377MOL0     H50835   4.039   2.189   3.731  0.6325 -0.1686  1.0085
  377MOL0     H50836   3.782   2.052   3.850  0.2451 -1.9626 -0.7334
  377MOL0     H50837   3.789   2.198   3.746  1.0945 -1.3442 -2.5663
  377MOL0     H50838   3.914   2.041   3.577 -1.6251 -0.6946 -1.0484
  377MOL0     H50839   3.926   1.929   3.697  1.2762  0.7704 -1.4673
  377MOL0     H50840   3.735   1.855   3.554 -2.9560  0.8974 -1.9413
  377MOL0     H50841   3.662   1.901   3.700 -2.2941  0.1642 -0.2541
  377MOL0     H50842   3.705   2.063   3.447 -0.1245  2.7795  1.0823
  377MOL0     H50843   3.624   2.129   3.598  3.9830  1.0235  0.1803
  377MOL0     H50844   3.542   1.886   3.422  1.2059  0.5338  0.8747
  377MOL0     H50845   3.451   1.940   3.559  1.1496  1.1273  2.4985
  377MOL0     H50846   3.304   2.214   3.509  0.6279  4.4027 -0.1948
  377MOL0     H50847   3.264   2.427   3.383 -1.9198 -0.8315  1.5700
  377MOL0     H50848   3.242   2.412   3.207  0.5195 -1.1022  0.5410
  377MOL0     H50849   3.078   2.224   3.254 -0.2479  0.3924 -0.8666
  377MOL0     H50850   3.076   2.289   3.422  0.2596  0.7927  0.6100
  377MOL0     H50851   2.889   2.385   3.296  0.3556  0.0032  0.8200
  377MOL0     H50852   2.980   2.399   3.150  3.0225  1.5838 -1.0879
  377MOL0     H50853   3.090   2.589   3.213  1.3123 -1.4005  0.6924
  377MOL0     H50854   3.060   2.568   3.392 -0.8343  3.5515 -0.0230
  377MOL0     H50855   2.737   2.827   3.307 -3.0504  0.3083 -0.0030
  377MOL0     H50856   2.565   2.885   3.139  0.1950 -0.0230  2.1230
  377MOL0     H50857   2.443   2.870   2.656  0.6766  1.9605 -0.0821
  377MOL0     H50858   2.236   2.943   2.509 -0.5488  2.6056 -1.0330
  377MOL0     H50859   1.869   3.072   2.740  3.3090 -2.4795  1.3892
  377MOL0     H50860   1.968   3.211   2.714 -0.2971 -0.2893  1.0128
  377MOL0     H50861   1.868   3.227   2.483  1.2875  0.2413  1.2689
  377MOL0     H50862   1.801   3.056   2.506  5.4689 -3.1247  3.3613
  377MOL0     H50863   1.658   3.201   2.706 -1.7629 -0.6954 -1.3811
  377MOL0     H50864   1.732   3.342   2.637  0.4459  0.6497 -2.7277
  377MOL0     H50865   1.543   3.149   2.509  0.2301  0.0903  3.3855
  377MOL0     H50866   1.656   3.257   2.413  3.6496 -0.3899  1.3554
  377MOL0     H50867   1.542   3.445   2.541  1.8959 -1.9947 -0.7857
  377MOL0     H50868   1.426   3.327   2.606 -2.4392  1.5573 -1.0522
  377MOL0     H50869   1.317   3.308   2.396  2.4869 -1.1596  1.1101
  377MOL0     H50870   1.341   3.477   2.431  0.6336 -0.0025  3.4049
  377MOL0     H50871   1.522   3.317   2.232 -4.0041 -2.2347  0.8312
  377MOL0     H50872   1.512   3.494   2.256  0.1355  0.0278  0.5858
  377MOL0     H50873   1.300   3.300   2.151  1.7840 -1.3302 -1.3238
  377MOL0     H50874   1.252   3.457   2.198 -0.5979 -1.1723  0.1279
  377MOL0     H50875   2.038   3.048   2.865 -1.7438 -1.6086 -0.0996
  377MOL0     H50876   2.199   2.934   3.009 -3.0519 -2.2171 -0.9795
  377MOL0     H50877   2.746   2.596   2.876 -2.2008 -0.5751  1.0844
  377MOL0     H50878   2.929   2.563   3.039 -0.6868 -0.5429  2.8677
  377MOL0     H50879   3.825   2.576   3.787 -0.9568 -0.6067 -0.3391
  377MOL0     H50880   3.679   2.768   3.785  1.4452  2.6060 -0.4212
  377MOL0     H50881   3.484   3.094   3.905  0.3471 -2.7161  1.3445
  377MOL0     H50882   3.313   3.243   3.811 -2.1659  0.1230 -1.0984
  377MOL0     H50883   3.120   3.394   3.806 -2.2667  4.0904  3.5932
  377MOL0     H50884   3.051   3.341   3.936  1.9488  3.6805 -0.7287
  377MOL0     H50885   2.894   3.373   3.673 -0.4907 -3.8085  0.0530
  377MOL0     H50886   2.895   3.509   3.782 -0.9900  0.0706 -1.7945
  377MOL0     H50887   2.767   3.241   3.845  0.9875 -0.4045 -2.4797
  377MOL0     H50888   2.684   3.382   3.791 -0.7570  0.2130  1.1062
  377MOL0     H50889   2.808   3.489   4.006  2.2480 -0.7500 -0.5639
  377MOL0     H50890   2.649   3.418   4.007 -0.1848  0.3781  0.6508
  377MOL0     H50891   2.874   3.164   4.263  0.6091 -0.1823 -0.8631
  377MOL0     H50892   2.995   2.984   3.906 -0.6435  1.5379 -1.6955
  377MOL0     H50893   3.035   2.836   4.078 -0.3251 -0.3481 -1.0149
  377MOL0     H50894   3.123   2.711   4.000  0.1740 -0.7795  0.1030
  377MOL0     H50895   3.184   2.781   4.149 -0.9435  0.9192  0.4028
  378MOL0     O50896   1.031   8.030   0.674  0.1743  0.2141  0.6173
  378MOL0     C50897   1.120   8.111   0.684 -0.3663 -0.1260 -0.1236
  378MOL0     O50898   1.123   8.233   0.621  0.7670  1.1702 -0.0828
  378MOL0     C50899   1.027   8.268   0.520 -0.1573 -0.0087 -0.5642
  378MOL0     C50900   1.015   8.403   0.507  0.6550 -0.6699 -0.1348
  378MOL0     C50901   0.924   8.454   0.423 -0.4269 -0.5103 -0.5160
  378MOL0     C50902   0.844   8.381   0.335 -0.1996  0.1678 -0.2717
  378MOL0     O50903   0.761   8.455   0.255 -0.1710 -0.0724  0.8292
  378MOL0     C50904   0.727   8.387   0.134  0.5741 -0.0438 -1.2660
  378MOL0     C50905   0.673   8.491   0.034 -0.1970 -0.1123  0.0288
  378MOL0     C50906   0.569   8.594   0.072 -0.4631 -0.8547 -0.1487
  378MOL0     C50907   0.612   8.707   0.165 -0.7038  0.7229 -0.7624
  378MOL0     C50908   0.513   8.832   0.174  0.2661  0.1720  0.2023
  378MOL0     C50909   0.366   8.800   0.153 -0.3443 -0.0647  0.5062
  378MOL0     C50910   0.303   8.928   0.174  0.2407 -1.2187  0.1435
  378MOL0     C50911   0.154   8.915   0.150 -0.4699 -0.1560  0.7361
  378MOL0     N50912   0.092   9.047   0.119 -0.6292 -0.4109 -0.3047
  378MOL0     C50913   0.098   9.126   0.008  0.1469  0.5277  0.6183
  378MOL0     C50914   0.022   9.234   0.030  0.3412 -0.8082 -0.3784
  378MOL0     C50915  -0.022   9.338  -0.071 -0.2316 -0.5347 -0.5132
  378MOL0     C50916  -0.143   9.289  -0.151 -0.7186  0.3669  0.5994
  378MOL0     C50917  -0.277   9.302  -0.078 -0.4775 -0.5312  0.1918
  378MOL0     C50918  -0.377   9.190  -0.115 -0.3721  0.3662  0.3848
  378MOL0     O50919  -0.497   9.184  -0.030  0.5313 -0.0157  0.3104
  378MOL0     C50920  -0.606   9.245  -0.091 -0.3563  0.5517 -0.9122
  378MOL0     C50921  -0.714   9.274  -0.010 -1.4447  0.3257 -0.5278
  378MOL0     C50922  -0.830   9.327  -0.051 -0.0338 -0.5108 -1.5840
  378MOL0     C50923  -0.849   9.367  -0.184 -0.4577 -0.1082 -0.7161
  378MOL0     C50924  -0.976   9.422  -0.240 -0.9434 -1.5438 -1.5896
  378MOL0     O50925  -1.007   9.400  -0.370  0.7065 -0.1051 -1.1534
  378MOL0     C50926  -1.116   9.459  -0.432 -0.0043  0.3977 -0.1092
  378MOL0     C50927  -1.095   9.487  -0.577  0.4814 -0.2500 -0.3061
  378MOL0     C50928  -1.198   9.548  -0.653  0.2255  0.0036  0.3468
  378MOL0     C50929  -1.327   9.572  -0.604 -1.4008 -0.4290 -0.1657
  378MOL0     O50930  -1.414   9.618  -0.699  0.5446  0.2067 -0.2194
  378MOL0     C50931  -1.555   9.608  -0.671 -1.0347 -0.2000  0.2553
  378MOL0     C50932  -1.640   9.630  -0.796  0.6158  0.9530 -0.2253
  378MOL0     C50933  -1.790   9.652  -0.754  0.0405 -0.5046  0.8932
  378MOL0     C50934  -1.821   9.791  -0.710  0.1110 -0.3091 -0.8929
  378MOL0     C50935  -1.972   9.826  -0.728 -0.3422  0.8666  0.0088
  378MOL0     C50936  -2.008   9.959  -0.666 -0.3591 -0.4475  0.7254
  378MOL0     C50937  -2.153   9.987  -0.662 -0.2045  0.8772  0.1874
  378MOL0     C50938  -2.185  10.042  -0.790 -0.1892 -0.0443 -0.2193
  378MOL0    Cl50939  -2.350  10.105  -0.782 -0.0679  0.3193 -0.0042
  378MOL0     C50940  -1.351   9.547  -0.463 -0.3697 -0.4078 -0.0994
  378MOL0     C50941  -1.245   9.492  -0.381  1.2800 -0.1686 -0.0656
  378MOL0     O50942  -1.048   9.476  -0.159 -0.3740 -0.2271  0.1509
  378MOL0     C50943  -0.757   9.323  -0.271 -0.4192 -0.0135 -0.1240
  378MOL0     C50944  -0.636   9.264  -0.231  0.2888  0.1436  0.0691
  378MOL0     N50945  -0.030   9.227   0.156 -0.3767  0.8082 -0.1023
  378MOL0     N50946   0.009   9.116   0.200  0.5074  0.3261  0.2341
  378MOL0     C50947   0.861   8.241   0.343 -1.5074  0.1944  1.2892
  378MOL0     C50948   0.952   8.186   0.430 -0.9807  0.0867  0.2749
  378MOL0     C50949   1.226   8.083   0.784  0.1608 -0.6058  0.4435
  378MOL0     C50950   1.344   8.161   0.780 -0.0242 -0.1862 -0.0028
  378MOL0     C50951   1.442   8.156   0.884 -0.3210 -0.1093 -0.3811
  378MOL0     C50952   1.418   8.072   0.999 -0.6655 -0.8376  0.1283
  378MOL0     O50953   1.507   8.086   1.106 -0.4425  0.5831  0.3936
  378MOL0     C50954   1.467   8.011   1.224 -0.4066 -0.4932  0.5149
  378MOL0     C50955   1.576   8.029   1.326 -0.3194  0.1536  0.2114
  378MOL0     C50956   1.713   7.963   1.285  0.5723 -0.8144  1.5590
  378MOL0     C50957   1.814   7.966   1.394 -0.3742  0.1540 -0.3999
  378MOL0     C50958   1.924   7.866   1.368  0.2199 -0.2127  0.3047
  378MOL0     C50959   1.996   7.763   1.351 -0.8752  0.5052 -0.1171
  378MOL0     C50960   1.313   7.985   1.000  0.2507  0.3433  0.9392
  378MOL0     C50961   1.223   7.989   0.890 -0.2605  0.1343 -0.0670
  378MOL0     C50962   1.125   7.860   0.889 -0.4199  0.7384 -0.8538
  378MOL0     H50963   1.061   8.462   0.585  0.6885 -1.8302  0.7526
  378MOL0     H50964   0.922   8.562   0.410 -0.3909 -0.5948 -1.2572
  378MOL0     H50965   0.821   8.353   0.088  1.2538  2.3804 -1.7921
  378MOL0     H50966   0.660   8.302   0.155 -0.2579  1.3162  2.2323
  378MOL0     H50967   0.634   8.442  -0.056 -0.7791  3.0917 -1.5971
  378MOL0     H50968   0.763   8.533  -0.011  0.6024 -1.2853  0.4815
  378MOL0     H50969   0.484   8.547   0.122 -1.5975  2.2995  1.0869
  378MOL0     H50970   0.528   8.635  -0.021 -0.6435  1.0736  0.7337
  378MOL0     H50971   0.629   8.671   0.267 -0.1938 -2.7739 -1.9503
  378MOL0     H50972   0.710   8.745   0.133 -1.1712  1.6958 -1.0762
  378MOL0     H50973   0.541   8.886   0.266  1.0795  0.8831 -0.4469
  378MOL0     H50974   0.547   8.907   0.102  1.0359  1.6939  2.0226
  378MOL0     H50975   0.342   8.761   0.054 -0.2463 -3.3664  1.6337
  378MOL0     H50976   0.342   8.722   0.226  3.0761  0.7173  2.7291
  378MOL0     H50977   0.340   9.011   0.113  0.2144 -1.1589  0.2083
  378MOL0     H50978   0.325   8.963   0.275 -1.7410 -0.4095  0.3522
  378MOL0     H50979   0.130   8.849   0.066 -3.1679  0.9369  0.5388
  378MOL0     H50980   0.108   8.877   0.242  2.5289  0.3886  2.5836
  378MOL0     H50981   0.139   9.100  -0.089  1.3301  3.4315  0.2363
  378MOL0     H50982  -0.039   9.430  -0.015 -2.0012 -0.5407 -0.9546
  378MOL0     H50983   0.065   9.348  -0.136  1.0129  1.9846  1.3859
  378MOL0     H50984  -0.158   9.349  -0.242  0.8786  1.0105  0.7236
  378MOL0     H50985  -0.125   9.185  -0.180  2.2322  1.1558 -0.7503
  378MOL0     H50986  -0.325   9.400  -0.077  2.3476  0.9536  1.2829
  378MOL0     H50987  -0.256   9.287   0.028 -0.0063  3.3172  0.7958
  378MOL0     H50988  -0.330   9.092  -0.099  1.5539  1.4870  2.0692
  378MOL0     H50989  -0.392   9.204  -0.223 -1.8366 -0.3400  0.4727
  378MOL0     H50990  -0.710   9.254   0.096 -1.8647  2.6878 -0.0016
  378MOL0     H50991  -0.909   9.348   0.020  1.5432 -1.9495  0.7286
  378MOL0     H50992  -0.995   9.459  -0.606  1.2246 -0.2684  2.0698
  378MOL0     H50993  -1.183   9.569  -0.758 -1.5215  2.2218  0.4748
  378MOL0     H50994  -1.586   9.521  -0.612 -3.5983  0.9209  0.6904
  378MOL0     H50995  -1.579   9.696  -0.611 -1.9444 -0.9237  0.9875
  378MOL0     H50996  -1.607   9.716  -0.855  2.9431  0.3402  0.0665
  378MOL0     H50997  -1.636   9.538  -0.856  0.9149  0.6113  0.3057
  378MOL0     H50998  -1.847   9.627  -0.843  1.7787  0.6689 -0.6111
  378MOL0     H50999  -1.826   9.576  -0.684  1.0279  0.6070  2.6911
  378MOL0     H51000  -1.757   9.866  -0.756 -1.9584  1.1311 -1.5614
  378MOL0     H51001  -1.798   9.803  -0.603  0.4943 -0.1882 -0.9894
  378MOL0     H51002  -2.042   9.752  -0.688 -1.7548 -0.1184 -3.8228
  378MOL0     H51003  -1.985   9.835  -0.836 -1.5416  1.4721  0.1948
  378MOL0     H51004  -1.960   9.966  -0.568  0.8867 -0.8595  0.1652
  378MOL0     H51005  -1.953  10.039  -0.717 -2.0571  2.8341  3.5709
  378MOL0     H51006  -2.181  10.052  -0.579  0.6137 -1.9400  2.8668
  378MOL0     H51007  -2.222   9.903  -0.649  0.5339 -0.0961 -1.7577
  378MOL0     H51008  -2.117  10.126  -0.809  1.3535 -1.4288 -1.1438
  378MOL0     H51009  -2.179   9.969  -0.872 -0.3418 -0.3634  0.0508
  378MOL0     H51010  -1.446   9.581  -0.421 -0.0885  2.4968 -1.5912
  378MOL0     H51011  -1.267   9.472  -0.276  1.6883 -1.5988 -0.2321
  378MOL0     H51012  -0.791   9.338  -0.373 -4.9139  2.0451  1.4573
  378MOL0     H51013  -0.582   9.224  -0.316 -0.8610  1.8727 -1.5630
  378MOL0     H51014   0.810   8.170   0.279 -3.1913 -2.0527  4.7966
  378MOL0     H51015   0.971   8.079   0.421  0.7042  0.5256 -2.4992
  378MOL0     H51016   1.356   8.250   0.718  1.7064 -0.6234 -0.3457
  378MOL0     H51017   1.530   8.219   0.881  0.3700 -0.6833  3.0880
  378MOL0     H51018   1.438   7.908   1.202 -4.5548  0.2739  1.3920
  378MOL0     H51019   1.374   8.055   1.261  0.0636  1.2035 -0.2480
  378MOL0     H51020   1.540   7.984   1.419 -0.5827 -0.3962 -0.1537
  378MOL0     H51021   1.577   8.136   1.352 -0.4607 -0.2122  1.8256
  378MOL0     H51022   1.748   8.034   1.210  0.3392 -0.3379  1.8968
  378MOL0     H51023   1.706   7.857   1.257 -1.4857 -0.1930 -0.5889
  378MOL0     H51024   1.854   8.065   1.419  1.4243 -1.3277  3.4496
  378MOL0     H51025   1.748   7.944   1.479 -5.5538  3.7640 -2.9450
  378MOL0     H51026   2.067   7.685   1.369 -0.5919  0.1995 -2.3031
  378MOL0     H51027   1.292   7.913   1.078  1.3001  0.0576  0.9715
  378MOL0     H51028   1.109   7.815   0.987 -0.1937 -0.9441 -1.5512
  378MOL0     H51029   1.021   7.888   0.873 -0.6871  0.0193 -0.4090
  378MOL0     H51030   1.162   7.787   0.815  2.5844  1.3381 -0.0936
  379MOL0     O51031   7.045  10.151   1.460 -0.6624  0.3021 -0.2308
  379MOL0     C51032   6.979  10.071   1.516 -0.0828  0.2085  0.0941
  379MOL0     O51033   6.973   9.942   1.491  0.3356  0.3410 -0.4770
  379MOL0     C51034   7.005   9.899   1.364  0.7907  0.0112  1.2789
  379MOL0     C51035   6.916   9.905   1.257  0.3431 -0.0822 -0.3164
  379MOL0     C51036   6.953   9.838   1.140  0.1442  0.2381  0.8777
  379MOL0     C51037   7.078   9.798   1.104  0.0704  0.4641 -1.2478
  379MOL0     O51038   7.097   9.746   0.975  0.1506  0.5881 -0.7112
  379MOL0     C51039   7.230   9.756   0.921  0.1245 -0.1463  0.1108
  379MOL0     C51040   7.234   9.730   0.769  0.2870 -0.1317 -0.3666
  379MOL0     C51041   7.379   9.735   0.704 -0.3158  0.3054 -0.2387
  379MOL0     C51042   7.464   9.850   0.753 -0.9087 -0.7788 -0.4690
  379MOL0     C51043   7.579   9.877   0.663 -0.1563  0.6244 -0.7830
  379MOL0     C51044   7.696   9.976   0.713 -0.0142  0.4754 -0.7129
  379MOL0     C51045   7.648  10.116   0.716 -0.0603 -1.0067 -0.4021
  379MOL0     C51046   7.621  10.171   0.584 -0.3763  0.3170  0.6843
  379MOL0     N51047   7.727  10.151   0.480  0.8193 -0.2114  0.2938
  379MOL0     C51048   7.719  10.104   0.345  0.7529  0.3136 -0.2372
  379MOL0     C51049   7.839  10.139   0.289 -0.3255  0.6430  0.1551
  379MOL0     C51050   7.880  10.092   0.152 -0.1347  0.5244  0.5311
  379MOL0     C51051   7.854   9.939   0.143 -0.4437 -0.1924  1.5530
  379MOL0     C51052   7.889   9.892  -0.007  0.4490  0.2995 -0.9078
  379MOL0     C51053   7.909   9.747  -0.014  0.0305 -0.4557 -0.2485
  379MOL0     O51054   7.808   9.658   0.028 -0.6230  0.9353 -0.0608
  379MOL0     C51055   7.700   9.635  -0.045 -0.2721 -0.7212  0.4812
  379MOL0     C51056   7.662   9.693  -0.165  0.0313  0.0275 -1.1463
  379MOL0     C51057   7.552   9.643  -0.232  0.3819 -0.0087 -0.1559
  379MOL0     C51058   7.491   9.526  -0.189  0.5682 -0.1604  0.8463
  379MOL0     C51059   7.384   9.462  -0.272  0.0997 -0.0625 -0.7407
  379MOL0     O51060   7.354   9.510  -0.399  0.1054 -0.5484 -0.8748
  379MOL0     C51061   7.295   9.424  -0.490 -0.4217  0.2188 -0.1946
  379MOL0     C51062   7.335   9.291  -0.503 -0.4521  0.1660  0.0609
  379MOL0     C51063   7.271   9.211  -0.600  0.1526 -0.5172  0.5861
  379MOL0     C51064   7.159   9.259  -0.680  0.2721  0.5209 -0.2973
  379MOL0     O51065   7.089   9.176  -0.771 -0.3677  0.5434 -0.5826
  379MOL0     C51066   6.954   9.191  -0.789  0.3775  0.0204 -0.0969
  379MOL0     C51067   6.893   9.052  -0.832 -0.1935 -0.6671  0.9973
  379MOL0     C51068   6.740   9.064  -0.882 -0.0066  0.1379 -0.2396
  379MOL0     C51069   6.681   8.923  -0.927  0.8498  0.0644 -1.0866
  379MOL0     C51070   6.530   8.907  -0.924 -0.7593  0.6258 -0.2330
  379MOL0     C51071   6.475   9.019  -1.000  0.1026  0.5608  1.2829
  379MOL0     C51072   6.332   9.005  -1.014  0.2958  0.8836 -0.0262
  379MOL0     C51073   6.249   8.978  -0.884 -0.0279 -1.4090 -0.3080
  379MOL0    Cl51074   6.273   9.104  -0.757  0.3476 -0.2950  0.2734
  379MOL0     C51075   7.112   9.394  -0.659 -0.5120 -1.2693 -1.3603
  379MOL0     C51076   7.188   9.481  -0.572 -0.1147  0.4239  0.6760
  379MOL0     O51077   7.311   9.373  -0.224  0.2650 -0.4407 -1.1147
  379MOL0     C51078   7.541   9.459  -0.081 -1.0860 -0.9857  0.3295
  379MOL0     C51079   7.634   9.523  -0.005  0.3115  0.1197 -0.5948
  379MOL0     N51080   7.921  10.177   0.395 -0.3343  0.0005 -0.0745
  379MOL0     N51081   7.862  10.179   0.513  0.2043  0.3376 -0.9639
  379MOL0     C51082   7.171   9.815   1.202  0.1675 -1.0173 -0.7364
  379MOL0     C51083   7.138   9.850   1.333  0.3067  0.7811  0.7867
  379MOL0     C51084   6.911  10.123   1.631  0.4033 -0.2406  0.0100
  379MOL0     C51085   6.990  10.181   1.743  0.4129  0.4343 -0.0555
  379MOL0     C51086   6.912  10.249   1.846 -0.4875 -0.8785  0.3451
  379MOL0     C51087   6.775  10.231   1.861 -0.6071 -0.3333 -0.9900
  379MOL0     O51088   6.713  10.315   1.956  0.5315  0.6129  0.6461
  379MOL0     C51089   6.608  10.259   2.033 -0.5583 -0.4962  0.5414
  379MOL0     C51090   6.527  10.381   2.077  0.1560 -0.1566  0.4147
  379MOL0     C51091   6.385  10.347   2.138  0.0238  0.0018  0.1596
  379MOL0     C51092   6.296  10.471   2.161 -0.0548 -0.1320 -0.3703
  379MOL0     C51093   6.368  10.563   2.247  0.9695  0.5467 -0.4434
  379MOL0     C51094   6.431  10.653   2.311 -0.0975 -0.0532  0.1500
  379MOL0     C51095   6.716  10.152   1.771 -0.0471  1.0190  1.1548
  379MOL0     C51096   6.779  10.098   1.657  0.3182  0.1534  0.8571
  379MOL0     C51097   6.687  10.024   1.561  0.3401 -0.0648 -0.4129
  379MOL0     H51098   6.819   9.950   1.275  0.4267  0.1689 -0.4862
  379MOL0     H51099   6.884   9.827   1.057  2.6327  0.6127 -1.3698
  379MOL0     H51100   7.262   9.857   0.948  0.3442  0.4124 -2.0462
  379MOL0     H51101   7.296   9.698   0.986  1.1538  1.6452  0.7309
  379MOL0     H51102   7.169   9.805   0.723 -1.0983  0.1622  1.8788
  379MOL0     H51103   7.178   9.640   0.742 -2.2067  1.2862 -0.1844
  379MOL0     H51104   7.373   9.728   0.595  3.3206  1.9222 -0.6980
  379MOL0     H51105   7.430   9.643   0.735  0.1186  1.4258  2.6842
  379MOL0     H51106   7.389   9.930   0.758 -2.9216 -2.6084  1.5167
  379MOL0     H51107   7.505   9.836   0.853 -1.9577 -2.5401 -0.2261
  379MOL0     H51108   7.624   9.777   0.658 -0.6233  0.4810 -2.9268
  379MOL0     H51109   7.546   9.902   0.562  0.0329  0.3274 -0.9209
  379MOL0     H51110   7.727   9.950   0.815 -2.4411 -1.2701 -0.3165
  379MOL0     H51111   7.784   9.971   0.649 -0.3628  1.9143 -1.3455
  379MOL0     H51112   7.725  10.177   0.764 -0.1780 -0.6581 -0.6561
  379MOL0     H51113   7.558  10.119   0.778  0.1617  2.7502 -0.0559
  379MOL0     H51114   7.534  10.126   0.534  0.4022  1.3868 -1.7671
  379MOL0     H51115   7.597  10.276   0.603 -0.8045  0.8904 -2.4191
  379MOL0     H51116   7.643  10.055   0.286  1.5395  2.5747 -3.4089
  379MOL0     H51117   7.827  10.149   0.074 -1.3460 -1.9854 -0.5822
  379MOL0     H51118   7.988  10.102   0.132 -0.0541 -0.0401  0.6749
  379MOL0     H51119   7.921   9.892   0.215  1.2231 -0.4914 -0.1367
  379MOL0     H51120   7.751   9.904   0.159 -0.9173 -1.9277 -3.4428
  379MOL0     H51121   7.978   9.944  -0.042  1.8441  1.0636  3.2275
  379MOL0     H51122   7.808   9.924  -0.073 -1.3416  0.8843  1.3980
  379MOL0     H51123   7.988   9.724   0.059 -1.0194  0.3531  1.2157
  379MOL0     H51124   7.944   9.723  -0.114 -1.4406 -1.4864 -0.5375
  379MOL0     H51125   7.712   9.778  -0.210  1.2228  0.7528  1.3466
  379MOL0     H51126   7.525   9.701  -0.320  2.0353  0.7306 -0.2059
  379MOL0     H51127   7.413   9.248  -0.442 -2.1880 -1.0471  1.5454
  379MOL0     H51128   7.324   9.116  -0.603 -1.3780 -1.6246  3.7172
  379MOL0     H51129   6.909   9.232  -0.699 -0.2303 -1.1192  0.1359
  379MOL0     H51130   6.941   9.261  -0.872 -0.5824 -2.1572 -1.8911
  379MOL0     H51131   6.966   9.021  -0.907  3.8952  3.7348  2.6564
  379MOL0     H51132   6.914   8.989  -0.745  4.8395  2.3574  2.4146
  379MOL0     H51133   6.683   9.099  -0.796 -1.1042 -0.6869 -0.6061
  379MOL0     H51134   6.727   9.145  -0.955 -0.1357  0.3188 -0.0160
  379MOL0     H51135   6.729   8.837  -0.880 -2.1047 -1.8560 -1.3573
  379MOL0     H51136   6.710   8.919  -1.032 -1.4203  0.3857 -1.7714
  379MOL0     H51137   6.485   8.913  -0.824 -0.9202 -1.5329 -0.1211
  379MOL0     H51138   6.509   8.808  -0.967 -0.2394  1.4115 -2.4290
  379MOL0     H51139   6.490   9.115  -0.950  0.9193  0.9184  0.3812
  379MOL0     H51140   6.520   9.016  -1.100 -1.6431  3.5579  0.3135
  379MOL0     H51141   6.299   8.923  -1.079  0.0219  1.7882 -1.0574
  379MOL0     H51142   6.297   9.098  -1.061  1.9622  0.4753 -2.2110
  379MOL0     H51143   6.145   8.984  -0.915 -0.1224  2.4828  0.3817
  379MOL0     H51144   6.273   8.877  -0.848 -0.2170 -1.9384 -1.6016
  379MOL0     H51145   7.017   9.415  -0.708 -1.0428 -0.7556 -0.1576
  379MOL0     H51146   7.155   9.582  -0.553 -0.0016  1.1753 -2.5145
  379MOL0     H51147   7.526   9.356  -0.048  1.1473 -0.8144  2.1766
  379MOL0     H51148   7.685   9.475   0.079  2.4113  0.3864 -1.6481
  379MOL0     H51149   7.275   9.813   1.170  0.5042  1.2890  0.0146
  379MOL0     H51150   7.216   9.852   1.408  2.4721  0.1055 -1.3052
  379MOL0     H51151   7.096  10.201   1.737  0.6138 -0.0435  1.4029
  379MOL0     H51152   6.968  10.295   1.927  0.4361  2.6430 -2.0151
  379MOL0     H51153   6.647  10.212   2.124  3.1519  1.7481  0.3176
  379MOL0     H51154   6.538  10.202   1.972  0.5614  0.1589 -1.4633
  379MOL0     H51155   6.507  10.447   1.992  0.7801  1.9434  1.7930
  379MOL0     H51156   6.585  10.445   2.145 -0.1745 -0.9936  1.5164
  379MOL0     H51157   6.405  10.311   2.240  1.3617 -3.4790 -1.1658
  379MOL0     H51158   6.327  10.280   2.075 -1.6723  3.2883 -2.0446
  379MOL0     H51159   6.260  10.522   2.071 -1.1595  0.1056  0.1876
  379MOL0     H51160   6.212  10.432   2.220  0.8498 -2.0808 -0.3119
  379MOL0     H51161   6.465  10.725   2.382 -0.1387  1.3927 -1.2436
  379MOL0     H51162   6.613  10.134   1.801 -1.0062 -1.6441 -2.8676
  379MOL0     H51163   6.592  10.071   1.585  0.1136 -1.3986  1.5031
  379MOL0     H51164   6.723  10.056   1.463 -2.1542  1.0328 -1.0455
  379MOL0     H51165   6.681   9.916   1.572 -1.1030  0.1880  1.9207
  380MOL0     O51166   5.422   1.374   7.892 -0.2970 -0.3965  0.0002
  380MOL0     C51167   5.494   1.286   7.847  0.0351 -0.3383  0.4665
  380MOL0     O51168   5.619   1.314   7.794  0.3044  0.5781  0.2222
  380MOL0     C51169   5.660   1.444   7.775  0.1685 -0.3177 -0.3705
  380MOL0     C51170   5.724   1.517   7.878  0.9643 -0.7728 -0.5442
  380MOL0     C51171   5.770   1.641   7.842 -0.9712 -0.9181  0.0800
  380MOL0     C51172   5.758   1.700   7.717  0.5141  0.3537 -0.1536
  380MOL0     O51173   5.784   1.833   7.711  0.4377 -0.0577  0.6295
  380MOL0     C51174   5.746   1.901   7.588  0.4261  0.9977 -0.0205
  380MOL0     C51175   5.773   2.055   7.613  0.0210  0.3432  0.7164
  380MOL0     C51176   5.742   2.109   7.470 -0.1781  0.5415 -0.7132
  380MOL0     C51177   5.745   2.263   7.490 -0.2537 -0.3029 -0.1281
  380MOL0     C51178   5.720   2.347   7.358 -0.3131 -0.5437  0.8543
  380MOL0     C51179   5.695   2.490   7.407  0.0363 -0.4389 -0.6585
  380MOL0     C51180   5.720   2.600   7.299 -0.8195  0.8820  0.0910
  380MOL0     C51181   5.869   2.647   7.284  0.4737 -0.5731  0.7755
  380MOL0     N51182   5.886   2.719   7.153  0.7950  1.0074  0.1743
  380MOL0     C51183   5.861   2.844   7.120 -0.1697 -0.3121 -0.4012
  380MOL0     C51184   5.908   2.860   6.996  0.3055  0.6650  1.3497
  380MOL0     C51185   5.893   2.967   6.901 -0.1790 -0.3763  0.2037
  380MOL0     C51186   5.748   2.995   6.876  0.5013 -0.3859 -0.1423
  380MOL0     C51187   5.645   2.879   6.868 -0.7955  0.1657  0.3333
  380MOL0     C51188   5.664   2.758   6.777  0.0092  0.2683 -0.5437
  380MOL0     O51189   5.656   2.810   6.647  0.7995  0.3623 -0.6425
  380MOL0     C51190   5.602   2.742   6.539 -0.4048 -0.3564  0.7465
  380MOL0     C51191   5.517   2.631   6.543 -0.0922  0.5155 -0.6560
  380MOL0     C51192   5.473   2.562   6.426 -0.6043  0.2954  0.1588
  380MOL0     C51193   5.524   2.624   6.305  0.2802  1.7060  1.3600
  380MOL0     C51194   5.481   2.562   6.179 -0.3741 -0.4397 -0.3678
  380MOL0     O51195   5.379   2.476   6.198  0.6308 -0.1230 -0.1484
  380MOL0     C51196   5.346   2.384   6.103  0.3007 -0.3103 -0.5652
  380MOL0     C51197   5.260   2.405   5.988  0.3386 -0.1638 -0.1168
  380MOL0     C51198   5.251   2.305   5.889 -0.2404  0.1807 -1.0367
  380MOL0     C51199   5.275   2.173   5.920  0.1524  1.0479  0.4645
  380MOL0     O51200   5.246   2.067   5.834 -0.3964  0.0855 -0.5130
  380MOL0     C51201   5.154   2.075   5.725  0.1070  0.0353 -0.0673
  380MOL0     C51202   5.125   1.932   5.683  0.9126 -0.4898 -0.4852
  380MOL0     C51203   5.030   1.961   5.563  0.5192  0.2424 -1.0506
  380MOL0     C51204   4.925   1.845   5.545  0.0616  0.5868 -0.2962
  380MOL0     C51205   4.826   1.862   5.426  0.7250 -0.3986  0.2658
  380MOL0     C51206   4.739   1.733   5.409  0.8190  0.5498  0.0963
  380MOL0     C51207   4.812   1.596   5.420 -0.8215 -0.3362 -0.1029
  380MOL0     C51208   4.911   1.588   5.300 -0.2284  0.2515 -0.2262
  380MOL0    Cl51209   5.014   1.444   5.339 -0.4967  0.3816 -0.2002
  380MOL0     C51210   5.352   2.154   6.041  0.7270 -0.9721  0.0602
  380MOL0     C51211   5.384   2.258   6.122 -0.0708  0.2946  0.1185
  380MOL0     O51212   5.533   2.592   6.068  1.1378  0.2548 -0.1787
  380MOL0     C51213   5.609   2.738   6.294 -0.3633  0.9820 -0.1239
  380MOL0     C51214   5.644   2.796   6.417  0.7988 -1.2378  1.6851
  380MOL0     N51215   5.954   2.738   6.961  0.8123  0.1733  0.9823
  380MOL0     N51216   5.937   2.649   7.049 -0.1761 -0.6456  0.8192
  380MOL0     C51217   5.704   1.620   7.612  0.0433  0.0501 -0.1427
  380MOL0     C51218   5.647   1.504   7.651  1.0948 -0.1034  0.5436
  380MOL0     C51219   5.454   1.147   7.838  0.7561 -0.7289 -0.0345
  380MOL0     C51220   5.554   1.048   7.862 -0.1706  0.0356  0.6283
  380MOL0     C51221   5.516   0.908   7.854  0.0656 -1.2467  0.9649
  380MOL0     C51222   5.388   0.869   7.829  0.1206 -0.5760 -0.5203
  380MOL0     O51223   5.355   0.731   7.820  0.0748  0.1572 -0.3610
  380MOL0     C51224   5.250   0.699   7.732  0.5228  0.1622  0.6322
  380MOL0     C51225   5.117   0.689   7.807  0.3563 -0.2176  0.4892
  380MOL0     C51226   5.073   0.542   7.829  0.5192  0.1168 -0.6043
  380MOL0     C51227   5.031   0.480   7.698 -0.9102  0.2834 -0.1800
  380MOL0     C51228   4.982   0.342   7.716  1.3310 -0.1778 -0.9402
  380MOL0     C51229   4.943   0.230   7.740  0.2160 -0.6874 -0.5251
  380MOL0     C51230   5.290   0.976   7.804 -0.2149  0.1202 -0.2896
  380MOL0     C51231   5.321   1.111   7.807 -0.8215 -0.0597 -0.1830
  380MOL0     C51232   5.208   1.209   7.786 -0.0813  0.0958 -0.3621
  380MOL0     H51233   5.727   1.485   7.982 -2.5699  1.6885  0.4709
  380MOL0     H51234   5.825   1.702   7.913 -1.0438  1.4445 -1.7681
  380MOL0     H51235   5.813   1.861   7.511  1.1841 -2.5580  2.2592
  380MOL0     H51236   5.644   1.887   7.551  0.8514  3.3236 -2.3605
  380MOL0     H51237   5.874   2.080   7.645  0.1154 -2.1117  2.6406
  380MOL0     H51238   5.692   2.095   7.676 -2.8366 -0.0424 -2.3817
  380MOL0     H51239   5.644   2.080   7.431 -0.2078  1.5118 -1.3826
  380MOL0     H51240   5.813   2.088   7.390  0.3041  2.2695 -0.7619
  380MOL0     H51241   5.673   2.294   7.567 -2.1839  3.6951 -3.1651
  380MOL0     H51242   5.839   2.297   7.535 -1.5020  3.2797  0.1273
  380MOL0     H51243   5.812   2.351   7.300  0.6049  2.4584  2.2945
  380MOL0     H51244   5.645   2.301   7.293 -2.0307  2.0437  0.8472
  380MOL0     H51245   5.591   2.487   7.440  0.8702  1.1840  2.4804
  380MOL0     H51246   5.754   2.504   7.498  0.4886 -0.6420 -0.9134
  380MOL0     H51247   5.651   2.683   7.320  1.3164  2.3376  1.8558
  380MOL0     H51248   5.686   2.563   7.202  0.6299 -2.1531  0.6357
  380MOL0     H51249   5.904   2.712   7.364  2.0652  2.9121 -2.4818
  380MOL0     H51250   5.943   2.567   7.270  1.6845  0.8772 -1.7614
  380MOL0     H51251   5.800   2.917   7.172 -0.1493 -1.8521  1.9131
  380MOL0     H51252   5.938   3.056   6.945 -2.2111  0.0233  1.6119
  380MOL0     H51253   5.951   2.938   6.812  1.5636 -1.0999  1.5213
  380MOL0     H51254   5.709   3.064   6.951  2.4115  1.4092 -0.7041
  380MOL0     H51255   5.735   3.056   6.787 -0.6439 -1.1567 -0.5280
  380MOL0     H51256   5.555   2.926   6.828  0.1953 -0.1472 -2.4912
  380MOL0     H51257   5.630   2.851   6.973 -2.3270  1.0112  0.3672
  380MOL0     H51258   5.584   2.686   6.798 -0.8271  1.8113  1.9007
  380MOL0     H51259   5.759   2.710   6.802 -1.2125 -1.9407  0.1978
  380MOL0     H51260   5.475   2.604   6.640 -0.3105  0.3861 -0.7863
  380MOL0     H51261   5.418   2.470   6.439  1.3930 -1.0057 -0.2417
  380MOL0     H51262   5.208   2.499   5.972  3.0618  1.1866 -1.5445
  380MOL0     H51263   5.202   2.331   5.796 -0.0955  1.1053 -0.8624
  380MOL0     H51264   5.062   2.128   5.750 -1.8270 -2.7466 -0.7621
  380MOL0     H51265   5.203   2.126   5.642  0.4526 -4.9627 -3.3706
  380MOL0     H51266   5.218   1.885   5.650  1.1472  0.2986 -0.9658
  380MOL0     H51267   5.074   1.883   5.767  2.0881 -3.3750 -1.3596
  380MOL0     H51268   4.973   2.054   5.575  1.3989  0.5289  1.6134
  380MOL0     H51269   5.096   1.970   5.476 -0.3594  0.3784 -1.7115
  380MOL0     H51270   4.866   1.822   5.634  0.5470  0.2944 -0.0463
  380MOL0     H51271   4.974   1.748   5.540 -3.3027 -1.2368 -0.9824
  380MOL0     H51272   4.878   1.888   5.334  1.5421 -1.7986  0.2985
  380MOL0     H51273   4.760   1.945   5.454 -0.9737 -1.1786 -1.2238
  380MOL0     H51274   4.659   1.737   5.484  0.8093  0.0063  0.1185
  380MOL0     H51275   4.684   1.724   5.316 -0.5254 -6.3601  1.0391
  380MOL0     H51276   4.748   1.508   5.410 -0.0662 -0.7677 -1.3686
  380MOL0     H51277   4.871   1.585   5.511  0.0480  1.8037 -0.3329
  380MOL0     H51278   4.855   1.556   5.212 -3.4317 -0.7544  2.0025
  380MOL0     H51279   4.964   1.679   5.270 -2.4255  1.7134  0.1098
  380MOL0     H51280   5.391   2.058   6.073 -1.6148 -1.8235  0.5948
  380MOL0     H51281   5.447   2.242   6.209 -0.2976  1.1476  0.4509
  380MOL0     H51282   5.655   2.757   6.198 -1.4318 -2.9163 -1.6320
  380MOL0     H51283   5.693   2.893   6.408 -1.0545 -0.4691 -2.3949
  380MOL0     H51284   5.684   1.654   7.511 -1.0641 -0.2544 -0.0362
  380MOL0     H51285   5.595   1.445   7.576 -1.0645  0.1412  1.7826
  380MOL0     H51286   5.660   1.064   7.879  0.6363 -0.9148 -2.8015
  380MOL0     H51287   5.584   0.827   7.880  1.9264 -0.1443 -0.2156
  380MOL0     H51288   5.279   0.612   7.672  0.4169 -1.4061  2.7388
  380MOL0     H51289   5.239   0.764   7.645 -4.8146  0.4570  1.1447
  380MOL0     H51290   5.043   0.748   7.754  1.1563  2.4624  2.1763
  380MOL0     H51291   5.123   0.743   7.902 -1.6114  0.5652  0.2101
  380MOL0     H51292   4.991   0.544   7.901  1.7724  1.1274  0.8508
  380MOL0     H51293   5.154   0.490   7.880 -0.9276 -2.2465 -0.5519
  380MOL0     H51294   4.950   0.533   7.647 -2.1613 -1.9839 -0.6809
  380MOL0     H51295   5.123   0.466   7.639  2.1070  0.4140  4.0286
  380MOL0     H51296   4.918   0.129   7.763 -1.9249 -0.3153 -0.9877
  380MOL0     H51297   5.191   0.951   7.769 -1.1981  4.0824 -0.7737
  380MOL0     H51298   5.218   1.250   7.685 -0.7669  1.2424  0.0081
  380MOL0     H51299   5.108   1.165   7.796  0.2448 -0.7133 -0.6131
  380MOL0     H51300   5.220   1.284   7.865 -1.9508  1.7095 -1.5339
  381MOL0     O51301   3.881   8.699   0.718  0.0251  0.1804 -0.0616
  381MOL0     C51302   3.990   8.732   0.761 -0.3268 -0.9399  0.1601
  381MOL0     O51303   4.023   8.788   0.890  0.3084  0.6963 -0.6151
  381MOL0     C51304   3.920   8.835   0.965 -0.2081  0.8887  0.7146
  381MOL0     C51305   3.909   8.972   1.001  0.1196 -0.2140 -0.3008
  381MOL0     C51306   3.789   9.016   1.072  0.0337  0.6542 -0.4780
  381MOL0     C51307   3.690   8.924   1.100  0.6677  0.0697  1.0970
  381MOL0     O51308   3.577   8.959   1.157  0.2651  0.1376 -0.4666
  381MOL0     C51309   3.583   9.000   1.301 -0.6912  0.5930  0.6638
  381MOL0     C51310   3.458   8.942   1.363 -0.7344  0.6247 -0.0748
  381MOL0     C51311   3.353   9.057   1.361  0.8711  0.0327 -0.1103
  381MOL0     C51312   3.219   9.036   1.433 -0.0366  0.8789 -0.0072
  381MOL0     C51313   3.109   9.101   1.358 -1.0924  0.3029  1.5479
  381MOL0     C51314   2.969   9.064   1.403  0.3929 -0.3968  0.2499
  381MOL0     C51315   2.860   9.133   1.318  0.3030  0.9565 -0.1790
  381MOL0     C51316   2.715   9.116   1.371  0.3294 -0.2431 -0.0870
  381MOL0     N51317   2.672   8.976   1.413 -0.9160  0.2757  0.4316
  381MOL0     C51318   2.642   8.883   1.316 -0.4403 -1.1115 -0.1886
  381MOL0     C51319   2.567   8.800   1.386 -0.4311  0.3663 -1.2010
  381MOL0     C51320   2.496   8.675   1.328 -0.1109  0.4337  0.3606
  381MOL0     C51321   2.409   8.715   1.208  0.7943  0.2918 -0.3807
  381MOL0     C51322   2.285   8.803   1.250 -0.6081  0.3562 -0.5402
  381MOL0     C51323   2.186   8.861   1.158  0.6376  0.3883 -0.7719
  381MOL0     O51324   2.136   8.745   1.076 -0.2964 -0.2251  0.3736
  381MOL0     C51325   2.042   8.773   0.979  0.6878  0.9794 -0.6862
  381MOL0     C51326   1.965   8.669   0.924  0.2524  1.2826 -0.0934
  381MOL0     C51327   1.859   8.687   0.834  0.1699  0.0903  1.3723
  381MOL0     C51328   1.836   8.819   0.786  0.4565 -0.3062 -0.4124
  381MOL0     C51329   1.735   8.847   0.681  0.0582  1.1629 -0.9537
  381MOL0     O51330   1.705   8.974   0.641 -0.7552 -0.2837 -0.8234
  381MOL0     C51331   1.619   8.993   0.542  0.1702 -0.7585 -0.0879
  381MOL0     C51332   1.605   8.925   0.419  0.2094 -0.6978 -0.1622
  381MOL0     C51333   1.517   8.958   0.323 -0.6525  0.2399 -0.2914
  381MOL0     C51334   1.437   9.074   0.327  0.2324  0.2141  0.3856
  381MOL0     O51335   1.380   9.113   0.208  0.2283 -0.4857 -0.3175
  381MOL0     C51336   1.264   9.189   0.215  0.1639 -0.1865 -0.3103
  381MOL0     C51337   1.167   9.134   0.100  0.7680 -0.8789 -0.6258
  381MOL0     C51338   1.049   9.226   0.096 -0.4457 -0.7430 -0.2401
  381MOL0     C51339   0.925   9.152   0.040 -0.0974  0.0234 -0.6712
  381MOL0     C51340   0.807   9.265   0.034  0.3802 -0.4244  0.8506
  381MOL0     C51341   0.663   9.203   0.052 -0.8233 -0.0675  0.3323
  381MOL0     C51342   0.559   9.314   0.055 -0.0605  0.1308 -0.8915
  381MOL0     C51343   0.467   9.306  -0.064  0.9335 -0.3127 -0.0051
  381MOL0    Cl51344   0.344   9.439  -0.056 -0.2022  0.4379  0.4435
  381MOL0     C51345   1.440   9.145   0.446  0.4668 -0.6342 -0.3925
  381MOL0     C51346   1.526   9.104   0.555  0.6003 -0.0654 -0.0657
  381MOL0     O51347   1.680   8.743   0.637  0.3079 -0.1617  0.2321
  381MOL0     C51348   1.925   8.913   0.827  0.2305  0.3147  0.7136
  381MOL0     C51349   2.022   8.891   0.921 -0.2290 -0.1948 -0.5605
  381MOL0     N51350   2.572   8.832   1.516  0.8055  0.4128 -0.7618
  381MOL0     N51351   2.647   8.936   1.540 -0.0782  1.5760 -0.7057
  381MOL0     C51352   3.705   8.789   1.064 -0.4223 -1.0690 -0.6393
  381MOL0     C51353   3.817   8.750   0.993 -0.3284  0.5003 -1.0918
  381MOL0     C51354   4.106   8.718   0.666  0.3444 -0.0070 -0.3398
  381MOL0     C51355   4.087   8.775   0.534 -0.8875 -0.2045  0.2506
  381MOL0     C51356   4.192   8.756   0.443 -0.1715  1.0094  0.7751
  381MOL0     C51357   4.297   8.662   0.478  1.1079 -0.2258 -1.1086
  381MOL0     O51358   4.405   8.647   0.406 -0.3238 -0.8214 -0.5674
  381MOL0     C51359   4.442   8.741   0.287 -0.3499 -0.1729 -0.2694
  381MOL0     C51360   4.587   8.709   0.251  1.1688 -0.3729  0.1279
  381MOL0     C51361   4.629   8.557   0.221 -0.0097 -0.4013 -0.2780
  381MOL0     C51362   4.672   8.487   0.340 -0.9355  1.0166 -1.1097
  381MOL0     C51363   4.811   8.536   0.379  0.6253 -0.0604 -0.1576
  381MOL0     C51364   4.928   8.579   0.390  0.3397  0.2269  0.3649
  381MOL0     C51365   4.297   8.587   0.599 -0.1016 -0.3537  0.6514
  381MOL0     C51366   4.205   8.621   0.698  0.0924 -1.0680  0.6392
  381MOL0     C51367   4.217   8.550   0.824 -0.8314 -0.4991  0.2144
  381MOL0     H51368   3.994   9.036   0.977  0.0537  0.0075  0.0392
  381MOL0     H51369   3.779   9.115   1.115  1.5399 -0.1706  1.9778
  381MOL0     H51370   3.674   8.953   1.339 -1.0414  0.2460  1.0883
  381MOL0     H51371   3.595   9.108   1.309 -1.1261  0.8466 -1.4775
  381MOL0     H51372   3.470   8.921   1.469 -2.8300 -0.6084 -0.0376
  381MOL0     H51373   3.435   8.847   1.314  0.0179  0.3742  0.0344
  381MOL0     H51374   3.327   9.070   1.256  0.8391 -0.1235 -0.1227
  381MOL0     H51375   3.405   9.144   1.402 -0.4380  0.7287  0.1210
  381MOL0     H51376   3.204   8.927   1.429 -0.2714  0.9518 -2.4543
  381MOL0     H51377   3.228   9.073   1.536 -2.8072  2.9725 -0.4024
  381MOL0     H51378   3.114   9.210   1.371 -1.6190  0.0284  4.6457
  381MOL0     H51379   3.117   9.084   1.250 -0.5507  1.2455  1.4217
  381MOL0     H51380   2.957   8.956   1.393 -0.0623 -0.4408  1.1779
  381MOL0     H51381   2.966   9.087   1.509  3.8673 -1.6667  0.7551
  381MOL0     H51382   2.863   9.096   1.215 -1.4096  0.7902 -0.1969
  381MOL0     H51383   2.889   9.236   1.297  3.5877  0.2934  0.5148
  381MOL0     H51384   2.700   9.182   1.456 -2.1802  0.5289 -1.0226
  381MOL0     H51385   2.649   9.151   1.291  1.6389  0.3972 -0.9019
  381MOL0     H51386   2.671   8.872   1.212  0.6386  0.7880 -0.1190
  381MOL0     H51387   2.563   8.600   1.285 -4.1743 -1.7484 -2.8845
  381MOL0     H51388   2.441   8.625   1.408 -1.2307 -1.8527 -1.7034
  381MOL0     H51389   2.474   8.759   1.131 -2.0433  1.5838 -2.2147
  381MOL0     H51390   2.363   8.624   1.170 -1.2994  0.4378  1.6065
  381MOL0     H51391   2.326   8.872   1.324  1.4096  1.3489 -2.4698
  381MOL0     H51392   2.226   8.732   1.308 -1.1265  1.0876 -0.1503
  381MOL0     H51393   2.245   8.926   1.093  2.0776 -1.8755 -1.8771
  381MOL0     H51394   2.108   8.915   1.211  2.2626  2.2942 -0.1991
  381MOL0     H51395   2.002   8.572   0.956  1.0985 -0.0665 -4.5005
  381MOL0     H51396   1.799   8.603   0.800 -2.1859  2.0188  0.4536
  381MOL0     H51397   1.659   8.831   0.410 -0.7498 -1.4905  1.6710
  381MOL0     H51398   1.518   8.888   0.241 -4.9770  0.4911 -0.7974
  381MOL0     H51399   1.222   9.184   0.316 -1.0141  1.7686 -0.6438
  381MOL0     H51400   1.293   9.291   0.187  2.3150 -1.3244 -2.5645
  381MOL0     H51401   1.220   9.131   0.005  0.6323  1.2264 -0.8046
  381MOL0     H51402   1.133   9.031   0.115 -4.1910  0.4352 -1.1796
  381MOL0     H51403   1.023   9.257   0.198 -1.7082  0.4438 -0.8858
  381MOL0     H51404   1.075   9.314   0.036  1.3587  0.0305  1.5422
  381MOL0     H51405   0.889   9.070   0.102 -1.6528 -0.4666 -2.1580
  381MOL0     H51406   0.956   9.121  -0.061  1.1721 -2.2963  0.3600
  381MOL0     H51407   0.808   9.317  -0.062  1.4054  0.2850  1.2404
  381MOL0     H51408   0.834   9.338   0.111  1.2639 -2.0410  2.1631
  381MOL0     H51409   0.652   9.132  -0.030  1.2895  2.2626 -2.2004
  381MOL0     H51410   0.655   9.144   0.143  2.7246 -3.1731 -1.0774
  381MOL0     H51411   0.600   9.415   0.047 -1.5295  0.6251 -2.8186
  381MOL0     H51412   0.503   9.301   0.148  0.4240 -1.5418 -0.8047
  381MOL0     H51413   0.517   9.318  -0.161 -2.6099 -1.7141 -2.2601
  381MOL0     H51414   0.421   9.207  -0.060  0.2466  0.0260  0.6645
  381MOL0     H51415   1.397   9.245   0.454 -1.4307 -1.4229 -0.4302
  381MOL0     H51416   1.525   9.168   0.643 -2.0604  0.7449 -0.6004
  381MOL0     H51417   1.910   9.015   0.793 -0.0953  0.5372  1.5006
  381MOL0     H51418   2.074   8.979   0.955 -3.1970  1.7839 -0.7445
  381MOL0     H51419   3.633   8.717   1.101  0.8119 -1.0926  1.9293
  381MOL0     H51420   3.812   8.647   0.959 -0.0866  0.6690 -1.6616
  381MOL0     H51421   4.002   8.835   0.503  1.8027  1.6313 -4.6845
  381MOL0     H51422   4.192   8.814   0.351  1.4968  2.7435  1.7951
  381MOL0     H51423   4.430   8.847   0.309 -4.7001 -0.3832 -0.6833
  381MOL0     H51424   4.378   8.714   0.203  1.2235 -0.4748 -1.4147
  381MOL0     H51425   4.644   8.750   0.336 -4.2234  2.1789  3.0069
  381MOL0     H51426   4.609   8.763   0.159  1.4125 -3.1690 -1.5719
  381MOL0     H51427   4.713   8.559   0.152 -0.8032  2.4206 -1.3037
  381MOL0     H51428   4.537   8.526   0.169 -0.1217 -0.9566  0.2439
  381MOL0     H51429   4.615   8.504   0.432  1.7410  0.4697  0.7698
  381MOL0     H51430   4.681   8.380   0.323  0.5884  0.4316  2.4195
  381MOL0     H51431   5.023   8.628   0.385  0.3719  0.0499 -2.2771
  381MOL0     H51432   4.383   8.522   0.610 -0.3181 -0.9388 -0.8049
  381MOL0     H51433   4.156   8.460   0.830  0.3910 -1.3629 -0.0869
  381MOL0     H51434   4.321   8.518   0.838  0.1986  3.2917  2.8586
  381MOL0     H51435   4.190   8.611   0.911 -2.1268  3.3140 -2.5537
  382MOL0     O51436   0.088  10.703   3.687  0.8339  0.4919  0.2015
  382MOL0     C51437   0.021  10.605   3.657 -0.3315  0.0707 -0.2871
  382MOL0     O51438   0.066  10.479   3.665 -0.1428  0.0783 -0.2515
  382MOL0     C51439   0.197  10.464   3.699  0.9694 -0.3826 -0.2262
  382MOL0     C51440   0.239  10.440   3.831  0.9765  0.4987 -0.7651
  382MOL0     C51441   0.377  10.432   3.864 -0.2431  0.0831  1.0361
  382MOL0     C51442   0.467  10.445   3.755  0.6692 -0.0931  0.2559
  382MOL0     O51443   0.594  10.458   3.807  0.0501 -0.3881  0.0826
  382MOL0     C51444   0.694  10.486   3.709  0.3228  0.0217 -0.2303
  382MOL0     C51445   0.820  10.419   3.766 -0.4673 -0.0242  0.1296
  382MOL0     C51446   0.948  10.440   3.680 -0.0172  0.5394  0.2805
  382MOL0     C51447   1.079  10.423   3.766 -0.7457 -0.1067  0.3285
  382MOL0     C51448   1.196  10.405   3.672  0.2389  0.2089 -0.7216
  382MOL0     C51449   1.332  10.380   3.744  1.1089  0.2537 -0.4773
  382MOL0     C51450   1.431  10.307   3.651 -0.3204 -0.5727 -0.7780
  382MOL0     C51451   1.501  10.409   3.560 -0.7618 -0.6437  0.2687
  382MOL0     N51452   1.641  10.361   3.526 -0.6224 -0.3156  0.0062
  382MOL0     C51453   1.685  10.315   3.402  0.6931 -0.9242 -0.8971
  382MOL0     C51454   1.804  10.254   3.423  0.1605 -0.0174 -1.0654
  382MOL0     C51455   1.891  10.180   3.326 -0.1380 -0.1880 -0.2631
  382MOL0     C51456   2.018  10.262   3.288  0.4146 -0.3393  0.1085
  382MOL0     C51457   2.001  10.413   3.270 -0.0270 -0.2788 -0.2574
  382MOL0     C51458   2.126  10.494   3.240  0.4885 -0.4425  0.7755
  382MOL0     O51459   2.236  10.425   3.300 -0.4212 -0.8479  0.1055
  382MOL0     C51460   2.362  10.460   3.296  0.1792  0.0990 -0.0840
  382MOL0     C51461   2.454  10.373   3.359  0.0279 -0.3934 -0.0405
  382MOL0     C51462   2.587  10.401   3.340  0.6555 -0.3310 -0.9739
  382MOL0     C51463   2.633  10.519   3.279  0.3851  0.1573 -0.6055
  382MOL0     C51464   2.778  10.542   3.257  0.5636 -0.4178 -0.1594
  382MOL0     O51465   2.873  10.455   3.308  0.4373  0.4908 -0.1395
  382MOL0     C51466   3.007  10.492   3.312  0.2421 -0.6464 -0.1047
  382MOL0     C51467   3.108  10.407   3.268 -0.0888  0.0179  0.4307
  382MOL0     C51468   3.233  10.462   3.250 -0.1088 -0.2467 -0.1776
  382MOL0     C51469   3.274  10.591   3.294  0.1979  0.4299  0.0134
  382MOL0     O51470   3.402  10.649   3.293  0.0716 -0.4311  0.4666
  382MOL0     C51471   3.517  10.572   3.306 -0.6261  0.2252 -0.3979
  382MOL0     C51472   3.637  10.671   3.316  0.6341 -0.4798  0.2290
  382MOL0     C51473   3.643  10.770   3.197 -0.1755 -0.6314 -0.9812
  382MOL0     C51474   3.783  10.839   3.190 -0.5228 -1.5082  0.4317
  382MOL0     C51475   3.795  10.926   3.065  0.0383  0.0922 -0.3296
  382MOL0     C51476   3.704  11.047   3.046 -1.1029  0.3709 -0.7759
  382MOL0     C51477   3.737  11.117   2.912  0.9276  0.2654 -0.7183
  382MOL0     C51478   3.877  11.194   2.903  0.2889 -0.1105 -0.2992
  382MOL0    Cl51479   3.865  11.303   2.758 -0.3207 -0.0913 -0.0874
  382MOL0     C51480   3.172  10.668   3.349 -0.2850  0.9073 -0.8574
  382MOL0     C51481   3.044  10.618   3.349  0.3072 -0.3170  0.8662
  382MOL0     O51482   2.800  10.638   3.188  0.3631 -0.1911 -0.0517
  382MOL0     C51483   2.532  10.606   3.232 -0.0991 -0.5991 -0.3093
  382MOL0     C51484   2.399  10.573   3.235 -1.0406 -0.4872  0.4050
  382MOL0     N51485   1.828  10.260   3.563  0.2003 -0.6424 -0.1493
  382MOL0     N51486   1.731  10.325   3.621 -0.7166  0.5954 -0.4828
  382MOL0     C51487   0.421  10.447   3.622  0.4826 -0.4011 -0.5378
  382MOL0     C51488   0.289  10.453   3.595  0.1923 -0.2175 -0.4059
  382MOL0     C51489  -0.096  10.622   3.578 -0.2482  0.8650 -0.9923
  382MOL0     C51490  -0.170  10.740   3.598 -0.0222 -1.3091 -0.6976
  382MOL0     C51491  -0.282  10.761   3.528  0.5182  1.0337  0.2031
  382MOL0     C51492  -0.324  10.675   3.416  0.2914 -0.2233 -0.7009
  382MOL0     O51493  -0.447  10.699   3.347  0.2681 -0.1047 -0.2923
  382MOL0     C51494  -0.422  10.716   3.207 -0.5709  0.2281 -0.3772
  382MOL0     C51495  -0.380  10.857   3.162  0.0706  0.2923 -0.4935
  382MOL0     C51496  -0.474  10.966   3.217  0.1422 -0.1902 -0.2415
  382MOL0     C51497  -0.608  10.990   3.147 -0.4347 -0.2172 -0.2779
  382MOL0     C51498  -0.702  11.081   3.205 -1.0048 -0.5401  0.6837
  382MOL0     C51499  -0.771  11.174   3.245 -0.9663  0.9830 -0.3060
  382MOL0     C51500  -0.261  10.552   3.410  0.2895 -0.4218  0.3462
  382MOL0     C51501  -0.138  10.531   3.478 -0.3223  0.9540 -0.3919
  382MOL0     C51502  -0.069  10.407   3.421  0.5145  0.7433  0.2594
  382MOL0     H51503   0.168  10.440   3.913  1.0804  0.5718 -0.6749
  382MOL0     H51504   0.421  10.415   3.962 -1.9464 -1.1314  1.6462
  382MOL0     H51505   0.677  10.449   3.607 -3.2239 -0.5409  0.4335
  382MOL0     H51506   0.706  10.593   3.689  0.3058  0.2852  1.1085
  382MOL0     H51507   0.809  10.311   3.781 -0.1335  0.0636  1.0706
  382MOL0     H51508   0.844  10.455   3.867  2.6968 -0.9951 -0.1615
  382MOL0     H51509   0.944  10.541   3.640 -0.9149  1.2782  2.1028
  382MOL0     H51510   0.939  10.367   3.599 -1.7918  0.3312  0.6185
  382MOL0     H51511   1.096  10.508   3.833  1.9554 -0.6433  0.4387
  382MOL0     H51512   1.061  10.332   3.825 -1.7446 -2.4803 -3.2872
  382MOL0     H51513   1.170  10.316   3.614 -1.1260 -0.4493  0.8083
  382MOL0     H51514   1.217  10.490   3.606  0.9722  0.0914 -0.6492
  382MOL0     H51515   1.373  10.473   3.784  1.2461  1.5681 -3.4299
  382MOL0     H51516   1.321  10.307   3.825  2.0356 -1.4152 -1.7994
  382MOL0     H51517   1.375  10.231   3.594 -3.7547  1.9431 -1.1075
  382MOL0     H51518   1.513  10.267   3.711  3.1866  3.2922 -2.5155
  382MOL0     H51519   1.446  10.406   3.465  0.0787 -2.3839 -0.2237
  382MOL0     H51520   1.499  10.512   3.594  0.7398 -0.8056  0.9244
  382MOL0     H51521   1.654  10.335   3.300 -0.3810 -4.1771 -1.3371
  382MOL0     H51522   1.919  10.087   3.376 -0.8616 -1.5839 -2.3167
  382MOL0     H51523   1.838  10.149   3.235 -1.8265  3.2688 -0.6096
  382MOL0     H51524   2.109  10.242   3.346  2.4525  2.9963 -1.6468
  382MOL0     H51525   2.047  10.226   3.189  0.0842 -0.3732  0.0249
  382MOL0     H51526   1.940  10.453   3.352  0.7706  1.6912 -0.5692
  382MOL0     H51527   1.942  10.422   3.178  1.5910  0.0293 -1.3076
  382MOL0     H51528   2.114  10.595   3.282 -3.3252 -1.4109  2.4485
  382MOL0     H51529   2.136  10.507   3.132 -1.8007  3.4773  0.8519
  382MOL0     H51530   2.420  10.283   3.407 -0.4693 -0.9040 -1.2978
  382MOL0     H51531   2.654  10.326   3.381 -1.4930 -3.5177 -2.8502
  382MOL0     H51532   3.073  10.310   3.237 -1.5337  0.9200 -0.9323
  382MOL0     H51533   3.306  10.399   3.199  1.0426  0.6773  0.2968
  382MOL0     H51534   3.533  10.499   3.385 -3.6887 -0.8169 -0.5966
  382MOL0     H51535   3.530  10.518   3.211 -0.0044  0.2495 -0.3305
  382MOL0     H51536   3.628  10.725   3.411 -0.9989  1.7836 -1.1007
  382MOL0     H51537   3.728  10.612   3.311  2.6430  2.3485  0.9227
  382MOL0     H51538   3.619  10.732   3.098 -3.3694  2.9227 -1.7899
  382MOL0     H51539   3.558  10.834   3.221 -1.5168 -3.0136  1.1191
  382MOL0     H51540   3.858  10.760   3.192  1.2374  0.0936  1.0999
  382MOL0     H51541   3.797  10.908   3.274  0.8192  0.4519 -1.2794
  382MOL0     H51542   3.794  10.854   2.983 -5.1827  0.4757 -0.9088
  382MOL0     H51543   3.898  10.959   3.085 -0.8845  0.8136  4.1024
  382MOL0     H51544   3.602  11.015   3.068 -0.8624 -0.5835 -0.9834
  382MOL0     H51545   3.728  11.116   3.127  1.9169 -1.1756 -0.2117
  382MOL0     H51546   3.662  11.197   2.913 -0.3987 -0.9049  1.1167
  382MOL0     H51547   3.718  11.044   2.834  0.3724 -1.3712  0.8901
  382MOL0     H51548   3.899  11.256   2.990  0.4254 -0.6179  0.0309
  382MOL0     H51549   3.960  11.125   2.885 -1.9696 -2.9442 -0.6446
  382MOL0     H51550   3.187  10.771   3.379  0.5768  0.5087  0.1159
  382MOL0     H51551   2.971  10.690   3.384 -0.3965 -0.1203 -0.8617
  382MOL0     H51552   2.557  10.701   3.186 -3.3473  0.7570  0.4421
  382MOL0     H51553   2.330  10.637   3.181 -0.4762  2.7293  3.1312
  382MOL0     H51554   0.494  10.442   3.542  1.6931 -1.1306  0.5715
  382MOL0     H51555   0.257  10.465   3.492 -0.4713  0.8675 -0.1031
  382MOL0     H51556  -0.141  10.811   3.675 -1.8046 -0.6395 -0.5955
  382MOL0     H51557  -0.336  10.854   3.534 -1.4079  0.1514 -2.0531
  382MOL0     H51558  -0.510  10.684   3.151  0.8075  1.5579 -3.5527
  382MOL0     H51559  -0.343  10.649   3.172 -0.0371  0.4426  0.3889
  382MOL0     H51560  -0.382  10.859   3.052  2.8871  0.6775 -0.5942
  382MOL0     H51561  -0.276  10.862   3.193  0.0272  0.7712 -0.4322
  382MOL0     H51562  -0.417  11.058   3.199 -4.4247  3.3274  1.1708
  382MOL0     H51563  -0.492  10.954   3.325 -3.1353 -1.7440 -0.8186
  382MOL0     H51564  -0.590  11.045   3.054 -0.1977 -0.3487 -0.3111
  382MOL0     H51565  -0.657  10.893   3.132 -1.6346  0.2448  0.5039
  382MOL0     H51566  -0.832  11.261   3.256  0.1626  1.7255  0.3011
  382MOL0     H51567  -0.310  10.479   3.347  0.5012  1.2128 -1.8398
  382MOL0     H51568   0.036  10.437   3.416  0.3669  1.0798 -2.1634
  382MOL0     H51569  -0.081  10.314   3.478 -0.3806 -0.2417 -1.4297
  382MOL0     H51570  -0.101  10.383   3.319 -0.5894 -1.2160  0.9975
  383MOL0     O51571   6.148   0.525   2.741 -0.4949 -0.3923 -0.0856
  383MOL0     C51572   6.083   0.632   2.740 -0.1625 -0.0612  0.3073
  383MOL0     O51573   6.122   0.747   2.804 -0.4928  0.0736 -0.0102
  383MOL0     C51574   6.248   0.758   2.859  0.4349 -0.0215 -0.2708
  383MOL0     C51575   6.248   0.742   2.994 -1.6662 -0.5822 -0.2382
  383MOL0     C51576   6.373   0.755   3.060 -0.5391 -0.1244 -0.0288
  383MOL0     C51577   6.496   0.777   2.986  0.3906 -0.8414  0.1132
  383MOL0     O51578   6.615   0.783   3.048 -0.3997 -0.3266 -0.5172
  383MOL0     C51579   6.656   0.921   3.075  0.0775 -0.7579  0.4413
  383MOL0     C51580   6.735   0.982   2.955 -0.6773  0.5008  0.5211
  383MOL0     C51581   6.841   0.900   2.886  0.4705  0.3322 -0.1706
  383MOL0     C51582   6.948   0.856   2.986 -0.3237 -0.1281 -0.0895
  383MOL0     C51583   7.040   0.750   2.925 -0.4233  0.0037 -0.0404
  383MOL0     C51584   7.143   0.689   3.021  0.1168 -0.2328 -0.3890
  383MOL0     C51585   7.271   0.636   2.947  1.7160  0.1239 -0.3807
  383MOL0     C51586   7.374   0.570   3.032 -0.3159 -0.1008  0.1368
  383MOL0     N51587   7.337   0.466   3.129  0.4168  0.6371 -0.1022
  383MOL0     C51588   7.317   0.512   3.255  0.3399 -0.1668 -0.3316
  383MOL0     C51589   7.330   0.400   3.325  1.1743 -0.3902 -0.2154
  383MOL0     C51590   7.327   0.393   3.475 -0.8303 -0.2239 -0.3515
  383MOL0     C51591   7.202   0.474   3.541 -0.5434  0.1427  0.0148
  383MOL0     C51592   7.076   0.409   3.481  0.3761  0.0827  0.1792
  383MOL0     C51593   6.941   0.474   3.549 -1.0926  0.0890  0.7885
  383MOL0     O51594   6.960   0.614   3.572  0.1971 -0.8241 -0.1896
  383MOL0     C51595   6.848   0.685   3.593 -0.5545  0.1305 -0.3299
  383MOL0     C51596   6.827   0.718   3.727  0.8335  0.1567  0.3517
  383MOL0     C51597   6.724   0.799   3.761 -0.8828  0.2266  0.0814
  383MOL0     C51598   6.635   0.856   3.662  0.3099 -0.5795 -0.2865
  383MOL0     C51599   6.508   0.915   3.717  0.5165 -0.5101  0.3264
  383MOL0     O51600   6.535   1.030   3.791  0.3649 -0.0573  0.0492
  383MOL0     C51601   6.421   1.103   3.823 -0.1566  1.1019 -0.2378
  383MOL0     C51602   6.305   1.051   3.883  0.7642  0.6414 -0.5263
  383MOL0     C51603   6.194   1.127   3.913 -0.3047 -1.0960  0.1822
  383MOL0     C51604   6.188   1.257   3.860  0.1459 -0.8310  0.8589
  383MOL0     O51605   6.079   1.333   3.892 -0.3855 -0.0993 -0.2536
  383MOL0     C51606   6.094   1.468   3.943  0.4619  0.4947  1.0980
  383MOL0     C51607   5.977   1.511   4.035 -0.4431  0.0674 -0.4654
  383MOL0     C51608   5.841   1.471   3.975 -0.8493  0.1311 -0.9277
  383MOL0     C51609   5.735   1.482   4.078 -1.0815  0.1500  0.6321
  383MOL0     C51610   5.669   1.623   4.062  0.5846 -0.2130 -0.9514
  383MOL0     C51611   5.548   1.642   4.149 -0.2644 -1.5837 -0.8063
  383MOL0     C51612   5.530   1.795   4.188  0.3829  0.0361  0.8550
  383MOL0     C51613   5.504   1.873   4.056 -0.5107  0.4807  0.2419
  383MOL0    Cl51614   5.497   2.042   4.108 -0.4064  0.6157 -0.4639
  383MOL0     C51615   6.300   1.313   3.802  0.0613 -0.1758 -0.2000
  383MOL0     C51616   6.421   1.239   3.796  0.7035 -0.2959  1.0629
  383MOL0     O51617   6.404   0.878   3.665  0.8625  0.2158  0.2117
  383MOL0     C51618   6.673   0.834   3.528  0.4044  0.2067 -0.1004
  383MOL0     C51619   6.775   0.746   3.497  0.3746  0.1809  0.3770
  383MOL0     N51620   7.368   0.293   3.241  0.3577 -0.0739 -0.2659
  383MOL0     N51621   7.370   0.330   3.125 -0.0449 -1.0471 -0.3661
  383MOL0     C51622   6.485   0.773   2.847 -1.2618 -0.5930 -0.2929
  383MOL0     C51623   6.361   0.767   2.780 -0.4958  0.9666 -0.9532
  383MOL0     C51624   5.941   0.635   2.693  1.1439 -0.2864  0.1109
  383MOL0     C51625   5.898   0.719   2.588 -0.3099 -1.2235 -1.0414
  383MOL0     C51626   5.759   0.731   2.559 -0.3077  0.9798 -0.4849
  383MOL0     C51627   5.666   0.641   2.615  0.8958 -0.8042 -0.4633
  383MOL0     O51628   5.530   0.649   2.593 -0.1791  0.0027 -0.1031
  383MOL0     C51629   5.475   0.740   2.501  1.3473 -0.5103 -0.1767
  383MOL0     C51630   5.327   0.714   2.520 -0.0366 -0.6625 -0.8043
  383MOL0     C51631   5.278   0.601   2.430  0.1715  0.3616 -0.0948
  383MOL0     C51632   5.128   0.571   2.433 -0.7712 -0.3874 -0.4527
  383MOL0     C51633   5.108   0.460   2.340  0.2296 -0.2460 -0.0198
  383MOL0     C51634   5.086   0.369   2.266  1.6525 -0.0669  0.0615
  383MOL0     C51635   5.706   0.552   2.710  0.6730  0.6830  0.2461
  383MOL0     C51636   5.843   0.538   2.741 -0.4276 -0.0793 -0.2575
  383MOL0     C51637   5.887   0.453   2.861  0.6191 -0.1238 -0.6965
  383MOL0     H51638   6.155   0.725   3.047 -0.2492  2.1335  3.5907
  383MOL0     H51639   6.375   0.741   3.168 -1.9861 -4.3931 -0.3486
  383MOL0     H51640   6.570   0.982   3.104  1.1061  0.8470  0.2481
  383MOL0     H51641   6.731   0.901   3.152 -1.6844 -1.9000  1.9309
  383MOL0     H51642   6.782   1.079   2.978  1.6561 -0.2362 -0.7656
  383MOL0     H51643   6.664   1.008   2.876 -1.2787  1.1683  1.2613
  383MOL0     H51644   6.885   0.942   2.795 -1.3961 -2.1500 -2.3876
  383MOL0     H51645   6.785   0.811   2.857  2.7399 -0.4023 -2.7838
  383MOL0     H51646   7.011   0.938   3.023 -2.9360  0.6746  2.9493
  383MOL0     H51647   6.894   0.803   3.065 -1.7807 -2.0707 -2.2338
  383MOL0     H51648   6.985   0.668   2.877 -0.9525 -0.1435  0.7945
  383MOL0     H51649   7.109   0.788   2.850  2.6731 -2.6494  1.2189
  383MOL0     H51650   7.189   0.761   3.089 -0.0132 -1.6667  1.3189
  383MOL0     H51651   7.090   0.611   3.076 -0.5733  0.8039  0.4528
  383MOL0     H51652   7.328   0.713   2.894  1.4838  0.1567 -0.5863
  383MOL0     H51653   7.233   0.562   2.876  1.2289  0.1040 -0.1083
  383MOL0     H51654   7.442   0.524   2.960 -0.2689  0.6192 -0.2866
  383MOL0     H51655   7.434   0.639   3.092 -1.9448  1.9391 -0.4765
  383MOL0     H51656   7.289   0.608   3.295  0.8667 -1.0230  2.2488
  383MOL0     H51657   7.324   0.294   3.520 -1.4945  0.2240  0.6521
  383MOL0     H51658   7.425   0.432   3.507 -0.4810 -0.8097 -0.7118
  383MOL0     H51659   7.195   0.456   3.649 -1.6122 -0.8131 -0.1919
  383MOL0     H51660   7.210   0.581   3.520  1.0566  0.5435  2.3260
  383MOL0     H51661   7.081   0.300   3.495 -0.4589 -0.4117 -2.6116
  383MOL0     H51662   7.079   0.429   3.374 -1.9687 -2.0753 -0.4008
  383MOL0     H51663   6.907   0.420   3.638 -0.7037 -0.0612  0.8481
  383MOL0     H51664   6.861   0.452   3.477 -0.3666 -0.5058  0.1493
  383MOL0     H51665   6.891   0.674   3.803 -0.4931  0.5408  1.7489
  383MOL0     H51666   6.701   0.797   3.867 -1.0686 -4.0113  0.1489
  383MOL0     H51667   6.304   0.948   3.915 -1.8780  1.0356  0.8761
  383MOL0     H51668   6.101   1.095   3.958 -2.5272  4.3599  0.2294
  383MOL0     H51669   6.191   1.485   3.992  1.3627  0.1965 -0.5156
  383MOL0     H51670   6.100   1.536   3.857  1.6738 -0.5518  0.3148
  383MOL0     H51671   6.003   1.451   4.123  0.3232 -2.7704 -2.4884
  383MOL0     H51672   5.990   1.619   4.031  1.9212 -0.2042 -1.2792
  383MOL0     H51673   5.826   1.526   3.882 -0.0717 -0.5038 -1.4480
  383MOL0     H51674   5.842   1.363   3.958 -0.6026  0.1151 -0.8076
  383MOL0     H51675   5.779   1.442   4.170 -0.9787  0.3637  0.6774
  383MOL0     H51676   5.652   1.415   4.053  0.5001 -1.0196 -1.8673
  383MOL0     H51677   5.638   1.653   3.961  2.9312 -0.6250 -1.8602
  383MOL0     H51678   5.739   1.699   4.098  0.0305 -0.1820  0.0950
  383MOL0     H51679   5.452   1.618   4.104 -1.5016  2.6656 -0.9046
  383MOL0     H51680   5.560   1.590   4.245 -1.8017  3.4170  2.5467
  383MOL0     H51681   5.620   1.825   4.243  2.0214 -1.4446 -0.8610
  383MOL0     H51682   5.444   1.808   4.254 -1.5659 -0.3295 -1.4770
  383MOL0     H51683   5.588   1.865   3.987 -0.8270 -1.4160  0.0227
  383MOL0     H51684   5.406   1.849   4.014 -0.8919  0.1387  1.2757
  383MOL0     H51685   6.307   1.411   3.756  0.3654 -1.2060 -2.4843
  383MOL0     H51686   6.499   1.301   3.754 -0.5186 -1.3985 -3.3778
  383MOL0     H51687   6.617   0.878   3.446 -1.1898  1.3484  1.5416
  383MOL0     H51688   6.799   0.730   3.392 -0.1922 -2.5749  0.5956
  383MOL0     H51689   6.585   0.770   2.804  0.3388  1.6450  2.8622
  383MOL0     H51690   6.354   0.772   2.672  1.0508 -0.3231 -1.1432
  383MOL0     H51691   5.964   0.798   2.552 -0.6580 -0.7840 -0.7395
  383MOL0     H51692   5.734   0.797   2.477  0.0361  2.7818  0.8017
  383MOL0     H51693   5.501   0.704   2.401  1.0358  1.0699 -0.8622
  383MOL0     H51694   5.507   0.845   2.489 -0.0404 -0.3231 -2.9727
  383MOL0     H51695   5.264   0.800   2.496  1.6150  1.0549  0.7610
  383MOL0     H51696   5.302   0.692   2.624 -0.2839  0.5751 -0.5832
  383MOL0     H51697   5.326   0.508   2.461  0.3642  0.0966 -1.1390
  383MOL0     H51698   5.319   0.612   2.329  0.3404 -1.6628 -0.2867
  383MOL0     H51699   5.107   0.534   2.533  0.8580  2.2228  0.9839
  383MOL0     H51700   5.075   0.663   2.406  3.2694  2.1509 -0.5257
  383MOL0     H51701   5.046   0.303   2.191 -2.6308  0.7165  1.3566
  383MOL0     H51702   5.629   0.498   2.764 -1.3693  1.7773 -1.4034
  383MOL0     H51703   5.941   0.363   2.831 -0.3108 -0.1541 -2.4099
  383MOL0     H51704   5.936   0.524   2.928 -0.2646 -0.4406  0.3082
  383MOL0     H51705   5.800   0.429   2.922  0.2154 -0.0425 -1.2337
  384MOL0     O51706  10.004   9.041   4.480  0.0593  1.0173 -0.2265
  384MOL0     C51707  10.083   8.952   4.491 -0.5174 -0.2404 -0.2602
  384MOL0     O51708  10.148   8.910   4.604 -0.0674  0.2987 -0.3802
  384MOL0     C51709  10.084   8.951   4.723 -0.1655  0.1822 -0.0180
  384MOL0     C51710  10.165   9.005   4.824  0.0094  0.3911 -0.3532
  384MOL0     C51711  10.121   9.001   4.957 -0.5803  0.1928  0.9950
  384MOL0     C51712   9.991   8.960   4.993 -0.5941 -0.0704 -0.2130
  384MOL0     O51713   9.951   8.962   5.124 -0.6519 -0.8171 -0.1631
  384MOL0     C51714   9.949   9.085   5.202 -0.2071  0.1382 -0.3406
  384MOL0     C51715   9.826   9.094   5.294 -0.5552 -1.2141 -0.4782
  384MOL0     C51716   9.701   9.075   5.210 -0.1552 -0.1647 -0.0297
  384MOL0     C51717   9.587   9.105   5.306  0.4085  0.8315  0.2236
  384MOL0     C51718   9.453   9.105   5.242 -0.3361  0.5913 -0.1671
  384MOL0     C51719   9.349   9.144   5.344  0.6951 -0.7157 -0.5554
  384MOL0     C51720   9.209   9.098   5.305  0.0616 -0.0597 -0.1288
  384MOL0     C51721   9.086   9.174   5.377 -0.1391  0.9228 -0.1179
  384MOL0     N51722   9.056   9.129   5.516 -0.1272 -0.2177 -0.4539
  384MOL0     C51723   8.934   9.082   5.556 -0.6105  0.0904 -0.2076
  384MOL0     C51724   8.956   9.042   5.687  0.7627  0.5417 -0.4759
  384MOL0     C51725   8.843   9.015   5.778 -0.9557 -0.6198 -0.1588
  384MOL0     C51726   8.810   8.865   5.797  0.8686 -0.7304 -0.0917
  384MOL0     C51727   8.917   8.763   5.795 -0.3655 -0.3215  0.2367
  384MOL0     C51728   8.862   8.637   5.861 -0.8908 -0.3432 -0.8768
  384MOL0     O51729   8.915   8.517   5.804  1.3935  0.0131  0.1210
  384MOL0     C51730   8.844   8.458   5.711  0.5865 -0.7926  0.5931
  384MOL0     C51731   8.876   8.320   5.696  0.4485 -0.8795 -0.0236
  384MOL0     C51732   8.806   8.241   5.610 -1.4744  1.3815  0.1690
  384MOL0     C51733   8.715   8.291   5.519 -0.8630 -0.0008  0.4138
  384MOL0     C51734   8.655   8.212   5.412 -0.0578 -0.8499  0.0601
  384MOL0     O51735   8.635   8.284   5.300  0.0556 -0.0216  0.2791
  384MOL0     C51736   8.610   8.234   5.176 -0.1964  0.6440 -0.6575
  384MOL0     C51737   8.558   8.329   5.078  0.2837  0.7558 -0.9512
  384MOL0     C51738   8.512   8.307   4.949  0.3340  0.2950 -0.5244
  384MOL0     C51739   8.531   8.171   4.916  0.1649  0.1212  0.2905
  384MOL0     O51740   8.492   8.133   4.796 -0.2257 -0.6004  0.5104
  384MOL0     C51741   8.416   8.218   4.721  1.0425  0.1999  0.4023
  384MOL0     C51742   8.355   8.141   4.594 -0.1687 -0.2024  0.2595
  384MOL0     C51743   8.459   8.097   4.486  0.2416  0.1536 -0.2116
  384MOL0     C51744   8.398   8.094   4.350  0.0006 -0.9753 -0.4509
  384MOL0     C51745   8.484   8.022   4.248 -0.9012 -0.1824  0.0617
  384MOL0     C51746   8.414   8.000   4.113  1.1935  0.1000 -0.3435
  384MOL0     C51747   8.506   7.947   4.010 -0.6589 -0.1392 -0.2812
  384MOL0     C51748   8.469   7.951   3.861 -0.4360 -0.2165 -0.6153
  384MOL0    Cl51749   8.607   7.905   3.755 -0.0285 -0.4129  0.2009
  384MOL0     C51750   8.578   8.073   5.004 -0.6061  0.6671 -0.5096
  384MOL0     C51751   8.614   8.101   5.139  0.4843 -0.3080  0.6090
  384MOL0     O51752   8.637   8.091   5.420 -0.6560  0.0532 -0.2900
  384MOL0     C51753   8.679   8.430   5.538  0.2771 -0.0834  0.4876
  384MOL0     C51754   8.740   8.517   5.630  0.8250  1.0435 -1.3883
  384MOL0     N51755   9.087   9.070   5.718  0.4549 -0.3500  0.6936
  384MOL0     N51756   9.149   9.107   5.612  0.1665 -0.6100 -0.1676
  384MOL0     C51757   9.906   8.924   4.887  0.2109  0.3915 -0.3557
  384MOL0     C51758   9.956   8.905   4.757  0.2112 -0.5018 -0.8978
  384MOL0     C51759  10.127   8.888   4.364 -0.5320 -0.2423 -0.4511
  384MOL0     C51760  10.241   8.808   4.373 -0.1064 -0.1906 -0.1224
  384MOL0     C51761  10.310   8.765   4.257  0.9845 -0.6200 -0.0365
  384MOL0     C51762  10.253   8.792   4.126 -0.0625 -0.3358  0.3316
  384MOL0     O51763  10.309   8.787   4.000 -0.1742 -0.0686 -0.3689
  384MOL0     C51764  10.415   8.694   3.979  0.2834  0.3932 -0.0659
  384MOL0     C51765  10.536   8.767   3.913 -0.2149  0.1813 -0.1646
  384MOL0     C51766  10.622   8.667   3.829 -0.1284  0.4347  0.8077
  384MOL0     C51767  10.565   8.657   3.686  1.1586  0.2742  0.8645
  384MOL0     C51768  10.613   8.530   3.617  0.9129 -0.7860 -1.4184
  384MOL0     C51769  10.638   8.425   3.562  0.1155  0.2980  0.8546
  384MOL0     C51770  10.136   8.858   4.122 -0.5248 -1.0943  0.0816
  384MOL0     C51771  10.072   8.915   4.233  0.7263  0.2971  0.8226
  384MOL0     C51772   9.956   9.003   4.206 -0.3069 -0.0647 -1.0001
  384MOL0     H51773  10.258   9.050   4.792  0.2264  1.0359  1.1184
  384MOL0     H51774  10.195   9.018   5.034 -0.9160  0.8691  1.1783
  384MOL0     H51775  10.043   9.084   5.259  0.5625 -2.8541 -1.4609
  384MOL0     H51776   9.944   9.169   5.132 -2.3317  2.6531  2.5557
  384MOL0     H51777   9.828   9.189   5.349  1.4082 -1.7935  0.5280
  384MOL0     H51778   9.830   9.012   5.366  0.8700 -0.6096  0.1808
  384MOL0     H51779   9.708   8.968   5.188  0.5805 -0.7341  2.5703
  384MOL0     H51780   9.694   9.138   5.121  0.8595  0.3476  0.2340
  384MOL0     H51781   9.596   9.028   5.383  1.8892  0.9549  0.2149
  384MOL0     H51782   9.590   9.210   5.337  0.2904  1.0742 -0.5457
  384MOL0     H51783   9.448   9.167   5.152  2.4944  0.4547 -0.5201
  384MOL0     H51784   9.435   9.002   5.209  1.3324  0.2803 -0.1671
  384MOL0     H51785   9.370   9.107   5.445 -3.6196  1.3110  1.3391
  384MOL0     H51786   9.348   9.252   5.360  1.3053 -0.5148 -1.7868
  384MOL0     H51787   9.186   8.992   5.319  2.1915 -0.7935 -1.7057
  384MOL0     H51788   9.188   9.122   5.200 -1.3494  2.6201  0.6695
  384MOL0     H51789   9.103   9.282   5.387 -0.2537  1.1807 -2.1995
  384MOL0     H51790   8.991   9.158   5.324 -0.2616  1.1688  0.0209
  384MOL0     H51791   8.840   9.098   5.503 -0.1389  1.4058 -0.7005
  384MOL0     H51792   8.877   9.041   5.879  0.7977  0.4885 -0.9831
  384MOL0     H51793   8.756   9.076   5.749 -0.1045  0.2513 -0.9399
  384MOL0     H51794   8.733   8.840   5.870  0.5418 -0.0940 -0.2048
  384MOL0     H51795   8.746   8.851   5.709 -1.1293  2.7598  0.6143
  384MOL0     H51796   9.002   8.806   5.850 -1.2093  0.6924  0.7746
  384MOL0     H51797   8.955   8.742   5.694  1.7184  4.1374 -0.1635
  384MOL0     H51798   8.755   8.630   5.887 -1.3484 -1.5499 -2.8282
  384MOL0     H51799   8.908   8.628   5.959 -0.9379 -3.2678 -1.0246
  384MOL0     H51800   8.960   8.277   5.751  0.7033 -0.1501  0.1662
  384MOL0     H51801   8.839   8.137   5.611  1.9934  2.3491  0.5592
  384MOL0     H51802   8.573   8.434   5.103  0.1870  1.2939 -3.0292
  384MOL0     H51803   8.490   8.394   4.887  2.1346 -0.5972 -2.5438
  384MOL0     H51804   8.336   8.257   4.785  3.4889  2.5398  2.2718
  384MOL0     H51805   8.469   8.298   4.668  3.1067 -0.8941  0.7040
  384MOL0     H51806   8.275   8.075   4.629 -1.4419  1.8821  1.4901
  384MOL0     H51807   8.289   8.214   4.547  1.2093  1.0923  0.2666
  384MOL0     H51808   8.531   8.178   4.476  0.8682 -0.0610  2.1193
  384MOL0     H51809   8.510   8.003   4.508  1.0962  0.3056 -1.4468
  384MOL0     H51810   8.375   8.193   4.308  1.4639 -1.5046 -2.6696
  384MOL0     H51811   8.299   8.047   4.349 -1.9438  2.6845 -1.4495
  384MOL0     H51812   8.527   7.933   4.296 -2.1431 -0.1482  1.2698
  384MOL0     H51813   8.572   8.088   4.244  0.6352 -2.1453 -0.2879
  384MOL0     H51814   8.323   7.938   4.121  2.1909 -1.4201 -0.3290
  384MOL0     H51815   8.380   8.097   4.077  2.6914  0.3746 -1.0936
  384MOL0     H51816   8.515   7.843   4.042  0.6749  0.6665  2.2746
  384MOL0     H51817   8.610   7.974   4.032  0.0536 -3.0825  0.4501
  384MOL0     H51818   8.389   7.878   3.847  0.8913 -1.5975 -1.2976
  384MOL0     H51819   8.436   8.055   3.844  4.2399  2.0423  2.1999
  384MOL0     H51820   8.590   7.975   4.957  0.6051  0.6254 -0.1384
  384MOL0     H51821   8.644   8.022   5.208  0.9047  1.8169  3.0329
  384MOL0     H51822   8.603   8.474   5.474 -1.7156 -0.9210  2.1927
  384MOL0     H51823   8.701   8.618   5.635 -1.4353  0.1705 -0.1705
  384MOL0     H51824   9.803   8.905   4.914 -0.2956  3.5460  0.2892
  384MOL0     H51825   9.882   8.861   4.691 -0.5001 -1.1298  0.2772
  384MOL0     H51826  10.271   8.763   4.467 -1.3444 -1.7250 -0.4216
  384MOL0     H51827  10.408   8.723   4.277  1.7522  1.8531  2.0316
  384MOL0     H51828  10.377   8.615   3.914 -0.9018  0.2783  0.7281
  384MOL0     H51829  10.445   8.644   4.072  2.4918  2.8799  0.6757
  384MOL0     H51830  10.593   8.820   3.990  0.4335  1.9286 -1.7567
  384MOL0     H51831  10.509   8.845   3.841  0.1115  0.0226 -0.4646
  384MOL0     H51832  10.609   8.569   3.876  0.1358  0.1733  0.3382
  384MOL0     H51833  10.729   8.684   3.822 -0.0685 -0.2796 -0.2951
  384MOL0     H51834  10.456   8.652   3.676  1.2252  1.6070 -1.4507
  384MOL0     H51835  10.604   8.744   3.632 -0.2358 -1.1670 -2.8250
  384MOL0     H51836  10.660   8.332   3.515 -2.1837  0.0904  0.0597
  384MOL0     H51837  10.083   8.890   4.033  0.1314 -0.2232 -0.0157
  384MOL0     H51838   9.923   9.002   4.101 -0.5875  1.0011 -0.9319
  384MOL0     H51839   9.873   8.968   4.268  1.4926 -3.5293 -0.3195
  384MOL0     H51840   9.980   9.107   4.229  0.2714 -0.4160  0.0615
  385MOL0     O51841   9.044   8.881   8.522  0.0142 -0.6370  0.6631
  385MOL0     C51842   8.974   8.964   8.573 -0.5308 -0.6702 -0.9553
  385MOL0     O51843   8.933   9.080   8.507  0.3154  0.1826 -0.2793
  385MOL0     C51844   9.026   9.128   8.418  0.3745  0.0234 -0.2567
  385MOL0     C51845   9.011   9.129   8.276 -0.2424 -0.3182 -0.8854
  385MOL0     C51846   9.117   9.165   8.196 -0.0536 -1.1703  0.1433
  385MOL0     C51847   9.238   9.207   8.252 -0.5055  0.1796  0.0021
  385MOL0     O51848   9.345   9.225   8.169  0.1984 -0.0076 -0.3418
  385MOL0     C51849   9.445   9.315   8.218 -0.3681  0.0788 -0.0858
  385MOL0     C51850   9.513   9.338   8.084 -0.7710 -0.0419 -0.0698
  385MOL0     C51851   9.568   9.204   8.021  1.1566 -0.7349 -0.0766
  385MOL0     C51852   9.704   9.167   8.083  0.1441 -0.4066  0.0789
  385MOL0     C51853   9.745   9.025   8.045  0.1131  0.0494  0.6194
  385MOL0     C51854   9.865   8.987   8.135  0.3453  0.0178  0.5543
  385MOL0     C51855   9.900   8.838   8.135  0.3435  0.5532  0.4437
  385MOL0     C51856  10.021   8.816   8.220 -0.1375  1.0239 -0.4715
  385MOL0     N51857  10.008   8.832   8.362  0.1876  0.0678 -0.2175
  385MOL0     C51858   9.900   8.839   8.443 -0.6679 -0.3974  0.9790
  385MOL0     C51859   9.943   8.825   8.567  0.1061  0.5247  0.2779
  385MOL0     C51860   9.849   8.832   8.682 -0.7784  0.1412 -0.0934
  385MOL0     C51861   9.934   8.880   8.806  0.0229  0.4844  0.0309
  385MOL0     C51862   9.844   8.860   8.928 -0.8981 -0.2235 -0.4837
  385MOL0     C51863   9.874   8.981   9.032 -0.3309 -0.1258  0.0599
  385MOL0     O51864  10.020   8.993   9.063  0.0970  0.9689  0.1600
  385MOL0     C51865  10.067   9.099   9.142  1.1787 -1.2764 -0.4503
  385MOL0     C51866  10.195   9.156   9.114 -0.0979 -0.5735  1.0001
  385MOL0     C51867  10.236   9.271   9.185 -0.6134 -0.1197  0.2650
  385MOL0     C51868  10.160   9.321   9.295  1.5302 -0.3644  0.5574
  385MOL0     C51869  10.221   9.451   9.352  0.0706 -0.5909  0.0429
  385MOL0     O51870  10.352   9.484   9.320 -0.2590 -0.3398 -0.5502
  385MOL0     C51871  10.403   9.595   9.372 -0.1061 -0.5953 -0.0676
  385MOL0     C51872  10.465   9.678   9.282 -0.9827 -1.2914  0.1326
  385MOL0     C51873  10.548   9.787   9.323 -0.2727  0.4228  0.2869
  385MOL0     C51874  10.532   9.835   9.456  0.9309  0.6143 -0.0615
  385MOL0     O51875  10.595   9.939   9.509 -0.4363 -0.2589 -0.3396
  385MOL0     C51876  10.690  10.023   9.438  0.4470  0.6887  0.2248
  385MOL0     C51877  10.764  10.100   9.534 -1.3826  0.9615  1.0529
  385MOL0     C51878  10.889  10.166   9.493 -0.0169 -0.7257 -0.4242
  385MOL0     C51879  10.844  10.303   9.414 -1.2489  0.7424 -0.5724
  385MOL0     C51880  10.958  10.375   9.342  0.1902 -0.0365 -0.3736
  385MOL0     C51881  11.010  10.290   9.226  0.2214 -0.3150 -0.8418
  385MOL0     C51882  11.113  10.371   9.138  0.2149 -0.5712 -0.3726
  385MOL0     C51883  11.242  10.406   9.218  0.2011  0.4382 -0.1216
  385MOL0    Cl51884  11.385  10.396   9.112  0.2698 -0.6234 -0.1606
  385MOL0     C51885  10.456   9.760   9.546 -0.6497 -0.0646  0.3129
  385MOL0     C51886  10.397   9.642   9.504  0.7122 -0.0186 -1.1592
  385MOL0     O51887  10.133   9.533   9.394  0.1667 -0.1560 -0.9028
  385MOL0     C51888  10.030   9.270   9.321 -0.6543  0.8444 -1.0141
  385MOL0     C51889   9.994   9.154   9.253 -0.0018 -0.8411  0.2181
  385MOL0     N51890  10.072   8.811   8.564  0.2061  0.1512  0.2253
  385MOL0     N51891  10.117   8.824   8.445  0.2130  0.2878  0.0555
  385MOL0     C51892   9.254   9.196   8.389  1.0594 -0.1965  0.0718
  385MOL0     C51893   9.149   9.175   8.473 -0.1418 -0.7075  0.2209
  385MOL0     C51894   8.933   8.953   8.720 -0.7224 -0.3556 -0.0491
  385MOL0     C51895   8.854   9.059   8.772 -0.6448  0.8586 -0.7205
  385MOL0     C51896   8.787   9.051   8.894  0.3648 -0.1505  0.6682
  385MOL0     C51897   8.801   8.934   8.971  0.3351 -0.5315  0.0071
  385MOL0     O51898   8.751   8.923   9.101 -0.2828 -0.4436 -0.0313
  385MOL0     C51899   8.706   9.043   9.176  0.3202 -0.2410  0.1406
  385MOL0     C51900   8.633   8.994   9.297  0.0966 -0.1289  0.8236
  385MOL0     C51901   8.481   8.950   9.291 -0.2635 -0.3160 -0.6730
  385MOL0     C51902   8.474   8.827   9.206  0.2432 -0.0836 -0.2037
  385MOL0     C51903   8.339   8.799   9.193  1.0713 -0.2530  0.2309
  385MOL0     C51904   8.221   8.780   9.173  0.3026 -0.2663 -0.1672
  385MOL0     C51905   8.880   8.828   8.918  1.2567  1.0969  0.8160
  385MOL0     C51906   8.952   8.838   8.803 -0.3311  0.1540 -0.3744
  385MOL0     C51907   9.017   8.711   8.755 -0.1800 -0.0288 -0.8454
  385MOL0     H51908   8.913   9.111   8.232 -0.2499  1.0783 -1.4742
  385MOL0     H51909   9.106   9.153   8.089  0.8642 -2.9455  0.2145
  385MOL0     H51910   9.405   9.410   8.254  1.2157  0.9740 -0.5654
  385MOL0     H51911   9.510   9.279   8.299 -1.9560 -2.1777  0.2834
  385MOL0     H51912   9.598   9.404   8.101 -1.6283  0.8531  0.8107
  385MOL0     H51913   9.443   9.387   8.016 -2.2477 -1.8701  0.0338
  385MOL0     H51914   9.580   9.222   7.914  1.0669  1.4600  0.2280
  385MOL0     H51915   9.508   9.116   8.045  0.1537 -0.1000 -0.2265
  385MOL0     H51916   9.788   9.236   8.068 -0.6056  0.3390 -0.7423
  385MOL0     H51917   9.690   9.162   8.192  3.3390  1.2632  0.7077
  385MOL0     H51918   9.664   8.953   8.054  0.0449  0.1416  0.7533
  385MOL0     H51919   9.777   9.023   7.941  1.2857  2.5537  0.8490
  385MOL0     H51920   9.952   9.040   8.096 -1.1235  1.7770 -0.4782
  385MOL0     H51921   9.845   9.010   8.240 -1.1076  1.7861 -0.0596
  385MOL0     H51922   9.916   8.802   8.033  4.4358 -1.1498  1.4924
  385MOL0     H51923   9.814   8.783   8.173  0.5699 -0.1051  0.0194
  385MOL0     H51924  10.027   8.707   8.204 -1.8959  1.1294 -2.4146
  385MOL0     H51925  10.110   8.858   8.173  1.8407 -1.8791  0.4214
  385MOL0     H51926   9.795   8.841   8.416 -0.3398  0.9545 -0.3223
  385MOL0     H51927   9.767   8.903   8.676  0.7454  2.1478  1.3904
  385MOL0     H51928   9.805   8.734   8.703  1.7565 -0.6828  2.1123
  385MOL0     H51929  10.031   8.831   8.820  0.0797  0.4494 -0.4742
  385MOL0     H51930   9.959   8.985   8.787 -1.2277  0.5337 -1.4735
  385MOL0     H51931   9.868   8.760   8.966  2.8886 -1.0500 -4.3114
  385MOL0     H51932   9.737   8.856   8.906 -1.0252 -5.0993 -0.0698
  385MOL0     H51933   9.819   8.976   9.126  0.9136 -0.4542  0.7903
  385MOL0     H51934   9.839   9.078   8.995 -1.1884 -0.8762 -1.1472
  385MOL0     H51935  10.251   9.123   9.027  0.7343  1.0945  0.8660
  385MOL0     H51936  10.327   9.315   9.146  3.2844 -6.1675  1.1935
  385MOL0     H51937  10.460   9.648   9.178  3.0040  0.0304 -0.6222
  385MOL0     H51938  10.591   9.854   9.249 -1.6991  0.7921 -0.2385
  385MOL0     H51939  10.757   9.957   9.382 -0.2767  0.0096  0.1473
  385MOL0     H51940  10.630  10.084   9.371 -0.0182 -0.1722 -0.1610
  385MOL0     H51941  10.695  10.178   9.567 -3.0390  0.8417 -1.8324
  385MOL0     H51942  10.783  10.023   9.609 -2.5420 -1.1864 -0.7685
  385MOL0     H51943  10.959  10.182   9.575 -1.7365  2.0772  0.6070
  385MOL0     H51944  10.944  10.101   9.423  0.6321 -0.6329 -0.0113
  385MOL0     H51945  10.800  10.381   9.476 -1.2258  0.5956 -0.3664
  385MOL0     H51946  10.760  10.280   9.348 -1.1523 -2.7980  0.3053
  385MOL0     H51947  11.037  10.405   9.412 -2.0679 -0.9133  2.7817
  385MOL0     H51948  10.919  10.466   9.297  2.6803  1.4861  0.3436
  385MOL0     H51949  11.043  10.192   9.260  1.0644  1.0489  2.7379
  385MOL0     H51950  10.924  10.273   9.160 -0.2837  2.8554 -1.1613
  385MOL0     H51951  11.063  10.456   9.091 -0.3606 -0.3545  0.6080
  385MOL0     H51952  11.149  10.294   9.070 -1.2081 -3.4812  1.9551
  385MOL0     H51953  11.228  10.502   9.268  0.9533 -0.2150  1.3857
  385MOL0     H51954  11.269  10.322   9.283  4.2192 -0.6428 -2.8131
  385MOL0     H51955  10.440   9.790   9.649 -1.4981 -1.0789  0.4989
  385MOL0     H51956  10.329   9.594   9.574  0.4873  0.7348 -0.8605
  385MOL0     H51957   9.973   9.313   9.403 -2.6473 -2.0449 -0.7463
  385MOL0     H51958   9.899   9.110   9.283 -1.1185  1.2127 -0.1715
  385MOL0     H51959   9.352   9.211   8.434  0.5067  2.9702  0.4393
  385MOL0     H51960   9.163   9.177   8.580 -2.1562 -0.1295  0.5336
  385MOL0     H51961   8.855   9.145   8.705  2.8517  1.5052 -0.0432
  385MOL0     H51962   8.726   9.136   8.924 -0.0286  0.3150 -1.3074
  385MOL0     H51963   8.649   9.115   9.116  4.8049  2.7493 -1.0371
  385MOL0     H51964   8.798   9.094   9.208  0.3177  0.0882 -0.3550
  385MOL0     H51965   8.631   9.071   9.375 -3.8697 -0.2525  1.0745
  385MOL0     H51966   8.690   8.910   9.338 -0.5369 -1.3438 -0.6984
  385MOL0     H51967   8.423   9.033   9.250  0.5757  0.1668 -0.8980
  385MOL0     H51968   8.445   8.931   9.393  2.7569 -1.8765  0.2256
  385MOL0     H51969   8.521   8.850   9.110  1.6139  5.3733  1.4511
  385MOL0     H51970   8.527   8.745   9.255  0.6402  1.0362  1.3190
  385MOL0     H51971   8.115   8.772   9.158  0.5617 -1.2711 -1.6939
  385MOL0     H51972   8.902   8.739   8.976 -0.2936  0.0459 -0.1562
  385MOL0     H51973   9.127   8.714   8.756 -0.0926 -0.6744  2.0069
  385MOL0     H51974   8.980   8.632   8.820  2.6554 -1.1072 -0.3803
  385MOL0     H51975   8.993   8.681   8.653 -0.6262 -1.0254 -0.4580
  386MOL0     O51976  10.732   0.791   7.628 -0.2380  0.0014 -0.3690
  386MOL0     C51977  10.855   0.772   7.619 -0.9475 -0.0558 -1.8404
  386MOL0     O51978  10.938   0.765   7.511  0.3031  0.3586  0.4219
  386MOL0     C51979  10.898   0.811   7.390 -0.4551  0.0916  0.0975
  386MOL0     C51980  10.761   0.806   7.347 -0.9212  0.1205 -0.7823
  386MOL0     C51981  10.719   0.860   7.226 -0.0996  0.2062 -0.0935
  386MOL0     C51982  10.810   0.923   7.132  0.3737  0.0920  0.1164
  386MOL0     O51983  10.769   0.962   7.006 -0.0673  0.2897  0.5857
  386MOL0     C51984  10.816   0.883   6.903  0.1046  0.2740 -0.0459
  386MOL0     C51985  10.722   0.762   6.885 -0.2356  0.1056 -0.3928
  386MOL0     C51986  10.763   0.668   6.772  1.4843  0.5446 -0.2477
  386MOL0     C51987  10.664   0.556   6.752  0.8886  0.0630 -0.0393
  386MOL0     C51988  10.678   0.475   6.625  0.4659 -0.8746 -0.8293
  386MOL0     C51989  10.558   0.378   6.619  0.5542 -0.8832  0.7007
  386MOL0     C51990  10.586   0.270   6.506  0.7486 -0.6914 -0.5008
  386MOL0     C51991  10.665   0.148   6.541 -0.2792  0.6704  0.3038
  386MOL0     N51992  10.705   0.091   6.408  0.6933  0.1062 -0.9278
  386MOL0     C51993  10.642  -0.006   6.337 -0.2149  0.4574  0.1738
  386MOL0     C51994  10.710  -0.004   6.216 -0.5281 -0.4094  0.4222
  386MOL0     C51995  10.694  -0.106   6.106  0.8887  0.0878 -0.5816
  386MOL0     C51996  10.811  -0.205   6.091  0.8034 -0.2829 -0.0175
  386MOL0     C51997  10.800  -0.354   6.146  0.4356  0.1025 -0.0049
  386MOL0     C51998  10.699  -0.379   6.266  0.6491  0.8455  0.0643
  386MOL0     O51999  10.565  -0.378   6.238 -0.5882  0.0260  0.9788
  386MOL0     C52000  10.483  -0.480   6.269  0.1496 -0.0310 -0.5720
  386MOL0     C52001  10.486  -0.612   6.213 -0.6499 -0.5199  0.2036
  386MOL0     C52002  10.396  -0.702   6.252  0.1557 -0.2021 -0.3374
  386MOL0     C52003  10.285  -0.668   6.336 -0.1427  0.0009  0.6177
  386MOL0     C52004  10.190  -0.779   6.365  0.4688  0.3964  0.3743
  386MOL0     O52005  10.089  -0.743   6.448  0.2171 -0.3119 -0.2451
  386MOL0     C52006   9.984  -0.823   6.435 -0.9792  0.5405  0.9398
  386MOL0     C52007   9.987  -0.927   6.523  0.2253  0.5151 -0.6067
  386MOL0     C52008   9.878  -1.012   6.529  0.3321  0.2491  0.7331
  386MOL0     C52009   9.788  -1.011   6.420 -0.0997 -0.4591 -0.3047
  386MOL0     O52010   9.702  -1.116   6.431  0.3111  0.4427 -0.0829
  386MOL0     C52011   9.610  -1.130   6.320 -1.0759 -0.4631  0.5141
  386MOL0     C52012   9.484  -1.206   6.370  0.1893 -0.6252  0.2013
  386MOL0     C52013   9.421  -1.129   6.487  1.0492 -0.6062 -0.1796
  386MOL0     C52014   9.306  -1.210   6.547  1.2703  0.0577 -0.4846
  386MOL0     C52015   9.255  -1.149   6.686 -0.9809 -0.0577  0.3361
  386MOL0     C52016   9.182  -1.013   6.678  0.0961  0.6108  0.8693
  386MOL0     C52017   9.060  -0.996   6.578  0.1242  0.0036  0.0555
  386MOL0     C52018   9.002  -0.857   6.592 -0.0858  0.3197  0.6124
  386MOL0    Cl52019   8.906  -0.824   6.743  0.1267  0.2198 -0.0954
  386MOL0     C52020   9.796  -0.915   6.319 -0.3493 -0.3980 -0.4970
  386MOL0     C52021   9.890  -0.821   6.330 -0.7784  0.5339 -0.1515
  386MOL0     O52022  10.204  -0.886   6.309  0.7542 -0.3312 -0.0472
  386MOL0     C52023  10.275  -0.542   6.383  0.6566  0.0604 -0.3670
  386MOL0     C52024  10.374  -0.447   6.348  0.7367 -0.4730  0.1064
  386MOL0     N52025  10.800   0.100   6.220  0.4405 -0.1148 -0.5009
  386MOL0     N52026  10.808   0.145   6.340 -0.2901  0.9346 -0.0945
  386MOL0     C52027  10.936   0.935   7.187  0.1378  0.2462 -0.1925
  386MOL0     C52028  10.983   0.876   7.302 -0.3118  0.8470  0.5433
  386MOL0     C52029  10.938   0.784   7.748  0.1730  0.1647 -0.3153
  386MOL0     C52030  11.058   0.723   7.747 -0.0629 -0.5017  0.1674
  386MOL0     C52031  11.156   0.724   7.850  0.2306 -0.2613  0.1802
  386MOL0     C52032  11.127   0.803   7.958 -0.1088  0.8035 -0.0870
  386MOL0     O52033  11.218   0.801   8.067 -0.8486  0.5899  0.8956
  386MOL0     C52034  11.187   0.882   8.181  0.3125 -0.0214 -0.4750
  386MOL0     C52035  11.290   0.842   8.285  0.3988  0.8717  0.0581
  386MOL0     C52036  11.409   0.942   8.303 -0.2583  0.0475 -0.5929
  386MOL0     C52037  11.505   0.869   8.406  0.3109  1.3131 -0.4799
  386MOL0     C52038  11.644   0.928   8.426  0.1963  1.1257 -0.1651
  386MOL0     C52039  11.751   0.965   8.465  0.1139 -0.4038 -0.3175
  386MOL0     C52040  10.999   0.859   7.972  0.2154 -0.0161  0.3598
  386MOL0     C52041  10.901   0.856   7.869 -0.2725  0.0035  0.0796
  386MOL0     C52042  10.772   0.935   7.881 -0.7986  0.2258  0.8025
  386MOL0     H52043  10.685   0.751   7.401 -0.6964  1.5767  1.1440
  386MOL0     H52044  10.614   0.847   7.203  0.1974 -1.5889 -0.6180
  386MOL0     H52045  10.810   0.943   6.811 -2.5730 -1.0677 -0.8360
  386MOL0     H52046  10.920   0.852   6.920  0.0049  0.0968  0.2419
  386MOL0     H52047  10.625   0.799   6.850  0.1650 -1.6747 -3.7554
  386MOL0     H52048  10.713   0.720   6.986 -0.3777  0.8685 -0.0779
  386MOL0     H52049  10.860   0.621   6.791  0.3846 -2.1074 -0.7399
  386MOL0     H52050  10.773   0.716   6.674  4.1344 -0.1636 -0.3890
  386MOL0     H52051  10.670   0.489   6.838  2.4749  2.2828  1.6726
  386MOL0     H52052  10.564   0.601   6.746  0.8746  0.3207  1.6557
  386MOL0     H52053  10.691   0.539   6.537  1.0624 -1.5033 -1.2123
  386MOL0     H52054  10.764   0.411   6.645 -0.2310 -0.6914  3.6750
  386MOL0     H52055  10.535   0.326   6.712 -1.5794 -0.1865  0.6049
  386MOL0     H52056  10.476   0.445   6.593  1.7442  0.4602  0.2644
  386MOL0     H52057  10.643   0.329   6.435  0.9426 -0.4947 -0.1836
  386MOL0     H52058  10.487   0.248   6.463 -1.0098  3.1611  1.0639
  386MOL0     H52059  10.753   0.181   6.596  0.9264 -0.4167 -0.9032
  386MOL0     H52060  10.598   0.086   6.602 -1.0460 -0.3200 -1.4816
  386MOL0     H52061  10.555  -0.062   6.370  1.3345 -1.5021  1.1669
  386MOL0     H52062  10.597  -0.154   6.109  1.3492 -1.1484  4.7789
  386MOL0     H52063  10.696  -0.063   6.005 -2.3198  1.9802  0.0187
  386MOL0     H52064  10.827  -0.215   5.983 -2.9164  2.9189 -1.0927
  386MOL0     H52065  10.902  -0.157   6.128  0.9260  2.2131 -3.0367
  386MOL0     H52066  10.903  -0.383   6.168  0.3811  0.0605  0.1970
  386MOL0     H52067  10.766  -0.415   6.062 -1.1977  2.5317 -1.2274
  386MOL0     H52068  10.716  -0.314   6.352  3.1618 -1.8287  1.8125
  386MOL0     H52069  10.724  -0.482   6.296 -0.3674  1.2330  2.4794
  386MOL0     H52070  10.544  -0.634   6.124 -2.2652  0.4146 -1.1259
  386MOL0     H52071  10.427  -0.795   6.205  1.0887  0.9497 -2.1178
  386MOL0     H52072  10.066  -0.934   6.597 -0.0231 -2.3378 -0.5087
  386MOL0     H52073   9.878  -1.086   6.607  2.0675 -2.7845 -1.8777
  386MOL0     H52074   9.566  -1.031   6.302  3.3292  1.5112 -1.0167
  386MOL0     H52075   9.656  -1.180   6.235  1.7284  4.3044 -1.1799
  386MOL0     H52076   9.412  -1.232   6.292 -0.9853 -0.4163  1.1894
  386MOL0     H52077   9.518  -1.306   6.397 -2.5712 -1.1057  2.2804
  386MOL0     H52078   9.492  -1.105   6.566  0.4743  0.3733  0.0567
  386MOL0     H52079   9.379  -1.042   6.435 -0.0460 -1.2194 -0.3393
  386MOL0     H52080   9.336  -1.313   6.568 -0.2273 -0.0696  1.3524
  386MOL0     H52081   9.231  -1.214   6.468  1.3573 -1.9213 -0.5345
  386MOL0     H52082   9.349  -1.149   6.742  0.4605  3.1369 -1.8292
  386MOL0     H52083   9.184  -1.218   6.733  0.1299 -2.7817 -1.7417
  386MOL0     H52084   9.153  -0.986   6.780  0.9686  3.3286  0.4819
  386MOL0     H52085   9.257  -0.934   6.668 -0.8790  1.9877  3.3062
  386MOL0     H52086   8.995  -1.082   6.597 -0.7073  0.6256  0.0750
  386MOL0     H52087   9.098  -1.001   6.476  1.4217  0.4300  0.4974
  386MOL0     H52088   9.094  -0.797   6.597 -0.3381  0.9491 -1.4167
  386MOL0     H52089   8.938  -0.832   6.507 -0.8196 -1.0485  0.7268
  386MOL0     H52090   9.724  -0.910   6.238  1.7073 -0.8768 -2.4308
  386MOL0     H52091   9.888  -0.736   6.262  3.5998  2.1238  1.4074
  386MOL0     H52092  10.195  -0.514   6.450  1.4955 -4.0142  2.7154
  386MOL0     H52093  10.360  -0.346   6.386 -2.1935 -0.6925 -0.1323
  386MOL0     H52094  11.012   0.977   7.122  0.8820  0.2945  0.6858
  386MOL0     H52095  11.089   0.872   7.324  0.0030  2.6311 -0.4051
  386MOL0     H52096  11.092   0.678   7.654 -0.3196  2.1670 -1.3355
  386MOL0     H52097  11.252   0.674   7.841  1.6367  2.4011 -0.8162
  386MOL0     H52098  11.095   0.839   8.221  0.3583 -1.7874 -2.1279
  386MOL0     H52099  11.196   0.990   8.165  0.0248 -0.1093 -1.2912
  386MOL0     H52100  11.324   0.739   8.271 -2.0805 -0.0035 -0.0135
  386MOL0     H52101  11.250   0.836   8.387 -0.0441  0.9935 -0.1051
  386MOL0     H52102  11.381   1.041   8.340  1.2292  0.8117 -1.3950
  386MOL0     H52103  11.464   0.951   8.209 -3.2271  1.5831 -2.3301
  386MOL0     H52104  11.450   0.860   8.500  2.5501 -2.0199  0.7006
  386MOL0     H52105  11.516   0.762   8.386  2.4724  0.7255  2.9970
  386MOL0     H52106  11.842   1.013   8.494  1.8829 -2.3299 -2.2832
  386MOL0     H52107  10.977   0.905   8.067  3.1853 -1.7203  1.9994
  386MOL0     H52108  10.734   0.964   7.783 -1.0105 -2.0195  0.1703
  386MOL0     H52109  10.691   0.871   7.918 -2.7480  1.1113 -1.6314
  386MOL0     H52110  10.791   1.021   7.946 -1.7481  0.1247  1.2282
  387MOL0     O52111  10.607   7.885   2.564  0.4534 -0.4318  0.2283
  387MOL0     C52112  10.725   7.922   2.577 -0.7846 -0.6311 -0.2434
  387MOL0     O52113  10.763   8.050   2.588 -0.4498 -0.1174  0.4165
  387MOL0     C52114  10.678   8.152   2.551  0.7297 -0.3942  0.6988
  387MOL0     C52115  10.563   8.154   2.471 -0.7001 -0.0735  0.0797
  387MOL0     C52116  10.498   8.280   2.443  0.9866  0.2464  0.1913
  387MOL0     C52117  10.542   8.395   2.508  0.1390  0.5549  0.5797
  387MOL0     O52118  10.466   8.507   2.495 -0.7194 -0.1905 -0.4677
  387MOL0     C52119  10.428   8.576   2.609  0.1979 -0.3379  0.7460
  387MOL0     C52120  10.361   8.706   2.569 -0.2254  0.0841  0.9076
  387MOL0     C52121  10.204   8.690   2.568  0.1322  0.1555 -0.3819
  387MOL0     C52122  10.152   8.568   2.484  0.1627 -0.6027  0.4698
  387MOL0     C52123   9.996   8.577   2.465  0.3221  0.3138 -0.5514
  387MOL0     C52124   9.956   8.630   2.319  1.1238  0.4213 -0.1618
  387MOL0     C52125   9.808   8.650   2.297  0.7178  0.7697  0.0499
  387MOL0     C52126   9.776   8.642   2.146  0.3039 -0.2608  0.3559
  387MOL0     N52127   9.774   8.774   2.074 -0.4995  0.2408  0.8807
  387MOL0     C52128   9.858   8.880   2.098  0.8081 -0.1104  0.6989
  387MOL0     C52129   9.820   8.984   2.028 -0.5106 -0.5499 -0.4539
  387MOL0     C52130   9.892   9.114   2.037  1.3521  0.6085 -0.0798
  387MOL0     C52131  10.040   9.096   1.996  1.7238  0.0842  0.4285
  387MOL0     C52132  10.105   9.234   1.997  0.3087 -0.0644 -0.8931
  387MOL0     C52133  10.254   9.217   2.032  0.1337 -0.2188 -0.2914
  387MOL0     O52134  10.295   9.127   1.926 -0.5094 -0.0374  0.6076
  387MOL0     C52135  10.431   9.088   1.918  0.5236  0.7179 -0.3445
  387MOL0     C52136  10.533   9.141   1.994 -0.2432  0.1239 -0.6316
  387MOL0     C52137  10.663   9.089   1.997 -0.5252 -0.1225  0.0128
  387MOL0     C52138  10.693   8.977   1.912 -0.1817 -0.6987 -0.3426
  387MOL0     C52139  10.835   8.924   1.914  0.7795  0.2066 -0.5014
  387MOL0     O52140  10.914   8.982   2.008  0.6728 -0.0478 -0.1405
  387MOL0     C52141  11.036   8.921   2.022 -0.3606  0.1366  0.2926
  387MOL0     C52142  11.150   8.985   1.959  0.0937 -0.5052 -0.2896
  387MOL0     C52143  11.274   8.927   1.976 -0.3308  0.5692  0.0233
  387MOL0     C52144  11.295   8.808   2.049 -0.4680  0.3535  0.7673
  387MOL0     O52145  11.421   8.747   2.053  0.8125  0.1735 -0.0521
  387MOL0     C52146  11.495   8.793   2.165 -0.2836  0.6856 -1.0402
  387MOL0     C52147  11.643   8.762   2.135 -0.6194  1.5553  0.6160
  387MOL0     C52148  11.752   8.805   2.236 -0.1006  0.5600  0.8007
  387MOL0     C52149  11.781   8.951   2.237  0.0471 -1.9457  0.5044
  387MOL0     C52150  11.886   8.978   2.342 -0.5746  0.6555 -0.5496
  387MOL0     C52151  11.965   9.104   2.327 -0.0923 -0.1384 -0.7683
  387MOL0     C52152  12.084   9.083   2.231 -0.5544 -0.9087  0.9287
  387MOL0     C52153  12.131   9.221   2.197 -0.3263  0.3484  0.3202
  387MOL0    Cl52154  12.025   9.327   2.087 -0.1104  0.5591 -0.1359
  387MOL0     C52155  11.186   8.740   2.103  0.7078 -0.1385  0.0870
  387MOL0     C52156  11.051   8.791   2.087  0.2850 -0.1721  0.2510
  387MOL0     O52157  10.862   8.832   1.835 -0.1012 -0.4019  0.6094
  387MOL0     C52158  10.587   8.928   1.830 -1.0143 -0.5686  0.3115
  387MOL0     C52159  10.465   8.991   1.830  0.4795 -0.0244 -0.0442
  387MOL0     N52160   9.702   8.936   1.966  0.2889  0.5270  0.5129
  387MOL0     N52161   9.671   8.812   1.994 -0.2570  0.2937  0.2678
  387MOL0     C52162  10.655   8.391   2.589  0.1176  0.3023  0.7707
  387MOL0     C52163  10.730   8.275   2.603 -0.5436 -0.2754  0.2617
  387MOL0     C52164  10.835   7.818   2.585 -0.5855  0.1411  0.0816
  387MOL0     C52165  10.965   7.867   2.610  0.0476 -0.1698  0.4029
  387MOL0     C52166  11.081   7.778   2.617  0.7908 -0.1979  0.1640
  387MOL0     C52167  11.061   7.646   2.602 -0.2142  0.8373  0.1171
  387MOL0     O52168  11.161   7.547   2.603 -0.6062  0.0858  0.4718
  387MOL0     C52169  11.294   7.575   2.655  0.0135  0.0239 -0.3596
  387MOL0     C52170  11.287   7.591   2.807  0.8600  0.4737  0.8885
  387MOL0     C52171  11.428   7.624   2.859  1.0617  0.7158  0.3063
  387MOL0     C52172  11.418   7.651   3.013 -0.5520 -0.8820  0.0073
  387MOL0     C52173  11.397   7.533   3.097 -0.0120 -0.4273 -0.0892
  387MOL0     C52174  11.397   7.446   3.181  0.6805 -0.0705 -0.0262
  387MOL0     C52175  10.936   7.595   2.588  0.7147  0.0739  0.1938
  387MOL0     C52176  10.822   7.682   2.585  1.2220  0.4765 -0.1320
  387MOL0     C52177  10.696   7.611   2.603  0.8029 -0.6075 -0.3508
  387MOL0     H52178  10.524   8.065   2.423  0.3171 -1.1374  1.1665
  387MOL0     H52179  10.406   8.294   2.388  0.9903  1.9025  0.5506
  387MOL0     H52180  10.362   8.522   2.678  2.8600 -0.4674  3.4312
  387MOL0     H52181  10.513   8.606   2.671 -0.7255  0.1554  1.8230
  387MOL0     H52182  10.384   8.724   2.464 -0.6244 -2.3782  0.3448
  387MOL0     H52183  10.396   8.800   2.613 -2.2484  1.3686 -0.0932
  387MOL0     H52184  10.160   8.783   2.530  1.9381  1.2388  0.0779
  387MOL0     H52185  10.168   8.682   2.671  2.7613  0.2518  0.6191
  387MOL0     H52186  10.189   8.583   2.382 -2.1085 -1.2577 -0.5245
  387MOL0     H52187  10.187   8.471   2.520  1.4294 -1.4793 -2.7369
  387MOL0     H52188   9.963   8.472   2.462  1.4687 -0.1755  1.6901
  387MOL0     H52189   9.948   8.637   2.543  1.7920  5.0243 -2.9001
  387MOL0     H52190  10.007   8.723   2.293  1.0905  0.5827  0.3558
  387MOL0     H52191  10.001   8.568   2.241  2.3382  1.9973 -0.7674
  387MOL0     H52192   9.767   8.742   2.341 -3.2914 -1.8951  2.6023
  387MOL0     H52193   9.746   8.577   2.350 -1.4584  3.1138  0.9688
  387MOL0     H52194   9.850   8.582   2.094  2.2057  0.9271  1.5457
  387MOL0     H52195   9.677   8.600   2.126 -0.5738  2.0955 -0.6185
  387MOL0     H52196   9.945   8.878   2.163 -0.5537 -1.2265  2.6039
  387MOL0     H52197   9.846   9.179   1.962 -1.2562 -1.6482 -0.5931
  387MOL0     H52198   9.887   9.163   2.135  0.4397  2.9066 -1.1960
  387MOL0     H52199  10.096   9.019   2.049  3.3025  0.8474 -0.0486
  387MOL0     H52200  10.045   9.062   1.892  1.5923 -1.3308  0.8740
  387MOL0     H52201  10.050   9.292   2.072  0.0977 -1.4402  0.0589
  387MOL0     H52202  10.106   9.284   1.900  0.5942 -0.8774 -1.3252
  387MOL0     H52203  10.269   9.179   2.134 -3.7962  3.6915  2.0999
  387MOL0     H52204  10.316   9.307   2.029 -0.9821  0.5366 -1.4903
  387MOL0     H52205  10.512   9.224   2.061 -1.9243  1.4515 -2.6836
  387MOL0     H52206  10.732   9.129   2.070 -0.5879 -0.7084  0.3993
  387MOL0     H52207  11.140   9.084   1.914  1.4481 -0.1808  0.0968
  387MOL0     H52208  11.362   8.982   1.944  1.8779  1.0008  5.6232
  387MOL0     H52209  11.487   8.900   2.186  3.2830  0.2377  4.8581
  387MOL0     H52210  11.467   8.737   2.255 -2.5647  0.8102 -1.6163
  387MOL0     H52211  11.643   8.652   2.130  1.9179  1.4813  0.8244
  387MOL0     H52212  11.674   8.807   2.040  0.0987 -0.4875 -0.1945
  387MOL0     H52213  11.718   8.781   2.338 -0.4692  2.0125  1.0311
  387MOL0     H52214  11.845   8.749   2.218 -0.3021  0.9140 -1.6726
  387MOL0     H52215  11.695   9.018   2.243  2.0598  1.2051 -2.3052
  387MOL0     H52216  11.817   8.979   2.138  1.7623  0.2923  1.6527
  387MOL0     H52217  11.953   8.893   2.346  0.6859  1.5954  4.0342
  387MOL0     H52218  11.828   8.991   2.434  0.3408 -2.6470  0.6017
  387MOL0     H52219  11.889   9.169   2.282 -1.6803 -2.5718 -1.7955
  387MOL0     H52220  12.000   9.145   2.423  0.3875 -1.0163 -0.5639
  387MOL0     H52221  12.054   9.032   2.138  1.7636  2.4422 -1.9259
  387MOL0     H52222  12.170   9.029   2.272  0.3614  1.8556  2.8930
  387MOL0     H52223  12.146   9.275   2.291 -0.3727  2.5868 -0.8955
  387MOL0     H52224  12.215   9.209   2.129 -1.7475 -1.8630 -1.2026
  387MOL0     H52225  11.200   8.646   2.155 -1.9830 -1.3924 -1.2488
  387MOL0     H52226  10.965   8.732   2.118  0.7923 -1.6896 -1.0912
  387MOL0     H52227  10.625   8.852   1.762  1.6517  0.4449  0.5774
  387MOL0     H52228  10.390   8.952   1.763  2.1913 -2.3483 -0.7327
  387MOL0     H52229  10.682   8.480   2.646  3.8274  0.8882 -1.5297
  387MOL0     H52230  10.827   8.268   2.651 -1.1658 -2.3931  1.3573
  387MOL0     H52231  10.982   7.973   2.624  1.1118 -0.2386 -0.2237
  387MOL0     H52232  11.177   7.827   2.629  0.9004 -0.7562  1.9480
  387MOL0     H52233  11.335   7.667   2.611 -2.2659  2.0087  1.4316
  387MOL0     H52234  11.365   7.493   2.636 -1.3555 -1.5824  1.1298
  387MOL0     H52235  11.251   7.503   2.861 -4.3992  2.5337  1.2691
  387MOL0     H52236  11.225   7.677   2.833 -0.5220 -0.0630 -0.5097
  387MOL0     H52237  11.474   7.702   2.798  1.7768 -1.3543 -1.9725
  387MOL0     H52238  11.487   7.533   2.843 -2.1517 -1.3152 -0.9789
  387MOL0     H52239  11.504   7.698   3.062 -0.9204 -0.0310 -0.1465
  387MOL0     H52240  11.340   7.726   3.024  0.1194 -0.3816  1.6412
  387MOL0     H52241  11.404   7.364   3.250  3.2341  0.1585  0.0794
  387MOL0     H52242  10.925   7.487   2.580 -1.8385  0.3483 -1.1789
  387MOL0     H52243  10.702   7.505   2.626 -2.0487 -0.5411  1.1269
  387MOL0     H52244  10.622   7.649   2.674 -2.5151 -2.8354 -2.3582
  387MOL0     H52245  10.647   7.603   2.505  0.0535 -2.2712  0.1240
  388MOL0     O52246   2.047   1.283   2.756 -0.4233 -0.2336 -0.1460
  388MOL0     C52247   2.105   1.348   2.672  0.2839 -0.9014  0.3130
  388MOL0     O52248   2.047   1.438   2.580  0.7031 -0.3039 -0.1261
  388MOL0     C52249   1.914   1.441   2.547  0.2331 -0.9934 -0.0692
  388MOL0     C52250   1.819   1.501   2.633  0.4371  0.2493 -0.5175
  388MOL0     C52251   1.691   1.537   2.589 -0.8666 -0.1087 -0.2088
  388MOL0     C52252   1.655   1.507   2.452  0.5385  0.5570 -0.8310
  388MOL0     O52253   1.527   1.548   2.418  0.0663  0.4103 -0.5381
  388MOL0     C52254   1.489   1.507   2.289 -0.6910 -1.0384  0.0226
  388MOL0     C52255   1.338   1.503   2.296 -0.4589 -0.0051  0.1501
  388MOL0     C52256   1.267   1.635   2.282  0.1113  0.7652 -0.1255
  388MOL0     C52257   1.251   1.709   2.148 -0.6661  0.6158 -0.0673
  388MOL0     C52258   1.169   1.834   2.163  0.4512 -1.2907  0.2331
  388MOL0     C52259   1.180   1.920   2.033 -0.4926  1.4544  0.1144
  388MOL0     C52260   1.078   2.038   2.068 -0.0620 -0.0309  0.9265
  388MOL0     C52261   0.982   2.090   1.961 -0.2567  0.7895 -0.2202
  388MOL0     N52262   0.899   1.989   1.899 -0.5321  0.0346 -0.0412
  388MOL0     C52263   0.812   1.913   1.969 -0.2136 -0.8763 -0.7315
  388MOL0     C52264   0.712   1.882   1.884 -0.4351  0.2315 -0.2277
  388MOL0     C52265   0.575   1.819   1.906  0.3203 -0.4557  0.5158
  388MOL0     C52266   0.458   1.903   1.836 -0.0578  0.0639  0.4116
  388MOL0     C52267   0.324   1.832   1.851  0.2345  0.2293 -0.0694
  388MOL0     C52268   0.202   1.931   1.854 -0.0027  0.2723 -0.5011
  388MOL0     O52269   0.188   1.964   1.996  0.1349  0.5357 -0.8214
  388MOL0     C52270   0.093   1.892   2.068  0.1800  0.1508 -0.5949
  388MOL0     C52271   0.036   1.766   2.037 -0.5414 -0.2978 -0.5073
  388MOL0     C52272  -0.038   1.696   2.128  0.1459  0.2201 -0.2003
  388MOL0     C52273  -0.060   1.752   2.254 -0.8070 -0.2025 -1.0956
  388MOL0     C52274  -0.140   1.677   2.352 -0.1072 -0.4858 -0.3550
  388MOL0     O52275  -0.272   1.700   2.365 -0.5614 -0.4212  0.1535
  388MOL0     C52276  -0.362   1.608   2.399 -0.3790  0.1324  0.8530
  388MOL0     C52277  -0.483   1.666   2.454 -0.1457 -0.1082  0.5859
  388MOL0     C52278  -0.587   1.576   2.487  1.0524 -0.6878 -0.4497
  388MOL0     C52279  -0.577   1.438   2.471 -0.0991  0.7967  0.2182
  388MOL0     O52280  -0.685   1.359   2.502  0.4562  0.4609 -0.5696
  388MOL0     C52281  -0.764   1.343   2.381  0.6383 -0.0878 -0.2949
  388MOL0     C52282  -0.910   1.313   2.432  0.0248 -0.3765  1.0153
  388MOL0     C52283  -0.932   1.175   2.492 -0.1844  0.7874  0.2431
  388MOL0     C52284  -0.898   1.052   2.396  1.1044 -0.3954 -0.5108
  388MOL0     C52285  -0.968   0.921   2.419  0.4769 -0.5224  0.2350
  388MOL0     C52286  -0.900   0.838   2.533 -1.1230  0.6878 -0.4750
  388MOL0     C52287  -0.970   0.705   2.555  0.9778 -0.4926 -0.2416
  388MOL0     C52288  -1.118   0.714   2.587 -1.3332 -0.7597 -0.0816
  388MOL0    Cl52289  -1.149   0.854   2.690 -0.2906 -0.3912 -0.0631
  388MOL0     C52290  -0.459   1.380   2.424 -0.5804  0.4845 -0.3074
  388MOL0     C52291  -0.353   1.465   2.377 -0.5511  0.3566 -0.3619
  388MOL0     O52292  -0.083   1.581   2.397 -0.1259  0.3575  0.5145
  388MOL0     C52293   0.000   1.872   2.288 -0.2152  0.6921 -0.4704
  388MOL0     C52294   0.074   1.944   2.198  0.7773  0.6603 -0.6198
  388MOL0     N52295   0.751   1.924   1.760  0.1464 -0.2676  0.3061
  388MOL0     N52296   0.866   1.982   1.772  0.2457  0.1923  0.2230
  388MOL0     C52297   1.755   1.442   2.377 -0.1648  1.2974 -0.1042
  388MOL0     C52298   1.875   1.413   2.423 -0.4045  0.0255 -0.5908
  388MOL0     C52299   2.258   1.349   2.666  0.2908 -1.1553 -0.7443
  388MOL0     C52300   2.299   1.355   2.532  0.9211  1.1758 -0.1034
  388MOL0     C52301   2.433   1.377   2.510 -0.5823 -0.3149 -0.7897
  388MOL0     C52302   2.530   1.380   2.608 -0.2124 -0.1390  0.2642
  388MOL0     O52303   2.659   1.382   2.564  0.4551  0.7599 -0.3013
  388MOL0     C52304   2.768   1.339   2.650  0.7791 -0.5543 -0.5041
  388MOL0     C52305   2.897   1.340   2.576  0.4430 -0.1264 -0.3915
  388MOL0     C52306   3.012   1.291   2.662  0.1265 -0.2429 -0.3736
  388MOL0     C52307   3.031   1.338   2.810 -0.7258  1.1596 -0.6862
  388MOL0     C52308   3.165   1.306   2.869 -0.4197  0.4439 -0.8301
  388MOL0     C52309   3.282   1.290   2.913 -0.0171  0.2406 -0.1734
  388MOL0     C52310   2.487   1.367   2.742 -0.4124 -0.0397  0.9961
  388MOL0     C52311   2.353   1.340   2.772  0.5307  0.2241  0.3559
  388MOL0     C52312   2.313   1.314   2.910  0.2989  0.1760 -0.0930
  388MOL0     H52313   1.844   1.543   2.730  0.6709  2.3208 -1.4344
  388MOL0     H52314   1.624   1.596   2.650  2.0934  1.8236  1.3842
  388MOL0     H52315   1.516   1.577   2.209  2.6103 -3.7298 -1.4628
  388MOL0     H52316   1.517   1.408   2.253 -4.2568 -1.9273 -0.6545
  388MOL0     H52317   1.309   1.462   2.393 -1.8886 -0.7114 -0.5435
  388MOL0     H52318   1.304   1.435   2.218  0.0597 -1.5723  1.2454
  388MOL0     H52319   1.304   1.707   2.356  1.0462  4.3614 -3.7396
  388MOL0     H52320   1.171   1.618   2.331  0.0605 -0.1634 -0.5265
  388MOL0     H52321   1.349   1.734   2.107  0.7796 -1.8981  1.5754
  388MOL0     H52322   1.197   1.647   2.076 -3.2502  0.2333  2.0436
  388MOL0     H52323   1.068   1.804   2.190 -0.2343  1.4536  1.0327
  388MOL0     H52324   1.208   1.886   2.251 -0.0201  1.6054 -1.1400
  388MOL0     H52325   1.283   1.951   2.015 -0.4520  2.7059  2.1558
  388MOL0     H52326   1.149   1.864   1.944 -0.2451 -0.7451  1.3374
  388MOL0     H52327   1.139   2.127   2.090  0.3070  0.5574 -2.0318
  388MOL0     H52328   1.018   2.014   2.156 -0.0878  0.7845  1.1434
  388MOL0     H52329   0.919   2.167   2.007 -1.1129 -0.3258  0.5124
  388MOL0     H52330   1.038   2.153   1.891  2.2823  0.3913  1.3227
  388MOL0     H52331   0.805   1.889   2.075  1.6520  1.4769 -0.0025
  388MOL0     H52332   0.596   1.718   1.868  4.8635  0.3765  0.2161
  388MOL0     H52333   0.560   1.805   2.013  2.0660 -1.0599  0.7104
  388MOL0     H52334   0.446   1.996   1.892 -0.2819 -0.0748  0.5981
  388MOL0     H52335   0.471   1.931   1.732 -1.9997 -0.5219 -0.0231
  388MOL0     H52336   0.329   1.772   1.943  2.8126 -1.3316 -1.1045
  388MOL0     H52337   0.314   1.775   1.758  1.1284  1.9885 -1.2800
  388MOL0     H52338   0.113   1.887   1.807 -0.5602  2.5901 -1.7972
  388MOL0     H52339   0.233   2.021   1.801  1.6851  1.0684  1.7145
  388MOL0     H52340   0.051   1.735   1.935 -3.3445 -1.8750 -0.5254
  388MOL0     H52341  -0.097   1.607   2.110 -3.5708  2.1774  1.1083
  388MOL0     H52342  -0.498   1.773   2.461  0.0021 -0.0001 -0.6224
  388MOL0     H52343  -0.678   1.618   2.530  1.1308 -0.9985  0.0367
  388MOL0     H52344  -0.763   1.432   2.318 -0.7087  2.0956  2.5150
  388MOL0     H52345  -0.735   1.260   2.316 -1.2497 -0.6689 -0.4628
  388MOL0     H52346  -0.945   1.394   2.497  0.2131 -1.2301  2.2284
  388MOL0     H52347  -0.968   1.306   2.340 -1.3879 -0.2526  1.8570
  388MOL0     H52348  -0.881   1.169   2.588 -1.5544 -0.7234  0.9316
  388MOL0     H52349  -1.039   1.166   2.512 -0.5247  1.5238 -1.1096
  388MOL0     H52350  -0.794   1.023   2.382  0.4811 -1.5784 -3.3593
  388MOL0     H52351  -0.945   1.077   2.301 -0.4506  0.8613  0.5445
  388MOL0     H52352  -0.975   0.863   2.327 -2.5607 -0.9527  0.6548
  388MOL0     H52353  -1.068   0.955   2.447 -0.2949  0.4382 -3.1780
  388MOL0     H52354  -0.798   0.809   2.508  0.1937  2.2660  2.5570
  388MOL0     H52355  -0.899   0.905   2.620 -1.3185  1.1131 -0.7938
  388MOL0     H52356  -0.928   0.664   2.648  4.0753  2.4576 -0.1209
  388MOL0     H52357  -0.953   0.637   2.472 -0.0262  1.0496 -1.7734
  388MOL0     H52358  -1.171   0.734   2.493  0.0931  0.1952 -0.7121
  388MOL0     H52359  -1.165   0.628   2.635 -0.9586 -1.3879 -0.8287
  388MOL0     H52360  -0.444   1.274   2.407  0.4989  1.0661 -3.9632
  388MOL0     H52361  -0.265   1.417   2.334 -2.2698  0.8403 -4.9490
  388MOL0     H52362   0.012   1.914   2.387  0.5533  4.5548 -2.0256
  388MOL0     H52363   0.122   2.033   2.236  3.6189 -1.8282  2.1471
  388MOL0     H52364   1.750   1.416   2.271  4.0205 -0.0388 -0.1661
  388MOL0     H52365   1.941   1.361   2.355  0.7395 -0.6941  1.0072
  388MOL0     H52366   2.220   1.338   2.458 -1.0824 -1.5627  2.4055
  388MOL0     H52367   2.486   1.391   2.416 -0.8581  0.8252 -0.7986
  388MOL0     H52368   2.739   1.247   2.702  2.9252 -0.9918  0.0407
  388MOL0     H52369   2.787   1.406   2.735  0.9490  0.1269 -1.0664
  388MOL0     H52370   2.924   1.441   2.545  2.9868 -1.1354 -1.7772
  388MOL0     H52371   2.885   1.273   2.490 -4.7073 -1.1947  0.8114
  388MOL0     H52372   3.105   1.326   2.617  0.4857  1.1227  1.3027
  388MOL0     H52373   3.003   1.182   2.671 -0.0829 -0.0687  4.6680
  388MOL0     H52374   3.029   1.447   2.800  2.1245  1.2934 -0.4650
  388MOL0     H52375   2.951   1.297   2.873 -1.9403  1.4207 -2.0044
  388MOL0     H52376   3.381   1.284   2.953 -1.3087 -1.2896  3.2141
  388MOL0     H52377   2.567   1.375   2.815 -1.0111  2.3064  1.4855
  388MOL0     H52378   2.396   1.343   2.974  0.0790  0.2599  0.1526
  388MOL0     H52379   2.232   1.378   2.945  0.3089  1.4688 -2.2439
  388MOL0     H52380   2.286   1.208   2.917  2.4416 -0.4068  0.1207
  389MOL0     O52381   0.017   1.272   8.704 -0.5702  0.3136 -0.6656
  389MOL0     C52382  -0.053   1.210   8.635  0.0658 -0.0497 -0.2495
  389MOL0     O52383  -0.096   1.077   8.657 -0.2364 -0.7334 -0.1036
  389MOL0     C52384  -0.059   1.027   8.782 -0.2015  0.8975 -0.6192
  389MOL0     C52385   0.066   0.962   8.800 -0.6486  0.2412  0.6486
  389MOL0     C52386   0.089   0.906   8.923  0.6577 -0.3720  0.1965
  389MOL0     C52387  -0.005   0.927   9.028  0.2890 -0.7759 -0.4247
  389MOL0     O52388   0.021   0.905   9.159  0.3604  0.8712  0.3800
  389MOL0     C52389   0.126   0.810   9.188 -0.0491 -0.6622 -0.1686
  389MOL0     C52390   0.135   0.809   9.338  0.9533 -0.0635 -0.6539
  389MOL0     C52391   0.165   0.943   9.406 -0.7121 -1.0383  0.4259
  389MOL0     C52392   0.128   0.953   9.555 -0.8138 -0.0830 -0.7444
  389MOL0     C52393   0.245   0.899   9.643  0.8486 -0.9444  1.1867
  389MOL0     C52394   0.188   0.853   9.783 -0.3635 -0.2988  0.1434
  389MOL0     C52395   0.146   0.702   9.779 -0.4570  0.8353  0.0076
  389MOL0     C52396   0.068   0.661   9.901 -0.1530  0.7589  0.2170
  389MOL0     N52397   0.010   0.525   9.894 -0.5651  0.4667  0.0700
  389MOL0     C52398  -0.126   0.510   9.874 -0.1059 -1.1631 -0.2508
  389MOL0     C52399  -0.146   0.376   9.854  0.2728 -0.3774  0.0847
  389MOL0     C52400  -0.283   0.314   9.847 -1.1089  0.8586 -0.2310
  389MOL0     C52401  -0.359   0.336   9.715  0.3035 -0.9389  0.3164
  389MOL0     C52402  -0.507   0.334   9.741  0.2121  0.6188 -0.3705
  389MOL0     C52403  -0.586   0.318   9.612 -0.7401  0.5971 -1.3498
  389MOL0     O52404  -0.712   0.268   9.645  0.7672  0.2526  0.1872
  389MOL0     C52405  -0.820   0.341   9.608 -0.8861 -0.3107  0.1070
  389MOL0     C52406  -0.899   0.319   9.496  0.7798  0.6431  0.1164
  389MOL0     C52407  -1.015   0.387   9.466  0.0180  0.3037  0.4219
  389MOL0     C52408  -1.055   0.494   9.550  0.3596 -0.4878  0.0682
  389MOL0     C52409  -1.172   0.582   9.500 -0.9154  0.4279 -0.5848
  389MOL0     O52410  -1.192   0.701   9.568 -0.5125 -0.2609 -0.2443
  389MOL0     C52411  -1.289   0.792   9.527 -0.6210 -0.5198  0.8141
  389MOL0     C52412  -1.418   0.771   9.565 -0.0530 -0.2555 -0.6139
  389MOL0     C52413  -1.521   0.860   9.536  0.3785 -0.4279 -1.1167
  389MOL0     C52414  -1.490   0.970   9.456 -0.5299 -0.8433 -0.4534
  389MOL0     O52415  -1.596   1.047   9.433 -0.0025  0.0689  0.8593
  389MOL0     C52416  -1.684   1.007   9.334 -0.3493 -1.3031  0.3888
  389MOL0     C52417  -1.603   0.995   9.200 -0.2760 -0.3058 -0.2364
  389MOL0     C52418  -1.533   1.127   9.152  0.5447 -0.0009 -0.6910
  389MOL0     C52419  -1.466   1.110   9.011 -0.2684 -0.3555 -0.4552
  389MOL0     C52420  -1.371   1.213   8.960 -0.3858 -0.2733  0.9036
  389MOL0     C52421  -1.437   1.348   8.948  0.1827  0.0842 -0.0721
  389MOL0     C52422  -1.328   1.460   8.916  0.4001 -0.0152  0.0385
  389MOL0     C52423  -1.404   1.591   8.932  0.2345 -0.5339 -0.7075
  389MOL0    Cl52424  -1.528   1.616   8.784 -0.0463  0.1099 -0.6446
  389MOL0     C52425  -1.355   0.993   9.412  1.0917 -0.2096 -0.2438
  389MOL0     C52426  -1.258   0.898   9.436 -0.5944 -0.2692  0.1436
  389MOL0     O52427  -1.249   0.524   9.430  0.3794  0.2051  0.4703
  389MOL0     C52428  -0.978   0.522   9.665  0.7331  0.0825 -0.1304
  389MOL0     C52429  -0.861   0.452   9.687 -0.5102 -0.2083 -0.7063
  389MOL0     N52430  -0.032   0.311   9.862  0.2758  0.1866  0.3956
  389MOL0     N52431   0.067   0.395   9.880  0.0011  0.6870 -0.4476
  389MOL0     C52432  -0.106   1.001   9.016 -0.7547 -0.5578  0.3192
  389MOL0     C52433  -0.144   1.053   8.894 -0.6733  0.3382 -0.6169
  389MOL0     C52434  -0.105   1.291   8.521 -0.6081 -0.3362 -0.4455
  389MOL0     C52435  -0.248   1.300   8.507 -0.7727 -0.9693 -0.3369
  389MOL0     C52436  -0.298   1.372   8.396  0.0680 -0.5549  0.1854
  389MOL0     C52437  -0.211   1.441   8.309 -0.4863 -0.8052  0.3264
  389MOL0     O52438  -0.274   1.511   8.207 -0.7589  0.5838  0.0042
  389MOL0     C52439  -0.342   1.431   8.105  0.2454 -1.0683 -0.5316
  389MOL0     C52440  -0.271   1.309   8.062  0.1282  0.5305  0.2752
  389MOL0     C52441  -0.292   1.272   7.915 -0.1280  1.0752 -0.6607
  389MOL0     C52442  -0.440   1.234   7.904 -0.2867 -0.7060  0.2978
  389MOL0     C52443  -0.463   1.175   7.775 -0.7022  0.8645  0.8570
  389MOL0     C52444  -0.487   1.128   7.659 -0.6556 -0.4376 -1.5300
  389MOL0     C52445  -0.072   1.436   8.324  1.0150 -0.5986  0.3909
  389MOL0     C52446  -0.019   1.362   8.433 -0.5477  0.9710  1.0647
  389MOL0     C52447   0.130   1.341   8.427  0.2410  0.3343  0.6424
  389MOL0     H52448   0.135   0.945   8.718 -0.5285  0.4361  0.7078
  389MOL0     H52449   0.183   0.859   8.946  1.1447  0.4511 -0.0382
  389MOL0     H52450   0.094   0.711   9.155 -1.7886 -0.2076  0.0528
  389MOL0     H52451   0.219   0.837   9.137  0.9207 -0.6194  1.5287
  389MOL0     H52452   0.211   0.733   9.355  0.9145 -0.3352 -1.6358
  389MOL0     H52453   0.045   0.766   9.382  0.3602 -0.3798 -2.1153
  389MOL0     H52454   0.109   1.017   9.349  0.2557  0.3726  1.2424
  389MOL0     H52455   0.271   0.965   9.393 -0.8659 -0.6567 -0.1986
  389MOL0     H52456   0.124   1.061   9.567 -1.0825 -0.2712  1.1725
  389MOL0     H52457   0.032   0.905   9.576  0.3430 -1.2777  2.3281
  389MOL0     H52458   0.293   0.817   9.588  2.9685  0.2651  1.1032
  389MOL0     H52459   0.331   0.967   9.650  0.6794 -0.0393 -2.9263
  389MOL0     H52460   0.263   0.868   9.861  0.6531  3.8734 -1.3833
  389MOL0     H52461   0.103   0.917   9.808 -0.8523  0.0013 -2.1064
  389MOL0     H52462   0.227   0.632   9.757  0.5874  0.8118  3.3934
  389MOL0     H52463   0.076   0.694   9.695 -1.1974  2.3420  0.4477
  389MOL0     H52464   0.138   0.657   9.985 -0.1239  0.3448  0.1726
  389MOL0     H52465  -0.013   0.730   9.928 -0.1321  0.9674 -0.2468
  389MOL0     H52466  -0.198   0.591   9.884  1.8935  0.8165 -1.1083
  389MOL0     H52467  -0.273   0.205   9.850  0.6559  0.9832 -0.5760
  389MOL0     H52468  -0.338   0.353   9.933  1.2582 -0.8807  2.2035
  389MOL0     H52469  -0.327   0.434   9.679  0.6501  0.3948  3.9225
  389MOL0     H52470  -0.328   0.261   9.641  0.7041  0.9205 -1.5113
  389MOL0     H52471  -0.542   0.428   9.785 -1.6526  0.9588 -2.4204
  389MOL0     H52472  -0.546   0.244   9.788 -5.7024  1.3531 -3.0745
  389MOL0     H52473  -0.521   0.246   9.562  2.3781  1.4577  1.1366
  389MOL0     H52474  -0.584   0.409   9.551 -0.4835  1.4146 -0.1629
  389MOL0     H52475  -0.878   0.222   9.452 -0.8057  1.2278 -2.1765
  389MOL0     H52476  -1.068   0.363   9.374  0.9106  0.4279 -0.1397
  389MOL0     H52477  -1.435   0.692   9.636  3.0665  0.7095  1.4328
  389MOL0     H52478  -1.623   0.835   9.561 -0.1050  0.3587 -2.2244
  389MOL0     H52479  -1.727   0.909   9.352 -2.2259 -1.5038 -3.9531
  389MOL0     H52480  -1.770   1.074   9.323  0.8105  0.1247 -0.4540
  389MOL0     H52481  -1.513   0.933   9.214  1.8123  2.6421  0.4195
  389MOL0     H52482  -1.675   0.976   9.121 -1.8564  1.3667  0.7191
  389MOL0     H52483  -1.612   1.203   9.146  0.0786 -0.3866  0.4331
  389MOL0     H52484  -1.455   1.160   9.222 -2.3042  1.6366  1.9572
  389MOL0     H52485  -1.539   1.106   8.931 -2.7692  5.5420  0.9568
  389MOL0     H52486  -1.417   1.012   9.013 -0.5760 -0.5890  3.2497
  389MOL0     H52487  -1.338   1.185   8.860 -2.1727 -1.6750  0.6419
  389MOL0     H52488  -1.291   1.221   9.035 -0.3493 -1.1761  0.9658
  389MOL0     H52489  -1.514   1.341   8.871  0.0599  1.8279 -0.1565
  389MOL0     H52490  -1.479   1.372   9.047  0.9282 -0.3877  0.3692
  389MOL0     H52491  -1.285   1.462   8.815 -0.1906  2.0830 -0.2218
  389MOL0     H52492  -1.250   1.448   8.991 -1.9207 -0.4689  2.5530
  389MOL0     H52493  -1.463   1.604   9.023  2.2723 -0.3269  0.6605
  389MOL0     H52494  -1.321   1.660   8.950  0.1846 -1.1524  2.5923
  389MOL0     H52495  -1.319   1.076   9.351  2.8435  0.3543  1.4371
  389MOL0     H52496  -1.161   0.897   9.387 -0.8797 -0.0349 -0.4253
  389MOL0     H52497  -1.015   0.594   9.737  1.5659 -1.5617  2.0553
  389MOL0     H52498  -0.796   0.470   9.773  2.3517 -2.3136 -2.2411
  389MOL0     H52499  -0.161   1.026   9.106  1.1138 -0.2106  1.4186
  389MOL0     H52500  -0.233   1.114   8.875  0.8960  3.2482  0.7004
  389MOL0     H52501  -0.316   1.251   8.576 -3.3546  2.2865 -0.3494
  389MOL0     H52502  -0.405   1.394   8.389  0.7386  3.0289 -1.6384
  389MOL0     H52503  -0.356   1.505   8.026  0.0380 -1.0182 -0.4470
  389MOL0     H52504  -0.444   1.402   8.132 -0.9180  1.9874 -1.3101
  389MOL0     H52505  -0.298   1.223   8.124  0.0898  0.2442 -0.1369
  389MOL0     H52506  -0.162   1.323   8.068  0.4663 -1.9834  1.7616
  389MOL0     H52507  -0.228   1.187   7.893  0.6176  1.0662  1.3116
  389MOL0     H52508  -0.267   1.354   7.847 -0.8621 -1.0291 -3.6556
  389MOL0     H52509  -0.470   1.165   7.984 -2.0877 -1.5057 -0.9948
  389MOL0     H52510  -0.498   1.327   7.900  0.2677 -0.3847 -0.6022
  389MOL0     H52511  -0.521   1.086   7.566 -2.5173  1.1077 -1.6216
  389MOL0     H52512  -0.008   1.485   8.250 -1.2017 -3.0205 -3.4683
  389MOL0     H52513   0.154   1.235   8.424  0.6802  0.4249 -1.8996
  389MOL0     H52514   0.172   1.379   8.333  0.6243 -3.8725 -1.0901
  389MOL0     H52515   0.178   1.387   8.514 -0.4639 -0.1053  1.2758
  390MOL0     O52516   6.072   3.546   2.613  0.6414 -0.6324 -0.7493
  390MOL0     C52517   6.144   3.594   2.696  0.9794  0.5178  0.3911
  390MOL0     O52518   6.131   3.578   2.837 -0.8380 -0.5891 -0.1457
  390MOL0     C52519   6.006   3.555   2.901  0.0490 -0.5179  0.2623
  390MOL0     C52520   5.998   3.459   3.002 -0.6946  0.0053 -0.2670
  390MOL0     C52521   5.877   3.434   3.065 -1.0292  0.1002 -0.8267
  390MOL0     C52522   5.769   3.516   3.041 -0.4818  0.5638 -0.6027
  390MOL0     O52523   5.653   3.512   3.115  0.1805  0.3162 -1.1868
  390MOL0     C52524   5.638   3.413   3.214  0.1979  0.0940  0.7413
  390MOL0     C52525   5.506   3.420   3.293 -0.2838 -0.3069  0.3533
  390MOL0     C52526   5.384   3.382   3.211 -0.3260  0.1024 -0.2176
  390MOL0     C52527   5.273   3.369   3.321 -0.3861  0.0406  0.0866
  390MOL0     C52528   5.136   3.372   3.240  0.3733 -0.6208 -0.4252
  390MOL0     C52529   5.016   3.298   3.325  1.4232  0.3334 -0.4254
  390MOL0     C52530   4.889   3.322   3.250 -0.5664  0.4096 -1.3679
  390MOL0     C52531   4.760   3.264   3.313 -0.4613  0.2494 -0.2068
  390MOL0     N52532   4.758   3.117   3.309  0.2062  0.5418  0.4096
  390MOL0     C52533   4.689   3.039   3.218  0.5969  0.2870  0.2419
  390MOL0     C52534   4.706   2.909   3.261 -0.5100 -0.5789 -0.0228
  390MOL0     C52535   4.640   2.788   3.205 -0.2151 -0.3988  0.5825
  390MOL0     C52536   4.494   2.805   3.169  0.2158  0.1622 -0.6207
  390MOL0     C52537   4.407   2.680   3.137  0.7825 -0.1060 -1.1171
  390MOL0     C52538   4.265   2.720   3.121  0.3403 -0.6599  0.1278
  390MOL0     O52539   4.256   2.798   2.998  0.0924 -0.4361  0.3095
  390MOL0     C52540   4.134   2.866   2.993 -1.3003  0.0817  0.4109
  390MOL0     C52541   4.092   2.965   3.084  0.3162 -1.3393 -0.2687
  390MOL0     C52542   3.964   3.018   3.066  0.3797  0.7459 -0.4100
  390MOL0     C52543   3.877   2.985   2.955 -0.3975  0.4174 -0.3145
  390MOL0     C52544   3.743   3.047   2.928 -0.1407 -0.1320  0.4674
  390MOL0     O52545   3.676   3.015   2.814 -0.5043 -0.0535  0.2971
  390MOL0     C52546   3.559   3.080   2.779 -0.0159 -0.5968  0.4046
  390MOL0     C52547   3.564   3.193   2.696 -0.7501  0.3122  0.8781
  390MOL0     C52548   3.444   3.254   2.656  0.4922  0.6249 -0.3833
  390MOL0     C52549   3.320   3.193   2.695 -0.7980 -0.6224  0.0183
  390MOL0     O52550   3.211   3.260   2.649 -0.4900  0.2560  0.4905
  390MOL0     C52551   3.100   3.270   2.737  0.5101 -0.1969  0.1195
  390MOL0     C52552   2.997   3.378   2.680  0.6061  0.6278  0.4051
  390MOL0     C52553   2.919   3.440   2.797 -1.0131  0.0988  0.9667
  390MOL0     C52554   2.818   3.345   2.841  0.3613 -0.9578  0.2789
  390MOL0     C52555   2.747   3.380   2.973 -0.1120 -0.9293 -1.2306
  390MOL0     C52556   2.696   3.515   2.978  0.2949 -0.5775 -0.4563
  390MOL0     C52557   2.569   3.544   2.901 -0.4479  1.0370  0.1983
  390MOL0     C52558   2.573   3.668   2.821  0.3802  0.0694  0.6156
  390MOL0    Cl52559   2.607   3.805   2.932 -0.4088  0.3810  0.0052
  390MOL0     C52560   3.317   3.076   2.774 -0.2715  0.1791 -0.5087
  390MOL0     C52561   3.441   3.026   2.820 -0.0223  0.9806  0.6401
  390MOL0     O52562   3.696   3.108   3.027  0.0502  0.4178  0.3255
  390MOL0     C52563   3.934   2.895   2.861 -0.0879  0.8385  0.3935
  390MOL0     C52564   4.057   2.835   2.879 -0.2827  0.7539 -0.1637
  390MOL0     N52565   4.787   2.911   3.378  0.6192  0.2239  1.1933
  390MOL0     N52566   4.818   3.032   3.397 -0.0784 -0.9975  0.8927
  390MOL0     C52567   5.787   3.618   2.950  0.7752  0.8284 -1.4849
  390MOL0     C52568   5.897   3.637   2.878  1.1631 -0.8290 -0.5666
  390MOL0     C52569   6.258   3.667   2.652  0.0010  0.0532 -0.0712
  390MOL0     C52570   6.265   3.793   2.713 -0.6623  0.7533  0.2200
  390MOL0     C52571   6.362   3.889   2.680  1.2512  0.6339  0.2830
  390MOL0     C52572   6.456   3.857   2.583  0.1871 -0.3340  0.4791
  390MOL0     O52573   6.553   3.940   2.541  0.0187 -0.2291 -0.4218
  390MOL0     C52574   6.513   4.068   2.491  0.1491  0.2575  0.5140
  390MOL0     C52575   6.491   4.063   2.337 -0.2068  0.1255 -1.1483
  390MOL0     C52576   6.608   3.997   2.255 -0.4792 -0.4611  0.6333
  390MOL0     C52577   6.606   4.028   2.103  0.0433  0.0804  0.4236
  390MOL0     C52578   6.707   3.933   2.041 -0.0646 -1.1844 -0.4401
  390MOL0     C52579   6.775   3.848   1.997 -0.2711 -0.6633 -0.3288
  390MOL0     C52580   6.454   3.728   2.528 -0.0143  0.0650  0.8213
  390MOL0     C52581   6.350   3.639   2.553  0.1472  0.1447 -0.3744
  390MOL0     C52582   6.329   3.516   2.470 -0.2591  0.1019  0.3654
  390MOL0     H52583   6.076   3.387   3.027  0.2805  1.4084  0.8454
  390MOL0     H52584   5.866   3.344   3.125  0.5235 -0.4127 -1.2564
  390MOL0     H52585   5.635   3.317   3.160 -0.5497  0.6912 -0.3165
  390MOL0     H52586   5.722   3.418   3.284  0.0968  0.0457  0.8659
  390MOL0     H52587   5.501   3.524   3.325  1.0005 -0.1107 -0.0163
  390MOL0     H52588   5.523   3.360   3.383 -1.5950 -0.1851  0.6986
  390MOL0     H52589   5.413   3.288   3.164  1.7607  0.8759 -0.6011
  390MOL0     H52590   5.361   3.462   3.140 -0.1947  0.9745  0.6936
  390MOL0     H52591   5.291   3.280   3.381  1.7510  2.1013  2.7150
  390MOL0     H52592   5.275   3.450   3.394 -0.7935 -0.3272  0.5099
  390MOL0     H52593   5.105   3.477   3.232  1.0850 -0.0439  3.0294
  390MOL0     H52594   5.149   3.312   3.149  1.5817 -1.2678  0.1540
  390MOL0     H52595   5.043   3.192   3.330  0.6357  0.1791  1.9911
  390MOL0     H52596   5.012   3.341   3.426 -1.5870 -0.0714 -0.2862
  390MOL0     H52597   4.900   3.280   3.150 -1.9780  1.4725 -2.0186
  390MOL0     H52598   4.875   3.431   3.245 -1.3765  0.5151  1.4803
  390MOL0     H52599   4.759   3.299   3.417 -0.1607  1.1753 -0.5009
  390MOL0     H52600   4.675   3.305   3.259 -2.9551 -2.3991  1.4326
  390MOL0     H52601   4.647   3.083   3.128  1.4285  1.6094  0.4696
  390MOL0     H52602   4.700   2.760   3.118 -2.1122 -0.5833 -0.7118
  390MOL0     H52603   4.642   2.710   3.282 -3.0218 -0.4294  0.7072
  390MOL0     H52604   4.449   2.872   3.242  1.2936  3.3397 -2.6730
  390MOL0     H52605   4.492   2.868   3.080  2.8392 -0.1046 -0.9561
  390MOL0     H52606   4.409   2.614   3.225 -0.8928  1.1590 -0.0625
  390MOL0     H52607   4.439   2.630   3.045 -0.1652  0.4948 -1.7878
  390MOL0     H52608   4.234   2.785   3.203  0.2847  1.1453 -1.2843
  390MOL0     H52609   4.206   2.628   3.132  1.9067 -1.5101  2.3039
  390MOL0     H52610   4.146   2.992   3.175 -0.7935 -0.2466  0.0949
  390MOL0     H52611   3.922   3.062   3.155  0.5662  2.5187 -1.1612
  390MOL0     H52612   3.662   3.235   2.673 -0.1784 -1.6105 -0.4887
  390MOL0     H52613   3.458   3.345   2.598  1.1270 -1.4448 -3.7143
  390MOL0     H52614   3.050   3.174   2.751  0.3924 -0.4492 -1.7520
  390MOL0     H52615   3.137   3.301   2.835  2.2985  0.9073 -0.8592
  390MOL0     H52616   3.055   3.460   2.638  3.7654 -1.2592  0.7960
  390MOL0     H52617   2.923   3.335   2.613 -0.0449  1.6591  0.4255
  390MOL0     H52618   2.984   3.477   2.876 -1.0830 -0.0123  1.0771
  390MOL0     H52619   2.868   3.529   2.758  0.3798 -0.2648 -1.9919
  390MOL0     H52620   2.856   3.243   2.839  0.9215 -0.7444 -0.1774
  390MOL0     H52621   2.735   3.352   2.770 -0.7416  4.3510  1.6015
  390MOL0     H52622   2.809   3.370   3.063 -1.8726 -3.4804 -0.1596
  390MOL0     H52623   2.659   3.316   2.990 -1.0784  1.1092  2.6220
  390MOL0     H52624   2.669   3.542   3.081 -0.6962 -0.1342 -0.8238
  390MOL0     H52625   2.774   3.584   2.944 -2.2078  1.7207 -1.9337
  390MOL0     H52626   2.485   3.548   2.970 -0.2400  1.0063  0.4537
  390MOL0     H52627   2.559   3.460   2.832  2.1578 -0.6478  1.7361
  390MOL0     H52628   2.661   3.657   2.758  1.0841 -0.0649  1.6077
  390MOL0     H52629   2.488   3.690   2.755  1.6229  0.3189 -0.9642
  390MOL0     H52630   3.229   3.022   2.807  1.1495 -4.6894 -3.4766
  390MOL0     H52631   3.429   2.937   2.881 -1.8315  2.0084  1.8528
  390MOL0     H52632   3.867   2.854   2.785  4.0093 -1.5742 -2.3446
  390MOL0     H52633   4.097   2.751   2.824 -0.6024 -1.2936  2.5110
  390MOL0     H52634   5.707   3.691   2.948  0.6629  0.9311  1.6811
  390MOL0     H52635   5.894   3.711   2.799  2.3159  0.2991  0.4150
  390MOL0     H52636   6.200   3.820   2.796  0.9503  3.0515  0.8044
  390MOL0     H52637   6.356   3.984   2.732  0.2873 -0.2155  1.8021
  390MOL0     H52638   6.585   4.146   2.518  0.0055  0.6242 -0.1395
  390MOL0     H52639   6.418   4.091   2.540 -1.6765 -1.9091 -1.7631
  390MOL0     H52640   6.479   4.167   2.304 -0.2257  0.8265  0.8902
  390MOL0     H52641   6.398   4.008   2.317 -0.2901  0.0710 -0.6502
  390MOL0     H52642   6.590   3.889   2.261  0.9496 -0.8517 -1.2597
  390MOL0     H52643   6.705   4.020   2.299 -0.0894  3.0385 -1.6464
  390MOL0     H52644   6.507   4.018   2.057  0.7120  1.8220 -1.5355
  390MOL0     H52645   6.645   4.129   2.087  1.3705 -0.1485  1.9844
  390MOL0     H52646   6.830   3.770   1.949 -1.1659 -1.7993  0.4566
  390MOL0     H52647   6.533   3.691   2.463 -1.1419 -0.1699 -0.4612
  390MOL0     H52648   6.231   3.508   2.421  0.7093 -0.5575 -1.5275
  390MOL0     H52649   6.405   3.511   2.392 -0.1274  1.9548  0.3195
  390MOL0     H52650   6.329   3.428   2.535 -1.8296  1.6462  2.6442
  391MOL0     O52651   3.784   1.274   1.322  0.0617 -0.5587  0.1213
  391MOL0     C52652   3.820   1.201   1.229  0.3373  0.4018 -0.2081
  391MOL0     O52653   3.754   1.080   1.210 -0.1384  0.1192  1.1001
  391MOL0     C52654   3.635   1.054   1.276  0.4039  0.3480 -0.4372
  391MOL0     C52655   3.627   0.935   1.345 -0.1591 -0.7577  0.4904
  391MOL0     C52656   3.533   0.912   1.442  0.3419  0.6097  0.1050
  391MOL0     C52657   3.427   1.006   1.472  0.0443 -1.1194 -0.4040
  391MOL0     O52658   3.334   0.982   1.569  0.8832  0.3315 -0.3418
  391MOL0     C52659   3.277   0.843   1.568 -0.8759 -0.2559  0.3628
  391MOL0     C52660   3.204   0.824   1.435  0.5018  0.0945  0.0338
  391MOL0     C52661   3.104   0.704   1.461 -0.9026 -0.0954  0.7378
  391MOL0     C52662   2.973   0.737   1.544 -0.5511  0.2660  0.0531
  391MOL0     C52663   2.843   0.678   1.482  0.5240  0.2086 -0.5599
  391MOL0     C52664   2.720   0.705   1.574 -0.2844 -0.2303 -0.6112
  391MOL0     C52665   2.660   0.838   1.536 -0.1164  0.2655 -0.6080
  391MOL0     C52666   2.548   0.884   1.624  0.2227 -0.1700 -0.1124
  391MOL0     N52667   2.592   0.945   1.751  0.8404 -0.0591 -0.1256
  391MOL0     C52668   2.502   0.956   1.852 -0.3309 -0.3354 -0.1154
  391MOL0     C52669   2.559   1.035   1.944 -0.0262 -0.0755  0.4961
  391MOL0     C52670   2.483   1.088   2.065  0.5345 -1.1419  0.3429
  391MOL0     C52671   2.346   1.154   2.042  0.8067 -0.0976  1.2384
  391MOL0     C52672   2.320   1.269   2.142 -0.0433 -0.0179 -0.8379
  391MOL0     C52673   2.196   1.356   2.110  0.7295 -0.2932 -0.5383
  391MOL0     O52674   2.182   1.395   1.967 -0.3635  0.5705 -0.0154
  391MOL0     C52675   2.073   1.471   1.924 -0.1501 -0.2926  0.1138
  391MOL0     C52676   1.943   1.424   1.923  0.6632 -0.2233 -0.1407
  391MOL0     C52677   1.832   1.502   1.899  0.3145 -0.3738 -0.0869
  391MOL0     C52678   1.843   1.637   1.882  0.9620  0.0530 -0.6878
  391MOL0     C52679   1.718   1.716   1.858 -0.0196 -0.7626  0.1109
  391MOL0     O52680   1.736   1.837   1.786 -0.1070  0.6106 -0.5207
  391MOL0     C52681   1.621   1.913   1.768  0.2293 -0.8926 -0.0179
  391MOL0     C52682   1.535   1.880   1.659  0.4660  0.5136  0.8264
  391MOL0     C52683   1.416   1.948   1.643  0.4887  0.5634 -0.7536
  391MOL0     C52684   1.378   2.063   1.719  0.3068  0.3794 -0.4950
  391MOL0     O52685   1.271   2.133   1.690 -0.6069  0.2615 -0.0033
  391MOL0     C52686   1.196   2.111   1.574  0.0848  0.3205  0.8313
  391MOL0     C52687   1.064   2.189   1.563 -0.1352 -0.4752  0.7585
  391MOL0     C52688   0.995   2.178   1.429 -0.0950  1.0816 -0.6317
  391MOL0     C52689   0.876   2.081   1.440  0.7561  0.8748  0.1878
  391MOL0     C52690   0.807   2.062   1.306  0.1188 -0.0610  0.1861
  391MOL0     C52691   0.661   2.015   1.318 -0.5366 -0.1138  1.6453
  391MOL0     C52692   0.614   1.935   1.194 -0.0356  0.5812 -0.1904
  391MOL0     C52693   0.621   2.000   1.068  0.2179  0.4187  0.6695
  391MOL0    Cl52694   0.497   1.931   0.957  0.2854 -0.2971 -0.3382
  391MOL0     C52695   1.452   2.083   1.834  1.1356 -0.7857 -0.1329
  391MOL0     C52696   1.571   2.015   1.862  0.4778  0.1856 -0.6129
  391MOL0     O52697   1.621   1.675   1.915  0.3943 -0.2311 -0.2505
  391MOL0     C52698   1.971   1.696   1.904  0.3816 -0.4400 -0.4384
  391MOL0     C52699   2.084   1.617   1.911 -0.8205  0.3193  0.1279
  391MOL0     N52700   2.683   1.067   1.895 -1.0754  0.4421 -0.5798
  391MOL0     N52701   2.711   1.005   1.781 -0.1702  0.0283 -0.2157
  391MOL0     C52702   3.438   1.130   1.408 -0.2233 -0.6546 -0.5719
  391MOL0     C52703   3.537   1.147   1.307  0.2240 -0.6345  0.0698
  391MOL0     C52704   3.957   1.223   1.172  0.4811  0.1263  0.1160
  391MOL0     C52705   4.007   1.128   1.083 -0.2054  0.1117  0.1291
  391MOL0     C52706   4.131   1.146   1.019 -0.7202 -0.5833  0.2624
  391MOL0     C52707   4.213   1.260   1.051  0.0622 -1.5111  0.1033
  391MOL0     O52708   4.327   1.294   0.980  0.3539 -0.0589  0.4828
  391MOL0     C52709   4.423   1.187   0.975 -1.0327 -0.4569 -0.1698
  391MOL0     C52710   4.563   1.252   0.940  1.0442  0.1052  0.0806
  391MOL0     C52711   4.584   1.285   0.800  0.5069 -0.9752 -0.1229
  391MOL0     C52712   4.494   1.391   0.726  0.1506  0.5206  0.9664
  391MOL0     C52713   4.501   1.522   0.790  0.4890 -0.1136  0.5704
  391MOL0     C52714   4.495   1.632   0.854 -0.5088  0.2496  0.9542
  391MOL0     C52715   4.165   1.349   1.144 -0.0578  0.5765 -0.5904
  391MOL0     C52716   4.033   1.343   1.188  0.3371  0.6019 -0.4344
  391MOL0     C52717   3.996   1.462   1.278 -0.5280 -0.4686  0.5423
  391MOL0     H52718   3.705   0.859   1.332  1.6227  1.0595  0.0389
  391MOL0     H52719   3.529   0.819   1.499  0.3518  1.2863  1.2384
  391MOL0     H52720   3.343   0.757   1.578 -2.3959 -1.3097  2.2312
  391MOL0     H52721   3.207   0.853   1.652 -0.6755  1.0248  0.4055
  391MOL0     H52722   3.285   0.800   1.365  1.2897  0.0762  0.9287
  391MOL0     H52723   3.148   0.912   1.404  0.8390 -0.3055 -1.8507
  391MOL0     H52724   3.167   0.622   1.496  0.9349  0.4875 -0.9904
  391MOL0     H52725   3.060   0.692   1.362 -1.1264 -2.3114  1.0575
  391MOL0     H52726   2.977   0.700   1.646 -1.1717 -3.4173 -1.1264
  391MOL0     H52727   2.968   0.847   1.550  1.5487  0.3284  2.4039
  391MOL0     H52728   2.834   0.730   1.386 -1.2640 -0.4869 -0.8096
  391MOL0     H52729   2.851   0.569   1.474  0.7178  0.0340  1.4441
  391MOL0     H52730   2.646   0.625   1.566 -0.2725 -0.1681 -1.3563
  391MOL0     H52731   2.756   0.705   1.677  2.7034  1.1977 -1.5449
  391MOL0     H52732   2.615   0.840   1.436 -2.5976  2.8300  0.4558
  391MOL0     H52733   2.736   0.916   1.525 -0.5901  0.8314  0.1082
  391MOL0     H52734   2.489   0.957   1.567 -0.5098  0.7600  1.7653
  391MOL0     H52735   2.485   0.799   1.649 -1.8504  2.1875  3.4943
  391MOL0     H52736   2.400   0.922   1.860 -0.9779  1.6783  1.0107
  391MOL0     H52737   2.481   1.001   2.132  0.3711 -2.1381 -0.9275
  391MOL0     H52738   2.553   1.167   2.093  1.0854 -1.9520  1.3572
  391MOL0     H52739   2.339   1.190   1.939 -0.4362  0.5681  1.5403
  391MOL0     H52740   2.265   1.083   2.064  1.5703 -0.7064  2.1506
  391MOL0     H52741   2.407   1.336   2.144 -0.9463  1.2500  2.2286
  391MOL0     H52742   2.307   1.224   2.241  2.7770 -1.3653 -0.9786
  391MOL0     H52743   2.197   1.447   2.171 -4.2746 -2.1702  2.9512
  391MOL0     H52744   2.115   1.291   2.144  1.7319 -2.4992 -2.1129
  391MOL0     H52745   1.932   1.318   1.944  0.5392 -0.9373 -3.3712
  391MOL0     H52746   1.735   1.454   1.907 -0.0842  0.3681 -0.3949
  391MOL0     H52747   1.549   1.794   1.594 -0.9171 -0.1594  1.3896
  391MOL0     H52748   1.364   1.906   1.557 -2.1656  0.8825  0.6327
  391MOL0     H52749   1.267   2.130   1.494 -0.7863 -0.5611 -0.1872
  391MOL0     H52750   1.156   2.010   1.560  0.5756  0.4416 -1.9306
  391MOL0     H52751   1.000   2.141   1.639  1.1081  0.1121  2.2254
  391MOL0     H52752   1.085   2.293   1.589 -1.3838  0.8843 -2.9431
  391MOL0     H52753   0.944   2.270   1.397 -0.7903  1.4147  1.3026
  391MOL0     H52754   1.058   2.128   1.355 -3.7040 -2.5094 -1.5991
  391MOL0     H52755   0.808   2.122   1.516  0.5253  1.0879 -0.1350
  391MOL0     H52756   0.902   1.980   1.474 -2.3838  0.7353  2.6975
  391MOL0     H52757   0.859   1.983   1.251  0.8665  1.3803 -1.2613
  391MOL0     H52758   0.811   2.156   1.251  0.1275  1.1380  2.1457
  391MOL0     H52759   0.650   1.946   1.403  0.3952 -0.1024  1.7865
  391MOL0     H52760   0.603   2.106   1.336  2.1030  1.9093  0.4728
  391MOL0     H52761   0.509   1.929   1.224  0.9754  0.0330  3.8530
  391MOL0     H52762   0.663   1.837   1.197 -1.3086 -0.0598  1.5778
  391MOL0     H52763   0.587   2.104   1.064 -2.2525 -0.3525 -0.8272
  391MOL0     H52764   0.719   1.988   1.020  1.9784  1.8629  3.6547
  391MOL0     H52765   1.398   2.150   1.900 -3.3630 -2.0170 -2.1765
  391MOL0     H52766   1.619   2.057   1.950  0.1326 -0.9865  0.1578
  391MOL0     H52767   1.981   1.803   1.921  0.9522 -0.6477  0.6083
  391MOL0     H52768   2.186   1.652   1.925  0.1134 -2.8279  2.2674
  391MOL0     H52769   3.369   1.211   1.430 -0.5655 -0.6073 -1.7506
  391MOL0     H52770   3.540   1.237   1.246  2.7394 -1.5541 -1.3155
  391MOL0     H52771   3.945   1.044   1.055  3.8801 -2.9382 -0.6655
  391MOL0     H52772   4.172   1.073   0.949 -2.1296 -0.6201 -0.5666
  391MOL0     H52773   4.397   1.117   0.894 -0.3620  2.3977 -3.0501
  391MOL0     H52774   4.438   1.119   1.059  2.2656 -2.9762 -2.5228
  391MOL0     H52775   4.637   1.181   0.979 -2.9460 -4.4384  0.3966
  391MOL0     H52776   4.576   1.348   0.991 -3.0872  0.3105  1.1234
  391MOL0     H52777   4.586   1.193   0.742 -1.6083 -2.7442  2.3947
  391MOL0     H52778   4.686   1.324   0.799  1.3646 -3.0875 -0.5077
  391MOL0     H52779   4.538   1.410   0.628  0.0055  0.8056  0.9553
  391MOL0     H52780   4.388   1.367   0.713 -0.6186  1.8467  3.8423
  391MOL0     H52781   4.488   1.719   0.915 -1.1854  1.3832 -0.6752
  391MOL0     H52782   4.230   1.426   1.182  0.1397 -0.8494  2.2396
  391MOL0     H52783   4.049   1.552   1.245 -0.2101  1.2524  5.0932
  391MOL0     H52784   3.891   1.487   1.257 -0.7042 -2.3259 -1.1570
  391MOL0     H52785   4.019   1.442   1.383  1.7345 -2.8606 -0.3146
  392MOL0     O52786   4.268  11.320   0.050  0.6509 -0.3770 -0.6218
  392MOL0     C52787   4.222  11.213   0.032 -0.1302  0.1153 -0.3015
  392MOL0     O52788   4.091  11.185   0.032  0.0622 -0.6095 -0.2440
  392MOL0     C52789   3.997  11.277   0.073  0.1039 -0.1211  0.5030
  392MOL0     C52790   3.968  11.300   0.208  0.1909  0.3599 -0.1344
  392MOL0     C52791   3.876  11.398   0.244 -0.5963 -1.2592 -0.2962
  392MOL0     C52792   3.827  11.495   0.143  0.0224 -0.0662 -0.5243
  392MOL0     O52793   3.740  11.598   0.184 -0.0315 -0.5374  0.0462
  392MOL0     C52794   3.707  11.697   0.087 -0.1912 -1.3077  1.4667
  392MOL0     C52795   3.624  11.801   0.155 -0.1027 -0.7795 -0.0758
  392MOL0     C52796   3.556  11.902   0.059  0.6396 -0.9657 -0.0821
  392MOL0     C52797   3.453  11.984   0.138  0.3237 -0.2214  0.3984
  392MOL0     C52798   3.438  12.120   0.051  0.6105  0.9046  1.0313
  392MOL0     C52799   3.543  12.223   0.064 -0.7637 -0.6381 -0.7023
  392MOL0     C52800   3.499  12.353  -0.007  0.3115  0.3685 -0.4324
  392MOL0     C52801   3.621  12.447  -0.029  0.7884  0.9334  0.2898
  392MOL0     N52802   3.671  12.501   0.096 -0.2850  0.0501  0.0602
  392MOL0     C52803   3.592  12.520   0.214  0.4740  1.0925  0.7992
  392MOL0     C52804   3.677  12.586   0.291 -0.8997 -0.1979 -0.0018
  392MOL0     C52805   3.639  12.641   0.421  0.4446 -0.2661  0.2799
  392MOL0     C52806   3.546  12.764   0.403 -0.7944 -0.1374  0.2705
  392MOL0     C52807   3.625  12.897   0.420  0.6550  0.4957 -0.2447
  392MOL0     C52808   3.689  12.938   0.288  0.6599  1.6746 -1.0031
  392MOL0     O52809   3.762  13.056   0.309  0.2195  0.2224  0.3058
  392MOL0     C52810   3.704  13.171   0.346  0.0432 -0.1970  0.1453
  392MOL0     C52811   3.784  13.287   0.374 -0.0867 -0.6295 -0.1115
  392MOL0     C52812   3.722  13.407   0.398  0.2129 -0.3894  0.6986
  392MOL0     C52813   3.582  13.426   0.397 -0.1215  0.3809 -0.0627
  392MOL0     C52814   3.521  13.552   0.433  0.5686 -0.0249  0.4522
  392MOL0     O52815   3.387  13.549   0.449 -0.0186 -0.1580  0.4004
  392MOL0     C52816   3.332  13.672   0.477 -0.6901  0.5167 -0.5686
  392MOL0     C52817   3.326  13.715   0.607  1.0667 -1.2450  0.3942
  392MOL0     C52818   3.268  13.837   0.634  0.6481  0.3448 -0.1415
  392MOL0     C52819   3.223  13.922   0.534  0.3447 -0.4585  0.4676
  392MOL0     O52820   3.172  14.043   0.575  0.1012 -0.3066 -0.9679
  392MOL0     C52821   3.181  14.086   0.715 -0.9087  0.3849 -0.3966
  392MOL0     C52822   3.100  14.210   0.736  0.7420  0.9323  0.1641
  392MOL0     C52823   2.949  14.189   0.697 -0.1054 -0.1063  0.7476
  392MOL0     C52824   2.862  14.308   0.738 -0.9436 -0.0238  1.0477
  392MOL0     C52825   2.720  14.287   0.677  0.4266  0.6292  0.2968
  392MOL0     C52826   2.629  14.406   0.718  0.1773 -0.4665 -0.0700
  392MOL0     C52827   2.503  14.389   0.646  0.7213  1.0342  0.8601
  392MOL0     C52828   2.402  14.495   0.686 -0.1758  0.8633  0.3461
  392MOL0    Cl52829   2.338  14.471   0.847  0.0634  0.3560 -0.6759
  392MOL0     C52830   3.209  13.877   0.407 -0.1123  0.8507  0.0074
  392MOL0     C52831   3.271  13.757   0.380 -1.1183 -0.9256  0.0339
  392MOL0     O52832   3.602  13.637   0.468 -0.5636  0.0329 -0.2471
  392MOL0     C52833   3.511  13.316   0.345 -0.1378  0.3562 -0.2234
  392MOL0     C52834   3.569  13.199   0.323  0.1307  0.1977 -0.0570
  392MOL0     N52835   3.804  12.597   0.225  0.3170 -0.4964  0.2368
  392MOL0     N52836   3.799  12.539   0.113 -0.1208  0.7086  0.4038
  392MOL0     C52837   3.876  11.485   0.009  0.0121  0.9992 -1.2638
  392MOL0     C52838   3.954  11.370  -0.021  0.0226 -0.0112 -0.7293
  392MOL0     C52839   4.318  11.105   0.050  0.2490 -0.0937 -0.5630
  392MOL0     C52840   4.436  11.134   0.123  0.9739 -0.1387 -0.4805
  392MOL0     C52841   4.530  11.042   0.155 -0.4894 -0.2452 -0.4082
  392MOL0     C52842   4.528  10.920   0.083  0.3981  1.2062 -0.0000
  392MOL0     O52843   4.629  10.829   0.117  0.3790  0.5473 -0.1144
  392MOL0     C52844   4.616  10.693   0.103  0.2197 -0.4004  0.0058
  392MOL0     C52845   4.760  10.626   0.112 -0.0945 -0.6278  0.2388
  392MOL0     C52846   4.856  10.682   0.222  0.3226 -0.9615  0.0024
  392MOL0     C52847   4.990  10.615   0.227 -0.0492  0.0425  0.1748
  392MOL0     C52848   5.049  10.546   0.116  0.2750  0.4868 -0.2309
  392MOL0     C52849   5.091  10.492   0.013  0.2055  0.1528 -0.4890
  392MOL0     C52850   4.413  10.887   0.003  0.2538  0.2365  0.4760
  392MOL0     C52851   4.305  10.979  -0.018 -0.2171  0.7498  1.0667
  392MOL0     C52852   4.186  10.947  -0.109 -0.1427 -0.4019  0.7838
  392MOL0     H52853   4.002  11.227   0.282 -0.4744 -1.2736 -1.3721
  392MOL0     H52854   3.843  11.405   0.348  3.2277 -2.8501  1.2270
  392MOL0     H52855   3.800  11.742   0.051 -0.3388 -2.2987 -0.2502
  392MOL0     H52856   3.661  11.670  -0.009 -0.3747  0.7171  0.9295
  392MOL0     H52857   3.697  11.846   0.223  1.0684 -0.5085 -1.4589
  392MOL0     H52858   3.546  11.745   0.206 -2.2467  1.3579 -0.8242
  392MOL0     H52859   3.508  11.856  -0.027  0.6721  0.3130 -0.8127
  392MOL0     H52860   3.639  11.964   0.024 -0.3650 -0.3666 -1.5120
  392MOL0     H52861   3.356  11.934   0.138  0.8331 -1.2679  1.6399
  392MOL0     H52862   3.476  12.015   0.241 -1.1454  3.4013 -0.2146
  392MOL0     H52863   3.434  12.085  -0.052 -1.4307  0.5075  1.2001
  392MOL0     H52864   3.346  12.176   0.072  0.7006  1.6554 -0.4681
  392MOL0     H52865   3.562  12.247   0.169  4.0448 -0.5821 -1.3535
  392MOL0     H52866   3.646  12.199   0.034  1.2514  2.1382  3.1839
  392MOL0     H52867   3.421  12.406   0.047  1.2998  0.6978  0.7291
  392MOL0     H52868   3.451  12.329  -0.103 -2.6177 -0.6000  1.1571
  392MOL0     H52869   3.699  12.394  -0.085 -0.8069 -0.3489 -0.8131
  392MOL0     H52870   3.583  12.528  -0.091 -2.5381  2.1162  3.5118
  392MOL0     H52871   3.493  12.479   0.230  0.8036 -0.0927 -0.0566
  392MOL0     H52872   3.595  12.556   0.474 -0.2766 -0.9639 -1.3643
  392MOL0     H52873   3.732  12.675   0.467  0.2842 -1.3982  1.5079
  392MOL0     H52874   3.493  12.757   0.308  0.7156  0.9241 -0.6895
  392MOL0     H52875   3.472  12.770   0.483  1.0194  0.0188  2.0096
  392MOL0     H52876   3.704  12.900   0.496  2.8426  1.0371 -2.3925
  392MOL0     H52877   3.551  12.974   0.444 -0.3291 -0.5369  0.1397
  392MOL0     H52878   3.626  12.937   0.199 -0.5218  1.2046 -0.1753
  392MOL0     H52879   3.761  12.858   0.268  1.0337  1.1341  2.0863
  392MOL0     H52880   3.892  13.276   0.367  0.0314  0.5539 -0.3705
  392MOL0     H52881   3.795  13.486   0.416 -0.1569  0.3965 -1.0446
  392MOL0     H52882   3.369  13.638   0.670  2.0943 -2.6783 -1.9403
  392MOL0     H52883   3.266  13.864   0.739  0.8920 -0.3479  0.0489
  392MOL0     H52884   3.137  14.008   0.778  0.7158 -0.7170 -0.5590
  392MOL0     H52885   3.287  14.097   0.740 -1.1505  0.5756  0.6270
  392MOL0     H52886   3.105  14.220   0.845  1.4598  0.9993  0.1298
  392MOL0     H52887   3.136  14.301   0.689  1.7036 -0.3391 -1.6905
  392MOL0     H52888   2.956  14.175   0.589  0.5618 -1.7249  0.9724
  392MOL0     H52889   2.914  14.101   0.750  4.8495 -2.8542  0.0875
  392MOL0     H52890   2.908  14.402   0.709  3.0206 -2.2055 -0.5178
  392MOL0     H52891   2.860  14.320   0.847  2.5075  0.7399  1.1287
  392MOL0     H52892   2.681  14.191   0.713  1.0429 -0.5774 -2.0080
  392MOL0     H52893   2.733  14.275   0.569 -1.7679 -0.5165  0.1085
  392MOL0     H52894   2.605  14.404   0.825  0.3525 -0.5133 -0.0315
  392MOL0     H52895   2.676  14.502   0.693  0.4015 -0.4786  0.2989
  392MOL0     H52896   2.466  14.291   0.676 -1.1452  2.0430  2.0620
  392MOL0     H52897   2.522  14.392   0.539 -0.6995  3.1660  0.6132
  392MOL0     H52898   2.449  14.593   0.680  0.5954  0.8909  4.0928
  392MOL0     H52899   2.315  14.485   0.621  1.7538 -3.3215 -2.0182
  392MOL0     H52900   3.160  13.928   0.324 -0.1985  0.1263 -0.3984
  392MOL0     H52901   3.265  13.715   0.280 -3.0946 -0.1892 -0.1985
  392MOL0     H52902   3.404  13.330   0.333 -0.2984  1.7051  2.1523
  392MOL0     H52903   3.508  13.120   0.280 -0.1738 -0.0953  0.9050
  392MOL0     H52904   3.850  11.561  -0.065  1.3987 -0.3746 -3.2832
  392MOL0     H52905   3.997  11.353  -0.119  3.4421  2.6063  0.1318
  392MOL0     H52906   4.458  11.234   0.157  3.5876 -0.5098 -0.8885
  392MOL0     H52907   4.616  11.068   0.216  0.3174  1.2598 -2.1046
  392MOL0     H52908   4.575  10.670   0.004 -1.9419 -0.0271  0.7518
  392MOL0     H52909   4.546  10.667   0.183  1.3741 -2.4907  0.4188
  392MOL0     H52910   4.809  10.649   0.017 -0.6952 -0.1063  0.0486
  392MOL0     H52911   4.738  10.519   0.124 -0.2779 -0.8792 -1.9406
  392MOL0     H52912   4.806  10.682   0.320 -2.6742  2.1805 -1.3031
  392MOL0     H52913   4.880  10.788   0.205  0.5805 -1.0643 -0.2732
  392MOL0     H52914   5.057  10.685   0.279  2.5390 -2.3657  0.3412
  392MOL0     H52915   4.980  10.535   0.302  0.2644 -3.9260 -3.6541
  392MOL0     H52916   5.139  10.461  -0.077  2.8271  4.5510 -0.9243
  392MOL0     H52917   4.400  10.784  -0.030 -5.3234  0.6652  0.4717
  392MOL0     H52918   4.185  11.015  -0.195 -1.9155 -0.9581  0.3333
  392MOL0     H52919   4.208  10.846  -0.145  0.9006 -0.0941  0.5266
  392MOL0     H52920   4.087  10.941  -0.064 -2.1416 -0.5754 -3.1975
  393MOL0     O52921   9.603   0.905   4.596 -0.4202  0.2307 -0.8283
  393MOL0     C52922   9.595   1.015   4.536 -0.6648  0.2040 -0.2007
  393MOL0     O52923   9.662   1.043   4.428 -0.2932  0.7031  0.3611
  393MOL0     C52924   9.768   0.955   4.393  0.6496 -0.1007  1.7288
  393MOL0     C52925   9.787   0.916   4.257 -0.8936  0.1895 -0.7452
  393MOL0     C52926   9.882   0.818   4.218 -0.0690 -0.0845 -0.1559
  393MOL0     C52927   9.969   0.766   4.311 -0.2136  0.1718  0.7092
  393MOL0     O52928  10.067   0.669   4.280 -0.1675 -0.3734 -0.4407
  393MOL0     C52929  10.070   0.549   4.372 -0.6376 -0.5661  0.3170
  393MOL0     C52930  10.096   0.412   4.315  0.7546  0.0745  0.9549
  393MOL0     C52931  10.001   0.381   4.187  0.6076 -0.0519 -0.6915
  393MOL0     C52932  10.035   0.252   4.104  0.4279 -0.4621 -0.9565
  393MOL0     C52933   9.961   0.246   3.972  0.5603 -0.7706  0.2206
  393MOL0     C52934  10.008   0.123   3.890  0.0450  0.0020 -0.4199
  393MOL0     C52935   9.970   0.150   3.743 -0.3302  0.8869 -0.3715
  393MOL0     C52936   9.976   0.028   3.646 -0.1236  0.1523  0.5217
  393MOL0     N52937  10.096  -0.053   3.664  0.2953 -0.0508  0.1177
  393MOL0     C52938  10.091  -0.176   3.715 -0.2968  0.7770  0.4227
  393MOL0     C52939  10.220  -0.201   3.749  0.7138 -0.4095 -0.1978
  393MOL0     C52940  10.268  -0.328   3.819  0.4054 -0.9696 -0.1673
  393MOL0     C52941  10.384  -0.402   3.755  0.8941 -1.2574 -0.1438
  393MOL0     C52942  10.341  -0.475   3.621  0.2477 -0.3618 -0.4453
  393MOL0     C52943  10.465  -0.542   3.560  0.2781 -0.1717 -0.3150
  393MOL0     O52944  10.416  -0.612   3.446  0.9873 -0.3522 -0.1151
  393MOL0     C52945  10.485  -0.719   3.407  0.5446 -0.6763  0.5301
  393MOL0     C52946  10.469  -0.845   3.480 -0.4194  0.2096 -0.5021
  393MOL0     C52947  10.559  -0.956   3.465 -0.6693 -0.9736 -0.5439
  393MOL0     C52948  10.664  -0.932   3.373 -0.3580  0.3440  0.0001
  393MOL0     C52949  10.746  -1.049   3.318  1.2559  0.8174 -0.8129
  393MOL0     O52950  10.718  -1.169   3.388  0.3259  0.9912 -0.1185
  393MOL0     C52951  10.774  -1.287   3.362  0.2992 -0.8624 -0.0834
  393MOL0     C52952  10.700  -1.407   3.387  0.4210  0.8338  1.4332
  393MOL0     C52953  10.755  -1.532   3.361  0.1539 -0.3784  0.3485
  393MOL0     C52954  10.892  -1.531   3.318 -0.5433 -0.0387  0.0710
  393MOL0     O52955  10.945  -1.655   3.310  0.3303 -0.7602  0.3883
  393MOL0     C52956  10.976  -1.697   3.180 -0.0788 -0.3925 -0.3337
  393MOL0     C52957  11.067  -1.825   3.188  0.4886 -0.5514 -0.2887
  393MOL0     C52958  11.198  -1.796   3.265 -0.4815 -0.2266  0.9465
  393MOL0     C52959  11.300  -1.693   3.201  0.2779 -0.0442  0.2374
  393MOL0     C52960  11.360  -1.738   3.071 -0.5451  0.1123  0.2513
  393MOL0     C52961  11.472  -1.653   3.015  0.2552 -0.1016  0.5514
  393MOL0     C52962  11.411  -1.526   2.985 -0.6143 -0.3256  1.0300
  393MOL0     C52963  11.520  -1.425   2.925 -0.1893  0.0496  1.0089
  393MOL0    Cl52964  11.602  -1.486   2.793  0.1212 -0.4876  0.0937
  393MOL0     C52965  10.969  -1.421   3.283  0.8089 -0.4191 -0.0805
  393MOL0     C52966  10.906  -1.302   3.312 -0.2302  0.2664 -0.3636
  393MOL0     O52967  10.812  -1.051   3.214 -0.3159 -0.3886 -0.0277
  393MOL0     C52968  10.679  -0.818   3.302  0.6351  0.7847 -0.4725
  393MOL0     C52969  10.596  -0.703   3.320  0.4488 -1.2668 -0.4906
  393MOL0     N52970  10.296  -0.099   3.696  0.3405 -0.9880  1.2260
  393MOL0     N52971  10.224  -0.011   3.642  0.3407  0.3580  0.5609
  393MOL0     C52972   9.946   0.803   4.445  0.4110 -0.7921 -0.2928
  393MOL0     C52973   9.858   0.898   4.475  0.0131  0.1613 -0.9054
  393MOL0     C52974   9.469   1.090   4.548  0.3132 -0.6206 -0.1506
  393MOL0     C52975   9.351   1.030   4.579 -0.2322  0.0937 -0.2306
  393MOL0     C52976   9.239   1.098   4.572  0.3108 -0.7099 -0.5692
  393MOL0     C52977   9.245   1.239   4.555 -0.1569  0.2913 -0.4064
  393MOL0     O52978   9.137   1.312   4.525 -0.1225  0.0782 -0.2354
  393MOL0     C52979   9.008   1.277   4.575 -0.2500 -0.2066 -0.1994
  393MOL0     C52980   8.934   1.392   4.645 -0.0459 -0.0566 -0.3438
  393MOL0     C52981   8.898   1.507   4.557  0.5166 -0.6064 -0.0207
  393MOL0     C52982   8.781   1.498   4.457 -0.5398 -0.7621 -0.8996
  393MOL0     C52983   8.735   1.634   4.409  0.1999  0.3832  0.5136
  393MOL0     C52984   8.725   1.749   4.370 -0.0597  0.2507 -0.3563
  393MOL0     C52985   9.363   1.303   4.551  0.3727  0.5731  0.0331
  393MOL0     C52986   9.477   1.232   4.532 -0.3784  0.1698  0.5063
  393MOL0     C52987   9.614   1.308   4.521  0.7020 -0.5677 -0.4383
  393MOL0     H52988   9.726   0.962   4.180  1.2048  2.8092 -0.9865
  393MOL0     H52989   9.882   0.775   4.118 -0.5153 -2.6470  0.8622
  393MOL0     H52990  10.151   0.568   4.443 -1.4149 -1.0769  1.3864
  393MOL0     H52991   9.973   0.546   4.423  0.5392 -0.4070  2.6956
  393MOL0     H52992  10.076   0.333   4.388  0.8521  1.1778  2.2126
  393MOL0     H52993  10.201   0.394   4.292  0.9344  1.8262  0.2712
  393MOL0     H52994   9.993   0.466   4.117  1.1079 -0.8369 -1.7300
  393MOL0     H52995   9.909   0.361   4.242 -1.4176  3.1706 -2.5536
  393MOL0     H52996  10.141   0.251   4.075  1.2880 -2.5019  1.8014
  393MOL0     H52997  10.011   0.167   4.169  1.5846 -0.4292 -0.4607
  393MOL0     H52998   9.854   0.247   3.994  0.3173  1.6417 -0.7969
  393MOL0     H52999   9.965   0.341   3.917  0.3473 -0.7906  0.1708
  393MOL0     H53000  10.117   0.120   3.904  0.1418  0.8194 -0.9604
  393MOL0     H53001   9.969   0.025   3.920  2.0664  0.2357  3.5479
  393MOL0     H53002  10.035   0.227   3.701  1.1865  0.4239  1.0335
  393MOL0     H53003   9.865   0.180   3.755 -0.5816 -0.2418  0.4795
  393MOL0     H53004   9.889  -0.035   3.667  0.2859 -0.4253  0.5161
  393MOL0     H53005   9.968   0.061   3.542  1.6141  0.3812  0.4324
  393MOL0     H53006   9.996  -0.224   3.739 -0.5482  2.4587  3.3216
  393MOL0     H53007  10.279  -0.306   3.925  0.9652 -2.8704  0.2071
  393MOL0     H53008  10.181  -0.394   3.819 -0.1010 -0.3074 -0.0865
  393MOL0     H53009  10.469  -0.335   3.742  0.1479 -0.3726 -0.6047
  393MOL0     H53010  10.415  -0.488   3.816 -0.6280 -1.7450  0.0054
  393MOL0     H53011  10.281  -0.418   3.549 -1.4632 -3.0784 -1.2905
  393MOL0     H53012  10.275  -0.559   3.640  1.3098 -0.7854  1.5926
  393MOL0     H53013  10.514  -0.607   3.633 -0.0970  0.0200  0.1080
  393MOL0     H53014  10.545  -0.472   3.533  1.7097 -1.7802 -0.4161
  393MOL0     H53015  10.381  -0.846   3.545 -1.3374 -0.2758 -1.7215
  393MOL0     H53016  10.546  -1.048   3.522  1.2002 -0.2441  1.1792
  393MOL0     H53017  10.599  -1.409   3.427  0.0184 -4.6669  0.8764
  393MOL0     H53018  10.723  -1.629   3.397 -1.6013  0.9753  2.7046
  393MOL0     H53019  10.883  -1.729   3.132 -0.2109 -0.7105  0.1329
  393MOL0     H53020  11.021  -1.624   3.112  0.6784  2.0162  2.5085
  393MOL0     H53021  11.008  -1.901   3.239  3.7843 -3.4055 -0.3442
  393MOL0     H53022  11.082  -1.862   3.086  1.7596 -0.6044 -0.0990
  393MOL0     H53023  11.181  -1.742   3.359 -1.0970  0.8593  0.2430
  393MOL0     H53024  11.256  -1.884   3.292 -1.8336 -0.6381  2.7435
  393MOL0     H53025  11.380  -1.680   3.275 -1.7484 -0.0944  2.5846
  393MOL0     H53026  11.261  -1.590   3.205  2.0521  0.8067 -2.4595
  393MOL0     H53027  11.278  -1.748   3.000 -0.1818 -0.9603 -0.0262
  393MOL0     H53028  11.409  -1.834   3.089  1.5853  0.7705 -1.6052
  393MOL0     H53029  11.559  -1.644   3.082 -1.3285 -1.3880  2.9521
  393MOL0     H53030  11.487  -1.719   2.929  0.1401  0.7265 -0.1111
  393MOL0     H53031  11.350  -1.479   3.063  0.2345 -0.8757  2.0545
  393MOL0     H53032  11.333  -1.536   2.909 -0.0262 -0.8142  0.4781
  393MOL0     H53033  11.458  -1.343   2.888 -0.3169 -0.8062 -0.7625
  393MOL0     H53034  11.585  -1.399   3.009 -0.6326 -0.7676  1.6257
  393MOL0     H53035  11.074  -1.425   3.254  1.3908 -0.9451  1.9075
  393MOL0     H53036  10.970  -1.216   3.296  1.7294 -1.0633  0.0368
  393MOL0     H53037  10.758  -0.817   3.227  0.1854  1.3757 -0.9512
  393MOL0     H53038  10.617  -0.611   3.266 -1.1583 -1.5005 -1.5911
  393MOL0     H53039  10.010   0.769   4.526  0.8715  1.3691  0.3043
  393MOL0     H53040   9.852   0.915   4.582 -0.5415 -0.1543 -0.8834
  393MOL0     H53041   9.336   0.923   4.587  0.5189  0.0428  0.7555
  393MOL0     H53042   9.141   1.054   4.578  0.0840 -0.4019 -1.8589
  393MOL0     H53043   9.027   1.195   4.645  2.1784 -0.6604 -1.2814
  393MOL0     H53044   8.946   1.245   4.492  0.7087  1.2139 -1.5186
  393MOL0     H53045   9.003   1.440   4.715  1.5067  0.8494 -2.3845
  393MOL0     H53046   8.843   1.360   4.697 -0.7012  1.5259 -0.4644
  393MOL0     H53047   8.992   1.541   4.512  3.6364 -1.6640  4.8984
  393MOL0     H53048   8.889   1.584   4.634  3.3555  0.5678 -0.7505
  393MOL0     H53049   8.800   1.429   4.374  0.7241 -0.8587 -0.5495
  393MOL0     H53050   8.700   1.463   4.521  1.4214  0.4085  2.4966
  393MOL0     H53051   8.717   1.853   4.343 -2.9458  0.7466  1.8466
  393MOL0     H53052   9.360   1.410   4.532  1.2078  0.6203  0.1021
  393MOL0     H53053   9.625   1.329   4.415  1.2673  0.2396 -0.2282
  393MOL0     H53054   9.605   1.407   4.569  0.9974  0.4154 -2.3329
  393MOL0     H53055   9.698   1.251   4.561 -0.1036 -1.4150  0.0687
  394MOL0     O53056   3.764   4.851   7.656  0.0165 -0.2410 -1.3260
  394MOL0     C53057   3.820   4.755   7.707  0.6350 -0.3911 -0.1944
  394MOL0     O53058   3.952   4.737   7.709 -0.1320  1.0461 -0.1402
  394MOL0     C53059   4.028   4.829   7.642  0.1836 -0.2815  0.4350
  394MOL0     C53060   4.061   4.809   7.509 -0.1293  0.7196 -0.5447
  394MOL0     C53061   4.161   4.897   7.458  0.1093  0.6923  0.3576
  394MOL0     C53062   4.222   4.996   7.532  0.3604  0.4768  0.3082
  394MOL0     O53063   4.315   5.081   7.475 -0.1657 -0.4739  0.0052
  394MOL0     C53064   4.421   5.004   7.410 -0.2933 -0.8703 -0.5413
  394MOL0     C53065   4.537   5.083   7.351 -0.2083  0.0799  1.3180
  394MOL0     C53066   4.640   5.147   7.447 -0.0251 -0.1273 -0.2714
  394MOL0     C53067   4.572   5.266   7.509  0.3691 -0.2259 -1.0893
  394MOL0     C53068   4.664   5.354   7.592 -0.0451  0.4027  0.1388
  394MOL0     C53069   4.605   5.463   7.685 -0.5315  0.1491 -0.2725
  394MOL0     C53070   4.517   5.418   7.806  0.8554  1.9309 -0.3995
  394MOL0     C53071   4.438   5.526   7.875 -0.4880 -0.6210 -0.2690
  394MOL0     N53072   4.346   5.463   7.973 -0.5880  0.4992  0.1949
  394MOL0     C53073   4.332   5.518   8.096  0.5932  0.6138 -0.1945
  394MOL0     C53074   4.223   5.447   8.155 -0.1001 -0.2101 -0.5505
  394MOL0     C53075   4.145   5.460   8.296 -0.9696 -0.0926  0.0512
  394MOL0     C53076   4.086   5.324   8.342  0.0875 -0.4106 -0.7605
  394MOL0     C53077   3.959   5.334   8.421  0.2113 -0.6186  0.7535
  394MOL0     C53078   3.884   5.205   8.430 -0.6370  0.0347 -0.6976
  394MOL0     O53079   3.782   5.229   8.531  0.3088  0.9044 -0.4632
  394MOL0     C53080   3.659   5.173   8.520  0.2244  0.1954  0.4472
  394MOL0     C53081   3.625   5.051   8.450 -0.1922 -0.1760  0.3085
  394MOL0     C53082   3.503   4.987   8.453 -0.1145 -0.3582  0.1650
  394MOL0     C53083   3.393   5.057   8.503  0.0224  0.3731 -0.4319
  394MOL0     C53084   3.255   5.016   8.480 -0.6166  0.1736 -0.2721
  394MOL0     O53085   3.230   4.973   8.350  0.1449 -0.3183 -0.4122
  394MOL0     C53086   3.103   4.940   8.313  0.0775 -0.1028 -0.7315
  394MOL0     C53087   3.093   4.870   8.197 -0.5239 -0.0921  0.8668
  394MOL0     C53088   2.979   4.832   8.130  0.1359 -0.0119 -0.4697
  394MOL0     C53089   2.855   4.858   8.198 -0.6233 -0.4749  0.1367
  394MOL0     O53090   2.739   4.831   8.132 -0.4887 -0.3998 -0.1824
  394MOL0     C53091   2.698   4.889   8.008  0.0221 -0.0158 -0.7052
  394MOL0     C53092   2.602   4.795   7.929 -0.9111  0.5776 -0.7932
  394MOL0     C53093   2.681   4.669   7.881 -0.6420  0.6876 -0.1137
  394MOL0     C53094   2.722   4.687   7.735 -0.3294  0.0597 -0.1637
  394MOL0     C53095   2.812   4.558   7.688  0.0531 -0.1524  0.4763
  394MOL0     C53096   2.830   4.582   7.537 -0.2139 -0.1261 -1.0275
  394MOL0     C53097   2.950   4.501   7.482 -0.3950  0.0887 -0.1999
  394MOL0     C53098   2.964   4.526   7.335  0.5176  0.1944  0.7971
  394MOL0    Cl53099   3.092   4.437   7.252 -0.0672 -0.4495 -0.2135
  394MOL0     C53100   2.854   4.944   8.315 -0.6146 -0.9361  0.8083
  394MOL0     C53101   2.983   4.974   8.372 -0.4562  0.8912  0.2150
  394MOL0     O53102   3.180   5.013   8.579  0.1622 -0.4820 -1.3136
  394MOL0     C53103   3.412   5.174   8.575 -0.2136 -0.0258  0.0881
  394MOL0     C53104   3.551   5.231   8.584  0.3110  0.4104 -0.0718
  394MOL0     N53105   4.182   5.351   8.064 -0.0103 -1.1501  0.2165
  394MOL0     N53106   4.258   5.362   7.953 -0.0299  0.1085  1.2773
  394MOL0     C53107   4.183   5.010   7.662 -0.3517 -1.1597  0.9451
  394MOL0     C53108   4.097   4.925   7.720  0.9963  0.0910  0.3711
  394MOL0     C53109   3.752   4.638   7.772 -0.4533  0.3737  0.6760
  394MOL0     C53110   3.841   4.543   7.840 -0.5695 -0.5172  0.0399
  394MOL0     C53111   3.780   4.437   7.907  1.4519  0.8883 -0.9256
  394MOL0     C53112   3.639   4.418   7.907 -0.6737  0.4065 -1.4413
  394MOL0     O53113   3.576   4.321   7.979  0.3027 -0.7046  0.1127
  394MOL0     C53114   3.510   4.221   7.902  0.3841 -0.2688 -0.0853
  394MOL0     C53115   3.542   4.099   7.986  0.6874 -0.9041  0.8833
  394MOL0     C53116   3.473   3.956   7.943 -0.4160  0.2138 -0.6631
  394MOL0     C53117   3.543   3.883   7.832 -0.3351 -0.2976  1.1975
  394MOL0     C53118   3.686   3.876   7.832  0.4918  0.2940 -0.5330
  394MOL0     C53119   3.803   3.856   7.843 -0.4012  1.0471 -0.5531
  394MOL0     C53120   3.559   4.515   7.846  0.0314  0.2827 -0.4387
  394MOL0     C53121   3.610   4.622   7.779  0.6284 -0.2851  0.1494
  394MOL0     C53122   3.518   4.709   7.706  0.7580  0.0584  0.6843
  394MOL0     H53123   4.030   4.721   7.454 -2.4094  0.0004  1.7119
  394MOL0     H53124   4.173   4.886   7.350  3.2421 -0.6287  0.7368
  394MOL0     H53125   4.456   4.930   7.482  2.8657 -0.3151 -1.3673
  394MOL0     H53126   4.387   4.954   7.319 -2.0491 -1.4698  0.3855
  394MOL0     H53127   4.505   5.161   7.282  1.0254  0.1304  0.7803
  394MOL0     H53128   4.581   5.023   7.271  0.0639  0.0266  1.5074
  394MOL0     H53129   4.727   5.184   7.391  0.0268  2.4018  1.3596
  394MOL0     H53130   4.673   5.084   7.530 -1.0665 -2.5375 -1.5880
  394MOL0     H53131   4.530   5.328   7.429  1.2212 -0.6759 -1.8968
  394MOL0     H53132   4.496   5.232   7.580  3.0461  0.6200  2.4556
  394MOL0     H53133   4.712   5.279   7.655  1.1763  0.7167 -0.3908
  394MOL0     H53134   4.743   5.404   7.535 -1.2303  1.7301 -0.4100
  394MOL0     H53135   4.694   5.510   7.726  1.3517 -4.0939  1.0146
  394MOL0     H53136   4.543   5.527   7.621  1.2315  0.8567 -1.3460
  394MOL0     H53137   4.583   5.360   7.871 -0.9652 -0.9393 -0.9257
  394MOL0     H53138   4.444   5.342   7.777  0.0311  1.8215  1.8133
  394MOL0     H53139   4.493   5.593   7.941 -3.0758 -1.7465  3.3006
  394MOL0     H53140   4.385   5.585   7.800  1.5612  2.3378  0.4394
  394MOL0     H53141   4.377   5.610   8.133  0.6406  2.3800 -4.1562
  394MOL0     H53142   4.216   5.501   8.369 -0.2041  1.4464 -1.4849
  394MOL0     H53143   4.059   5.528   8.300 -2.5191 -1.9899  2.4612
  394MOL0     H53144   4.066   5.269   8.250  2.8897  0.7309 -2.1679
  394MOL0     H53145   4.157   5.275   8.409 -0.3903  0.7305  0.6474
  394MOL0     H53146   3.889   5.403   8.373  2.5115 -0.0564 -2.1113
  394MOL0     H53147   3.970   5.381   8.519  1.9399  1.2964 -0.2813
  394MOL0     H53148   3.948   5.124   8.467 -1.2535 -0.3923 -0.5522
  394MOL0     H53149   3.847   5.175   8.332  0.2286  1.7976 -1.6177
  394MOL0     H53150   3.703   4.999   8.394 -1.5324  0.3502 -2.1838
  394MOL0     H53151   3.499   4.892   8.400  2.1357 -0.2054 -0.3723
  394MOL0     H53152   3.187   4.861   8.142 -2.7802  0.4070 -3.5210
  394MOL0     H53153   3.006   4.775   8.041  2.1861 -0.2338  0.2466
  394MOL0     H53154   2.650   4.981   8.044  3.2279  1.7334 -0.3980
  394MOL0     H53155   2.788   4.928   7.958  0.7084 -0.8257 -0.1269
  394MOL0     H53156   2.525   4.782   8.005  0.7046  3.7628  1.6369
  394MOL0     H53157   2.549   4.834   7.842 -1.3734 -1.3041 -1.4073
  394MOL0     H53158   2.761   4.650   7.953 -1.3475 -0.2490  0.4555
  394MOL0     H53159   2.611   4.584   7.881 -0.5691  0.5799 -2.2348
  394MOL0     H53160   2.774   4.782   7.723  3.0807 -1.5581  0.4718
  394MOL0     H53161   2.625   4.695   7.685 -1.0043  0.4080  1.1715
  394MOL0     H53162   2.761   4.464   7.712 -0.6827  0.0150 -0.3605
  394MOL0     H53163   2.910   4.559   7.736 -0.4910  0.0915  1.6183
  394MOL0     H53164   2.739   4.543   7.491  1.0138 -1.8983 -2.0784
  394MOL0     H53165   2.831   4.688   7.508 -2.7134  0.2412 -0.0510
  394MOL0     H53166   2.947   4.396   7.511  0.1111 -0.7169 -2.7932
  394MOL0     H53167   3.039   4.544   7.529 -0.5822  3.4446 -2.4881
  394MOL0     H53168   2.872   4.507   7.278  2.0820  0.3710 -1.9784
  394MOL0     H53169   2.990   4.630   7.314 -1.0973  0.8821  1.9622
  394MOL0     H53170   2.758   4.987   8.341 -1.7202 -0.3778 -3.5047
  394MOL0     H53171   2.974   5.036   8.461 -2.1064  1.0873 -0.0483
  394MOL0     H53172   3.332   5.236   8.616  0.6444  1.0782  0.1389
  394MOL0     H53173   3.574   5.319   8.642  0.9409 -0.2155  0.6626
  394MOL0     H53174   4.239   5.071   7.732 -2.8550  1.2423  1.0060
  394MOL0     H53175   4.085   4.934   7.828 -2.0406  3.7412 -0.0398
  394MOL0     H53176   3.947   4.557   7.858 -0.4776 -2.0066  0.8562
  394MOL0     H53177   3.838   4.376   7.976  0.2070  2.4855  1.6605
  394MOL0     H53178   3.563   4.204   7.808  3.6048  1.6770  1.1936
  394MOL0     H53179   3.407   4.252   7.883  0.3474 -1.5856 -2.3886
  394MOL0     H53180   3.519   4.118   8.091 -0.7180  1.0233  0.2603
  394MOL0     H53181   3.651   4.088   7.975  1.2896  4.6620 -3.0326
  394MOL0     H53182   3.365   3.962   7.923 -0.9264 -2.9784  0.4976
  394MOL0     H53183   3.490   3.896   8.033 -2.2795  1.1947  0.4081
  394MOL0     H53184   3.511   3.779   7.822  1.3828 -0.6592 -1.5936
  394MOL0     H53185   3.522   3.942   7.743 -1.8693 -0.5934  1.3449
  394MOL0     H53186   3.909   3.852   7.855 -0.4093  2.3429  0.1853
  394MOL0     H53187   3.452   4.502   7.837  0.1915 -0.8382 -0.9317
  394MOL0     H53188   3.562   4.757   7.618 -2.2350 -1.7145 -1.9664
  394MOL0     H53189   3.424   4.667   7.668 -1.4060  2.2994  3.2043
  394MOL0     H53190   3.477   4.790   7.766  0.1677 -0.7789  1.4467
  395MOL0     O53191   3.256  10.583  11.323 -0.6207 -0.4210  0.1957
  395MOL0     C53192   3.138  10.607  11.296 -1.0951  0.5358  0.0808
  395MOL0     O53193   3.082  10.733  11.270  0.3954 -0.2432  0.6151
  395MOL0     C53194   3.180  10.840  11.291  0.2547  2.1303  0.6674
  395MOL0     C53195   3.255  10.894  11.182  1.0525  0.6035  0.1233
  395MOL0     C53196   3.341  10.995  11.206 -1.7435  0.1268  0.2459
  395MOL0     C53197   3.359  11.040  11.336  0.1051  0.4868  0.1543
  395MOL0     O53198   3.450  11.130  11.380 -0.8506  0.8485  0.3369
  395MOL0     C53199   3.486  11.235  11.293  0.1694  0.2864 -1.2839
  395MOL0     C53200   3.554  11.347  11.376  0.1450 -0.5166 -0.0926
  395MOL0     C53201   3.480  11.367  11.505 -0.0186 -0.7109 -0.1213
  395MOL0     C53202   3.326  11.409  11.491  0.0745 -0.5307  0.8950
  395MOL0     C53203   3.308  11.521  11.388 -0.1699 -0.5408 -0.9011
  395MOL0     C53204   3.172  11.584  11.406  0.9421  0.4579  0.2931
  395MOL0     C53205   3.143  11.677  11.288 -0.6819  0.1317  0.4763
  395MOL0     C53206   3.006  11.746  11.312  0.2917  1.3073 -0.2180
  395MOL0     N53207   3.007  11.861  11.409  1.4967  0.2359 -0.0877
  395MOL0     C53208   3.055  11.984  11.375 -1.4825 -0.9266 -0.4731
  395MOL0     C53209   3.026  12.061  11.485 -0.3954  0.8762 -0.1503
  395MOL0     C53210   3.050  12.212  11.480 -0.3781  0.2691 -0.8002
  395MOL0     C53211   2.924  12.283  11.454  0.6894 -0.1128  0.0181
  395MOL0     C53212   2.974  12.424  11.410  0.3138 -0.5773  0.2405
  395MOL0     C53213   2.861  12.522  11.360 -0.0948 -0.3605 -0.8043
  395MOL0     O53214   2.762  12.542  11.466 -0.3875  0.2399 -0.1334
  395MOL0     C53215   2.636  12.586  11.450 -0.0966 -0.9021  0.7078
  395MOL0     C53216   2.569  12.601  11.325 -0.0505 -0.2698 -0.7845
  395MOL0     C53217   2.439  12.655  11.315 -0.0206  0.1998  0.3707
  395MOL0     C53218   2.372  12.694  11.432  0.1872  0.4235  0.0297
  395MOL0     C53219   2.239  12.761  11.415  0.2785  0.2258  1.6299
  395MOL0     O53220   2.191  12.795  11.284  0.7491  0.0779 -0.4786
  395MOL0     C53221   2.083  12.876  11.299 -0.2503  0.2182  0.6763
  395MOL0     C53222   1.956  12.828  11.330 -0.3455 -0.2374 -0.1439
  395MOL0     C53223   1.848  12.912  11.344 -0.5608  0.2342 -0.4792
  395MOL0     C53224   1.863  13.053  11.320  1.1952  0.3909  0.1614
  395MOL0     O53225   1.776  13.149  11.338 -0.1694 -0.3309  0.8648
  395MOL0     C53226   1.639  13.122  11.353 -1.2980 -0.6311  0.1014
  395MOL0     C53227   1.593  13.111  11.501  0.3199 -0.7915  0.3946
  395MOL0     C53228   1.442  13.145  11.509 -0.4080  0.3016  0.5502
  395MOL0     C53229   1.398  13.288  11.479  1.1292  0.8528  0.2801
  395MOL0     C53230   1.244  13.310  11.483 -0.0494  0.2514  0.4920
  395MOL0     C53231   1.223  13.461  11.511  0.1423 -0.4755  0.4920
  395MOL0     C53232   1.076  13.473  11.566  0.9799 -0.7712 -0.2644
  395MOL0     C53233   1.046  13.612  11.620  0.3580  0.1228  0.3535
  395MOL0    Cl53234   1.130  13.755  11.543 -0.3074  0.3423  0.4903
  395MOL0     C53235   1.992  13.096  11.284  0.1765 -1.5625 -0.8657
  395MOL0     C53236   2.103  13.016  11.269 -0.6157  0.0863 -0.6217
  395MOL0     O53237   2.178  12.775  11.523  0.5294  0.5681 -0.3778
  395MOL0     C53238   2.430  12.661  11.556  0.3219 -0.0857  0.3032
  395MOL0     C53239   2.558  12.616  11.564 -0.1215 -0.2915 -0.0053
  395MOL0     N53240   2.968  11.980  11.577  0.0397  0.3624 -1.1307
  395MOL0     N53241   2.944  11.859  11.529  0.3824  0.8714 -0.0226
  395MOL0     C53242   3.299  10.988  11.446 -0.9686  1.0915 -0.1730
  395MOL0     C53243   3.205  10.887  11.420  0.2990  0.0188 -0.0251
  395MOL0     C53244   3.042  10.487  11.295  0.0688 -0.9642  0.3417
  395MOL0     C53245   2.905  10.511  11.275  0.1684 -0.4677 -0.4186
  395MOL0     C53246   2.819  10.407  11.291 -0.1491 -0.2581 -0.7503
  395MOL0     C53247   2.870  10.277  11.299 -0.2855 -0.2226  0.2263
  395MOL0     O53248   2.779  10.173  11.269 -0.7209 -0.9558 -0.1085
  395MOL0     C53249   2.722  10.107  11.381 -0.3550  0.0476  0.9273
  395MOL0     C53250   2.572  10.126  11.391  0.5807 -0.1526 -0.1710
  395MOL0     C53251   2.507  10.020  11.492 -0.9121 -0.4830  0.3306
  395MOL0     C53252   2.389  10.081  11.570 -0.7250 -0.5935  0.0030
  395MOL0     C53253   2.423  10.183  11.673 -0.0913 -0.8107  0.0949
  395MOL0     C53254   2.422  10.257  11.772 -0.6327  0.2304  1.0986
  395MOL0     C53255   2.999  10.248  11.320  0.5944 -0.7384 -1.2483
  395MOL0     C53256   3.083  10.354  11.313 -0.6763 -0.1778 -0.1115
  395MOL0     C53257   3.227  10.315  11.305  0.3834 -0.5231 -0.3169
  395MOL0     H53258   3.231  10.832  11.096 -2.6304  1.6346  0.2353
  395MOL0     H53259   3.397  11.033  11.121  0.9199 -2.4065  0.7281
  395MOL0     H53260   3.554  11.196  11.217  2.4878  0.4712  0.5739
  395MOL0     H53261   3.400  11.276  11.239 -0.1502  2.5100  0.7435
  395MOL0     H53262   3.562  11.437  11.315 -0.2314 -0.3705  0.0712
  395MOL0     H53263   3.656  11.311  11.393  1.0891  2.7995  2.3786
  395MOL0     H53264   3.527  11.435  11.576 -2.4822 -0.8527  1.7681
  395MOL0     H53265   3.478  11.274  11.563 -3.1216  0.6056  2.1096
  395MOL0     H53266   3.274  11.317  11.465  1.1252 -1.0934  0.7247
  395MOL0     H53267   3.293  11.452  11.586  1.2690  2.3221  0.1480
  395MOL0     H53268   3.391  11.590  11.404  1.1974 -1.8967 -1.8691
  395MOL0     H53269   3.320  11.492  11.283  3.3961  4.4424 -2.2601
  395MOL0     H53270   3.105  11.498  11.399  0.9941  0.5149 -1.2288
  395MOL0     H53271   3.142  11.643  11.493 -1.6518 -1.4730  0.8202
  395MOL0     H53272   3.148  11.613  11.200  0.7089 -0.5157  0.9955
  395MOL0     H53273   3.213  11.759  11.271  0.4919 -0.6245  1.5240
  395MOL0     H53274   2.973  11.798  11.221  1.1975 -0.8127 -1.8560
  395MOL0     H53275   2.935  11.669  11.341 -1.3919  3.0318  0.4232
  395MOL0     H53276   3.106  12.022  11.287  0.1155  2.1087  1.5863
  395MOL0     H53277   3.087  12.233  11.581  1.4304 -0.1505 -1.3236
  395MOL0     H53278   3.123  12.234  11.402 -0.9284  2.6240 -0.7229
  395MOL0     H53279   2.864  12.239  11.374  0.4586  3.1569 -1.7829
  395MOL0     H53280   2.870  12.297  11.548  2.1225 -0.1087  0.8815
  395MOL0     H53281   3.031  12.414  11.317 -0.8848 -1.7242 -0.4303
  395MOL0     H53282   3.042  12.470  11.481  0.4870 -0.8243  0.2352
  395MOL0     H53283   2.816  12.475  11.273  2.4338 -3.1081 -0.8419
  395MOL0     H53284   2.911  12.618  11.345  2.4253 -1.5187 -0.4331
  395MOL0     H53285   2.618  12.564  11.235 -0.0763  0.2374 -1.0074
  395MOL0     H53286   2.393  12.680  11.220 -0.9440  4.9745  1.7884
  395MOL0     H53287   1.948  12.722  11.353 -2.6944  0.0528  0.6012
  395MOL0     H53288   1.753  12.874  11.381 -0.1643 -0.9697 -0.6714
  395MOL0     H53289   1.593  13.203  11.296 -0.0373  1.1488  1.5275
  395MOL0     H53290   1.613  13.030  11.300  2.7932 -0.9167 -1.7565
  395MOL0     H53291   1.627  13.023  11.556  1.3667 -1.2100 -0.8511
  395MOL0     H53292   1.633  13.194  11.559 -0.0260  0.9237 -1.6696
  395MOL0     H53293   1.388  13.078  11.442 -0.0650  0.9045 -0.3475
  395MOL0     H53294   1.423  13.109  11.611 -1.6764 -0.4575  0.0765
  395MOL0     H53295   1.410  13.311  11.373 -4.3654  0.0389 -0.8511
  395MOL0     H53296   1.453  13.352  11.548  0.9963  0.6431  0.5853
  395MOL0     H53297   1.200  13.255  11.566  2.2910  0.4050  1.9158
  395MOL0     H53298   1.200  13.268  11.392  2.7538 -0.4630 -0.6314
  395MOL0     H53299   1.287  13.504  11.588  0.7349  1.0503 -0.7944
  395MOL0     H53300   1.235  13.505  11.411 -1.8605 -1.8697 -0.4419
  395MOL0     H53301   1.055  13.396  11.641 -3.5921  0.1638 -0.3090
  395MOL0     H53302   1.002  13.455  11.487  1.0639 -0.8263 -0.3308
  395MOL0     H53303   0.940  13.635  11.605  1.0231  1.8171 -2.8517
  395MOL0     H53304   1.064  13.602  11.727 -4.5403  0.3762  1.4226
  395MOL0     H53305   2.008  13.200  11.258 -1.9087  0.1409  3.5910
  395MOL0     H53306   2.198  13.061  11.242 -0.1601 -0.0048  0.7399
  395MOL0     H53307   2.379  12.671  11.651 -0.3726  0.5962 -0.1348
  395MOL0     H53308   2.603  12.617  11.663 -0.3489 -0.0717  0.0956
  395MOL0     H53309   3.326  11.018  11.547 -2.0338 -0.1392  0.5011
  395MOL0     H53310   3.135  10.839  11.488 -0.5221 -0.1774 -0.9798
  395MOL0     H53311   2.861  10.609  11.256 -4.1531 -1.9867  0.7447
  395MOL0     H53312   2.712  10.425  11.290 -0.3076 -1.1736 -1.8918
  395MOL0     H53313   2.763  10.143  11.475 -1.2312 -0.2389  1.4330
  395MOL0     H53314   2.736  10.003  11.349 -0.4150  0.3724 -0.2023
  395MOL0     H53315   2.517  10.113  11.297 -1.5271 -0.1297  0.9900
  395MOL0     H53316   2.564  10.226  11.433  0.7903 -1.6144  3.7489
  395MOL0     H53317   2.580   9.983  11.565  0.8871 -0.8020 -1.5484
  395MOL0     H53318   2.457   9.943  11.433 -2.3377  1.6418 -1.4173
  395MOL0     H53319   2.310  10.120  11.506 -0.1190 -4.0074 -3.1348
  395MOL0     H53320   2.335  10.001  11.623 -3.4808  0.0956 -1.5299
  395MOL0     H53321   2.424  10.311  11.864 -2.2402  1.2069  0.5907
  395MOL0     H53322   3.027  10.143  11.330  1.2193 -0.3745  5.2840
  395MOL0     H53323   3.294  10.354  11.382  1.6325  0.1690 -1.7165
  395MOL0     H53324   3.225  10.206  11.295  1.2919 -0.5772 -0.0233
  395MOL0     H53325   3.280  10.358  11.219 -1.2108  3.9751  0.6791
  396MOL0     O53326  10.369  10.325   7.258  1.1714  0.2955  0.4643
  396MOL0     C53327  10.474  10.260   7.232  0.4511 -0.2109 -0.1115
  396MOL0     O53328  10.474  10.148   7.170 -0.1480 -0.6009  0.5289
  396MOL0     C53329  10.346  10.086   7.159 -0.5144 -0.3416  0.0812
  396MOL0     C53330  10.266  10.108   7.046 -0.4242  0.3953 -0.5360
  396MOL0     C53331  10.142  10.038   7.041 -0.1757  0.5400  0.5277
  396MOL0     C53332  10.097   9.960   7.143 -0.3529  0.0768 -0.1904
  396MOL0     O53333   9.984   9.885   7.119 -0.2414 -0.2143 -0.4164
  396MOL0     C53334   9.890   9.862   7.226 -0.3196 -0.8717 -0.2096
  396MOL0     C53335   9.792   9.750   7.182  0.5354 -0.4126  0.5128
  396MOL0     C53336   9.662   9.757   7.253 -0.3308 -0.0312  0.7088
  396MOL0     C53337   9.578   9.638   7.227 -0.4493 -0.4781  0.2520
  396MOL0     C53338   9.429   9.665   7.236 -0.0173 -0.3155 -0.1757
  396MOL0     C53339   9.335   9.534   7.232 -0.7754 -0.4610 -0.4326
  396MOL0     C53340   9.336   9.453   7.108 -0.5836  0.4796  0.0771
  396MOL0     C53341   9.292   9.539   6.994 -0.0629  0.2368  0.2470
  396MOL0     N53342   9.252   9.458   6.871  0.0536  0.1923 -0.6982
  396MOL0     C53343   9.341   9.430   6.769 -0.2012 -0.4138  0.2824
  396MOL0     C53344   9.271   9.344   6.692 -1.0213 -0.2810  0.6715
  396MOL0     C53345   9.333   9.290   6.561  0.0073  0.0849 -0.1235
  396MOL0     C53346   9.245   9.243   6.447 -1.0414  0.1011  0.0142
  396MOL0     C53347   9.136   9.350   6.412 -0.0250  0.2164  0.3151
  396MOL0     C53348   9.072   9.321   6.275  0.6599  0.3173 -0.1718
  396MOL0     O53349   8.969   9.416   6.237 -0.2850  0.1764  0.4606
  396MOL0     C53350   8.884   9.404   6.129 -0.0839 -0.1070 -0.4070
  396MOL0     C53351   8.750   9.448   6.142  0.0314 -0.9983 -0.0189
  396MOL0     C53352   8.674   9.460   6.027 -0.3398  0.4258 -0.1751
  396MOL0     C53353   8.707   9.403   5.903 -0.8771 -0.2248  0.0873
  396MOL0     C53354   8.620   9.424   5.789 -0.1003 -0.0051  0.4824
  396MOL0     O53355   8.498   9.472   5.820 -0.2525  0.2773  0.6884
  396MOL0     C53356   8.417   9.508   5.718  0.2818  1.1577 -0.0425
  396MOL0     C53357   8.315   9.423   5.661  0.4327  0.3688  0.5853
  396MOL0     C53358   8.216   9.474   5.579  1.1583  0.3397 -1.0949
  396MOL0     C53359   8.219   9.608   5.539 -0.1697 -1.0179  0.0248
  396MOL0     O53360   8.126   9.644   5.441  0.3525 -0.5442  0.3547
  396MOL0     C53361   8.153   9.763   5.361  0.5546  0.5526 -0.1906
  396MOL0     C53362   8.068   9.783   5.239  0.9299 -0.7437  0.5560
  396MOL0     C53363   7.930   9.733   5.264 -0.6852 -0.0560  0.3785
  396MOL0     C53364   7.866   9.709   5.114  0.8018 -0.7014 -0.0029
  396MOL0     C53365   7.732   9.640   5.109 -0.7622  0.1067 -0.6544
  396MOL0     C53366   7.645   9.683   4.993 -0.5179 -0.2852 -0.7180
  396MOL0     C53367   7.528   9.579   4.981  0.4659  0.8110  0.2914
  396MOL0     C53368   7.439   9.628   4.878 -0.3623 -0.4590 -0.2693
  396MOL0    Cl53369   7.317   9.510   4.834  0.1543 -0.4919 -0.0750
  396MOL0     C53370   8.315   9.690   5.591  0.0046  0.5937  0.4111
  396MOL0     C53371   8.414   9.640   5.681  0.7996 -0.4566  0.7216
  396MOL0     O53372   8.656   9.383   5.685  0.2648 -0.1157 -0.1907
  396MOL0     C53373   8.842   9.362   5.888  0.2872 -0.6230  0.9783
  396MOL0     C53374   8.931   9.367   6.000  0.0718 -0.2246 -0.1966
  396MOL0     N53375   9.147   9.335   6.736  0.1576  0.1068  0.1869
  396MOL0     N53376   9.137   9.394   6.843  0.3800  0.0543 -0.4714
  396MOL0     C53377  10.173   9.955   7.259  0.0943  0.1233  1.0761
  396MOL0     C53378  10.301  10.014   7.268  0.9323  0.2589 -0.6909
  396MOL0     C53379  10.612  10.297   7.282 -0.2076 -1.0342  0.2130
  396MOL0     C53380  10.700  10.191   7.322  0.5623 -0.4285 -0.4580
  396MOL0     C53381  10.832  10.219   7.360 -0.9439  0.1836 -0.1786
  396MOL0     C53382  10.878  10.351   7.374 -0.3836  0.5464  0.8467
  396MOL0     O53383  11.014  10.368   7.401  0.5815  0.1349  0.7546
  396MOL0     C53384  11.052  10.466   7.500 -0.4810  0.1111 -1.0094
  396MOL0     C53385  11.183  10.428   7.561 -0.0660  0.4169 -0.3263
  396MOL0     C53386  11.197  10.292   7.628  0.0561 -0.3944  0.6605
  396MOL0     C53387  11.345  10.279   7.662  0.0189  0.1588 -0.6645
  396MOL0     C53388  11.354  10.153   7.730 -0.3119  0.6415 -0.2637
  396MOL0     C53389  11.370  10.054   7.803 -0.6331  0.4719  0.6040
  396MOL0     C53390  10.789  10.455   7.352  0.4881  0.9118  0.1016
  396MOL0     C53391  10.665  10.435   7.302 -0.1519  0.3906 -0.2143
  396MOL0     C53392  10.581  10.553   7.253 -0.6747  0.3446 -1.2465
  396MOL0     H53393  10.309  10.181   6.978  2.9807  1.0036  1.9875
  396MOL0     H53394  10.070  10.058   6.963  0.6419  1.9618  0.0977
  396MOL0     H53395   9.953   9.834   7.311 -1.3418 -0.3948  0.7288
  396MOL0     H53396   9.822   9.945   7.246 -2.0412 -1.9723 -1.1948
  396MOL0     H53397   9.831   9.655   7.222  0.8587 -0.4407  0.1426
  396MOL0     H53398   9.779   9.754   7.073 -0.1042 -1.8627  0.5109
  396MOL0     H53399   9.603   9.839   7.211  4.5563  3.0427 -1.0630
  396MOL0     H53400   9.696   9.780   7.355  1.9348 -1.5387  0.3550
  396MOL0     H53401   9.608   9.614   7.125  0.3425  1.6924 -0.0718
  396MOL0     H53402   9.593   9.564   7.306  0.2259 -0.5027  0.1016
  396MOL0     H53403   9.408   9.714   7.331  0.8399 -0.9158  0.3420
  396MOL0     H53404   9.409   9.726   7.147 -0.5688  0.6153  0.5724
  396MOL0     H53405   9.363   9.478   7.322 -2.9290  2.1907  2.1169
  396MOL0     H53406   9.233   9.569   7.250 -0.1682  0.0495  2.6254
  396MOL0     H53407   9.253   9.381   7.103 -0.8631  0.5972  2.1947
  396MOL0     H53408   9.434   9.406   7.098 -0.8901  0.2822 -3.8418
  396MOL0     H53409   9.200   9.588   7.028 -0.1468 -2.2267  4.1679
  396MOL0     H53410   9.357   9.621   6.961 -0.0412 -0.7108 -2.2859
  396MOL0     H53411   9.447   9.450   6.756  0.8005 -4.2835  1.1591
  396MOL0     H53412   9.385   9.374   6.513  1.7831 -1.9216 -1.9061
  396MOL0     H53413   9.416   9.220   6.575  0.5815  0.4522 -1.4933
  396MOL0     H53414   9.303   9.205   6.363 -1.2927  0.1982 -0.2070
  396MOL0     H53415   9.190   9.163   6.498 -0.3011  1.2497  2.7914
  396MOL0     H53416   9.181   9.449   6.424  2.4289 -0.9494  1.5742
  396MOL0     H53417   9.049   9.346   6.478  0.0730  0.5973  0.4682
  396MOL0     H53418   9.028   9.221   6.284 -1.5472  1.3494  1.2888
  396MOL0     H53419   9.147   9.313   6.195 -0.7691  2.7993 -1.8756
  396MOL0     H53420   8.705   9.465   6.239 -0.5263  0.2603 -0.4757
  396MOL0     H53421   8.575   9.505   6.029 -0.7094 -0.3126 -1.0468
  396MOL0     H53422   8.318   9.316   5.682  1.4462  0.3130  0.2439
  396MOL0     H53423   8.129   9.421   5.540 -0.4780  1.1596  1.2514
  396MOL0     H53424   8.149   9.852   5.424  0.9800 -0.6160  1.5865
  396MOL0     H53425   8.260   9.755   5.339  1.5375 -0.9267  4.1744
  396MOL0     H53426   8.052   9.892   5.238 -1.6401 -1.0702  1.3079
  396MOL0     H53427   8.126   9.754   5.151 -0.1032 -0.5828 -0.1909
  396MOL0     H53428   7.921   9.638   5.317  0.2149 -0.3908 -0.0465
  396MOL0     H53429   7.870   9.811   5.312 -2.3462  1.7894 -4.0497
  396MOL0     H53430   7.926   9.643   5.050 -0.7282 -2.7542  0.5679
  396MOL0     H53431   7.856   9.806   5.064 -2.0205 -0.8769  0.0385
  396MOL0     H53432   7.665   9.663   5.193  2.5177  2.1155  1.6497
  396MOL0     H53433   7.756   9.533   5.116  0.1467  0.2198 -1.8160
  396MOL0     H53434   7.607   9.783   5.015 -1.1175 -0.2949 -1.6728
  396MOL0     H53435   7.711   9.689   4.906  0.2659  1.9270 -0.0382
  396MOL0     H53436   7.476   9.566   5.076  0.6429  0.0037  0.2850
  396MOL0     H53437   7.558   9.477   4.956  0.9657  1.4097 -1.7431
  396MOL0     H53438   7.401   9.725   4.911  3.1408  0.0602  2.9690
  396MOL0     H53439   7.499   9.662   4.793  0.2740  2.1267  1.1057
  396MOL0     H53440   8.319   9.794   5.560  0.4075  0.5783  0.4112
  396MOL0     H53441   8.477   9.711   5.734  0.1299 -0.0447  0.9787
  396MOL0     H53442   8.883   9.323   5.795  2.1491  1.5200  0.8068
  396MOL0     H53443   9.034   9.347   5.973 -0.9503 -1.8362 -3.4596
  396MOL0     H53444  10.140   9.896   7.343 -1.3182 -0.3230  0.2333
  396MOL0     H53445  10.364  10.009   7.357  0.5977 -1.6846 -0.5228
  396MOL0     H53446  10.670  10.086   7.324 -0.9914 -0.0080  1.5712
  396MOL0     H53447  10.904  10.141   7.383 -2.9985 -1.3576  1.4687
  396MOL0     H53448  10.975  10.459   7.578  2.6978 -3.1820  2.2324
  396MOL0     H53449  11.053  10.569   7.464  2.8474  0.4441 -0.2716
  396MOL0     H53450  11.204  10.491   7.647  1.4866 -0.0695 -0.3153
  396MOL0     H53451  11.273  10.440   7.499  2.5292 -1.0835  2.8541
  396MOL0     H53452  11.173  10.221   7.549  3.4948 -0.5952 -0.3324
  396MOL0     H53453  11.136  10.283   7.719 -1.1651  0.1964 -0.0622
  396MOL0     H53454  11.405  10.277   7.571  0.7535  0.1871 -0.1891
  396MOL0     H53455  11.375  10.362   7.727  0.8321 -0.0975 -0.7062
  396MOL0     H53456  11.369   9.977   7.877  2.0418 -2.5076 -2.1172
  396MOL0     H53457  10.832  10.555   7.359  1.7602  0.5010 -1.3215
  396MOL0     H53458  10.530  10.613   7.329 -0.0526  2.1181 -2.1588
  396MOL0     H53459  10.652  10.625   7.210  2.1561  1.8381  4.9057
  396MOL0     H53460  10.506  10.523   7.179 -1.3826 -0.2116 -0.3107
  397MOL0     O53461   2.684  10.101   9.832 -0.1463 -0.3167 -0.1115
  397MOL0     C53462   2.579  10.130   9.772 -0.2217 -0.6458  0.3746
  397MOL0     O53463   2.471  10.183   9.831  0.4282 -0.6018  0.4798
  397MOL0     C53464   2.432  10.167   9.959 -0.6361  0.7232 -0.5343
  397MOL0     C53465   2.369  10.273  10.025  0.0952  0.2193 -0.3683
  397MOL0     C53466   2.330  10.260  10.160  0.0709  0.2731 -0.1005
  397MOL0     C53467   2.354  10.135  10.230 -0.4345 -0.1006 -0.3079
  397MOL0     O53468   2.319  10.114  10.363 -0.5258  0.5919  0.2022
  397MOL0     C53469   2.303  10.219  10.465 -0.2869 -0.7276  0.5625
  397MOL0     C53470   2.305  10.168  10.611  0.0691  0.7432 -0.4461
  397MOL0     C53471   2.423  10.065  10.651  0.2810  0.1483 -0.1851
  397MOL0     C53472   2.566  10.119  10.635 -0.0132 -0.6389 -0.0914
  397MOL0     C53473   2.583  10.235  10.733 -0.2046  0.4431  0.4109
  397MOL0     C53474   2.735  10.276  10.740 -0.7750 -0.6852  0.8416
  397MOL0     C53475   2.772  10.282  10.894  0.0559 -0.2157  0.5653
  397MOL0     C53476   2.920  10.305  10.913 -0.3662  0.6885  0.2779
  397MOL0     N53477   2.964  10.437  10.908 -0.2309 -0.2309 -0.1725
  397MOL0     C53478   2.890  10.550  10.931 -0.8273 -0.3820 -0.4289
  397MOL0     C53479   2.975  10.655  10.920 -0.2479  0.1099  0.1817
  397MOL0     C53480   2.933  10.799  10.921  0.4214 -0.5007  0.4726
  397MOL0     C53481   2.935  10.851  10.775  0.3505  0.3704  0.3582
  397MOL0     C53482   2.817  10.802  10.684  0.1726  0.1497 -0.4640
  397MOL0     C53483   2.836  10.849  10.538 -0.0786  0.2207 -0.7350
  397MOL0     O53484   2.839  10.989  10.513 -0.6189  0.8351 -0.2445
  397MOL0     C53485   2.726  11.058  10.535 -0.1170 -0.6719 -0.2974
  397MOL0     C53486   2.599  11.018  10.564  0.5415  0.0382  0.2233
  397MOL0     C53487   2.487  11.102  10.592 -0.6570 -0.2699 -0.3968
  397MOL0     C53488   2.504  11.243  10.607 -0.5049  0.5439 -1.3578
  397MOL0     C53489   2.402  11.346  10.643  0.4555  0.1440 -0.1751
  397MOL0     O53490   2.432  11.466  10.707  0.0483 -0.1663 -0.3673
  397MOL0     C53491   2.329  11.550  10.749 -0.6325  0.2188 -1.0302
  397MOL0     C53492   2.312  11.554  10.893 -0.0198 -0.6894  0.5134
  397MOL0     C53493   2.239  11.652  10.953 -0.1078 -0.4665 -0.1621
  397MOL0     C53494   2.175  11.750  10.870  0.2264  0.0261 -0.0970
  397MOL0     O53495   2.099  11.856  10.911 -0.1633  0.1971 -0.5448
  397MOL0     C53496   2.015  11.819  11.024  0.7182 -0.7764 -0.2114
  397MOL0     C53497   2.061  11.902  11.150 -1.4725 -1.4425  0.1509
  397MOL0     C53498   2.000  11.868  11.273  0.4600  0.0587  0.6856
  397MOL0     C53499   2.035  11.966  11.390 -0.5279  0.1301 -0.6781
  397MOL0     C53500   1.978  11.915  11.527 -0.0487  0.3063 -0.2489
  397MOL0     C53501   2.009  12.013  11.639  0.9859  0.6705  0.3026
  397MOL0     C53502   1.923  12.142  11.625  0.5018 -0.4165 -0.6589
  397MOL0     C53503   1.896  12.205  11.768  0.3066  0.0905 -0.0892
  397MOL0    Cl53504   1.755  12.121  11.838  0.1756 -0.3239  0.2266
  397MOL0     C53505   2.184  11.738  10.732  0.4695 -0.1318 -0.8318
  397MOL0     C53506   2.258  11.640  10.665  0.1392 -0.2140 -1.5378
  397MOL0     O53507   2.290  11.300  10.624 -0.5555 -0.0892  1.0381
  397MOL0     C53508   2.638  11.287  10.571 -0.5042  0.1429  0.1954
  397MOL0     C53509   2.746  11.195  10.528  0.5689 -0.2832 -0.0310
  397MOL0     N53510   3.100  10.601  10.896  0.5277 -0.2626  0.4086
  397MOL0     N53511   3.095  10.478  10.890  0.0622  0.0626 -0.5240
  397MOL0     C53512   2.412  10.024  10.155 -0.0653  0.5364 -0.7883
  397MOL0     C53513   2.450  10.046  10.022  0.5572  0.3640  0.2034
  397MOL0     C53514   2.595  10.116   9.622  0.5973 -0.7212  0.4480
  397MOL0     C53515   2.488  10.062   9.548  0.6804  0.3987  0.7300
  397MOL0     C53516   2.490  10.061   9.408  0.7108 -0.7981 -0.2174
  397MOL0     C53517   2.594  10.128   9.339  0.2896 -0.6597 -1.0151
  397MOL0     O53518   2.590  10.147   9.205  0.2330  0.5312 -0.1664
  397MOL0     C53519   2.561  10.037   9.118  0.6029 -0.4340 -0.4318
  397MOL0     C53520   2.693   9.976   9.064 -0.4324  0.3175  0.0534
  397MOL0     C53521   2.671   9.890   8.940 -1.1216  0.0465  0.6771
  397MOL0     C53522   2.798   9.848   8.859 -0.0191 -0.4875  0.6884
  397MOL0     C53523   2.871   9.744   8.926 -0.8930 -0.2585  0.2284
  397MOL0     C53524   2.950   9.664   8.966  0.3797 -0.6675  0.3471
  397MOL0     C53525   2.703  10.176   9.408 -0.3622  0.5440 -0.7759
  397MOL0     C53526   2.710  10.176   9.550  0.5654  0.5093 -0.5837
  397MOL0     C53527   2.837  10.223   9.615  0.7282  0.2743 -0.0046
  397MOL0     H53528   2.340  10.358   9.964 -3.5972  0.3183  1.2094
  397MOL0     H53529   2.295  10.345  10.218  3.8610  1.5318  0.6565
  397MOL0     H53530   2.389  10.285  10.447 -1.5984  0.4169 -1.9965
  397MOL0     H53531   2.213  10.273  10.436 -1.1261 -1.0794  2.4363
  397MOL0     H53532   2.215  10.106  10.617 -0.2638  1.3418  3.9013
  397MOL0     H53533   2.302  10.254  10.679  1.1808  0.0044  0.5919
  397MOL0     H53534   2.403   9.978  10.588  1.5566  0.4926 -1.1048
  397MOL0     H53535   2.409  10.038  10.756  0.2861  0.3256 -0.1379
  397MOL0     H53536   2.636  10.038  10.658 -0.8369 -1.7309 -1.2722
  397MOL0     H53537   2.587  10.160  10.536 -1.5153  2.0433  0.6035
  397MOL0     H53538   2.527  10.322  10.699 -0.0039  1.7940  3.2587
  397MOL0     H53539   2.544  10.206  10.830 -0.2601 -2.4420 -0.3722
  397MOL0     H53540   2.812  10.211  10.697  1.9057  2.2149  0.8807
  397MOL0     H53541   2.742  10.378  10.699  0.9763 -1.1147 -0.0077
  397MOL0     H53542   2.737  10.190  10.941 -2.0248  0.1138 -0.2566
  397MOL0     H53543   2.727  10.367  10.947  0.0883  0.4879 -0.5083
  397MOL0     H53544   2.939  10.261  11.012  0.4208 -1.4641 -0.7700
  397MOL0     H53545   2.984  10.246  10.846 -1.4489 -1.6514  1.1757
  397MOL0     H53546   2.782  10.550  10.940 -0.6551 -0.4930  2.7573
  397MOL0     H53547   2.833  10.805  10.964  0.0572  0.6997 -0.4589
  397MOL0     H53548   2.995  10.861  10.986 -0.9182  1.2978  0.1170
  397MOL0     H53549   2.940  10.960  10.765 -1.1426  0.3095 -1.7519
  397MOL0     H53550   3.018  10.799  10.726 -0.6099 -2.1290  1.2182
  397MOL0     H53551   2.720  10.827  10.728  0.2995  3.0356 -1.5743
  397MOL0     H53552   2.809  10.694  10.674  0.7008  0.1401 -0.8754
  397MOL0     H53553   2.752  10.804  10.483  0.7612 -4.6798  1.4741
  397MOL0     H53554   2.918  10.803  10.482 -0.0234  0.3474 -0.7614
  397MOL0     H53555   2.567  10.914  10.568  0.1294  0.1297 -0.5200
  397MOL0     H53556   2.384  11.068  10.601 -1.0816  0.5447 -1.8469
  397MOL0     H53557   2.361  11.476  10.950  1.5410  0.8328  1.3604
  397MOL0     H53558   2.250  11.658  11.061  1.0940 -0.8360 -0.2502
  397MOL0     H53559   1.915  11.852  10.997 -0.7239 -1.6546  3.4130
  397MOL0     H53560   2.026  11.712  11.047  0.8433 -0.9298 -0.9572
  397MOL0     H53561   2.168  11.906  11.174 -1.5761  1.5901  0.5287
  397MOL0     H53562   2.029  12.006  11.139 -0.2430 -0.4184  4.4389
  397MOL0     H53563   1.891  11.865  11.271  0.4704 -1.0796 -1.6614
  397MOL0     H53564   2.031  11.767  11.300 -0.7847 -0.2753  0.9219
  397MOL0     H53565   2.002  12.067  11.366  0.6548  1.0618  1.3589
  397MOL0     H53566   2.140  11.992  11.406 -1.2583  1.5658  2.5999
  397MOL0     H53567   2.039  11.828  11.552  2.1723  1.8593  0.0740
  397MOL0     H53568   1.872  11.887  11.522  0.5649 -2.3064  0.3083
  397MOL0     H53569   1.969  11.962  11.727  2.2214  1.6745  1.5012
  397MOL0     H53570   2.116  12.036  11.645  0.6528  1.9442  3.4001
  397MOL0     H53571   1.826  12.124  11.579  0.9695 -1.4155 -1.2696
  397MOL0     H53572   1.979  12.217  11.569  1.4441 -1.7931 -1.6108
  397MOL0     H53573   1.977  12.199  11.842 -1.4702  0.9643  2.0107
  397MOL0     H53574   1.869  12.310  11.754 -1.4452  0.0367  2.2801
  397MOL0     H53575   2.129  11.800  10.662 -1.0925 -1.5770 -0.9517
  397MOL0     H53576   2.276  11.629  10.558  3.9918 -3.5771 -0.7726
  397MOL0     H53577   2.672  11.389  10.585 -0.8268 -0.0498  2.9389
  397MOL0     H53578   2.845  11.230  10.500  0.1686  0.8551 -0.0900
  397MOL0     H53579   2.427   9.935  10.215  0.7399  2.2134  1.6467
  397MOL0     H53580   2.489   9.960   9.968  0.5311  0.7342 -0.4207
  397MOL0     H53581   2.406  10.018   9.603  2.9735 -3.2715  1.5396
  397MOL0     H53582   2.397  10.038   9.358 -1.1622  2.5152  1.4138
  397MOL0     H53583   2.490  10.071   9.041  1.6859  0.8607 -0.8874
  397MOL0     H53584   2.516   9.956   9.177 -0.1867  0.8885  0.8292
  397MOL0     H53585   2.755   9.918   9.133  2.1449  1.1443 -1.4132
  397MOL0     H53586   2.764  10.058   9.047 -1.5571  1.1931 -0.5713
  397MOL0     H53587   2.598   9.949   8.884  0.3783  2.8252  1.4384
  397MOL0     H53588   2.622   9.796   8.966  0.4180 -1.9488 -2.9276
  397MOL0     H53589   2.762   9.809   8.763 -0.0304 -0.6192  0.7468
  397MOL0     H53590   2.842   9.947   8.844 -2.8016  0.3778 -4.2257
  397MOL0     H53591   3.022   9.604   9.018  1.2917  1.6610  1.9766
  397MOL0     H53592   2.786  10.222   9.356 -0.1124 -0.0370 -0.9052
  397MOL0     H53593   2.917  10.184   9.551  3.1398  4.1607  0.3183
  397MOL0     H53594   2.846  10.331   9.600  0.9591 -0.0305 -2.6420
  397MOL0     H53595   2.866  10.185   9.713  2.2771 -0.9220 -0.8806
  398MOL0     O53596   6.226   7.003   5.125  0.3470  0.6457 -0.2337
  398MOL0     C53597   6.177   6.900   5.166 -0.2158 -0.1283  0.2950
  398MOL0     O53598   6.218   6.848   5.289 -0.8451 -0.2816 -0.0243
  398MOL0     C53599   6.300   6.919   5.383  0.9564  1.0481  1.1537
  398MOL0     C53600   6.423   6.972   5.338 -0.6301  0.0284 -0.0992
  398MOL0     C53601   6.510   7.026   5.428 -0.9353 -0.1586  0.1221
  398MOL0     C53602   6.477   7.033   5.563  0.1883 -0.2148  0.4013
  398MOL0     O53603   6.572   7.074   5.661  0.6219 -0.7008  0.1975
  398MOL0     C53604   6.566   7.033   5.797  0.2434 -0.7499 -0.4874
  398MOL0     C53605   6.696   7.035   5.884  0.1124 -0.8097  0.0088
  398MOL0     C53606   6.805   6.939   5.828  0.3850  1.0935 -0.3216
  398MOL0     C53607   6.919   6.938   5.931  0.5912  1.2526 -0.9781
  398MOL0     C53608   7.013   7.055   5.916 -0.8311 -0.5195 -0.0263
  398MOL0     C53609   7.147   7.049   5.993  0.1216 -1.2181 -0.1194
  398MOL0     C53610   7.241   7.160   5.926  0.5418 -0.2433 -0.4484
  398MOL0     C53611   7.367   7.172   6.001 -0.5517 -0.1801  0.6183
  398MOL0     N53612   7.478   7.205   5.909 -0.7449 -0.5059  0.4406
  398MOL0     C53613   7.492   7.331   5.855  0.2092 -0.5196 -0.8346
  398MOL0     C53614   7.595   7.334   5.763 -0.0534  0.3194 -0.9949
  398MOL0     C53615   7.649   7.442   5.682 -0.4190 -0.5565  1.0756
  398MOL0     C53616   7.758   7.511   5.753  0.3223 -0.6572 -0.4923
  398MOL0     C53617   7.842   7.602   5.661 -0.2409  0.5563  0.4253
  398MOL0     C53618   7.767   7.701   5.572 -0.0034  0.2370 -0.7245
  398MOL0     O53619   7.679   7.797   5.643 -0.0103 -0.1850 -0.3641
  398MOL0     C53620   7.589   7.850   5.565  0.5805 -0.1214  0.2697
  398MOL0     C53621   7.457   7.859   5.620  0.0212 -0.5894  0.9137
  398MOL0     C53622   7.357   7.934   5.549 -0.0864 -0.5883  1.0967
  398MOL0     C53623   7.392   7.984   5.417 -0.0059  0.2522  0.9136
  398MOL0     C53624   7.281   8.030   5.324 -0.3336 -0.6256  0.2289
  398MOL0     O53625   7.156   8.026   5.374  0.3928  0.2285  0.0774
  398MOL0     C53626   7.056   8.119   5.351 -0.2901  0.8079  0.1921
  398MOL0     C53627   6.927   8.083   5.402  0.2831  0.2878 -0.0665
  398MOL0     C53628   6.814   8.158   5.404  0.1215 -0.3974 -0.1036
  398MOL0     C53629   6.808   8.280   5.349  0.5194 -0.4193  0.7042
  398MOL0     O53630   6.688   8.345   5.323  0.2962  0.6985  0.1047
  398MOL0     C53631   6.588   8.346   5.433 -1.2376 -1.0108 -0.5252
  398MOL0     C53632   6.466   8.421   5.376 -0.1938  0.0815 -0.2921
  398MOL0     C53633   6.490   8.569   5.345 -0.0104 -0.4470  0.3364
  398MOL0     C53634   6.358   8.647   5.318 -0.3368 -0.1727  0.3291
  398MOL0     C53635   6.369   8.797   5.349  0.6567  0.5989 -0.0106
  398MOL0     C53636   6.468   8.866   5.271 -0.2010  0.5540 -0.4718
  398MOL0     C53637   6.458   9.016   5.277  0.0918 -0.0467 -1.0485
  398MOL0     C53638   6.562   9.109   5.209  0.8441 -0.0037  1.4244
  398MOL0    Cl53639   6.547   9.105   5.032 -0.2067  0.3474  0.2106
  398MOL0     C53640   6.939   8.325   5.304 -0.9417 -0.2582  0.7030
  398MOL0     C53641   7.063   8.245   5.309  0.5594 -0.1215  0.2311
  398MOL0     O53642   7.313   8.076   5.211 -0.1748  0.0329  0.5131
  398MOL0     C53643   7.521   7.976   5.371 -0.5861 -0.5046  0.0582
  398MOL0     C53644   7.622   7.912   5.445 -0.0488 -0.1944 -0.5573
  398MOL0     N53645   7.632   7.200   5.759  0.1472 -0.4450  0.9668
  398MOL0     N53646   7.577   7.132   5.854 -0.3984 -0.1054  0.5503
  398MOL0     C53647   6.344   6.993   5.599  1.0533 -0.1586 -0.9603
  398MOL0     C53648   6.257   6.936   5.511 -0.5710 -0.0774  0.2070
  398MOL0     C53649   6.069   6.841   5.090  0.1879 -0.7317  0.5302
  398MOL0     C53650   5.949   6.791   5.158 -0.4713 -0.3962  0.4326
  398MOL0     C53651   5.834   6.759   5.087  0.1294 -0.3345  0.2089
  398MOL0     C53652   5.828   6.764   4.947  0.0430  0.6041 -0.1744
  398MOL0     O53653   5.716   6.723   4.874 -0.6553  0.5470 -0.2889
  398MOL0     C53654   5.738   6.599   4.815  0.0429 -0.5637 -0.2883
  398MOL0     C53655   5.634   6.504   4.866 -0.2100  0.0597 -0.2479
  398MOL0     C53656   5.638   6.359   4.809 -0.6090  1.0975  0.8379
  398MOL0     C53657   5.632   6.342   4.652  0.5407  0.5298 -0.1214
  398MOL0     C53658   5.768   6.364   4.593 -0.0357  0.8367 -0.3679
  398MOL0     C53659   5.878   6.380   4.540  0.2891 -1.1579 -0.3516
  398MOL0     C53660   5.942   6.818   4.888 -0.3110  0.5028 -0.3120
  398MOL0     C53661   6.065   6.850   4.943  0.1868  0.0395 -0.4458
  398MOL0     C53662   6.182   6.886   4.848  0.2697 -0.0113 -0.2681
  398MOL0     H53663   6.448   6.965   5.233  1.7890 -0.2555  0.4330
  398MOL0     H53664   6.609   7.061   5.401 -1.2891 -0.1287 -1.1964
  398MOL0     H53665   6.488   7.079   5.858  0.7762  0.0519 -0.3994
  398MOL0     H53666   6.531   6.929   5.794 -6.6605  0.9327  2.8725
  398MOL0     H53667   6.661   7.021   5.987  3.3545  0.1400  1.3796
  398MOL0     H53668   6.739   7.136   5.878 -0.9360 -0.4056 -1.0424
  398MOL0     H53669   6.838   6.983   5.734  1.1976 -0.1117 -0.6128
  398MOL0     H53670   6.764   6.838   5.826  0.0092  0.7822  5.3524
  398MOL0     H53671   6.874   6.955   6.029  2.2722  1.9804 -0.2879
  398MOL0     H53672   6.968   6.840   5.927 -1.3969  0.1729 -5.6620
  398MOL0     H53673   7.036   7.046   5.810 -1.3337  1.1534 -0.3019
  398MOL0     H53674   6.965   7.149   5.944 -2.2493 -1.1366 -0.2972
  398MOL0     H53675   7.126   7.069   6.099  0.4813 -0.9822 -0.0928
  398MOL0     H53676   7.195   6.953   5.973  0.5793 -1.1324  0.5275
  398MOL0     H53677   7.199   7.261   5.936 -1.0086 -0.8758 -0.1898
  398MOL0     H53678   7.249   7.136   5.820 -1.6342  1.5540 -1.0956
  398MOL0     H53679   7.348   7.246   6.080 -0.9431 -0.0901  0.4434
  398MOL0     H53680   7.395   7.073   6.038 -0.5218 -1.2300 -2.0290
  398MOL0     H53681   7.445   7.428   5.872  2.1836  0.4421 -0.6005
  398MOL0     H53682   7.688   7.400   5.588 -5.2176  1.6194 -2.2873
  398MOL0     H53683   7.571   7.511   5.648 -1.0406 -2.3514 -1.4184
  398MOL0     H53684   7.721   7.573   5.835  1.0233 -1.2208  0.2740
  398MOL0     H53685   7.816   7.429   5.798 -2.2160 -1.9649  0.6375
  398MOL0     H53686   7.907   7.536   5.603 -1.4929 -1.8367  1.5800
  398MOL0     H53687   7.904   7.657   5.732  0.1212 -0.4428  0.9101
  398MOL0     H53688   7.715   7.633   5.504  1.0276 -3.6962  2.0225
  398MOL0     H53689   7.844   7.754   5.515  0.4791  2.2589  1.6236
  398MOL0     H53690   7.424   7.830   5.719  3.1408 -2.8058  1.4613
  398MOL0     H53691   7.261   7.944   5.599  1.7930 -1.6380  5.3243
  398MOL0     H53692   6.921   7.990   5.458 -1.0941  0.4066  0.0167
  398MOL0     H53693   6.731   8.110   5.455  0.2866 -1.3988 -0.7407
  398MOL0     H53694   6.569   8.250   5.481 -2.6456  0.4358  2.0201
  398MOL0     H53695   6.632   8.418   5.503 -0.5627 -1.9497  0.0406
  398MOL0     H53696   6.430   8.369   5.287  0.7322 -0.7163 -0.2145
  398MOL0     H53697   6.392   8.412   5.457 -1.3769  0.5032 -1.2934
  398MOL0     H53698   6.524   8.617   5.437  0.2854  1.4384 -0.7141
  398MOL0     H53699   6.572   8.577   5.273  1.5389 -2.5208  1.7291
  398MOL0     H53700   6.285   8.591   5.377 -0.7060 -0.0185  0.0231
  398MOL0     H53701   6.326   8.646   5.214 -3.1567 -0.2553  1.1124
  398MOL0     H53702   6.389   8.828   5.452 -2.5759  0.8689  0.6328
  398MOL0     H53703   6.270   8.836   5.322  0.9274  1.5201  0.2862
  398MOL0     H53704   6.556   8.826   5.323 -0.8206  0.5130  0.5659
  398MOL0     H53705   6.446   8.833   5.169 -1.0709  1.2787 -0.5317
  398MOL0     H53706   6.475   9.023   5.384 -1.8286 -0.8941 -0.6503
  398MOL0     H53707   6.361   9.058   5.248  0.5913  0.1948 -2.4986
  398MOL0     H53708   6.549   9.212   5.245 -1.1754 -0.0728  0.9918
  398MOL0     H53709   6.662   9.073   5.233  0.7156 -0.7475  0.8642
  398MOL0     H53710   6.940   8.418   5.248 -2.8334 -1.6371 -1.8370
  398MOL0     H53711   7.150   8.284   5.257 -1.2814  0.2101 -2.8203
  398MOL0     H53712   7.547   7.992   5.267  0.9715 -3.6750 -0.1576
  398MOL0     H53713   7.724   7.899   5.410  1.0769  1.7530  1.6942
  398MOL0     H53714   6.317   7.002   5.704 -0.7853 -2.3238 -1.1580
  398MOL0     H53715   6.162   6.901   5.552 -0.7382  0.5351  0.3586
  398MOL0     H53716   5.963   6.785   5.266  0.3936 -1.3715  0.2670
  398MOL0     H53717   5.751   6.712   5.138 -1.2414  0.1768 -1.4602
  398MOL0     H53718   5.838   6.557   4.831  1.8111  2.8057 -1.5279
  398MOL0     H53719   5.729   6.605   4.707  0.7992  1.8458 -0.2773
  398MOL0     H53720   5.538   6.549   4.836 -0.7122 -0.4506  0.5519
  398MOL0     H53721   5.633   6.500   4.975 -0.8702  3.5436  0.0027
  398MOL0     H53722   5.549   6.300   4.834  0.2451 -0.8903 -0.4834
  398MOL0     H53723   5.733   6.318   4.846 -0.7441  1.6798  1.8687
  398MOL0     H53724   5.605   6.237   4.637  0.8320  0.1709  1.6784
  398MOL0     H53725   5.558   6.408   4.605  2.0463  2.7624  0.4787
  398MOL0     H53726   5.972   6.395   4.491  1.5747  0.9150  2.5012
  398MOL0     H53727   5.954   6.844   4.783  2.4932 -0.3172 -0.2757
  398MOL0     H53728   6.156   6.979   4.797  0.2524  0.4528  0.5565
  398MOL0     H53729   6.262   6.904   4.921 -1.4278  0.4775  1.5637
  398MOL0     H53730   6.209   6.807   4.778 -0.3798 -1.8081  1.4132
  399MOL0     O53731   2.267   7.205   8.866  0.1255  0.7392  0.1333
  399MOL0     C53732   2.256   7.101   8.797 -0.0575 -0.0435 -0.1651
  399MOL0     O53733   2.355   7.001   8.777  0.4675 -0.0200 -0.5132
  399MOL0     C53734   2.471   7.010   8.845  0.2004  0.4050  0.5017
  399MOL0     C53735   2.480   6.957   8.982 -0.1168  0.2105 -0.3307
  399MOL0     C53736   2.604   6.940   9.039 -0.8354  1.0237 -0.6341
  399MOL0     C53737   2.720   6.976   8.965 -0.6081  1.0267 -0.1893
  399MOL0     O53738   2.841   6.966   9.019  0.0128 -0.1189 -0.2585
  399MOL0     C53739   2.873   6.934   9.151 -0.0205 -0.2919 -0.5032
  399MOL0     C53740   3.021   6.927   9.169  0.5801 -0.5136  0.1632
  399MOL0     C53741   3.104   7.054   9.139 -0.2476 -0.3848 -0.1944
  399MOL0     C53742   3.158   7.064   8.993  0.7180  0.6540  0.5086
  399MOL0     C53743   3.251   7.182   8.968 -0.8005  0.1143  1.2066
  399MOL0     C53744   3.281   7.211   8.820  0.3885  0.2295 -0.1808
  399MOL0     C53745   3.347   7.351   8.805  0.4707  0.5870 -0.2790
  399MOL0     C53746   3.486   7.369   8.872  0.1659  1.2993  0.6994
  399MOL0     N53747   3.565   7.478   8.816  0.5240  0.1633 -0.2359
  399MOL0     C53748   3.614   7.478   8.686  0.2572  0.7006 -0.4570
  399MOL0     C53749   3.709   7.574   8.690  0.7525  0.4995 -0.1989
  399MOL0     C53750   3.777   7.626   8.568  0.5825 -1.1142 -0.1020
  399MOL0     C53751   3.768   7.782   8.544  0.2658 -0.1225  0.2540
  399MOL0     C53752   3.816   7.826   8.400 -0.2724  0.4009 -0.7600
  399MOL0     C53753   3.803   7.975   8.353  0.6039  0.9892  0.5946
  399MOL0     O53754   3.684   8.035   8.410 -0.2425 -0.1780  0.0796
  399MOL0     C53755   3.607   8.105   8.324 -0.2256  0.1255  0.2567
  399MOL0     C53756   3.645   8.214   8.253 -0.6617 -0.3127  1.0417
  399MOL0     C53757   3.549   8.286   8.180  0.3437 -0.5089 -0.2078
  399MOL0     C53758   3.411   8.260   8.187  0.1552  0.0066  0.5716
  399MOL0     C53759   3.305   8.347   8.135  0.1718 -0.2464 -1.1662
  399MOL0     O53760   3.352   8.461   8.073  0.6601 -0.0018 -0.6663
  399MOL0     C53761   3.254   8.555   8.039 -0.5681  1.4494  0.1448
  399MOL0     C53762   3.260   8.591   7.913  0.1678 -0.1313 -0.7053
  399MOL0     C53763   3.187   8.696   7.863 -0.9250 -0.2269  1.0498
  399MOL0     C53764   3.099   8.760   7.952  0.1672 -0.4262  0.2116
  399MOL0     O53765   3.033   8.871   7.910 -0.5364  0.0900 -0.6207
  399MOL0     C53766   2.992   8.975   7.997 -0.5984 -0.2543  1.1494
  399MOL0     C53767   2.849   8.961   8.019  1.5733 -0.1512 -1.5175
  399MOL0     C53768   2.803   9.072   8.118 -0.7314  0.4787 -1.1755
  399MOL0     C53769   2.650   9.067   8.140  0.6482  0.8768  0.0482
  399MOL0     C53770   2.606   9.174   8.237  0.4755  0.2008  0.5170
  399MOL0     C53771   2.662   9.316   8.190  0.0194 -0.0150 -0.6349
  399MOL0     C53772   2.574   9.435   8.238  0.0291  0.5300  0.7884
  399MOL0     C53773   2.649   9.564   8.285 -0.1994 -0.0189  0.3934
  399MOL0    Cl53774   2.785   9.613   8.172 -0.2268 -0.0409 -0.2437
  399MOL0     C53775   3.091   8.710   8.093 -0.9925 -0.2005  0.2486
  399MOL0     C53776   3.169   8.609   8.125 -0.4794  0.2487  0.1216
  399MOL0     O53777   3.187   8.316   8.158  0.0419  0.1414  0.2139
  399MOL0     C53778   3.384   8.143   8.260  0.1157 -0.1366  0.1974
  399MOL0     C53779   3.473   8.062   8.316 -0.0317  0.8182  0.3076
  399MOL0     N53780   3.700   7.639   8.815 -0.0773 -0.8213 -0.3033
  399MOL0     N53781   3.618   7.571   8.894  0.3725  0.3748  0.5930
  399MOL0     C53782   2.709   7.040   8.840  0.2678 -0.0869 -0.4691
  399MOL0     C53783   2.584   7.056   8.780 -0.2816  0.1874 -0.1868
  399MOL0     C53784   2.115   7.074   8.756  0.4892  0.2336 -0.5773
  399MOL0     C53785   2.080   6.944   8.720 -0.8990  0.0483  0.0672
  399MOL0     C53786   1.958   6.922   8.659  0.3639  0.3007 -0.0103
  399MOL0     C53787   1.854   7.011   8.653 -0.7439 -0.0400 -0.6189
  399MOL0     O53788   1.732   6.977   8.595 -0.1606 -1.2571  0.0803
  399MOL0     C53789   1.741   6.953   8.448  0.6416  0.7075 -0.7529
  399MOL0     C53790   1.731   7.080   8.369  0.1737 -0.3461  0.0959
  399MOL0     C53791   1.864   7.150   8.343 -0.3596 -0.1496  0.1528
  399MOL0     C53792   1.824   7.291   8.285  0.1953  1.5801 -0.1026
  399MOL0     C53793   1.749   7.388   8.371 -0.3079 -0.4107  0.3057
  399MOL0     C53794   1.673   7.442   8.446 -0.4632 -0.4496  0.1659
  399MOL0     C53795   1.880   7.139   8.703 -0.0458  0.1141 -0.0776
  399MOL0     C53796   2.008   7.173   8.750  0.7842  0.4815  0.2093
  399MOL0     C53797   2.035   7.321   8.763  0.3684  0.5308 -0.5187
  399MOL0     H53798   2.390   6.935   9.038  2.1701 -2.8007  2.5870
  399MOL0     H53799   2.601   6.902   9.141 -2.3265  0.7806 -0.7540
  399MOL0     H53800   2.833   7.004   9.225 -1.8514 -2.4230  0.6781
  399MOL0     H53801   2.844   6.831   9.173 -0.9915  0.6884  3.6810
  399MOL0     H53802   3.064   6.843   9.113 -0.2248 -1.6772  1.2463
  399MOL0     H53803   3.032   6.898   9.274 -0.1778  0.5496  0.5560
  399MOL0     H53804   3.180   7.068   9.216 -1.4919  4.4343  0.4789
  399MOL0     H53805   3.037   7.137   9.163 -1.9201 -1.1514 -1.9648
  399MOL0     H53806   3.205   6.972   8.957  0.6080  1.1014 -0.8471
  399MOL0     H53807   3.071   7.087   8.931  0.0473  2.4300  2.0093
  399MOL0     H53808   3.197   7.270   9.004 -0.2081  0.1663  2.0116
  399MOL0     H53809   3.351   7.179   9.015  1.3946 -2.9485 -3.0180
  399MOL0     H53810   3.342   7.128   8.783 -0.1446 -1.8871  3.2486
  399MOL0     H53811   3.188   7.214   8.763 -0.3924 -0.0762  1.0347
  399MOL0     H53812   3.278   7.427   8.843 -3.8912 -2.1163 -2.0779
  399MOL0     H53813   3.345   7.373   8.698 -1.1319 -1.9249 -0.8423
  399MOL0     H53814   3.464   7.395   8.976 -1.7949  1.2987  0.3075
  399MOL0     H53815   3.552   7.281   8.881 -0.1697  1.1689  2.1954
  399MOL0     H53816   3.576   7.425   8.600  2.5496  0.0119 -1.0967
  399MOL0     H53817   3.878   7.587   8.555  1.3050  1.1020 -1.7606
  399MOL0     H53818   3.715   7.587   8.488 -1.8042  1.4550  0.3429
  399MOL0     H53819   3.663   7.810   8.557  0.4357  0.5718  0.1379
  399MOL0     H53820   3.829   7.833   8.620 -0.1425  1.3453 -0.3748
  399MOL0     H53821   3.775   7.756   8.327 -3.4520  0.2182  1.0245
  399MOL0     H53822   3.924   7.810   8.407  0.2710  3.9644  1.9171
  399MOL0     H53823   3.801   7.973   8.243  1.0574  2.2163  0.5523
  399MOL0     H53824   3.892   8.025   8.391  3.0704 -3.1676  0.9221
  399MOL0     H53825   3.752   8.236   8.252  0.0903 -3.4706  0.8299
  399MOL0     H53826   3.595   8.361   8.117  1.6812 -1.7463 -0.7475
  399MOL0     H53827   3.322   8.546   7.836 -2.3087 -0.1656 -2.8308
  399MOL0     H53828   3.209   8.739   7.766 -2.6879 -0.1426  0.6604
  399MOL0     H53829   3.051   8.962   8.088  1.7900 -2.4560 -0.5469
  399MOL0     H53830   3.024   9.067   7.948 -0.0244 -1.7186 -1.4742
  399MOL0     H53831   2.796   8.966   7.923 -0.9826 -2.5068 -0.3689
  399MOL0     H53832   2.828   8.862   8.060  1.1317  0.3132 -0.5819
  399MOL0     H53833   2.855   9.040   8.209 -0.9218  4.1305  0.3836
  399MOL0     H53834   2.849   9.167   8.090  4.3410 -2.0964 -2.8474
  399MOL0     H53835   2.633   8.969   8.185  0.0902  1.5491  1.3722
  399MOL0     H53836   2.604   9.066   8.041  2.6281 -0.7774 -0.9448
  399MOL0     H53837   2.628   9.151   8.342  2.1896  0.0046  0.1566
  399MOL0     H53838   2.499   9.184   8.218  0.3722  0.4577  1.2030
  399MOL0     H53839   2.767   9.328   8.220  0.2558 -1.8076 -0.6043
  399MOL0     H53840   2.664   9.329   8.081 -3.2502  2.3029 -0.5582
  399MOL0     H53841   2.507   9.397   8.315  0.7169  0.0541  1.1555
  399MOL0     H53842   2.509   9.466   8.155  1.3135  4.3805  0.9970
  399MOL0     H53843   2.566   9.635   8.281 -1.5273 -1.4865  0.6127
  399MOL0     H53844   2.689   9.561   8.387  1.3358  1.5401 -0.1158
  399MOL0     H53845   3.023   8.762   8.160 -2.1515  0.2922 -1.2616
  399MOL0     H53846   3.158   8.567   8.224 -1.9882 -2.0663 -0.9215
  399MOL0     H53847   3.282   8.125   8.290  0.4557 -2.7116  0.0497
  399MOL0     H53848   3.435   7.984   8.382  0.6918  1.4278  1.4711
  399MOL0     H53849   2.802   7.076   8.796  0.7496 -1.2844 -0.4740
  399MOL0     H53850   2.565   7.099   8.682 -0.3746  1.5777  0.4043
  399MOL0     H53851   2.150   6.861   8.718  0.6964  1.3586 -0.0581
  399MOL0     H53852   1.946   6.831   8.600  0.6247 -0.6532  1.3786
  399MOL0     H53853   1.655   6.890   8.423 -1.0802  3.4686 -2.3422
  399MOL0     H53854   1.834   6.899   8.430  2.0211  2.8945 -0.4864
  399MOL0     H53855   1.669   7.155   8.420  1.0255 -0.9874  2.1592
  399MOL0     H53856   1.677   7.059   8.276  0.6733 -0.8287 -0.0889
  399MOL0     H53857   1.915   7.094   8.264  0.6332 -2.0682  2.0567
  399MOL0     H53858   1.924   7.167   8.433 -1.9430 -1.7577  1.5952
  399MOL0     H53859   1.912   7.335   8.236  0.0490  1.5081 -0.4359
  399MOL0     H53860   1.751   7.258   8.211 -1.3059  1.0042  1.5812
  399MOL0     H53861   1.594   7.487   8.503  1.8202  2.0416  1.6703
  399MOL0     H53862   1.801   7.209   8.679 -4.2823 -4.5403 -1.3807
  399MOL0     H53863   2.113   7.359   8.697 -0.2923  4.0074  0.4829
  399MOL0     H53864   1.945   7.379   8.738 -1.0762  0.2515  3.3057
  399MOL0     H53865   2.052   7.348   8.867 -2.7848  2.2340 -0.3263
  400MOL0     O53866   8.910   0.944   7.871  0.5469  0.7524  1.0308
  400MOL0     C53867   8.955   0.918   7.758 -0.3491  0.2259  0.6723
  400MOL0     O53868   9.080   0.868   7.722 -0.4029 -0.1114 -0.5501
  400MOL0     C53869   9.158   0.826   7.834 -1.0703 -0.1250 -0.7071
  400MOL0     C53870   9.123   0.717   7.914  0.4631 -0.8202 -0.2732
  400MOL0     C53871   9.202   0.678   8.025 -1.2495  0.0481  0.6048
  400MOL0     C53872   9.319   0.750   8.058 -0.1159 -1.1463  0.5921
  400MOL0     O53873   9.388   0.727   8.175  0.5766 -0.2550  0.1570
  400MOL0     C53874   9.533   0.729   8.167 -0.2384  0.0869 -0.3754
  400MOL0     C53875   9.618   0.718   8.303 -0.8630  0.3994 -0.3007
  400MOL0     C53876   9.592   0.809   8.417  1.0072  0.4518  1.0766
  400MOL0     C53877   9.514   0.940   8.378  0.2472  0.2447 -0.5353
  400MOL0     C53878   9.440   0.994   8.498 -0.3762  0.2853 -0.1038
  400MOL0     C53879   9.426   1.147   8.476  0.5640 -0.1655 -0.0070
  400MOL0     C53880   9.366   1.212   8.596 -0.3564  0.0546  0.2426
  400MOL0     C53881   9.409   1.361   8.593  0.1967  0.3184 -0.3736
  400MOL0     N53882   9.338   1.435   8.483 -1.2283  0.3564 -0.1132
  400MOL0     C53883   9.385   1.449   8.350 -0.3609  0.2406 -0.5870
  400MOL0     C53884   9.291   1.504   8.270 -0.1777 -0.3189 -0.1531
  400MOL0     C53885   9.313   1.522   8.127 -0.0552 -0.7031  0.1193
  400MOL0     C53886   9.343   1.665   8.096 -0.2349 -0.6325 -0.1415
  400MOL0     C53887   9.232   1.765   8.121 -0.3330  0.1488  0.2687
  400MOL0     C53888   9.086   1.727   8.080  0.0196 -0.3059  0.1969
  400MOL0     O53889   9.033   1.848   8.020  0.7618  0.3177  0.1792
  400MOL0     C53890   8.998   1.972   8.078 -0.2671 -0.0392  0.4936
  400MOL0     C53891   8.970   1.973   8.209 -0.3807  0.5579  0.0362
  400MOL0     C53892   8.931   2.095   8.273  0.6507 -0.1779  1.0027
  400MOL0     C53893   8.925   2.208   8.199 -0.3622 -0.8882 -0.9575
  400MOL0     C53894   8.923   2.348   8.264 -0.2573  0.1617 -0.4027
  400MOL0     O53895   8.916   2.457   8.182  0.2001  0.3417 -0.0801
  400MOL0     C53896   8.944   2.585   8.225  0.8209 -0.2156  0.4397
  400MOL0     C53897   8.899   2.692   8.146 -0.1868  0.0640 -0.1536
  400MOL0     C53898   8.918   2.826   8.182 -0.0374 -0.0416 -0.7733
  400MOL0     C53899   8.994   2.858   8.297  0.6749  0.8450 -0.0708
  400MOL0     O53900   9.001   2.991   8.339  0.0182  0.0962 -0.0479
  400MOL0     C53901   9.057   3.027   8.464  0.3791 -0.1858 -0.1208
  400MOL0     C53902   9.058   3.180   8.478 -0.2941 -0.8228  0.3260
  400MOL0     C53903   8.908   3.243   8.495 -0.3534  0.1391  0.0194
  400MOL0     C53904   8.899   3.397   8.488  1.1269 -0.8566 -0.0332
  400MOL0     C53905   8.763   3.462   8.534 -0.1477 -0.3294 -0.6959
  400MOL0     C53906   8.742   3.619   8.516 -0.0946  0.8912  0.0985
  400MOL0     C53907   8.842   3.703   8.590 -0.2250 -0.7586 -0.0802
  400MOL0     C53908   8.841   3.683   8.743 -0.8266 -0.5964  0.3073
  400MOL0    Cl53909   8.966   3.793   8.818 -0.3698 -0.2170 -0.5062
  400MOL0     C53910   9.036   2.757   8.370  0.1245  0.9911 -0.9925
  400MOL0     C53911   9.014   2.621   8.340 -0.5937  0.3478  0.6693
  400MOL0     O53912   8.925   2.347   8.389 -0.6501 -0.0391 -0.2821
  400MOL0     C53913   8.957   2.207   8.058 -0.4990  0.7260  0.2820
  400MOL0     C53914   8.988   2.086   7.997 -0.2189 -0.9047 -0.6404
  400MOL0     N53915   9.184   1.517   8.355  0.0819 -0.2510 -0.2688
  400MOL0     N53916   9.210   1.473   8.478 -0.3068 -0.0331  0.0470
  400MOL0     C53917   9.349   0.863   7.982  0.2114 -0.5131  0.4445
  400MOL0     C53918   9.272   0.907   7.868  0.1997 -0.4536  0.0734
  400MOL0     C53919   8.871   0.945   7.648  0.3002 -0.9474  0.7339
  400MOL0     C53920   8.935   1.008   7.538 -0.6380  0.3908 -0.6996
  400MOL0     C53921   8.853   1.039   7.424  0.1688 -0.0227  0.0842
  400MOL0     C53922   8.718   1.020   7.416  0.3047 -0.5124 -1.0776
  400MOL0     O53923   8.666   1.064   7.300  0.2419  0.1525 -0.1061
  400MOL0     C53924   8.521   1.084   7.300  0.5428  0.4237  0.5976
  400MOL0     C53925   8.470   1.148   7.173 -0.2233  0.4191  0.6648
  400MOL0     C53926   8.483   1.046   7.057  0.1528  0.3938  0.4726
  400MOL0     C53927   8.481   1.107   6.915  0.0829  1.0985 -0.2202
  400MOL0     C53928   8.370   1.192   6.891  0.1674 -0.7769  0.4820
  400MOL0     C53929   8.266   1.243   6.846 -0.2323  0.0194  0.0762
  400MOL0     C53930   8.660   0.957   7.524  0.1060  0.5136  1.4094
  400MOL0     C53931   8.735   0.923   7.636  0.4427  0.9084 -0.1823
  400MOL0     C53932   8.660   0.834   7.732  0.8613 -0.2316 -0.3309
  400MOL0     H53933   9.027   0.676   7.883 -0.9703  2.3161 -0.4310
  400MOL0     H53934   9.171   0.597   8.090  4.8417 -2.9740  0.3960
  400MOL0     H53935   9.568   0.651   8.099 -1.3554 -1.5673  0.8595
  400MOL0     H53936   9.570   0.825   8.130 -1.0462  1.7550  2.7798
  400MOL0     H53937   9.714   0.756   8.269  0.0255  2.0870  3.5582
  400MOL0     H53938   9.626   0.610   8.321 -1.4631 -0.3431 -3.7700
  400MOL0     H53939   9.682   0.838   8.471  0.7038  2.3869  0.6109
  400MOL0     H53940   9.523   0.754   8.481  0.6359 -1.8931 -1.1395
  400MOL0     H53941   9.589   1.010   8.340 -1.6748  1.5950 -2.0545
  400MOL0     H53942   9.432   0.928   8.307 -4.2597  0.6255  4.0055
  400MOL0     H53943   9.346   0.939   8.509  1.3474 -3.5258 -2.3955
  400MOL0     H53944   9.498   0.968   8.587 -1.2118 -1.6320 -0.0503
  400MOL0     H53945   9.526   1.185   8.453  0.4174 -1.1917 -2.8262
  400MOL0     H53946   9.357   1.175   8.395  0.9694  3.3264  0.7045
  400MOL0     H53947   9.388   1.161   8.691  2.7021  3.2947  1.5100
  400MOL0     H53948   9.257   1.205   8.585 -0.5561  2.0542  0.5918
  400MOL0     H53949   9.370   1.403   8.686 -2.7139  0.5203 -1.5892
  400MOL0     H53950   9.518   1.364   8.584  0.2469 -2.0625 -1.2690
  400MOL0     H53951   9.480   1.407   8.319  0.1087 -1.3089  2.5674
  400MOL0     H53952   9.394   1.455   8.099  0.1007 -1.0376  1.3378
  400MOL0     H53953   9.224   1.493   8.070 -1.1746  3.3374 -0.5694
  400MOL0     H53954   9.431   1.699   8.152 -0.4577 -1.4030  0.7081
  400MOL0     H53955   9.355   1.670   7.987 -0.7776 -0.0142 -0.1837
  400MOL0     H53956   9.269   1.850   8.064  1.7059  1.2369  3.0191
  400MOL0     H53957   9.233   1.786   8.228 -2.7201 -2.8850  1.0195
  400MOL0     H53958   9.044   1.683   8.171  0.4427 -4.1289 -1.2346
  400MOL0     H53959   9.080   1.649   8.004 -1.4240  1.1407 -1.2493
  400MOL0     H53960   8.961   1.887   8.274 -2.1064 -0.4820 -1.4809
  400MOL0     H53961   8.902   2.105   8.377  1.8303  0.0239  1.3366
  400MOL0     H53962   8.846   2.657   8.058  3.2734 -0.6529 -2.1301
  400MOL0     H53963   8.879   2.894   8.106 -2.4395 -2.3337 -1.7277
  400MOL0     H53964   9.001   2.984   8.548 -0.6503  2.6129  0.7241
  400MOL0     H53965   9.158   2.987   8.474  0.5040 -0.0580 -0.8489
  400MOL0     H53966   9.117   3.204   8.567 -2.2412  3.2411  0.7469
  400MOL0     H53967   9.101   3.238   8.396  1.0516 -1.9539  0.1824
  400MOL0     H53968   8.853   3.191   8.417 -4.1194 -1.0803  3.1847
  400MOL0     H53969   8.858   3.209   8.586 -0.6429  1.2466  0.2914
  400MOL0     H53970   8.916   3.438   8.388 -1.5949  1.8470  0.4526
  400MOL0     H53971   8.977   3.443   8.550 -1.9136  2.1304  1.9705
  400MOL0     H53972   8.749   3.437   8.639  1.8953 -0.7187 -0.4820
  400MOL0     H53973   8.689   3.407   8.474  2.2710 -1.2848 -2.9966
  400MOL0     H53974   8.741   3.629   8.407  1.7632  3.2652  0.2188
  400MOL0     H53975   8.640   3.638   8.552 -0.1943 -0.4032  0.5563
  400MOL0     H53976   8.827   3.810   8.574  0.6729 -0.7476 -0.9326
  400MOL0     H53977   8.942   3.676   8.556  1.1771  1.8832  1.6271
  400MOL0     H53978   8.744   3.693   8.793 -0.2033 -3.1107  2.1910
  400MOL0     H53979   8.880   3.584   8.766 -1.0788 -0.2352  2.5365
  400MOL0     H53980   9.082   2.780   8.466 -1.6818 -2.0045  0.7725
  400MOL0     H53981   9.063   2.545   8.401  2.4990  1.1029 -0.6601
  400MOL0     H53982   8.964   2.297   7.998  1.8339  0.6080  0.3035
  400MOL0     H53983   9.026   2.084   7.895  0.4344  1.6321 -0.5297
  400MOL0     H53984   9.427   0.929   8.017  1.7796 -0.1745 -3.1771
  400MOL0     H53985   9.301   0.995   7.812 -2.4542  0.5215  0.0652
  400MOL0     H53986   9.043   1.017   7.529 -0.4139 -2.3114 -1.4229
  400MOL0     H53987   8.904   1.096   7.347 -3.2738  4.5890  0.7375
  400MOL0     H53988   8.486   1.139   7.387  1.4688 -0.2363  1.4164
  400MOL0     H53989   8.463   0.991   7.307 -0.6339  1.2670  4.7969
  400MOL0     H53990   8.520   1.244   7.156 -0.3348  0.5907  1.2803
  400MOL0     H53991   8.369   1.188   7.185 -1.0107 -1.2107 -0.1591
  400MOL0     H53992   8.411   0.966   7.069 -0.9183  0.6505 -3.1180
  400MOL0     H53993   8.574   0.986   7.070 -0.6325 -0.7317  0.8713
  400MOL0     H53994   8.577   1.160   6.905 -0.0275  1.3508  0.0626
  400MOL0     H53995   8.477   1.039   6.829  4.8548  1.8032 -1.2955
  400MOL0     H53996   8.178   1.290   6.807 -1.9580  0.1458  3.7350
  400MOL0     H53997   8.552   0.947   7.517 -0.0540  1.9064  1.5203
  400MOL0     H53998   8.568   0.802   7.682  0.1916 -1.0053  1.3108
  400MOL0     H53999   8.721   0.746   7.753 -0.4843 -1.1796 -0.2719
  400MOL0     H54000   8.631   0.887   7.823 -0.5596  0.1835 -0.9987
  401MOL0     O54001   2.390  10.256   4.548 -0.3343 -0.6905 -1.0868
  401MOL0     C54002   2.335  10.239   4.666 -0.8827 -0.0057  0.3078
  401MOL0     O54003   2.414  10.213   4.778  0.0004  0.2717  0.0982
  401MOL0     C54004   2.554  10.224   4.767 -0.6540  0.4386  0.5618
  401MOL0     C54005   2.626  10.344   4.738 -0.4626  0.0184  0.2611
  401MOL0     C54006   2.761  10.330   4.749 -0.2709 -0.3680 -0.3104
  401MOL0     C54007   2.836  10.210   4.788  0.0404 -0.4645  0.5726
  401MOL0     O54008   2.970  10.233   4.816  0.7677  1.0671  0.8287
  401MOL0     C54009   3.029  10.134   4.898 -0.4203 -0.3563 -0.2324
  401MOL0     C54010   3.170  10.158   4.931 -0.1266 -0.9295  0.9073
  401MOL0     C54011   3.206  10.107   5.070 -0.4403  0.3458 -0.9949
  401MOL0     C54012   3.351  10.118   5.105 -0.1768  1.4180 -0.1201
  401MOL0     C54013   3.403  10.059   5.240  0.8697 -0.1644  0.4784
  401MOL0     C54014   3.379  10.162   5.355 -0.7423 -0.5075 -0.8150
  401MOL0     C54015   3.448  10.124   5.480 -0.4084  0.5988 -0.9153
  401MOL0     C54016   3.542  10.225   5.555 -0.9343 -0.7053  0.5524
  401MOL0     N54017   3.648  10.278   5.467  0.0046 -0.3575  0.5403
  401MOL0     C54018   3.747  10.196   5.403  0.2971  0.0010 -0.1482
  401MOL0     C54019   3.837  10.284   5.352 -0.5958 -0.1088  0.3461
  401MOL0     C54020   3.974  10.244   5.292 -0.9885 -0.3358  0.9031
  401MOL0     C54021   4.067  10.193   5.401 -0.3376 -0.6634 -1.0013
  401MOL0     C54022   4.218  10.192   5.367 -0.7149 -0.3888 -0.4141
  401MOL0     C54023   4.255  10.087   5.258 -0.7668  0.5469 -0.4537
  401MOL0     O54024   4.386  10.110   5.223 -0.7225  0.9763 -0.2996
  401MOL0     C54025   4.468  10.002   5.190 -0.9741  0.5764  0.8750
  401MOL0     C54026   4.440   9.861   5.201 -0.0687 -0.2544 -1.2688
  401MOL0     C54027   4.536   9.772   5.158  0.0648  0.8480  0.1802
  401MOL0     C54028   4.661   9.804   5.096  0.5236  0.1321  0.5022
  401MOL0     C54029   4.750   9.700   5.044 -0.3009  0.1075 -0.5377
  401MOL0     O54030   4.701   9.578   5.059  0.1024  0.0029  0.5474
  401MOL0     C54031   4.762   9.463   5.013 -0.6033 -0.4755  0.0962
  401MOL0     C54032   4.783   9.451   4.875 -0.6164 -0.2425  1.0403
  401MOL0     C54033   4.859   9.340   4.831  0.3283 -1.5206  0.7244
  401MOL0     C54034   4.890   9.240   4.915 -0.3364 -0.1231 -0.2874
  401MOL0     O54035   4.948   9.130   4.868 -0.2226  0.2439  0.3549
  401MOL0     C54036   5.042   9.071   4.959  0.4283  0.5215  0.0453
  401MOL0     C54037   5.161   9.000   4.897 -1.1046  0.1629  0.0726
  401MOL0     C54038   5.116   8.867   4.823 -0.5362 -0.3883  0.0749
  401MOL0     C54039   5.081   8.753   4.917  0.3563  0.5125 -0.2534
  401MOL0     C54040   4.977   8.655   4.857 -0.3615  0.7131  0.0890
  401MOL0     C54041   4.839   8.717   4.854 -0.4933  0.0918  0.8009
  401MOL0     C54042   4.724   8.621   4.822 -0.9843 -0.2674 -0.1511
  401MOL0     C54043   4.590   8.667   4.868  0.4656 -0.8958 -0.8324
  401MOL0    Cl54044   4.546   8.834   4.809 -0.0795  0.1780  0.3880
  401MOL0     C54045   4.856   9.249   5.048 -0.5876 -0.2538 -1.0651
  401MOL0     C54046   4.810   9.364   5.106 -0.1320  0.2872 -0.4057
  401MOL0     O54047   4.864   9.725   4.991 -0.0863  0.0406  0.1359
  401MOL0     C54048   4.675   9.941   5.066 -0.6483  1.1334  0.1409
  401MOL0     C54049   4.585  10.032   5.110  0.7216 -1.0648  0.2777
  401MOL0     N54050   3.775  10.407   5.370 -1.0045 -0.6657  0.1290
  401MOL0     N54051   3.669  10.407   5.433  0.3805 -0.0625 -0.5805
  401MOL0     C54052   2.752  10.099   4.805 -0.5489  0.2033  0.3129
  401MOL0     C54053   2.618  10.103   4.785  0.6996 -0.7441 -0.5030
  401MOL0     C54054   2.178  10.219   4.673 -0.5261 -0.4791 -0.1075
  401MOL0     C54055   2.135  10.149   4.786  1.0707 -0.0454  0.4037
  401MOL0     C54056   1.995  10.137   4.805 -0.3130  0.5834  0.4449
  401MOL0     C54057   1.910  10.193   4.711  0.6344 -0.2863  0.6141
  401MOL0     O54058   1.779  10.186   4.748  0.0424  0.0304 -0.3646
  401MOL0     C54059   1.670  10.219   4.665 -0.2118  0.3498  0.4308
  401MOL0     C54060   1.630  10.355   4.681 -0.1260 -0.2534 -1.1035
  401MOL0     C54061   1.540  10.396   4.568  0.0653 -0.3626  0.7661
  401MOL0     C54062   1.606  10.509   4.479 -0.4544 -0.1633  1.1235
  401MOL0     C54063   1.578  10.657   4.534  0.2181  0.8694 -0.6566
  401MOL0     C54064   1.572  10.771   4.586  0.6116  0.5918 -0.5971
  401MOL0     C54065   1.957  10.255   4.592  0.5676  0.1675  0.0515
  401MOL0     C54066   2.093  10.283   4.581  0.5748  1.1438  0.4063
  401MOL0     C54067   2.119  10.380   4.467  1.0546  0.1789  0.4490
  401MOL0     H54068   2.580  10.442   4.733  0.8291  0.6243 -0.2751
  401MOL0     H54069   2.821  10.419   4.738  0.6839 -1.0627 -0.8278
  401MOL0     H54070   2.963  10.123   4.985 -0.4443  3.4749  0.3909
  401MOL0     H54071   3.024  10.045   4.833 -0.9153 -0.1180 -0.5307
  401MOL0     H54072   3.194  10.265   4.936 -0.1180 -0.6509 -2.6270
  401MOL0     H54073   3.241  10.116   4.859  2.1170  0.8804  1.9096
  401MOL0     H54074   3.180  10.002   5.085  3.7555 -0.5733  1.7794
  401MOL0     H54075   3.147  10.149   5.152  0.4826 -2.4328  1.2805
  401MOL0     H54076   3.399  10.075   5.017  2.3016  5.3382 -0.8820
  401MOL0     H54077   3.385  10.222   5.102  1.9764  0.9307  2.8752
  401MOL0     H54078   3.366   9.958   5.261  4.4892 -1.5797  0.6872
  401MOL0     H54079   3.508  10.030   5.227  0.6502 -0.7456 -0.0703
  401MOL0     H54080   3.422  10.258   5.326  0.7221 -1.3590 -1.5973
  401MOL0     H54081   3.274  10.184   5.376 -0.9594  0.1084 -2.4116
  401MOL0     H54082   3.502  10.032   5.454 -0.4118 -0.0422  1.1736
  401MOL0     H54083   3.382  10.070   5.549 -0.5260  0.8196 -0.8546
  401MOL0     H54084   3.485  10.310   5.593 -0.3397 -0.5877  1.1970
  401MOL0     H54085   3.578  10.183   5.649 -2.2591 -2.0831  0.4992
  401MOL0     H54086   3.750  10.088   5.394  1.3905  0.0336 -0.3967
  401MOL0     H54087   3.964  10.165   5.218 -0.0450  0.4554 -0.1172
  401MOL0     H54088   4.028  10.326   5.243  2.8669 -2.0528  1.8629
  401MOL0     H54089   4.064  10.257   5.489 -0.1939  0.4753 -1.8055
  401MOL0     H54090   4.037  10.091   5.425  2.5254 -1.4944 -0.5202
  401MOL0     H54091   4.284  10.170   5.451 -3.4391  2.0387  2.5954
  401MOL0     H54092   4.238  10.292   5.328 -0.7578 -0.1209  0.2487
  401MOL0     H54093   4.195  10.095   5.167 -0.5217 -2.5781 -0.9997
  401MOL0     H54094   4.240   9.991   5.308 -1.0802  1.6365  1.6849
  401MOL0     H54095   4.352   9.822   5.251 -0.2001  0.7102 -0.7197
  401MOL0     H54096   4.521   9.670   5.189  2.8011  1.2770  3.5083
  401MOL0     H54097   4.750   9.524   4.802 -1.3117 -1.3905  0.1742
  401MOL0     H54098   4.873   9.318   4.725 -2.0236  2.2791 -0.5923
  401MOL0     H54099   5.090   9.152   5.016 -0.1490  1.2806 -0.5252
  401MOL0     H54100   4.988   8.996   5.018  0.5806 -0.0393 -0.5267
  401MOL0     H54101   5.203   9.058   4.815 -0.7408 -0.9682 -0.5712
  401MOL0     H54102   5.238   8.980   4.972  1.3954  0.1937 -2.3536
  401MOL0     H54103   5.038   8.896   4.752 -0.0439  0.2467 -0.2180
  401MOL0     H54104   5.209   8.842   4.772  0.3471 -0.2220  1.5317
  401MOL0     H54105   5.039   8.782   5.014  0.1742 -2.5142  0.6904
  401MOL0     H54106   5.174   8.704   4.946  1.3456  0.8812 -2.5760
  401MOL0     H54107   4.979   8.569   4.925  0.2900 -0.3496 -1.2008
  401MOL0     H54108   5.014   8.623   4.758  2.9709 -0.5880  1.6002
  401MOL0     H54109   4.818   8.760   4.952  2.6153  0.0079  1.6132
  401MOL0     H54110   4.847   8.799   4.781  4.2303 -1.9656 -1.4318
  401MOL0     H54111   4.748   8.529   4.877  2.1269  1.0618  0.9391
  401MOL0     H54112   4.723   8.593   4.717  5.5407 -1.0719 -0.4194
  401MOL0     H54113   4.516   8.595   4.832  0.3044 -0.0742 -2.2265
  401MOL0     H54114   4.574   8.667   4.976 -0.9816 -1.5396 -1.0115
  401MOL0     H54115   4.874   9.167   5.117 -1.5481  0.1107 -0.3528
  401MOL0     H54116   4.794   9.385   5.211  0.6232  0.0413 -0.2358
  401MOL0     H54117   4.755   9.974   5.001  1.6567  0.2097  2.3708
  401MOL0     H54118   4.612  10.130   5.075 -2.6069 -0.9113 -2.3955
  401MOL0     H54119   2.787  10.002   4.839 -1.4537  0.2304  1.3859
  401MOL0     H54120   2.569  10.009   4.806 -0.9814  0.8646  3.7647
  401MOL0     H54121   2.204  10.103   4.856  0.0440 -2.9005 -0.3246
  401MOL0     H54122   1.952  10.098   4.897 -2.1043  2.3179  0.4073
  401MOL0     H54123   1.581  10.161   4.690 -0.0439  0.1012  0.4499
  401MOL0     H54124   1.694  10.208   4.559 -0.4969  3.2622 -0.0191
  401MOL0     H54125   1.721  10.415   4.688  1.2650 -2.1602 -1.7348
  401MOL0     H54126   1.576  10.379   4.773 -2.4747  1.4972 -2.8257
  401MOL0     H54127   1.454  10.448   4.612 -0.4319 -1.1225  0.7058
  401MOL0     H54128   1.506  10.309   4.511  0.5998  0.4038 -0.7739
  401MOL0     H54129   1.710  10.481   4.461 -0.8760  0.5012 -3.5270
  401MOL0     H54130   1.563  10.514   4.378  2.1133 -2.1125 -0.1846
  401MOL0     H54131   1.582  10.868   4.630  2.2099  0.5930 -0.9014
  401MOL0     H54132   1.888  10.282   4.513 -0.3563  0.2469  0.8656
  401MOL0     H54133   2.177  10.466   4.502 -0.1076 -0.0390  3.1581
  401MOL0     H54134   2.178  10.325   4.393  2.7680  2.8009 -0.2384
  401MOL0     H54135   2.031  10.424   4.419  3.2224  3.6440 -0.7452
  402MOL0     O54136   6.826   9.206   8.495  0.5805 -0.4381 -0.3405
  402MOL0     C54137   6.826   9.249   8.385 -0.3859 -0.3446 -0.0397
  402MOL0     O54138   6.932   9.304   8.322 -0.6925  1.2835 -1.1376
  402MOL0     C54139   7.021   9.349   8.407 -0.4263  0.4077 -1.4866
  402MOL0     C54140   7.036   9.483   8.451  0.9196 -0.3584  0.3148
  402MOL0     C54141   7.136   9.519   8.545 -0.1524 -0.5716 -0.3507
  402MOL0     C54142   7.220   9.423   8.597  0.7978  0.0787 -0.0461
  402MOL0     O54143   7.315   9.462   8.686  0.4149  0.0742  1.3583
  402MOL0     C54144   7.430   9.380   8.696 -0.8333  0.2301 -1.0208
  402MOL0     C54145   7.539   9.456   8.774  0.8152  0.2734  0.2044
  402MOL0     C54146   7.501   9.479   8.922  0.0489  0.2929  0.0343
  402MOL0     C54147   7.612   9.540   9.007  1.0352  0.4288 -0.9822
  402MOL0     C54148   7.589   9.534   9.169  0.0391 -0.5655 -0.1528
  402MOL0     C54149   7.448   9.573   9.208  0.5018 -0.2516 -0.1748
  402MOL0     C54150   7.436   9.561   9.367 -0.5856  0.6915 -0.4357
  402MOL0     C54151   7.301   9.600   9.424 -0.7103 -0.0332  0.1272
  402MOL0     N54152   7.191   9.510   9.379 -0.3991 -0.3836  0.1594
  402MOL0     C54153   7.165   9.383   9.416 -0.2825 -0.0139  0.1258
  402MOL0     C54154   7.042   9.359   9.383  0.4192  0.0957  0.3495
  402MOL0     C54155   6.963   9.226   9.408 -0.3538 -0.6103 -0.0904
  402MOL0     C54156   7.028   9.092   9.365  0.1690  0.4417  0.0115
  402MOL0     C54157   6.964   8.969   9.434  0.6319  0.1791 -0.0520
  402MOL0     C54158   7.034   8.841   9.416  0.3649  1.0112 -0.8103
  402MOL0     O54159   6.957   8.733   9.482  0.5022  0.0414  0.1551
  402MOL0     C54160   7.018   8.608   9.467  0.7765 -0.1422 -0.1585
  402MOL0     C54161   7.141   8.580   9.390 -0.8284  0.0518 -0.2680
  402MOL0     C54162   7.197   8.455   9.391  0.6375 -0.6418 -0.2851
  402MOL0     C54163   7.132   8.347   9.462 -0.5608  0.3601  0.3513
  402MOL0     C54164   7.203   8.218   9.471 -0.5255  0.2314 -0.0726
  402MOL0     O54165   7.333   8.228   9.449 -0.3029  0.3487 -0.7830
  402MOL0     C54166   7.412   8.116   9.478 -0.4232 -0.0708  0.2832
  402MOL0     C54167   7.504   8.075   9.382  0.0985 -0.3041  0.9445
  402MOL0     C54168   7.590   7.968   9.408 -0.4795 -0.2169 -0.4577
  402MOL0     C54169   7.594   7.902   9.532 -0.4350 -0.1545  0.2632
  402MOL0     O54170   7.683   7.805   9.547 -0.2790  0.2555 -0.4999
  402MOL0     C54171   7.796   7.854   9.631  0.6600  0.1206 -0.4522
  402MOL0     C54172   7.875   7.734   9.653  0.0800  0.5316 -0.5398
  402MOL0     C54173   7.853   7.657   9.784  0.4538 -0.5225 -0.2260
  402MOL0     C54174   7.742   7.560   9.780 -0.2984 -0.9527 -0.1820
  402MOL0     C54175   7.719   7.497   9.921 -0.1993  0.2054 -0.1212
  402MOL0     C54176   7.580   7.451   9.938  0.4193 -1.1228 -1.2847
  402MOL0     C54177   7.499   7.558  10.023  0.3300  0.4673 -0.0998
  402MOL0     C54178   7.340   7.537  10.010 -0.6189  0.1694  0.7742
  402MOL0    Cl54179   7.251   7.687  10.032 -0.1974  0.1642 -0.3725
  402MOL0     C54180   7.502   7.952   9.626 -0.1989  0.4923 -0.2673
  402MOL0     C54181   7.410   8.052   9.602 -1.1570  0.6162  0.2679
  402MOL0     O54182   7.143   8.119   9.518  0.4671 -0.3904 -0.0113
  402MOL0     C54183   7.007   8.367   9.509  0.4770 -0.1616 -0.8869
  402MOL0     C54184   6.958   8.499   9.527  0.4542  0.8839  0.0766
  402MOL0     N54185   6.991   9.471   9.320  0.7808 -0.5940 -0.0343
  402MOL0     N54186   7.080   9.558   9.311  0.7236 -0.7447 -0.1301
  402MOL0     C54187   7.206   9.291   8.550  1.5591 -0.1879  1.0307
  402MOL0     C54188   7.109   9.253   8.454  0.0187  0.3360 -0.0944
  402MOL0     C54189   6.707   9.224   8.295 -0.0682 -0.6487  0.1611
  402MOL0     C54190   6.628   9.123   8.342 -0.2101 -0.5416 -0.6556
  402MOL0     C54191   6.519   9.077   8.267  0.1776  0.1281  0.5657
  402MOL0     C54192   6.480   9.137   8.154  0.4922  0.6408 -1.2570
  402MOL0     O54193   6.365   9.090   8.101  0.0974  0.0628 -0.6085
  402MOL0     C54194   6.358   9.072   7.963 -0.2048  0.3571  0.1381
  402MOL0     C54195   6.248   8.966   7.932  0.1176 -0.5013  0.9012
  402MOL0     C54196   6.260   8.914   7.786 -0.5648 -0.6550  0.1559
  402MOL0     C54197   6.134   8.854   7.723 -0.0553 -0.2195 -0.5187
  402MOL0     C54198   6.126   8.725   7.793 -0.2015  0.3817 -0.5036
  402MOL0     C54199   6.107   8.626   7.861  0.5213  0.3699 -0.4536
  402MOL0     C54200   6.544   9.263   8.119 -0.1701 -0.7802 -0.0624
  402MOL0     C54201   6.664   9.300   8.178 -0.8170 -1.2278 -0.0724
  402MOL0     C54202   6.743   9.414   8.120  0.6116  0.5635 -0.6938
  402MOL0     H54203   6.982   9.567   8.409  0.1529 -1.3684 -0.7737
  402MOL0     H54204   7.149   9.620   8.583  0.9691 -0.9004  0.1745
  402MOL0     H54205   7.422   9.282   8.745  0.9957  0.9122  0.7574
  402MOL0     H54206   7.466   9.378   8.592  1.9027  1.6718 -0.1954
  402MOL0     H54207   7.550   9.556   8.730  1.8500 -0.9902 -2.6938
  402MOL0     H54208   7.627   9.395   8.754  0.0268 -0.7280 -0.2796
  402MOL0     H54209   7.474   9.381   8.963 -0.5623  0.1735 -0.6284
  402MOL0     H54210   7.410   9.538   8.930 -1.0510 -1.5446  2.2840
  402MOL0     H54211   7.708   9.488   8.995 -0.5752 -2.5333 -2.0828
  402MOL0     H54212   7.619   9.647   8.984  2.3172  0.3213 -1.1548
  402MOL0     H54213   7.617   9.439   9.215 -2.4452 -2.2951 -1.9880
  402MOL0     H54214   7.646   9.617   9.213 -0.1634 -0.4225 -0.1604
  402MOL0     H54215   7.405   9.667   9.171  0.0325 -0.5413 -0.3793
  402MOL0     H54216   7.383   9.497   9.164  0.7973 -0.8504  0.4198
  402MOL0     H54217   7.507   9.629   9.415 -0.0118 -0.0073 -0.2787
  402MOL0     H54218   7.471   9.464   9.404 -0.8429  0.6501 -0.3020
  402MOL0     H54219   7.295   9.607   9.533 -0.9261 -1.0671  0.1938
  402MOL0     H54220   7.276   9.696   9.377 -0.3328 -1.2764 -2.7871
  402MOL0     H54221   7.226   9.310   9.469  0.1488 -0.3441 -0.8102
  402MOL0     H54222   6.953   9.228   9.517 -0.4498  1.1592 -0.1065
  402MOL0     H54223   6.862   9.232   9.365 -0.0411  0.5030 -0.6941
  402MOL0     H54224   7.004   9.096   9.259  0.3052  0.1676 -0.0317
  402MOL0     H54225   7.136   9.089   9.382 -0.0315 -1.8244  1.3360
  402MOL0     H54226   6.865   8.952   9.391  1.5589 -1.8968 -1.5242
  402MOL0     H54227   6.948   8.981   9.542 -1.7189 -1.7368 -0.0944
  402MOL0     H54228   7.133   8.845   9.462  0.1838 -1.9420  0.0423
  402MOL0     H54229   7.035   8.830   9.307 -2.6475  1.7134 -1.0047
  402MOL0     H54230   7.211   8.650   9.345  1.2248  0.4469  3.1709
  402MOL0     H54231   7.280   8.440   9.323  0.4000 -3.6557 -0.0666
  402MOL0     H54232   7.509   8.135   9.292 -0.3229 -0.3027  0.9202
  402MOL0     H54233   7.652   7.932   9.326 -0.8926  2.4236 -2.0507
  402MOL0     H54234   7.850   7.930   9.573  0.7082 -0.9933 -1.9285
  402MOL0     H54235   7.755   7.905   9.719  0.9682  3.0229 -1.8616
  402MOL0     H54236   7.875   7.661   9.571  1.9391 -0.0166 -0.0990
  402MOL0     H54237   7.980   7.763   9.652 -0.7160  3.8283  0.5951
  402MOL0     H54238   7.946   7.603   9.805  0.0220 -0.9103  0.7840
  402MOL0     H54239   7.833   7.723   9.869  0.9398  2.5908 -2.3505
  402MOL0     H54240   7.764   7.477   9.712  2.1510 -0.7697  0.3016
  402MOL0     H54241   7.657   7.619   9.743  0.7667  2.6179  2.5606
  402MOL0     H54242   7.739   7.574   9.996 -0.9377  1.6007 -1.2911
  402MOL0     H54243   7.788   7.412   9.918  0.5761  0.5772  3.3672
  402MOL0     H54244   7.524   7.436   9.845  1.0407 -1.6200 -1.5905
  402MOL0     H54245   7.584   7.355   9.991  1.7477 -1.0514 -1.2083
  402MOL0     H54246   7.514   7.660   9.988  2.0873 -0.2412 -1.5660
  402MOL0     H54247   7.528   7.547  10.128 -2.3375  0.2486  0.6939
  402MOL0     H54248   7.303   7.497   9.915 -4.6283 -1.0471  2.6222
  402MOL0     H54249   7.312   7.465  10.088 -0.7430 -0.9359 -0.2638
  402MOL0     H54250   7.498   7.927   9.732 -0.8634  3.4003  0.4702
  402MOL0     H54251   7.337   8.081   9.677  1.3026  4.7021  1.4127
  402MOL0     H54252   6.944   8.289   9.550  2.0963 -0.9796  0.1267
  402MOL0     H54253   6.865   8.513   9.581  1.9061  2.1621  2.4121
  402MOL0     H54254   7.286   9.220   8.568  0.4192 -2.4766 -2.2028
  402MOL0     H54255   7.101   9.153   8.412 -5.1392  1.0182 -1.4729
  402MOL0     H54256   6.668   9.070   8.428  1.9067  2.1623  0.1737
  402MOL0     H54257   6.464   8.991   8.302 -5.6483  3.6606  1.3352
  402MOL0     H54258   6.454   9.036   7.927 -0.5966 -1.9643  1.2355
  402MOL0     H54259   6.331   9.168   7.919 -0.5405  0.0211 -0.4050
  402MOL0     H54260   6.157   9.024   7.951 -0.2547 -1.4064  2.0110
  402MOL0     H54261   6.250   8.882   8.001 -0.0564 -0.0602  1.4526
  402MOL0     H54262   6.346   8.846   7.778 -1.2798 -1.3525 -4.0767
  402MOL0     H54263   6.286   9.003   7.727 -2.5778  1.3788  2.1634
  402MOL0     H54264   6.040   8.903   7.749  0.3812  0.2551  0.1921
  402MOL0     H54265   6.134   8.837   7.614 -0.1678 -1.2673 -0.3653
  402MOL0     H54266   6.094   8.532   7.912  0.7635  1.1588  1.1037
  402MOL0     H54267   6.520   9.312   8.026 -0.3120  0.7191  0.7231
  402MOL0     H54268   6.851   9.398   8.116  0.7710  1.6326 -0.8290
  402MOL0     H54269   6.707   9.430   8.018 -0.3436 -1.8137 -0.7923
  402MOL0     H54270   6.725   9.498   8.187  0.8320 -1.0148  1.4500
  403MOL0     O54271   3.324  10.832   7.729  0.3685  0.3728  0.7431
  403MOL0     C54272   3.279  10.843   7.614 -0.1595  0.9485  0.8289
  403MOL0     O54273   3.150  10.880   7.582 -0.2959 -0.5832 -0.7784
  403MOL0     C54274   3.080  10.940   7.682 -0.7826 -0.2429 -0.6697
  403MOL0     C54275   3.037  11.073   7.663 -0.5189  0.7614  0.7993
  403MOL0     C54276   2.944  11.120   7.756  0.4093  0.4955  0.4520
  403MOL0     C54277   2.918  11.050   7.879 -0.3874 -0.4601  0.7501
  403MOL0     O54278   2.837  11.114   7.967 -0.1672 -0.6129 -0.3837
  403MOL0     C54279   2.699  11.120   7.937 -0.7699 -0.2091  0.0172
  403MOL0     C54280   2.630  10.974   7.959 -0.2614 -0.1977 -0.4740
  403MOL0     C54281   2.623  10.924   8.107  0.5237  0.1528 -0.2234
  403MOL0     C54282   2.511  10.991   8.185 -0.4573 -0.2524 -0.4150
  403MOL0     C54283   2.385  10.903   8.196 -0.0961  0.2373  0.6056
  403MOL0     C54284   2.284  10.965   8.297 -0.8674  1.0129  0.4379
  403MOL0     C54285   2.143  10.915   8.277  0.1801 -0.3850 -0.2462
  403MOL0     C54286   2.117  10.780   8.348  1.5188 -0.6046 -0.4694
  403MOL0     N54287   2.155  10.657   8.282 -0.1815  0.1092  0.3964
  403MOL0     C54288   2.078  10.602   8.180  0.3172  1.2051  1.0799
  403MOL0     C54289   2.150  10.499   8.151  0.1845  0.2187 -1.1378
  403MOL0     C54290   2.128  10.422   8.022 -0.1202 -0.9356  0.0727
  403MOL0     C54291   1.978  10.379   8.016  0.1822 -0.2355 -0.5153
  403MOL0     C54292   1.946  10.272   7.920  0.7189 -0.6806  0.2870
  403MOL0     C54293   1.807  10.248   7.890  0.4635 -0.1610 -0.4260
  403MOL0     O54294   1.796  10.138   7.796  0.3078  0.1313  0.1893
  403MOL0     C54295   1.685  10.127   7.713 -0.4090  0.2916  0.8568
  403MOL0     C54296   1.710  10.062   7.590  0.1221  0.1826  0.4684
  403MOL0     C54297   1.606  10.033   7.505  0.2033 -0.3472  0.5037
  403MOL0     C54298   1.474  10.073   7.530 -0.0413 -0.4719  0.8603
  403MOL0     C54299   1.364  10.031   7.442  0.3164 -0.0691  0.0996
  403MOL0     O54300   1.393   9.954   7.330  0.6150  0.4697 -0.3979
  403MOL0     C54301   1.294   9.951   7.230  0.2218  1.0232 -0.1673
  403MOL0     C54302   1.217   9.844   7.193 -0.2324  0.7826 -1.3020
  403MOL0     C54303   1.137   9.841   7.080  0.7380  0.4072  0.1061
  403MOL0     C54304   1.127   9.955   7.010  0.5565 -0.7102  0.4124
  403MOL0     O54305   1.058   9.957   6.900 -0.7103  0.5292  0.6903
  403MOL0     C54306   0.981  10.078   6.873  0.3921  0.7517  0.7231
  403MOL0     C54307   0.870  10.052   6.770 -0.1048 -0.1809 -0.8040
  403MOL0     C54308   0.765  10.150   6.781  0.1668 -0.2785  1.8916
  403MOL0     C54309   0.677  10.143   6.645 -0.0802 -0.3996 -0.9573
  403MOL0     C54310   0.542  10.227   6.657  0.0637 -0.0590  0.2219
  403MOL0     C54311   0.573  10.375   6.652  0.1777  0.9646 -0.3380
  403MOL0     C54312   0.436  10.455   6.659  0.1073 -0.1064  1.1199
  403MOL0     C54313   0.451  10.609   6.635 -0.0026 -0.3427  0.6519
  403MOL0    Cl54314   0.289  10.693   6.610 -0.4152 -0.0014  0.4140
  403MOL0     C54315   1.200  10.076   7.046  1.2230 -0.1412 -0.1392
  403MOL0     C54316   1.280  10.071   7.158  0.1563  0.2120  0.0242
  403MOL0     O54317   1.248  10.049   7.484  0.5417  0.4390  0.0254
  403MOL0     C54318   1.443  10.139   7.651 -0.0917 -0.3490  0.5481
  403MOL0     C54319   1.554  10.163   7.742  0.9487  0.1606 -0.0760
  403MOL0     N54320   2.255  10.482   8.241 -0.1306  0.1810  0.2868
  403MOL0     N54321   2.264  10.583   8.317 -0.7077  0.5154  0.4824
  403MOL0     C54322   2.961  10.918   7.899  0.7026 -0.0220  0.4709
  403MOL0     C54323   3.043  10.862   7.794 -0.0029 -0.5075  0.0888
  403MOL0     C54324   3.384  10.838   7.510  0.1653 -0.4404  0.3422
  403MOL0     C54325   3.358  10.922   7.398 -0.4511  0.0439  0.0131
  403MOL0     C54326   3.444  10.918   7.288 -0.4949  0.4820 -0.8646
  403MOL0     C54327   3.548  10.824   7.278  0.0324 -0.0004  0.3357
  403MOL0     O54328   3.630  10.811   7.170 -0.3496  0.1134  0.6036
  403MOL0     C54329   3.637  10.901   7.063  0.7511  0.0714  0.7604
  403MOL0     C54330   3.544  10.866   6.945  0.3548  0.6363 -0.6321
  403MOL0     C54331   3.536  10.710   6.931  0.1131 -0.3877  0.7006
  403MOL0     C54332   3.501  10.681   6.785  0.6000  0.6878 -0.4337
  403MOL0     C54333   3.439  10.550   6.756  0.9825 -0.4150 -0.9959
  403MOL0     C54334   3.375  10.442   6.749  0.2586 -0.2626 -0.0621
  403MOL0     C54335   3.577  10.744   7.394  0.5804 -0.6594  0.1724
  403MOL0     C54336   3.492  10.751   7.506  0.0162  0.6797  0.5068
  403MOL0     C54337   3.525  10.652   7.624 -0.5461 -0.2985  0.9247
  403MOL0     H54338   3.060  11.135   7.576  1.2747  0.5867  1.1016
  403MOL0     H54339   2.910  11.222   7.743 -3.8749 -0.6599  1.0845
  403MOL0     H54340   2.665  11.200   8.004 -0.1532  0.2533 -0.2111
  403MOL0     H54341   2.694  11.152   7.833  2.9699 -3.1061 -1.2731
  403MOL0     H54342   2.681  10.901   7.895 -1.3723 -0.2723 -1.3153
  403MOL0     H54343   2.527  10.983   7.923 -0.8064  0.1714  1.1188
  403MOL0     H54344   2.716  10.933   8.165 -0.6085 -0.8732  1.8556
  403MOL0     H54345   2.593  10.819   8.097  2.1467 -0.5355  1.5396
  403MOL0     H54346   2.545  11.011   8.287  1.7620 -1.7415 -0.7781
  403MOL0     H54347   2.494  11.089   8.140  0.2732  0.1817  0.2231
  403MOL0     H54348   2.341  10.892   8.097 -1.5427  0.9865  1.1389
  403MOL0     H54349   2.419  10.802   8.222  0.7259  0.0749 -1.0154
  403MOL0     H54350   2.327  10.952   8.397  0.4558 -4.9753 -0.4728
  403MOL0     H54351   2.276  11.073   8.283 -2.9879  0.8916  0.4390
  403MOL0     H54352   2.120  10.899   8.171  0.5286 -2.5294 -0.0619
  403MOL0     H54353   2.071  10.988   8.314 -0.5168  0.0459 -2.3496
  403MOL0     H54354   2.146  10.792   8.453 -1.0408 -0.2152  0.2713
  403MOL0     H54355   2.010  10.781   8.373  1.7514 -0.2800  0.5641
  403MOL0     H54356   1.993  10.645   8.129  2.1842  0.8275 -2.6461
  403MOL0     H54357   2.157  10.488   7.939 -1.2885 -0.8117 -0.2613
  403MOL0     H54358   2.188  10.331   8.021 -1.1061 -1.5945  0.0122
  403MOL0     H54359   1.943  10.339   8.111 -2.1567 -1.0852 -1.6477
  403MOL0     H54360   1.903  10.458   8.006 -1.0597 -1.2071  0.6843
  403MOL0     H54361   1.995  10.188   7.971  1.1323 -1.1450 -0.8485
  403MOL0     H54362   1.994  10.281   7.822  2.2573  0.2375  1.0743
  403MOL0     H54363   1.763  10.340   7.851  0.8564  1.1652  2.0528
  403MOL0     H54364   1.756  10.220   7.983 -1.8443  0.9635 -1.2567
  403MOL0     H54365   1.805  10.022   7.556 -0.6349  0.1456 -1.7696
  403MOL0     H54366   1.611   9.985   7.408 -1.8880  0.7881 -0.2372
  403MOL0     H54367   1.238   9.746   7.234 -3.9217 -0.0589 -1.1228
  403MOL0     H54368   1.106   9.744   7.044  2.8410 -1.2057  2.3156
  403MOL0     H54369   0.937  10.105   6.969 -0.6432 -1.6735  1.0110
  403MOL0     H54370   1.042  10.162   6.840 -1.0369  2.0691  1.3311
  403MOL0     H54371   0.925  10.066   6.677  0.4172 -3.5695 -1.1244
  403MOL0     H54372   0.841   9.946   6.770  1.5065 -0.7030 -3.5996
  403MOL0     H54373   0.693  10.133   6.863 -0.3954  2.3044  2.0163
  403MOL0     H54374   0.805  10.251   6.773  1.3840 -0.8852 -3.4262
  403MOL0     H54375   0.652  10.037   6.633 -0.7873 -0.4328  0.6057
  403MOL0     H54376   0.740  10.171   6.560  0.5427  3.9960  0.7168
  403MOL0     H54377   0.495  10.204   6.753  0.7431 -3.7149 -0.1864
  403MOL0     H54378   0.469  10.203   6.578 -0.9257 -0.6419  1.2824
  403MOL0     H54379   0.645  10.409   6.727  1.2099  1.2135 -1.4125
  403MOL0     H54380   0.613  10.396   6.552 -0.3175  0.9141 -0.5497
  403MOL0     H54381   0.388  10.443   6.756 -1.2180  0.2817  0.5449
  403MOL0     H54382   0.367  10.414   6.585 -0.6793 -3.2452  3.3829
  403MOL0     H54383   0.499  10.654   6.722  1.0366 -1.6224  0.7723
  403MOL0     H54384   0.522  10.631   6.555  1.3686  1.5565  2.2852
  403MOL0     H54385   1.195  10.176   7.005 -1.6499 -0.4214 -0.6969
  403MOL0     H54386   1.344  10.149   7.197 -2.7597  1.8258  2.0033
  403MOL0     H54387   1.346  10.159   7.696 -0.9852  1.0877 -1.8053
  403MOL0     H54388   1.531  10.203   7.840 -3.1486 -1.0972 -0.3488
  403MOL0     H54389   2.938  10.885   7.999  1.5372  0.3084  0.7770
  403MOL0     H54390   3.073  10.762   7.824  1.0568 -0.6815 -1.4173
  403MOL0     H54391   3.270  10.986   7.393 -0.4506  0.1477  1.0099
  403MOL0     H54392   3.419  10.985   7.205 -1.3238  1.2063 -0.0529
  403MOL0     H54393   3.742  10.896   7.035  0.7519  2.8036 -0.0705
  403MOL0     H54394   3.613  11.007   7.079  3.4968  0.8826  0.0243
  403MOL0     H54395   3.561  10.918   6.850  0.3898 -0.7455 -1.4126
  403MOL0     H54396   3.440  10.893   6.968 -0.6198 -1.1047 -2.6489
  403MOL0     H54397   3.457  10.660   6.988 -1.6112 -1.7456 -2.5713
  403MOL0     H54398   3.625  10.656   6.965 -1.1452 -1.5927  2.2715
  403MOL0     H54399   3.427  10.752   6.748 -2.2021 -0.7851  1.9235
  403MOL0     H54400   3.592  10.685   6.724  0.1445 -2.2287 -1.4946
  403MOL0     H54401   3.337  10.345   6.724  4.1205 -1.7580 -0.9451
  403MOL0     H54402   3.669  10.685   7.398  0.3949 -1.0581 -1.0844
  403MOL0     H54403   3.438  10.586   7.632 -1.3371  0.7521  1.2738
  403MOL0     H54404   3.613  10.592   7.599 -0.4366  1.1282 -2.6610
  403MOL0     H54405   3.544  10.705   7.718 -2.0810  1.9466  0.0586
  404MOL0     O54406   9.798   7.171  10.699 -0.5344 -0.5623  0.2380
  404MOL0     C54407   9.779   7.183  10.580  0.7119 -1.3688  0.4461
  404MOL0     O54408   9.836   7.119  10.477  0.7723  0.6989  0.4601
  404MOL0     C54409   9.912   7.004  10.489 -0.1985 -0.0888  0.6616
  404MOL0     C54410   9.903   6.911  10.596  0.8808 -0.7826 -0.2922
  404MOL0     C54411   9.986   6.804  10.615  0.5154 -0.8085  0.3992
  404MOL0     C54412  10.063   6.763  10.502 -0.0135 -0.0797 -0.2878
  404MOL0     O54413  10.126   6.643  10.498 -0.5443  0.4878  0.6791
  404MOL0     C54414  10.120   6.548  10.391 -1.2416 -0.8093  0.2173
  404MOL0     C54415  10.173   6.420  10.451  0.5275  0.1168  0.1244
  404MOL0     C54416  10.210   6.320  10.341 -0.3261  0.7124  0.0079
  404MOL0     C54417  10.319   6.221  10.379  0.0189 -1.0977  0.2511
  404MOL0     C54418  10.281   6.119  10.478  0.4644  0.1109 -0.1562
  404MOL0     C54419  10.388   6.021  10.523 -0.4463 -0.1902  0.1227
  404MOL0     C54420  10.326   5.900  10.600 -0.6604  0.2815 -0.1611
  404MOL0     C54421  10.272   5.795  10.501 -1.1132  0.2244  0.7708
  404MOL0     N54422  10.366   5.750  10.385  0.3191 -0.6759  0.6872
  404MOL0     C54423  10.474   5.669  10.397 -0.9833 -0.0405  0.1359
  404MOL0     C54424  10.514   5.646  10.262 -0.0527 -0.1809  0.2649
  404MOL0     C54425  10.631   5.563  10.213  0.3602 -0.3008  0.6172
  404MOL0     C54426  10.718   5.497  10.320  0.1069  0.0877 -0.0497
  404MOL0     C54427  10.849   5.441  10.262 -0.5529  0.4619  0.2133
  404MOL0     C54428  10.907   5.348  10.370  0.6278 -0.0534 -1.4374
  404MOL0     O54429  11.009   5.279  10.308 -0.1835  0.6083  0.5623
  404MOL0     C54430  11.093   5.203  10.390 -0.2855 -0.2650  0.1067
  404MOL0     C54431  11.201   5.138  10.328 -0.4100  0.5299 -0.5669
  404MOL0     C54432  11.281   5.054  10.413 -0.0993 -0.3209  0.8323
  404MOL0     C54433  11.251   5.034  10.548 -0.0792 -0.7775  0.5293
  404MOL0     C54434  11.353   4.954  10.626 -0.1709  0.6796 -0.5231
  404MOL0     O54435  11.434   4.873  10.558  0.3590  0.0386  0.3270
  404MOL0     C54436  11.519   4.782  10.616 -0.1619  1.5453 -0.0225
  404MOL0     C54437  11.490   4.710  10.737  0.4147 -0.1638  0.3525
  404MOL0     C54438  11.578   4.610  10.774 -0.4712 -0.8869 -1.0161
  404MOL0     C54439  11.699   4.591  10.699 -0.4787  0.7338  0.8798
  404MOL0     O54440  11.786   4.492  10.732 -0.4144 -0.1528 -0.5218
  404MOL0     C54441  11.724   4.366  10.766  0.3711 -0.5796 -0.0784
  404MOL0     C54442  11.710   4.292  10.639 -0.3142 -0.3544 -0.2504
  404MOL0     C54443  11.705   4.142  10.673 -0.1306  1.1689 -0.2225
  404MOL0     C54444  11.690   4.061  10.545 -0.3504  0.5983 -0.8824
  404MOL0     C54445  11.831   4.036  10.486 -0.1945  0.4620  0.3778
  404MOL0     C54446  11.826   3.937  10.372  0.6126  0.2865 -1.3012
  404MOL0     C54447  11.966   3.944  10.301 -0.4726 -0.7105 -0.0599
  404MOL0     C54448  11.984   3.817  10.224 -0.1191 -0.1684  0.2727
  404MOL0    Cl54449  12.006   3.675  10.344 -0.2783 -0.7137  0.2124
  404MOL0     C54450  11.736   4.658  10.582  0.2794 -0.1904 -0.7008
  404MOL0     C54451  11.636   4.756  10.538 -0.0432 -0.1182 -0.0219
  404MOL0     O54452  11.355   4.965  10.745  0.4069  0.2379 -0.3728
  404MOL0     C54453  11.144   5.097  10.604 -1.1714  0.2497  0.4431
  404MOL0     C54454  11.067   5.176  10.527  0.0739  1.5005 -0.2044
  404MOL0     N54455  10.422   5.703  10.184  0.2270  0.5539  0.3447
  404MOL0     N54456  10.334   5.759  10.258 -0.6502 -0.6439  0.8183
  404MOL0     C54457  10.072   6.849  10.394 -0.4700  0.1532 -0.2281
  404MOL0     C54458  10.016   6.971  10.393  1.6152  0.0412 -0.5278
  404MOL0     C54459   9.685   7.292  10.542 -0.0512  0.2214 -0.6313
  404MOL0     C54460   9.688   7.329  10.408 -0.3178  0.5298 -0.2898
  404MOL0     C54461   9.587   7.411  10.350  0.3105 -0.3751  0.0693
  404MOL0     C54462   9.479   7.461  10.432  0.5335 -0.7919  0.1622
  404MOL0     O54463   9.388   7.541  10.384 -0.6627 -0.4048  0.3429
  404MOL0     C54464   9.345   7.661  10.454 -0.4403 -0.4705 -0.1442
  404MOL0     C54465   9.194   7.651  10.489 -0.8414  0.2155 -0.1781
  404MOL0     C54466   9.159   7.537  10.598  0.5751 -0.4534 -0.2215
  404MOL0     C54467   9.023   7.499  10.619 -0.0482 -0.8575 -0.0165
  404MOL0     C54468   8.951   7.601  10.689  0.9028  0.1730  0.0214
  404MOL0     C54469   8.896   7.690  10.756 -0.3642  0.6683 -0.3713
  404MOL0     C54470   9.483   7.423  10.568  0.2717 -0.2750 -0.5061
  404MOL0     C54471   9.584   7.343  10.629 -0.4721 -0.0236  0.3930
  404MOL0     C54472   9.571   7.331  10.771  0.4054  0.4134 -0.4969
  404MOL0     H54473   9.845   6.946  10.681  2.3903 -1.2361  0.9566
  404MOL0     H54474   9.986   6.762  10.715 -0.8454  1.2579  1.3321
  404MOL0     H54475  10.016   6.535  10.361 -1.6638  1.5292  0.5127
  404MOL0     H54476  10.169   6.592  10.303 -1.6948 -0.6326  0.0525
  404MOL0     H54477  10.109   6.376  10.528  0.1934 -0.2991 -0.3741
  404MOL0     H54478  10.257   6.446  10.515 -1.1557  1.9542  1.7102
  404MOL0     H54479  10.248   6.363  10.248  1.3183 -0.0052  0.2934
  404MOL0     H54480  10.125   6.256  10.316  1.7353 -3.6591  2.9334
  404MOL0     H54481  10.358   6.165  10.293  1.2844  1.8244 -1.2717
  404MOL0     H54482  10.403   6.286  10.408 -2.4232  2.9737 -1.0015
  404MOL0     H54483  10.244   6.155  10.574  0.6891 -1.4149  0.5363
  404MOL0     H54484  10.195   6.067  10.435  2.0074 -1.2779 -1.6998
  404MOL0     H54485  10.450   5.983  10.441  0.9681  2.4020 -0.1077
  404MOL0     H54486  10.456   6.072  10.592  0.1609 -0.7786 -0.0306
  404MOL0     H54487  10.240   5.932  10.659 -0.6213  0.3487 -0.1385
  404MOL0     H54488  10.394   5.854  10.672  0.5455  1.7330 -0.3041
  404MOL0     H54489  10.251   5.705  10.559 -0.7632 -0.7451 -0.5607
  404MOL0     H54490  10.182   5.843  10.463 -1.0806  0.2232  0.6949
  404MOL0     H54491  10.536   5.641  10.482  3.4713  2.6498 -1.9060
  404MOL0     H54492  10.585   5.490  10.145 -1.6282  1.4468  0.0044
  404MOL0     H54493  10.678   5.632  10.143 -3.4206 -0.4203 -2.3791
  404MOL0     H54494  10.744   5.579  10.388  3.6596 -0.2698 -0.7683
  404MOL0     H54495  10.666   5.420  10.378  0.1353  0.0658 -0.0539
  404MOL0     H54496  10.917   5.522  10.234 -1.1408  0.0857 -2.6604
  404MOL0     H54497  10.817   5.379  10.178 -1.5376  1.6771 -0.3349
  404MOL0     H54498  10.828   5.283  10.408  1.0996  0.0477 -0.2633
  404MOL0     H54499  10.938   5.404  10.459 -1.7589 -1.5125  0.4166
  404MOL0     H54500  11.246   5.155  10.230  0.1973  4.9409  0.2605
  404MOL0     H54501  11.358   4.993  10.367 -0.6089  0.2957 -0.8925
  404MOL0     H54502  11.404   4.728  10.800  2.2364  1.4416  2.5807
  404MOL0     H54503  11.559   4.566  10.871  2.0789 -1.9930 -0.9546
  404MOL0     H54504  11.791   4.306  10.829  1.8265 -1.7204 -2.5434
  404MOL0     H54505  11.624   4.368  10.810 -0.6419 -0.2107 -2.2474
  404MOL0     H54506  11.624   4.329  10.584  0.9752  3.8268  0.2020
  404MOL0     H54507  11.800   4.328  10.589 -2.3349  4.3406 -0.9797
  404MOL0     H54508  11.794   4.123  10.733 -0.8581 -2.8521 -0.0924
  404MOL0     H54509  11.620   4.119  10.738  1.4388 -1.5593  1.0575
  404MOL0     H54510  11.631   4.116  10.470  0.4917  0.1819 -1.8839
  404MOL0     H54511  11.643   3.971  10.586  0.4796  0.0604 -1.0906
  404MOL0     H54512  11.897   3.992  10.562 -2.4480 -1.7817  1.1988
  404MOL0     H54513  11.875   4.131  10.455 -3.8774  0.8049 -5.2353
  404MOL0     H54514  11.799   3.836  10.407 -1.5545  0.7636 -1.4531
  404MOL0     H54515  11.753   3.969  10.298 -0.9939 -0.6949 -0.2046
  404MOL0     H54516  12.045   3.948  10.376  0.4974 -0.9678 -1.0474
  404MOL0     H54517  11.972   4.027  10.230 -0.0896 -2.8698 -2.6907
  404MOL0     H54518  11.907   3.804  10.148  1.4056 -1.4489 -1.1251
  404MOL0     H54519  12.078   3.824  10.169  0.2548  1.7444  1.0720
  404MOL0     H54520  11.821   4.630  10.521  0.9746  2.3495 -1.0308
  404MOL0     H54521  11.650   4.801  10.440  1.2731 -2.1800 -0.8503
  404MOL0     H54522  11.131   5.091  10.712  4.4602  1.3755  1.5140
  404MOL0     H54523  10.995   5.229  10.588 -0.9948 -1.9278  1.8504
  404MOL0     H54524  10.146   6.830  10.316 -0.0074  0.3434  0.1540
  404MOL0     H54525  10.041   7.051  10.323 -0.8750  0.7640 -0.6766
  404MOL0     H54526   9.768   7.286  10.347  0.9949  2.0695  0.2854
  404MOL0     H54527   9.585   7.457  10.252 -2.3896  1.4432  0.8769
  404MOL0     H54528   9.362   7.747  10.389  1.3739 -1.1866 -0.6789
  404MOL0     H54529   9.403   7.678  10.545 -0.6846 -0.4101  0.0024
  404MOL0     H54530   9.142   7.624  10.397  0.9039 -2.2050 -0.5792
  404MOL0     H54531   9.166   7.748  10.532  1.4505 -0.0109  2.0778
  404MOL0     H54532   9.207   7.569  10.691 -1.1607 -0.2658  0.6596
  404MOL0     H54533   9.189   7.437  10.566  1.6070  0.4023 -2.1075
  404MOL0     H54534   8.985   7.480  10.518  0.5561 -0.4592 -0.3239
  404MOL0     H54535   9.020   7.405  10.675 -2.2134 -0.0654  1.3202
  404MOL0     H54536   8.853   7.764  10.821 -1.3211 -1.9024  2.1351
  404MOL0     H54537   9.407   7.466  10.633  0.2710 -0.1803 -0.5693
  404MOL0     H54538   9.473   7.364  10.805 -0.0648  0.0191 -1.4398
  404MOL0     H54539   9.584   7.226  10.797 -0.1669  1.0429  2.6376
  404MOL0     H54540   9.632   7.397  10.833 -0.6659 -0.9471  2.1408
  405MOL0     O54541   3.844   6.767  10.773  0.4102  0.4566  0.1221
  405MOL0     C54542   3.957   6.753  10.801  0.6716  0.9138 -1.4448
  405MOL0     O54543   4.002   6.764  10.927 -0.4715  0.3347 -0.2458
  405MOL0     C54544   3.912   6.763  11.032  1.0293  0.3620 -0.5797
  405MOL0     C54545   3.930   6.866  11.131 -0.1273  0.1360 -0.0019
  405MOL0     C54546   3.847   6.888  11.235  0.4965  0.5656  0.2224
  405MOL0     C54547   3.744   6.794  11.261  0.1609  0.3836  0.2992
  405MOL0     O54548   3.665   6.817  11.368  0.5480  0.0468  0.2523
  405MOL0     C54549   3.529   6.771  11.389  1.0753  0.0693 -0.2919
  405MOL0     C54550   3.511   6.797  11.532  0.6112  0.1376 -0.6336
  405MOL0     C54551   3.521   6.944  11.568  0.4977 -0.5337 -0.8239
  405MOL0     C54552   3.497   6.951  11.725  0.2748  0.4647  0.7035
  405MOL0     C54553   3.534   7.081  11.791  1.0675  0.7811 -0.8828
  405MOL0     C54554   3.476   7.209  11.733 -0.7820  0.4974 -0.4849
  405MOL0     C54555   3.531   7.336  11.800 -0.4098  0.0544  0.2265
  405MOL0     C54556   3.468   7.361  11.941 -0.3471  0.2515  0.6473
  405MOL0     N54557   3.516   7.499  11.983 -0.4358 -0.7962  0.2481
  405MOL0     C54558   3.605   7.524  12.082 -0.2288 -0.0661  0.6013
  405MOL0     C54559   3.638   7.646  12.070 -0.8545  0.0725  0.5061
  405MOL0     C54560   3.731   7.725  12.160  0.4009  0.7854 -0.4279
  405MOL0     C54561   3.669   7.724  12.300 -0.1694 -0.2656 -0.0723
  405MOL0     C54562   3.738   7.843  12.377 -0.3582 -0.1146 -0.1458
  405MOL0     C54563   3.862   7.799  12.459  0.3543  0.4712  0.3723
  405MOL0     O54564   3.912   7.877  12.570  0.1648 -0.0550 -0.7792
  405MOL0     C54565   3.848   7.870  12.691 -0.7581  0.1616 -0.0697
  405MOL0     C54566   3.729   7.815  12.732 -0.1035 -0.2629  0.4060
  405MOL0     C54567   3.692   7.811  12.869  0.3026 -0.0487 -0.0248
  405MOL0     C54568   3.761   7.887  12.963 -0.3870 -0.7317 -0.3585
  405MOL0     C54569   3.706   7.913  13.104 -0.3555  0.2630 -0.2515
  405MOL0     O54570   3.567   7.893  13.105 -0.0466 -0.5822 -0.9534
  405MOL0     C54571   3.493   7.893  13.220 -0.7709  0.0656  0.7959
  405MOL0     C54572   3.370   7.953  13.214 -0.1580  0.4285 -0.6240
  405MOL0     C54573   3.291   7.945  13.333 -1.2470  0.1517  0.1163
  405MOL0     C54574   3.335   7.874  13.450 -1.7801 -0.2370  0.7915
  405MOL0     O54575   3.271   7.864  13.574  0.0426  0.8097 -0.2863
  405MOL0     C54576   3.167   7.958  13.599  0.9903  0.7211  0.7441
  405MOL0     C54577   3.127   7.960  13.745  0.8466 -0.0895 -0.4884
  405MOL0     C54578   2.997   7.867  13.785 -0.0401  1.3800  1.4031
  405MOL0     C54579   2.978   7.873  13.934  0.1052  0.1384  0.5366
  405MOL0     C54580   2.884   7.762  13.991  0.3049 -1.2421  0.0726
  405MOL0     C54581   2.955   7.628  13.989 -0.1619 -0.0285 -0.8210
  405MOL0     C54582   2.859   7.519  14.036 -0.1453  0.6848 -0.0314
  405MOL0     C54583   2.850   7.402  13.946 -1.0138  0.3087  0.1354
  405MOL0    Cl54584   3.014   7.337  13.895 -0.3334 -0.1472 -0.3322
  405MOL0     C54585   3.458   7.811  13.438  0.3923 -0.9978 -0.1070
  405MOL0     C54586   3.539   7.816  13.334  0.3360  0.5946  0.0699
  405MOL0     O54587   3.778   7.935  13.202 -0.0171  0.5538  0.1874
  405MOL0     C54588   3.885   7.940  12.924 -0.0926  1.0882 -0.8557
  405MOL0     C54589   3.924   7.936  12.791 -0.8196 -1.3015 -0.4665
  405MOL0     N54590   3.570   7.703  11.957 -1.3043  0.0508 -0.4523
  405MOL0     N54591   3.495   7.606  11.914  0.4379  0.0459  0.8163
  405MOL0     C54592   3.725   6.690  11.175  0.7915 -0.0741 -0.0089
  405MOL0     C54593   3.807   6.673  11.062  0.6948 -0.3289 -0.0523
  405MOL0     C54594   4.067   6.726  10.698 -0.1290  0.1837 -0.1110
  405MOL0     C54595   4.192   6.779  10.719 -0.0826  0.2270  0.4004
  405MOL0     C54596   4.297   6.773  10.627  1.2665  0.2110  0.8574
  405MOL0     C54597   4.278   6.710  10.506  0.4380 -0.3845  0.6538
  405MOL0     O54598   4.359   6.718  10.397 -0.1812 -0.2375  0.0106
  405MOL0     C54599   4.300   6.801  10.286  0.0436 -0.1231  1.3111
  405MOL0     C54600   4.413   6.880  10.213  0.1854  0.4212 -0.0777
  405MOL0     C54601   4.505   6.949  10.318  0.1294  0.0339  0.0915
  405MOL0     C54602   4.446   7.056  10.413 -0.9622 -0.2954  1.2435
  405MOL0     C54603   4.424   7.187  10.344  0.5117  0.6270  0.2025
  405MOL0     C54604   4.395   7.275  10.270 -0.0773 -0.0927  0.2300
  405MOL0     C54605   4.145   6.645  10.487 -0.3777 -0.2958 -0.2377
  405MOL0     C54606   4.041   6.655  10.583  0.2068  0.0282  0.4754
  405MOL0     C54607   3.913   6.583  10.532  0.1499  0.2323 -0.3999
  405MOL0     H54608   4.009   6.932  11.097  1.4129 -0.6283  1.8504
  405MOL0     H54609   3.867   6.978  11.291  2.6645  1.8833 -2.4105
  405MOL0     H54610   3.468   6.840  11.330  0.8247 -0.9247 -1.2178
  405MOL0     H54611   3.510   6.668  11.357  1.1173  0.2737 -0.9943
  405MOL0     H54612   3.591   6.745  11.585  0.4031 -2.0497 -2.3219
  405MOL0     H54613   3.416   6.756  11.566  1.1693 -1.3217 -0.7917
  405MOL0     H54614   3.445   6.993  11.506 -0.2668 -1.4580 -0.6332
  405MOL0     H54615   3.616   6.988  11.537  0.7354  0.0692  0.6508
  405MOL0     H54616   3.390   6.931  11.736  0.6190 -0.2247  3.5511
  405MOL0     H54617   3.536   6.864  11.778  1.1939  0.7330  0.4871
  405MOL0     H54618   3.503   7.078  11.896 -4.2915  0.2839 -2.1918
  405MOL0     H54619   3.642   7.064  11.789  0.8739 -2.4927  3.1405
  405MOL0     H54620   3.513   7.228  11.631  2.9460  0.4957  0.7207
  405MOL0     H54621   3.367   7.205  11.741 -0.5834 -3.2671  3.7662
  405MOL0     H54622   3.518   7.421  11.732  1.9048  2.1030  2.1403
  405MOL0     H54623   3.640   7.323  11.808 -0.4675 -0.7363 -0.2040
  405MOL0     H54624   3.360   7.355  11.927 -0.6312 -1.8377  3.0299
  405MOL0     H54625   3.482   7.281  12.014 -1.5742 -1.0244 -0.4669
  405MOL0     H54626   3.652   7.457  12.153  0.7632 -1.3127 -1.1491
  405MOL0     H54627   3.831   7.685  12.143 -1.3459 -3.1448 -2.6582
  405MOL0     H54628   3.720   7.828  12.125  2.3534  1.4223  0.6671
  405MOL0     H54629   3.560   7.736  12.303 -0.1349 -0.0964  0.8202
  405MOL0     H54630   3.693   7.630  12.349  1.4161  1.8722  3.7035
  405MOL0     H54631   3.664   7.888  12.444 -0.6238 -1.2218  0.3226
  405MOL0     H54632   3.767   7.924  12.309 -1.1695  0.4985  0.2176
  405MOL0     H54633   3.945   7.774  12.392  0.6633  2.3711 -0.0169
  405MOL0     H54634   3.842   7.698  12.497  0.0981  0.8863  1.3702
  405MOL0     H54635   3.660   7.758  12.670  0.3040 -3.7889  2.8715
  405MOL0     H54636   3.595   7.765  12.884  0.0563  1.1855  2.8815
  405MOL0     H54637   3.345   8.009  13.125 -2.2082 -0.6219 -0.7672
  405MOL0     H54638   3.198   8.000  13.340 -2.0943 -1.2270  0.0030
  405MOL0     H54639   3.208   8.057  13.575 -0.0523  0.3019 -3.4613
  405MOL0     H54640   3.084   7.934  13.532  2.0480 -4.2667  0.8223
  405MOL0     H54641   3.207   7.928  13.813  1.5806 -0.9890 -1.7235
  405MOL0     H54642   3.106   8.062  13.777 -4.1384 -1.0466  0.0672
  405MOL0     H54643   2.909   7.916  13.743  0.0223  0.7534  0.5109
  405MOL0     H54644   3.004   7.768  13.738 -1.1375  1.6579  0.5995
  405MOL0     H54645   2.941   7.974  13.956 -0.5601 -0.3589  1.8479
  405MOL0     H54646   3.076   7.873  13.982  0.4142 -1.2473 -0.0560
  405MOL0     H54647   2.790   7.766  13.935 -1.1337  3.3752  2.2921
  405MOL0     H54648   2.864   7.777  14.097  0.0058 -0.9535 -0.0242
  405MOL0     H54649   2.998   7.603  13.891  1.2553  2.2440 -0.8504
  405MOL0     H54650   3.044   7.640  14.052 -0.6757  7.7024 -0.6905
  405MOL0     H54651   2.759   7.563  14.035  0.8709  3.2317  1.2827
  405MOL0     H54652   2.879   7.479  14.135 -1.7036  0.6350  0.2787
  405MOL0     H54653   2.791   7.314  13.973 -0.8181 -0.5996 -2.2067
  405MOL0     H54654   2.791   7.447  13.866 -2.5310  0.8505  1.4814
  405MOL0     H54655   3.502   7.766  13.527 -0.4608  0.0692  0.8861
  405MOL0     H54656   3.630   7.757  13.341  1.1928  1.7977 -0.4805
  405MOL0     H54657   3.949   7.983  13.000  3.2755 -0.4773 -2.5970
  405MOL0     H54658   4.015   7.985  12.757  0.2065  1.2027  4.7996
  405MOL0     H54659   3.649   6.614  11.189  0.6848  0.1662  0.7831
  405MOL0     H54660   3.783   6.584  11.006 -3.2601 -1.3562  2.8086
  405MOL0     H54661   4.203   6.839  10.809  0.8401  1.6741 -0.6353
  405MOL0     H54662   4.389   6.826  10.649  0.1582  1.3944  2.8533
  405MOL0     H54663   4.232   6.870  10.337 -4.3312 -2.8206 -0.2963
  405MOL0     H54664   4.239   6.741  10.218 -0.8062  2.8320 -0.7361
  405MOL0     H54665   4.363   6.952  10.148 -2.2561  0.6468  1.9141
  405MOL0     H54666   4.477   6.812  10.155  1.8411  2.0541 -0.2729
  405MOL0     H54667   4.592   6.997  10.272  0.4579  1.1431  1.7847
  405MOL0     H54668   4.551   6.871  10.380  1.2207  0.9523  0.4722
  405MOL0     H54669   4.355   7.025  10.467 -1.1443  2.6821  2.8827
  405MOL0     H54670   4.533   7.061  10.479 -1.4121 -5.6007  2.6502
  405MOL0     H54671   4.359   7.350  10.202 -2.0398 -2.0159 -0.9988
  405MOL0     H54672   4.132   6.602  10.388 -1.2125  1.8575 -1.1082
  405MOL0     H54673   3.842   6.580  10.615  4.0796 -2.3849  3.2775
  405MOL0     H54674   3.865   6.632  10.447  4.7059 -0.1157 -3.5783
  405MOL0     H54675   3.932   6.479  10.504 -0.3665  0.5277 -1.9263
  406MOL0     O54676   6.813   2.164   7.265 -0.3366 -0.3566  0.1583
  406MOL0     C54677   6.934   2.170   7.258 -0.8417  0.4217  0.2663
  406MOL0     O54678   7.022   2.093   7.329  0.0441 -0.2544 -0.4186
  406MOL0     C54679   6.971   1.976   7.382 -0.4022 -0.2109  2.0676
  406MOL0     C54680   7.041   1.922   7.477 -0.8252  0.5640 -0.2737
  406MOL0     C54681   7.022   1.787   7.523  0.1963  0.8004 -0.1255
  406MOL0     C54682   6.913   1.711   7.466  0.1269  1.3406 -0.6440
  406MOL0     O54683   6.879   1.581   7.499 -0.3193  0.8446 -0.0261
  406MOL0     C54684   6.978   1.507   7.579 -0.3994 -0.3171 -0.3195
  406MOL0     C54685   6.968   1.362   7.591 -0.9321  0.0033  1.3203
  406MOL0     C54686   6.830   1.305   7.652 -0.7786 -0.7462 -0.5999
  406MOL0     C54687   6.833   1.311   7.813 -0.7420 -1.2741 -0.4464
  406MOL0     C54688   6.737   1.206   7.870  0.2873  1.0706 -0.7426
  406MOL0     C54689   6.592   1.261   7.862  0.1884  0.3884  0.0141
  406MOL0     C54690   6.493   1.159   7.921 -0.6043 -0.0584  0.8883
  406MOL0     C54691   6.483   1.024   7.843 -0.1150  0.3981 -0.5936
  406MOL0     N54692   6.373   0.959   7.923  0.2249  0.2208 -0.1017
  406MOL0     C54693   6.312   0.840   7.886  0.1210 -0.4611  0.2371
  406MOL0     C54694   6.195   0.837   7.949 -0.5221 -0.8315 -0.2228
  406MOL0     C54695   6.089   0.726   7.952  0.7653  0.0282  0.5345
  406MOL0     C54696   6.035   0.697   8.101  0.9715  0.0571  0.3082
  406MOL0     C54697   5.968   0.557   8.110 -0.0318 -0.1484  0.2911
  406MOL0     C54698   5.883   0.542   8.234 -0.2707 -0.1757  0.0196
  406MOL0     O54699   5.760   0.626   8.225  0.4127  0.5384 -0.1312
  406MOL0     C54700   5.643   0.555   8.237  0.1590 -0.4859  0.4673
  406MOL0     C54701   5.540   0.570   8.148 -0.4378 -0.3257 -0.4622
  406MOL0     C54702   5.414   0.516   8.173 -0.3338 -0.0480 -0.6386
  406MOL0     C54703   5.379   0.449   8.293 -0.1201 -0.1899 -0.1113
  406MOL0     C54704   5.243   0.386   8.313 -0.7497  0.4801 -0.2030
  406MOL0     O54705   5.153   0.399   8.206 -0.5583  0.2294  0.3478
  406MOL0     C54706   5.037   0.341   8.221 -0.6722  0.4184 -0.2790
  406MOL0     C54707   4.980   0.290   8.112  0.2380  0.7843  0.1863
  406MOL0     C54708   4.871   0.197   8.127  0.4802  0.0548  1.0305
  406MOL0     C54709   4.805   0.171   8.245  0.1905  0.1203 -0.3521
  406MOL0     O54710   4.705   0.070   8.250 -0.6552  0.6857  0.8652
  406MOL0     C54711   4.666   0.027   8.375  0.2181  0.0545  0.7329
  406MOL0     C54712   4.560  -0.080   8.353 -0.1584  0.7595  0.3033
  406MOL0     C54713   4.641  -0.211   8.310 -0.5030 -0.4188 -0.2788
  406MOL0     C54714   4.547  -0.330   8.273 -0.7879  1.0794  0.5203
  406MOL0     C54715   4.613  -0.462   8.252 -0.0821  0.5237 -0.0964
  406MOL0     C54716   4.516  -0.580   8.236 -0.0711  0.0437 -0.1179
  406MOL0     C54717   4.581  -0.697   8.164  0.3076  0.7784  0.8817
  406MOL0     C54718   4.482  -0.814   8.149 -0.0305  0.2467  0.1715
  406MOL0    Cl54719   4.395  -0.800   7.990 -0.1234  0.4785 -0.2758
  406MOL0     C54720   4.857   0.230   8.352  0.3772 -1.1345  0.0771
  406MOL0     C54721   4.955   0.326   8.338 -0.8053 -0.3205  0.2669
  406MOL0     O54722   5.234   0.311   8.411 -0.0434 -0.1026 -0.9052
  406MOL0     C54723   5.481   0.436   8.391 -0.5609 -0.0808  0.2486
  406MOL0     C54724   5.616   0.480   8.358 -0.0073 -0.5157  0.5271
  406MOL0     N54725   6.180   0.947   8.028 -0.8944 -0.0920  0.1782
  406MOL0     N54726   6.283   1.019   8.016 -0.5994 -0.0265 -0.3215
  406MOL0     C54727   6.840   1.767   7.368  0.4579  0.9241  0.2783
  406MOL0     C54728   6.876   1.891   7.318 -0.3103  1.3556  0.8086
  406MOL0     C54729   6.991   2.252   7.150  0.8979  0.1662 -0.5429
  406MOL0     C54730   6.970   2.388   7.171 -1.3873 -0.6510  0.0801
  406MOL0     C54731   7.005   2.481   7.072  1.0230  0.0770  0.2473
  406MOL0     C54732   7.066   2.439   6.959 -0.8658 -0.1879 -0.8172
  406MOL0     O54733   7.083   2.539   6.871  0.0761  0.8133  0.3925
  406MOL0     C54734   7.124   2.507   6.733 -0.5274  1.0649  0.0425
  406MOL0     C54735   7.277   2.537   6.730 -0.1872  0.4376 -0.0821
  406MOL0     C54736   7.323   2.663   6.804  0.1001  0.0306  0.1683
  406MOL0     C54737   7.474   2.681   6.787  1.2927 -1.0322  0.1988
  406MOL0     C54738   7.543   2.575   6.857  0.1888  1.5294  0.6660
  406MOL0     C54739   7.608   2.492   6.902  0.0635  0.9063  0.4946
  406MOL0     C54740   7.100   2.303   6.949  0.0164 -0.5213  0.4101
  406MOL0     C54741   7.052   2.203   7.039 -0.3532  0.2892  0.9017
  406MOL0     C54742   7.066   2.050   7.028  0.4754 -0.3173  0.1975
  406MOL0     H54743   7.121   1.980   7.522 -1.5843  1.0921  0.4377
  406MOL0     H54744   7.064   1.740   7.612 -0.0656  0.4880 -0.1664
  406MOL0     H54745   7.080   1.529   7.546  1.1659 -2.5280  2.6073
  406MOL0     H54746   6.970   1.552   7.678 -2.9093  0.7961 -0.9453
  406MOL0     H54747   7.058   1.334   7.646  2.7831  3.4409 -2.3027
  406MOL0     H54748   7.006   1.316   7.500  6.5058  0.2405  3.6823
  406MOL0     H54749   6.826   1.199   7.626  2.1080 -0.6670 -1.8005
  406MOL0     H54750   6.735   1.342   7.614 -0.7181 -1.0234 -1.0169
  406MOL0     H54751   6.934   1.276   7.838 -0.4555 -1.7660 -2.1610
  406MOL0     H54752   6.811   1.413   7.847  0.1302 -1.6129  1.2529
  406MOL0     H54753   6.744   1.108   7.822 -2.3326 -1.5532  3.5620
  406MOL0     H54754   6.759   1.182   7.974 -0.3666  0.0414 -0.8302
  406MOL0     H54755   6.591   1.356   7.916  1.0422  0.9388 -0.9045
  406MOL0     H54756   6.565   1.282   7.758  0.1002 -2.7848 -0.7105
  406MOL0     H54757   6.400   1.212   7.944 -0.9865 -2.3047  5.6283
  406MOL0     H54758   6.525   1.127   8.020 -1.5499 -1.6209  0.7165
  406MOL0     H54759   6.456   1.039   7.738 -0.5348 -1.5128 -0.7856
  406MOL0     H54760   6.580   0.973   7.840 -0.3225 -0.0394  0.0221
  406MOL0     H54761   6.351   0.788   7.800  1.3045  0.3321  0.2819
  406MOL0     H54762   6.008   0.741   7.881  0.7179  1.2858  0.8217
  406MOL0     H54763   6.150   0.640   7.922  0.7935  0.4870 -0.7982
  406MOL0     H54764   6.113   0.714   8.176  1.9596 -3.3295  0.1885
  406MOL0     H54765   5.962   0.778   8.110  0.0615 -0.7191  0.0414
  406MOL0     H54766   6.042   0.478   8.121  1.0665  0.4338 -2.3045
  406MOL0     H54767   5.922   0.534   8.013 -1.1386 -2.9452  1.3669
  406MOL0     H54768   5.945   0.563   8.322  1.1211 -0.7435 -0.7948
  406MOL0     H54769   5.859   0.435   8.240 -0.9752  0.0571  2.1629
  406MOL0     H54770   5.578   0.634   8.069  1.6084  0.1791  0.8522
  406MOL0     H54771   5.332   0.545   8.107 -1.3912  0.7001  0.9390
  406MOL0     H54772   5.039   0.306   8.023  1.1539 -2.2904  0.1415
  406MOL0     H54773   4.840   0.151   8.033  0.3070  0.7101  0.7555
  406MOL0     H54774   4.751  -0.022   8.425 -1.4056 -4.2674 -0.2560
  406MOL0     H54775   4.633   0.111   8.437 -2.0670 -2.0300  2.5211
  406MOL0     H54776   4.498  -0.095   8.442 -1.8318  2.2226 -0.5373
  406MOL0     H54777   4.498  -0.048   8.268  0.6081  1.1823 -0.1011
  406MOL0     H54778   4.694  -0.193   8.215  0.2153  1.2808  0.3937
  406MOL0     H54779   4.710  -0.227   8.393 -1.5580  1.9544  1.1743
  406MOL0     H54780   4.481  -0.310   8.189 -0.4076 -1.5040 -0.5055
  406MOL0     H54781   4.491  -0.349   8.366  0.5216 -0.7547  1.0068
  406MOL0     H54782   4.672  -0.477   8.343 -0.5270 -0.0751  0.0982
  406MOL0     H54783   4.666  -0.466   8.156  1.3814 -2.8848  0.7235
  406MOL0     H54784   4.486  -0.601   8.339 -1.3830  2.0554 -0.0336
  406MOL0     H54785   4.427  -0.550   8.179  1.4345 -0.6140 -3.0366
  406MOL0     H54786   4.667  -0.731   8.223 -0.6905 -1.6815  1.0091
  406MOL0     H54787   4.618  -0.666   8.065 -2.1570 -2.6514 -1.3154
  406MOL0     H54788   4.533  -0.911   8.151  1.7923  1.1146  3.7969
  406MOL0     H54789   4.422  -0.826   8.240 -1.6211  0.4291 -0.8076
  406MOL0     H54790   4.807   0.233   8.448  0.7031  1.8631  0.2433
  406MOL0     H54791   4.986   0.380   8.427  2.2742 -0.0241 -0.8496
  406MOL0     H54792   5.462   0.369   8.475  1.4347 -1.6577 -0.4723
  406MOL0     H54793   5.702   0.478   8.425  0.1950  1.0038  0.3523
  406MOL0     H54794   6.766   1.698   7.328  0.7017  1.2359 -0.7478
  406MOL0     H54795   6.825   1.910   7.224 -3.4932 -0.9550  1.8930
  406MOL0     H54796   6.930   2.438   7.259 -1.4166  1.5261 -1.1030
  406MOL0     H54797   6.992   2.588   7.082  0.6672 -0.1520  3.3354
  406MOL0     H54798   7.079   2.588   6.675 -3.3388  1.1665  2.1564
  406MOL0     H54799   7.096   2.409   6.695  1.4853  0.6866 -0.5575
  406MOL0     H54800   7.318   2.538   6.629  1.0785  0.5935  0.4189
  406MOL0     H54801   7.322   2.448   6.776 -1.8061  0.3084  1.3781
  406MOL0     H54802   7.300   2.671   6.911  0.8749  2.5551  0.2122
  406MOL0     H54803   7.265   2.748   6.766  0.7316  0.4011  0.0206
  406MOL0     H54804   7.498   2.683   6.680  0.6693 -0.9682  0.0577
  406MOL0     H54805   7.497   2.780   6.826 -2.4375  1.4143 -3.0856
  406MOL0     H54806   7.648   2.403   6.946 -1.7214  1.8110  4.3831
  406MOL0     H54807   7.163   2.278   6.864  0.5466  2.5361 -0.2242
  406MOL0     H54808   6.970   2.001   7.049  0.2460  0.3287  0.6758
  406MOL0     H54809   7.095   2.025   6.925 -0.1570  3.4127 -1.0476
  406MOL0     H54810   7.134   2.011   7.104 -1.2999 -0.0416  1.9846
  407MOL0     O54811  10.063   5.332   7.888 -0.4242  0.1849  0.0210
  407MOL0     C54812  10.146   5.358   7.804  0.1951 -0.2288  0.2730
  407MOL0     O54813  10.224   5.465   7.793  0.3269  0.4444 -0.4275
  407MOL0     C54814  10.206   5.571   7.874  0.1935 -0.1126  0.3519
  407MOL0     C54815  10.265   5.571   8.004  0.3844 -0.1857 -0.0469
  407MOL0     C54816  10.251   5.680   8.083 -0.3027 -0.8960  0.6478
  407MOL0     C54817  10.189   5.798   8.033  0.4109 -0.3589  0.4254
  407MOL0     O54818  10.176   5.918   8.094 -1.1146  0.6135 -0.4730
  407MOL0     C54819  10.208   5.924   8.231  0.1828 -0.0291 -0.1832
  407MOL0     C54820  10.218   6.076   8.271  0.5581  0.0012  0.1763
  407MOL0     C54821  10.073   6.122   8.311  0.0774 -0.7236 -1.1650
  407MOL0     C54822   9.957   6.090   8.215  0.0267 -0.8297  0.8157
  407MOL0     C54823   9.838   6.183   8.266 -0.3975 -0.5153 -0.2339
  407MOL0     C54824   9.741   6.214   8.155 -0.0509 -0.2307  0.2057
  407MOL0     C54825   9.670   6.094   8.096  0.4629  1.0089 -0.4794
  407MOL0     C54826   9.563   6.034   8.195 -0.0852 -0.2182  0.2200
  407MOL0     N54827   9.434   6.004   8.119 -0.7238 -0.2523 -1.0677
  407MOL0     C54828   9.397   5.890   8.056  0.5074 -0.7583 -0.2362
  407MOL0     C54829   9.285   5.916   7.990  0.7561  0.2154 -0.2381
  407MOL0     C54830   9.209   5.813   7.894 -0.7241  0.3358 -0.8716
  407MOL0     C54831   9.225   5.867   7.756  0.7517 -0.0741  0.4635
  407MOL0     C54832   9.194   5.761   7.654 -0.5015 -0.3005  0.4742
  407MOL0     C54833   9.061   5.696   7.675 -0.7584  0.0807  0.2434
  407MOL0     O54834   9.074   5.556   7.719 -0.6483  0.6251 -0.0162
  407MOL0     C54835   9.018   5.454   7.658 -0.4482 -0.4327  0.1191
  407MOL0     C54836   8.976   5.455   7.530  0.3291 -0.0536  0.9342
  407MOL0     C54837   8.929   5.341   7.472  0.1756  0.0420  0.2620
  407MOL0     C54838   8.938   5.217   7.528 -0.2575  0.3339 -0.1418
  407MOL0     C54839   8.892   5.098   7.457  0.2542  0.9061  1.0167
  407MOL0     O54840   8.879   5.113   7.320 -0.2450  0.5130  0.3636
  407MOL0     C54841   8.849   4.999   7.252  0.6477 -0.1528 -0.1946
  407MOL0     C54842   8.942   4.919   7.190 -0.2181 -0.6156  0.5224
  407MOL0     C54843   8.899   4.802   7.132 -0.3184 -0.6629  0.9148
  407MOL0     C54844   8.771   4.747   7.142 -0.4618  0.1563  0.8915
  407MOL0     O54845   8.730   4.616   7.107 -1.0672 -0.5641  0.1615
  407MOL0     C54846   8.785   4.565   6.981  0.3477  0.0081 -0.5029
  407MOL0     C54847   8.713   4.434   6.955  0.1210  0.7812 -0.6122
  407MOL0     C54848   8.748   4.373   6.822  0.4183 -0.0214 -0.2307
  407MOL0     C54849   8.895   4.332   6.820  0.8087  0.5222 -1.2104
  407MOL0     C54850   8.929   4.261   6.688  1.6328 -0.1234  0.0719
  407MOL0     C54851   9.072   4.213   6.671 -0.1231 -0.4038  0.2493
  407MOL0     C54852   9.194   4.313   6.673  0.2138  0.5643 -0.9013
  407MOL0     C54853   9.323   4.252   6.666  0.2922  0.2722 -0.3399
  407MOL0    Cl54854   9.429   4.399   6.664 -0.2005  0.2346 -0.0119
  407MOL0     C54855   8.677   4.822   7.207 -0.2370  0.1084 -0.4277
  407MOL0     C54856   8.714   4.949   7.260  0.7318 -0.8002 -0.9286
  407MOL0     O54857   8.841   5.004   7.522 -0.4244  0.4377 -0.6840
  407MOL0     C54858   8.997   5.207   7.652 -0.4135  0.5563 -1.3754
  407MOL0     C54859   9.042   5.329   7.714 -0.5792  1.1175  0.2720
  407MOL0     N54860   9.250   6.044   8.023 -0.7565  0.3606 -0.8711
  407MOL0     N54861   9.342   6.103   8.095 -0.4355  0.9068  0.7140
  407MOL0     C54862  10.137   5.800   7.902 -0.0521 -0.0154  0.8805
  407MOL0     C54863  10.138   5.682   7.826 -0.6575 -0.3128 -0.6014
  407MOL0     C54864  10.173   5.256   7.701  0.4680  0.1301  0.0535
  407MOL0     C54865  10.168   5.302   7.575 -0.2953  0.4597 -0.4847
  407MOL0     C54866  10.205   5.223   7.465  0.6764 -0.5688  0.2778
  407MOL0     C54867  10.244   5.096   7.488 -0.0208 -0.1250  0.3062
  407MOL0     O54868  10.286   5.025   7.382 -0.6381  0.1180  1.4907
  407MOL0     C54869  10.389   4.924   7.398  0.6435 -0.1028  0.1622
  407MOL0     C54870  10.477   4.900   7.275 -0.3105  0.5496  0.5557
  407MOL0     C54871  10.589   5.002   7.280  0.3047  0.1657 -0.3868
  407MOL0     C54872  10.696   4.994   7.168  0.7630  0.1405 -0.3039
  407MOL0     C54873  10.630   5.013   7.043  0.9475 -0.2965  0.7425
  407MOL0     C54874  10.584   5.061   6.938 -0.5374 -0.7450  0.1081
  407MOL0     C54875  10.255   5.047   7.618  0.3131  1.1358 -0.2303
  407MOL0     C54876  10.206   5.125   7.723  0.0788  0.0972 -0.4329
  407MOL0     C54877  10.198   5.064   7.864 -0.3695  1.3413  0.3135
  407MOL0     H54878  10.339   5.494   8.027  0.1397 -0.8842 -1.4880
  407MOL0     H54879  10.303   5.692   8.178  5.0529  2.1273 -2.1877
  407MOL0     H54880  10.131   5.868   8.285 -0.6268  1.1264 -0.0951
  407MOL0     H54881  10.308   5.884   8.250 -0.6703 -1.8299  0.7750
  407MOL0     H54882  10.251   6.140   8.189  0.2178  0.9208  0.7464
  407MOL0     H54883  10.290   6.086   8.352 -0.7274  1.0506  1.2269
  407MOL0     H54884  10.083   6.229   8.334  1.2158 -1.2241  0.9247
  407MOL0     H54885  10.044   6.060   8.397 -2.9238 -0.4092 -1.8430
  407MOL0     H54886   9.989   6.125   8.117  0.1453  0.8673  1.4372
  407MOL0     H54887   9.931   5.984   8.215 -1.0311 -0.6129 -0.9523
  407MOL0     H54888   9.774   6.149   8.348 -1.3470  2.3122  0.3407
  407MOL0     H54889   9.887   6.276   8.296  0.3464 -1.5376  1.8404
  407MOL0     H54890   9.673   6.289   8.197  0.6778  1.5744 -1.6680
  407MOL0     H54891   9.791   6.270   8.075  1.4237 -0.2201  1.0947
  407MOL0     H54892   9.741   6.018   8.062 -0.2905  1.3919 -3.1254
  407MOL0     H54893   9.614   6.132   8.010 -0.6341  0.6176  0.0302
  407MOL0     H54894   9.604   5.944   8.241 -0.8907  0.2588  1.9447
  407MOL0     H54895   9.549   6.110   8.272  1.4761  2.2259 -1.7588
  407MOL0     H54896   9.454   5.797   8.055  1.2542 -0.3044 -0.1453
  407MOL0     H54897   9.259   5.717   7.906 -1.2079  0.3084  1.5794
  407MOL0     H54898   9.113   5.791   7.942  0.7139 -2.9730  0.7994
  407MOL0     H54899   9.153   5.950   7.752 -0.1491 -0.8386  0.3819
  407MOL0     H54900   9.329   5.899   7.741  0.5148  0.5141  0.0087
  407MOL0     H54901   9.266   5.678   7.655 -0.5584 -0.3547  1.6874
  407MOL0     H54902   9.191   5.818   7.561  0.8186 -0.3386  0.3946
  407MOL0     H54903   9.011   5.713   7.579 -1.2227 -1.5809  0.1533
  407MOL0     H54904   8.998   5.745   7.751 -1.5433 -0.4053 -0.0739
  407MOL0     H54905   8.963   5.549   7.477  0.0642  0.2796  1.5712
  407MOL0     H54906   8.885   5.347   7.373 -0.7064  2.9730  0.7362
  407MOL0     H54907   9.044   4.956   7.195 -0.9475  1.6061  0.1446
  407MOL0     H54908   8.967   4.738   7.075 -2.8205 -0.8487 -2.1562
  407MOL0     H54909   8.767   4.638   6.901 -3.3896 -0.1748 -0.0184
  407MOL0     H54910   8.892   4.551   6.994  0.9462  3.5773 -0.5896
  407MOL0     H54911   8.727   4.360   7.035 -2.3393  4.0576  3.2535
  407MOL0     H54912   8.605   4.454   6.958  0.1274  0.7437  0.1363
  407MOL0     H54913   8.688   4.282   6.816 -2.2285  1.6054  0.4255
  407MOL0     H54914   8.731   4.443   6.740 -0.1627  0.2020  0.0797
  407MOL0     H54915   8.911   4.272   6.910 -3.0243 -1.1391 -1.4423
  407MOL0     H54916   8.953   4.425   6.830  1.7157  0.2748 -3.4626
  407MOL0     H54917   8.897   4.339   6.618 -1.3000  4.3138  5.4702
  407MOL0     H54918   8.852   4.183   6.688  0.3050  1.1490  0.1948
  407MOL0     H54919   9.091   4.126   6.735 -0.1020 -3.3443 -3.4331
  407MOL0     H54920   9.068   4.178   6.568  0.7298 -1.9364  0.7098
  407MOL0     H54921   9.179   4.355   6.773 -1.4358  0.2849 -0.9957
  407MOL0     H54922   9.177   4.390   6.597  0.9951  0.4231 -1.2247
  407MOL0     H54923   9.335   4.187   6.753 -0.9166 -1.0746 -1.1409
  407MOL0     H54924   9.339   4.193   6.575  0.4702 -0.1323 -0.0508
  407MOL0     H54925   8.576   4.785   7.221  0.5207 -1.9251  0.0992
  407MOL0     H54926   8.639   4.990   7.327  1.6654 -0.1578 -0.2567
  407MOL0     H54927   9.010   5.108   7.693  0.2131  1.1891  0.0097
  407MOL0     H54928   9.102   5.341   7.804 -1.6276 -2.2051  1.5857
  407MOL0     H54929  10.077   5.886   7.875 -1.1703 -0.7842  0.8246
  407MOL0     H54930  10.094   5.682   7.727 -3.6777  2.1902  0.5831
  407MOL0     H54931  10.135   5.400   7.544  0.9660  1.1408  0.2336
  407MOL0     H54932  10.210   5.264   7.365  1.9341 -4.0533 -1.2772
  407MOL0     H54933  10.335   4.835   7.431 -1.3252  1.5217  1.6113
  407MOL0     H54934  10.452   4.962   7.479  1.2404 -1.0507  0.1578
  407MOL0     H54935  10.415   4.911   7.185  0.0759 -1.5159 -0.0089
  407MOL0     H54936  10.524   4.801   7.278  1.1151  1.1685 -0.3988
  407MOL0     H54937  10.650   4.984   7.368  2.0046  1.3860 -1.2579
  407MOL0     H54938  10.553   5.104   7.299  0.3257  0.0360  0.3799
  407MOL0     H54939  10.781   5.061   7.183  0.6448  0.1443  0.4011
  407MOL0     H54940  10.731   4.890   7.171 -2.6268 -1.1232  1.8772
  407MOL0     H54941  10.548   5.119   6.856  0.7075  0.1858  0.1762
  407MOL0     H54942  10.287   4.944   7.635 -5.5256 -0.8341  1.0921
  407MOL0     H54943  10.289   5.089   7.920 -0.6409  3.9524 -0.2899
  407MOL0     H54944  10.102   5.092   7.907 -1.9082 -4.0747  1.1682
  407MOL0     H54945  10.187   4.955   7.858  2.2715  1.0101  0.2084
  408MOL0     O54946   6.795   2.211   8.395 -0.0630 -0.0003  0.5236
  408MOL0     C54947   6.755   2.164   8.294 -0.3346  0.0309  0.4529
  408MOL0     O54948   6.821   2.064   8.222 -0.0343  0.1764 -0.3285
  408MOL0     C54949   6.926   1.995   8.288 -0.2065 -0.4724 -0.4614
  408MOL0     C54950   7.048   2.062   8.279 -0.7081 -0.6558  0.4985
  408MOL0     C54951   7.155   2.002   8.333 -0.2650 -0.2054 -0.8049
  408MOL0     C54952   7.152   1.875   8.394 -0.6771 -0.0751 -0.4243
  408MOL0     O54953   7.269   1.829   8.446  0.1399  0.2648  0.4435
  408MOL0     C54954   7.272   1.719   8.538  0.6085  0.4691  0.6028
  408MOL0     C54955   7.298   1.582   8.463 -0.1333 -0.0064 -0.2038
  408MOL0     C54956   7.310   1.469   8.571 -0.4821 -0.5943 -0.6689
  408MOL0     C54957   7.347   1.325   8.499 -0.0346  0.3979 -0.3692
  408MOL0     C54958   7.361   1.202   8.594 -0.4738 -0.6282  0.1145
  408MOL0     C54959   7.491   1.218   8.666  0.5843 -0.2959 -0.9876
  408MOL0     C54960   7.515   1.106   8.752 -0.0417 -0.2912  0.1759
  408MOL0     C54961   7.421   1.098   8.877 -0.2717  0.3617  1.1327
  408MOL0     N54962   7.446   0.978   8.956 -0.1625  0.2837 -0.0385
  408MOL0     C54963   7.357   0.890   8.997  0.6377  0.0515 -0.3817
  408MOL0     C54964   7.418   0.790   9.066 -0.7462 -1.2139 -0.2463
  408MOL0     C54965   7.354   0.692   9.157  0.5201 -0.8866 -1.0421
  408MOL0     C54966   7.250   0.755   9.261 -0.8014  0.5317 -0.0512
  408MOL0     C54967   7.295   0.842   9.379 -0.6354 -0.9948  0.1507
  408MOL0     C54968   7.304   0.993   9.336  0.4146  0.1589 -0.2058
  408MOL0     O54969   7.170   1.029   9.298  0.8164  0.1288  0.0747
  408MOL0     C54970   7.139   1.144   9.241 -0.3960  0.0911  0.0613
  408MOL0     C54971   7.007   1.150   9.220 -0.0266  0.4826  0.4429
  408MOL0     C54972   6.955   1.267   9.166 -0.2030 -1.0278 -0.3583
  408MOL0     C54973   7.039   1.371   9.131 -0.5790 -0.5282  1.2420
  408MOL0     C54974   6.994   1.488   9.057  1.0136 -0.4481 -0.0061
  408MOL0     O54975   7.089   1.572   8.998 -0.3443  0.0463 -0.1636
  408MOL0     C54976   7.038   1.698   8.956  0.6979  1.1623  0.3410
  408MOL0     C54977   6.948   1.785   9.023 -0.6670  0.4670 -0.1814
  408MOL0     C54978   6.899   1.895   8.944 -0.6242  0.1358 -0.6233
  408MOL0     C54979   6.955   1.939   8.831 -0.1290  0.9212  0.6040
  408MOL0     O54980   6.908   2.056   8.783  0.2008 -0.7901 -0.0514
  408MOL0     C54981   6.945   2.103   8.657 -0.1222 -0.6487  0.2985
  408MOL0     C54982   6.984   2.247   8.664  0.0431 -0.7931  1.0394
  408MOL0     C54983   7.112   2.273   8.740  0.4290  0.1986  0.9750
  408MOL0     C54984   7.190   2.384   8.663  0.9363  0.0159  0.7454
  408MOL0     C54985   7.284   2.479   8.743  0.1000 -0.6328  1.2189
  408MOL0     C54986   7.391   2.422   8.829 -0.2682  0.4508  0.8681
  408MOL0     C54987   7.532   2.509   8.841 -0.3603 -0.2868 -0.5401
  408MOL0     C54988   7.632   2.432   8.917 -0.2067 -0.8671 -0.0598
  408MOL0    Cl54989   7.784   2.515   8.966 -0.5045 -0.2137 -0.0896
  408MOL0     C54990   7.044   1.855   8.764 -0.6375  1.2880 -0.0046
  408MOL0     C54991   7.078   1.729   8.826 -1.5297 -0.9941  0.5500
  408MOL0     O54992   6.871   1.504   9.045 -0.2449  0.2261  0.0585
  408MOL0     C54993   7.178   1.355   9.148  0.4661 -1.0319 -0.4457
  408MOL0     C54994   7.230   1.250   9.208 -0.5419  0.6352 -0.3497
  408MOL0     N54995   7.556   0.822   9.055  0.2907  0.6300 -0.3582
  408MOL0     N54996   7.569   0.927   8.978 -0.6920  0.3911 -0.4370
  408MOL0     C54997   7.027   1.804   8.391  0.6234 -0.0909 -0.6248
  408MOL0     C54998   6.916   1.867   8.338  0.2942  0.1678  0.7522
  408MOL0     C54999   6.632   2.210   8.235 -0.0375 -0.9673  0.3549
  408MOL0     C55000   6.604   2.172   8.106 -0.7883 -0.5681 -0.4858
  408MOL0     C55001   6.489   2.209   8.044  0.3768 -0.1701  1.1370
  408MOL0     C55002   6.387   2.277   8.103  0.4013  0.2263 -0.2997
  408MOL0     O55003   6.274   2.306   8.024 -0.3065 -0.3824 -0.2577
  408MOL0     C55004   6.163   2.389   8.073 -0.6105 -0.4026  0.1206
  408MOL0     C55005   6.056   2.317   8.145 -0.3681 -0.2194  0.2411
  408MOL0     C55006   5.963   2.243   8.052 -0.5360  0.9976  0.5229
  408MOL0     C55007   5.863   2.155   8.127 -0.6516 -0.1083  0.6061
  408MOL0     C55008   5.780   2.083   8.028 -0.2465 -0.0258  0.1268
  408MOL0     C55009   5.729   2.005   7.954  0.0970  0.6602  0.1817
  408MOL0     C55010   6.405   2.327   8.235 -0.6004  0.2133 -0.0459
  408MOL0     C55011   6.536   2.300   8.298  0.4585  0.1162  0.1002
  408MOL0     C55012   6.567   2.380   8.423  0.6083  0.4495 -0.9978
  408MOL0     H55013   7.056   2.155   8.225 -2.3458 -1.8297 -1.9129
  408MOL0     H55014   7.248   2.057   8.322 -1.3439  1.1634 -4.5691
  408MOL0     H55015   7.351   1.747   8.608 -0.3136  2.4880  0.9174
  408MOL0     H55016   7.174   1.718   8.586 -0.3804  0.2863 -1.3006
  408MOL0     H55017   7.395   1.598   8.415  1.7032 -1.4871  2.7036
  408MOL0     H55018   7.218   1.557   8.393 -1.7654 -1.2720  2.0056
  408MOL0     H55019   7.213   1.448   8.617 -0.7097 -2.9098 -2.0370
  408MOL0     H55020   7.370   1.503   8.656 -2.0730  3.9059 -1.0811
  408MOL0     H55021   7.268   1.303   8.428 -2.8964  2.4125  1.9495
  408MOL0     H55022   7.445   1.319   8.450 -0.1341  0.4462 -0.5698
  408MOL0     H55023   7.269   1.188   8.650 -0.8566 -2.0763 -0.8205
  408MOL0     H55024   7.370   1.109   8.536 -0.3610 -0.2668 -0.4612
  408MOL0     H55025   7.570   1.228   8.591  0.6855 -1.7683 -1.0999
  408MOL0     H55026   7.495   1.310   8.726 -2.3005  0.6792 -2.1055
  408MOL0     H55027   7.614   1.109   8.798 -0.2749  0.6897  0.6556
  408MOL0     H55028   7.503   1.016   8.692  0.6480  0.3654 -0.9800
  408MOL0     H55029   7.446   1.172   8.953  3.5668 -1.1023  1.4775
  408MOL0     H55030   7.319   1.108   8.838 -0.3812  6.2209  1.9871
  408MOL0     H55031   7.248   0.891   8.993  0.6664  0.1123 -1.7535
  408MOL0     H55032   7.308   0.612   9.100  0.8668 -2.0561  0.2603
  408MOL0     H55033   7.435   0.642   9.211  0.5667 -0.1646 -0.4104
  408MOL0     H55034   7.172   0.811   9.208 -1.4130  2.8519  3.0431
  408MOL0     H55035   7.211   0.671   9.319  1.9998 -1.1577 -0.3690
  408MOL0     H55036   7.396   0.808   9.404 -0.5569 -1.2406 -0.4959
  408MOL0     H55037   7.228   0.824   9.464 -0.1278 -2.0306  0.3434
  408MOL0     H55038   7.386   1.003   9.264  0.4005  3.0664  0.0765
  408MOL0     H55039   7.335   1.061   9.416 -0.1740 -1.5170  1.5211
  408MOL0     H55040   6.941   1.065   9.237  0.8677 -0.5059 -0.8736
  408MOL0     H55041   6.848   1.282   9.154 -0.6411 -3.5674 -0.1994
  408MOL0     H55042   6.928   1.775   9.129  1.1378  0.0724  0.1547
  408MOL0     H55043   6.828   1.962   8.992 -2.4552  0.5272 -3.6703
  408MOL0     H55044   7.039   2.064   8.615 -0.1978 -1.1076  0.5499
  408MOL0     H55045   6.863   2.099   8.585  0.8988  2.3971 -1.2213
  408MOL0     H55046   7.002   2.273   8.560  0.6206  0.5765  1.4572
  408MOL0     H55047   6.902   2.301   8.714 -0.8194 -1.9868  0.9542
  408MOL0     H55048   7.083   2.309   8.839  0.1035  3.6564 -0.2158
  408MOL0     H55049   7.174   2.184   8.753  0.4130 -0.3930 -2.1801
  408MOL0     H55050   7.123   2.452   8.611  2.4427  0.2593 -0.9912
  408MOL0     H55051   7.247   2.330   8.587 -0.0450 -3.4543  2.2627
  408MOL0     H55052   7.221   2.539   8.809  1.1717  0.6154  1.1549
  408MOL0     H55053   7.327   2.546   8.667 -1.4337  0.0973  0.9580
  408MOL0     H55054   7.340   2.413   8.925 -0.5739  1.2515  0.7918
  408MOL0     H55055   7.401   2.316   8.804 -0.8933  0.3619  0.9821
  408MOL0     H55056   7.513   2.595   8.906 -0.9432 -1.5912  1.0951
  408MOL0     H55057   7.573   2.546   8.747  1.6077 -1.4004 -0.1688
  408MOL0     H55058   7.582   2.386   9.003  3.3978 -1.0625  2.1183
  408MOL0     H55059   7.661   2.347   8.854  1.6443 -4.5845  5.0660
  408MOL0     H55060   7.090   1.887   8.670  1.1121  0.5686  0.5597
  408MOL0     H55061   7.157   1.662   8.794  0.5005  2.3109 -2.0273
  408MOL0     H55062   7.248   1.426   9.106  0.4547 -0.6612  0.1566
  408MOL0     H55063   7.338   1.244   9.216 -0.2610  1.4323 -2.7400
  408MOL0     H55064   6.991   1.713   8.437 -6.0343  0.3911 -3.7154
  408MOL0     H55065   6.820   1.817   8.341  0.0806  0.4386 -0.7272
  408MOL0     H55066   6.682   2.121   8.050  0.7744 -0.9549  1.8506
  408MOL0     H55067   6.468   2.184   7.940  2.2900  0.7306  0.4970
  408MOL0     H55068   6.130   2.441   7.982  0.8315 -0.2272 -0.3399
  408MOL0     H55069   6.201   2.458   8.148  1.6681 -1.6716  0.2345
  408MOL0     H55070   5.994   2.396   8.189 -0.3023 -0.6720  1.1757
  408MOL0     H55071   6.101   2.257   8.225  0.6690 -0.4336 -0.4893
  408MOL0     H55072   6.027   2.173   7.998  2.1829 -2.7158  7.2253
  408MOL0     H55073   5.904   2.310   7.989  0.5223  1.6081  0.1564
  408MOL0     H55074   5.906   2.072   8.184  0.9985  1.5062  1.8529
  408MOL0     H55075   5.818   2.217   8.206 -3.8281  1.3633 -2.1057
  408MOL0     H55076   5.686   1.931   7.890  0.4023  1.9959 -1.6560
  408MOL0     H55077   6.339   2.393   8.291 -0.3518  1.3257 -1.0280
  408MOL0     H55078   6.479   2.396   8.486  0.8972  2.0180 -0.9552
  408MOL0     H55079   6.649   2.350   8.488 -0.6111 -0.1233  0.3408
  408MOL0     H55080   6.584   2.482   8.388 -0.3750  1.3744  1.0336
  409MOL0     O55081   0.538   3.929   5.151  0.5538  0.1243  0.2916
  409MOL0     C55082   0.452   3.953   5.060  0.4826  0.3402 -0.8861
  409MOL0     O55083   0.324   4.008   5.083 -0.1719  0.4483  0.4932
  409MOL0     C55084   0.285   3.994   5.215 -0.0371 -0.0006 -0.6100
  409MOL0     C55085   0.204   3.891   5.257  0.5160 -1.3695 -0.0732
  409MOL0     C55086   0.149   3.899   5.380  0.4576 -0.4948 -0.9708
  409MOL0     C55087   0.186   4.010   5.467 -0.6547  0.4480 -0.4122
  409MOL0     O55088   0.129   4.018   5.586 -0.0837 -0.3079  0.3820
  409MOL0     C55089   0.214   3.980   5.691 -0.2047  0.3672 -1.0069
  409MOL0     C55090   0.233   3.823   5.712  0.5049  0.0191  0.5754
  409MOL0     C55091   0.340   3.776   5.817  0.2337  0.3863  0.2523
  409MOL0     C55092   0.366   3.621   5.817  0.0076  0.0160 -0.1417
  409MOL0     C55093   0.464   3.584   5.933  0.0612 -0.5191  0.1234
  409MOL0     C55094   0.493   3.436   5.953  0.3207  0.3514  1.2099
  409MOL0     C55095   0.605   3.405   6.048  0.7172 -1.4088  0.1055
  409MOL0     C55096   0.612   3.491   6.173  0.0933  0.0864 -0.2033
  409MOL0     N55097   0.723   3.439   6.248 -0.4077 -0.5188  0.1261
  409MOL0     C55098   0.859   3.460   6.213 -0.6362  0.2364 -0.7998
  409MOL0     C55099   0.918   3.428   6.334 -1.4026  0.5246  0.2929
  409MOL0     C55100   1.071   3.427   6.348  0.5957 -0.0872 -0.0490
  409MOL0     C55101   1.140   3.299   6.321  0.1526  0.3769 -0.4728
  409MOL0     C55102   1.050   3.175   6.361  0.7703 -0.3053  0.1950
  409MOL0     C55103   1.130   3.057   6.325 -0.2557 -0.6331  0.6011
  409MOL0     O55104   1.217   3.025   6.428  0.3683 -0.2001 -0.3950
  409MOL0     C55105   1.329   2.960   6.392  0.8512 -0.5135  0.2334
  409MOL0     C55106   1.451   2.984   6.451 -0.4942 -0.5239 -0.2477
  409MOL0     C55107   1.566   2.916   6.416 -0.1358  0.0241  0.4570
  409MOL0     C55108   1.568   2.822   6.319  0.4742  0.0118  0.4475
  409MOL0     C55109   1.700   2.757   6.291  0.7314  0.7909 -0.1246
  409MOL0     O55110   1.701   2.683   6.181 -0.2177 -0.7265  0.0639
  409MOL0     C55111   1.817   2.628   6.141 -0.2604  0.7826  0.0257
  409MOL0     C55112   1.888   2.537   6.212  0.4589  0.4572  0.2848
  409MOL0     C55113   2.007   2.484   6.158  0.8483 -0.4726 -0.3196
  409MOL0     C55114   2.049   2.523   6.031 -0.4072 -0.4782  0.8224
  409MOL0     O55115   2.164   2.463   5.983 -0.0096 -0.1195  0.2569
  409MOL0     C55116   2.229   2.512   5.864 -0.0390 -0.5749  0.1768
  409MOL0     C55117   2.343   2.417   5.833 -0.0462 -0.4813  0.9032
  409MOL0     C55118   2.440   2.458   5.731 -0.2041  0.0843 -0.9931
  409MOL0     C55119   2.512   2.596   5.760  1.1721 -0.6437  0.5023
  409MOL0     C55120   2.581   2.644   5.637 -0.0837 -0.5008 -0.3994
  409MOL0     C55121   2.616   2.791   5.629  0.1365 -0.2333  0.1634
  409MOL0     C55122   2.706   2.831   5.744  1.2623  0.1963  0.0465
  409MOL0     C55123   2.723   2.973   5.761  0.5381 -0.6536  0.9686
  409MOL0    Cl55124   2.807   3.037   5.609 -0.3550 -0.1254  0.0020
  409MOL0     C55125   1.982   2.628   5.961 -0.1255  0.8845  0.8819
  409MOL0     C55126   1.860   2.672   6.014  0.6465  0.1275 -0.0867
  409MOL0     O55127   1.792   2.772   6.372 -0.1247  1.1894 -0.4725
  409MOL0     C55128   1.448   2.775   6.272  0.7212 -0.1019  0.0302
  409MOL0     C55129   1.329   2.841   6.313  1.0410  0.6358 -0.2048
  409MOL0     N55130   0.827   3.393   6.431  0.3925 -0.0934 -0.3042
  409MOL0     N55131   0.707   3.391   6.379  0.3041  0.1631  0.8340
  409MOL0     C55132   0.269   4.111   5.429 -0.5570 -1.0822 -0.5937
  409MOL0     C55133   0.313   4.110   5.295 -0.2635  0.5456 -0.3471
  409MOL0     C55134   0.504   3.954   4.922  0.1342 -0.0282 -0.7769
  409MOL0     C55135   0.443   4.062   4.843 -0.6475  0.4091 -0.0854
  409MOL0     C55136   0.501   4.101   4.728  0.1317  0.4982 -0.1024
  409MOL0     C55137   0.605   4.028   4.672 -0.5707  0.4492  1.1699
  409MOL0     O55138   0.658   4.063   4.550 -0.1862  0.4268 -0.1634
  409MOL0     C55139   0.561   4.058   4.443  1.0183 -0.4713 -0.5000
  409MOL0     C55140   0.611   4.035   4.298 -1.2155  0.2123  0.3433
  409MOL0     C55141   0.636   4.169   4.234  0.6747 -0.5647  0.0748
  409MOL0     C55142   0.630   4.173   4.081  0.4687  0.6686 -0.5251
  409MOL0     C55143   0.706   4.286   4.031  0.6987 -0.6129 -0.2304
  409MOL0     C55144   0.775   4.369   3.984 -0.0080  0.2179  0.3475
  409MOL0     C55145   0.659   3.913   4.738  0.1486 -0.3669 -0.2487
  409MOL0     C55146   0.615   3.885   4.868  0.0006  0.4366  0.5925
  409MOL0     C55147   0.667   3.773   4.952  0.4433  1.0307 -0.2969
  409MOL0     H55148   0.181   3.811   5.187 -0.0881  2.3192 -4.5097
  409MOL0     H55149   0.088   3.814   5.408 -4.6948  2.2829 -2.5996
  409MOL0     H55150   0.318   4.011   5.676  0.9314 -1.1196  2.6079
  409MOL0     H55151   0.169   4.025   5.780  0.5821 -1.5334  0.4382
  409MOL0     H55152   0.273   3.784   5.617 -0.9318 -1.0478  0.3604
  409MOL0     H55153   0.131   3.785   5.719  0.5583 -0.0500  0.9704
  409MOL0     H55154   0.304   3.806   5.916  3.7900  1.0894  1.4619
  409MOL0     H55155   0.434   3.828   5.800 -0.4036  1.0384 -1.4283
  409MOL0     H55156   0.268   3.576   5.833 -0.8440  2.3116  1.6993
  409MOL0     H55157   0.408   3.583   5.723  0.1376 -3.6075  1.2182
  409MOL0     H55158   0.561   3.631   5.910  1.1278 -2.8414 -0.4221
  409MOL0     H55159   0.426   3.620   6.029  0.9154 -0.5835  0.4968
  409MOL0     H55160   0.401   3.392   5.994  0.7604 -1.8280  0.0491
  409MOL0     H55161   0.522   3.405   5.852 -0.2491  1.0096  0.8274
  409MOL0     H55162   0.703   3.407   5.999  1.2259  0.0074  1.1081
  409MOL0     H55163   0.586   3.306   6.091 -0.8983  0.0221  3.0785
  409MOL0     H55164   0.613   3.598   6.153  0.5961  0.6321  2.4794
  409MOL0     H55165   0.523   3.483   6.237  1.3213  0.7631  1.6685
  409MOL0     H55166   0.897   3.489   6.116  0.4795 -1.8039 -1.0160
  409MOL0     H55167   1.122   3.509   6.297  4.8128  0.0488  3.7038
  409MOL0     H55168   1.083   3.452   6.454  1.4582  1.9276 -0.5722
  409MOL0     H55169   1.163   3.303   6.214  3.0571  1.9611  0.1094
  409MOL0     H55170   1.237   3.289   6.370  1.0449 -2.5923 -2.5895
  409MOL0     H55171   0.954   3.184   6.309  0.5535  2.8278  0.9234
  409MOL0     H55172   1.029   3.176   6.469 -0.5632 -0.2939 -0.0495
  409MOL0     H55173   1.188   3.073   6.234 -0.1288 -2.0285  0.4068
  409MOL0     H55174   1.063   2.972   6.306 -0.4182 -0.1703 -1.0758
  409MOL0     H55175   1.449   3.059   6.529 -0.0367 -1.9151  1.1465
  409MOL0     H55176   1.656   2.952   6.465  0.4355 -0.4812 -0.2187
  409MOL0     H55177   1.854   2.495   6.306 -1.2569 -0.5596 -0.7419
  409MOL0     H55178   2.062   2.414   6.220 -3.0333 -2.9974  0.6240
  409MOL0     H55179   2.181   2.504   5.766  1.7217 -0.8558 -0.6977
  409MOL0     H55180   2.266   2.613   5.882  0.4657 -1.1480  2.8409
  409MOL0     H55181   2.396   2.389   5.924  1.5847 -2.8679 -0.6566
  409MOL0     H55182   2.299   2.320   5.806  2.1743 -1.4639  0.5927
  409MOL0     H55183   2.529   2.394   5.736  0.8308  1.4524  3.7654
  409MOL0     H55184   2.378   2.460   5.641 -1.0888 -0.3695 -0.4089
  409MOL0     H55185   2.573   2.598   5.850  2.7519 -0.5260 -0.5285
  409MOL0     H55186   2.442   2.674   5.791  2.4031 -0.0375  1.8463
  409MOL0     H55187   2.519   2.640   5.547 -1.9950 -3.2272  0.8941
  409MOL0     H55188   2.676   2.591   5.626  1.3465  1.1140  2.7122
  409MOL0     H55189   2.669   2.821   5.538  0.5050 -1.6774 -0.1287
  409MOL0     H55190   2.521   2.845   5.630 -0.2714 -0.9192 -0.4173
  409MOL0     H55191   2.797   2.772   5.730  1.7739  0.2416  2.6381
  409MOL0     H55192   2.669   2.799   5.842  2.5679 -1.6969 -0.0284
  409MOL0     H55193   2.628   3.027   5.756  0.4879 -0.8632 -1.1600
  409MOL0     H55194   2.776   3.002   5.852  0.0816  0.4076  0.9194
  409MOL0     H55195   2.022   2.650   5.863  3.2146  3.1389  2.5525
  409MOL0     H55196   1.803   2.748   5.961  0.5992 -0.5605 -1.0509
  409MOL0     H55197   1.458   2.709   6.186  2.3813 -1.1992  0.9951
  409MOL0     H55198   1.234   2.825   6.264  1.4069  1.9026 -1.3987
  409MOL0     H55199   0.288   4.192   5.498 -3.1822 -1.2582  0.4516
  409MOL0     H55200   0.376   4.185   5.248  0.5393  0.5260  0.6574
  409MOL0     H55201   0.361   4.122   4.880 -1.4896 -0.3003 -0.7761
  409MOL0     H55202   0.457   4.187   4.679  1.6941  0.3170 -1.9286
  409MOL0     H55203   0.507   4.153   4.448  0.9328 -0.4807 -1.1802
  409MOL0     H55204   0.482   3.988   4.471  1.4173 -0.2660  1.2414
  409MOL0     H55205   0.538   3.982   4.236 -0.5921  0.8799 -1.0139
  409MOL0     H55206   0.703   3.975   4.303 -0.8976  0.7837  1.4816
  409MOL0     H55207   0.736   4.202   4.261  0.0450  0.8325  0.8391
  409MOL0     H55208   0.564   4.242   4.274 -0.7468  0.3490 -3.6758
  409MOL0     H55209   0.682   4.081   4.054  0.2561  1.4674 -4.1655
  409MOL0     H55210   0.532   4.185   4.033 -0.5136 -0.1338  1.1849
  409MOL0     H55211   0.847   4.440   3.948 -1.7990  1.8538 -0.2001
  409MOL0     H55212   0.728   3.848   4.687  1.0081  1.2772 -1.2701
  409MOL0     H55213   0.691   3.796   5.056 -0.8096 -2.8614  1.0263
  409MOL0     H55214   0.579   3.707   4.956  0.2879  1.3058  1.3468
  409MOL0     H55215   0.753   3.725   4.904 -0.1498  1.0314 -1.3974
  410MOL0     O55216  10.405   9.578   0.552 -0.0425 -0.1494  0.4344
  410MOL0     C55217  10.326   9.654   0.602 -0.5469 -1.0180  0.1582
  410MOL0     O55218  10.305   9.659   0.739 -0.5121  0.1445  0.5346
  410MOL0     C55219  10.382   9.582   0.826 -0.9323  0.3599 -0.0725
  410MOL0     C55220  10.424   9.635   0.946 -0.4263  0.2946 -0.4487
  410MOL0     C55221  10.503   9.559   1.031 -0.6743 -0.0594  0.4093
  410MOL0     C55222  10.546   9.424   1.005  0.0398 -0.1157 -0.0205
  410MOL0     O55223  10.643   9.374   1.072 -0.8938 -0.2783 -1.0959
  410MOL0     C55224  10.661   9.233   1.082 -0.9417  0.1440  0.2410
  410MOL0     C55225  10.789   9.213   1.182  1.5845  0.1939  0.6428
  410MOL0     C55226  10.922   9.290   1.146  0.1320  0.7214 -0.8265
  410MOL0     C55227  10.999   9.225   1.023 -0.6053  0.3786  0.1966
  410MOL0     C55228  11.081   9.329   0.956  0.5880  0.1791 -0.3410
  410MOL0     C55229  10.991   9.419   0.856 -0.1149 -0.2682 -0.2467
  410MOL0     C55230  11.079   9.480   0.748 -0.2793  0.7021 -0.1324
  410MOL0     C55231  11.140   9.609   0.812 -0.0124 -0.0154 -0.2993
  410MOL0     N55232  11.276   9.643   0.764  0.2105  0.8160 -0.1433
  410MOL0     C55233  11.389   9.587   0.812  0.7220  0.6302 -0.1032
  410MOL0     C55234  11.482   9.647   0.735 -0.0161 -0.3036  0.5929
  410MOL0     C55235  11.633   9.634   0.735  0.5604 -1.1245  0.3786
  410MOL0     C55236  11.709   9.604   0.608  0.0034  0.5559  1.1387
  410MOL0     C55237  11.682   9.459   0.559 -1.0732  1.5665 -0.6141
  410MOL0     C55238  11.725   9.437   0.413  0.3318  0.5680 -0.3968
  410MOL0     O55239  11.831   9.335   0.397 -0.1428 -0.2341 -0.4768
  410MOL0     C55240  11.970   9.367   0.412  0.2236  0.5727  0.8251
  410MOL0     C55241  12.045   9.251   0.423  0.2682 -0.2167 -0.0387
  410MOL0     C55242  12.188   9.259   0.436  0.7942  0.6694 -0.1334
  410MOL0     C55243  12.239   9.388   0.450 -0.4386  0.3451 -0.4761
  410MOL0     C55244  12.386   9.408   0.477 -0.1836 -0.3934 -0.7259
  410MOL0     O55245  12.463   9.310   0.523  0.8902 -0.0792  0.5092
  410MOL0     C55246  12.589   9.337   0.575 -0.0677 -0.5450 -0.3616
  410MOL0     C55247  12.683   9.440   0.535 -0.0071  0.2577 -0.1159
  410MOL0     C55248  12.813   9.442   0.593 -0.9866 -0.6401  0.3487
  410MOL0     C55249  12.842   9.361   0.709  0.7538 -0.5786  0.6238
  410MOL0     O55250  12.964   9.351   0.762  0.3544 -0.2627 -0.6686
  410MOL0     C55251  13.062   9.454   0.720 -0.3675 -1.2551 -0.4878
  410MOL0     C55252  13.209   9.440   0.777  1.0308  0.2756 -0.0124
  410MOL0     C55253  13.219   9.461   0.921  0.0061 -0.2219  0.0586
  410MOL0     C55254  13.345   9.520   0.970 -0.2147  1.0805  0.0609
  410MOL0     C55255  13.453   9.410   0.972 -0.0960 -0.5359  0.1291
  410MOL0     C55256  13.596   9.462   0.974 -0.0093 -0.7174  0.1002
  410MOL0     C55257  13.635   9.520   1.113 -1.0859 -1.0170  0.1512
  410MOL0     C55258  13.764   9.603   1.113  1.7862 -0.1551 -0.0103
  410MOL0    Cl55259  13.755   9.693   1.264  0.2488  0.1190  0.3202
  410MOL0     C55260  12.746   9.271   0.751  0.1806 -0.3178 -0.3821
  410MOL0     C55261  12.634   9.253   0.676 -0.0353  0.6277 -0.5516
  410MOL0     O55262  12.422   9.530   0.476  0.0425 -0.4045  0.6659
  410MOL0     C55263  12.155   9.505   0.436  0.4722 -0.7725 -0.4318
  410MOL0     C55264  12.022   9.493   0.418  0.0001 -0.9881  0.3039
  410MOL0     N55265  11.422   9.715   0.629  0.3983 -0.8387  0.6069
  410MOL0     N55266  11.298   9.716   0.651  0.9393 -0.6962  0.2496
  410MOL0     C55267  10.474   9.364   0.900 -0.2248  0.7068 -0.0271
  410MOL0     C55268  10.399   9.445   0.807  0.0831  0.3515  0.3997
  410MOL0     C55269  10.235   9.730   0.511  0.4782 -0.0329 -0.0064
  410MOL0     C55270  10.088   9.712   0.537 -0.2374 -0.4223  0.0585
  410MOL0     C55271   9.986   9.763   0.457 -0.5379 -0.1463  0.0772
  410MOL0     C55272  10.020   9.849   0.355 -1.0076  0.2704  1.3754
  410MOL0     O55273   9.919   9.927   0.304  0.2830  0.3499 -0.1566
  410MOL0     C55274   9.929  10.026   0.205 -0.4587  0.2740 -0.7844
  410MOL0     C55275  10.009  10.151   0.246  0.6638 -0.2766  0.5085
  410MOL0     C55276   9.990  10.274   0.159 -0.2845 -0.9849  0.1464
  410MOL0     C55277  10.069  10.278   0.029  0.2724 -0.9494 -0.1740
  410MOL0     C55278  10.211  10.290   0.046 -0.2541  0.0027  0.0213
  410MOL0     C55279  10.332  10.293   0.053  0.0740  0.0205  0.1846
  410MOL0     C55280  10.159   9.865   0.323 -0.9116  0.7860  0.3272
  410MOL0     C55281  10.265   9.803   0.392  0.3375  0.2813  0.1858
  410MOL0     C55282  10.420   9.823   0.369  0.3587 -0.1122 -0.2732
  410MOL0     H55283  10.402   9.737   0.974 -0.5792  0.0821  0.2294
  410MOL0     H55284  10.558   9.614   1.107 -1.0755 -1.7487  2.0025
  410MOL0     H55285  10.569   9.184   1.113 -2.2254  1.1068 -1.7914
  410MOL0     H55286  10.684   9.194   0.982 -1.7267  1.6224 -0.5558
  410MOL0     H55287  10.821   9.109   1.189  1.5337  0.2863  2.6039
  410MOL0     H55288  10.766   9.258   1.279 -2.1366  0.2376 -0.1296
  410MOL0     H55289  10.992   9.295   1.231  1.3908 -0.2127 -1.7713
  410MOL0     H55290  10.898   9.393   1.118 -4.8506  0.0760  0.1232
  410MOL0     H55291  11.064   9.148   1.065  0.4518  0.3614 -1.3745
  410MOL0     H55292  10.931   9.185   0.948  2.8948 -1.6089 -2.1658
  410MOL0     H55293  11.132   9.389   1.031  0.6307 -1.5307  1.0660
  410MOL0     H55294  11.160   9.274   0.903  3.0573  3.0300  0.1629
  410MOL0     H55295  10.914   9.359   0.807  1.2896 -1.7520 -0.7103
  410MOL0     H55296  10.937   9.498   0.910 -0.7130 -0.0791 -1.0980
  410MOL0     H55297  11.033   9.509   0.653  2.3819  2.2072 -1.0943
  410MOL0     H55298  11.157   9.410   0.715 -0.9241 -0.3945  0.6273
  410MOL0     H55299  11.079   9.699   0.797  1.5419  1.2425  0.6342
  410MOL0     H55300  11.147   9.599   0.920 -1.7617  0.2457 -0.1257
  410MOL0     H55301  11.402   9.506   0.883  3.0020  0.1075 -1.0433
  410MOL0     H55302  11.674   9.724   0.781  0.7846 -2.4069  2.8343
  410MOL0     H55303  11.657   9.556   0.807 -3.4162 -0.0970  3.1098
  410MOL0     H55304  11.674   9.666   0.526  2.8392 -1.4758 -1.8260
  410MOL0     H55305  11.817   9.615   0.616  0.1606  0.9569 -1.1363
  410MOL0     H55306  11.576   9.437   0.549 -0.6086 -1.2524 -0.0931
  410MOL0     H55307  11.737   9.397   0.630 -0.2502  0.1641 -2.3976
  410MOL0     H55308  11.752   9.534   0.369  4.2410 -0.3606 -0.4448
  410MOL0     H55309  11.639   9.399   0.357  0.0561 -1.4259  1.2657
  410MOL0     H55310  11.998   9.157   0.397  1.1344 -0.1586 -2.0083
  410MOL0     H55311  12.257   9.175   0.444  1.4768  1.3384  1.5206
  410MOL0     H55312  12.672   9.493   0.441  1.4360  0.5511 -0.1324
  410MOL0     H55313  12.888   9.504   0.544 -1.8668  0.3943  0.2774
  410MOL0     H55314  13.070   9.452   0.611  0.8917 -0.5881 -0.4178
  410MOL0     H55315  13.022   9.551   0.754  1.3489  0.0968 -2.0960
  410MOL0     H55316  13.257   9.345   0.749 -0.7558 -0.5782 -0.3816
  410MOL0     H55317  13.256   9.523   0.724 -1.0060  1.9881  0.7016
  410MOL0     H55318  13.144   9.528   0.963  1.0624  1.0138  0.0347
  410MOL0     H55319  13.194   9.363   0.964  1.9141 -0.6586  0.2540
  410MOL0     H55320  13.326   9.550   1.073 -0.2780 -2.0328  1.0643
  410MOL0     H55321  13.385   9.596   0.902  2.3129 -0.4517 -0.2833
  410MOL0     H55322  13.441   9.350   0.882 -1.8001 -2.4891  1.5700
  410MOL0     H55323  13.439   9.337   1.052 -2.7315  0.3339  0.5662
  410MOL0     H55324  13.676   9.389   0.959  1.7594  0.4645  2.9571
  410MOL0     H55325  13.613   9.536   0.896  1.2805  0.0454  1.0587
  410MOL0     H55326  13.641   9.436   1.183 -2.3099 -0.1350  1.3604
  410MOL0     H55327  13.555   9.588   1.144 -0.7802 -0.7979  0.4579
  410MOL0     H55328  13.862   9.556   1.098  3.4176  2.7440  0.8268
  410MOL0     H55329  13.748   9.673   1.030 -0.9054 -1.2452 -0.5092
  410MOL0     H55330  12.788   9.228   0.842  1.4235  1.7068  0.0834
  410MOL0     H55331  12.567   9.169   0.697  0.5577 -0.1786 -1.7538
  410MOL0     H55332  12.193   9.606   0.443 -0.2919 -0.6028  2.0115
  410MOL0     H55333  11.963   9.582   0.398  0.9357 -0.7989 -1.9449
  410MOL0     H55334  10.490   9.259   0.883 -2.8722  0.4020 -1.1959
  410MOL0     H55335  10.378   9.400   0.711 -0.6173 -0.2898  0.8405
  410MOL0     H55336  10.060   9.660   0.628 -2.3697 -0.0075 -0.3191
  410MOL0     H55337   9.879   9.750   0.476 -0.9497 -1.6118 -2.6952
  410MOL0     H55338   9.826  10.055   0.186 -0.4342  1.2782  0.5480
  410MOL0     H55339   9.978   9.979   0.119 -2.3622 -0.8436 -1.3081
  410MOL0     H55340  10.114  10.125   0.261  1.1592  2.0881  1.5341
  410MOL0     H55341   9.974  10.191   0.341 -0.0629 -2.4359  1.2091
  410MOL0     H55342  10.028  10.358   0.219 -1.6727  0.7545 -1.3086
  410MOL0     H55343   9.882  10.280   0.149 -0.7778 -1.4541  3.7085
  410MOL0     H55344  10.049  10.177  -0.006  0.0182 -0.7609 -0.5699
  410MOL0     H55345  10.022  10.354  -0.034 -2.1549 -1.6306  0.6929
  410MOL0     H55346  10.439  10.297   0.053  0.0865 -0.3173 -0.0006
  410MOL0     H55347  10.177   9.935   0.242 -2.7936  1.2053  0.2220
  410MOL0     H55348  10.454   9.875   0.459  2.5355 -2.4960  0.3939
  410MOL0     H55349  10.474   9.728   0.361  1.4076  0.5809 -1.7547
  410MOL0     H55350  10.442   9.873   0.274  1.2670 -3.4175 -1.9903
  411MOL0     O55351   8.940  10.577   8.531 -0.0494  0.7105 -0.0917
  411MOL0     C55352   9.013  10.471   8.533  0.4172  0.5248  0.3169
  411MOL0     O55353   9.109  10.441   8.629  0.8493 -0.0484  0.0209
  411MOL0     C55354   9.129  10.535   8.727  0.1542 -0.1255 -0.1464
  411MOL0     C55355   9.177  10.663   8.709  1.2372 -1.1091  1.1234
  411MOL0     C55356   9.226  10.746   8.813 -0.2577 -0.4066  0.2373
  411MOL0     C55357   9.208  10.702   8.943 -0.4730 -0.5734 -0.5430
  411MOL0     O55358   9.252  10.790   9.033 -1.3086 -1.0694 -0.2267
  411MOL0     C55359   9.314  10.748   9.154 -0.4846  1.0177 -0.5295
  411MOL0     C55360   9.390  10.868   9.209 -0.0145 -0.0875 -0.1944
  411MOL0     C55361   9.486  10.839   9.332 -0.1915  0.3177 -0.0438
  411MOL0     C55362   9.630  10.811   9.283  0.8446  0.3036  0.1352
  411MOL0     C55363   9.728  10.828   9.402  0.6003 -0.1696 -0.1492
  411MOL0     C55364   9.867  10.833   9.354 -0.4619 -0.6480 -1.0984
  411MOL0     C55365   9.901  10.949   9.263  0.0753  0.1283  0.9385
  411MOL0     C55366  10.048  10.986   9.291 -0.0135 -0.2334  0.2512
  411MOL0     N55367  10.106  11.078   9.186 -0.2147  0.7003 -0.0803
  411MOL0     C55368  10.064  11.206   9.153 -0.0599 -0.1497  0.2317
  411MOL0     C55369  10.151  11.242   9.055 -0.4574  0.4241  0.1225
  411MOL0     C55370  10.144  11.374   8.987 -0.2631  1.0710 -0.6288
  411MOL0     C55371  10.120  11.379   8.836 -0.2213 -0.3551  0.1631
  411MOL0     C55372  10.002  11.305   8.775  0.6264 -0.0827 -0.1397
  411MOL0     C55373  10.024  11.143   8.766  1.1433 -0.0722  1.0590
  411MOL0     O55374   9.939  11.097   8.657 -0.0661 -0.0953 -0.0990
  411MOL0     C55375   9.799  11.085   8.655 -0.1373  0.1474  0.3179
  411MOL0     C55376   9.720  11.101   8.773 -0.3613  0.3404 -0.4746
  411MOL0     C55377   9.581  11.094   8.747 -0.7078 -0.4192  0.7538
  411MOL0     C55378   9.524  11.094   8.618 -0.0098 -0.3236 -0.5583
  411MOL0     C55379   9.385  11.120   8.611  0.8758 -1.1046  0.5562
  411MOL0     O55380   9.327  11.079   8.497 -0.6696 -0.8821 -0.7344
  411MOL0     C55381   9.193  11.085   8.472  0.1493 -0.2236  0.3325
  411MOL0     C55382   9.158  11.187   8.388 -0.0140 -0.2724 -0.2668
  411MOL0     C55383   9.027  11.207   8.361 -0.5783 -0.5423 -0.5530
  411MOL0     C55384   8.928  11.137   8.428  0.6806 -0.0271 -0.0998
  411MOL0     O55385   8.799  11.181   8.412  1.0286 -0.2201  0.0739
  411MOL0     C55386   8.688  11.104   8.473  0.0749 -0.7439  0.7572
  411MOL0     C55387   8.562  11.175   8.424 -0.6776 -0.3777  0.1990
  411MOL0     C55388   8.542  11.143   8.272 -0.6596  0.1769 -0.2905
  411MOL0     C55389   8.445  11.248   8.222  0.4354  0.9861  0.5115
  411MOL0     C55390   8.389  11.205   8.081  0.5212  0.1239  0.2332
  411MOL0     C55391   8.343  11.327   8.005  0.1315 -0.1449 -0.0248
  411MOL0     C55392   8.303  11.282   7.857  0.0086 -0.3223 -0.8080
  411MOL0     C55393   8.422  11.270   7.762 -0.3370  0.0478  0.3922
  411MOL0    Cl55394   8.438  11.096   7.717  0.3515  0.2509 -0.2831
  411MOL0     C55395   8.957  11.036   8.517  0.6574 -0.2299 -0.1163
  411MOL0     C55396   9.095  11.006   8.534  0.5087 -0.4562  0.4582
  411MOL0     O55397   9.320  11.164   8.711 -0.5836  0.1380  0.6573
  411MOL0     C55398   9.610  11.080   8.510 -0.3417 -0.7530 -0.6920
  411MOL0     C55399   9.745  11.065   8.535  0.1032  0.2054  1.3194
  411MOL0     N55400  10.229  11.133   9.025  0.0987 -0.1039 -0.1037
  411MOL0     N55401  10.204  11.033   9.107 -0.2788 -0.6658  0.8815
  411MOL0     C55402   9.153  10.577   8.966  0.4966 -0.0024  0.1661
  411MOL0     C55403   9.124  10.491   8.856 -0.4781 -0.8777 -0.5844
  411MOL0     C55404   9.007  10.365   8.422 -0.2043 -0.5538 -0.1881
  411MOL0     C55405   9.103  10.261   8.425 -0.7873  1.4763  0.6150
  411MOL0     C55406   9.107  10.165   8.325  0.2284  0.0604  0.6304
  411MOL0     C55407   9.023  10.165   8.211 -0.3228  0.4462  0.3219
  411MOL0     O55408   9.036  10.073   8.102  0.3762 -1.6598 -0.0689
  411MOL0     C55409   9.161  10.082   8.046 -0.2971  0.1582  0.6519
  411MOL0     C55410   9.147  10.100   7.900  0.0955  0.6495  0.3879
  411MOL0     C55411   9.284  10.122   7.827 -0.2858  0.2920  0.4244
  411MOL0     C55412   9.273  10.232   7.713 -0.1723 -0.0125 -0.4405
  411MOL0     C55413   9.284  10.370   7.763 -0.7985  0.0043 -0.0578
  411MOL0     C55414   9.305  10.479   7.814  0.1340  0.3325 -0.5661
  411MOL0     C55415   8.936  10.274   8.206  0.3979  0.3543 -0.0161
  411MOL0     C55416   8.922  10.374   8.305 -0.5940  0.1029  0.3334
  411MOL0     C55417   8.827  10.473   8.286  0.8342  0.4005  0.2667
  411MOL0     H55418   9.200  10.700   8.610  1.2913 -1.1689  1.1139
  411MOL0     H55419   9.287  10.835   8.803 -0.7663 -0.1814 -0.9951
  411MOL0     H55420   9.242  10.720   9.232  1.1052 -2.2373 -0.0473
  411MOL0     H55421   9.385  10.665   9.145 -1.0114  0.6721 -1.5785
  411MOL0     H55422   9.309  10.937   9.232 -2.8758 -2.5609 -2.1459
  411MOL0     H55423   9.448  10.913   9.127 -0.9975 -2.2650 -2.1875
  411MOL0     H55424   9.452  10.762   9.402  0.3485  0.0830 -0.0339
  411MOL0     H55425   9.503  10.933   9.385  0.4646  1.1673 -1.6762
  411MOL0     H55426   9.633  10.707   9.248 -0.9966  0.3074 -0.1263
  411MOL0     H55427   9.647  10.874   9.196  1.0593 -1.8663 -1.5030
  411MOL0     H55428   9.716  10.911   9.473  0.9466 -0.4024  0.1901
  411MOL0     H55429   9.704  10.738   9.459 -3.3045 -0.2895 -1.6759
  411MOL0     H55430   9.934  10.826   9.440  0.3710 -2.0687 -1.8245
  411MOL0     H55431   9.884  10.739   9.301 -0.5221 -2.0635  1.2713
  411MOL0     H55432   9.840  11.039   9.271 -1.6129 -0.9833  1.1367
  411MOL0     H55433   9.885  10.904   9.164  1.6122  2.8364 -0.6596
  411MOL0     H55434  10.045  11.048   9.380  2.5200 -0.6963  0.7327
  411MOL0     H55435  10.114  10.900   9.305 -1.5476 -1.7342 -1.1966
  411MOL0     H55436   9.990  11.271   9.198 -0.8474 -0.4982 -0.5443
  411MOL0     H55437  10.076  11.438   9.045  1.9549  2.3034  0.7351
  411MOL0     H55438  10.241  11.411   9.020 -0.0648 -1.1362  1.5574
  411MOL0     H55439  10.133  11.483   8.806  1.4143 -0.0142  1.8615
  411MOL0     H55440  10.204  11.333   8.785 -1.7639 -0.8148 -2.0937
  411MOL0     H55441   9.996  11.350   8.676  0.1204 -1.6907 -0.8774
  411MOL0     H55442   9.912  11.324   8.833  0.8204 -1.7072  0.7504
  411MOL0     H55443   9.997  11.094   8.860 -3.3813 -4.7024 -2.1557
  411MOL0     H55444  10.127  11.119   8.739  1.1132 -2.2749  2.6957
  411MOL0     H55445   9.763  11.128   8.869  2.2293 -2.8158 -0.6084
  411MOL0     H55446   9.511  11.123   8.825 -3.3119  0.9097 -1.8853
  411MOL0     H55447   9.237  11.239   8.335 -1.0109 -2.0012 -3.7884
  411MOL0     H55448   9.001  11.297   8.307 -0.4490  0.3010  0.7384
  411MOL0     H55449   8.696  11.006   8.424  1.0631 -0.4097  0.2263
  411MOL0     H55450   8.693  11.100   8.582  1.9839 -4.2126  0.6696
  411MOL0     H55451   8.479  11.138   8.485 -0.0947  0.1209  1.3235
  411MOL0     H55452   8.566  11.283   8.441  0.3027 -0.9461  4.8528
  411MOL0     H55453   8.633  11.136   8.212 -0.7505 -0.1244 -0.3976
  411MOL0     H55454   8.503  11.041   8.270 -0.0712 -0.1389  1.6290
  411MOL0     H55455   8.488  11.348   8.210  1.2566  0.4759 -1.2477
  411MOL0     H55456   8.360  11.267   8.288 -0.4174  0.6186 -0.4543
  411MOL0     H55457   8.311  11.128   8.091  1.6828 -0.9080  1.8880
  411MOL0     H55458   8.465  11.155   8.020 -0.3926  0.1576 -0.9805
  411MOL0     H55459   8.267  11.377   8.066 -0.6454 -0.8275 -0.4174
  411MOL0     H55460   8.423  11.399   7.986  0.2591 -0.7972 -2.1399
  411MOL0     H55461   8.229  11.351   7.815  1.0887  0.9549 -0.6712
  411MOL0     H55462   8.252  11.185   7.858  1.3261 -1.0385  0.3720
  411MOL0     H55463   8.418  11.333   7.673 -1.0723  1.4371  1.3667
  411MOL0     H55464   8.511  11.309   7.813 -1.4594  2.4748  0.6430
  411MOL0     H55465   8.879  10.985   8.573 -0.5885 -0.8008 -2.2779
  411MOL0     H55466   9.114  10.915   8.590  0.9641  1.2719  3.3134
  411MOL0     H55467   9.576  11.079   8.407 -1.1734 -0.2006 -0.4392
  411MOL0     H55468   9.809  11.046   8.450  2.4973  0.6546  2.9182
  411MOL0     H55469   9.122  10.538   9.062 -4.9430 -1.3031 -1.7451
  411MOL0     H55470   9.091  10.392   8.884  0.7696 -0.8407  1.1618
  411MOL0     H55471   9.177  10.245   8.503  0.1113  1.7930 -0.1544
  411MOL0     H55472   9.179  10.086   8.308 -3.7649 -4.0280  0.5763
  411MOL0     H55473   9.216   9.991   8.069  0.5694  0.1226 -1.3923
  411MOL0     H55474   9.220  10.166   8.083 -0.3271 -0.2278  1.6008
  411MOL0     H55475   9.082  10.185   7.879 -0.6467  0.7641  2.8658
  411MOL0     H55476   9.086  10.013   7.873  2.0150 -0.8159  0.5255
  411MOL0     H55477   9.306  10.029   7.774 -1.2849  0.4957 -0.3773
  411MOL0     H55478   9.362  10.135   7.903 -1.0190  0.8330  1.0983
  411MOL0     H55479   9.363  10.213   7.653  1.8244 -3.8759  3.2037
  411MOL0     H55480   9.183  10.215   7.655  0.0833  0.8427 -1.1098
  411MOL0     H55481   9.323  10.583   7.834  0.6049  0.2461 -0.5300
  411MOL0     H55482   8.870  10.275   8.120  2.2840 -1.2449 -1.6027
  411MOL0     H55483   8.772  10.486   8.380  1.9110 -4.2055  1.7978
  411MOL0     H55484   8.870  10.570   8.262 -0.4630  1.2474  1.2628
  411MOL0     H55485   8.754  10.431   8.216  2.0052 -0.9315 -0.2131
  412MOL0     O55486   8.420   8.060   2.068 -0.7370  0.4005  0.1666
  412MOL0     C55487   8.401   8.120   2.171  1.0747 -1.0378  0.3231
  412MOL0     O55488   8.465   8.102   2.292  0.3948 -0.3652 -0.7799
  412MOL0     C55489   8.570   8.022   2.303 -0.1204 -0.2055  0.4048
  412MOL0     C55490   8.677   8.028   2.221  0.4544  0.3645 -0.0632
  412MOL0     C55491   8.777   7.932   2.230  0.1884  0.3558 -0.0001
  412MOL0     C55492   8.787   7.835   2.325 -0.0602 -0.6967  0.2930
  412MOL0     O55493   8.893   7.742   2.347 -0.4687  0.4957  0.6108
  412MOL0     C55494   9.000   7.733   2.243  0.3531  0.4311 -0.9409
  412MOL0     C55495   9.127   7.698   2.318  0.3777  0.3103  0.2265
  412MOL0     C55496   9.110   7.576   2.421 -1.1016  0.0870  0.5429
  412MOL0     C55497   9.249   7.518   2.438 -0.1676 -0.4013  0.3399
  412MOL0     C55498   9.247   7.382   2.505 -0.8207  0.3315 -0.3270
  412MOL0     C55499   9.392   7.330   2.525 -0.1148  0.6700 -0.3577
  412MOL0     C55500   9.395   7.181   2.559  1.1755 -0.6688  0.5019
  412MOL0     C55501   9.535   7.118   2.586 -0.4979  0.7631  1.0241
  412MOL0     N55502   9.511   6.969   2.615  0.0383  0.4060  0.3197
  412MOL0     C55503   9.586   6.867   2.552  0.2056 -0.2745  0.1937
  412MOL0     C55504   9.578   6.776   2.651  0.0601  0.6396  0.0782
  412MOL0     C55505   9.661   6.651   2.635 -0.4621  0.4059 -0.3809
  412MOL0     C55506   9.803   6.691   2.665 -0.8663 -0.6204 -0.0317
  412MOL0     C55507   9.893   6.563   2.679 -0.3002 -0.3800 -0.4493
  412MOL0     C55508  10.029   6.603   2.754 -0.2512 -0.2160  0.1832
  412MOL0     O55509  10.015   6.607   2.897  1.0975 -0.4672  0.5419
  412MOL0     C55510  10.144   6.599   2.960  0.4699  0.1370 -0.0447
  412MOL0     C55511  10.272   6.584   2.891 -0.1827  0.4646 -0.1573
  412MOL0     C55512  10.393   6.579   2.962  0.0315 -1.0578 -0.1018
  412MOL0     C55513  10.393   6.598   3.102  0.2874 -0.4061  0.3549
  412MOL0     C55514  10.519   6.595   3.186  0.3102  0.1357  0.9904
  412MOL0     O55515  10.502   6.619   3.320 -0.4655 -0.8821 -0.3904
  412MOL0     C55516  10.602   6.603   3.394 -0.5996 -0.5409 -0.3777
  412MOL0     C55517  10.627   6.693   3.493 -0.6461 -0.5825 -1.4317
  412MOL0     C55518  10.740   6.676   3.583 -0.2144 -0.3140 -0.8874
  412MOL0     C55519  10.838   6.585   3.563  0.2749  0.2003 -0.4446
  412MOL0     O55520  10.956   6.588   3.624 -0.4748  0.9295 -0.3698
  412MOL0     C55521  10.998   6.713   3.681 -0.5874 -0.0935 -0.1735
  412MOL0     C55522  11.134   6.695   3.745 -0.1997 -0.2322 -0.5269
  412MOL0     C55523  11.159   6.597   3.865  0.8764 -0.0228 -0.0243
  412MOL0     C55524  11.076   6.658   3.984 -0.1090  1.0913  0.1789
  412MOL0     C55525  11.089   6.584   4.122  0.3058  0.0934  0.1786
  412MOL0     C55526  11.035   6.437   4.108 -0.2445 -0.2629  0.2341
  412MOL0     C55527  10.982   6.376   4.232 -0.3130 -0.8396  0.6837
  412MOL0     C55528  10.933   6.241   4.211  0.3657  0.1585  0.4721
  412MOL0    Cl55529  10.922   6.172   4.375 -0.3491 -0.3364 -0.1374
  412MOL0     C55530  10.816   6.498   3.450  0.5590  0.9807 -1.0896
  412MOL0     C55531  10.685   6.488   3.384  0.2010  0.2819  0.1117
  412MOL0     O55532  10.627   6.582   3.126 -0.5279 -0.7428  0.7397
  412MOL0     C55533  10.278   6.628   3.165  0.5656  0.2019  0.2440
  412MOL0     C55534  10.149   6.619   3.096  0.4617  0.1168 -0.3798
  412MOL0     N55535   9.474   6.795   2.741  0.7004  0.0617 -0.4053
  412MOL0     N55536   9.436   6.917   2.721 -0.2011 -0.2653 -0.2457
  412MOL0     C55537   8.677   7.830   2.413 -0.9918  0.9139  0.1164
  412MOL0     C55538   8.568   7.921   2.398  0.3914 -0.7282  0.2238
  412MOL0     C55539   8.288   8.229   2.178 -0.4681  0.1829 -0.6298
  412MOL0     C55540   8.222   8.248   2.298  0.4761  0.1017 -0.2434
  412MOL0     C55541   8.109   8.335   2.308 -0.4628  0.8397 -0.1829
  412MOL0     C55542   8.075   8.419   2.204  0.5959 -0.3573  0.1599
  412MOL0     O55543   7.981   8.520   2.205 -1.0262 -0.4621 -0.1624
  412MOL0     C55544   7.944   8.583   2.330 -1.2301 -0.7274  0.0482
  412MOL0     C55545   8.045   8.681   2.395 -0.8320  0.2902 -1.1673
  412MOL0     C55546   7.976   8.754   2.517  0.0097 -0.6177  0.4114
  412MOL0     C55547   8.060   8.885   2.552  0.0455  0.6625 -0.2198
  412MOL0     C55548   7.990   8.971   2.643  0.6507  0.3665 -0.2930
  412MOL0     C55549   7.929   9.043   2.720 -0.4855  0.2377 -0.2357
  412MOL0     C55550   8.133   8.400   2.079 -0.0954 -0.0174 -0.5333
  412MOL0     C55551   8.238   8.303   2.061 -0.0677  0.3964  0.1527
  412MOL0     C55552   8.293   8.296   1.920  0.3713 -1.6095 -0.4511
  412MOL0     H55553   8.669   8.105   2.145  4.3299  3.8812  2.6679
  412MOL0     H55554   8.846   7.955   2.149 -1.5658 -0.2629 -1.7401
  412MOL0     H55555   8.982   7.648   2.176 -4.6383 -1.2057  1.9092
  412MOL0     H55556   9.012   7.822   2.181 -0.6797 -2.0062 -5.0364
  412MOL0     H55557   9.156   7.790   2.368 -0.5051  0.3891  0.6076
  412MOL0     H55558   9.204   7.664   2.248  1.5299 -0.4580  1.8087
  412MOL0     H55559   9.058   7.499   2.362  1.0764  0.6801 -2.4210
  412MOL0     H55560   9.057   7.590   2.515 -3.2139  0.1304 -0.5939
  412MOL0     H55561   9.298   7.503   2.341  0.2204  3.6869 -0.2698
  412MOL0     H55562   9.314   7.587   2.492 -1.7375  1.3092  0.1154
  412MOL0     H55563   9.200   7.385   2.604  3.8163  1.1634  2.1022
  412MOL0     H55564   9.187   7.323   2.435 -1.3941  2.9908 -2.2450
  412MOL0     H55565   9.447   7.333   2.431  5.3417 -3.6179  2.0490
  412MOL0     H55566   9.459   7.385   2.592 -0.0195  0.0771  0.0500
  412MOL0     H55567   9.349   7.124   2.478  1.2205  0.4175 -0.3070
  412MOL0     H55568   9.339   7.171   2.653  0.3472  4.5680  0.8314
  412MOL0     H55569   9.598   7.140   2.499 -0.7305 -3.3609 -0.4053
  412MOL0     H55570   9.573   7.155   2.681 -1.2740 -0.0851  1.6804
  412MOL0     H55571   9.660   6.879   2.473  0.1899 -1.6230 -0.0494
  412MOL0     H55572   9.633   6.598   2.726  3.1291 -0.4102  0.4276
  412MOL0     H55573   9.645   6.589   2.546  0.6772 -1.7612  0.8470
  412MOL0     H55574   9.828   6.753   2.578  1.8736  0.5401  1.4610
  412MOL0     H55575   9.810   6.760   2.750  0.5483 -1.8342  0.8784
  412MOL0     H55576   9.916   6.523   2.579  0.3529 -0.5268 -0.2401
  412MOL0     H55577   9.836   6.497   2.744  1.3397 -1.3805  0.0234
  412MOL0     H55578  10.073   6.687   2.699  4.4157 -1.5569  1.4562
  412MOL0     H55579  10.090   6.516   2.728 -1.4153 -0.9252 -0.2648
  412MOL0     H55580  10.287   6.566   2.785  1.2979  0.6580 -0.0076
  412MOL0     H55581  10.485   6.545   2.916  1.5556  1.6766  0.7041
  412MOL0     H55582  10.562   6.779   3.509  2.1753  1.4014  0.3882
  412MOL0     H55583  10.746   6.742   3.668  2.7432 -1.9697  0.3608
  412MOL0     H55584  11.011   6.788   3.603 -1.3327 -0.2227 -0.4374
  412MOL0     H55585  10.931   6.771   3.746 -0.7112  1.9673 -2.0495
  412MOL0     H55586  11.209   6.669   3.670  0.1536  3.1874 -1.5417
  412MOL0     H55587  11.167   6.795   3.774  4.8059 -1.4372 -1.1290
  412MOL0     H55588  11.123   6.498   3.836  1.8911 -0.4163  0.0129
  412MOL0     H55589  11.266   6.611   3.878  0.4258  3.5268  0.9242
  412MOL0     H55590  10.974   6.676   3.949  0.5655  2.3063 -1.2990
  412MOL0     H55591  11.106   6.763   3.989  1.0580  0.7586  0.4239
  412MOL0     H55592  11.032   6.646   4.191  3.3594  2.4196  0.8402
  412MOL0     H55593  11.188   6.598   4.166 -0.7296  3.6455  1.7417
  412MOL0     H55594  10.956   6.447   4.033  0.5112  1.1115 -0.4123
  412MOL0     H55595  11.113   6.381   4.056 -0.6279  0.8689 -1.6479
  412MOL0     H55596  10.895   6.432   4.267 -0.0531  1.2471 -1.6992
  412MOL0     H55597  11.053   6.393   4.313 -0.1913 -0.5099  0.5093
  412MOL0     H55598  10.832   6.239   4.168 -0.4438 -0.7329  2.2755
  412MOL0     H55599  10.994   6.178   4.146 -2.3288 -0.4271 -1.6840
  412MOL0     H55600  10.891   6.423   3.428  0.6805  0.1668  1.6344
  412MOL0     H55601  10.662   6.416   3.307  1.1248  0.6090 -0.4784
  412MOL0     H55602  10.281   6.659   3.269 -1.3336  0.4664  0.2522
  412MOL0     H55603  10.064   6.644   3.159  0.6166  0.7921 -0.4277
  412MOL0     H55604   8.680   7.757   2.494  0.1202  1.9953  1.0855
  412MOL0     H55605   8.486   7.925   2.469  0.2434 -0.0554  0.0139
  412MOL0     H55606   8.242   8.181   2.381 -1.3416  1.5026  1.4237
  412MOL0     H55607   8.060   8.344   2.404 -1.6116  0.5744 -0.7246
  412MOL0     H55608   7.908   8.513   2.406 -0.1082 -0.0527  1.2418
  412MOL0     H55609   7.862   8.651   2.304  1.3092  2.4829 -0.0813
  412MOL0     H55610   8.091   8.760   2.335 -0.5331  0.6558 -0.4666
  412MOL0     H55611   8.126   8.622   2.439 -1.7333  0.2001  0.4502
  412MOL0     H55612   7.962   8.687   2.603 -0.7541 -2.2985 -0.9519
  412MOL0     H55613   7.875   8.778   2.483  0.2902  1.7023  1.0752
  412MOL0     H55614   8.157   8.859   2.594  1.0812  2.1080 -1.5925
  412MOL0     H55615   8.089   8.934   2.458  1.9913  0.7648  0.4027
  412MOL0     H55616   7.881   9.100   2.797 -1.3755 -0.3409 -0.3508
  412MOL0     H55617   8.105   8.461   1.993  0.9827 -0.3938 -1.1732
  412MOL0     H55618   8.219   8.343   1.855 -0.6356 -1.3622  0.8333
  412MOL0     H55619   8.390   8.345   1.927  0.8503 -2.4840 -0.7174
  412MOL0     H55620   8.310   8.191   1.894  0.4931 -3.0388  4.4302
  413MOL0     O55621   1.461   2.274   0.703  0.7471 -0.2733  0.7752
  413MOL0     C55622   1.385   2.195   0.755  0.1302  0.6013  0.2783
  413MOL0     O55623   1.382   2.064   0.723 -1.1009 -0.0437  0.0831
  413MOL0     C55624   1.459   2.023   0.613  0.2319 -0.7417 -0.2827
  413MOL0     C55625   1.389   1.932   0.526  0.4092 -0.1688 -0.1702
  413MOL0     C55626   1.467   1.891   0.425  1.3296  0.0372 -0.0985
  413MOL0     C55627   1.606   1.912   0.409 -0.3390  0.2699  0.1336
  413MOL0     O55628   1.672   1.870   0.298 -0.0055 -0.4385  0.2132
  413MOL0     C55629   1.764   1.964   0.246 -0.1315 -0.1015  1.6771
  413MOL0     C55630   1.772   1.945   0.101  0.7170 -0.4500  0.2648
  413MOL0     C55631   1.881   2.027   0.039 -0.1419 -0.5804  0.3543
  413MOL0     C55632   2.035   2.007   0.081 -0.4328 -0.1841  0.1131
  413MOL0     C55633   2.135   2.073  -0.020 -0.2668 -0.4392 -0.5304
  413MOL0     C55634   2.262   2.125   0.049  0.3523  0.5619  0.5382
  413MOL0     C55635   2.330   2.231  -0.036 -0.4748  1.1374 -0.9892
  413MOL0     C55636   2.460   2.279   0.039  0.1370 -0.0929  0.3266
  413MOL0     N55637   2.533   2.371  -0.054  1.0357  1.0321 -0.1904
  413MOL0     C55638   2.490   2.501  -0.086 -0.4932  0.9288  0.3201
  413MOL0     C55639   2.597   2.562  -0.153  0.6850 -0.5768  0.6093
  413MOL0     C55640   2.584   2.713  -0.181  0.2242 -0.6787  0.2048
  413MOL0     C55641   2.664   2.796  -0.083 -0.1182 -0.5241 -0.6889
  413MOL0     C55642   2.734   2.917  -0.151 -1.9161  0.4038 -0.9502
  413MOL0     C55643   2.814   2.992  -0.035  0.1284 -0.8826  0.2400
  413MOL0     O55644   2.909   3.080  -0.095 -0.5231  0.3114  0.6894
  413MOL0     C55645   3.023   3.029  -0.161 -0.0128 -0.9938  0.3280
  413MOL0     C55646   3.107   3.120  -0.210 -0.1810 -0.3335 -0.4140
  413MOL0     C55647   3.234   3.078  -0.263  0.1916  0.0624  0.4893
  413MOL0     C55648   3.272   2.944  -0.246 -0.9935  0.0545  0.6315
  413MOL0     C55649   3.407   2.898  -0.311  1.1450  0.6416 -0.6808
  413MOL0     O55650   3.472   2.975  -0.399  0.2152 -0.1698  0.2491
  413MOL0     C55651   3.583   2.918  -0.452  0.4101  0.7290 -0.1421
  413MOL0     C55652   3.576   2.886  -0.582 -0.3594  0.4477  1.0101
  413MOL0     C55653   3.679   2.825  -0.655  0.2462  0.1532  0.1684
  413MOL0     C55654   3.801   2.796  -0.585  0.3157 -0.4360  0.2917
  413MOL0     O55655   3.902   2.744  -0.650  0.4690 -0.1990  0.1995
  413MOL0     C55656   3.918   2.771  -0.789  0.8742  0.4735  0.9359
  413MOL0     C55657   4.041   2.712  -0.844 -0.2397 -0.0355  0.1110
  413MOL0     C55658   4.032   2.564  -0.853  0.1629  0.7503  0.2171
  413MOL0     C55659   4.151   2.493  -0.911  0.0026  0.4982  0.3251
  413MOL0     C55660   4.125   2.335  -0.927  0.2420  0.0958 -0.2903
  413MOL0     C55661   4.260   2.282  -0.976 -0.3689 -0.0487  0.4543
  413MOL0     C55662   4.269   2.302  -1.131  0.0972  0.0475 -0.7344
  413MOL0     C55663   4.415   2.274  -1.183  0.2658 -0.3550 -1.1886
  413MOL0    Cl55664   4.511   2.429  -1.135  0.0842  0.0958 -0.1272
  413MOL0     C55665   3.808   2.833  -0.450 -0.3618  0.4532 -0.2279
  413MOL0     C55666   3.703   2.889  -0.384  0.1757 -0.9991 -0.9078
  413MOL0     O55667   3.438   2.783  -0.277  0.9016  0.2542 -0.2340
  413MOL0     C55668   3.181   2.852  -0.195 -0.2810  1.0412  0.8393
  413MOL0     C55669   3.061   2.898  -0.156 -0.3766 -0.0567 -0.6105
  413MOL0     N55670   2.696   2.465  -0.170  0.8944 -0.6039 -0.2618
  413MOL0     N55671   2.659   2.353  -0.114 -0.5751  0.2645  0.2011
  413MOL0     C55672   1.669   1.989   0.506 -0.4225 -0.4712 -0.2901
  413MOL0     C55673   1.597   2.044   0.602  0.3930  0.5377 -0.3674
  413MOL0     C55674   1.315   2.250   0.875  0.1856 -0.1822 -0.7664
  413MOL0     C55675   1.282   2.389   0.879 -0.0533  1.1045  0.9479
  413MOL0     C55676   1.225   2.452   0.990  0.4440  0.6904  0.5791
  413MOL0     C55677   1.193   2.378   1.107  0.8479  0.5551  0.6380
  413MOL0     O55678   1.151   2.436   1.222 -0.1378  0.2492 -0.2138
  413MOL0     C55679   1.093   2.566   1.215 -0.4839  0.1821  0.2553
  413MOL0     C55680   0.976   2.592   1.126  0.0389 -0.1488 -1.3459
  413MOL0     C55681   0.840   2.535   1.190  0.3505  0.6440 -0.2501
  413MOL0     C55682   0.739   2.521   1.090  0.3371  0.1040  0.4848
  413MOL0     C55683   0.768   2.400   0.997 -0.2688  0.6191 -0.0005
  413MOL0     C55684   0.777   2.308   0.911  1.2414 -0.2229  0.9465
  413MOL0     C55685   1.227   2.239   1.103  0.8858 -0.4360 -0.8380
  413MOL0     C55686   1.291   2.174   0.998  0.0066  1.0108  0.7032
  413MOL0     C55687   1.348   2.024   1.011  0.4373 -0.9417  0.1946
  413MOL0     H55688   1.285   1.912   0.549  0.5656 -0.4847  0.2809
  413MOL0     H55689   1.408   1.827   0.360 -1.9268  2.0354  0.6565
  413MOL0     H55690   1.740   2.070   0.261  3.0431  1.3754 -1.9720
  413MOL0     H55691   1.865   1.949   0.284  1.2447  3.2205 -0.2384
  413MOL0     H55692   1.676   1.956   0.050  0.5466 -2.1768  0.1691
  413MOL0     H55693   1.797   1.840   0.087  2.0516 -0.3357  1.5446
  413MOL0     H55694   1.850   2.132   0.045  0.2779 -0.1857 -2.5735
  413MOL0     H55695   1.872   2.003  -0.068 -0.3977  5.7172 -1.4327
  413MOL0     H55696   2.055   2.069   0.168  0.8963  3.3096 -2.4503
  413MOL0     H55697   2.057   1.902   0.101  2.4237 -0.0071 -1.6388
  413MOL0     H55698   2.142   2.000  -0.100 -3.0367  0.2881 -1.5721
  413MOL0     H55699   2.086   2.162  -0.061  0.4467  0.3360  0.2583
  413MOL0     H55700   2.240   2.167   0.148 -1.0135  0.3074  0.3663
  413MOL0     H55701   2.331   2.041   0.053 -1.2804 -0.8643 -0.0900
  413MOL0     H55702   2.265   2.317  -0.056 -3.9876 -0.3652  2.6136
  413MOL0     H55703   2.345   2.188  -0.136  1.1719  2.5658 -1.4021
  413MOL0     H55704   2.443   2.327   0.136 -1.0498  3.6654 -1.5308
  413MOL0     H55705   2.530   2.198   0.059  2.5582  1.3512 -1.7570
  413MOL0     H55706   2.398   2.546  -0.051 -1.0743 -1.6568  2.4033
  413MOL0     H55707   2.620   2.736  -0.282  0.1187  0.7155  0.4578
  413MOL0     H55708   2.479   2.744  -0.187  0.1116 -0.5368  2.2728
  413MOL0     H55709   2.594   2.831  -0.007  0.7467  0.6217 -0.4091
  413MOL0     H55710   2.742   2.739  -0.032  0.4647  1.0056  0.1586
  413MOL0     H55711   2.673   2.994  -0.199 -1.4186 -0.0471 -2.3623
  413MOL0     H55712   2.806   2.878  -0.224 -0.2073 -2.5692  2.0396
  413MOL0     H55713   2.854   2.913   0.030  0.2777 -0.8394  0.2020
  413MOL0     H55714   2.745   3.050   0.027  2.8775  0.8517  1.8866
  413MOL0     H55715   3.074   3.223  -0.214  2.7660  0.7486  0.3217
  413MOL0     H55716   3.295   3.153  -0.314 -2.0861  0.7162 -1.4771
  413MOL0     H55717   3.482   2.909  -0.631 -1.0451 -0.8031  1.6625
  413MOL0     H55718   3.669   2.809  -0.762  3.0391  1.5412 -0.3992
  413MOL0     H55719   3.842   2.739  -0.861  0.0760  2.3887  0.8808
  413MOL0     H55720   3.916   2.880  -0.799 -0.7357  0.3872 -0.0816
  413MOL0     H55721   4.058   2.757  -0.942 -0.8402 -3.1033 -1.5209
  413MOL0     H55722   4.125   2.746  -0.782 -2.0473  0.5043  2.4458
  413MOL0     H55723   4.016   2.515  -0.757  1.1856  0.4266  0.2346
  413MOL0     H55724   3.952   2.531  -0.920 -0.4184 -2.3076  2.1978
  413MOL0     H55725   4.229   2.514  -0.837 -1.6703  4.1202  1.2563
  413MOL0     H55726   4.177   2.535  -1.008  0.5489 -3.7978 -1.6569
  413MOL0     H55727   4.043   2.322  -0.999  0.9094  0.5018 -1.1436
  413MOL0     H55728   4.110   2.284  -0.832 -1.5628  0.7467 -0.1907
  413MOL0     H55729   4.340   2.339  -0.927 -0.8440  2.2947 -1.2792
  413MOL0     H55730   4.277   2.176  -0.955 -0.2367 -0.0726  0.2331
  413MOL0     H55731   4.246   2.405  -1.161  1.2903  1.3711  2.4337
  413MOL0     H55732   4.204   2.226  -1.175 -0.8811  0.0545  0.6389
  413MOL0     H55733   4.457   2.185  -1.135  0.2768  0.6325  0.7189
  413MOL0     H55734   4.418   2.266  -1.292 -1.3995  1.4701 -1.4268
  413MOL0     H55735   3.898   2.829  -0.389  1.0658  1.2833 -2.1921
  413MOL0     H55736   3.716   2.915  -0.279  0.2635 -0.9430 -0.9336
  413MOL0     H55737   3.216   2.750  -0.195 -1.0207  0.7329 -1.3885
  413MOL0     H55738   3.001   2.822  -0.106 -0.2894  0.0193 -0.3886
  413MOL0     H55739   1.777   1.991   0.516 -0.5716 -0.0169  1.9341
  413MOL0     H55740   1.660   2.096   0.674  1.7183  0.5877 -1.5403
  413MOL0     H55741   1.304   2.436   0.784  1.8389  0.4142  1.0000
  413MOL0     H55742   1.200   2.556   0.969  0.5474  0.4672 -0.7384
  413MOL0     H55743   1.168   2.642   1.191 -0.6506  0.7814  1.5503
  413MOL0     H55744   1.060   2.585   1.317 -1.5950 -2.3684  0.4334
  413MOL0     H55745   1.000   2.552   1.028 -1.2565  0.7072 -2.0351
  413MOL0     H55746   0.974   2.701   1.118 -2.3979 -0.2100 -2.2475
  413MOL0     H55747   0.804   2.605   1.265 -2.0502  1.3384 -1.9078
  413MOL0     H55748   0.864   2.439   1.238 -0.6587  0.4597 -0.0944
  413MOL0     H55749   0.641   2.504   1.134  1.8440  0.3130  4.2725
  413MOL0     H55750   0.737   2.618   1.038  1.1121 -0.4863 -0.6998
  413MOL0     H55751   0.789   2.230   0.839 -1.6506 -1.3399  1.5438
  413MOL0     H55752   1.211   2.183   1.195 -0.4918  1.2409  0.0074
  413MOL0     H55753   1.316   1.981   1.106  2.0237 -1.8283  0.3570
  413MOL0     H55754   1.319   1.956   0.931 -1.2585  0.5484 -0.5440
  413MOL0     H55755   1.457   2.022   1.015  0.4147 -0.2953  1.7139
  414MOL0     O55756   4.397   2.425   9.700 -0.0082 -0.2050  0.2970
  414MOL0     C55757   4.484   2.503   9.691 -0.6262 -0.6061  0.4885
  414MOL0     O55758   4.528   2.553   9.570 -1.0238  0.6534 -0.3769
  414MOL0     C55759   4.476   2.495   9.460 -0.4120 -1.0288 -0.1348
  414MOL0     C55760   4.480   2.358   9.438 -0.6512  1.2387  1.6007
  414MOL0     C55761   4.437   2.304   9.310 -0.6314 -0.6822 -0.2200
  414MOL0     C55762   4.401   2.394   9.212  0.3551 -0.3264 -0.5442
  414MOL0     O55763   4.370   2.350   9.085 -0.0577  0.0979 -0.8190
  414MOL0     C55764   4.287   2.228   9.084  0.7204 -0.6764 -0.5316
  414MOL0     C55765   4.251   2.192   8.943 -0.2079 -0.2766 -0.0691
  414MOL0     C55766   4.321   2.085   8.871  0.5170 -0.2783  0.0628
  414MOL0     C55767   4.471   2.124   8.846  0.9351  0.5564  0.4467
  414MOL0     C55768   4.546   2.013   8.772  0.1165 -1.0091  0.0164
  414MOL0     C55769   4.669   2.073   8.694  0.5217 -0.0490  0.1236
  414MOL0     C55770   4.721   1.957   8.614 -0.9378 -1.0149 -0.0015
  414MOL0     C55771   4.816   2.011   8.502 -0.6584  0.3436  0.0417
  414MOL0     N55772   4.751   2.060   8.380 -0.2696 -0.7371 -0.3527
  414MOL0     C55773   4.650   2.009   8.303  0.0758  0.4053 -0.5965
  414MOL0     C55774   4.642   2.089   8.190  0.0403 -0.2832 -0.5133
  414MOL0     C55775   4.534   2.091   8.084  0.2617 -0.1965  0.9776
  414MOL0     C55776   4.479   1.955   8.049  0.2669  0.8058  0.6728
  414MOL0     C55777   4.380   1.956   7.925  0.4185 -1.5033  0.0090
  414MOL0     C55778   4.316   1.817   7.884  0.2764 -0.9775  0.7868
  414MOL0     O55779   4.405   1.707   7.910 -0.8733 -0.2112  0.3169
  414MOL0     C55780   4.518   1.690   7.829 -0.7144 -0.3454 -0.0423
  414MOL0     C55781   4.601   1.585   7.862  0.0064  0.0757  0.3569
  414MOL0     C55782   4.729   1.566   7.811 -0.0841  0.4243  0.8409
  414MOL0     C55783   4.763   1.655   7.706 -0.3478  0.5159  0.2593
  414MOL0     C55784   4.890   1.625   7.632  0.9538 -0.4424  0.3594
  414MOL0     O55785   4.969   1.525   7.670 -0.5595 -0.0654  0.6110
  414MOL0     C55786   5.075   1.508   7.586  0.5893  0.2272  0.9619
  414MOL0     C55787   5.201   1.551   7.620 -0.6104 -0.3864 -0.5882
  414MOL0     C55788   5.311   1.530   7.537  0.3503 -0.2746 -0.5219
  414MOL0     C55789   5.310   1.455   7.424 -0.6117  0.4591  1.2790
  414MOL0     O55790   5.418   1.441   7.338 -0.2934 -0.1781  0.6044
  414MOL0     C55791   5.399   1.502   7.208  0.0669  0.3000 -0.0172
  414MOL0     C55792   5.383   1.656   7.197  1.0934 -0.2778 -0.3869
  414MOL0     C55793   5.505   1.726   7.241 -1.5933 -0.5366  0.3025
  414MOL0     C55794   5.632   1.676   7.174 -0.0795 -0.3448  0.4479
  414MOL0     C55795   5.749   1.759   7.226 -0.0884  0.5978 -0.1847
  414MOL0     C55796   5.889   1.702   7.182 -0.1269  0.7173 -0.1626
  414MOL0     C55797   6.009   1.785   7.225 -0.0837  0.1192 -0.4611
  414MOL0     C55798   6.134   1.712   7.166  0.5191  0.0988 -1.2501
  414MOL0    Cl55799   6.177   1.745   6.996  0.5511  0.4880  0.2708
  414MOL0     C55800   5.192   1.391   7.398 -0.5539  0.2663  0.1567
  414MOL0     C55801   5.075   1.421   7.473  0.4950  0.0767 -0.1668
  414MOL0     O55802   4.906   1.702   7.537 -0.3347 -0.0153  0.3945
  414MOL0     C55803   4.676   1.759   7.670  1.1584  0.1551 -0.7024
  414MOL0     C55804   4.556   1.772   7.730 -0.0348  0.3829 -0.1757
  414MOL0     N55805   4.742   2.186   8.206 -0.4485  0.8894 -0.1052
  414MOL0     N55806   4.803   2.166   8.316  0.1662 -0.8249 -0.6753
  414MOL0     C55807   4.412   2.536   9.227 -0.5014  0.0179  0.4720
  414MOL0     C55808   4.440   2.584   9.355 -0.3238 -0.5145 -0.8369
  414MOL0     C55809   4.566   2.546   9.802 -0.1697 -0.1278 -0.8547
  414MOL0     C55810   4.703   2.578   9.776 -0.3590  0.1068  0.5547
  414MOL0     C55811   4.799   2.615   9.866  1.3184 -1.0020  0.2376
  414MOL0     C55812   4.761   2.634  10.001 -1.2832  0.8417  0.4472
  414MOL0     O55813   4.835   2.694  10.102  0.0992 -0.3987  0.5907
  414MOL0     C55814   4.973   2.661  10.098  0.1757 -0.4611 -0.5953
  414MOL0     C55815   5.038   2.724  10.227 -0.5139 -0.1359  0.2154
  414MOL0     C55816   4.978   2.683  10.366  0.1129 -0.1910  0.0577
  414MOL0     C55817   5.067   2.707  10.480 -0.4120 -0.0579 -0.6921
  414MOL0     C55818   5.012   2.694  10.616  0.1357 -0.0974  0.0969
  414MOL0     C55819   4.967   2.680  10.733  0.1066  0.3528  0.4453
  414MOL0     C55820   4.625   2.600  10.033  0.3296  0.4930 -0.4640
  414MOL0     C55821   4.527   2.552   9.936  0.1002 -0.6507 -0.6218
  414MOL0     C55822   4.388   2.512   9.990 -0.6762 -0.3835  0.2189
  414MOL0     H55823   4.529   2.297   9.514 -1.1362 -0.5291  0.5563
  414MOL0     H55824   4.432   2.198   9.287 -4.6283 -0.5262 -0.8249
  414MOL0     H55825   4.334   2.139   9.128  0.5583 -0.7879 -0.5846
  414MOL0     H55826   4.194   2.249   9.138  1.3133  1.1194 -0.1517
  414MOL0     H55827   4.249   2.282   8.880  0.2961  0.0569  0.3850
  414MOL0     H55828   4.149   2.152   8.952 -1.2457  1.5956 -2.2638
  414MOL0     H55829   4.270   2.062   8.777 -0.3986 -1.3975  0.8087
  414MOL0     H55830   4.318   1.994   8.932 -0.6659  0.0775  0.5497
  414MOL0     H55831   4.477   2.222   8.796  0.1364 -1.0320 -3.1239
  414MOL0     H55832   4.512   2.133   8.946 -0.6907 -1.5168  1.3749
  414MOL0     H55833   4.580   1.924   8.826  0.0986 -1.4852 -0.7427
  414MOL0     H55834   4.476   1.983   8.693 -0.9255  3.1530 -0.8815
  414MOL0     H55835   4.632   2.156   8.633 -1.0636  1.1652  2.5781
  414MOL0     H55836   4.746   2.120   8.756  0.4072  5.0270 -2.9740
  414MOL0     H55837   4.641   1.904   8.562  0.8359 -1.9433 -1.9131
  414MOL0     H55838   4.776   1.896   8.686  1.5424  1.7263  0.5976
  414MOL0     H55839   4.882   2.090   8.540 -2.3548  0.4294  3.1052
  414MOL0     H55840   4.868   1.919   8.471 -2.9195 -0.7526 -0.6790
  414MOL0     H55841   4.585   1.926   8.329  1.4744 -0.4013  0.4863
  414MOL0     H55842   4.458   2.159   8.123 -0.1747  1.3780 -2.3027
  414MOL0     H55843   4.583   2.135   7.997 -2.8136  2.3732  0.3440
  414MOL0     H55844   4.561   1.891   8.016 -1.5322 -0.1086 -2.4069
  414MOL0     H55845   4.428   1.911   8.135  0.1545  1.8289  1.1464
  414MOL0     H55846   4.428   2.014   7.846  3.2138  1.3376  3.4730
  414MOL0     H55847   4.290   2.011   7.956 -1.8134 -3.6822 -2.1942
  414MOL0     H55848   4.287   1.813   7.779  0.5690  1.1824  0.5760
  414MOL0     H55849   4.231   1.798   7.950  2.2639 -0.1571  3.7827
  414MOL0     H55850   4.566   1.510   7.933  0.4752 -1.6337 -1.1491
  414MOL0     H55851   4.794   1.489   7.851 -0.7708  1.1377  3.5719
  414MOL0     H55852   5.214   1.621   7.702 -1.4714 -1.4106  0.4508
  414MOL0     H55853   5.399   1.590   7.553 -0.9085  0.6165  4.7040
  414MOL0     H55854   5.480   1.472   7.140  0.2784 -2.9066  1.4611
  414MOL0     H55855   5.310   1.450   7.170 -0.5436  2.1455 -1.2332
  414MOL0     H55856   5.352   1.661   7.092 -1.3665 -1.0361  0.2497
  414MOL0     H55857   5.298   1.680   7.261  1.7053  1.0838 -0.0445
  414MOL0     H55858   5.497   1.830   7.205  0.0812 -0.0572  1.2183
  414MOL0     H55859   5.525   1.724   7.348  0.5138  0.1860 -0.0326
  414MOL0     H55860   5.616   1.707   7.070 -2.7569 -2.8258 -0.0214
  414MOL0     H55861   5.656   1.569   7.174 -0.0870 -0.4256  3.3734
  414MOL0     H55862   5.742   1.757   7.335  0.2384 -0.5397 -0.1695
  414MOL0     H55863   5.739   1.859   7.183 -3.2877  0.2166 -0.6123
  414MOL0     H55864   5.893   1.607   7.236  2.1618  2.1988  2.4952
  414MOL0     H55865   5.894   1.673   7.076 -1.1177  1.2401 -0.3665
  414MOL0     H55866   6.018   1.794   7.334 -2.4119  2.5750 -0.3505
  414MOL0     H55867   6.001   1.883   7.176 -0.5967  0.0187 -0.5829
  414MOL0     H55868   6.222   1.725   7.230  0.9707 -1.2365 -1.5524
  414MOL0     H55869   6.112   1.605   7.174 -0.1630  0.3257  0.1783
  414MOL0     H55870   5.180   1.311   7.325 -1.0337  0.3358  0.1568
  414MOL0     H55871   4.986   1.361   7.460  0.9062 -0.9217  1.3900
  414MOL0     H55872   4.694   1.829   7.589 -0.3403  0.1895 -1.0260
  414MOL0     H55873   4.485   1.850   7.704 -0.0671  1.2128  2.1433
  414MOL0     H55874   4.412   2.586   9.131  1.3676 -2.8786 -1.2145
  414MOL0     H55875   4.445   2.691   9.373  0.0441 -0.4970 -1.0210
  414MOL0     H55876   4.728   2.574   9.670 -3.4471 -1.1193 -0.2539
  414MOL0     H55877   4.898   2.642   9.829  0.9033  0.5250  0.1489
  414MOL0     H55878   5.020   2.711  10.013 -1.6195  4.9890  1.1669
  414MOL0     H55879   4.992   2.554  10.109 -1.7409 -0.7283  0.7512
  414MOL0     H55880   5.035   2.833  10.217 -2.2359  0.0590  2.3114
  414MOL0     H55881   5.142   2.688  10.224 -0.1099  1.0335 -0.4957
  414MOL0     H55882   4.942   2.580  10.360  1.8469 -0.7558 -2.6234
  414MOL0     H55883   4.898   2.756  10.374  2.7814  3.5791 -3.1690
  414MOL0     H55884   5.143   2.628  10.481  0.5682  0.7837  2.5946
  414MOL0     H55885   5.123   2.801  10.481  0.5776 -0.6386  0.0263
  414MOL0     H55886   4.928   2.675  10.833  0.0773 -0.0083  0.4183
  414MOL0     H55887   4.592   2.620  10.134  1.8481 -2.1992  0.6632
  414MOL0     H55888   4.333   2.448   9.920  1.3543 -0.6858 -1.1721
  414MOL0     H55889   4.406   2.459  10.085  0.6275  0.4938  0.4784
  414MOL0     H55890   4.322   2.598  10.002 -1.8333 -1.2989  0.5938
  415MOL0     O55891   5.648   4.065   6.597 -0.3955  0.9762  0.1785
  415MOL0     C55892   5.602   4.080   6.486  0.4637 -0.5214 -0.0785
  415MOL0     O55893   5.482   4.032   6.450 -0.4854  0.0458  0.9004
  415MOL0     C55894   5.388   3.981   6.536 -0.0968 -0.6976  0.0104
  415MOL0     C55895   5.415   3.853   6.589 -0.2124  0.8881  0.3663
  415MOL0     C55896   5.323   3.791   6.669 -1.3850 -0.6692 -0.0341
  415MOL0     C55897   5.209   3.856   6.717 -0.4930 -0.3444 -0.2625
  415MOL0     O55898   5.129   3.796   6.807  1.0486  0.0290  0.4623
  415MOL0     C55899   4.984   3.820   6.816  0.4062 -0.0578 -0.2330
  415MOL0     C55900   4.944   3.937   6.912 -0.5813  0.3965 -0.1432
  415MOL0     C55901   5.020   3.914   7.039 -0.7538 -0.1992 -0.1345
  415MOL0     C55902   4.950   3.977   7.160  0.0173  0.2384 -0.2684
  415MOL0     C55903   5.034   3.942   7.290  0.3363 -0.0224  0.5712
  415MOL0     C55904   4.982   4.005   7.413  0.2043 -0.1476  0.5058
  415MOL0     C55905   5.031   3.936   7.542  0.0285  0.5317 -0.0173
  415MOL0     C55906   5.178   3.972   7.587  1.1462  1.0355  0.3155
  415MOL0     N55907   5.262   3.858   7.610 -0.7603 -0.7026 -0.4273
  415MOL0     C55908   5.291   3.765   7.517  0.6789  0.6840 -0.0402
  415MOL0     C55909   5.342   3.659   7.574  0.0765  0.3469  0.0883
  415MOL0     C55910   5.385   3.525   7.507 -0.1683 -0.5681 -0.0513
  415MOL0     C55911   5.502   3.466   7.589  0.3564  0.1314 -0.0251
  415MOL0     C55912   5.577   3.361   7.523  0.1528 -0.0842 -0.1817
  415MOL0     C55913   5.701   3.318   7.608  0.7863 -0.4515 -0.6430
  415MOL0     O55914   5.777   3.225   7.531 -0.0691  0.2519 -0.4833
  415MOL0     C55915   5.890   3.174   7.581 -0.0551  0.4345 -0.0114
  415MOL0     C55916   5.942   3.220   7.700  0.3364  0.1674  0.8538
  415MOL0     C55917   6.071   3.166   7.727 -0.3488  0.9195 -0.2580
  415MOL0     C55918   6.139   3.069   7.642  0.3372  0.4603 -0.3841
  415MOL0     C55919   6.270   3.014   7.679 -0.3224 -0.3740 -0.3857
  415MOL0     O55920   6.318   3.046   7.803  0.2729  0.3113  0.4271
  415MOL0     C55921   6.399   2.952   7.859  0.2237 -0.2163  0.2777
  415MOL0     C55922   6.535   2.973   7.844  0.7214  0.1370 -0.1997
  415MOL0     C55923   6.628   2.884   7.894  0.4596  0.1959  0.7772
  415MOL0     C55924   6.595   2.767   7.965 -0.1346 -0.1528 -0.1569
  415MOL0     O55925   6.696   2.692   8.024  0.8161  0.1821 -0.4576
  415MOL0     C55926   6.671   2.561   8.078  0.6720 -0.0484  0.1252
  415MOL0     C55927   6.816   2.497   8.076  0.0641  0.4064 -0.8686
  415MOL0     C55928   6.929   2.574   8.146 -0.4785  0.3357 -1.0914
  415MOL0     C55929   7.054   2.480   8.170  0.0732 -0.5547  0.3558
  415MOL0     C55930   7.147   2.543   8.269 -0.0125 -0.1071 -0.1444
  415MOL0     C55931   7.246   2.428   8.328 -0.0744 -0.6417  0.0154
  415MOL0     C55932   7.348   2.381   8.224  0.2252 -0.1143  1.0289
  415MOL0     C55933   7.458   2.478   8.219 -0.6875 -0.6855 -0.5685
  415MOL0    Cl55934   7.594   2.425   8.112  0.1877  0.1148 -0.4280
  415MOL0     C55935   6.457   2.752   7.977  0.7751 -0.7190 -0.6929
  415MOL0     C55936   6.351   2.843   7.928 -1.5259  0.7538  0.0793
  415MOL0     O55937   6.307   2.914   7.615 -0.3851  0.0236 -0.4075
  415MOL0     C55938   6.065   3.020   7.537  0.1531  0.0200 -0.2217
  415MOL0     C55939   5.953   3.083   7.499  1.1480 -0.0206  0.0119
  415MOL0     N55940   5.363   3.697   7.704 -0.1042  0.3934 -0.6045
  415MOL0     N55941   5.308   3.806   7.732  0.4773  0.2569  0.7905
  415MOL0     C55942   5.179   3.978   6.665 -0.8636 -0.6495 -0.4209
  415MOL0     C55943   5.272   4.045   6.576  0.0940 -1.0439  0.3872
  415MOL0     C55944   5.679   4.151   6.376  0.2283 -1.0995 -0.1405
  415MOL0     C55945   5.605   4.228   6.284  0.0851  0.3539  0.8092
  415MOL0     C55946   5.653   4.295   6.169 -0.4169  0.1123 -0.3646
  415MOL0     C55947   5.792   4.291   6.145 -0.4850 -0.4685 -1.2545
  415MOL0     O55948   5.836   4.356   6.028  0.6911  0.0746 -0.3823
  415MOL0     C55949   5.973   4.385   6.004  0.2585  0.1743 -1.7931
  415MOL0     C55950   6.038   4.299   5.898 -0.4568 -1.1723  0.5302
  415MOL0     C55951   6.190   4.325   5.879  0.6377  0.8075 -0.5243
  415MOL0     C55952   6.273   4.276   6.005  0.0401  0.4177  0.0910
  415MOL0     C55953   6.243   4.145   6.062  0.8455 -0.7458  0.4138
  415MOL0     C55954   6.223   4.039   6.125  0.1498 -0.2779  0.4939
  415MOL0     C55955   5.869   4.211   6.234  0.3595 -0.5766 -0.7200
  415MOL0     C55956   5.818   4.147   6.346 -0.6931  0.0572  0.1469
  415MOL0     C55957   5.913   4.070   6.434 -0.2774  0.6414  0.4734
  415MOL0     H55958   5.510   3.806   6.567 -1.2944  0.5841 -4.8069
  415MOL0     H55959   5.334   3.687   6.701 -1.1051 -1.4513 -2.4399
  415MOL0     H55960   4.938   3.846   6.720 -1.9325 -2.2849  0.1699
  415MOL0     H55961   4.929   3.734   6.855 -1.4466  1.9147  1.7941
  415MOL0     H55962   4.837   3.946   6.931 -0.0912  3.5532  1.8484
  415MOL0     H55963   4.966   4.037   6.872 -3.8599  0.9035 -0.9728
  415MOL0     H55964   5.117   3.962   7.018 -0.7608  0.9226  2.1450
  415MOL0     H55965   5.024   3.806   7.052 -3.3197 -0.6652 -2.3428
  415MOL0     H55966   4.932   4.084   7.148 -1.5942  0.1667  1.1388
  415MOL0     H55967   4.843   3.954   7.169 -0.4607  2.1739 -0.4914
  415MOL0     H55968   5.032   3.832   7.294  0.9628 -0.0562  0.0905
  415MOL0     H55969   5.139   3.970   7.286  0.5099 -0.3517  2.2049
  415MOL0     H55970   5.007   4.111   7.421  1.0251 -0.1531 -1.5123
  415MOL0     H55971   4.874   4.006   7.398  0.1785 -2.5279  0.1603
  415MOL0     H55972   5.017   3.828   7.543 -0.3266  0.5575  2.1491
  415MOL0     H55973   4.962   3.957   7.624  0.3889  0.4409  0.3148
  415MOL0     H55974   5.225   4.039   7.514  0.3967 -0.1383 -1.3071
  415MOL0     H55975   5.171   4.033   7.677 -1.5665  3.0686 -1.1244
  415MOL0     H55976   5.266   3.781   7.413 -0.3339  2.8499  0.4922
  415MOL0     H55977   5.298   3.463   7.532 -1.9967  2.0364  0.4785
  415MOL0     H55978   5.396   3.534   7.399 -2.5455 -1.1484 -0.4188
  415MOL0     H55979   5.572   3.548   7.608  0.5743 -0.2972  1.1129
  415MOL0     H55980   5.459   3.440   7.686 -2.3317  0.1447 -1.1287
  415MOL0     H55981   5.613   3.404   7.429  3.3198 -1.0068  0.4829
  415MOL0     H55982   5.524   3.267   7.505 -1.4756  0.5267  1.1670
  415MOL0     H55983   5.659   3.270   7.697 -2.5979 -1.2643 -2.4905
  415MOL0     H55984   5.773   3.395   7.638 -0.2310  0.1727  0.2719
  415MOL0     H55985   5.882   3.283   7.765 -0.1719  0.0603  0.4885
  415MOL0     H55986   6.124   3.192   7.818 -0.7617  0.1213  0.2210
  415MOL0     H55987   6.573   3.060   7.790  2.3188 -0.9944 -0.9962
  415MOL0     H55988   6.733   2.911   7.885  0.8720 -1.9312 -1.9807
  415MOL0     H55989   6.631   2.571   8.179 -0.9684 -3.0166 -0.0994
  415MOL0     H55990   6.590   2.509   8.026 -0.5473  1.8511  0.0177
  415MOL0     H55991   6.796   2.401   8.124  3.2333 -0.0125 -0.2104
  415MOL0     H55992   6.845   2.485   7.971  1.5304 -3.8248 -0.1555
  415MOL0     H55993   6.975   2.649   8.082 -0.0362 -0.5816 -1.8798
  415MOL0     H55994   6.887   2.613   8.239 -1.4147 -0.8141 -0.9905
  415MOL0     H55995   7.096   2.443   8.076  1.3842  0.7590  0.3927
  415MOL0     H55996   7.018   2.390   8.221 -1.4076  0.6636  1.5316
  415MOL0     H55997   7.084   2.581   8.350  0.2899 -0.4254  0.2469
  415MOL0     H55998   7.199   2.629   8.224  2.5908 -0.1343  2.4928
  415MOL0     H55999   7.296   2.456   8.421 -1.2075  0.3871  0.3447
  415MOL0     H56000   7.178   2.347   8.356 -1.0722  0.0329 -0.4108
  415MOL0     H56001   7.302   2.370   8.126  3.0247 -1.5168 -0.2391
  415MOL0     H56002   7.392   2.284   8.251 -0.8506 -1.2588 -1.1225
  415MOL0     H56003   7.424   2.570   8.169  3.4784  1.9527  0.8558
  415MOL0     H56004   7.494   2.508   8.318 -0.5588  0.5192 -0.9561
  415MOL0     H56005   6.428   2.659   8.024 -3.1608 -0.8872 -2.9456
  415MOL0     H56006   6.249   2.813   7.948 -0.9011 -1.0726  0.7228
  415MOL0     H56007   6.102   2.940   7.473  1.5904 -0.1400  0.7711
  415MOL0     H56008   5.901   3.048   7.410 -1.5742 -1.2578  1.9586
  415MOL0     H56009   5.080   4.018   6.687 -1.5180 -1.9774 -0.8553
  415MOL0     H56010   5.236   4.146   6.559 -2.0815 -1.6285  1.1251
  415MOL0     H56011   5.499   4.227   6.310  0.7454  0.6898  3.7874
  415MOL0     H56012   5.590   4.333   6.089  0.7707  0.2970 -1.2418
  415MOL0     H56013   6.027   4.365   6.098 -0.9018 -0.3815 -1.2271
  415MOL0     H56014   5.980   4.491   5.978  1.4760  0.7953  0.7333
  415MOL0     H56015   6.006   4.328   5.798 -0.5499 -0.3559  0.7927
  415MOL0     H56016   6.008   4.194   5.911  1.8127 -1.7946  1.1775
  415MOL0     H56017   6.212   4.428   5.848  0.8844  2.1624  3.5420
  415MOL0     H56018   6.209   4.257   5.795 -1.5837  1.7418 -1.8661
  415MOL0     H56019   6.380   4.292   5.990 -0.0524  3.0719  1.7261
  415MOL0     H56020   6.263   4.349   6.086  1.7958 -0.4103  1.1281
  415MOL0     H56021   6.198   3.944   6.166  0.5641  0.0063  1.4605
  415MOL0     H56022   5.974   4.196   6.210  0.0499 -2.9582 -0.8623
  415MOL0     H56023   6.007   4.044   6.385  2.0362  1.1270  4.2281
  415MOL0     H56024   5.948   4.139   6.512 -1.2353  2.3491 -0.5393
  415MOL0     H56025   5.888   3.979   6.489  3.3356  0.0650  1.4181
  416MOL0     O56026   5.151   6.188   3.118 -0.4207  0.5383 -0.2967
  416MOL0     C56027   5.217   6.082   3.132  0.6104  0.1220 -0.6275
  416MOL0     O56028   5.226   5.982   3.041 -0.0060  0.0563 -0.3425
  416MOL0     C56029   5.166   5.989   2.920  0.5635 -0.7658  0.1594
  416MOL0     C56030   5.106   5.877   2.859 -0.0914 -0.0509 -0.6731
  416MOL0     C56031   5.050   5.881   2.726  0.8224  0.4000 -0.8211
  416MOL0     C56032   5.060   6.006   2.656 -0.2042  1.0031 -0.2092
  416MOL0     O56033   5.007   6.002   2.531 -0.7062  0.1590 -0.1069
  416MOL0     C56034   5.057   6.095   2.422  0.4524 -0.0881 -0.2899
  416MOL0     C56035   4.958   6.102   2.301  0.9532 -1.3367  0.7396
  416MOL0     C56036   4.811   6.125   2.349 -0.8770  0.2818 -0.4905
  416MOL0     C56037   4.732   6.196   2.241  0.1735  0.0004  0.6583
  416MOL0     C56038   4.591   6.232   2.286 -0.2965 -1.1518 -0.4281
  416MOL0     C56039   4.521   6.323   2.184 -0.0648  0.4159  0.0023
  416MOL0     C56040   4.384   6.374   2.221  0.0569  0.1463 -0.1738
  416MOL0     C56041   4.349   6.489   2.117 -0.6348  0.0579  0.7872
  416MOL0     N56042   4.212   6.542   2.139 -0.0272  0.8318 -0.2083
  416MOL0     C56043   4.186   6.655   2.212  0.8094  0.0264 -0.4118
  416MOL0     C56044   4.058   6.690   2.184  1.1534 -0.0409 -0.3893
  416MOL0     C56045   3.996   6.812   2.238 -0.9105  0.1753  0.5613
  416MOL0     C56046   4.073   6.933   2.186  0.6379  0.0056 -0.3102
  416MOL0     C56047   4.043   7.064   2.261 -0.4399  1.2213  0.0933
  416MOL0     C56048   4.068   7.073   2.419  0.0922  0.8081 -0.0395
  416MOL0     O56049   4.209   7.040   2.447  0.1567 -0.5100  0.7853
  416MOL0     C56050   4.240   7.054   2.578  1.1031  0.1688  0.8649
  416MOL0     C56051   4.225   6.950   2.670  0.9468  0.1476  0.2625
  416MOL0     C56052   4.256   6.955   2.800  0.1894 -0.3985  0.7508
  416MOL0     C56053   4.312   7.081   2.852  0.6628 -0.0312  0.9295
  416MOL0     C56054   4.348   7.093   2.999 -0.2257  0.5285  0.3267
  416MOL0     O56055   4.374   7.217   3.038 -0.6972  0.8430  0.8004
  416MOL0     C56056   4.388   7.263   3.164  0.4525  0.0867  0.0258
  416MOL0     C56057   4.493   7.334   3.209  0.3517 -0.0482 -0.1413
  416MOL0     C56058   4.499   7.372   3.340 -0.5079  0.0624 -0.1292
  416MOL0     C56059   4.395   7.343   3.431  0.1737 -0.5753  0.1557
  416MOL0     O56060   4.412   7.390   3.553  0.8063 -0.0326 -0.9337
  416MOL0     C56061   4.455   7.292   3.658  0.8307  0.1456 -0.0201
  416MOL0     C56062   4.602   7.253   3.628 -0.1579 -1.5058 -0.4996
  416MOL0     C56063   4.704   7.352   3.678  0.3244 -0.4265  0.0682
  416MOL0     C56064   4.845   7.309   3.652 -0.3065 -0.4966 -0.6738
  416MOL0     C56065   4.906   7.187   3.724 -0.5203 -0.4377  0.7134
  416MOL0     C56066   5.052   7.170   3.690 -0.0630 -0.4679 -0.4624
  416MOL0     C56067   5.111   7.046   3.758  0.1609 -0.6159 -0.4652
  416MOL0     C56068   5.262   7.033   3.731 -0.1824  0.4904  1.3902
  416MOL0    Cl56069   5.310   6.989   3.558  0.1267 -0.2847 -0.3872
  416MOL0     C56070   4.287   7.266   3.391 -0.1796  0.0879 -0.1876
  416MOL0     C56071   4.285   7.222   3.259  0.1498  0.4940 -0.3953
  416MOL0     O56072   4.321   6.991   3.070 -0.3764 -0.1179  0.0513
  416MOL0     C56073   4.345   7.181   2.760  0.2133  0.3867  0.1016
  416MOL0     C56074   4.310   7.165   2.617 -0.2508  0.0736  0.4103
  416MOL0     N56075   4.013   6.598   2.086  0.7178  0.1638 -0.5548
  416MOL0     N56076   4.104   6.509   2.070 -0.3874 -1.3526  0.0484
  416MOL0     C56077   5.119   6.114   2.713 -0.2430 -0.0659  0.1518
  416MOL0     C56078   5.172   6.111   2.838  0.7131  0.4938  0.5711
  416MOL0     C56079   5.289   6.084   3.266 -0.1139 -0.2866  0.2367
  416MOL0     C56080   5.299   6.201   3.342 -0.6895  0.4585  0.0745
  416MOL0     C56081   5.352   6.198   3.466  0.8687 -0.9032  0.6248
  416MOL0     C56082   5.404   6.078   3.511 -0.3809 -0.9537 -0.1674
  416MOL0     O56083   5.483   6.047   3.622 -0.4563  0.4053 -0.1675
  416MOL0     C56084   5.558   6.160   3.674 -0.2969 -0.4712  0.3797
  416MOL0     C56085   5.629   6.107   3.800  0.2026 -0.0684 -0.1988
  416MOL0     C56086   5.560   6.167   3.925  0.6399 -0.3631  0.3905
  416MOL0     C56087   5.434   6.090   3.963 -0.6517 -0.2404 -0.2482
  416MOL0     C56088   5.324   6.106   3.872 -0.3927 -0.3551  0.4369
  416MOL0     C56089   5.223   6.135   3.800 -0.1750  0.7062  0.1952
  416MOL0     C56090   5.397   5.960   3.444 -0.1057  0.0594  0.8798
  416MOL0     C56091   5.340   5.963   3.317  0.2495  0.0018 -0.5507
  416MOL0     C56092   5.336   5.829   3.250 -0.7733  0.4784 -0.0405
  416MOL0     H56093   5.096   5.795   2.929  0.2628 -1.4319 -2.1743
  416MOL0     H56094   5.020   5.783   2.691 -0.0302 -1.6521  4.5961
  416MOL0     H56095   5.066   6.192   2.472  1.2781 -1.2188  1.8880
  416MOL0     H56096   5.159   6.064   2.397  0.1023 -2.1578  0.6394
  416MOL0     H56097   4.973   6.028   2.222  0.9478 -0.5563 -0.0158
  416MOL0     H56098   4.993   6.195   2.254  2.5270 -0.1581  3.9148
  416MOL0     H56099   4.821   6.184   2.440  1.0258 -0.2418 -0.3227
  416MOL0     H56100   4.757   6.031   2.365  0.6164 -0.5800 -0.2884
  416MOL0     H56101   4.784   6.283   2.200 -1.5431  0.9964  0.4879
  416MOL0     H56102   4.722   6.130   2.154  2.1413 -0.7256  0.9300
  416MOL0     H56103   4.534   6.141   2.308  0.4639 -1.1061  1.9861
  416MOL0     H56104   4.603   6.287   2.379  0.8756 -1.4667 -0.3733
  416MOL0     H56105   4.584   6.412   2.185  0.6842 -0.0723 -1.1591
  416MOL0     H56106   4.517   6.272   2.087  1.4707  1.2027 -0.5092
  416MOL0     H56107   4.388   6.405   2.326 -3.8287 -0.3451  0.2881
  416MOL0     H56108   4.317   6.288   2.229 -0.4287  0.6035  0.8454
  416MOL0     H56109   4.416   6.575   2.115 -2.3237  1.5382 -2.8253
  416MOL0     H56110   4.349   6.446   2.016 -0.0332  1.8454 -0.0161
  416MOL0     H56111   4.243   6.706   2.289  0.9727 -0.3646 -0.2719
  416MOL0     H56112   3.890   6.805   2.211 -0.8959 -2.8616  0.9721
  416MOL0     H56113   3.986   6.804   2.347 -1.1930 -2.5803  0.4099
  416MOL0     H56114   4.180   6.910   2.185  0.8411  0.9252 -1.3775
  416MOL0     H56115   4.036   6.946   2.084  1.0689 -0.6995 -0.5565
  416MOL0     H56116   3.937   7.087   2.246 -0.3223  0.9918 -1.2313
  416MOL0     H56117   4.107   7.140   2.215  1.5315  1.6363  3.2549
  416MOL0     H56118   4.001   6.999   2.465 -0.8162  1.7660  0.2193
  416MOL0     H56119   4.051   7.168   2.472 -0.2556  1.3462 -1.0950
  416MOL0     H56120   4.187   6.854   2.635  0.2576  0.8480 -0.9787
  416MOL0     H56121   4.216   6.879   2.867 -1.8255  1.1326  1.3881
  416MOL0     H56122   4.581   7.348   3.146 -1.9680 -2.5587 -4.3801
  416MOL0     H56123   4.589   7.414   3.384 -0.0909  0.1363 -1.0261
  416MOL0     H56124   4.442   7.338   3.757  1.5012  1.5012 -0.5494
  416MOL0     H56125   4.396   7.200   3.661 -1.3009  1.4575  0.9157
  416MOL0     H56126   4.625   7.160   3.682  0.7183  0.6179  3.1109
  416MOL0     H56127   4.622   7.252   3.520  0.6215  0.8333 -0.4422
  416MOL0     H56128   4.696   7.441   3.615  0.4012 -2.1964 -2.5702
  416MOL0     H56129   4.684   7.364   3.785  3.9484 -0.9847  0.9507
  416MOL0     H56130   4.910   7.396   3.661  0.0774 -0.9652  1.5457
  416MOL0     H56131   4.841   7.269   3.550 -0.9136 -2.8717  0.2123
  416MOL0     H56132   4.852   7.095   3.700 -2.1010 -0.1946  3.0276
  416MOL0     H56133   4.891   7.196   3.832 -1.5319 -0.6113  0.5968
  416MOL0     H56134   5.061   7.161   3.581  2.2688  3.9658 -0.8573
  416MOL0     H56135   5.114   7.255   3.718 -0.1433 -0.3953 -0.5045
  416MOL0     H56136   5.052   6.958   3.731  0.5199 -0.9149 -0.2673
  416MOL0     H56137   5.094   7.064   3.865 -2.5525  2.1633 -1.1992
  416MOL0     H56138   5.318   7.124   3.753 -0.0334  0.1993  2.2247
  416MOL0     H56139   5.311   6.963   3.798  0.7183 -0.6659 -0.3911
  416MOL0     H56140   4.214   7.229   3.463  1.5664  1.3465  2.3869
  416MOL0     H56141   4.199   7.166   3.225 -0.8772 -0.6103  3.4838
  416MOL0     H56142   4.394   7.269   2.800 -0.2237  0.4185  0.5621
  416MOL0     H56143   4.335   7.232   2.535  0.4234 -2.4196 -1.5812
  416MOL0     H56144   5.114   6.212   2.665 -1.0084  0.5315  1.3893
  416MOL0     H56145   5.197   6.204   2.889 -0.9398  0.1462  2.0958
  416MOL0     H56146   5.266   6.294   3.297 -3.3381 -0.1566  0.5196
  416MOL0     H56147   5.378   6.288   3.520  2.8728 -1.8982  1.4092
  416MOL0     H56148   5.495   6.247   3.696 -2.3914 -1.9301  0.4159
  416MOL0     H56149   5.638   6.185   3.603 -0.6707  0.1850  0.1835
  416MOL0     H56150   5.737   6.119   3.789  0.9552 -1.5953  3.7449
  416MOL0     H56151   5.609   6.000   3.789 -2.2023  0.5671 -3.7928
  416MOL0     H56152   5.538   6.272   3.904 -1.1394 -1.0407 -1.5132
  416MOL0     H56153   5.639   6.163   4.000  4.8028  1.4879 -3.3963
  416MOL0     H56154   5.464   5.985   3.965  1.4437  0.3191 -0.0772
  416MOL0     H56155   5.405   6.110   4.067  0.0209  0.4259 -0.1751
  416MOL0     H56156   5.136   6.160   3.742 -0.9747  1.6840  1.7443
  416MOL0     H56157   5.437   5.876   3.499 -0.1346  0.9255  2.2806
  416MOL0     H56158   5.413   5.763   3.293  1.5514  0.9980 -3.0648
  416MOL0     H56159   5.237   5.785   3.245 -1.1671  1.3832 -0.4066
  416MOL0     H56160   5.362   5.852   3.146  1.8473 -1.7161 -0.0008
  417MOL0     O56161   7.872   1.109   1.302  0.7332  0.2809 -0.2736
  417MOL0     C56162   7.874   1.152   1.418  0.8909 -0.3559 -0.5196
  417MOL0     O56163   7.764   1.230   1.473  0.1106  0.5322 -0.8549
  417MOL0     C56164   7.642   1.222   1.419 -0.1705 -1.1139 -0.8224
  417MOL0     C56165   7.556   1.118   1.441 -0.6798 -0.0674  0.0151
  417MOL0     C56166   7.431   1.116   1.378  0.1816 -0.0876 -0.2392
  417MOL0     C56167   7.398   1.212   1.283  0.0331 -0.2198 -0.0411
  417MOL0     O56168   7.279   1.206   1.221  0.4937  1.1843  0.1424
  417MOL0     C56169   7.164   1.145   1.283 -0.5732  0.3903  0.7093
  417MOL0     C56170   7.047   1.158   1.179  0.1264 -0.0425  0.3550
  417MOL0     C56171   6.904   1.122   1.225  0.3349 -0.0875 -0.1006
  417MOL0     C56172   6.854   1.208   1.339 -0.1089 -0.8915 -0.5501
  417MOL0     C56173   6.711   1.162   1.386  0.2652 -0.7779  0.3994
  417MOL0     C56174   6.701   1.013   1.432 -0.9774 -0.0622 -1.0809
  417MOL0     C56175   6.801   0.987   1.552  0.8314 -0.7887 -0.2299
  417MOL0     C56176   6.733   0.870   1.625 -0.5060 -0.6239  0.2156
  417MOL0     N56177   6.802   0.834   1.747  0.4124 -0.2308 -0.2762
  417MOL0     C56178   6.837   0.916   1.851  0.8105  0.1050 -0.3590
  417MOL0     C56179   6.907   0.831   1.936 -0.2343 -0.1941 -0.6403
  417MOL0     C56180   6.986   0.857   2.062 -0.6747  0.5653 -0.3203
  417MOL0     C56181   7.109   0.758   2.085  1.3291 -0.5938 -0.0731
  417MOL0     C56182   7.081   0.630   2.169 -0.2774  0.9268 -0.8161
  417MOL0     C56183   7.200   0.523   2.145 -0.1051 -0.3186 -0.2229
  417MOL0     O56184   7.193   0.475   2.005 -0.5199  1.2012  0.1505
  417MOL0     C56185   7.235   0.347   1.987 -0.2622  0.1802 -0.3658
  417MOL0     C56186   7.348   0.288   2.049 -0.3999 -1.3452  0.5922
  417MOL0     C56187   7.388   0.157   2.029 -0.7795 -1.1398  0.1067
  417MOL0     C56188   7.311   0.073   1.950  0.4618  1.0622 -0.3140
  417MOL0     C56189   7.341  -0.070   1.936  0.1872  0.7833 -0.1670
  417MOL0     O56190   7.252  -0.157   1.874  0.6322 -1.2057 -0.1711
  417MOL0     C56191   7.286  -0.288   1.880 -0.8927 -0.3081 -0.4786
  417MOL0     C56192   7.282  -0.365   1.990  1.3686 -1.0127 -0.2426
  417MOL0     C56193   7.353  -0.483   1.997  0.4662 -0.3076  0.3292
  417MOL0     C56194   7.400  -0.539   1.883 -0.0848 -0.2292 -0.2935
  417MOL0     O56195   7.464  -0.656   1.865 -0.2175 -0.5797 -0.1967
  417MOL0     C56196   7.570  -0.693   1.956  0.0276 -0.6820 -0.2118
  417MOL0     C56197   7.519  -0.776   2.070 -0.4840  0.2222 -0.2571
  417MOL0     C56198   7.541  -0.935   2.062 -0.2797 -0.3621  0.2188
  417MOL0     C56199   7.692  -0.971   2.046 -0.1494  0.0438 -1.3832
  417MOL0     C56200   7.712  -1.127   2.030  0.4944  0.0848  0.2478
  417MOL0     C56201   7.656  -1.212   2.143 -0.6142 -0.5204  0.3376
  417MOL0     C56202   7.665  -1.355   2.099  0.1763  0.8041 -1.0317
  417MOL0     C56203   7.567  -1.430   2.191  0.3065  0.3659  0.7708
  417MOL0    Cl56204   7.601  -1.404   2.360 -0.6519  0.2304  0.1862
  417MOL0     C56205   7.391  -0.468   1.769  0.2719 -0.0397 -0.0384
  417MOL0     C56206   7.336  -0.343   1.761  0.1251 -0.7788 -0.1531
  417MOL0     O56207   7.446  -0.106   1.987  0.1683 -1.5400  0.0057
  417MOL0     C56208   7.189   0.123   1.899  0.0689  0.2677  0.3253
  417MOL0     C56209   7.154   0.261   1.909 -0.3864  0.3960  0.5272
  417MOL0     N56210   6.903   0.712   1.876 -0.6733  0.4515 -0.0762
  417MOL0     N56211   6.827   0.708   1.773 -0.4442 -0.5910 -0.6228
  417MOL0     C56212   7.489   1.312   1.252  0.3555  0.0554  0.3119
  417MOL0     C56213   7.612   1.318   1.321 -0.4720  0.5694 -1.0283
  417MOL0     C56214   7.991   1.124   1.503 -0.4224  0.3781  0.0139
  417MOL0     C56215   8.122   1.131   1.443  0.9585  0.9164 -1.1286
  417MOL0     C56216   8.232   1.081   1.522  0.0977  0.3283 -0.1502
  417MOL0     C56217   8.224   1.047   1.653 -0.3359  0.4143  0.5330
  417MOL0     O56218   8.330   1.009   1.734  0.1022 -0.4716 -0.0228
  417MOL0     C56219   8.455   1.080   1.724  0.3789  0.5745 -0.4456
  417MOL0     C56220   8.556   1.044   1.838  0.4713 -0.1459 -0.4276
  417MOL0     C56221   8.565   0.886   1.860 -0.2144  0.3748 -0.2670
  417MOL0     C56222   8.667   0.853   1.964  0.9211 -0.7108 -0.5741
  417MOL0     C56223   8.630   0.928   2.090 -0.3180  0.2044  0.0950
  417MOL0     C56224   8.587   0.984   2.188 -0.4171 -1.2497 -0.9879
  417MOL0     C56225   8.094   1.050   1.710 -0.0646  0.9713  0.8654
  417MOL0     C56226   7.985   1.075   1.637  0.0802 -0.1112  0.9229
  417MOL0     C56227   7.836   1.060   1.694 -0.5067 -0.0980 -0.7095
  417MOL0     H56228   7.592   1.041   1.508  0.5481  0.9903  0.6137
  417MOL0     H56229   7.363   1.036   1.404 -2.0639  1.6142 -0.5391
  417MOL0     H56230   7.182   1.040   1.308 -1.0318  0.3353  0.8254
  417MOL0     H56231   7.140   1.194   1.379 -3.1324  0.3123  0.1846
  417MOL0     H56232   7.075   1.108   1.086 -0.8953  2.2588 -1.2795
  417MOL0     H56233   7.019   1.258   1.143 -2.9273 -0.8946  0.1116
  417MOL0     H56234   6.915   1.023   1.270  1.8417 -1.0800 -2.4230
  417MOL0     H56235   6.839   1.112   1.138  1.5569 -0.1269 -1.0430
  417MOL0     H56236   6.917   1.226   1.427 -1.2862  3.6317 -0.3809
  417MOL0     H56237   6.832   1.310   1.305  1.2368 -0.2071  0.5174
  417MOL0     H56238   6.681   1.223   1.471  1.3230 -0.4577  0.5519
  417MOL0     H56239   6.641   1.194   1.308  2.2337  2.2651 -0.3042
  417MOL0     H56240   6.603   0.981   1.468 -1.2427 -1.3657 -2.8036
  417MOL0     H56241   6.721   0.955   1.341 -0.8821  1.0071 -1.7645
  417MOL0     H56242   6.807   1.081   1.607 -1.1404 -1.5188  1.4191
  417MOL0     H56243   6.903   0.964   1.520  0.5329 -1.8099 -0.4915
  417MOL0     H56244   6.633   0.900   1.657  0.6569 -0.1226  3.8161
  417MOL0     H56245   6.735   0.789   1.552  2.6938  2.5793 -3.7266
  417MOL0     H56246   6.813   1.021   1.863 -3.6967 -0.7420 -0.1281
  417MOL0     H56247   7.027   0.957   2.053  0.4449  0.0603 -0.9845
  417MOL0     H56248   6.931   0.838   2.155 -2.9898 -3.2697 -2.1920
  417MOL0     H56249   7.125   0.716   1.985  0.7481 -0.0038 -0.4284
  417MOL0     H56250   7.192   0.821   2.119  2.3088 -0.5924 -2.2932
  417MOL0     H56251   6.987   0.589   2.130  0.3890  2.2225 -4.0897
  417MOL0     H56252   7.069   0.658   2.274  1.0848  2.3479 -1.0128
  417MOL0     H56253   7.201   0.449   2.225 -1.6543  0.1999  0.3032
  417MOL0     H56254   7.295   0.577   2.141  1.1283 -2.4469 -1.9185
  417MOL0     H56255   7.395   0.357   2.118 -2.2294 -0.2158  0.7762
  417MOL0     H56256   7.473   0.121   2.086 -1.3537 -0.2501  1.5787
  417MOL0     H56257   7.254  -0.324   2.087  1.1796 -1.5998 -0.0438
  417MOL0     H56258   7.372  -0.524   2.096  0.3327  0.4168  0.6640
  417MOL0     H56259   7.635  -0.751   1.890 -1.5647 -0.3108 -2.1993
  417MOL0     H56260   7.627  -0.605   1.987  1.2083 -1.5433  0.1172
  417MOL0     H56261   7.570  -0.739   2.160 -3.2003 -0.5659  1.7243
  417MOL0     H56262   7.412  -0.768   2.092 -0.1858 -1.5304  2.2999
  417MOL0     H56263   7.509  -0.978   2.158  0.0595 -2.4863 -0.5703
  417MOL0     H56264   7.492  -0.978   1.975 -0.1277  0.7526 -0.4311
  417MOL0     H56265   7.769  -0.943   2.119 -0.1592 -2.3893 -0.3270
  417MOL0     H56266   7.726  -0.928   1.952 -0.4710  0.9908 -1.0716
  417MOL0     H56267   7.821  -1.134   2.030  0.9133  4.0177 -0.5808
  417MOL0     H56268   7.668  -1.167   1.938 -0.9125 -2.1859  1.7883
  417MOL0     H56269   7.721  -1.198   2.230 -2.0891  1.3270  1.2170
  417MOL0     H56270   7.554  -1.190   2.175 -1.5927 -0.4577 -2.5322
  417MOL0     H56271   7.768  -1.389   2.105 -0.1841 -0.1881 -0.1343
  417MOL0     H56272   7.654  -1.382   1.994  0.0482 -2.1081 -0.3596
  417MOL0     H56273   7.468  -1.393   2.161  0.4872 -0.3758 -0.8816
  417MOL0     H56274   7.560  -1.537   2.172 -2.1880  0.1316  2.6245
  417MOL0     H56275   7.427  -0.507   1.675  2.7936 -0.2903  0.9602
  417MOL0     H56276   7.346  -0.282   1.672  0.3632 -1.4082 -0.5613
  417MOL0     H56277   7.118   0.054   1.854  0.2866  0.8795 -0.9841
  417MOL0     H56278   7.066   0.301   1.861 -0.0859  0.4029 -0.0282
  417MOL0     H56279   7.460   1.378   1.171  0.0820  1.7761  1.7288
  417MOL0     H56280   7.692   1.390   1.309  1.1114 -0.8341  0.4640
  417MOL0     H56281   8.137   1.163   1.340  1.2724  1.6488 -0.8600
  417MOL0     H56282   8.321   1.069   1.461 -0.2214 -3.8978 -0.1153
  417MOL0     H56283   8.427   1.186   1.727  0.5366  0.5946  1.4432
  417MOL0     H56284   8.501   1.059   1.627  2.5394  1.3324  0.3584
  417MOL0     H56285   8.501   1.082   1.924 -1.2757  1.2681 -2.0949
  417MOL0     H56286   8.648   1.100   1.820 -1.3745  2.8820 -1.0667
  417MOL0     H56287   8.590   0.837   1.766 -3.3817 -1.5682 -0.2560
  417MOL0     H56288   8.466   0.853   1.894 -1.0120  4.3270  1.8925
  417MOL0     H56289   8.661   0.745   1.983 -0.8205 -0.9490 -2.2697
  417MOL0     H56290   8.766   0.880   1.927  0.2231  0.8516 -1.4049
  417MOL0     H56291   8.546   1.040   2.270  1.2490 -0.3204 -0.7536
  417MOL0     H56292   8.087   1.038   1.818  0.2654 -0.4984  0.7440
  417MOL0     H56293   7.770   1.148   1.696 -1.0263 -0.4889  1.1014
  417MOL0     H56294   7.796   0.979   1.633  2.3664 -2.1585 -0.0894
  417MOL0     H56295   7.838   1.025   1.798  1.6140  1.1506 -0.2567
  418MOL0     O56296   5.099   8.066   3.718  1.1994  0.0096  0.2620
  418MOL0     C56297   5.039   8.168   3.727 -0.0927  0.4791  0.5414
  418MOL0     O56298   5.076   8.279   3.789  0.1198  0.0805 -0.0493
  418MOL0     C56299   5.183   8.276   3.878  0.5832  0.3115  0.3497
  418MOL0     C56300   5.158   8.254   4.020  0.1435 -0.4038  0.5755
  418MOL0     C56301   5.258   8.255   4.110  0.6505  0.7386 -1.1556
  418MOL0     C56302   5.389   8.280   4.065 -0.0791 -1.1073 -0.1636
  418MOL0     O56303   5.488   8.265   4.155  0.1305 -0.1995 -0.5840
  418MOL0     C56304   5.614   8.209   4.112  0.6899  0.4888 -0.7902
  418MOL0     C56305   5.697   8.177   4.240  0.4660  0.0386 -1.1110
  418MOL0     C56306   5.741   8.309   4.310  0.2994  0.1877  0.0835
  418MOL0     C56307   5.809   8.284   4.447 -0.8436 -0.8143 -0.1072
  418MOL0     C56308   5.823   8.406   4.542  0.3289 -0.8014 -0.2116
  418MOL0     C56309   5.942   8.490   4.494  0.2088 -0.8869  0.6354
  418MOL0     C56310   5.972   8.608   4.581 -0.2154 -0.2935  1.1213
  418MOL0     C56311   5.881   8.721   4.548 -0.1888 -0.1631 -0.4111
  418MOL0     N56312   5.763   8.736   4.634 -0.2331  0.5382 -0.5904
  418MOL0     C56313   5.775   8.789   4.759 -0.3356  0.5088 -0.2427
  418MOL0     C56314   5.644   8.806   4.800 -0.1517  0.1482 -0.6493
  418MOL0     C56315   5.590   8.842   4.933 -1.2395 -0.3329  0.2382
  418MOL0     C56316   5.667   8.962   4.996  0.2893  0.5273  0.7714
  418MOL0     C56317   5.610   9.016   5.136 -0.9413  0.2875  0.2409
  418MOL0     C56318   5.624   8.909   5.247  1.4251 -0.3871 -0.2471
  418MOL0     O56319   5.746   8.824   5.229  0.1590 -0.0869  0.1798
  418MOL0     C56320   5.780   8.744   5.335  0.5799 -1.8553 -1.2070
  418MOL0     C56321   5.701   8.708   5.444  0.2974  0.1808 -0.0419
  418MOL0     C56322   5.741   8.628   5.546  0.3059  0.1584 -0.2663
  418MOL0     C56323   5.872   8.582   5.558 -0.1754  0.6450  0.2743
  418MOL0     C56324   5.934   8.522   5.682 -0.5846 -0.4949  0.3413
  418MOL0     O56325   5.844   8.503   5.791 -0.3299  0.0747 -0.3232
  418MOL0     C56326   5.896   8.441   5.904 -0.2088 -0.1680 -0.9685
  418MOL0     C56327   6.037   8.434   5.943  0.1120 -0.4870 -0.4583
  418MOL0     C56328   6.070   8.368   6.059 -0.4181 -0.2818  0.3744
  418MOL0     C56329   5.982   8.311   6.148  0.9468  1.2518  0.2887
  418MOL0     O56330   6.036   8.255   6.261  0.6001  0.1595  0.2329
  418MOL0     C56331   5.968   8.152   6.327 -0.2180 -0.1499 -0.1940
  418MOL0     C56332   6.069   8.090   6.430  0.7693 -0.3328 -1.0456
  418MOL0     C56333   5.991   7.990   6.530  0.8098 -0.3603 -0.2969
  418MOL0     C56334   6.069   7.970   6.654 -0.5152 -0.2487 -0.6403
  418MOL0     C56335   6.207   7.903   6.636  0.7009  0.8071 -0.1827
  418MOL0     C56336   6.183   7.764   6.582 -0.8372  0.2294 -0.1044
  418MOL0     C56337   6.109   7.678   6.682  0.4648  0.1064 -0.5309
  418MOL0     C56338   6.149   7.535   6.667 -0.4646 -0.4764  0.3753
  418MOL0    Cl56339   6.075   7.429   6.787 -0.2748  0.3011  0.4107
  418MOL0     C56340   5.852   8.309   6.114 -0.5800 -0.1708  0.5532
  418MOL0     C56341   5.804   8.379   6.001  0.0252 -0.0525  0.1366
  418MOL0     O56342   6.051   8.489   5.673  0.1620 -0.1013 -0.0821
  418MOL0     C56343   5.953   8.599   5.434 -0.8616 -0.2909 -0.0799
  418MOL0     C56344   5.909   8.691   5.325 -0.0439 -0.5326 -1.3249
  418MOL0     N56345   5.559   8.761   4.705  0.0998  0.2478  0.9380
  418MOL0     N56346   5.629   8.731   4.598  0.4040 -0.1785 -0.0608
  418MOL0     C56347   5.415   8.309   3.934 -0.0355 -0.6446 -0.7998
  418MOL0     C56348   5.317   8.304   3.835  0.7465 -0.1360  0.0757
  418MOL0     C56349   4.911   8.180   3.656 -0.8312 -0.3457  0.0999
  418MOL0     C56350   4.800   8.124   3.717  0.3733  0.1945  0.3578
  418MOL0     C56351   4.679   8.106   3.653 -0.0844  0.5776 -0.4501
  418MOL0     C56352   4.666   8.152   3.529 -1.1692  0.1376 -0.1202
  418MOL0     O56353   4.542   8.143   3.477  0.5045 -0.0899  0.2910
  418MOL0     C56354   4.466   8.265   3.499  0.4119 -0.1597 -0.7393
  418MOL0     C56355   4.316   8.215   3.521 -0.6257  0.1160 -0.8448
  418MOL0     C56356   4.262   8.182   3.375  0.4723 -0.7710  0.4367
  418MOL0     C56357   4.113   8.130   3.362  1.4567  0.6137  0.2966
  418MOL0     C56358   4.007   8.222   3.404 -0.4439  0.2564  0.4200
  418MOL0     C56359   3.913   8.291   3.435  0.0419  0.9745  1.1841
  418MOL0     C56360   4.771   8.222   3.461  0.5985 -0.2435 -0.0371
  418MOL0     C56361   4.894   8.223   3.528  0.1947 -0.8331  0.7708
  418MOL0     C56362   5.009   8.308   3.460  1.0359  0.6499 -0.7068
  418MOL0     H56363   5.058   8.221   4.049 -0.0526  1.0909  1.7060
  418MOL0     H56364   5.244   8.213   4.208  2.3328  1.3666 -0.6114
  418MOL0     H56365   5.602   8.131   4.037 -3.2062  2.6691 -2.6979
  418MOL0     H56366   5.668   8.292   4.065  1.6762  0.1177 -0.3363
  418MOL0     H56367   5.787   8.116   4.225  1.0815 -0.8339  4.0868
  418MOL0     H56368   5.637   8.119   4.311 -0.8848  3.0635  0.4233
  418MOL0     H56369   5.651   8.366   4.336  1.7721  2.0159  1.3750
  418MOL0     H56370   5.798   8.380   4.250 -0.7119  0.3352 -0.7355
  418MOL0     H56371   5.734   8.226   4.501 -5.0791  2.0456 -2.3064
  418MOL0     H56372   5.904   8.230   4.442 -0.0092  0.6298 -0.5793
  418MOL0     H56373   5.731   8.465   4.529  1.1039 -0.1051 -3.2110
  418MOL0     H56374   5.845   8.374   4.644  3.2809 -1.0619 -0.8537
  418MOL0     H56375   6.021   8.419   4.469 -0.0740 -0.9904  0.0191
  418MOL0     H56376   5.904   8.531   4.400 -0.6063 -0.3365  1.1905
  418MOL0     H56377   6.074   8.638   4.558 -0.2830 -0.5784  0.4094
  418MOL0     H56378   5.956   8.596   4.689 -1.0517 -2.7886  0.7923
  418MOL0     H56379   5.941   8.812   4.551 -2.6695  1.5420  2.1389
  418MOL0     H56380   5.845   8.720   4.444 -0.3107  3.6833 -0.5258
  418MOL0     H56381   5.869   8.796   4.814 -1.4366 -1.3547  1.9985
  418MOL0     H56382   5.485   8.867   4.917 -1.5692 -2.1382 -0.7969
  418MOL0     H56383   5.594   8.755   4.999 -0.9415  1.7201  3.1099
  418MOL0     H56384   5.772   8.932   5.004  1.5946  3.7468 -1.8164
  418MOL0     H56385   5.673   9.048   4.929  0.1306  1.7624  2.2851
  418MOL0     H56386   5.509   9.057   5.127 -1.1289  0.1685  1.6864
  418MOL0     H56387   5.676   9.099   5.161 -0.2734 -0.4050  0.8035
  418MOL0     H56388   5.530   8.852   5.249  1.5405 -0.5574  1.7003
  418MOL0     H56389   5.622   8.956   5.346 -4.4934  0.5827 -0.4251
  418MOL0     H56390   5.594   8.727   5.441 -0.1749 -2.1321 -2.5767
  418MOL0     H56391   5.666   8.602   5.620  0.6992 -0.7660 -0.1707
  418MOL0     H56392   6.118   8.489   5.896 -1.0179  1.3850 -0.3398
  418MOL0     H56393   6.178   8.371   6.073 -0.2356  3.0826 -0.7049
  418MOL0     H56394   5.870   8.177   6.368 -0.8504 -3.3115  0.4605
  418MOL0     H56395   5.951   8.066   6.261 -1.9737 -1.8382  2.2975
  418MOL0     H56396   6.155   8.044   6.381  0.4802 -0.0276 -1.8474
  418MOL0     H56397   6.102   8.177   6.488 -0.8358  1.0153 -2.0435
  418MOL0     H56398   5.887   8.019   6.547  0.3230 -1.8913 -0.4478
  418MOL0     H56399   5.988   7.899   6.469  1.0336  0.4609 -1.5635
  418MOL0     H56400   6.009   7.917   6.728  0.4136  0.7993  0.9003
  418MOL0     H56401   6.086   8.068   6.699 -0.1963 -1.1288  1.2508
  418MOL0     H56402   6.266   7.894   6.728  1.6776  1.6265 -0.7033
  418MOL0     H56403   6.272   7.961   6.569  1.3735  0.8280  0.4814
  418MOL0     H56404   6.135   7.758   6.484 -0.3582  1.2911 -0.4218
  418MOL0     H56405   6.281   7.718   6.570 -1.1949  0.0734 -3.1385
  418MOL0     H56406   6.003   7.669   6.656  0.3655 -0.7576  0.1140
  418MOL0     H56407   6.114   7.706   6.788 -0.6139 -0.0890 -0.4096
  418MOL0     H56408   6.132   7.490   6.568 -2.4341  0.6370  0.1737
  418MOL0     H56409   6.253   7.506   6.689 -0.6390 -2.2368 -0.8729
  418MOL0     H56410   5.781   8.269   6.185 -0.0725 -0.4608  0.9081
  418MOL0     H56411   5.702   8.384   5.966  0.2966 -5.1892 -2.3356
  418MOL0     H56412   6.054   8.560   5.438 -1.1217 -1.2724 -2.0072
  418MOL0     H56413   5.977   8.725   5.248  1.7894 -1.3093 -0.1240
  418MOL0     H56414   5.509   8.334   3.887  0.8479 -2.0736  0.1357
  418MOL0     H56415   5.343   8.318   3.731 -3.1653 -2.3129 -1.4290
  418MOL0     H56416   4.810   8.074   3.813  0.8599  0.2007  0.3153
  418MOL0     H56417   4.604   8.044   3.701  2.2371 -1.9592  0.1510
  418MOL0     H56418   4.464   8.337   3.417 -0.2530 -1.4221 -1.8609
  418MOL0     H56419   4.507   8.313   3.589  1.3079 -1.1422 -0.6105
  418MOL0     H56420   4.252   8.289   3.571 -0.0378  0.5020 -0.6475
  418MOL0     H56421   4.315   8.127   3.586  1.6214  0.1698 -0.6655
  418MOL0     H56422   4.321   8.103   3.327 -0.3935  1.1279 -4.3397
  418MOL0     H56423   4.268   8.273   3.314 -0.9001 -0.1080  1.2431
  418MOL0     H56424   4.089   8.113   3.256  1.3969  3.7848 -0.2859
  418MOL0     H56425   4.096   8.036   3.415 -0.5705  0.6260 -0.2445
  418MOL0     H56426   3.836   8.351   3.480 -1.9009 -0.6563  0.2106
  418MOL0     H56427   4.756   8.279   3.371 -0.8814  1.5429  1.2574
  418MOL0     H56428   4.953   8.382   3.402 -1.2749 -1.5602 -1.5358
  418MOL0     H56429   5.085   8.357   3.520  1.6731  1.9744 -2.5160
  418MOL0     H56430   5.060   8.233   3.399 -0.8292  0.2750 -1.8828
  419MOL0     O56431   3.902   4.141  10.480 -0.3069 -0.0300 -0.2591
  419MOL0     C56432   3.873   4.259  10.477  0.9913 -0.1028  0.8824
  419MOL0     O56433   3.869   4.331  10.358  0.5612  0.3259 -0.0191
  419MOL0     C56434   3.888   4.252  10.243  0.5850  0.2834 -0.5105
  419MOL0     C56435   3.788   4.171  10.191  0.6209 -0.2879 -0.0175
  419MOL0     C56436   3.816   4.081  10.093  0.0839  0.0242 -0.0997
  419MOL0     C56437   3.941   4.071  10.036  0.2154 -0.9103  0.3050
  419MOL0     O56438   3.960   3.967   9.947 -0.4836 -0.3074  0.2975
  419MOL0     C56439   4.092   3.939   9.900  0.2981  0.3215  0.4053
  419MOL0     C56440   4.111   3.799   9.841 -0.4137  0.6776  0.3323
  419MOL0     C56441   4.011   3.763   9.733  0.5209 -0.5511 -0.2433
  419MOL0     C56442   4.053   3.628   9.672  0.5406  0.5505 -0.8672
  419MOL0     C56443   3.941   3.585   9.576  0.0862  0.1304 -0.2297
  419MOL0     C56444   3.805   3.548   9.651 -0.3145 -0.4352  0.9025
  419MOL0     C56445   3.719   3.460   9.558 -0.2406 -1.0778 -0.5248
  419MOL0     C56446   3.646   3.524   9.432 -0.4438  0.8136  0.1261
  419MOL0     N56447   3.634   3.433   9.318 -1.3694 -1.5236  0.1153
  419MOL0     C56448   3.740   3.368   9.262  0.2296  0.8106 -0.1005
  419MOL0     C56449   3.685   3.300   9.163 -0.1025  0.3287  0.1755
  419MOL0     C56450   3.780   3.215   9.080 -0.2266 -0.0388  0.0700
  419MOL0     C56451   3.782   3.072   9.137 -0.3001  0.1398  0.6216
  419MOL0     C56452   3.644   3.014   9.120  0.4686 -0.9094 -1.0414
  419MOL0     C56453   3.635   2.863   9.153 -0.2800 -0.0986  0.9173
  419MOL0     O56454   3.654   2.836   9.288 -0.0711 -0.9231 -0.6457
  419MOL0     C56455   3.597   2.723   9.341  1.3362 -0.4150 -0.4318
  419MOL0     C56456   3.548   2.731   9.468  0.6350 -0.4803 -0.7873
  419MOL0     C56457   3.468   2.641   9.539 -0.7801  0.4852  0.2168
  419MOL0     C56458   3.438   2.525   9.461  0.1364 -0.2172 -0.4017
  419MOL0     C56459   3.350   2.411   9.527  0.3396  0.6738 -0.4554
  419MOL0     O56460   3.290   2.435   9.651 -0.5970 -0.9004 -0.3953
  419MOL0     C56461   3.205   2.343   9.700 -0.2474  0.0108 -0.4559
  419MOL0     C56462   3.253   2.232   9.783  0.0108 -1.0062 -0.9687
  419MOL0     C56463   3.165   2.146   9.845  0.0363  0.5748 -0.3807
  419MOL0     C56464   3.022   2.178   9.835  1.2016  0.1167  0.5305
  419MOL0     O56465   2.938   2.087   9.895  0.2638 -0.1239 -0.3033
  419MOL0     C56466   2.800   2.062   9.857  0.1773  0.1127 -0.2049
  419MOL0     C56467   2.698   2.138   9.949 -0.1128 -1.3383 -0.2791
  419MOL0     C56468   2.555   2.103   9.903  0.8714  0.5592  0.2554
  419MOL0     C56469   2.452   2.145  10.009  0.9484 -0.8286  0.2502
  419MOL0     C56470   2.310   2.073   9.995  0.0019  0.6948 -0.1269
  419MOL0     C56471   2.198   2.134  10.074  0.2097  1.5656  0.6827
  419MOL0     C56472   2.061   2.074  10.043  0.0329 -0.2698  0.0302
  419MOL0     C56473   2.042   1.929  10.083 -0.9143 -0.3721  0.0708
  419MOL0    Cl56474   2.021   1.917  10.270  0.2240 -0.2736  0.1676
  419MOL0     C56475   2.972   2.279   9.750  0.4803  0.1645  0.0680
  419MOL0     C56476   3.069   2.355   9.687 -0.6771 -1.1587  1.1742
  419MOL0     O56477   3.350   2.300   9.476 -0.0794 -0.0545  0.1385
  419MOL0     C56478   3.469   2.516   9.327 -0.1995 -0.7581  0.6586
  419MOL0     C56479   3.556   2.609   9.271 -0.0278  1.1133 -0.0741
  419MOL0     N56480   3.550   3.332   9.143 -0.0324  0.6430 -0.3060
  419MOL0     N56481   3.521   3.404   9.244  0.4935 -0.0433  0.3540
  419MOL0     C56482   4.044   4.154  10.081 -0.4730 -0.3018  0.2528
  419MOL0     C56483   4.014   4.249  10.184 -0.0402  0.4454 -1.0310
  419MOL0     C56484   3.878   4.348  10.601  0.3770  0.3830  0.6758
  419MOL0     C56485   3.945   4.472  10.587 -0.5262  0.1216 -0.8504
  419MOL0     C56486   3.939   4.569  10.689  0.2110  1.1057 -0.8162
  419MOL0     C56487   3.866   4.542  10.802  1.0473  0.4744  0.4415
  419MOL0     O56488   3.853   4.629  10.904 -0.3879 -0.3548 -0.3766
  419MOL0     C56489   3.711   4.665  10.918 -0.5134  0.7889  0.9607
  419MOL0     C56490   3.710   4.817  10.879 -0.3076  1.0061  0.2865
  419MOL0     C56491   3.695   4.830  10.730 -0.0468 -0.1609  0.2650
  419MOL0     C56492   3.683   4.980  10.688  0.4292 -0.3509  0.5531
  419MOL0     C56493   3.572   5.042  10.759  0.6657 -0.1398 -0.1770
  419MOL0     C56494   3.481   5.099  10.816 -0.1737 -0.5209  0.8474
  419MOL0     C56495   3.802   4.419  10.814  0.0079  0.8712 -0.5431
  419MOL0     C56496   3.805   4.319  10.714  0.2077  0.4184  0.3131
  419MOL0     C56497   3.737   4.192  10.726  0.7744  0.4169  0.5083
  419MOL0     H56498   3.688   4.162  10.233  0.1575 -0.3135 -1.0876
  419MOL0     H56499   3.740   4.014  10.055  1.4343 -0.1503 -2.7224
  419MOL0     H56500   4.115   4.007   9.817 -0.5031 -0.5003 -0.5130
  419MOL0     H56501   4.175   3.961   9.967  1.3989 -0.3013 -0.7012
  419MOL0     H56502   4.112   3.729   9.925  3.5187  0.2949  0.1157
  419MOL0     H56503   4.213   3.808   9.802  0.2847  3.0869  2.4120
  419MOL0     H56504   3.999   3.834   9.651 -1.0169 -0.4074  0.0843
  419MOL0     H56505   3.913   3.756   9.781  2.0385  0.4833  3.2808
  419MOL0     H56506   4.141   3.636   9.609 -0.9674 -1.4443 -3.4013
  419MOL0     H56507   4.057   3.554   9.753 -2.5508  2.7861  1.6354
  419MOL0     H56508   3.936   3.668   9.505  1.9537 -3.2317 -4.7427
  419MOL0     H56509   3.979   3.501   9.518 -1.6507  0.7158 -2.3299
  419MOL0     H56510   3.834   3.489   9.738 -0.6978 -0.1119  1.2492
  419MOL0     H56511   3.742   3.633   9.678  0.0632 -0.3545  1.5538
  419MOL0     H56512   3.641   3.428   9.628 -0.6208  0.8647  0.0263
  419MOL0     H56513   3.785   3.378   9.531  0.7073 -1.5257  2.7011
  419MOL0     H56514   3.543   3.550   9.456  0.2220  2.3891  1.5728
  419MOL0     H56515   3.701   3.610   9.391  2.2810  0.8475  3.3637
  419MOL0     H56516   3.843   3.371   9.298 -0.9360 -0.0230  3.7014
  419MOL0     H56517   3.770   3.228   8.972  2.4333  2.8794  0.0339
  419MOL0     H56518   3.884   3.247   9.093 -0.0264 -1.4084  2.2221
  419MOL0     H56519   3.858   3.022   9.076 -1.2063  0.5193 -0.8675
  419MOL0     H56520   3.807   3.075   9.243 -1.0455 -3.5682  1.0222
  419MOL0     H56521   3.614   3.028   9.016 -3.2514 -1.5745 -0.1995
  419MOL0     H56522   3.575   3.070   9.184  1.5992 -2.6228  1.8544
  419MOL0     H56523   3.719   2.808   9.111  0.7321  0.1498  2.5363
  419MOL0     H56524   3.540   2.823   9.115 -1.0792  2.4453  0.0137
  419MOL0     H56525   3.582   2.820   9.522 -0.8598  0.5206 -1.4385
  419MOL0     H56526   3.435   2.649   9.643 -1.4396  1.8625 -0.0712
  419MOL0     H56527   3.361   2.222   9.785 -0.1375 -2.8425  0.1478
  419MOL0     H56528   3.191   2.049   9.888  1.2475  2.4783  3.6831
  419MOL0     H56529   2.782   2.081   9.751  1.0057  2.6365  0.0396
  419MOL0     H56530   2.795   1.954   9.873  1.8974  0.0197 -0.0498
  419MOL0     H56531   2.699   2.129  10.058 -1.3175 -1.4839 -0.2669
  419MOL0     H56532   2.711   2.245   9.930  1.7877 -1.0926  1.8843
  419MOL0     H56533   2.531   2.153   9.809 -2.2621 -0.3873  0.4441
  419MOL0     H56534   2.547   1.997   9.876  2.2225 -0.1741  2.4695
  419MOL0     H56535   2.446   2.254   9.999 -0.0148 -0.9387 -0.5186
  419MOL0     H56536   2.481   2.117  10.111 -1.2404 -3.0409  0.3749
  419MOL0     H56537   2.316   1.969  10.029  1.6888  1.2572  1.5321
  419MOL0     H56538   2.279   2.074   9.891 -2.8094  0.6000  0.6311
  419MOL0     H56539   2.213   2.112  10.180  3.0585 -2.6416 -0.3284
  419MOL0     H56540   2.194   2.243  10.061  0.9912  1.4913 -0.3248
  419MOL0     H56541   2.039   2.087   9.937 -1.1540  2.4110  0.5190
  419MOL0     H56542   1.995   2.133  10.107 -0.0250 -0.3775  0.0698
  419MOL0     H56543   1.954   1.894  10.028 -1.1150 -1.6795  1.1723
  419MOL0     H56544   2.124   1.861  10.060 -3.7051 -3.5988 -1.2922
  419MOL0     H56545   2.865   2.285   9.731 -0.5397 -0.7186  4.3355
  419MOL0     H56546   3.030   2.429   9.619  1.5199 -1.4477 -0.5263
  419MOL0     H56547   3.443   2.432   9.263  1.7313 -1.0633  0.2367
  419MOL0     H56548   3.599   2.593   9.173 -2.3979 -0.5633 -0.9117
  419MOL0     H56549   4.147   4.137  10.053  0.1831  0.6959  1.9337
  419MOL0     H56550   4.097   4.313  10.211  0.6163 -1.1498  0.9658
  419MOL0     H56551   4.002   4.490  10.497  1.7561 -0.5378  0.3889
  419MOL0     H56552   3.992   4.664  10.687  1.0505  1.0065  3.8907
  419MOL0     H56553   3.676   4.644  11.020  0.3993  0.4065  1.2079
  419MOL0     H56554   3.652   4.611  10.844 -0.7011  0.9970  0.9585
  419MOL0     H56555   3.803   4.869  10.904 -1.4079  1.9724  2.8056
  419MOL0     H56556   3.627   4.860  10.936  0.3111 -0.0159  2.0503
  419MOL0     H56557   3.602   4.783  10.696 -1.2203  0.9796  1.7472
  419MOL0     H56558   3.780   4.795  10.671  1.5017  2.5695  0.7125
  419MOL0     H56559   3.781   5.028  10.694 -0.2221  1.3321 -1.2434
  419MOL0     H56560   3.667   4.991  10.580  4.6511  4.3427  0.0220
  419MOL0     H56561   3.402   5.154  10.863 -0.4421 -1.4480  1.5049
  419MOL0     H56562   3.756   4.406  10.912 -0.1836  1.1191 -0.5991
  419MOL0     H56563   3.810   4.112  10.717  1.8328  1.2067  1.6634
  419MOL0     H56564   3.691   4.193  10.825  0.7945  2.9759  0.5594
  419MOL0     H56565   3.653   4.165  10.662 -1.7672  2.0008  2.9266
  420MOL0     O56566   0.017  11.070   0.452 -0.1853 -0.5911  1.0329
  420MOL0     C56567   0.084  11.066   0.348  0.0397 -0.2438  0.7298
  420MOL0     O56568   0.092  11.172   0.269  0.1141 -0.7466 -0.6857
  420MOL0     C56569   0.014  11.280   0.316 -0.7636 -0.0965  1.1102
  420MOL0     C56570  -0.115  11.301   0.271  0.9306 -0.4896 -1.3924
  420MOL0     C56571  -0.205  11.387   0.327  0.0557 -0.6626 -0.0078
  420MOL0     C56572  -0.144  11.489   0.411  0.4824  0.2439 -0.4477
  420MOL0     O56573  -0.206  11.599   0.469 -0.5041 -0.2813  0.2984
  420MOL0     C56574  -0.303  11.660   0.382 -0.2062  0.4444  0.4222
  420MOL0     C56575  -0.449  11.601   0.385 -0.0150 -0.4721 -0.4457
  420MOL0     C56576  -0.506  11.644   0.523 -0.2851  0.1668  1.5574
  420MOL0     C56577  -0.584  11.773   0.502 -1.2823  0.4723 -0.4232
  420MOL0     C56578  -0.666  11.822   0.623  0.1714 -0.6276  0.5840
  420MOL0     C56579  -0.707  11.967   0.627  0.7778 -0.2382 -0.5126
  420MOL0     C56580  -0.591  12.064   0.646 -0.2254  0.7274  0.2658
  420MOL0     C56581  -0.629  12.204   0.654  1.2523 -0.0444 -0.3384
  420MOL0     N56582  -0.665  12.269   0.528  0.4767 -0.0909 -0.0721
  420MOL0     C56583  -0.630  12.397   0.491 -0.0308  0.3847 -0.1259
  420MOL0     C56584  -0.672  12.409   0.368 -0.5883  0.5481  0.6867
  420MOL0     C56585  -0.630  12.506   0.262  0.1018  0.1337  0.5567
  420MOL0     C56586  -0.540  12.411   0.167 -0.4059  0.0295 -0.5674
  420MOL0     C56587  -0.504  12.497   0.038 -0.0021 -0.8408 -0.9513
  420MOL0     C56588  -0.488  12.645   0.046 -0.2725  0.9697 -0.9586
  420MOL0     O56589  -0.404  12.691  -0.063 -0.4438  0.2222  0.4020
  420MOL0     C56590  -0.369  12.823  -0.084  0.4181 -0.6940  0.3670
  420MOL0     C56591  -0.260  12.852  -0.168 -0.6196  0.5349 -0.9127
  420MOL0     C56592  -0.218  12.987  -0.181 -0.0315  1.0836 -0.6069
  420MOL0     C56593  -0.285  13.093  -0.109  1.1025 -0.3450 -0.6784
  420MOL0     C56594  -0.237  13.235  -0.115 -0.6818  1.0019  0.7875
  420MOL0     O56595  -0.316  13.336  -0.105 -0.6096  0.2612  0.1117
  420MOL0     C56596  -0.262  13.463  -0.081  0.2565 -0.1901  0.7417
  420MOL0     C56597  -0.285  13.559  -0.180  1.0003 -0.6190 -0.4601
  420MOL0     C56598  -0.260  13.700  -0.174  0.8800  0.4439 -0.1979
  420MOL0     C56599  -0.194  13.741  -0.053  1.1236  0.6349  0.1868
  420MOL0     O56600  -0.171  13.867  -0.019  0.3562 -0.1408  0.3751
  420MOL0     C56601  -0.078  13.930  -0.110 -0.2577  0.7919 -0.7819
  420MOL0     C56602   0.049  13.946  -0.020  0.0506 -0.0721  0.3465
  420MOL0     C56603   0.178  13.936  -0.100  0.3752  0.0377  0.0527
  420MOL0     C56604   0.301  13.900  -0.018  0.6743 -0.0759 -0.2876
  420MOL0     C56605   0.367  14.019   0.057  0.5569 -0.8389  0.3140
  420MOL0     C56606   0.457  14.109  -0.031 -0.8944  0.4319  0.6293
  420MOL0     C56607   0.512  14.230   0.045 -1.1794  0.6841  0.0762
  420MOL0     C56608   0.523  14.354  -0.054 -0.2298  0.2686 -0.6179
  420MOL0    Cl56609   0.673  14.455  -0.022  0.1377 -0.1250  0.0931
  420MOL0     C56610  -0.153  13.643   0.037  0.2971  0.3361  0.3921
  420MOL0     C56611  -0.188  13.504   0.028  0.1185 -0.0340  0.0146
  420MOL0     O56612  -0.116  13.240  -0.135 -0.7147 -0.3783  0.4585
  420MOL0     C56613  -0.394  13.063  -0.027  1.0214 -0.8302 -0.0803
  420MOL0     C56614  -0.434  12.931  -0.016  0.2245  0.5110 -0.1505
  420MOL0     N56615  -0.749  12.294   0.335 -0.1314 -1.4536 -0.1464
  420MOL0     N56616  -0.741  12.209   0.428 -0.8468 -0.6881 -0.4256
  420MOL0     C56617  -0.008  11.478   0.447  0.5783 -0.3327 -0.4003
  420MOL0     C56618   0.072  11.374   0.399  0.4360  0.6547 -1.0913
  420MOL0     C56619   0.193  10.977   0.328 -1.1407  0.6917 -0.5656
  420MOL0     C56620   0.223  10.924   0.201  0.0629  0.0201  0.0757
  420MOL0     C56621   0.316  10.823   0.184 -0.1561  0.9698  0.0471
  420MOL0     C56622   0.373  10.755   0.295  0.2833 -1.3101  0.2676
  420MOL0     O56623   0.472  10.665   0.265  0.0088 -0.3255  0.6567
  420MOL0     C56624   0.546  10.587   0.357  0.0826 -0.0370  0.6160
  420MOL0     C56625   0.621  10.473   0.288 -0.2488  0.4304 -1.1182
  420MOL0     C56626   0.729  10.509   0.184 -0.9277  0.5753  0.9923
  420MOL0     C56627   0.739  10.412   0.063  0.2864  0.7880 -0.0518
  420MOL0     C56628   0.749  10.271   0.102  0.1168 -0.4003  0.5643
  420MOL0     C56629   0.752  10.159   0.139 -0.6861 -0.2880  0.9482
  420MOL0     C56630   0.357  10.807   0.426 -0.5537  0.5195  0.6329
  420MOL0     C56631   0.268  10.921   0.440  0.7195 -0.1551  0.1190
  420MOL0     C56632   0.259  10.980   0.568 -0.8772  0.1786 -0.2548
  420MOL0     H56633  -0.164  11.226   0.211  0.8321 -1.3614 -0.2678
  420MOL0     H56634  -0.307  11.386   0.291  0.5384 -1.4359 -1.4302
  420MOL0     H56635  -0.323  11.762   0.415 -3.4829  1.1041 -2.8379
  420MOL0     H56636  -0.261  11.672   0.281  2.3616 -2.7549  0.9501
  420MOL0     H56637  -0.457  11.492   0.377 -0.3859 -0.4399 -0.5209
  420MOL0     H56638  -0.509  11.642   0.303  1.2262  1.6133 -0.3890
  420MOL0     H56639  -0.423  11.642   0.595 -0.4064 -2.0525  1.6974
  420MOL0     H56640  -0.569  11.564   0.563 -0.3902 -0.5586  0.0150
  420MOL0     H56641  -0.504  11.847   0.492 -0.9851  0.3328  0.7998
  420MOL0     H56642  -0.648  11.774   0.414  0.0673  4.1988 -1.5265
  420MOL0     H56643  -0.759  11.764   0.622 -0.3421  0.1210  2.1324
  420MOL0     H56644  -0.620  11.801   0.720 -1.4705 -0.3840  1.4583
  420MOL0     H56645  -0.762  11.998   0.538  1.0414 -0.6157 -0.8103
  420MOL0     H56646  -0.775  11.983   0.712 -1.9962  0.7384 -2.7611
  420MOL0     H56647  -0.538  12.056   0.551 -0.5782  0.8134  0.0641
  420MOL0     H56648  -0.525  12.048   0.732  2.0453 -1.0863 -1.6551
  420MOL0     H56649  -0.718  12.225   0.715  2.6114  0.1459  1.6652
  420MOL0     H56650  -0.552  12.260   0.708 -0.3393 -0.5193  2.6548
  420MOL0     H56651  -0.564  12.463   0.548  0.3932 -0.4290  0.3427
  420MOL0     H56652  -0.713  12.552   0.208 -0.0491  1.3475  1.7752
  420MOL0     H56653  -0.574  12.589   0.306  0.6091 -0.0422  0.2548
  420MOL0     H56654  -0.456  12.375   0.227 -1.7640 -1.2551  0.6336
  420MOL0     H56655  -0.595  12.321   0.139  0.2860 -0.9171  0.9836
  420MOL0     H56656  -0.597  12.485  -0.018 -0.7052  1.3952 -0.3593
  420MOL0     H56657  -0.423  12.451  -0.019  1.8027  1.0735 -0.0736
  420MOL0     H56658  -0.443  12.680   0.139  0.7231 -1.2208 -0.5637
  420MOL0     H56659  -0.587  12.687   0.027 -0.0759  0.7387 -2.6584
  420MOL0     H56660  -0.206  12.773  -0.218 -0.9604 -1.2740  1.4183
  420MOL0     H56661  -0.123  13.012  -0.227  1.0137  1.7513  1.7383
  420MOL0     H56662  -0.344  13.511  -0.258 -2.1698 -1.2491  2.1236
  420MOL0     H56663  -0.297  13.756  -0.259  0.7688  1.5978  0.5870
  420MOL0     H56664  -0.060  13.880  -0.206 -1.1282 -1.0029 -0.0490
  420MOL0     H56665  -0.111  14.031  -0.136 -0.0275  0.8487 -0.8547
  420MOL0     H56666   0.047  14.049   0.017 -1.5989  1.3163 -3.0948
  420MOL0     H56667   0.058  13.865   0.053 -2.3750  1.1287  2.1464
  420MOL0     H56668   0.146  13.854  -0.166 -2.7056  0.1716  1.1765
  420MOL0     H56669   0.192  14.033  -0.148  1.2403  0.1120  0.4447
  420MOL0     H56670   0.383  13.859  -0.077  0.9926  0.3850 -0.1787
  420MOL0     H56671   0.279  13.820   0.053  1.0050 -2.1794 -2.4577
  420MOL0     H56672   0.432  13.975   0.134  2.4872  0.7219 -0.3278
  420MOL0     H56673   0.297  14.090   0.102  2.6263  1.8959 -0.4757
  420MOL0     H56674   0.537  14.056  -0.083  0.4822  0.8795  2.2267
  420MOL0     H56675   0.390  14.152  -0.107  0.1593 -1.2170 -1.3282
  420MOL0     H56676   0.618  14.204   0.053 -0.9801  1.2782 -0.5149
  420MOL0     H56677   0.454  14.251   0.135 -1.6382 -1.0843  0.2378
  420MOL0     H56678   0.539  14.314  -0.155  0.0556 -0.9629 -0.1138
  420MOL0     H56679   0.429  14.408  -0.039 -1.5330 -2.2170  0.8804
  420MOL0     H56680  -0.083  13.674   0.114 -0.6412 -0.2009  1.4925
  420MOL0     H56681  -0.155  13.432   0.102 -0.2440 -1.8687 -1.5268
  420MOL0     H56682  -0.447  13.128   0.042 -4.1641 -3.3952 -1.1054
  420MOL0     H56683  -0.520  12.920   0.050  0.1398 -1.4371 -0.5031
  420MOL0     H56684   0.030  11.543   0.525 -1.6375 -1.7831  2.1117
  420MOL0     H56685   0.176  11.376   0.429  0.3612  2.9864 -0.7424
  420MOL0     H56686   0.170  10.968   0.117  2.8971  1.7615 -0.9370
  420MOL0     H56687   0.345  10.789   0.085  2.3827  0.5010  0.8972
  420MOL0     H56688   0.475  10.549   0.431  0.8700 -1.3598  0.7313
  420MOL0     H56689   0.614  10.660   0.402  0.9212  1.1178 -2.2824
  420MOL0     H56690   0.540  10.415   0.242 -0.9553  0.6542 -0.1943
  420MOL0     H56691   0.675  10.408   0.356  3.1701  3.1306 -0.9873
  420MOL0     H56692   0.823  10.534   0.233  0.9023 -3.8675  0.2408
  420MOL0     H56693   0.704  10.604   0.135  2.9025  1.2054 -0.0581
  420MOL0     H56694   0.646  10.427   0.006 -1.3804 -0.8020  2.0885
  420MOL0     H56695   0.824  10.442   0.000  0.2246 -0.8626 -0.9969
  420MOL0     H56696   0.750  10.060   0.179  0.8264  0.3887  2.8555
  420MOL0     H56697   0.403  10.763   0.513  1.6976  1.7848  0.1699
  420MOL0     H56698   0.258  11.089   0.557 -0.0033  0.2419  0.1678
  420MOL0     H56699   0.168  10.942   0.615 -0.8277 -0.2684 -0.5145
  420MOL0     H56700   0.347  10.952   0.626  1.2909  1.0954 -2.8559
  421MOL0     O56701   6.018   2.374   9.007  0.4723 -1.1047 -0.1063
  421MOL0     C56702   5.999   2.495   8.996 -0.6300  0.2116  0.3375
  421MOL0     O56703   5.880   2.568   9.030  0.3767 -0.4959  0.0677
  421MOL0     C56704   5.772   2.505   9.074  0.5214  0.0517 -0.8406
  421MOL0     C56705   5.770   2.408   9.168 -0.5346  0.9927 -0.6023
  421MOL0     C56706   5.648   2.356   9.213 -0.2634 -1.2855 -0.4325
  421MOL0     C56707   5.528   2.411   9.165  0.7949  0.4093  0.2379
  421MOL0     O56708   5.420   2.348   9.210  0.7057 -0.4887  0.7446
  421MOL0     C56709   5.335   2.418   9.306  0.3772  0.1841  0.4391
  421MOL0     C56710   5.215   2.332   9.339 -0.0028 -0.2688  0.0348
  421MOL0     C56711   5.245   2.185   9.395  0.3864  0.2815 -0.6568
  421MOL0     C56712   5.235   2.077   9.283 -0.5632  1.2715  0.4109
  421MOL0     C56713   5.230   1.928   9.328 -0.1285  0.8860  0.7991
  421MOL0     C56714   5.351   1.884   9.407 -0.1888  0.0076 -0.7855
  421MOL0     C56715   5.487   1.911   9.344  0.3433  0.4239 -0.0967
  421MOL0     C56716   5.574   1.777   9.326 -0.2338 -0.1157  0.2258
  421MOL0     N56717   5.505   1.675   9.256 -0.1847 -0.6155  0.6199
  421MOL0     C56718   5.519   1.654   9.118  0.5407  0.2311  0.2661
  421MOL0     C56719   5.507   1.517   9.094 -0.1225  0.6656 -0.6616
  421MOL0     C56720   5.527   1.437   8.973  0.6290  0.2143  0.5543
  421MOL0     C56721   5.599   1.301   9.013  0.4539 -0.3656  0.3486
  421MOL0     C56722   5.638   1.247   8.877  0.3124 -0.1876 -0.1605
  421MOL0     C56723   5.675   1.094   8.878  0.8231  0.5734 -0.0134
  421MOL0     O56724   5.557   1.013   8.872  0.6489  0.9195 -0.3427
  421MOL0     C56725   5.524   0.929   8.984  1.1213 -0.8146  0.4003
  421MOL0     C56726   5.384   0.899   8.991 -0.5383  0.8860 -0.0993
  421MOL0     C56727   5.334   0.805   9.077  0.1673  0.2793  0.3606
  421MOL0     C56728   5.416   0.732   9.165 -0.0615 -0.8692 -0.5148
  421MOL0     C56729   5.357   0.633   9.261 -0.7194 -0.1328  0.6251
  421MOL0     O56730   5.453   0.543   9.301 -0.5389 -0.0403 -0.1825
  421MOL0     C56731   5.402   0.425   9.343 -0.4106  0.6524 -0.9497
  421MOL0     C56732   5.345   0.329   9.256  0.2064  0.9591  0.9987
  421MOL0     C56733   5.302   0.209   9.322  0.0507  0.5068 -0.0319
  421MOL0     C56734   5.278   0.202   9.463 -0.8503 -0.0013 -0.7683
  421MOL0     O56735   5.231   0.097   9.529  0.4075 -0.0217 -0.2175
  421MOL0     C56736   5.239  -0.028   9.463  0.8217  0.2027 -0.2712
  421MOL0     C56737   5.172  -0.132   9.551 -0.1846  0.2639 -0.3244
  421MOL0     C56738   5.192  -0.274   9.514  0.2139  0.4891 -0.5842
  421MOL0     C56739   5.145  -0.321   9.369  0.1492 -0.4932  0.1766
  421MOL0     C56740   5.009  -0.258   9.327  0.0116 -0.0169  0.0653
  421MOL0     C56741   4.972  -0.274   9.180  0.0805 -0.0243 -0.0770
  421MOL0     C56742   4.856  -0.187   9.137 -1.0531 -0.5681  0.2367
  421MOL0     C56743   4.886  -0.033   9.112  0.1672  0.3391  0.7429
  421MOL0    Cl56744   4.742   0.037   9.067 -0.0284 -0.4981  0.0635
  421MOL0     C56745   5.338   0.292   9.547 -0.2595  0.4972  0.2063
  421MOL0     C56746   5.395   0.406   9.488  0.4234  0.6969 -0.1718
  421MOL0     O56747   5.233   0.620   9.267 -0.6114  0.4792  0.7810
  421MOL0     C56748   5.545   0.789   9.183  0.2582 -0.7843  0.8531
  421MOL0     C56749   5.595   0.881   9.087  1.0002 -0.3522 -0.2429
  421MOL0     N56750   5.472   1.468   9.218  0.4561  0.1182 -0.2029
  421MOL0     N56751   5.475   1.555   9.310  1.0527 -0.1968  0.5186
  421MOL0     C56752   5.528   2.504   9.063 -0.8595  0.2333 -1.0222
  421MOL0     C56753   5.648   2.553   9.037 -0.6595 -0.5293  0.3670
  421MOL0     C56754   6.117   2.573   8.959 -0.3362  0.7514 -0.1032
  421MOL0     C56755   6.146   2.692   9.021  1.7554 -0.4422  0.9257
  421MOL0     C56756   6.268   2.761   8.999  0.1444  0.0143  0.0952
  421MOL0     C56757   6.359   2.709   8.914 -0.1427 -0.4989  0.5547
  421MOL0     O56758   6.492   2.757   8.877 -0.6051  0.4331 -0.2459
  421MOL0     C56759   6.525   2.893   8.912 -0.7381 -0.9848 -0.3932
  421MOL0     C56760   6.651   2.935   8.831 -0.2440  0.7278  0.9117
  421MOL0     C56761   6.687   3.071   8.846  0.2314 -0.5617  0.1164
  421MOL0     C56762   6.713   3.142   8.985  0.4832 -0.3219 -0.6081
  421MOL0     C56763   6.780   3.280   8.960  0.4687 -0.2631 -0.5754
  421MOL0     C56764   6.838   3.380   8.917 -0.9095  0.6636 -1.0022
  421MOL0     C56765   6.325   2.581   8.845 -0.7957  0.5018  0.5454
  421MOL0     C56766   6.205   2.516   8.862 -0.1820 -1.0411 -0.1304
  421MOL0     C56767   6.169   2.398   8.772 -0.6893  0.2850  0.2481
  421MOL0     H56768   5.859   2.366   9.214 -0.5201  1.4165 -0.2331
  421MOL0     H56769   5.650   2.287   9.297 -4.3493 -0.1264  0.8647
  421MOL0     H56770   5.398   2.440   9.393  1.8216 -0.9857 -0.2630
  421MOL0     H56771   5.305   2.514   9.261  2.4001  0.2435 -0.9440
  421MOL0     H56772   5.160   2.306   9.248 -0.6636  0.7198  0.1350
  421MOL0     H56773   5.141   2.386   9.399  1.4910  0.4276  1.3415
  421MOL0     H56774   5.167   2.160   9.468  1.4286  0.5670  0.5841
  421MOL0     H56775   5.346   2.188   9.436 -0.4532 -3.2351  2.3045
  421MOL0     H56776   5.140   2.095   9.231  0.3427  0.5243 -1.5721
  421MOL0     H56777   5.323   2.083   9.219 -1.9092 -3.1430 -2.3151
  421MOL0     H56778   5.138   1.922   9.387  0.6225 -0.7121  1.8584
  421MOL0     H56779   5.217   1.867   9.238  0.5584 -0.6701  1.7145
  421MOL0     H56780   5.353   1.948   9.496  0.1275 -1.0017 -0.0375
  421MOL0     H56781   5.349   1.779   9.440 -0.0624  0.5100  0.9261
  421MOL0     H56782   5.549   1.976   9.406 -0.7481 -1.5770  3.3926
  421MOL0     H56783   5.481   1.947   9.241 -0.5415 -1.5850 -0.8113
  421MOL0     H56784   5.657   1.805   9.259  0.0749 -1.7202 -0.1116
  421MOL0     H56785   5.617   1.745   9.421  0.0498 -0.0451  0.1252
  421MOL0     H56786   5.561   1.719   9.042 -0.0095  1.9912  1.3937
  421MOL0     H56787   5.429   1.412   8.931 -0.9602  1.7714  3.0695
  421MOL0     H56788   5.582   1.508   8.911 -1.8765  1.0101 -0.9150
  421MOL0     H56789   5.684   1.317   9.080 -0.9164 -1.5788  2.4788
  421MOL0     H56790   5.533   1.229   9.062  0.4780 -0.2732  0.5146
  421MOL0     H56791   5.732   1.302   8.864  0.6470 -0.8609 -0.6540
  421MOL0     H56792   5.563   1.272   8.801  0.1586  2.8850  0.8635
  421MOL0     H56793   5.737   1.074   8.965  1.7461  1.9537 -0.3174
  421MOL0     H56794   5.736   1.069   8.790  1.9590  1.8462  0.3806
  421MOL0     H56795   5.313   0.938   8.919 -1.8950 -2.6610 -0.8832
  421MOL0     H56796   5.228   0.785   9.089  0.4333 -0.1744  2.2751
  421MOL0     H56797   5.382   0.326   9.154 -0.5234 -0.5003  0.7449
  421MOL0     H56798   5.275   0.130   9.253  0.7198 -1.1110  1.4803
  421MOL0     H56799   5.186  -0.023   9.367 -0.7320 -0.3999  0.5118
  421MOL0     H56800   5.342  -0.053   9.434  0.7880 -0.6426  0.3034
  421MOL0     H56801   5.239  -0.133   9.638 -1.1736 -3.8541  0.5960
  421MOL0     H56802   5.068  -0.112   9.580 -0.7999 -0.0580 -2.1922
  421MOL0     H56803   5.296  -0.305   9.523 -0.6518 -2.3626  1.0677
  421MOL0     H56804   5.137  -0.325   9.594  0.8780  2.2141  1.0544
  421MOL0     H56805   5.125  -0.429   9.374 -1.4362 -0.2087  0.4520
  421MOL0     H56806   5.208  -0.297   9.284 -0.3092 -1.6525 -0.5190
  421MOL0     H56807   5.009  -0.151   9.352  0.0369 -0.5490  2.5994
  421MOL0     H56808   4.931  -0.301   9.390 -0.5113  2.2013  1.0293
  421MOL0     H56809   5.054  -0.234   9.119 -0.9870  0.8827 -0.9641
  421MOL0     H56810   4.957  -0.380   9.154 -0.4150  0.0843 -0.2490
  421MOL0     H56811   4.769  -0.198   9.203 -1.0636  2.2056  0.8258
  421MOL0     H56812   4.822  -0.234   9.044  2.3129 -1.4328 -0.7064
  421MOL0     H56813   4.936   0.019   9.194 -2.5020 -0.5620  3.1241
  421MOL0     H56814   4.957  -0.032   9.029  1.0016 -0.0296  1.4353
  421MOL0     H56815   5.317   0.293   9.654  0.0058  0.7729  0.2585
  421MOL0     H56816   5.420   0.481   9.563 -0.8644 -0.1348  1.1518
  421MOL0     H56817   5.619   0.752   9.253 -0.6850  0.7074  2.7303
  421MOL0     H56818   5.699   0.902   9.107  1.0857 -0.3976 -0.6202
  421MOL0     H56819   5.439   2.532   9.008  0.4946  2.9758 -1.9906
  421MOL0     H56820   5.658   2.628   8.959  0.0539 -1.4367 -0.4354
  421MOL0     H56821   6.068   2.743   9.077 -0.1396  0.8255 -2.5754
  421MOL0     H56822   6.289   2.854   9.050 -0.1996 -0.2734  0.7614
  421MOL0     H56823   6.539   2.909   9.020 -2.2610 -1.2230 -0.1341
  421MOL0     H56824   6.447   2.963   8.881  1.9533  1.4528 -2.1830
  421MOL0     H56825   6.633   2.906   8.727 -1.2950  1.8998  0.7433
  421MOL0     H56826   6.743   2.887   8.866  1.9628  2.6332 -1.8347
  421MOL0     H56827   6.606   3.133   8.807 -0.8337 -0.9878  1.5729
  421MOL0     H56828   6.775   3.090   8.783 -2.3164  4.2021 -2.6214
  421MOL0     H56829   6.617   3.161   9.034  1.0266  0.3845  0.2171
  421MOL0     H56830   6.774   3.078   9.048  2.1127  0.8913 -0.8795
  421MOL0     H56831   6.886   3.472   8.888 -2.4357  1.1515 -2.1423
  421MOL0     H56832   6.404   2.558   8.774 -0.7203  3.0376 -0.3016
  421MOL0     H56833   6.185   2.300   8.819  0.6910  1.0167  1.3698
  421MOL0     H56834   6.064   2.415   8.744  0.3381  1.6656 -3.2406
  421MOL0     H56835   6.227   2.413   8.681 -0.3258 -0.0112  0.4308
  422MOL0     O56836   7.280   7.841   8.806 -0.6513 -0.0399  0.1590
  422MOL0     C56837   7.208   7.930   8.821  0.6412  0.1088 -0.1202
  422MOL0     O56838   7.241   8.047   8.874 -0.1690 -0.2011  0.0232
  422MOL0     C56839   7.371   8.093   8.889 -0.0656 -0.4151  0.1197
  422MOL0     C56840   7.391   8.192   8.987 -0.4252 -0.3460  0.3983
  422MOL0     C56841   7.523   8.240   9.006  0.3135 -0.8733 -0.8299
  422MOL0     C56842   7.630   8.204   8.924  0.5573  0.6131  1.2869
  422MOL0     O56843   7.755   8.256   8.961  0.3533 -0.2485 -0.1905
  422MOL0     C56844   7.869   8.250   8.877  0.7587  0.0947 -0.3027
  422MOL0     C56845   7.948   8.119   8.885  0.6921  0.4989 -0.4259
  422MOL0     C56846   8.059   8.112   8.776  0.0698  0.0361  0.2240
  422MOL0     C56847   8.127   7.969   8.753  0.4322 -0.5048  0.6311
  422MOL0     C56848   8.271   7.936   8.811 -0.1870  0.5903  0.4212
  422MOL0     C56849   8.324   7.798   8.764 -0.7027  0.0069 -0.1886
  422MOL0     C56850   8.377   7.790   8.626 -0.6501  0.1590 -0.5316
  422MOL0     C56851   8.426   7.653   8.580 -0.2989  0.9401 -0.4198
  422MOL0     N56852   8.492   7.649   8.450  0.3437 -1.0627 -0.1551
  422MOL0     C56853   8.554   7.756   8.392 -1.0312  0.3304  0.4223
  422MOL0     C56854   8.613   7.703   8.283 -0.4906  0.0652 -1.1669
  422MOL0     C56855   8.695   7.782   8.179  0.4562 -1.0144 -0.5280
  422MOL0     C56856   8.600   7.851   8.078 -1.2385 -0.6671  0.9188
  422MOL0     C56857   8.688   7.948   7.993 -0.4733 -0.3897 -0.3510
  422MOL0     C56858   8.799   7.875   7.915 -0.9365 -0.2456  0.1848
  422MOL0     O56859   8.746   7.766   7.840 -0.1631  0.1883 -0.5553
  422MOL0     C56860   8.816   7.657   7.793 -0.7727 -0.7863  0.4111
  422MOL0     C56861   8.946   7.637   7.838  0.1973  0.2327  0.3129
  422MOL0     C56862   9.023   7.535   7.777  1.3238  0.2412  0.5735
  422MOL0     C56863   8.958   7.453   7.683 -0.9670  0.6425 -0.3749
  422MOL0     C56864   9.038   7.338   7.626 -0.3049 -0.2613  0.1510
  422MOL0     O56865   9.170   7.323   7.658  0.7786 -0.1013  0.2557
  422MOL0     C56866   9.247   7.242   7.579 -0.5932 -1.4225  0.4602
  422MOL0     C56867   9.313   7.132   7.623  0.4397 -0.3814  0.2078
  422MOL0     C56868   9.413   7.063   7.548 -0.1170 -0.2032  0.7257
  422MOL0     C56869   9.456   7.125   7.434 -0.8310  0.0933  0.7088
  422MOL0     O56870   9.561   7.060   7.376 -0.3314  0.5306  0.2570
  422MOL0     C56871   9.658   7.130   7.303 -0.1943 -0.4510  0.1477
  422MOL0     C56872   9.797   7.063   7.317 -0.3334 -0.3920 -0.1664
  422MOL0     C56873   9.811   6.925   7.240  1.3570 -0.7363  0.6982
  422MOL0     C56874   9.742   6.808   7.323  0.5373  0.3938 -0.2644
  422MOL0     C56875   9.741   6.683   7.231 -0.1462  0.2029 -1.0454
  422MOL0     C56876   9.886   6.644   7.187  0.3554  0.3694 -0.2816
  422MOL0     C56877   9.871   6.524   7.090 -0.0132 -0.7579 -0.0871
  422MOL0     C56878   9.999   6.482   7.045 -0.6595 -0.1160 -0.5560
  422MOL0    Cl56879  10.105   6.605   6.961  0.4937 -0.6025 -0.0422
  422MOL0     C56880   9.388   7.232   7.380 -0.1246  0.6043  0.6110
  422MOL0     C56881   9.277   7.283   7.448 -1.4295  0.1851  0.8060
  422MOL0     O56882   8.976   7.261   7.551  0.1543 -0.5321  0.2872
  422MOL0     C56883   8.830   7.484   7.633  0.0137  0.1407 -0.4885
  422MOL0     C56884   8.763   7.596   7.682 -0.3178 -0.5277 -0.1734
  422MOL0     N56885   8.565   7.575   8.259  0.3278 -0.4539  0.0832
  422MOL0     N56886   8.506   7.544   8.365 -0.4134  0.4025 -0.8317
  422MOL0     C56887   7.600   8.122   8.812 -0.1515 -1.1140 -0.1209
  422MOL0     C56888   7.476   8.056   8.802 -0.0541 -0.5601  0.9623
  422MOL0     C56889   7.064   7.900   8.814 -0.9568  0.5273  0.6510
  422MOL0     C56890   7.016   7.784   8.872  0.9800 -0.3456 -0.6022
  422MOL0     C56891   6.890   7.733   8.841 -0.0717 -0.5887 -0.2273
  422MOL0     C56892   6.802   7.804   8.751  0.6101 -0.1275  0.0907
  422MOL0     O56893   6.682   7.751   8.715 -0.7665  0.2239 -0.6021
  422MOL0     C56894   6.647   7.728   8.577  0.2516  0.3884 -0.6965
  422MOL0     C56895   6.745   7.625   8.520  0.3843  0.4924  0.3513
  422MOL0     C56896   6.749   7.496   8.590  0.4321  1.2214 -0.0630
  422MOL0     C56897   6.845   7.402   8.517 -0.1168  0.3306 -0.6710
  422MOL0     C56898   6.854   7.273   8.583  1.0395  0.7296  0.1281
  422MOL0     C56899   6.872   7.177   8.654  0.5719 -0.3773  0.6217
  422MOL0     C56900   6.851   7.925   8.707  0.6393  0.4986 -0.3871
  422MOL0     C56901   6.975   7.973   8.738 -0.0670 -0.4142 -0.1694
  422MOL0     C56902   7.014   8.108   8.674  0.1690  0.1411  0.0324
  422MOL0     H56903   7.320   8.244   9.051  1.0608  1.8195  0.4143
  422MOL0     H56904   7.539   8.313   9.084 -0.5237 -1.8071  0.2547
  422MOL0     H56905   7.842   8.279   8.775  0.4839 -1.2791 -0.6409
  422MOL0     H56906   7.943   8.326   8.906  3.1865 -2.1015 -0.4128
  422MOL0     H56907   7.888   8.030   8.864 -3.2168  1.6741  3.9629
  422MOL0     H56908   7.983   8.106   8.988 -1.6982 -2.2794  0.1744
  422MOL0     H56909   8.134   8.189   8.802 -1.4840  1.9615 -0.7259
  422MOL0     H56910   8.011   8.146   8.684 -1.3316  0.1672  0.9685
  422MOL0     H56911   8.056   7.893   8.789  0.9476 -0.9518  0.7248
  422MOL0     H56912   8.145   7.970   8.645 -2.5842  3.1082 -0.0432
  422MOL0     H56913   8.347   8.012   8.792  1.3606 -0.0135  3.5662
  422MOL0     H56914   8.269   7.908   8.916  2.8943 -1.5451  0.0339
  422MOL0     H56915   8.398   7.762   8.835  0.0700  1.5539 -0.1583
  422MOL0     H56916   8.242   7.725   8.766 -0.7807  0.1214  1.3586
  422MOL0     H56917   8.458   7.863   8.626 -0.4167  0.1329  3.4855
  422MOL0     H56918   8.298   7.818   8.556 -0.7995 -1.3847 -1.0192
  422MOL0     H56919   8.486   7.604   8.657  1.6284  0.3499 -2.2013
  422MOL0     H56920   8.340   7.587   8.564  1.2091 -1.7776  1.8405
  422MOL0     H56921   8.578   7.854   8.432 -0.6865  0.2569  0.3920
  422MOL0     H56922   8.763   7.855   8.224  1.5362 -2.5792  0.4852
  422MOL0     H56923   8.750   7.698   8.137  0.5226 -0.2497 -2.0505
  422MOL0     H56924   8.533   7.788   8.019 -0.4891 -0.1219 -0.5699
  422MOL0     H56925   8.529   7.917   8.130 -1.1178 -0.0746  0.3578
  422MOL0     H56926   8.721   8.041   8.039 -0.8496 -1.5158  2.3539
  422MOL0     H56927   8.618   7.983   7.916 -0.7882 -0.0213  0.0953
  422MOL0     H56928   8.874   7.837   7.984 -3.5463 -3.6913  1.3951
  422MOL0     H56929   8.848   7.946   7.848 -0.1808 -0.3337  0.6316
  422MOL0     H56930   9.000   7.703   7.905 -2.8129  3.0142  0.2163
  422MOL0     H56931   9.127   7.519   7.803  2.0163 -0.4626 -2.2477
  422MOL0     H56932   9.269   7.096   7.716 -1.0669  1.0606  0.1151
  422MOL0     H56933   9.467   6.978   7.589  0.2244 -1.3523 -1.9456
  422MOL0     H56934   9.639   7.142   7.196  1.6686  2.3227  0.0525
  422MOL0     H56935   9.656   7.234   7.336  1.5232 -0.3295 -0.0422
  422MOL0     H56936   9.877   7.131   7.287 -0.7013  0.6078  1.0548
  422MOL0     H56937   9.820   7.055   7.423 -1.7653  2.0728  0.3983
  422MOL0     H56938   9.759   6.921   7.144 -2.1010  0.7991  2.3377
  422MOL0     H56939   9.919   6.910   7.229  2.1245  4.2977 -1.4668
  422MOL0     H56940   9.641   6.834   7.354  0.1058  0.4769 -1.6538
  422MOL0     H56941   9.789   6.790   7.420 -0.1913 -2.2181 -0.3268
  422MOL0     H56942   9.672   6.693   7.146  0.9642 -0.5816 -2.0780
  422MOL0     H56943   9.704   6.596   7.287 -0.5820  3.1100  3.7066
  422MOL0     H56944   9.937   6.721   7.129  1.5738 -1.3955 -1.6904
  422MOL0     H56945   9.954   6.622   7.271 -0.8573  1.5672  1.0717
  422MOL0     H56946   9.819   6.568   7.005  0.7964 -0.6105 -0.5177
  422MOL0     H56947   9.814   6.448   7.144 -1.8998 -0.0419 -0.9830
  422MOL0     H56948  10.056   6.442   7.129 -0.1157 -0.6990 -1.1922
  422MOL0     H56949   9.981   6.397   6.979 -0.5182  0.4503 -1.3345
  422MOL0     H56950   9.422   7.267   7.283  1.1947  2.0607  1.5376
  422MOL0     H56951   9.221   7.366   7.407  1.1025  1.8045  0.3626
  422MOL0     H56952   8.792   7.435   7.544  1.5649  2.1862 -2.4054
  422MOL0     H56953   8.662   7.612   7.644 -1.5593 -6.3496 -0.2814
  422MOL0     H56954   7.683   8.089   8.749  0.8765  0.9142  0.1061
  422MOL0     H56955   7.469   7.989   8.717 -0.6134  0.4920  0.1664
  422MOL0     H56956   7.076   7.737   8.949 -0.5455  1.7239  2.0137
  422MOL0     H56957   6.841   7.658   8.902 -2.1019  2.0113  1.5284
  422MOL0     H56958   6.657   7.816   8.512  4.1617  0.3743 -0.3242
  422MOL0     H56959   6.544   7.692   8.574 -0.5302  2.4200  0.0547
  422MOL0     H56960   6.846   7.667   8.519  0.2975  0.7128  0.7210
  422MOL0     H56961   6.722   7.606   8.415  2.7273  1.7062 -0.4269
  422MOL0     H56962   6.652   7.446   8.596  1.8955 -2.6954 -3.8522
  422MOL0     H56963   6.790   7.515   8.690  0.4448  0.9777 -0.0235
  422MOL0     H56964   6.793   7.385   8.422 -1.8076  1.9202 -0.1019
  422MOL0     H56965   6.939   7.457   8.506  1.1772 -1.3158  1.4042
  422MOL0     H56966   6.882   7.083   8.704  1.7910 -0.3191  0.5261
  422MOL0     H56967   6.786   7.975   8.636  0.3592  0.0114 -0.4740
  422MOL0     H56968   7.114   8.102   8.630  0.3984  3.2446 -0.0722
  422MOL0     H56969   6.945   8.136   8.594  2.7052 -1.6899 -3.0336
  422MOL0     H56970   7.023   8.187   8.749 -0.9205  2.2270 -1.9253
  423MOL0     O56971   4.429   5.706   1.273  0.2658  0.5709  0.3457
  423MOL0     C56972   4.445   5.587   1.243 -0.5552  0.0607 -0.4547
  423MOL0     O56973   4.562   5.520   1.214 -0.2928 -0.0333 -0.5840
  423MOL0     C56974   4.658   5.607   1.154 -0.6210  0.1304  0.4690
  423MOL0     C56975   4.719   5.715   1.233 -0.3447 -0.8401  0.0428
  423MOL0     C56976   4.823   5.796   1.174 -0.2006  0.0194 -0.5269
  423MOL0     C56977   4.860   5.776   1.037  0.0711  0.0122  0.0549
  423MOL0     O56978   4.966   5.833   0.974 -0.7683 -0.4754 -0.4803
  423MOL0     C56979   4.925   5.931   0.881  0.7900 -0.1202 -0.5455
  423MOL0     C56980   5.048   6.018   0.838  0.2413  0.3460 -0.3373
  423MOL0     C56981   5.008   6.148   0.765  0.9351  0.2631  0.1213
  423MOL0     C56982   4.967   6.132   0.619 -0.0271  0.9320  0.2651
  423MOL0     C56983   5.087   6.109   0.533 -0.3301  0.6516 -0.1339
  423MOL0     C56984   5.060   6.135   0.389 -0.1917 -0.3627  1.0765
  423MOL0     C56985   5.177   6.096   0.308 -0.3639  0.2836 -0.2652
  423MOL0     C56986   5.309   6.162   0.370 -0.4117  0.2209  0.2943
  423MOL0     N56987   5.417   6.174   0.270  0.5229 -0.1972  0.2365
  423MOL0     C56988   5.410   6.250   0.161  0.7836 -0.5315  0.0766
  423MOL0     C56989   5.524   6.255   0.108  0.7852 -0.6138  0.3255
  423MOL0     C56990   5.549   6.324  -0.021 -0.6799 -0.2859 -0.3721
  423MOL0     C56991   5.515   6.473  -0.010 -0.9714  0.6506 -0.1565
  423MOL0     C56992   5.606   6.533   0.092  0.5193  1.7532  0.2268
  423MOL0     C56993   5.554   6.666   0.128  0.2680 -1.1631 -0.3210
  423MOL0     O56994   5.559   6.759   0.017  0.3069 -0.4209  0.7546
  423MOL0     C56995   5.567   6.892   0.042  1.0815 -0.2493 -0.5929
  423MOL0     C56996   5.619   6.964  -0.060 -0.4855  0.0571 -0.0774
  423MOL0     C56997   5.611   7.103  -0.056 -0.0399  0.1326  0.3131
  423MOL0     C56998   5.560   7.171   0.063  0.1691  0.5524 -0.5897
  423MOL0     C56999   5.551   7.317   0.082 -0.7937 -0.5821 -0.2437
  423MOL0     O57000   5.578   7.386  -0.034  0.7149  0.2359 -1.1320
  423MOL0     C57001   5.580   7.524  -0.027  0.0837  0.1495  1.2967
  423MOL0     C57002   5.469   7.598  -0.067 -0.1688  0.4248 -0.6744
  423MOL0     C57003   5.488   7.737  -0.093 -0.8398  0.6103 -1.4530
  423MOL0     C57004   5.621   7.793  -0.094  1.6914 -0.1508 -0.5977
  423MOL0     O57005   5.637   7.925  -0.117  0.9124  0.4182  1.0587
  423MOL0     C57006   5.561   8.017  -0.038 -0.4636  0.0267  0.0970
  423MOL0     C57007   5.543   8.150  -0.113 -1.1492 -0.2795 -0.0789
  423MOL0     C57008   5.449   8.242  -0.041 -0.1153  0.3492 -0.3317
  423MOL0     C57009   5.410   8.362  -0.131 -0.8782  1.0714 -0.2931
  423MOL0     C57010   5.286   8.445  -0.082  0.0295 -0.2339 -0.1879
  423MOL0     C57011   5.324   8.547   0.030  1.5806  1.1021  0.4972
  423MOL0     C57012   5.287   8.490   0.166  0.1748  0.6459  0.0236
  423MOL0     C57013   5.293   8.592   0.278  0.1001  0.9559 -0.7462
  423MOL0    Cl57014   5.461   8.662   0.288 -0.4498  0.3388  0.4747
  423MOL0     C57015   5.726   7.711  -0.072  0.0789 -0.0361 -0.0829
  423MOL0     C57016   5.706   7.586  -0.020  0.1939 -0.6794 -0.2830
  423MOL0     O57017   5.524   7.365   0.187 -0.0702  0.4525 -0.0874
  423MOL0     C57018   5.495   7.088   0.160 -0.6613 -0.3520 -0.3763
  423MOL0     C57019   5.503   6.948   0.149  0.3365 -0.1680  0.0835
  423MOL0     N57020   5.605   6.181   0.180 -0.0400  0.4347 -0.4941
  423MOL0     N57021   5.547   6.135   0.278  0.6654 -0.2129  0.0207
  423MOL0     C57022   4.807   5.658   0.973 -0.6062 -1.0576  0.6439
  423MOL0     C57023   4.715   5.576   1.027  0.5381 -0.2560  1.2302
  423MOL0     C57024   4.325   5.501   1.274 -0.6594  0.0944 -0.3067
  423MOL0     C57025   4.202   5.506   1.197 -1.4752 -0.9258 -0.5008
  423MOL0     C57026   4.100   5.417   1.229  0.1076 -0.1764  0.2101
  423MOL0     C57027   4.121   5.323   1.333 -0.1133 -0.1646 -0.0072
  423MOL0     O57028   4.024   5.230   1.366 -0.1754  0.0903  0.0251
  423MOL0     C57029   4.047   5.111   1.445 -0.8059  0.4753 -0.4430
  423MOL0     C57030   4.119   5.015   1.348 -0.2519  0.6466  0.7916
  423MOL0     C57031   4.127   4.884   1.420 -0.6108 -0.1366 -0.2300
  423MOL0     C57032   4.220   4.787   1.353 -1.1200  0.9689 -0.3696
  423MOL0     C57033   4.213   4.647   1.404  1.1527  0.3504 -0.6063
  423MOL0     C57034   4.204   4.535   1.454  0.3259  0.4406 -0.2318
  423MOL0     C57035   4.231   5.328   1.417 -0.0102  0.5725  0.1880
  423MOL0     C57036   4.338   5.411   1.388  0.4481 -0.3960 -0.4556
  423MOL0     C57037   4.451   5.403   1.488  0.6241 -0.6732  0.0565
  423MOL0     H57038   4.673   5.743   1.328  0.6855 -1.2747  0.6884
  423MOL0     H57039   4.872   5.879   1.224  0.6223 -0.5989 -0.2860
  423MOL0     H57040   4.892   5.885   0.787  0.4048 -1.2337  0.1209
  423MOL0     H57041   4.847   5.998   0.920  0.3123 -1.0916  0.2023
  423MOL0     H57042   5.126   5.964   0.785  0.7676 -0.0383  0.7920
  423MOL0     H57043   5.108   6.042   0.926 -1.8270  0.0848  1.2161
  423MOL0     H57044   5.079   6.231   0.776 -0.8501  2.1594 -1.7185
  423MOL0     H57045   4.917   6.174   0.820  0.1173 -2.0863 -0.0100
  423MOL0     H57046   4.908   6.043   0.595  1.7538  0.3348 -2.3245
  423MOL0     H57047   4.909   6.220   0.591  0.4216  1.2320  0.2623
  423MOL0     H57048   5.164   6.174   0.576 -0.2945  0.6520 -0.1993
  423MOL0     H57049   5.121   6.007   0.549 -1.9106 -0.3369 -2.4530
  423MOL0     H57050   4.966   6.092   0.355 -2.0423  4.2785 -0.4498
  423MOL0     H57051   5.028   6.238   0.376 -4.1915 -1.6661 -1.0873
  423MOL0     H57052   5.159   6.125   0.204 -0.9443 -0.7922 -0.4824
  423MOL0     H57053   5.198   5.989   0.317 -3.1917 -0.2280  1.4207
  423MOL0     H57054   5.282   6.260   0.412  0.3621 -0.1430  1.7295
  423MOL0     H57055   5.347   6.106   0.456 -0.8298  0.0334  0.3598
  423MOL0     H57056   5.324   6.301   0.118  2.1534 -0.7133 -3.1510
  423MOL0     H57057   5.654   6.318  -0.051 -0.2163  0.6521  0.9451
  423MOL0     H57058   5.483   6.282  -0.097 -0.3562  1.1410 -1.4911
  423MOL0     H57059   5.526   6.522  -0.107  0.9931 -2.0584 -1.4289
  423MOL0     H57060   5.407   6.477   0.010 -0.7765 -0.3007  1.2471
  423MOL0     H57061   5.710   6.556   0.064  0.8022  1.0669  0.6866
  423MOL0     H57062   5.599   6.474   0.183 -1.3374 -0.0933 -1.0100
  423MOL0     H57063   5.610   6.719   0.206 -1.7362  1.4980 -0.5233
  423MOL0     H57064   5.448   6.659   0.155  0.4867 -0.6761  0.7320
  423MOL0     H57065   5.672   6.913  -0.141  1.3395  3.5491 -1.2845
  423MOL0     H57066   5.665   7.152  -0.136 -2.2068  0.7060 -0.8761
  423MOL0     H57067   5.379   7.539  -0.083  0.6431 -0.9487 -0.3394
  423MOL0     H57068   5.405   7.800  -0.123 -1.3932 -1.3787 -4.6131
  423MOL0     H57069   5.464   7.982  -0.001  1.2230 -3.1070  1.9823
  423MOL0     H57070   5.626   8.033   0.049 -0.2962  3.2903 -0.5072
  423MOL0     H57071   5.643   8.195  -0.117  0.2954 -3.1007  1.5009
  423MOL0     H57072   5.497   8.132  -0.211 -0.7702  0.8508 -0.4850
  423MOL0     H57073   5.363   8.179  -0.019  1.3870 -1.4312  0.7236
  423MOL0     H57074   5.490   8.285   0.051 -1.3244 -0.0588  0.4162
  423MOL0     H57075   5.389   8.302  -0.219 -0.7265 -0.7825  0.8733
  423MOL0     H57076   5.493   8.431  -0.149 -0.1488  0.3832  0.3375
  423MOL0     H57077   5.197   8.389  -0.051  0.7093 -1.5310 -0.4670
  423MOL0     H57078   5.254   8.498  -0.171  1.7239 -1.7467 -1.7908
  423MOL0     H57079   5.433   8.553   0.023  1.7109 -1.0877 -0.4150
  423MOL0     H57080   5.276   8.640  -0.000  0.1357 -0.0981 -1.1251
  423MOL0     H57081   5.343   8.399   0.189  0.4258  0.2198 -2.0776
  423MOL0     H57082   5.182   8.458   0.166  0.8814 -2.0601  1.7462
  423MOL0     H57083   5.228   8.676   0.253 -3.6361 -1.6005 -0.5883
  423MOL0     H57084   5.267   8.552   0.377  0.5933  2.3989 -0.0109
  423MOL0     H57085   5.824   7.757  -0.065 -0.2611  0.4236  3.3229
  423MOL0     H57086   5.792   7.525   0.003 -1.3190 -1.9506  2.5267
  423MOL0     H57087   5.441   7.130   0.244 -0.2506  0.3949 -0.4784
  423MOL0     H57088   5.446   6.896   0.226 -1.4853 -0.0418 -1.1035
  423MOL0     H57089   4.861   5.625   0.885  0.6508 -1.7754  1.6445
  423MOL0     H57090   4.694   5.476   0.989  2.9848 -0.9714  1.5736
  423MOL0     H57091   4.195   5.577   1.115  2.0048  0.0586 -0.0770
  423MOL0     H57092   4.009   5.414   1.171  0.2324 -1.0539  0.0372
  423MOL0     H57093   3.953   5.069   1.483 -0.2764 -1.2684 -0.9522
  423MOL0     H57094   4.099   5.132   1.539 -0.5283  0.5983 -0.6227
  423MOL0     H57095   4.223   5.047   1.338 -0.3293  0.6564 -0.0200
  423MOL0     H57096   4.070   4.997   1.252 -1.0139  3.4803  0.5588
  423MOL0     H57097   4.032   4.834   1.441 -0.7143 -0.4974 -1.4760
  423MOL0     H57098   4.177   4.895   1.517  0.0909  1.6022 -0.7457
  423MOL0     H57099   4.198   4.778   1.246  1.9667  0.2251 -1.0379
  423MOL0     H57100   4.323   4.822   1.361 -0.4958 -0.9559  0.6891
  423MOL0     H57101   4.171   4.444   1.500  0.3668  2.0317  3.2862
  423MOL0     H57102   4.239   5.256   1.498 -0.3422  0.4027  0.0708
  423MOL0     H57103   4.552   5.427   1.452  1.3615 -1.3497  1.5918
  423MOL0     H57104   4.438   5.477   1.567 -1.6910  1.0787 -1.7942
  423MOL0     H57105   4.460   5.301   1.525 -0.5920 -1.5750 -1.9206
  424MOL0     O57106   3.861   9.784   3.694  0.4211 -0.2019  0.7337
  424MOL0     C57107   3.767   9.714   3.658 -0.2508 -0.1010  0.4073
  424MOL0     O57108   3.738   9.684   3.527  0.3795  0.4517  0.5779
  424MOL0     C57109   3.828   9.719   3.432  0.0833  0.7696 -0.5458
  424MOL0     C57110   3.834   9.856   3.407  0.3115  0.9650  0.1393
  424MOL0     C57111   3.931   9.896   3.307  0.0136 -0.6517 -1.0755
  424MOL0     C57112   4.001   9.800   3.232 -0.2372 -0.2911  0.3158
  424MOL0     O57113   4.108   9.828   3.149  0.0093 -0.4229 -0.1555
  424MOL0     C57114   4.076   9.933   3.056  0.5381  0.1328 -0.7493
  424MOL0     C57115   4.016   9.864   2.924  0.0426  0.4079 -0.1604
  424MOL0     C57116   4.063   9.721   2.904 -0.1662 -0.0645  0.3645
  424MOL0     C57117   4.041   9.689   2.751  0.5418 -0.2673  0.3666
  424MOL0     C57118   4.117   9.558   2.722 -0.1062  0.2543  0.0845
  424MOL0     C57119   4.250   9.561   2.640 -0.3676  1.0367  0.1301
  424MOL0     C57120   4.359   9.454   2.673  0.8818 -0.0507 -0.2041
  424MOL0     C57121   4.443   9.491   2.808  0.2502  0.1315  0.6242
  424MOL0     N57122   4.533   9.379   2.831 -0.2863  0.5502 -0.1839
  424MOL0     C57123   4.526   9.298   2.940 -0.5211  0.5424 -0.1965
  424MOL0     C57124   4.623   9.199   2.916  0.9252  0.2292  0.0508
  424MOL0     C57125   4.651   9.065   2.968  0.2192 -0.8264  0.3576
  424MOL0     C57126   4.532   8.972   2.962  0.5587  0.4044  0.9525
  424MOL0     C57127   4.501   8.923   2.824  0.0812  1.1487 -0.0404
  424MOL0     C57128   4.375   8.833   2.822  0.5105  0.2938 -0.0057
  424MOL0     O57129   4.264   8.926   2.811 -0.2191 -0.5217 -0.5890
  424MOL0     C57130   4.217   8.979   2.932  0.7693  0.4420 -0.0113
  424MOL0     C57131   4.168   8.905   3.038 -0.3295  0.1623  0.0307
  424MOL0     C57132   4.126   8.971   3.157  0.0884 -0.2805  0.4165
  424MOL0     C57133   4.107   9.108   3.152  0.2349 -0.6136 -0.0240
  424MOL0     C57134   4.047   9.184   3.277 -0.9119  0.6384 -1.2648
  424MOL0     O57135   4.032   9.096   3.385  0.0297 -0.0826  0.1443
  424MOL0     C57136   3.987   9.146   3.503 -1.2268 -0.2882 -0.6003
  424MOL0     C57137   4.039   9.256   3.565 -0.0213 -0.0417  0.2263
  424MOL0     C57138   4.004   9.295   3.697  0.0875  0.2742  0.1054
  424MOL0     C57139   3.918   9.217   3.774  0.0242 -0.2729 -0.2666
  424MOL0     O57140   3.894   9.272   3.898 -0.2454 -0.3866  0.8140
  424MOL0     C57141   3.828   9.184   3.989 -0.0217  0.4822  1.0505
  424MOL0     C57142   3.788   9.259   4.115  0.2419 -0.3208  0.0379
  424MOL0     C57143   3.698   9.178   4.212 -0.1035 -0.8217 -0.1703
  424MOL0     C57144   3.783   9.107   4.320  0.4499 -0.5323 -0.4982
  424MOL0     C57145   3.679   9.043   4.414  0.1584  0.7507 -0.6575
  424MOL0     C57146   3.741   8.926   4.495  0.2720  1.4674 -0.9579
  424MOL0     C57147   3.642   8.870   4.605  0.4041  0.5996 -0.2901
  424MOL0     C57148   3.677   8.729   4.657 -0.9688  0.1591  0.1300
  424MOL0    Cl57149   3.688   8.623   4.513  0.3426  0.2735  0.0612
  424MOL0     C57150   3.854   9.109   3.708 -0.3493 -0.3502  0.8699
  424MOL0     C57151   3.894   9.069   3.571  0.5890 -0.0783 -0.0870
  424MOL0     O57152   4.025   9.302   3.273 -0.0149  0.3513  0.6913
  424MOL0     C57153   4.136   9.189   3.038  0.2412 -0.2146 -0.0178
  424MOL0     C57154   4.193   9.122   2.933 -0.8440  0.8579  0.2272
  424MOL0     N57155   4.682   9.235   2.794  0.6714 -0.1336 -0.4288
  424MOL0     N57156   4.629   9.334   2.744  0.7876 -0.4466  0.1757
  424MOL0     C57157   3.991   9.666   3.267 -0.6114  0.5576  0.1867
  424MOL0     C57158   3.903   9.616   3.373  0.6313 -0.7267  1.1936
  424MOL0     C57159   3.679   9.684   3.769  0.9056 -0.0500  0.3811
  424MOL0     C57160   3.547   9.714   3.753 -0.4913 -0.9394  0.4407
  424MOL0     C57161   3.450   9.700   3.857 -0.3357  0.7626 -0.1596
  424MOL0     C57162   3.497   9.654   3.980  0.5208  0.7728  0.2542
  424MOL0     O57163   3.404   9.635   4.080 -0.6412 -0.0457 -0.0857
  424MOL0     C57164   3.453   9.571   4.205  0.3513  0.1059  0.0057
  424MOL0     C57165   3.359   9.619   4.317 -0.0762 -0.2347 -0.2021
  424MOL0     C57166   3.424   9.586   4.453  0.7165 -0.1157  0.0996
  424MOL0     C57167   3.480   9.446   4.450  0.1100  0.2018 -0.5913
  424MOL0     C57168   3.483   9.399   4.589 -1.1339  0.1852  0.4117
  424MOL0     C57169   3.486   9.376   4.704 -0.6464 -0.9021 -0.8307
  424MOL0     C57170   3.625   9.606   3.993  0.2310 -0.2445 -0.5906
  424MOL0     C57171   3.722   9.628   3.893  0.1296 -0.2189  0.4187
  424MOL0     C57172   3.866   9.584   3.920 -0.6916 -0.7329 -0.2305
  424MOL0     H57173   3.766   9.922   3.460 -2.2037 -0.1637 -1.4896
  424MOL0     H57174   3.941  10.002   3.290 -2.6367 -0.6257 -3.1338
  424MOL0     H57175   4.012  10.012   3.096  0.3762 -0.7818  0.8775
  424MOL0     H57176   4.169   9.979   3.022  0.4594 -0.1648 -1.3894
  424MOL0     H57177   4.054   9.922   2.840  2.2328 -0.4671  0.1558
  424MOL0     H57178   3.907   9.872   2.917  0.0333 -1.3758 -4.1795
  424MOL0     H57179   4.007   9.657   2.973 -1.1581 -2.8757 -2.7825
  424MOL0     H57180   4.171   9.714   2.921 -0.2607 -0.0200  1.0132
  424MOL0     H57181   3.936   9.688   2.718  0.1132 -1.1535  1.6700
  424MOL0     H57182   4.085   9.774   2.698 -0.5902 -1.0071 -1.8962
  424MOL0     H57183   4.144   9.515   2.818  0.3799 -0.3755 -0.3329
  424MOL0     H57184   4.046   9.492   2.672  1.8081 -1.4805 -0.4599
  424MOL0     H57185   4.220   9.555   2.535  3.5109 -1.3970 -1.0424
  424MOL0     H57186   4.295   9.661   2.636 -0.5618  1.0885 -1.9834
  424MOL0     H57187   4.431   9.455   2.591  0.5469  0.4240 -0.5031
  424MOL0     H57188   4.319   9.353   2.685  2.7272 -0.6028  2.0802
  424MOL0     H57189   4.502   9.581   2.787 -0.3584  0.3834 -0.0457
  424MOL0     H57190   4.389   9.530   2.894  0.0973  1.9829 -0.2530
  424MOL0     H57191   4.466   9.304   3.030  1.3798 -0.9550  1.2701
  424MOL0     H57192   4.727   9.014   2.907 -1.5634 -0.8765 -1.9950
  424MOL0     H57193   4.686   9.076   3.071  1.1800  4.9485 -0.2515
  424MOL0     H57194   4.564   8.886   3.022 -0.9658 -0.6818  0.2759
  424MOL0     H57195   4.441   9.026   2.989  0.5370  1.1341 -0.4472
  424MOL0     H57196   4.577   8.860   2.777 -1.0461 -0.5226  0.2988
  424MOL0     H57197   4.495   9.006   2.752 -3.0526 -0.3112 -1.6662
  424MOL0     H57198   4.367   8.771   2.912  5.3161  1.3308  1.4694
  424MOL0     H57199   4.383   8.769   2.734  2.1458  2.3491 -1.4496
  424MOL0     H57200   4.168   8.797   3.022 -2.1672  0.2064 -0.5787
  424MOL0     H57201   4.118   8.891   3.230  1.7857  0.1825  1.1746
  424MOL0     H57202   4.126   9.302   3.518 -1.1177  0.2755 -1.5433
  424MOL0     H57203   4.049   9.384   3.741 -2.1635  1.1239  0.8567
  424MOL0     H57204   3.745   9.143   3.930  0.4541 -2.7897  2.4499
  424MOL0     H57205   3.889   9.099   4.020 -3.1366 -1.5146  2.2591
  424MOL0     H57206   3.870   9.313   4.163 -0.2172  0.1347  0.3239
  424MOL0     H57207   3.718   9.337   4.085  0.0901 -0.3645  0.2718
  424MOL0     H57208   3.633   9.241   4.273 -2.8442 -2.9576 -0.6758
  424MOL0     H57209   3.616   9.128   4.160 -2.7607  2.7412  0.2919
  424MOL0     H57210   3.851   9.182   4.362 -0.4257  0.7101 -1.2135
  424MOL0     H57211   3.849   9.036   4.269 -1.1110 -2.5078  0.1261
  424MOL0     H57212   3.587   9.006   4.368 -1.6484 -0.1070  3.2312
  424MOL0     H57213   3.649   9.118   4.488  0.3461 -0.1494  0.3493
  424MOL0     H57214   3.778   8.850   4.426 -1.7335  2.0712 -2.8235
  424MOL0     H57215   3.826   8.964   4.552  0.6092  1.1048 -1.2175
  424MOL0     H57216   3.538   8.873   4.569  0.5666  3.6537 -0.7538
  424MOL0     H57217   3.644   8.942   4.688  0.6179  1.7698 -1.2752
  424MOL0     H57218   3.771   8.727   4.713 -1.7480  0.1699  1.4724
  424MOL0     H57219   3.594   8.709   4.725  1.4312  2.5590  4.1875
  424MOL0     H57220   3.790   9.043   3.765  0.1512  0.1584  2.0517
  424MOL0     H57221   3.852   8.981   3.521  0.8347 -0.1849 -0.1101
  424MOL0     H57222   4.117   9.296   3.036 -4.0403 -0.7583 -1.8852
  424MOL0     H57223   4.236   9.171   2.847 -0.9449  0.9035  0.2025
  424MOL0     H57224   4.033   9.587   3.204  1.6351  0.7758  1.3314
  424MOL0     H57225   3.902   9.515   3.411  0.2911 -0.7221  1.1955
  424MOL0     H57226   3.515   9.751   3.656  2.9094  2.4651  0.3817
  424MOL0     H57227   3.342   9.714   3.850 -0.5426 -1.0177 -1.2834
  424MOL0     H57228   3.551   9.604   4.242  0.0728  1.1011 -0.0956
  424MOL0     H57229   3.458   9.463   4.195 -2.6683 -0.0840 -0.3367
  424MOL0     H57230   3.263   9.567   4.305  0.0429 -0.5478  0.1771
  424MOL0     H57231   3.351   9.727   4.302 -1.8711 -0.5113 -1.6370
  424MOL0     H57232   3.353   9.604   4.536 -0.5648 -1.0444 -0.7535
  424MOL0     H57233   3.506   9.658   4.462  0.2275  0.5505 -0.6488
  424MOL0     H57234   3.411   9.383   4.392 -1.5812  1.2636  0.1870
  424MOL0     H57235   3.584   9.452   4.419  0.2357 -0.4820 -0.3279
  424MOL0     H57236   3.488   9.333   4.802  1.9303 -1.1486 -0.9268
  424MOL0     H57237   3.662   9.556   4.082  3.2527 -3.1258 -3.2088
  424MOL0     H57238   3.908   9.542   3.828 -0.6173  2.9803 -2.1034
  424MOL0     H57239   3.926   9.673   3.942 -0.9146 -0.8407  0.8551
  424MOL0     H57240   3.880   9.514   4.003  2.8170  2.9427  2.6890
  425MOL0     O57241   0.032  11.514   4.849 -0.4212  0.2515  0.2624
  425MOL0     C57242  -0.052  11.569   4.927 -0.6411 -0.6192 -0.2818
  425MOL0     O57243  -0.018  11.629   5.047 -0.1639  0.6666 -0.3987
  425MOL0     C57244   0.095  11.661   5.112 -0.0152 -0.0335 -0.7703
  425MOL0     C57245   0.095  11.691   5.253  0.4340 -0.3964  0.8655
  425MOL0     C57246   0.202  11.744   5.321 -0.7350 -0.4322  0.2886
  425MOL0     C57247   0.326  11.750   5.256  0.3591 -0.9563 -0.5464
  425MOL0     O57248   0.434  11.801   5.313 -0.3184 -0.6325 -0.0909
  425MOL0     C57249   0.452  11.823   5.457  0.4473  0.8624  0.1695
  425MOL0     C57250   0.574  11.917   5.490  0.2591 -0.3344 -0.1769
  425MOL0     C57251   0.555  12.061   5.465  0.4338  0.2838  0.3323
  425MOL0     C57252   0.683  12.131   5.517  0.0019 -0.4071 -0.0625
  425MOL0     C57253   0.655  12.283   5.482  0.0427  0.5732 -0.3783
  425MOL0     C57254   0.579  12.365   5.589  0.4211 -0.5892  0.0293
  425MOL0     C57255   0.531  12.505   5.533 -0.3395 -0.1634 -0.0199
  425MOL0     C57256   0.449  12.577   5.634 -0.5744 -0.3243  0.6728
  425MOL0     N57257   0.505  12.571   5.771  0.0323 -0.4169  0.6373
  425MOL0     C57258   0.459  12.503   5.883  1.3159  0.1309  0.3811
  425MOL0     C57259   0.540  12.535   5.976 -0.0853  0.1042 -0.0941
  425MOL0     C57260   0.558  12.468   6.109 -0.0100 -0.4666  0.1940
  425MOL0     C57261   0.628  12.334   6.108  0.0403  0.5136 -0.3980
  425MOL0     C57262   0.778  12.331   6.093  0.5429  0.0950 -1.1329
  425MOL0     C57263   0.841  12.353   5.957  0.2921  0.1884 -0.7134
  425MOL0     O57264   0.978  12.327   5.962 -0.6480 -0.1765 -0.7749
  425MOL0     C57265   1.049  12.325   5.847 -0.3327  0.0204  0.0003
  425MOL0     C57266   1.176  12.274   5.853  1.5445 -0.5864 -0.1378
  425MOL0     C57267   1.260  12.281   5.746 -0.6116 -0.1309  0.8086
  425MOL0     C57268   1.218  12.334   5.622  0.3816 -0.3985 -0.1733
  425MOL0     C57269   1.303  12.347   5.502 -0.4677  0.4566  1.0070
  425MOL0     O57270   1.438  12.312   5.515 -0.3865  0.2543 -0.3208
  425MOL0     C57271   1.525  12.311   5.415 -0.3066  0.2064 -0.1705
  425MOL0     C57272   1.662  12.349   5.446  1.0011 -0.9797 -0.8254
  425MOL0     C57273   1.770  12.355   5.353 -0.1397  0.5776  0.3634
  425MOL0     C57274   1.734  12.326   5.219  0.0757 -0.7580  0.1359
  425MOL0     O57275   1.828  12.325   5.115 -0.2725 -0.8722  0.1060
  425MOL0     C57276   1.885  12.451   5.085 -0.0281 -0.1136 -0.2298
  425MOL0     C57277   2.022  12.432   5.022  0.1470  0.2138 -1.0398
  425MOL0     C57278   2.091  12.566   5.022  0.6950 -0.5512  0.8868
  425MOL0     C57279   2.148  12.609   5.154  0.3171 -0.2915  0.2677
  425MOL0     C57280   2.297  12.576   5.156 -0.0261 -0.6191 -0.5284
  425MOL0     C57281   2.369  12.606   5.290 -0.9737 -0.3415  0.1707
  425MOL0     C57282   2.515  12.565   5.275 -0.6519  0.5826 -0.0488
  425MOL0     C57283   2.605  12.657   5.192  0.7723 -0.5235 -0.1188
  425MOL0    Cl57284   2.722  12.541   5.129  0.0517 -0.2080  0.0495
  425MOL0     C57285   1.612  12.261   5.197 -0.4902  0.1198  0.2710
  425MOL0     C57286   1.512  12.248   5.291  0.4526 -0.1758 -0.5644
  425MOL0     O57287   1.256  12.399   5.402  0.2369  0.1065 -0.0807
  425MOL0     C57288   1.083  12.377   5.618 -0.0142 -0.0674  0.0144
  425MOL0     C57289   1.002  12.367   5.723  0.0111  0.1904 -0.5305
  425MOL0     N57290   0.642  12.614   5.928 -0.5820  0.0161 -0.3486
  425MOL0     N57291   0.628  12.623   5.805 -0.4565 -0.1556  0.0664
  425MOL0     C57292   0.333  11.718   5.118 -0.3398 -0.7384  0.2685
  425MOL0     C57293   0.220  11.673   5.044 -0.3728 -0.1250  0.2211
  425MOL0     C57294  -0.193  11.567   4.890  0.4912 -0.5759 -0.2909
  425MOL0     C57295  -0.276  11.668   4.939 -0.1804 -0.6573 -0.1377
  425MOL0     C57296  -0.411  11.683   4.905 -0.3786 -0.3960 -0.2226
  425MOL0     C57297  -0.479  11.591   4.828 -0.6688  0.1760 -0.6007
  425MOL0     O57298  -0.605  11.625   4.784 -0.5016 -0.4282 -0.2224
  425MOL0     C57299  -0.698  11.534   4.733 -0.2235  0.3775  0.4911
  425MOL0     C57300  -0.780  11.468   4.844 -0.7003 -0.6504  0.2027
  425MOL0     C57301  -0.888  11.554   4.925  0.3845  0.1886  0.4867
  425MOL0     C57302  -1.019  11.578   4.843  0.2055 -0.0010  0.8063
  425MOL0     C57303  -0.996  11.693   4.752 -0.9056 -0.1066 -0.3836
  425MOL0     C57304  -0.976  11.776   4.668  0.5553 -0.3197  0.5818
  425MOL0     C57305  -0.401  11.474   4.782 -0.4619  0.7123 -0.7961
  425MOL0     C57306  -0.266  11.463   4.812 -0.0376 -0.2889 -0.4483
  425MOL0     C57307  -0.201  11.350   4.753  0.3679 -0.6012  0.3336
  425MOL0     H57308   0.008  11.662   5.312 -0.6477 -1.1116 -1.0083
  425MOL0     H57309   0.194  11.766   5.427  1.1794 -2.1472  0.8609
  425MOL0     H57310   0.364  11.877   5.494 -2.5858 -2.4473 -1.5876
  425MOL0     H57311   0.457  11.729   5.512 -1.7968  1.9720  2.4463
  425MOL0     H57312   0.657  11.880   5.430  1.5051  2.2684 -0.1713
  425MOL0     H57313   0.603  11.897   5.594  0.9167  2.8841  0.3432
  425MOL0     H57314   0.470  12.103   5.520  1.9319  4.2344 -0.0265
  425MOL0     H57315   0.533  12.083   5.360 -0.4409  1.0008  0.6502
  425MOL0     H57316   0.686  12.119   5.626 -0.3939  0.9193  0.1118
  425MOL0     H57317   0.763  12.080   5.464 -0.9961 -1.7161 -0.3807
  425MOL0     H57318   0.748  12.330   5.448  1.2264 -1.2868  0.2034
  425MOL0     H57319   0.592  12.281   5.392 -0.1017 -2.7911 -0.3035
  425MOL0     H57320   0.496  12.300   5.620  1.6773 -1.1843  2.4029
  425MOL0     H57321   0.637  12.377   5.681 -3.0387  1.5440  2.1611
  425MOL0     H57322   0.466  12.483   5.448  2.0485 -0.5159 -1.8706
  425MOL0     H57323   0.614  12.572   5.511 -0.6420 -0.3503 -1.8576
  425MOL0     H57324   0.453  12.682   5.606 -1.8672 -0.6632 -0.9399
  425MOL0     H57325   0.347  12.537   5.644  0.6066 -3.1063  3.2450
  425MOL0     H57326   0.371  12.440   5.887 -0.9225  2.4558 -4.1481
  425MOL0     H57327   0.606  12.532   6.184 -2.9370  0.3423  1.5565
  425MOL0     H57328   0.461  12.442   6.152 -2.4464  2.2195 -3.1789
  425MOL0     H57329   0.607  12.288   6.205  1.1328 -2.8947 -1.6118
  425MOL0     H57330   0.582  12.282   6.023 -1.8437  1.8732 -0.2777
  425MOL0     H57331   0.816  12.243   6.147  1.9846  0.4670 -1.5153
  425MOL0     H57332   0.803  12.425   6.143 -1.8622  0.5314 -0.6308
  425MOL0     H57333   0.819  12.457   5.933 -1.5211 -0.3824 -1.7416
  425MOL0     H57334   0.792  12.289   5.883  2.8739 -1.4762 -1.1208
  425MOL0     H57335   1.215  12.243   5.949  2.4859  3.1081  0.8432
  425MOL0     H57336   1.363  12.250   5.763 -0.9591 -1.1992  1.0280
  425MOL0     H57337   1.685  12.388   5.544 -0.3304  1.1452 -1.2885
  425MOL0     H57338   1.870  12.385   5.381 -0.1686 -0.8483  2.2021
  425MOL0     H57339   1.827  12.500   5.006  0.3338  0.8687  0.1080
  425MOL0     H57340   1.882  12.509   5.177  0.9106  0.1309 -0.3477
  425MOL0     H57341   2.074  12.368   5.095 -0.6497  1.8992  1.1131
  425MOL0     H57342   2.017  12.387   4.923 -0.9835 -2.5297  0.1555
  425MOL0     H57343   2.165  12.574   4.942 -0.2076 -0.4440  0.0440
  425MOL0     H57344   2.020  12.647   5.002  1.3963  0.0265  0.6730
  425MOL0     H57345   2.112  12.560   5.244  1.5035 -2.0978 -0.1680
  425MOL0     H57346   2.148  12.718   5.153  1.2828 -0.2725 -0.5880
  425MOL0     H57347   2.357  12.633   5.084  2.4194  0.3664  2.1039
  425MOL0     H57348   2.309  12.471   5.129  0.0755 -1.3182  2.0067
  425MOL0     H57349   2.361  12.712   5.316  0.9927  0.1295 -0.9717
  425MOL0     H57350   2.340  12.530   5.363  2.4254 -3.7543 -1.6782
  425MOL0     H57351   2.530  12.464   5.235  2.6788  2.2570 -3.6578
  425MOL0     H57352   2.560  12.568   5.374 -3.0291  0.9705  1.0885
  425MOL0     H57353   2.551  12.700   5.107  0.3028 -1.5979 -0.3797
  425MOL0     H57354   2.628  12.731   5.269 -1.3761 -1.6546  1.7814
  425MOL0     H57355   1.588  12.208   5.105 -1.4475  0.5001  0.2905
  425MOL0     H57356   1.420  12.198   5.264  0.2727 -1.7662  2.5443
  425MOL0     H57357   1.037  12.402   5.523 -1.1877 -1.4569  0.1736
  425MOL0     H57358   0.897  12.391   5.726 -0.1872 -0.6902  1.9507
  425MOL0     H57359   0.433  11.727   5.076 -2.0605 -0.3226 -4.2134
  425MOL0     H57360   0.230  11.646   4.940  2.9805  3.6918 -0.6920
  425MOL0     H57361  -0.236  11.740   5.010 -2.1639  1.4286 -0.9822
  425MOL0     H57362  -0.463  11.773   4.934  2.3155  0.9269  0.8144
  425MOL0     H57363  -0.644  11.461   4.671 -2.6533 -1.0780 -0.0639
  425MOL0     H57364  -0.777  11.583   4.676  0.1167 -2.3407 -2.6354
  425MOL0     H57365  -0.706  11.449   4.923 -0.7835  3.7648  1.6717
  425MOL0     H57366  -0.825  11.381   4.796 -2.3624  1.4796 -2.3495
  425MOL0     H57367  -0.839  11.640   4.971  1.8274 -0.9649  1.2181
  425MOL0     H57368  -0.922  11.492   5.009  0.2088 -0.6861 -0.2127
  425MOL0     H57369  -1.025  11.482   4.791  1.7158  1.5300 -2.4879
  425MOL0     H57370  -1.100  11.595   4.915 -0.9563 -0.8993 -0.2467
  425MOL0     H57371  -0.961  11.859   4.602 -0.8225  0.4113  1.1517
  425MOL0     H57372  -0.448  11.395   4.724  2.4099  0.0552 -2.4456
  425MOL0     H57373  -0.165  11.368   4.651 -2.9947 -0.9874 -1.0440
  425MOL0     H57374  -0.116  11.307   4.808  1.7509 -1.0181 -1.9758
  425MOL0     H57375  -0.275  11.271   4.735 -1.4841  1.1591 -0.1639
  426MOL0     O57376   1.954   0.218   4.738 -0.0937  0.8809  1.1926
  426MOL0     C57377   1.922   0.238   4.620  0.5622 -1.1851 -0.4704
  426MOL0     O57378   1.819   0.328   4.573  0.0385 -0.2383  0.3648
  426MOL0     C57379   1.760   0.415   4.660 -0.1988  0.1538  0.5839
  426MOL0     C57380   1.817   0.481   4.768 -0.0762 -0.8868 -0.3926
  426MOL0     C57381   1.745   0.578   4.839 -0.0547  0.4026 -0.6819
  426MOL0     C57382   1.620   0.620   4.787 -0.5391 -0.4593 -0.6631
  426MOL0     O57383   1.548   0.712   4.866  0.2525 -0.5960  0.5363
  426MOL0     C57384   1.440   0.791   4.799 -0.3094  0.4152 -0.0107
  426MOL0     C57385   1.492   0.912   4.729 -0.6247  0.0109  0.7678
  426MOL0     C57386   1.571   1.012   4.807 -1.0214  0.4111 -0.0302
  426MOL0     C57387   1.541   1.031   4.952  0.9214  0.7826  0.4554
  426MOL0     C57388   1.571   1.162   5.018 -0.0128  0.4446 -0.4219
  426MOL0     C57389   1.542   1.150   5.169 -0.0765 -0.2756  1.2742
  426MOL0     C57390   1.525   1.294   5.228 -0.0422 -0.6096 -0.2614
  426MOL0     C57391   1.502   1.291   5.374 -0.1901  1.1385  1.1029
  426MOL0     N57392   1.361   1.301   5.411  0.4638 -0.5614  0.4008
  426MOL0     C57393   1.265   1.206   5.384  0.6117 -0.5624 -1.1768
  426MOL0     C57394   1.146   1.262   5.437  0.4164 -0.1649  0.4811
  426MOL0     C57395   1.016   1.191   5.448 -0.2106 -1.0013 -1.5746
  426MOL0     C57396   0.894   1.281   5.474 -0.1309 -0.2483 -0.2515
  426MOL0     C57397   0.839   1.338   5.338  0.6042  0.5133 -0.5721
  426MOL0     C57398   0.724   1.434   5.368 -1.2904  0.3138  0.4073
  426MOL0     O57399   0.604   1.362   5.381  0.1982 -0.0137 -1.0218
  426MOL0     C57400   0.520   1.422   5.477  0.6957  0.8680  1.0825
  426MOL0     C57401   0.559   1.418   5.611 -1.2203 -0.8807 -0.5149
  426MOL0     C57402   0.475   1.459   5.710  0.5747  1.4067  0.5197
  426MOL0     C57403   0.347   1.515   5.676  0.9326  0.6793  0.0331
  426MOL0     C57404   0.254   1.565   5.776  0.1565 -0.9945 -0.8143
  426MOL0     O57405   0.314   1.585   5.896 -0.1472 -0.4858  0.0871
  426MOL0     C57406   0.256   1.659   5.990 -0.8217 -0.7714  0.1143
  426MOL0     C57407   0.163   1.601   6.074  0.0811 -0.6783 -0.1043
  426MOL0     C57408   0.099   1.679   6.178 -0.2867  0.2129 -0.2663
  426MOL0     C57409   0.146   1.816   6.200  0.0608 -0.1408 -0.6358
  426MOL0     O57410   0.085   1.885   6.308 -0.4604 -0.4808  0.5150
  426MOL0     C57411   0.064   2.032   6.281  0.1711  0.1541 -0.3507
  426MOL0     C57412  -0.031   2.092   6.370 -0.1925  1.1239 -1.0507
  426MOL0     C57413  -0.158   1.995   6.386 -0.1627  0.0017  0.7655
  426MOL0     C57414  -0.229   1.991   6.244  0.1069 -0.2421 -0.8960
  426MOL0     C57415  -0.374   1.934   6.258 -0.1991 -0.4573 -0.4026
  426MOL0     C57416  -0.444   1.947   6.123 -0.3422  0.3430  0.5049
  426MOL0     C57417  -0.599   1.915   6.128  0.5074 -0.5811  0.0304
  426MOL0     C57418  -0.701   1.999   6.045 -0.1155  0.4279  0.5179
  426MOL0    Cl57419  -0.664   1.975   5.858 -0.0702  0.2614  0.2802
  426MOL0     C57420   0.247   1.864   6.121  0.8937 -0.5988 -0.1054
  426MOL0     C57421   0.297   1.789   6.015  0.1065 -0.8156  0.8460
  426MOL0     O57422   0.148   1.611   5.746 -0.1542  0.7627 -0.1810
  426MOL0     C57423   0.299   1.513   5.545 -0.0795  0.3762  0.3845
  426MOL0     C57424   0.387   1.455   5.452 -0.8521 -1.1868 -0.4878
  426MOL0     N57425   1.180   1.396   5.477 -0.2944  0.7127  0.8078
  426MOL0     N57426   1.309   1.420   5.464  0.2070  0.4669  0.0466
  426MOL0     C57427   1.583   0.569   4.665  0.7083 -0.0302  0.6331
  426MOL0     C57428   1.651   0.466   4.604 -0.1636 -0.1351  0.0756
  426MOL0     C57429   1.992   0.170   4.513  0.2219  0.4916  1.0478
  426MOL0     C57430   1.983   0.216   4.379  0.3703 -0.7096  0.2307
  426MOL0     C57431   2.041   0.148   4.274 -0.4573 -0.3387  0.1879
  426MOL0     C57432   2.108   0.023   4.293  0.6064  0.7129  0.1330
  426MOL0     O57433   2.158  -0.066   4.197 -0.2547  0.1335 -0.4926
  426MOL0     C57434   2.138  -0.048   4.061 -0.2774 -0.3074 -0.0591
  426MOL0     C57435   2.247   0.045   3.994  0.2677  0.0429 -0.3100
  426MOL0     C57436   2.235   0.068   3.843 -0.4862 -0.2488 -0.0679
  426MOL0     C57437   2.257  -0.045   3.737 -0.5285  0.5026 -0.2681
  426MOL0     C57438   2.169  -0.166   3.765 -0.5870 -0.0973 -0.2019
  426MOL0     C57439   2.102  -0.258   3.791 -0.4823  0.4840 -0.4336
  426MOL0     C57440   2.135  -0.016   4.420  0.3266 -0.1257  0.1038
  426MOL0     C57441   2.082   0.060   4.533 -0.1504  0.6455 -1.0175
  426MOL0     C57442   2.111  -0.016   4.660  0.6218  0.5760 -0.1478
  426MOL0     H57443   1.912   0.460   4.818  0.8996  0.4958 -1.5726
  426MOL0     H57444   1.777   0.622   4.933  0.4477 -0.6199 -0.3570
  426MOL0     H57445   1.368   0.727   4.747  0.3492  0.2518 -0.7318
  426MOL0     H57446   1.391   0.832   4.888  3.8411  2.8808  1.4165
  426MOL0     H57447   1.406   0.966   4.688  0.3749 -0.0054 -1.5535
  426MOL0     H57448   1.546   0.870   4.643  0.8331 -0.3858  1.8327
  426MOL0     H57449   1.568   1.106   4.751  0.4963 -0.4166 -1.6038
  426MOL0     H57450   1.671   0.968   4.804 -0.1655  2.2742 -2.6568
  426MOL0     H57451   1.432   1.029   4.962  0.9022  0.6321  0.2323
  426MOL0     H57452   1.580   0.952   5.017 -0.0350  1.1692  1.5330
  426MOL0     H57453   1.672   1.187   4.986  0.1033  2.7725  1.4857
  426MOL0     H57454   1.505   1.236   4.971  0.0975  2.5005  2.4018
  426MOL0     H57455   1.459   1.086   5.200  0.1005 -2.0820 -1.5730
  426MOL0     H57456   1.633   1.101   5.203  0.6632 -0.9292 -1.4174
  426MOL0     H57457   1.454   1.362   5.180  2.5913  0.2851 -3.2328
  426MOL0     H57458   1.618   1.348   5.207 -0.0855 -0.1809  0.6015
  426MOL0     H57459   1.548   1.208   5.429  0.5007  0.1065 -0.9053
  426MOL0     H57460   1.555   1.379   5.412  0.4736  0.2816  2.2407
  426MOL0     H57461   1.273   1.111   5.332 -0.5690 -0.8880 -0.7968
  426MOL0     H57462   0.989   1.131   5.360 -0.1942 -2.7978 -0.3948
  426MOL0     H57463   1.024   1.121   5.531  1.1757  2.7908  1.8139
  426MOL0     H57464   0.814   1.218   5.515 -1.4281  0.8129 -1.0565
  426MOL0     H57465   0.908   1.355   5.553 -3.8744 -1.3960  1.7201
  426MOL0     H57466   0.808   1.255   5.274 -0.0318  0.9878 -0.8870
  426MOL0     H57467   0.910   1.397   5.279  1.3864  2.3022  1.9598
  426MOL0     H57468   0.708   1.506   5.287 -0.5270  1.2765  1.0971
  426MOL0     H57469   0.750   1.498   5.452  0.5736 -0.6972  0.6548
  426MOL0     H57470   0.663   1.389   5.625  0.4747  2.5896 -3.9881
  426MOL0     H57471   0.511   1.437   5.810 -0.1590 -2.2814  0.1088
  426MOL0     H57472   0.142   1.496   6.061 -0.4715 -0.8941  2.0432
  426MOL0     H57473   0.032   1.636   6.252  1.4169  0.9057  1.8078
  426MOL0     H57474   0.159   2.083   6.301  0.8333 -1.8042  2.0660
  426MOL0     H57475   0.025   2.055   6.182 -1.4417  0.1828  0.2672
  426MOL0     H57476   0.022   2.105   6.465  1.1683 -4.2425 -0.7238
  426MOL0     H57477  -0.081   2.184   6.339 -1.2982  1.4419  1.4730
  426MOL0     H57478  -0.143   1.891   6.416 -0.5381  0.0931  1.3006
  426MOL0     H57479  -0.228   2.031   6.463 -1.2276 -4.3305  2.0855
  426MOL0     H57480  -0.171   1.934   6.170  1.8710 -1.2455  1.1446
  426MOL0     H57481  -0.221   2.092   6.204  0.6423  0.6910  1.4273
  426MOL0     H57482  -0.419   1.995   6.337  3.5265  2.6512 -0.3689
  426MOL0     H57483  -0.356   1.830   6.286  3.0480  0.2473  0.5165
  426MOL0     H57484  -0.427   2.050   6.090  1.3775  0.2483  1.0206
  426MOL0     H57485  -0.402   1.872   6.056  0.4087  1.3478 -0.1794
  426MOL0     H57486  -0.649   1.922   6.226  1.1997  1.7327  0.2855
  426MOL0     H57487  -0.611   1.809   6.105  1.3961 -0.9353  1.1280
  426MOL0     H57488  -0.803   1.968   6.066  0.0786 -1.3120 -0.8284
  426MOL0     H57489  -0.689   2.105   6.066 -0.5667  0.8596 -1.2920
  426MOL0     H57490   0.290   1.960   6.148 -0.2035  0.7636 -2.8341
  426MOL0     H57491   0.373   1.821   5.945 -1.2978  1.0897  0.0755
  426MOL0     H57492   0.194   1.527   5.522  0.3290  1.6374 -0.8403
  426MOL0     H57493   0.347   1.448   5.352 -1.5854 -1.6493 -0.1711
  426MOL0     H57494   1.486   0.593   4.623  0.2718  1.5304  2.4022
  426MOL0     H57495   1.618   0.414   4.514  0.9192  0.1049 -0.4805
  426MOL0     H57496   1.928   0.307   4.359 -0.7582 -0.7271  2.8703
  426MOL0     H57497   2.015   0.191   4.177 -0.0783 -1.1131 -0.2617
  426MOL0     H57498   2.034  -0.018   4.042 -1.2555 -3.2571  0.1504
  426MOL0     H57499   2.146  -0.143   4.008 -0.0652 -1.0043  1.2149
  426MOL0     H57500   2.351   0.017   4.012  0.6792 -0.2111 -2.7864
  426MOL0     H57501   2.230   0.145   4.036 -0.7708  0.2771 -1.2284
  426MOL0     H57502   2.304   0.149   3.818 -0.8468 -0.0470 -0.4342
  426MOL0     H57503   2.138   0.117   3.826 -0.8117 -0.1216  1.8975
  426MOL0     H57504   2.258  -0.007   3.634  2.4175  0.0826 -0.4970
  426MOL0     H57505   2.359  -0.085   3.744 -0.8776 -0.2726  0.5728
  426MOL0     H57506   2.040  -0.343   3.811  0.6304 -0.2660 -0.0957
  426MOL0     H57507   2.207  -0.096   4.433  0.0721 -0.6064 -1.2659
  426MOL0     H57508   2.141   0.049   4.742 -3.2725  1.2052  0.9731
  426MOL0     H57509   2.022  -0.072   4.688  1.4152  0.1124  1.6062
  426MOL0     H57510   2.187  -0.094   4.641 -0.2829 -0.1226 -1.0383
  427MOL0     O57511  11.186  10.626   0.564 -0.8638 -0.3277 -0.2384
  427MOL0     C57512  11.103  10.659   0.476  0.0454  0.9794 -0.4239
  427MOL0     O57513  11.048  10.579   0.387 -0.2578 -0.5302  0.1466
  427MOL0     C57514  11.088  10.445   0.368 -0.8787 -0.7334  1.2014
  427MOL0     C57515  11.105  10.353   0.477 -0.1203  0.4146  0.9053
  427MOL0     C57516  11.113  10.219   0.443  0.3788  0.4152 -0.2696
  427MOL0     C57517  11.116  10.169   0.319 -0.3212 -1.1041  0.2589
  427MOL0     O57518  11.156  10.047   0.281 -0.0479  1.2398  0.7525
  427MOL0     C57519  11.301  10.041   0.246 -0.5283  0.5991 -0.2057
  427MOL0     C57520  11.380   9.909   0.285 -0.1056 -0.7124  0.2235
  427MOL0     C57521  11.322   9.787   0.227 -0.5648  1.4973  0.4658
  427MOL0     C57522  11.395   9.665   0.269  1.1296  1.1322  0.3315
  427MOL0     C57523  11.312   9.537   0.223 -0.7173  0.1212  0.1524
  427MOL0     C57524  11.240   9.485   0.345 -1.0869  0.8922  0.4890
  427MOL0     C57525  11.169   9.350   0.315 -0.3173 -1.2051 -0.9210
  427MOL0     C57526  11.120   9.273   0.445  0.5115 -1.1233  0.8229
  427MOL0     N57527  11.073   9.140   0.428  0.0119  0.1365 -0.4418
  427MOL0     C57528  10.982   9.096   0.330 -0.0728 -0.3460 -0.3522
  427MOL0     C57529  10.962   8.975   0.364  0.1987  0.4431 -0.2888
  427MOL0     C57530  10.851   8.889   0.315 -0.0901  0.3414  0.1737
  427MOL0     C57531  10.715   8.953   0.314 -0.1217 -0.2029 -0.2296
  427MOL0     C57532  10.605   8.843   0.301  0.4311  0.3709 -0.3912
  427MOL0     C57533  10.465   8.906   0.270  0.1987  0.0639 -0.0370
  427MOL0     O57534  10.374   8.807   0.218 -0.0101  0.3095  0.4562
  427MOL0     C57535  10.240   8.843   0.217  0.5167  0.2014 -0.5028
  427MOL0     C57536  10.153   8.739   0.176 -0.1859  0.0437  0.0067
  427MOL0     C57537  10.013   8.768   0.183 -1.0037 -1.1891 -0.1136
  427MOL0     C57538   9.964   8.898   0.212 -0.4099 -0.5361 -0.4910
  427MOL0     C57539   9.816   8.924   0.198 -0.9752 -1.1005  0.2356
  427MOL0     O57540   9.779   9.060   0.210  0.5855  0.0307  0.5393
  427MOL0     C57541   9.644   9.087   0.220 -0.4382  0.7174  0.2658
  427MOL0     C57542   9.569   9.125   0.105 -0.6489 -0.2029 -0.6932
  427MOL0     C57543   9.433   9.154   0.118 -0.4254 -0.0925  0.1676
  427MOL0     C57544   9.369   9.136   0.245 -0.2021  0.4364  0.1279
  427MOL0     O57545   9.241   9.158   0.276  0.6679  0.6808  0.5543
  427MOL0     C57546   9.134   9.172   0.180  0.1015 -0.8180 -0.3569
  427MOL0     C57547   9.058   9.043   0.181  0.5083 -0.7862  0.0148
  427MOL0     C57548   9.126   8.922   0.100 -1.4522 -0.3843  0.6032
  427MOL0     C57549   9.095   8.938  -0.053  0.3559  0.8366 -0.4937
  427MOL0     C57550   9.113   8.797  -0.124 -0.2004 -0.1163 -0.8078
  427MOL0     C57551   9.090   8.839  -0.272 -0.1252 -0.4490  0.2379
  427MOL0     C57552   9.104   8.729  -0.379  0.0528  0.2815  0.0397
  427MOL0     C57553   8.984   8.628  -0.364  0.8014  0.7569  0.6694
  427MOL0    Cl57554   8.990   8.511  -0.503  0.5270  0.6922 -0.5447
  427MOL0     C57555   9.450   9.106   0.357  0.5827  0.1849 -0.4556
  427MOL0     C57556   9.580   9.074   0.342  0.6145  0.0051  0.5638
  427MOL0     O57557   9.741   8.831   0.194  0.3810  0.0588 -0.1012
  427MOL0     C57558  10.057   8.998   0.248  0.2087 -0.0268 -0.3864
  427MOL0     C57559  10.191   8.973   0.250  0.3112 -0.3826 -0.3638
  427MOL0     N57560  11.040   8.924   0.467  0.3280 -0.0366 -0.3128
  427MOL0     N57561  11.113   9.030   0.503  0.4510 -0.8617  0.6274
  427MOL0     C57562  11.091  10.263   0.208 -0.2736  0.4178  0.5051
  427MOL0     C57563  11.063  10.399   0.240  0.7260 -0.6824 -0.0063
  427MOL0     C57564  11.028  10.787   0.487  0.0997  0.4247 -0.4042
  427MOL0     C57565  10.885  10.799   0.478 -0.2508 -0.7095  1.1101
  427MOL0     C57566  10.828  10.919   0.511  0.6884  0.5229 -0.0039
  427MOL0     C57567  10.898  11.031   0.555 -1.1390  0.6479 -0.1701
  427MOL0     O57568  10.822  11.144   0.577 -0.1797 -0.2695  0.6562
  427MOL0     C57569  10.871  11.255   0.654  0.0600  0.1200  0.8322
  427MOL0     C57570  10.767  11.361   0.649  0.1328 -0.1872 -0.8088
  427MOL0     C57571  10.638  11.304   0.722  0.6795  1.3925  0.1292
  427MOL0     C57572  10.515  11.389   0.695  0.2275 -0.5176 -0.1929
  427MOL0     C57573  10.532  11.532   0.727 -0.2093 -0.9683  0.4753
  427MOL0     C57574  10.528  11.648   0.763 -0.5541 -0.4242  0.2238
  427MOL0     C57575  11.034  11.022   0.560 -0.2810 -1.1722  0.6472
  427MOL0     C57576  11.101  10.908   0.515  0.5019  0.4267  0.0927
  427MOL0     C57577  11.254  10.921   0.492 -0.3532 -0.4995 -0.7761
  427MOL0     H57578  11.105  10.380   0.582 -2.3400 -1.8869  1.5905
  427MOL0     H57579  11.116  10.139   0.517 -3.3455 -1.9437 -2.3103
  427MOL0     H57580  11.322  10.051   0.139  1.5376  0.1628  0.1163
  427MOL0     H57581  11.356  10.116   0.304 -0.4768 -1.3806  2.4609
  427MOL0     H57582  11.393   9.900   0.393 -1.8551  0.4805  0.5676
  427MOL0     H57583  11.482   9.927   0.248 -0.3714  0.2012 -0.0941
  427MOL0     H57584  11.313   9.785   0.118 -2.3303 -2.7634  0.5123
  427MOL0     H57585  11.221   9.780   0.267 -1.6745  0.1374 -2.3183
  427MOL0     H57586  11.489   9.670   0.213  1.3740  0.2691  0.6465
  427MOL0     H57587  11.410   9.669   0.377 -0.1461  1.9029  0.5059
  427MOL0     H57588  11.236   9.555   0.147 -0.6988  0.5932  0.2425
  427MOL0     H57589  11.388   9.460   0.205 -0.1902  0.1355  2.0565
  427MOL0     H57590  11.303   9.479   0.435 -0.2055 -0.2037 -0.1749
  427MOL0     H57591  11.165   9.550   0.391 -0.5985 -0.1778  3.0247
  427MOL0     H57592  11.246   9.282   0.277  1.0737 -1.4865  2.0839
  427MOL0     H57593  11.090   9.364   0.240 -0.0932  0.8313 -0.8363
  427MOL0     H57594  11.198   9.279   0.522  0.4083  0.2391  0.8558
  427MOL0     H57595  11.043   9.346   0.472  3.3637  3.3971 -1.8419
  427MOL0     H57596  10.923   9.150   0.256 -2.6655  0.6270  2.2003
  427MOL0     H57597  10.876   8.847   0.218  2.1120 -1.8303  1.5628
  427MOL0     H57598  10.853   8.803   0.382 -1.3704  0.3498  0.2380
  427MOL0     H57599  10.701   9.002   0.411  3.0871 -0.7646  0.6404
  427MOL0     H57600  10.712   9.029   0.235  0.7852 -0.3942 -0.4601
  427MOL0     H57601  10.603   8.797   0.400 -0.2648 -1.6938 -1.2985
  427MOL0     H57602  10.634   8.763   0.233  1.8033 -0.9777  1.6698
  427MOL0     H57603  10.474   8.982   0.192 -0.1106  0.4811  0.3298
  427MOL0     H57604  10.436   8.954   0.365  2.6446  2.2094 -0.2621
  427MOL0     H57605  10.198   8.642   0.157  0.4692 -0.1390  2.2236
  427MOL0     H57606   9.958   8.678   0.159 -2.2784 -0.7638  1.0522
  427MOL0     H57607   9.617   9.115   0.009  0.6551  1.3575 -0.2510
  427MOL0     H57608   9.385   9.198   0.031  0.3533  2.3079  0.8643
  427MOL0     H57609   9.076   9.258   0.215  3.7143  2.0075 -0.8144
  427MOL0     H57610   9.164   9.199   0.079  1.5461 -1.7700 -0.2169
  427MOL0     H57611   9.040   9.015   0.285 -1.3290  3.2222  0.9925
  427MOL0     H57612   8.957   9.066   0.145 -0.9870 -0.5386  3.9201
  427MOL0     H57613   9.234   8.942   0.097 -1.9010  2.5221  1.3671
  427MOL0     H57614   9.107   8.820   0.137  1.3988 -0.6633  1.5409
  427MOL0     H57615   9.155   9.017  -0.097  0.0551  1.3476  0.0040
  427MOL0     H57616   8.990   8.969  -0.058 -0.9000 -2.8274  0.0363
  427MOL0     H57617   9.041   8.717  -0.103  2.7281 -2.4362  1.2425
  427MOL0     H57618   9.217   8.764  -0.116 -0.5795 -1.0041  0.8243
  427MOL0     H57619   8.996   8.892  -0.286 -0.5967 -1.7285 -2.0158
  427MOL0     H57620   9.165   8.915  -0.296 -0.0594 -0.3178  0.8617
  427MOL0     H57621   9.200   8.678  -0.370 -0.0156 -0.0175 -0.8748
  427MOL0     H57622   9.094   8.778  -0.476 -2.7627 -1.3985 -0.6529
  427MOL0     H57623   8.991   8.574  -0.269 -2.4765  1.9423  1.7405
  427MOL0     H57624   8.888   8.681  -0.367  0.5605  0.2873 -0.0160
  427MOL0     H57625   9.406   9.105   0.456  1.2196  1.3105 -0.1412
  427MOL0     H57626   9.640   9.035   0.424  1.4974  0.8640  0.3422
  427MOL0     H57627  10.019   9.099   0.263  0.5574  0.1170 -0.4649
  427MOL0     H57628  10.255   9.060   0.259 -0.5522  0.3910 -1.4688
  427MOL0     H57629  11.090  10.234   0.104  1.0164  2.6719 -0.2178
  427MOL0     H57630  11.036  10.467   0.160  0.4080 -1.5608 -0.6545
  427MOL0     H57631  10.829  10.708   0.458 -2.3149  0.9618 -1.3780
  427MOL0     H57632  10.720  10.927   0.510  0.6417  0.0235 -1.4434
  427MOL0     H57633  10.961  11.305   0.614  1.0019 -1.7109  0.5716
  427MOL0     H57634  10.888  11.216   0.754  3.3033 -0.6825  0.1014
  427MOL0     H57635  10.756  11.400   0.548  2.1663 -0.5570 -1.2216
  427MOL0     H57636  10.802  11.453   0.697 -0.9764 -0.5952  0.8748
  427MOL0     H57637  10.655  11.318   0.829 -0.2080  3.8159  0.0232
  427MOL0     H57638  10.620  11.197   0.710  2.0013  0.5983  3.9208
  427MOL0     H57639  10.475  11.385   0.593 -1.9271 -3.0587  0.6166
  427MOL0     H57640  10.437  11.348   0.760 -1.5938  3.3302  0.3381
  427MOL0     H57641  10.553  11.750   0.781 -1.2664 -0.2796  0.4194
  427MOL0     H57642  11.092  11.107   0.593  0.2351 -1.3995  0.3244
  427MOL0     H57643  11.311  10.931   0.585  2.5978 -0.2858 -2.4832
  427MOL0     H57644  11.302  10.837   0.442 -1.4400 -0.6966 -1.5307
  427MOL0     H57645  11.270  11.005   0.424  0.2727 -0.8219 -1.0297
  428MOL0     O57646   1.028  11.293  10.332 -0.2272  0.0628  0.2108
  428MOL0     C57647   0.934  11.348  10.391  0.6317  0.2031 -0.2910
  428MOL0     O57648   0.942  11.384  10.525  0.3242  0.0353 -0.1553
  428MOL0     C57649   1.059  11.424  10.587  0.1875  0.5488  0.5506
  428MOL0     C57650   1.098  11.556  10.582  0.4429  0.6879  0.1953
  428MOL0     C57651   1.208  11.601  10.653 -0.1550 -0.9061  0.3347
  428MOL0     C57652   1.271  11.518  10.739 -0.0667 -0.1605 -0.0059
  428MOL0     O57653   1.364  11.567  10.821 -0.2849 -0.7601 -0.8574
  428MOL0     C57654   1.496  11.561  10.782 -0.4170  0.1618  0.2550
  428MOL0     C57655   1.552  11.418  10.819  0.9109 -0.0302  0.3450
  428MOL0     C57656   1.697  11.389  10.789 -0.7772 -0.6747  0.1335
  428MOL0     C57657   1.795  11.463  10.888  0.1086  0.2806 -0.0341
  428MOL0     C57658   1.946  11.435  10.879  1.1594  0.7626 -0.1734
  428MOL0     C57659   1.962  11.287  10.912 -1.0924  0.3754  0.6810
  428MOL0     C57660   2.105  11.257  10.978  0.2183  1.0124 -0.4846
  428MOL0     C57661   2.090  11.297  11.132 -0.2941 -0.7221  0.7224
  428MOL0     N57662   2.142  11.202  11.221 -0.8777 -1.1079 -0.5562
  428MOL0     C57663   2.074  11.149  11.337  0.5487 -0.0664 -0.2058
  428MOL0     C57664   2.141  11.040  11.382 -0.0768 -0.4642  0.2778
  428MOL0     C57665   2.103  10.943  11.494 -0.3539  0.2657 -0.9694
  428MOL0     C57666   2.072  11.003  11.632  0.3525  0.6609  0.8868
  428MOL0     C57667   2.201  11.028  11.717  0.7588 -0.5611  0.2047
  428MOL0     C57668   2.300  11.133  11.666 -0.1670  0.4233 -0.3460
  428MOL0     O57669   2.253  11.263  11.659  0.6228  0.6427 -0.4046
  428MOL0     C57670   2.313  11.357  11.584  0.4098  0.3354  0.3978
  428MOL0     C57671   2.270  11.485  11.573  1.2388  0.9925 -0.4201
  428MOL0     C57672   2.328  11.579  11.504  0.3956 -0.3199 -0.2418
  428MOL0     C57673   2.435  11.559  11.423 -0.0192 -0.2097 -0.5284
  428MOL0     C57674   2.496  11.650  11.317 -0.5386  0.6356 -0.5549
  428MOL0     O57675   2.614  11.621  11.258 -0.0765  0.6158  0.0427
  428MOL0     C57676   2.645  11.698  11.152 -0.1845 -0.6007  0.0829
  428MOL0     C57677   2.708  11.825  11.177 -0.4088 -0.5006 -0.9200
  428MOL0     C57678   2.749  11.902  11.070  0.5955 -0.1740 -0.0339
  428MOL0     C57679   2.756  11.863  10.934  0.2124  0.1368 -0.1432
  428MOL0     O57680   2.802  11.925  10.829 -0.9836 -0.1862  1.2072
  428MOL0     C57681   2.736  12.046  10.800  0.7017 -0.4449  0.1210
  428MOL0     C57682   2.603  12.018  10.738 -0.4920 -1.2628  0.2421
  428MOL0     C57683   2.617  11.946  10.603 -0.9359  0.6458  0.2412
  428MOL0     C57684   2.503  11.847  10.576  0.1595  0.0049  0.1806
  428MOL0     C57685   2.509  11.775  10.436  0.3810 -0.1747 -0.1541
  428MOL0     C57686   2.400  11.824  10.331 -0.0535 -0.5830 -0.6909
  428MOL0     C57687   2.415  11.980  10.306 -0.6704  0.5192 -0.3999
  428MOL0     C57688   2.535  12.013  10.225 -0.3477  0.0561  0.3992
  428MOL0    Cl57689   2.517  11.966  10.049 -0.4884  0.1350  0.3230
  428MOL0     C57690   2.696  11.738  10.909 -0.1862 -0.2135  0.2933
  428MOL0     C57691   2.641  11.661  11.020  0.5183 -0.3237  0.7233
  428MOL0     O57692   2.419  11.737  11.277  0.9456  0.3419 -0.7140
  428MOL0     C57693   2.489  11.434  11.431  0.8811  0.8041 -0.5557
  428MOL0     C57694   2.433  11.333  11.509 -0.6161  0.6444  0.5315
  428MOL0     N57695   2.251  11.029  11.298 -0.7637  0.3094 -0.3962
  428MOL0     N57696   2.257  11.124  11.216  0.1969  0.2598  0.5343
  428MOL0     C57697   1.224  11.383  10.752 -1.1466 -1.0711  0.2346
  428MOL0     C57698   1.128  11.339  10.669  0.8023  0.7909 -0.0736
  428MOL0     C57699   0.802  11.375  10.320 -0.3173 -0.0476 -0.4565
  428MOL0     C57700   0.681  11.336  10.385 -0.9950 -0.2040 -0.3597
  428MOL0     C57701   0.560  11.376  10.336  0.0676  0.2404  0.2482
  428MOL0     C57702   0.553  11.438  10.211 -0.2627 -0.3882  0.0059
  428MOL0     O57703   0.426  11.490  10.188  0.6137 -0.1562  0.6517
  428MOL0     C57704   0.414  11.589  10.087 -0.2608 -0.7628 -0.2771
  428MOL0     C57705   0.293  11.682  10.119 -0.2662  0.4130 -0.2636
  428MOL0     C57706   0.158  11.614  10.084  0.0105 -0.8651  0.1389
  428MOL0     C57707   0.114  11.498  10.182  0.1521 -0.6951 -0.9488
  428MOL0     C57708   0.155  11.371  10.132 -0.4541  0.6902  0.9459
  428MOL0     C57709   0.186  11.264  10.075  0.6694 -0.3026  0.3764
  428MOL0     C57710   0.662  11.456  10.133 -0.5286 -0.0892 -0.4191
  428MOL0     C57711   0.796  11.436  10.189  0.0813 -0.3623 -0.2913
  428MOL0     C57712   0.920  11.479  10.123 -0.5280  0.3262  0.4226
  428MOL0     H57713   1.037  11.620  10.520  0.0558  0.4589  0.3371
  428MOL0     H57714   1.228  11.708  10.663  0.9538 -1.0293 -0.3902
  428MOL0     H57715   1.526  11.569  10.677 -0.2820  0.6467  0.3302
  428MOL0     H57716   1.543  11.642  10.839 -2.4347  2.4529 -1.1466
  428MOL0     H57717   1.503  11.343  10.757  1.0471 -0.6768  0.9973
  428MOL0     H57718   1.522  11.389  10.920  1.2475 -1.2263  0.1111
  428MOL0     H57719   1.726  11.436  10.695  0.8083  3.4290  2.4030
  428MOL0     H57720   1.714  11.281  10.792 -0.2883 -0.6123 -0.1655
  428MOL0     H57721   1.778  11.570  10.883  0.2662  0.2298 -2.8634
  428MOL0     H57722   1.752  11.439  10.986 -0.4531  2.3218  0.2582
  428MOL0     H57723   1.996  11.465  10.786  1.0721  1.5131  0.0166
  428MOL0     H57724   2.007  11.484  10.955  0.6375 -1.6662  1.9706
  428MOL0     H57725   1.886  11.254  10.983  1.3267  0.7762  3.6803
  428MOL0     H57726   1.968  11.231  10.818 -0.5902  1.0831  0.2725
  428MOL0     H57727   2.188  11.310  10.929  0.1744  2.1981  0.6860
  428MOL0     H57728   2.120  11.149  10.969  0.6000  1.1264 -1.3577
  428MOL0     H57729   2.132  11.397  11.144 -1.2450 -0.2028 -0.0754
  428MOL0     H57730   1.986  11.312  11.161 -0.7686 -4.2600  1.3397
  428MOL0     H57731   1.986  11.199  11.376 -0.0724 -0.1409 -1.4551
  428MOL0     H57732   2.013  10.891  11.459  0.8984 -0.5539 -3.1600
  428MOL0     H57733   2.177  10.862  11.494  0.6376  1.0443  2.0017
  428MOL0     H57734   2.024  11.101  11.632  1.1232  1.3275  6.0756
  428MOL0     H57735   2.006  10.936  11.688  0.0288 -0.1980 -0.4523
  428MOL0     H57736   2.257  10.942  11.755  1.0533  0.0517  1.1972
  428MOL0     H57737   2.152  11.070  11.805  0.1976 -0.6584 -0.0595
  428MOL0     H57738   2.342  11.099  11.571  1.4990  3.2405 -0.7223
  428MOL0     H57739   2.385  11.126  11.735  1.6855 -0.6892 -2.5983
  428MOL0     H57740   2.178  11.507  11.627  1.9517  2.1679  0.3664
  428MOL0     H57741   2.272  11.671  11.509  1.9724  0.6036  1.6771
  428MOL0     H57742   2.722  11.873  11.274  2.8012  1.0140 -2.0046
  428MOL0     H57743   2.811  11.984  11.103 -1.6352  2.1261 -1.1350
  428MOL0     H57744   2.726  12.108  10.890 -3.5051 -2.1898  1.0853
  428MOL0     H57745   2.789  12.096  10.719 -1.1467  0.2158 -0.7421
  428MOL0     H57746   2.547  11.963  10.814  0.6925 -0.0937  2.0267
  428MOL0     H57747   2.555  12.115  10.726  0.9596 -0.2843  1.9009
  428MOL0     H57748   2.615  12.014  10.518  0.4496  1.0637  0.5189
  428MOL0     H57749   2.708  11.889  10.582 -2.1763 -0.3220 -3.0089
  428MOL0     H57750   2.407  11.899  10.582  0.7730  1.2889 -0.8398
  428MOL0     H57751   2.501  11.769  10.653 -1.5663  2.7882  3.1915
  428MOL0     H57752   2.490  11.668  10.450 -2.3992  0.4869  1.9994
  428MOL0     H57753   2.608  11.799  10.394 -0.2143 -2.4022 -3.1849
  428MOL0     H57754   2.415  11.764  10.241  0.4229  1.1554 -1.8224
  428MOL0     H57755   2.300  11.807  10.372 -0.1470 -0.1034 -0.7134
  428MOL0     H57756   2.424  12.033  10.401  0.8739 -2.8664  1.5322
  428MOL0     H57757   2.323  12.007  10.252 -2.2741 -5.4222 -1.3290
  428MOL0     H57758   2.561  12.118  10.242  0.0904 -0.2343  1.6591
  428MOL0     H57759   2.625  11.961  10.260  1.1693  2.3478  0.1554
  428MOL0     H57760   2.702  11.701  10.807  2.1470  0.6869  0.0215
  428MOL0     H57761   2.603  11.566  10.983  1.1807  0.3976 -2.0326
  428MOL0     H57762   2.592  11.416  11.402  0.6406 -2.7264  0.3025
  428MOL0     H57763   2.491  11.241  11.511 -0.0410  1.0067  1.4600
  428MOL0     H57764   1.282  11.319  10.818 -2.1868 -2.5464 -0.2450
  428MOL0     H57765   1.110  11.232  10.668 -0.3338  0.9276 -2.6268
  428MOL0     H57766   0.689  11.299  10.486 -0.2180  2.2578  0.5369
  428MOL0     H57767   0.464  11.366  10.386  1.9825 -2.5241  3.8591
  428MOL0     H57768   0.419  11.549   9.985  2.8168  1.4341 -1.1172
  428MOL0     H57769   0.495  11.661  10.097  1.2050 -2.5139  0.9999
  428MOL0     H57770   0.304  11.779  10.070  0.7704  1.3839  1.7557
  428MOL0     H57771   0.288  11.705  10.226 -0.2739 -0.3368 -0.1004
  428MOL0     H57772   0.177  11.574   9.984 -1.6264 -0.1773 -0.4738
  428MOL0     H57773   0.080  11.689  10.075  0.9986 -0.0230 -2.0045
  428MOL0     H57774   0.149  11.513  10.284  0.2010 -2.1228 -0.7429
  428MOL0     H57775   0.007  11.509  10.200  0.4457  0.6621  0.1347
  428MOL0     H57776   0.222  11.176  10.025 -1.6175 -2.0534  1.6171
  428MOL0     H57777   0.643  11.488  10.032 -0.2608 -0.7242 -0.6778
  428MOL0     H57778   0.903  11.552  10.044 -0.8130  2.0660  2.0064
  428MOL0     H57779   0.981  11.531  10.198 -0.0578  0.7709 -0.2565
  428MOL0     H57780   0.992  11.406  10.088 -0.5996  0.8318 -0.8274
  429MOL0     O57781   8.087  10.285   5.129 -0.7221  0.1360 -0.5926
  429MOL0     C57782   8.094  10.273   5.005 -0.1967 -0.1725 -0.8635
  429MOL0     O57783   7.991  10.256   4.923 -0.2562 -0.3282  0.2928
  429MOL0     C57784   7.859  10.243   4.960 -0.2297  0.2377 -0.7189
  429MOL0     C57785   7.804  10.338   5.046  0.6238  0.3281  0.4235
  429MOL0     C57786   7.666  10.324   5.079 -0.8076 -0.2478 -0.9557
  429MOL0     C57787   7.587  10.223   5.026  0.4386  0.4060 -0.8024
  429MOL0     O57788   7.459  10.207   5.061 -0.4669 -0.1048  0.1233
  429MOL0     C57789   7.376  10.326   5.050  0.3002 -0.1507 -0.4688
  429MOL0     C57790   7.352  10.379   5.196  0.3711  0.5199 -0.2036
  429MOL0     C57791   7.227  10.315   5.255  0.7198  0.5257  0.0059
  429MOL0     C57792   7.225  10.303   5.408  0.9929 -0.1740  0.0427
  429MOL0     C57793   7.208  10.452   5.475 -0.7876  0.4107 -0.5416
  429MOL0     C57794   7.058  10.512   5.450 -1.1340  0.4193  0.0548
  429MOL0     C57795   7.035  10.648   5.522 -0.3808  0.4001 -0.1170
  429MOL0     C57796   6.896  10.705   5.496 -0.0266  0.4055 -0.3003
  429MOL0     N57797   6.871  10.835   5.568 -0.1141  0.3477  0.0198
  429MOL0     C57798   6.834  10.844   5.702 -1.0511  0.0629 -0.2277
  429MOL0     C57799   6.775  10.971   5.714 -0.6725  1.6842 -0.4350
  429MOL0     C57800   6.699  11.029   5.832 -0.0842  0.4993 -0.1068
  429MOL0     C57801   6.779  11.145   5.900  0.0456  0.5972  0.4915
  429MOL0     C57802   6.733  11.160   6.049 -1.4949 -0.7218  0.0994
  429MOL0     C57803   6.822  11.256   6.132  0.5043  0.7169  0.3660
  429MOL0     O57804   6.938  11.175   6.176  0.1709 -1.5653  0.8096
  429MOL0     C57805   7.038  11.227   6.262  0.3332  0.5622 -0.3101
  429MOL0     C57806   7.065  11.357   6.292  0.6212 -0.6660 -0.4529
  429MOL0     C57807   7.166  11.403   6.373 -0.1427 -1.2929 -0.0381
  429MOL0     C57808   7.259  11.307   6.417  1.0666  0.3835  0.1118
  429MOL0     C57809   7.376  11.355   6.496  0.1703  0.3754  0.8680
  429MOL0     O57810   7.359  11.476   6.558  0.6866  0.1848  0.5898
  429MOL0     C57811   7.451  11.547   6.617  0.4294  0.3728 -0.3187
  429MOL0     C57812   7.409  11.615   6.731 -0.4565 -0.6352  0.3314
  429MOL0     C57813   7.493  11.707   6.803 -0.0114  0.0573 -0.3037
  429MOL0     C57814   7.616  11.728   6.759 -0.2145 -0.8737 -0.3101
  429MOL0     O57815   7.706  11.807   6.820 -0.4717 -0.0304  0.9242
  429MOL0     C57816   7.673  11.944   6.847 -0.0524  0.5860 -0.6771
  429MOL0     C57817   7.787  12.008   6.915 -0.7136 -0.2525  1.0194
  429MOL0     C57818   7.794  11.949   7.057  0.0121 -0.0334 -1.5703
  429MOL0     C57819   7.921  11.984   7.134 -0.7755 -0.0059  0.2661
  429MOL0     C57820   8.024  11.859   7.151 -0.0602 -0.3357 -0.2387
  429MOL0     C57821   8.153  11.883   7.228  0.1013  0.4850 -0.7771
  429MOL0     C57822   8.237  11.754   7.240 -0.0157  0.4251  0.4725
  429MOL0     C57823   8.371  11.772   7.319  0.4962 -0.1701 -0.5896
  429MOL0    Cl57824   8.342  11.817   7.490 -0.5484 -0.2476  0.1605
  429MOL0     C57825   7.669  11.649   6.648  0.0452 -0.1894  0.4489
  429MOL0     C57826   7.586  11.554   6.589  0.3623  0.9676  0.1405
  429MOL0     O57827   7.480  11.287   6.498  0.5354  0.1457  1.2474
  429MOL0     C57828   7.243  11.171   6.377 -0.1148 -0.0672  0.5643
  429MOL0     C57829   7.124  11.135   6.312  0.0009 -0.6787  0.2535
  429MOL0     N57830   6.788  11.027   5.587  0.7534 -0.6195  0.4942
  429MOL0     N57831   6.844  10.945   5.506  0.5870 -1.1560  0.2595
  429MOL0     C57832   7.637  10.140   4.931 -0.0941 -0.3548 -0.4376
  429MOL0     C57833   7.772  10.148   4.901 -1.0082 -0.3226 -0.5844
  429MOL0     C57834   8.229  10.273   4.945 -0.3542 -0.0064 -0.4109
  429MOL0     C57835   8.239  10.258   4.804  0.3472  0.7397  0.2180
  429MOL0     C57836   8.358  10.233   4.744 -0.0603 -0.6799  0.5010
  429MOL0     C57837   8.481  10.248   4.810 -0.9039 -0.2179  0.4761
  429MOL0     O57838   8.605  10.222   4.753 -0.6062  0.2915 -0.3243
  429MOL0     C57839   8.714  10.313   4.766 -0.6831  0.3113 -0.3506
  429MOL0     C57840   8.837  10.290   4.676 -0.5297 -0.2179  0.0721
  429MOL0     C57841   8.799  10.303   4.528 -1.6914  0.8070  0.1976
  429MOL0     C57842   8.936  10.269   4.453  0.2518 -0.3987  0.6136
  429MOL0     C57843   8.977  10.129   4.459 -0.4777  0.3607  0.4077
  429MOL0     C57844   9.029  10.028   4.485  0.5433  0.0816 -1.2423
  429MOL0     C57845   8.477  10.274   4.949 -0.0247 -0.2686 -0.0247
  429MOL0     C57846   8.352  10.288   5.018 -0.4738 -0.4848  0.2779
  429MOL0     C57847   8.360  10.319   5.158 -0.4954 -0.1283  0.1856
  429MOL0     H57848   7.859  10.411   5.105 -0.2138  0.1919  1.4026
  429MOL0     H57849   7.619  10.399   5.142  0.0316  1.1784 -1.9333
  429MOL0     H57850   7.424  10.409   4.998 -0.3611  1.1120  0.8744
  429MOL0     H57851   7.286  10.313   4.991 -0.7368  0.5121  0.9155
  429MOL0     H57852   7.357  10.488   5.185  0.9316  0.3860 -1.4607
  429MOL0     H57853   7.437  10.374   5.265 -1.4110 -2.8393  2.0106
  429MOL0     H57854   7.223  10.214   5.213  4.0613  0.4764 -0.4890
  429MOL0     H57855   7.140  10.370   5.219  0.4910 -0.5528 -1.1925
  429MOL0     H57856   7.139  10.245   5.442  0.1556  0.1609 -1.4398
  429MOL0     H57857   7.324  10.266   5.435  0.6796  0.9323  3.1246
  429MOL0     H57858   7.224  10.457   5.583  0.2805  0.3529 -0.6914
  429MOL0     H57859   7.294  10.511   5.445  2.2142  0.6934  6.6713
  429MOL0     H57860   7.033  10.519   5.344  1.0733 -0.2215 -0.5600
  429MOL0     H57861   6.995  10.438   5.501  0.0365 -0.4873  0.2316
  429MOL0     H57862   7.115  10.714   5.487  0.4104  1.5365  3.4147
  429MOL0     H57863   7.051  10.624   5.627 -1.9971  3.0054  0.8441
  429MOL0     H57864   6.879  10.730   5.390  2.0566 -2.9262 -1.5698
  429MOL0     H57865   6.827  10.626   5.525  0.6227 -1.0700 -2.5065
  429MOL0     H57866   6.852  10.759   5.766  1.2699 -0.5557 -1.5704
  429MOL0     H57867   6.608  11.072   5.789 -2.5851 -3.5107  0.6425
  429MOL0     H57868   6.671  10.949   5.901 -0.9852  0.5191 -0.4383
  429MOL0     H57869   6.882  11.114   5.882 -0.5419  0.5267 -3.4944
  429MOL0     H57870   6.762  11.239   5.847 -1.0846 -0.4585 -1.1203
  429MOL0     H57871   6.743  11.063   6.099  0.8159 -1.2362 -1.2628
  429MOL0     H57872   6.631  11.197   6.036 -0.4157  1.4496 -3.5569
  429MOL0     H57873   6.752  11.285   6.211 -2.2397  1.2249 -2.1212
  429MOL0     H57874   6.848  11.348   6.079 -2.4186  0.3543 -1.9333
  429MOL0     H57875   6.994  11.431   6.256 -0.1213 -0.7992  0.6819
  429MOL0     H57876   7.182  11.510   6.387  3.6945 -1.4366 -1.8574
  429MOL0     H57877   7.308  11.602   6.767  0.1145 -2.3993  1.4501
  429MOL0     H57878   7.455  11.769   6.884 -1.0322 -0.0647 -0.6734
  429MOL0     H57879   7.646  11.995   6.754 -1.1437  0.8324 -0.2527
  429MOL0     H57880   7.579  11.953   6.903 -0.3509 -0.6910 -0.9443
  429MOL0     H57881   7.884  11.990   6.868  0.4800 -2.5587  4.0492
  429MOL0     H57882   7.770  12.116   6.920 -0.2668 -0.1236  0.0375
  429MOL0     H57883   7.710  11.987   7.116  2.6039  4.0725 -0.0825
  429MOL0     H57884   7.789  11.840   7.052  1.5335 -0.0880 -2.7246
  429MOL0     H57885   7.898  12.015   7.236  1.5043  0.4393  0.7018
  429MOL0     H57886   7.975  12.072   7.099 -2.3104  0.9541  0.2211
  429MOL0     H57887   8.067  11.842   7.052 -1.1781  1.8611 -1.1741
  429MOL0     H57888   7.963  11.773   7.181  0.0668 -0.1180  0.6678
  429MOL0     H57889   8.218  11.951   7.171  2.6224 -1.5978 -0.5620
  429MOL0     H57890   8.136  11.932   7.324  1.3235 -2.1257  0.8580
  429MOL0     H57891   8.256  11.696   7.149  1.3917  0.6978  0.5767
  429MOL0     H57892   8.172  11.692   7.303 -1.6269 -0.5166 -1.9301
  429MOL0     H57893   8.438  11.686   7.327 -1.9567 -2.1840 -0.5290
  429MOL0     H57894   8.434  11.844   7.266 -1.9177 -0.1715 -3.7934
  429MOL0     H57895   7.767  11.660   6.603  0.5296  2.3977  1.9905
  429MOL0     H57896   7.625  11.503   6.501 -1.4771 -1.0751  0.4383
  429MOL0     H57897   7.307  11.096   6.423 -0.7378 -1.0474 -0.1417
  429MOL0     H57898   7.111  11.029   6.292  0.8140 -0.6760 -0.3689
  429MOL0     H57899   7.579  10.062   4.883  1.7693 -2.4209  0.5032
  429MOL0     H57900   7.817  10.086   4.824 -2.0550  0.8279 -2.1863
  429MOL0     H57901   8.147  10.264   4.747  0.0875  1.2727  0.6882
  429MOL0     H57902   8.360  10.224   4.636 -1.2453 -2.2387  0.5648
  429MOL0     H57903   8.759  10.304   4.866 -0.7957  2.3545 -0.0904
  429MOL0     H57904   8.679  10.414   4.747  3.8860  2.6658  1.9812
  429MOL0     H57905   8.879  10.191   4.697  2.2627  1.2402  2.0431
  429MOL0     H57906   8.913  10.360   4.709  0.8415 -1.4881 -0.2912
  429MOL0     H57907   8.777  10.408   4.504 -2.1181  1.1967  2.1219
  429MOL0     H57908   8.719  10.237   4.493 -3.0026  2.2629  0.3320
  429MOL0     H57909   8.915  10.292   4.348  0.8264  1.7247  0.9190
  429MOL0     H57910   9.013  10.341   4.484  0.2605  0.7109 -1.7642
  429MOL0     H57911   9.064   9.938   4.533 -1.0165  0.4820  0.8419
  429MOL0     H57912   8.570  10.277   5.005  0.0092  0.2592 -0.1048
  429MOL0     H57913   8.462  10.337   5.193 -0.8313 -1.6082  2.0669
  429MOL0     H57914   8.297  10.408   5.158 -1.0871 -0.5386 -0.3141
  429MOL0     H57915   8.315  10.238   5.216 -0.3951  0.1485  0.6445
  430MOL0     O57916   4.296   1.988   5.773 -0.6714  1.0906 -1.3335
  430MOL0     C57917   4.410   1.965   5.820  0.4083  0.5112  0.2703
  430MOL0     O57918   4.432   1.887   5.924  0.7242 -0.0188 -1.3212
  430MOL0     C57919   4.317   1.826   5.978  0.1839  0.3989 -0.2843
  430MOL0     C57920   4.279   1.694   5.951 -0.2524 -0.1131  0.6990
  430MOL0     C57921   4.159   1.641   6.001 -0.3876  0.6729 -1.3942
  430MOL0     C57922   4.080   1.709   6.095  0.7040 -0.3873  0.5965
  430MOL0     O57923   3.955   1.663   6.150  0.1110 -0.2125  0.5434
  430MOL0     C57924   3.883   1.559   6.091  0.5246 -0.5293 -0.7991
  430MOL0     C57925   3.778   1.604   5.980 -0.2619 -0.7781 -0.4431
  430MOL0     C57926   3.842   1.602   5.839 -0.1486 -0.2446 -0.1129
  430MOL0     C57927   3.866   1.455   5.794  0.5344 -0.9485  0.5402
  430MOL0     C57928   3.981   1.453   5.691  0.8576 -0.9599  0.9200
  430MOL0     C57929   4.024   1.309   5.670  0.5893 -0.2126  0.8429
  430MOL0     C57930   4.121   1.311   5.556  0.0555  0.4820 -0.2049
  430MOL0     C57931   4.190   1.174   5.536 -1.2978  0.1008 -0.5321
  430MOL0     N57932   4.113   1.084   5.453  0.7573 -0.0305  0.5132
  430MOL0     C57933   4.048   0.979   5.512  0.1541  0.5622 -0.0227
  430MOL0     C57934   3.999   0.903   5.407  0.1855 -0.2282  0.2746
  430MOL0     C57935   3.929   0.773   5.413  0.6435  0.3908  0.3193
  430MOL0     C57936   3.778   0.794   5.410 -0.2173  0.6378  1.0048
  430MOL0     C57937   3.684   0.695   5.491 -0.0082  0.0739  0.5864
  430MOL0     C57938   3.711   0.710   5.636 -0.5642  0.0037  0.7067
  430MOL0     O57939   3.602   0.666   5.724 -0.1982  0.0288  0.5064
  430MOL0     C57940   3.501   0.752   5.726 -0.3607 -0.3228  0.1888
  430MOL0     C57941   3.478   0.872   5.657 -0.6540 -0.5481 -0.0168
  430MOL0     C57942   3.363   0.942   5.677  0.1232 -0.6061 -0.3172
  430MOL0     C57943   3.246   0.892   5.743  0.5563  0.2209 -0.3359
  430MOL0     C57944   3.115   0.958   5.739 -0.1123  0.0993  0.1621
  430MOL0     O57945   3.116   1.079   5.679  0.5539  0.0557 -0.1848
  430MOL0     C57946   3.012   1.149   5.641  0.8633 -0.0772 -0.4221
  430MOL0     C57947   3.043   1.278   5.592  0.3118  0.9349 -0.0618
  430MOL0     C57948   2.937   1.367   5.570 -0.0554  0.2423  0.0557
  430MOL0     C57949   2.800   1.331   5.581  0.0849 -0.2841 -1.2022
  430MOL0     O57950   2.697   1.417   5.560  0.7578 -0.4278  0.0231
  430MOL0     C57951   2.703   1.509   5.446 -0.0281  0.1425 -0.1719
  430MOL0     C57952   2.578   1.598   5.440 -0.0636  0.2886  0.4505
  430MOL0     C57953   2.459   1.507   5.403  0.1723  0.1329  0.3345
  430MOL0     C57954   2.336   1.573   5.362 -0.5004 -0.0442 -0.4246
  430MOL0     C57955   2.207   1.494   5.370  0.0299  0.2973  0.4178
  430MOL0     C57956   2.173   1.441   5.511  0.1768 -0.0253 -0.5227
  430MOL0     C57957   2.038   1.373   5.517 -0.9365  0.7305  0.6053
  430MOL0     C57958   1.975   1.354   5.653 -0.8335  0.9368 -0.7434
  430MOL0    Cl57959   1.825   1.249   5.643 -0.5301  0.3131  0.3095
  430MOL0     C57960   2.766   1.205   5.637 -0.0998  0.5138 -0.2116
  430MOL0     C57961   2.875   1.116   5.663  0.6426  0.1115  0.2542
  430MOL0     O57962   3.022   0.893   5.787  0.8009 -0.1957  1.2148
  430MOL0     C57963   3.272   0.760   5.799  0.0959  0.8552 -0.5571
  430MOL0     C57964   3.399   0.694   5.801 -0.5090 -0.1013 -0.5555
  430MOL0     N57965   4.023   0.977   5.290  0.2819 -0.1863  0.1168
  430MOL0     N57966   4.093   1.082   5.317  0.2189  1.1192  0.1544
  430MOL0     C57967   4.118   1.841   6.132 -0.1058  0.4002  0.0884
  430MOL0     C57968   4.239   1.901   6.074  0.4962 -0.5634 -0.2644
  430MOL0     C57969   4.515   2.044   5.761 -0.1634 -0.9813  0.3906
  430MOL0     C57970   4.616   2.086   5.845  0.3192  1.1567  0.0909
  430MOL0     C57971   4.719   2.171   5.803  0.6803  1.1174  0.1657
  430MOL0     C57972   4.731   2.195   5.662  0.5740  0.5494  0.1495
  430MOL0     O57973   4.837   2.264   5.603 -0.5011  0.7972  0.4050
  430MOL0     C57974   4.846   2.407   5.619  0.4176  0.6524  0.1186
  430MOL0     C57975   4.984   2.449   5.680 -0.1837 -0.1652  0.0013
  430MOL0     C57976   5.014   2.598   5.659 -0.1042 -0.2703 -0.1274
  430MOL0     C57977   4.899   2.697   5.696 -0.2631  0.4995 -0.5021
  430MOL0     C57978   4.857   2.672   5.841  0.2064  0.4271 -0.1342
  430MOL0     C57979   4.853   2.644   5.957  0.2475  0.6717 -1.7810
  430MOL0     C57980   4.638   2.145   5.576  0.2092  1.0490 -0.6328
  430MOL0     C57981   4.529   2.071   5.626 -0.3560 -0.7285  0.0081
  430MOL0     C57982   4.420   2.020   5.528 -0.2691 -0.3482  0.0441
  430MOL0     H57983   4.342   1.638   5.883 -0.1309 -1.6623  2.0193
  430MOL0     H57984   4.126   1.548   5.957  1.7632 -0.3222 -1.0349
  430MOL0     H57985   3.947   1.473   6.066  0.6273 -0.2463 -1.5459
  430MOL0     H57986   3.828   1.524   6.178 -0.4122  4.0677  0.6840
  430MOL0     H57987   3.754   1.705   6.014  1.7076 -0.4601  0.1381
  430MOL0     H57988   3.681   1.554   5.984 -1.6324  1.5009 -2.3851
  430MOL0     H57989   3.932   1.665   5.838  2.2871 -3.4695  0.4674
  430MOL0     H57990   3.768   1.649   5.774 -0.5404  0.4271  0.7956
  430MOL0     H57991   3.897   1.393   5.879 -1.4162 -0.5094  1.6441
  430MOL0     H57992   3.769   1.422   5.756  0.3009 -1.3621  1.4461
  430MOL0     H57993   3.935   1.489   5.598 -0.2721 -2.6287  0.7953
  430MOL0     H57994   4.070   1.515   5.705 -0.7444  2.1278 -1.4041
  430MOL0     H57995   4.069   1.265   5.760  0.6100  1.1841  1.5498
  430MOL0     H57996   3.935   1.253   5.641 -0.3234  1.5730  0.0628
  430MOL0     H57997   4.202   1.380   5.581 -1.1448  2.5795 -1.8259
  430MOL0     H57998   4.071   1.343   5.464  1.5163  0.8996 -0.8914
  430MOL0     H57999   4.285   1.191   5.484  1.2563 -2.4939  2.7989
  430MOL0     H58000   4.217   1.126   5.631 -0.2221  0.1068 -0.8196
  430MOL0     H58001   4.050   0.943   5.614 -1.8095 -0.5729 -0.3347
  430MOL0     H58002   3.953   0.714   5.325  0.2259  0.1462  0.3682
  430MOL0     H58003   3.963   0.710   5.496 -0.5395  1.5951  1.7908
  430MOL0     H58004   3.747   0.899   5.412  0.0985  1.0639 -4.0259
  430MOL0     H58005   3.747   0.778   5.306  2.0765 -0.4173  0.4247
  430MOL0     H58006   3.712   0.593   5.464  1.1687  0.0231  1.8948
  430MOL0     H58007   3.579   0.707   5.462 -0.7876 -0.5906  2.9703
  430MOL0     H58008   3.742   0.812   5.662  0.0473 -0.3750  1.4910
  430MOL0     H58009   3.797   0.653   5.671 -0.1474  1.4679  2.2265
  430MOL0     H58010   3.555   0.919   5.597  1.6083 -2.1034  1.4878
  430MOL0     H58011   3.346   1.037   5.627 -1.3108 -0.8075 -0.2522
  430MOL0     H58012   3.145   1.313   5.590  0.9785 -0.8871 -1.9908
  430MOL0     H58013   2.973   1.464   5.537  3.4082 -0.2946  1.7465
  430MOL0     H58014   2.792   1.570   5.462 -2.0315  2.3891  3.4955
  430MOL0     H58015   2.731   1.460   5.352  1.9555 -0.8203  0.8614
  430MOL0     H58016   2.555   1.644   5.536 -1.7166 -3.0979  1.8567
  430MOL0     H58017   2.584   1.676   5.364 -0.5544  0.4950  0.6196
  430MOL0     H58018   2.485   1.437   5.323  1.8831  1.2592 -0.1396
  430MOL0     H58019   2.446   1.443   5.491 -1.4256  2.1197  1.6341
  430MOL0     H58020   2.349   1.608   5.259 -3.4716 -0.0514 -0.9125
  430MOL0     H58021   2.329   1.664   5.422 -0.2987 -1.0962  1.2389
  430MOL0     H58022   2.223   1.409   5.303  0.4307 -0.7353  1.7985
  430MOL0     H58023   2.126   1.555   5.327  0.7362  1.3677  0.5497
  430MOL0     H58024   2.247   1.378   5.562 -0.6218  1.1604  2.3031
  430MOL0     H58025   2.168   1.524   5.582  1.1091 -1.9910  1.9987
  430MOL0     H58026   2.045   1.276   5.467 -2.0821  1.0304 -0.1986
  430MOL0     H58027   1.968   1.434   5.458 -1.2659 -1.7255 -1.7325
  430MOL0     H58028   2.048   1.313   5.724 -3.3294 -0.5551  1.1461
  430MOL0     H58029   1.952   1.449   5.702  3.0342  2.3090 -1.2130
  430MOL0     H58030   2.664   1.172   5.654  0.3575 -1.0952 -0.4244
  430MOL0     H58031   2.846   1.019   5.701 -0.5114 -0.3421 -1.6542
  430MOL0     H58032   3.197   0.698   5.848  1.9818  0.0965  1.5719
  430MOL0     H58033   3.420   0.595   5.840 -1.3248  0.9289  2.8074
  430MOL0     H58034   4.050   1.890   6.200 -0.4527 -0.4609  0.3806
  430MOL0     H58035   4.252   2.002   6.111 -1.6232 -0.7028  1.0172
  430MOL0     H58036   4.615   2.061   5.950 -2.9142  0.7716  0.0527
  430MOL0     H58037   4.800   2.198   5.871 -0.5303 -0.5361  2.4035
  430MOL0     H58038   4.775   2.443   5.694 -0.1730 -0.3646  0.0647
  430MOL0     H58039   4.836   2.457   5.522 -3.4721  2.5968  1.2963
  430MOL0     H58040   5.061   2.393   5.627 -0.1896 -0.3537  0.1923
  430MOL0     H58041   4.999   2.421   5.785  0.0966  1.3766  0.3981
  430MOL0     H58042   5.039   2.615   5.554  2.4524  0.1165  0.4929
  430MOL0     H58043   5.104   2.627   5.714 -0.7237  0.9053  0.2877
  430MOL0     H58044   4.935   2.800   5.695  0.1552  0.4303  1.9473
  430MOL0     H58045   4.811   2.686   5.632  0.1984  0.3878 -1.1211
  430MOL0     H58046   4.854   2.656   6.064  4.0577 -0.1487 -1.5727
  430MOL0     H58047   4.648   2.172   5.472  1.3188 -2.9951 -1.7532
  430MOL0     H58048   4.452   2.045   5.426  1.6579  0.8098  0.8863
  430MOL0     H58049   4.400   1.912   5.534  0.2673 -0.5776 -1.6997
  430MOL0     H58050   4.327   2.074   5.545 -1.2270 -1.3588 -1.6641
  431MOL0     O58051   1.593   7.360   5.180 -0.6404 -0.4362  0.2643
  431MOL0     C58052   1.683   7.279   5.190 -0.2641 -0.3492 -0.2026
  431MOL0     O58053   1.807   7.302   5.255  0.0214  0.6141 -0.8591
  431MOL0     C58054   1.849   7.427   5.296 -0.0543  0.3185  0.3027
  431MOL0     C58055   1.877   7.536   5.213 -1.1607 -0.6189 -0.3779
  431MOL0     C58056   1.944   7.651   5.260 -0.6050 -0.1106  0.4333
  431MOL0     C58057   1.986   7.661   5.392 -0.5181  0.5621 -0.4956
  431MOL0     O58058   2.056   7.762   5.446 -0.7210 -0.6625 -0.4531
  431MOL0     C58059   2.074   7.887   5.378  0.9511 -0.4006  0.9307
  431MOL0     C58060   1.946   7.965   5.336 -0.5071 -0.9494 -0.7333
  431MOL0     C58061   1.856   8.001   5.453 -0.4958 -0.4018  0.8415
  431MOL0     C58062   1.750   7.898   5.468  0.6301  0.0037  0.1938
  431MOL0     C58063   1.698   7.865   5.608  0.6971  0.9428 -0.2498
  431MOL0     C58064   1.768   7.737   5.663  0.7309  0.0895  0.0560
  431MOL0     C58065   1.766   7.728   5.818  0.1895 -0.1263 -0.4208
  431MOL0     C58066   1.864   7.815   5.873  0.2444 -1.4447  0.0082
  431MOL0     N58067   1.994   7.767   5.838 -0.9033 -0.5907 -1.4096
  431MOL0     C58068   2.083   7.843   5.772 -0.3067  0.3711 -0.2280
  431MOL0     C58069   2.197   7.763   5.765 -0.0761 -0.7507  0.7884
  431MOL0     C58070   2.329   7.816   5.705 -0.7807  0.1159 -0.7154
  431MOL0     C58071   2.404   7.715   5.621  0.3962 -0.3290  0.0726
  431MOL0     C58072   2.548   7.771   5.585 -0.6124 -0.4686 -0.2405
  431MOL0     C58073   2.634   7.816   5.697  0.1224 -0.2868 -0.0523
  431MOL0     O58074   2.608   7.948   5.752 -0.5497  0.0683 -0.5319
  431MOL0     C58075   2.620   8.062   5.671 -0.0068  0.1235 -0.3958
  431MOL0     C58076   2.551   8.173   5.709 -0.1693 -0.5138 -0.1578
  431MOL0     C58077   2.578   8.295   5.655 -0.9919  0.0722  0.3606
  431MOL0     C58078   2.673   8.312   5.554  0.0935 -0.0907 -0.1804
  431MOL0     C58079   2.704   8.445   5.494  0.5452 -0.2875  0.5005
  431MOL0     O58080   2.686   8.453   5.361 -1.0002  0.3687 -0.6558
  431MOL0     C58081   2.739   8.564   5.297  0.4299  0.3643  0.3624
  431MOL0     C58082   2.653   8.654   5.241 -0.6040  0.0507  0.7824
  431MOL0     C58083   2.689   8.766   5.159 -0.0663  0.4088 -0.4564
  431MOL0     C58084   2.825   8.778   5.131  0.3081  0.0221 -0.6828
  431MOL0     O58085   2.877   8.868   5.039  0.9496  0.7844  0.1246
  431MOL0     C58086   2.808   8.968   4.981 -0.2496  0.4596  1.3352
  431MOL0     C58087   2.878   9.000   4.847  0.3921  0.1917 -0.0507
  431MOL0     C58088   2.796   9.081   4.745  0.0556  0.8975 -0.6395
  431MOL0     C58089   2.782   9.215   4.802  0.3534 -0.1907  0.2928
  431MOL0     C58090   2.722   9.313   4.710 -0.2716 -0.1790 -0.0945
  431MOL0     C58091   2.594   9.272   4.646 -0.1457  0.2216 -0.1503
  431MOL0     C58092   2.468   9.267   4.734 -0.5428 -0.7802  0.1626
  431MOL0     C58093   2.346   9.241   4.641  0.6002  0.2679 -0.5925
  431MOL0    Cl58094   2.299   9.350   4.498 -0.0871 -0.2147  0.3843
  431MOL0     C58095   2.916   8.692   5.198 -0.1048 -0.5852 -0.2189
  431MOL0     C58096   2.876   8.587   5.285 -0.6462 -0.3367  0.2947
  431MOL0     O58097   2.740   8.534   5.567 -0.0435 -0.2475  0.0774
  431MOL0     C58098   2.734   8.193   5.507 -0.2412  0.6581  0.0683
  431MOL0     C58099   2.709   8.068   5.570 -0.6915  0.6313  0.2965
  431MOL0     N58100   2.185   7.651   5.839 -0.1344 -0.0315 -0.4185
  431MOL0     N58101   2.062   7.651   5.881  0.6835 -0.7980  0.7816
  431MOL0     C58102   1.965   7.545   5.474  0.4031 -0.7969  0.0562
  431MOL0     C58103   1.898   7.428   5.424 -0.9560  0.1945 -0.2957
  431MOL0     C58104   1.679   7.158   5.121 -0.5585  0.9802 -0.5237
  431MOL0     C58105   1.797   7.096   5.082  0.1699 -0.2172  0.1696
  431MOL0     C58106   1.797   6.965   5.026  0.6023 -0.0164  0.1445
  431MOL0     C58107   1.674   6.905   4.996 -0.5555  0.4809  1.0197
  431MOL0     O58108   1.657   6.785   4.932 -0.4377 -0.1569  0.3471
  431MOL0     C58109   1.773   6.713   4.888 -0.2936 -0.2887  0.5308
  431MOL0     C58110   1.728   6.614   4.786  0.5196  0.8065  0.6954
  431MOL0     C58111   1.831   6.593   4.676  0.0927  0.6179 -0.3869
  431MOL0     C58112   1.784   6.510   4.550  0.3377 -0.2314 -0.1718
  431MOL0     C58113   1.712   6.601   4.464  0.1931 -0.4729  1.2228
  431MOL0     C58114   1.660   6.687   4.391  0.9212  0.0316 -0.1493
  431MOL0     C58115   1.555   6.963   5.033 -0.2078 -0.2424  0.0230
  431MOL0     C58116   1.554   7.084   5.105 -0.2730 -0.7029  0.1768
  431MOL0     C58117   1.422   7.136   5.159  0.1930 -0.2180  0.6963
  431MOL0     H58118   1.849   7.524   5.109 -1.8797  2.8328 -0.7033
  431MOL0     H58119   1.966   7.727   5.185  0.1663 -2.6844 -2.1335
  431MOL0     H58120   2.127   7.957   5.443  1.1453  1.2525 -0.9231
  431MOL0     H58121   2.144   7.869   5.296  2.0911  1.9791  1.3015
  431MOL0     H58122   1.891   7.902   5.266 -1.7008  1.0111 -1.6531
  431MOL0     H58123   1.980   8.053   5.281  1.4757 -0.2686  1.4193
  431MOL0     H58124   1.801   8.095   5.443 -2.6773 -1.5004  1.8974
  431MOL0     H58125   1.918   8.019   5.541  1.0843  4.3499 -0.9072
  431MOL0     H58126   1.669   7.925   5.399  0.0264  2.3906  1.7463
  431MOL0     H58127   1.787   7.804   5.426 -0.7906 -0.8835  0.8389
  431MOL0     H58128   1.705   7.951   5.676 -1.8597 -0.1393  1.5215
  431MOL0     H58129   1.594   7.833   5.601  1.0424 -0.0390 -1.1246
  431MOL0     H58130   1.722   7.653   5.610  0.5514  0.5120 -0.4629
  431MOL0     H58131   1.874   7.749   5.639  0.2227  1.3767 -1.7036
  431MOL0     H58132   1.789   7.631   5.864  1.0891  1.7474  3.4636
  431MOL0     H58133   1.659   7.739   5.840 -1.1316 -2.5275 -4.5359
  431MOL0     H58134   1.841   7.912   5.828  1.6213 -0.9514  0.3078
  431MOL0     H58135   1.849   7.825   5.981 -1.3909  0.7180 -0.3606
  431MOL0     H58136   2.092   7.944   5.732  0.9605  1.4634  2.5368
  431MOL0     H58137   2.323   7.913   5.655  2.2748  2.1466  2.4028
  431MOL0     H58138   2.392   7.830   5.793 -1.2389 -0.2569 -0.3307
  431MOL0     H58139   2.409   7.620   5.675  2.2131  0.2215  0.9403
  431MOL0     H58140   2.344   7.704   5.530  0.7745  1.7111 -0.4636
  431MOL0     H58141   2.538   7.857   5.519 -1.0892 -0.6608 -0.4212
  431MOL0     H58142   2.614   7.695   5.542 -0.9236 -0.6710 -0.3707
  431MOL0     H58143   2.741   7.809   5.676 -0.2872 -1.6865 -1.9853
  431MOL0     H58144   2.623   7.744   5.779  2.1591  0.3598  0.8702
  431MOL0     H58145   2.496   8.166   5.802 -0.3910 -0.9062 -0.3169
  431MOL0     H58146   2.528   8.378   5.705  0.2302  0.7802  0.4480
  431MOL0     H58147   2.545   8.651   5.253 -0.6292  1.0151  0.8252
  431MOL0     H58148   2.613   8.827   5.112 -1.0826 -0.2604  0.2757
  431MOL0     H58149   2.711   8.928   4.951  0.0119 -1.9648  3.3224
  431MOL0     H58150   2.799   9.057   5.044 -0.1597  0.5470  1.2226
  431MOL0     H58151   2.978   9.040   4.866  1.0742 -2.3054  2.2026
  431MOL0     H58152   2.904   8.910   4.791 -0.1412  0.7657 -1.2606
  431MOL0     H58153   2.843   9.075   4.647  2.3034 -1.4700  0.4533
  431MOL0     H58154   2.699   9.029   4.736  0.7561 -0.6006  0.0156
  431MOL0     H58155   2.880   9.250   4.835 -1.0168  0.7818  3.7184
  431MOL0     H58156   2.725   9.214   4.895  5.1149  1.7967  3.6108
  431MOL0     H58157   2.792   9.326   4.627 -0.5395  0.5781 -0.2082
  431MOL0     H58158   2.721   9.410   4.762  3.6134 -0.9073  1.7225
  431MOL0     H58159   2.576   9.336   4.559  2.0620 -1.9064 -2.3282
  431MOL0     H58160   2.606   9.175   4.597  2.3579  0.4516 -0.1136
  431MOL0     H58161   2.461   9.355   4.797  0.1127  0.2882 -1.2072
  431MOL0     H58162   2.495   9.186   4.803  1.7234 -1.7128 -1.6713
  431MOL0     H58163   2.341   9.141   4.598  1.9145 -0.9535  1.8924
  431MOL0     H58164   2.263   9.235   4.713  1.8634  0.7415  0.9469
  431MOL0     H58165   3.022   8.708   5.179 -0.2566 -0.2255 -0.7852
  431MOL0     H58166   2.950   8.518   5.323 -0.9867 -1.9784 -1.8612
  431MOL0     H58167   2.804   8.202   5.425  0.7021 -1.0607  0.6465
  431MOL0     H58168   2.752   7.972   5.543 -2.9091 -0.0724 -1.0101
  431MOL0     H58169   2.009   7.538   5.573  0.9745 -3.4522 -0.2873
  431MOL0     H58170   1.875   7.340   5.483 -1.6643  2.3689  2.9885
  431MOL0     H58171   1.893   7.146   5.073  1.2488 -1.8970  1.7065
  431MOL0     H58172   1.892   6.922   4.998  1.4564  2.0680 -0.2669
  431MOL0     H58173   1.817   6.668   4.977 -2.0384  1.6593  2.5145
  431MOL0     H58174   1.845   6.781   4.841  0.8957 -2.0140 -0.2132
  431MOL0     H58175   1.647   6.665   4.732  0.9598 -0.5271 -1.3070
  431MOL0     H58176   1.685   6.524   4.832 -0.3781 -0.2574 -2.0275
  431MOL0     H58177   1.919   6.544   4.717  1.2825  0.7339 -2.6080
  431MOL0     H58178   1.863   6.692   4.642 -1.8744  1.0134 -1.1895
  431MOL0     H58179   1.859   6.461   4.487 -0.0439 -1.2351  0.1322
  431MOL0     H58180   1.722   6.423   4.574  1.9477 -2.6084 -3.7599
  431MOL0     H58181   1.599   6.762   4.345  3.0138  1.3579 -0.8947
  431MOL0     H58182   1.455   6.921   5.027 -0.6457  0.4746  1.8149
  431MOL0     H58183   1.342   7.077   5.114  0.4306  1.2759 -1.8452
  431MOL0     H58184   1.423   7.122   5.268 -0.2311 -0.7576  0.6334
  431MOL0     H58185   1.400   7.239   5.128 -4.5639 -1.4182 -0.6496
  432MOL0     O58186   3.361   1.317   2.442 -0.5510  0.0463  0.1991
  432MOL0     C58187   3.444   1.225   2.433 -0.4319  0.2253 -0.6396
  432MOL0     O58188   3.574   1.243   2.462  0.6804  0.0192  0.4314
  432MOL0     C58189   3.612   1.361   2.515 -1.2873 -0.1362  1.0714
  432MOL0     C58190   3.731   1.417   2.475  0.2299  0.5465 -0.2596
  432MOL0     C58191   3.774   1.546   2.507  0.2244  0.1890  0.5131
  432MOL0     C58192   3.703   1.615   2.606  0.0437  0.7082  0.0593
  432MOL0     O58193   3.754   1.734   2.658 -0.3536 -0.4005 -0.9641
  432MOL0     C58194   3.735   1.779   2.790  0.4226 -0.7439 -0.4605
  432MOL0     C58195   3.723   1.935   2.803 -0.2080  0.6321 -0.3735
  432MOL0     C58196   3.768   1.975   2.944 -1.2603  0.0708 -0.6377
  432MOL0     C58197   3.716   2.109   2.990  0.6050  0.6061 -0.0504
  432MOL0     C58198   3.757   2.154   3.127  0.4200  0.1998  0.6675
  432MOL0     C58199   3.912   2.189   3.124  0.4510 -0.5742  0.7970
  432MOL0     C58200   3.968   2.240   3.250 -0.1167  0.4017 -0.1074
  432MOL0     C58201   4.081   2.336   3.226 -0.6372 -1.2123 -0.5222
  432MOL0     N58202   4.149   2.363   3.350  0.1768 -0.2830 -0.5060
  432MOL0     C58203   4.274   2.418   3.361  0.4478 -0.3962 -0.4857
  432MOL0     C58204   4.288   2.433   3.497 -0.0157 -0.3709  0.4077
  432MOL0     C58205   4.411   2.495   3.558  0.4375 -0.8617 -0.9681
  432MOL0     C58206   4.397   2.646   3.532  0.1115 -0.5306 -0.1705
  432MOL0     C58207   4.507   2.733   3.595  0.4468  0.8700 -0.2422
  432MOL0     C58208   4.442   2.826   3.695  0.1617 -0.2049 -0.7833
  432MOL0     O58209   4.553   2.908   3.751 -0.3101 -0.5001 -0.0275
  432MOL0     C58210   4.513   2.994   3.861  0.2423 -0.6158  1.2039
  432MOL0     C58211   4.609   3.066   3.931 -0.0311 -1.1137 -0.8642
  432MOL0     C58212   4.574   3.149   4.037 -0.0552 -0.4315 -0.4876
  432MOL0     C58213   4.435   3.171   4.070 -0.9445  0.3781  0.7883
  432MOL0     C58214   4.399   3.259   4.190  0.4120 -0.2510  0.1281
  432MOL0     O58215   4.504   3.302   4.276 -0.5855  0.4721  0.6474
  432MOL0     C58216   4.455   3.375   4.388  0.2177  0.2729 -0.5882
  432MOL0     C58217   4.470   3.511   4.401  0.0432 -0.9157 -0.5709
  432MOL0     C58218   4.432   3.574   4.520 -0.5348 -0.0286 -0.7468
  432MOL0     C58219   4.375   3.503   4.624 -0.0015  0.6052  0.1746
  432MOL0     O58220   4.336   3.580   4.741 -0.0127 -0.5733  0.0061
  432MOL0     C58221   4.298   3.528   4.866  0.0666  0.3546 -0.5236
  432MOL0     C58222   4.157   3.476   4.880  1.2470  0.7885 -0.3444
  432MOL0     C58223   4.051   3.578   4.855 -0.0865 -0.1888  0.5562
  432MOL0     C58224   4.001   3.585   4.710 -1.2334  0.2258  0.0776
  432MOL0     C58225   3.920   3.718   4.687 -0.4216  0.0342 -0.2205
  432MOL0     C58226   3.885   3.747   4.535  0.4481  0.2385 -0.9584
  432MOL0     C58227   3.990   3.824   4.449  0.0553 -0.4693  0.9542
  432MOL0     C58228   4.064   3.713   4.374  0.6536 -0.4737 -0.5460
  432MOL0    Cl58229   4.205   3.769   4.283  0.1857 -0.0095  0.5379
  432MOL0     C58230   4.364   3.358   4.612 -0.2589  1.3197 -1.1393
  432MOL0     C58231   4.402   3.303   4.491  0.3238  0.0087  0.3706
  432MOL0     O58232   4.283   3.273   4.212  0.5754 -0.4821 -1.0021
  432MOL0     C58233   4.340   3.101   3.993 -0.7748 -1.1517  0.4338
  432MOL0     C58234   4.378   3.023   3.890  1.1684  0.9572 -0.1976
  432MOL0     N58235   4.181   2.379   3.569 -0.7418  0.3916  0.2571
  432MOL0     N58236   4.100   2.339   3.477  0.6452 -0.0133  0.2672
  432MOL0     C58237   3.588   1.554   2.652  0.1103  0.0980 -0.0025
  432MOL0     C58238   3.538   1.431   2.612 -1.6101  0.1604 -0.4311
  432MOL0     C58239   3.397   1.080   2.398 -0.5743 -0.0904  0.0828
  432MOL0     C58240   3.491   0.975   2.382 -0.7674 -0.4476 -0.1161
  432MOL0     C58241   3.450   0.845   2.343  0.2057 -0.2404 -0.0987
  432MOL0     C58242   3.312   0.808   2.340  0.1286  0.7363 -1.0339
  432MOL0     O58243   3.280   0.680   2.304  0.0499  0.0344  0.5305
  432MOL0     C58244   3.175   0.608   2.371 -0.6516  0.4536  0.1100
  432MOL0     C58245   3.207   0.559   2.514 -0.2065 -0.1066 -0.2968
  432MOL0     C58246   3.341   0.486   2.527  0.6585 -0.2602  1.4235
  432MOL0     C58247   3.348   0.337   2.515  0.9750  0.0082 -0.0079
  432MOL0     C58248   3.259   0.284   2.619  0.0333  0.8193 -0.3567
  432MOL0     C58249   3.198   0.237   2.717 -0.0997  0.0792  0.9553
  432MOL0     C58250   3.218   0.917   2.363  1.1514  0.1398  0.0162
  432MOL0     C58251   3.259   1.049   2.383  0.0992 -1.0378 -0.8869
  432MOL0     C58252   3.147   1.149   2.372  0.1846 -0.2686  0.3676
  432MOL0     H58253   3.777   1.365   2.391  0.3874  1.1931 -0.5790
  432MOL0     H58254   3.856   1.582   2.446 -0.4392 -2.1451 -1.9821
  432MOL0     H58255   3.645   1.738   2.836 -0.9600  1.6235 -0.9024
  432MOL0     H58256   3.815   1.733   2.849 -0.1772 -0.3842  0.6568
  432MOL0     H58257   3.619   1.961   2.783 -0.1457  1.7602  0.6418
  432MOL0     H58258   3.787   1.988   2.732  3.3033 -0.7853  1.4998
  432MOL0     H58259   3.877   1.970   2.944 -1.2858 -1.0024 -1.4695
  432MOL0     H58260   3.736   1.895   3.012  3.0022 -1.7521 -0.4553
  432MOL0     H58261   3.761   2.174   2.914 -1.3189  0.8378 -1.0518
  432MOL0     H58262   3.610   2.127   2.970 -0.1428 -0.5766  2.4688
  432MOL0     H58263   3.705   2.247   3.148 -0.3613 -0.1538  0.3402
  432MOL0     H58264   3.733   2.059   3.177  1.1347 -2.4085 -3.4257
  432MOL0     H58265   3.969   2.102   3.089 -0.1870 -0.5600 -0.3042
  432MOL0     H58266   3.933   2.262   3.046  2.2424 -0.4347  1.3602
  432MOL0     H58267   4.005   2.154   3.307  1.6024  0.0274 -1.6954
  432MOL0     H58268   3.882   2.280   3.304 -0.8873 -1.5774  0.2081
  432MOL0     H58269   4.159   2.299   3.160  1.4411  1.6983  0.0681
  432MOL0     H58270   4.038   2.431   3.191 -0.4162  0.3453  2.9893
  432MOL0     H58271   4.338   2.444   3.277  0.2695 -1.9273 -1.1300
  432MOL0     H58272   4.424   2.492   3.667  1.9241  1.4593 -0.9883
  432MOL0     H58273   4.504   2.461   3.511 -0.2596 -3.4545 -0.6326
  432MOL0     H58274   4.384   2.653   3.424 -1.2181  0.0942  0.0167
  432MOL0     H58275   4.300   2.672   3.576 -0.4929 -1.3617 -0.9871
  432MOL0     H58276   4.548   2.789   3.511 -0.4072  0.7170 -0.7801
  432MOL0     H58277   4.587   2.668   3.633  0.4001 -0.0813 -1.7072
  432MOL0     H58278   4.384   2.772   3.771 -3.3539  2.5366 -1.2580
  432MOL0     H58279   4.366   2.885   3.643 -1.5421 -2.6131 -1.1590
  432MOL0     H58280   4.713   3.060   3.900 -0.0686 -1.2269 -0.9698
  432MOL0     H58281   4.644   3.213   4.091 -0.2424 -0.5370 -0.1166
  432MOL0     H58282   4.515   3.567   4.319 -2.3784 -1.7802 -2.6095
  432MOL0     H58283   4.447   3.681   4.532 -1.2754  0.0373 -0.3527
  432MOL0     H58284   4.373   3.460   4.907  2.3267  3.1323  0.2010
  432MOL0     H58285   4.301   3.621   4.922 -1.2684  0.3050 -0.3321
  432MOL0     H58286   4.147   3.405   4.798  0.3008 -0.7085  1.0014
  432MOL0     H58287   4.142   3.416   4.971 -1.5960 -2.6447 -2.7735
  432MOL0     H58288   3.967   3.562   4.923  0.6944  1.8860  2.1104
  432MOL0     H58289   4.095   3.675   4.878  0.8179 -0.3499 -0.4070
  432MOL0     H58290   3.937   3.498   4.693 -0.3925 -0.2890 -0.5324
  432MOL0     H58291   4.081   3.580   4.636  0.9919  0.3530  2.3407
  432MOL0     H58292   3.982   3.801   4.723  0.7091 -1.2487  0.9059
  432MOL0     H58293   3.831   3.706   4.749 -0.5393  2.7059  0.2239
  432MOL0     H58294   3.870   3.647   4.493 -1.7984 -0.3808  1.0832
  432MOL0     H58295   3.785   3.793   4.532 -0.1838 -0.6080  2.6036
  432MOL0     H58296   4.053   3.870   4.526 -1.1705  0.6191  1.3444
  432MOL0     H58297   3.953   3.912   4.396 -0.0113  0.0421  1.8233
  432MOL0     H58298   4.086   3.640   4.453 -2.1878  0.9711  1.8017
  432MOL0     H58299   3.999   3.669   4.298  1.6377 -2.5760 -0.2433
  432MOL0     H58300   4.339   3.288   4.691  2.0710  1.5488 -0.1141
  432MOL0     H58301   4.386   3.198   4.469 -2.3581  0.5445 -0.6263
  432MOL0     H58302   4.236   3.114   4.021  0.0065  2.3142  2.2562
  432MOL0     H58303   4.286   2.983   3.847  0.7356  1.0265  0.6496
  432MOL0     H58304   3.540   1.615   2.728  1.6301 -0.7498  1.7338
  432MOL0     H58305   3.444   1.394   2.650 -1.0754 -1.4462 -0.6005
  432MOL0     H58306   3.595   1.007   2.382 -0.1530 -1.7809  4.3740
  432MOL0     H58307   3.519   0.761   2.346 -0.2146 -0.7421 -2.3446
  432MOL0     H58308   3.137   0.522   2.315 -0.0566  1.2597 -1.6163
  432MOL0     H58309   3.086   0.672   2.374 -2.2700 -1.5908 -1.5440
  432MOL0     H58310   3.122   0.497   2.545  0.2860 -0.6622 -0.0351
  432MOL0     H58311   3.212   0.645   2.581  2.3470  0.2937 -0.9244
  432MOL0     H58312   3.372   0.505   2.630 -1.5803 -2.4399  2.5888
  432MOL0     H58313   3.421   0.523   2.462 -0.7577 -0.5385 -0.5535
  432MOL0     H58314   3.319   0.293   2.419 -2.4767 -2.2242  1.8165
  432MOL0     H58315   3.452   0.309   2.534  1.2845 -1.1581 -2.8415
  432MOL0     H58316   3.143   0.183   2.792  1.1262  0.5894  2.2714
  432MOL0     H58317   3.114   0.895   2.338  0.7645  0.9569  0.8548
  432MOL0     H58318   3.119   1.192   2.469  3.1035  0.2692  1.0816
  432MOL0     H58319   3.163   1.229   2.299 -0.5059 -1.4690 -1.1415
  432MOL0     H58320   3.055   1.098   2.343  0.9471 -0.1134 -2.6151
  433MOL0     O58321   7.937   4.661   5.537 -0.5737 -0.0568 -0.3771
  433MOL0     C58322   7.885   4.548   5.540  0.6192  0.1965 -0.6093
  433MOL0     O58323   7.820   4.481   5.435  0.0394 -0.3824  0.2225
  433MOL0     C58324   7.823   4.538   5.313  0.4503  0.1676 -0.4858
  433MOL0     C58325   7.927   4.520   5.217 -0.2787  1.3265  0.1378
  433MOL0     C58326   7.911   4.580   5.092  0.5668  0.8551  0.1764
  433MOL0     C58327   7.808   4.674   5.076 -0.2079 -0.1511 -0.3097
  433MOL0     O58328   7.789   4.741   4.964 -0.1952  0.3851  0.3888
  433MOL0     C58329   7.906   4.771   4.879  1.1630  0.1963  0.9339
  433MOL0     C58330   7.978   4.894   4.925  0.3959 -0.5021  0.2647
  433MOL0     C58331   8.076   4.956   4.821  0.4968 -0.3372 -0.0559
  433MOL0     C58332   8.009   5.039   4.712  0.3887 -0.8623  0.0316
  433MOL0     C58333   8.106   5.125   4.628 -0.1460  0.1012  0.5922
  433MOL0     C58334   8.169   5.233   4.720  0.2383 -0.3364  0.5760
  433MOL0     C58335   8.208   5.362   4.646  0.0378  0.0533  0.3921
  433MOL0     C58336   8.089   5.457   4.653 -0.9142  0.0370  1.5861
  433MOL0     N58337   8.100   5.580   4.573 -0.1789  0.0436  0.4546
  433MOL0     C58338   8.188   5.677   4.577  0.4234 -0.0025 -0.7452
  433MOL0     C58339   8.160   5.767   4.476  0.6906  0.1906  0.3124
  433MOL0     C58340   8.249   5.879   4.430  0.6478  0.0256  0.7596
  433MOL0     C58341   8.334   5.853   4.305  0.5121 -0.5788  1.1171
  433MOL0     C58342   8.369   5.702   4.285  0.0592 -0.0542  0.0332
  433MOL0     C58343   8.483   5.662   4.376 -0.0059 -0.4751 -0.2855
  433MOL0     O58344   8.592   5.755   4.379 -0.5034  0.4536 -0.3150
  433MOL0     C58345   8.650   5.803   4.256 -0.3110  0.6438 -0.6171
  433MOL0     C58346   8.689   5.702   4.169 -0.4739 -1.0463 -0.6884
  433MOL0     C58347   8.755   5.747   4.053  0.6691 -0.4470 -0.6286
  433MOL0     C58348   8.786   5.888   4.028 -0.5019  0.2350 -0.7048
  433MOL0     C58349   8.843   5.917   3.896  0.8295 -0.5435  0.3548
  433MOL0     O58350   8.897   6.041   3.887 -0.3481  0.0632  0.4024
  433MOL0     C58351   8.938   6.100   3.765  0.3395  0.7259 -0.5761
  433MOL0     C58352   9.055   6.166   3.771  0.5185 -0.4076  0.4923
  433MOL0     C58353   9.108   6.223   3.657 -0.2547  0.2848 -0.1990
  433MOL0     C58354   9.050   6.219   3.536  0.0098  0.6477  0.2479
  433MOL0     O58355   9.111   6.275   3.428 -0.0836  0.2487 -0.3537
  433MOL0     C58356   9.122   6.415   3.434  0.7122  0.1355  0.1882
  433MOL0     C58357   9.101   6.469   3.299  0.1601 -0.2022  0.4980
  433MOL0     C58358   9.048   6.613   3.301 -0.4314 -0.3925  0.6316
  433MOL0     C58359   9.009   6.654   3.159  0.2208 -0.2169  0.2300
  433MOL0     C58360   8.939   6.790   3.146  0.3422  0.6495  0.8065
  433MOL0     C58361   8.783   6.774   3.151 -0.4412 -0.2774 -0.1549
  433MOL0     C58362   8.718   6.719   3.024  0.1278  0.0357 -0.1771
  433MOL0     C58363   8.581   6.786   2.999  1.2529 -0.0366  0.6248
  433MOL0    Cl58364   8.490   6.662   2.899 -0.0452 -0.0894 -0.0977
  433MOL0     C58365   8.928   6.147   3.523 -0.5028 -0.2333 -0.2747
  433MOL0     C58366   8.870   6.087   3.639 -0.4125 -0.4250 -0.1554
  433MOL0     O58367   8.845   5.828   3.806 -0.3202 -0.1773 -0.8659
  433MOL0     C58368   8.746   5.982   4.137  0.3932  0.4910  0.8359
  433MOL0     C58369   8.679   5.936   4.245  0.4544 -0.1580 -1.1526
  433MOL0     N58370   8.040   5.738   4.422  0.0963  0.3224 -0.9973
  433MOL0     N58371   8.016   5.615   4.472 -0.0834 -0.4659  0.3598
  433MOL0     C58372   7.705   4.671   5.167  0.1948 -0.4206 -0.0138
  433MOL0     C58373   7.708   4.603   5.283  0.1325 -0.8200 -0.4468
  433MOL0     C58374   7.870   4.472   5.669  0.5774 -0.2194 -0.0376
  433MOL0     C58375   7.784   4.357   5.660  0.3202 -0.9561 -0.6586
  433MOL0     C58376   7.784   4.264   5.762  0.0156 -0.2634  0.0877
  433MOL0     C58377   7.863   4.281   5.876  0.3159 -0.2341  0.5934
  433MOL0     O58378   7.869   4.206   5.996 -0.0176 -0.1715 -0.0132
  433MOL0     C58379   7.819   4.072   5.999 -0.0251 -0.2531  0.2421
  433MOL0     C58380   7.842   4.007   6.146 -0.9472 -0.2944  0.1119
  433MOL0     C58381   7.747   4.067   6.256  0.1876 -0.4660  0.8818
  433MOL0     C58382   7.721   3.972   6.381 -0.0172  0.0049 -0.5786
  433MOL0     C58383   7.845   3.892   6.407  0.0322 -0.1249  0.2748
  433MOL0     C58384   7.948   3.832   6.433  0.7089  0.6687 -0.3389
  433MOL0     C58385   7.934   4.391   5.891 -0.5861 -0.4714  0.6261
  433MOL0     C58386   7.947   4.488   5.788 -0.0297  0.1402  0.4159
  433MOL0     C58387   8.048   4.600   5.811  0.0450 -0.2258  0.1383
  433MOL0     H58388   8.005   4.449   5.243 -1.5540  1.2956  4.7087
  433MOL0     H58389   7.975   4.546   5.011  1.6271 -0.0472  1.3311
  433MOL0     H58390   7.986   4.696   4.878  0.3842 -0.6709  2.0103
  433MOL0     H58391   7.867   4.785   4.777  1.6229  0.4385  0.7899
  433MOL0     H58392   8.039   4.889   5.016  1.3498 -1.4925 -0.3968
  433MOL0     H58393   7.908   4.972   4.956  1.6066 -0.1825  2.3834
  433MOL0     H58394   8.140   4.880   4.774 -0.8341  2.0627 -7.0079
  433MOL0     H58395   8.141   5.025   4.875  3.7371 -0.6549 -3.1936
  433MOL0     H58396   7.954   4.972   4.646 -0.0058  0.3732 -0.9309
  433MOL0     H58397   7.941   5.110   4.761 -0.3382 -0.4081 -1.5632
  433MOL0     H58398   8.180   5.059   4.583  0.2200  0.6958  0.3105
  433MOL0     H58399   8.044   5.165   4.547 -0.8802 -0.5171  0.8389
  433MOL0     H58400   8.097   5.256   4.799 -0.4414 -0.6867  0.0756
  433MOL0     H58401   8.258   5.189   4.766  0.4150 -2.6980 -1.7740
  433MOL0     H58402   8.249   5.335   4.549  1.1215  0.6377  0.6675
  433MOL0     H58403   8.297   5.400   4.698  0.5476 -3.2228  2.1816
  433MOL0     H58404   8.005   5.394   4.623  0.8394 -0.4653 -3.2140
  433MOL0     H58405   8.081   5.486   4.758 -1.6168 -0.2993  1.6320
  433MOL0     H58406   8.280   5.680   4.635 -0.1309 -0.4924  0.1738
  433MOL0     H58407   8.189   5.968   4.410  1.5069  0.2301 -1.1365
  433MOL0     H58408   8.331   5.889   4.502 -0.2700 -0.5216  1.9042
  433MOL0     H58409   8.273   5.890   4.222  2.5356  1.6634  0.5192
  433MOL0     H58410   8.423   5.916   4.302  0.0715  0.0256 -1.4062
  433MOL0     H58411   8.409   5.688   4.184  0.2047 -0.7195  0.1815
  433MOL0     H58412   8.284   5.635   4.296  0.5176 -0.9817 -1.7269
  433MOL0     H58413   8.524   5.563   4.358  3.1543  0.6625 -0.0712
  433MOL0     H58414   8.440   5.661   4.477 -0.2123 -1.2545 -0.3802
  433MOL0     H58415   8.664   5.597   4.183 -2.8398 -0.7068 -1.8468
  433MOL0     H58416   8.784   5.670   3.982 -0.4893 -1.6857  0.2071
  433MOL0     H58417   9.102   6.182   3.868 -0.9172 -1.8092  1.4489
  433MOL0     H58418   9.203   6.274   3.667  0.1529 -0.7805  1.9881
  433MOL0     H58419   9.036   6.456   3.487  0.2867 -0.0147 -0.3813
  433MOL0     H58420   9.214   6.447   3.484 -0.3674 -1.3841  3.4405
  433MOL0     H58421   9.193   6.455   3.241 -2.2234 -1.4826 -3.2762
  433MOL0     H58422   9.026   6.406   3.250 -1.8199  1.5470  1.1622
  433MOL0     H58423   8.973   6.634   3.378  1.5492 -0.8366  2.8171
  433MOL0     H58424   9.124   6.679   3.343  0.0585 -2.1222  2.7046
  433MOL0     H58425   8.947   6.578   3.111  0.7638 -1.2564  1.1323
  433MOL0     H58426   9.100   6.654   3.098  0.1922  0.3842  0.1794
  433MOL0     H58427   8.959   6.830   3.046  1.1783 -3.8193 -1.0592
  433MOL0     H58428   8.964   6.853   3.232  1.9655 -0.3932  1.1306
  433MOL0     H58429   8.764   6.724   3.247 -0.4900  1.0969  0.5708
  433MOL0     H58430   8.739   6.871   3.176  0.1477 -0.7780  3.3646
  433MOL0     H58431   8.704   6.616   3.059 -0.5059  0.1728 -0.0227
  433MOL0     H58432   8.785   6.721   2.937 -0.0472  0.9673 -0.3037
  433MOL0     H58433   8.535   6.789   3.098  1.4643 -2.7456  0.8868
  433MOL0     H58434   8.583   6.877   2.939  0.7005 -2.3489 -3.2762
  433MOL0     H58435   8.875   6.139   3.428 -0.7642 -2.3714 -0.0096
  433MOL0     H58436   8.770   6.047   3.623 -0.7094  1.1809 -3.0334
  433MOL0     H58437   8.774   6.086   4.128 -0.2855  0.4937 -2.9810
  433MOL0     H58438   8.661   6.008   4.325 -2.2995 -1.4030 -0.5229
  433MOL0     H58439   7.622   4.740   5.165 -0.4132 -1.1041  1.0420
  433MOL0     H58440   7.641   4.635   5.362  0.0796  1.1940 -1.2423
  433MOL0     H58441   7.717   4.337   5.577 -0.2732 -0.9167 -0.1942
  433MOL0     H58442   7.714   4.181   5.761 -2.8977  1.9998  1.0538
  433MOL0     H58443   7.881   4.008   5.936 -0.8881 -1.0399  0.1668
  433MOL0     H58444   7.714   4.085   5.969  0.6074  1.6058 -1.3796
  433MOL0     H58445   7.940   4.035   6.187 -2.9977  1.6103  4.2412
  433MOL0     H58446   7.839   3.898   6.138  2.5895 -0.3999 -2.1619
  433MOL0     H58447   7.654   4.095   6.205 -1.0943 -1.1321  2.7202
  433MOL0     H58448   7.784   4.167   6.280  1.2502 -0.2904 -1.2802
  433MOL0     H58449   7.692   4.030   6.469  2.2711  0.8845 -0.3241
  433MOL0     H58450   7.636   3.911   6.349  0.0854 -0.0386 -0.7725
  433MOL0     H58451   8.040   3.802   6.478 -0.6105 -2.1464  0.7348
  433MOL0     H58452   8.001   4.406   5.975  0.5137  0.2951 -0.3460
  433MOL0     H58453   8.053   4.669   5.727 -1.2808 -2.9330 -2.3400
  433MOL0     H58454   8.026   4.650   5.906  0.7592 -1.2367  0.8601
  433MOL0     H58455   8.150   4.559   5.812 -0.8079 -2.9034 -3.1199
  434MOL0     O58456   6.450   3.753   8.838  0.1774  0.3587  0.4632
  434MOL0     C58457   6.533   3.763   8.928  0.6078  0.7350  0.7937
  434MOL0     O58458   6.549   3.678   9.034 -0.1129  0.7052  1.0408
  434MOL0     C58459   6.470   3.565   9.030  0.2386 -0.2437  0.1677
  434MOL0     C58460   6.346   3.564   9.098  0.0790  0.0924  0.1313
  434MOL0     C58461   6.256   3.457   9.085 -0.5088  1.1961  0.1231
  434MOL0     C58462   6.281   3.353   8.999 -0.4549  0.2423 -0.3672
  434MOL0     O58463   6.214   3.233   8.994  0.3169  0.2535  0.3508
  434MOL0     C58464   6.088   3.219   9.063 -0.5855  0.2827  0.4254
  434MOL0     C58465   6.020   3.102   8.993  0.4774  0.3406 -0.1562
  434MOL0     C58466   5.878   3.093   9.041 -0.0585 -0.7209  0.2453
  434MOL0     C58467   5.802   2.964   9.017 -0.1419  0.9064  0.8856
  434MOL0     C58468   5.658   3.007   9.043  0.6819  0.5094 -0.9482
  434MOL0     C58469   5.548   2.892   9.056  0.0038  0.8472  0.2217
  434MOL0     C58470   5.439   2.962   9.130  1.2271 -0.3246  0.1035
  434MOL0     C58471   5.308   2.876   9.123  0.3865 -0.2228 -0.1025
  434MOL0     N58472   5.268   2.838   9.262  0.0211  0.4212  0.4432
  434MOL0     C58473   5.174   2.909   9.327  0.2657 -0.1472  0.0401
  434MOL0     C58474   5.163   2.849   9.449 -0.4421  0.7567 -0.3991
  434MOL0     C58475   5.073   2.879   9.561  0.9874  0.9941 -0.3923
  434MOL0     C58476   4.933   2.830   9.528 -0.2027 -0.2797 -0.7294
  434MOL0     C58477   4.845   2.911   9.423 -0.7164 -0.3547 -0.9031
  434MOL0     C58478   4.708   2.842   9.416  0.3331 -0.7668 -0.3471
  434MOL0     O58479   4.623   2.874   9.530  0.0623  0.0058  0.1214
  434MOL0     C58480   4.568   3.004   9.537 -0.9311  1.4129  0.1831
  434MOL0     C58481   4.546   3.047   9.674  0.5474  0.4931  0.0658
  434MOL0     C58482   4.521   3.178   9.709  0.4165 -1.1554  0.3264
  434MOL0     C58483   4.515   3.273   9.609 -0.2211 -0.5405  0.6260
  434MOL0     C58484   4.540   3.416   9.645  0.7202 -0.1859 -0.3797
  434MOL0     O58485   4.538   3.450   9.774 -0.4766 -0.1847  0.2432
  434MOL0     C58486   4.545   3.585   9.815 -0.3597  0.2106 -0.3203
  434MOL0     C58487   4.639   3.613   9.917  0.6538  1.0661  0.1443
  434MOL0     C58488   4.647   3.742   9.969 -0.7258 -0.0756  0.4481
  434MOL0     C58489   4.563   3.837   9.918  0.0127 -0.0092 -0.5488
  434MOL0     O58490   4.584   3.956   9.979 -0.1156  0.0184 -0.0541
  434MOL0     C58491   4.604   4.070   9.895 -0.1456  1.2732  0.0702
  434MOL0     C58492   4.718   4.146   9.955  0.4566  0.9912  0.6781
  434MOL0     C58493   4.859   4.072   9.954 -0.1637 -0.9194 -0.4742
  434MOL0     C58494   4.889   4.026   9.822  0.3617  0.2530  0.4477
  434MOL0     C58495   5.028   3.975   9.799  0.6291 -0.6295  0.6308
  434MOL0     C58496   5.026   3.817   9.801  0.0057  0.2835  0.3156
  434MOL0     C58497   4.977   3.745   9.672 -0.4597 -0.5279 -0.3313
  434MOL0     C58498   4.937   3.594   9.691 -0.5795 -0.4101  0.0946
  434MOL0    Cl58499   5.082   3.500   9.695 -0.0652  0.2023  0.0416
  434MOL0     C58500   4.479   3.817   9.803 -0.2271  0.8451 -0.0189
  434MOL0     C58501   4.472   3.683   9.753 -0.0936  0.3779  0.3316
  434MOL0     O58502   4.532   3.496   9.551 -0.0949  1.0025  0.9300
  434MOL0     C58503   4.527   3.240   9.476 -0.1048  0.9345  0.3907
  434MOL0     C58504   4.536   3.101   9.433 -0.4144  0.3696  0.1380
  434MOL0     N58505   5.244   2.737   9.456  0.1908 -0.3864  0.1216
  434MOL0     N58506   5.312   2.743   9.340 -0.1617 -0.7129 -0.2534
  434MOL0     C58507   6.397   3.362   8.920  0.1707  0.2301  0.3959
  434MOL0     C58508   6.484   3.465   8.932 -0.7709 -1.2063 -0.1742
  434MOL0     C58509   6.628   3.879   8.923 -0.8142  0.0065  0.9054
  434MOL0     C58510   6.756   3.853   8.961 -0.3793  0.2553 -1.5228
  434MOL0     C58511   6.854   3.955   8.963 -0.4716  0.1821 -0.4117
  434MOL0     C58512   6.822   4.086   8.931 -0.6978  1.2318  0.8642
  434MOL0     O58513   6.920   4.179   8.926 -0.9815 -0.2749  0.6869
  434MOL0     C58514   7.068   4.148   8.924 -0.3600 -0.0602 -0.2067
  434MOL0     C58515   7.162   4.269   8.945  0.0530 -0.4158 -0.1285
  434MOL0     C58516   7.108   4.372   9.054  0.5054  0.2254  0.1350
  434MOL0     C58517   7.098   4.317   9.200 -0.3373  0.2759  0.3006
  434MOL0     C58518   7.235   4.267   9.244 -0.3959  0.1937 -0.8089
  434MOL0     C58519   7.343   4.225   9.280 -0.1728 -0.7863  0.3488
  434MOL0     C58520   6.696   4.102   8.887  0.6548 -0.2173  0.2349
  434MOL0     C58521   6.589   4.015   8.900  0.1349  0.2328 -0.0009
  434MOL0     C58522   6.448   4.058   8.897  0.0078  0.4419 -1.1636
  434MOL0     H58523   6.310   3.642   9.163 -1.3046 -1.8019  1.7870
  434MOL0     H58524   6.176   3.467   9.158 -2.9108  3.1572 -2.5748
  434MOL0     H58525   6.112   3.190   9.165  2.4106 -0.9345 -0.5140
  434MOL0     H58526   6.027   3.309   9.068  0.7327  1.1408  1.6756
  434MOL0     H58527   6.080   3.011   9.000  1.2439  0.7993 -0.5972
  434MOL0     H58528   6.018   3.130   8.887  2.4611 -0.3374 -0.4120
  434MOL0     H58529   5.826   3.169   8.981 -0.3861 -1.9088 -1.0191
  434MOL0     H58530   5.872   3.121   9.146  5.4292 -1.1783  0.9704
  434MOL0     H58531   5.826   2.942   8.913 -0.4467 -1.0622  1.2067
  434MOL0     H58532   5.818   2.880   9.085 -3.4194 -1.5373 -1.1084
  434MOL0     H58533   5.659   3.058   9.140  1.8712  0.7844 -1.0964
  434MOL0     H58534   5.620   3.078   8.969 -0.5650  1.0718  0.1919
  434MOL0     H58535   5.521   2.857   8.957  0.2414  1.1153  0.0589
  434MOL0     H58536   5.569   2.802   9.114 -0.4329  0.7954  0.3020
  434MOL0     H58537   5.425   3.055   9.075  3.0526 -1.0022 -1.6293
  434MOL0     H58538   5.455   2.984   9.236 -3.4727 -4.1900  1.9744
  434MOL0     H58539   5.222   2.929   9.079  1.7758 -0.3375 -3.1951
  434MOL0     H58540   5.328   2.790   9.059 -0.1445 -0.5438  0.1557
  434MOL0     H58541   5.128   3.003   9.298 -0.3185  0.1408  1.7634
  434MOL0     H58542   5.120   2.826   9.644  1.9117 -2.2396 -2.7450
  434MOL0     H58543   5.055   2.985   9.577 -0.2471  0.6401  0.7007
  434MOL0     H58544   4.939   2.724   9.499 -0.1600 -0.3498 -0.4634
  434MOL0     H58545   4.879   2.838   9.623  3.3841  3.8991  1.2901
  434MOL0     H58546   4.896   2.921   9.327  0.7031  0.7790 -0.0704
  434MOL0     H58547   4.827   3.012   9.461  1.5706 -0.7811  1.5710
  434MOL0     H58548   4.724   2.734   9.426  0.6949 -0.5033  3.0730
  434MOL0     H58549   4.646   2.866   9.329  0.3455  2.8175  0.4935
  434MOL0     H58550   4.545   2.959   9.738 -0.4197  2.2302  2.6277
  434MOL0     H58551   4.534   3.213   9.811  3.2967 -1.4089  0.1272
  434MOL0     H58552   4.690   3.526   9.958 -1.8949  0.4908  2.3695
  434MOL0     H58553   4.716   3.764  10.049  0.3462  2.4348 -1.0630
  434MOL0     H58554   4.631   4.043   9.793  2.5386 -0.8923  1.2127
  434MOL0     H58555   4.519   4.139   9.891 -2.0993 -1.0377 -0.6393
  434MOL0     H58556   4.714   4.235   9.891 -2.6464 -0.7653 -1.9127
  434MOL0     H58557   4.697   4.168  10.060  0.5419 -1.3428  1.2498
  434MOL0     H58558   4.941   4.138   9.983  0.5942 -1.7487 -0.6852
  434MOL0     H58559   4.861   3.989  10.025 -1.5333 -0.9748 -0.4747
  434MOL0     H58560   4.878   4.111   9.753 -1.4025 -0.2673  0.0500
  434MOL0     H58561   4.819   3.946   9.798  0.7001  0.5354 -1.7499
  434MOL0     H58562   5.093   4.016   9.876 -1.1823  1.0062  1.3821
  434MOL0     H58563   5.067   4.009   9.702 -1.0240  0.3096  0.2511
  434MOL0     H58564   5.124   3.772   9.821 -0.2511 -0.3351  0.2274
  434MOL0     H58565   4.967   3.793   9.890  3.3603 -3.2308  1.9459
  434MOL0     H58566   5.032   3.769   9.580 -2.8536  1.8837 -1.2977
  434MOL0     H58567   4.885   3.790   9.634 -1.5444 -2.9274 -0.7516
  434MOL0     H58568   4.878   3.557   9.775 -1.0136  1.3220  0.5950
  434MOL0     H58569   4.891   3.563   9.597 -1.1907  1.5911 -0.3190
  434MOL0     H58570   4.423   3.895   9.754 -0.0353 -0.2548 -2.1095
  434MOL0     H58571   4.397   3.667   9.676  0.9598  1.3528 -0.9355
  434MOL0     H58572   4.525   3.317   9.401 -1.0018  0.2416 -0.3171
  434MOL0     H58573   4.531   3.067   9.330 -1.4772 -0.7448  0.5302
  434MOL0     H58574   6.434   3.281   8.858 -3.4157 -0.8375 -0.6101
  434MOL0     H58575   6.579   3.462   8.880 -0.9096 -1.8243 -0.3990
  434MOL0     H58576   6.788   3.753   8.988  0.3246  0.8790  0.0938
  434MOL0     H58577   6.953   3.923   8.992 -1.5062 -0.2764  3.1559
  434MOL0     H58578   7.097   4.096   8.832 -0.8399  0.3695 -0.6040
  434MOL0     H58579   7.091   4.091   9.015  3.9285  1.1019 -0.3310
  434MOL0     H58580   7.163   4.322   8.850  3.6829  0.9918  0.5233
  434MOL0     H58581   7.261   4.227   8.965  0.2958  0.3606  0.3477
  434MOL0     H58582   7.011   4.416   9.030  0.2853  0.8292  2.0521
  434MOL0     H58583   7.179   4.455   9.053  3.2678 -1.9646  1.2732
  434MOL0     H58584   7.066   4.400   9.264 -4.3232  0.1639 -1.3056
  434MOL0     H58585   7.028   4.234   9.206 -0.2664  0.3387  3.2347
  434MOL0     H58586   7.431   4.169   9.304 -0.9129 -2.6430 -1.0252
  434MOL0     H58587   6.661   4.204   8.871 -2.2202 -0.0991  5.1543
  434MOL0     H58588   6.402   4.077   8.800 -0.6869 -2.0155 -1.3967
  434MOL0     H58589   6.387   3.983   8.949  3.1224 -1.1721  0.4240
  434MOL0     H58590   6.434   4.148   8.958 -1.4008 -1.6056  1.7985
  435MOL0     O58591   7.551   1.149   8.272 -0.4048 -0.0163  0.4559
  435MOL0     C58592   7.656   1.167   8.209  0.0520 -0.5807 -0.4206
  435MOL0     O58593   7.784   1.131   8.244  0.6765 -0.0565 -0.8020
  435MOL0     C58594   7.820   1.063   8.356 -0.2854  0.1493 -0.2440
  435MOL0     C58595   7.961   1.074   8.394  0.6280  0.1914  0.1649
  435MOL0     C58596   8.009   1.021   8.510 -0.4558 -0.7142 -1.4140
  435MOL0     C58597   7.938   0.933   8.582 -0.0832 -0.0380 -0.0057
  435MOL0     O58598   7.997   0.869   8.686  0.0259 -0.0034 -0.1857
  435MOL0     C58599   7.918   0.777   8.772  0.8948 -0.3843 -0.6714
  435MOL0     C58600   7.894   0.640   8.701  0.0748 -0.3042  1.2972
  435MOL0     C58601   7.821   0.558   8.795 -0.2705 -0.3910 -0.6649
  435MOL0     C58602   7.677   0.594   8.833  0.5583 -0.2861  0.6170
  435MOL0     C58603   7.585   0.474   8.873  0.4103 -0.6973 -0.5865
  435MOL0     C58604   7.622   0.419   9.012 -0.0065  0.2367  0.0982
  435MOL0     C58605   7.551   0.294   9.053  0.1477 -0.3339 -0.2167
  435MOL0     C58606   7.401   0.298   9.095 -0.7538 -0.0235  0.0177
  435MOL0     N58607   7.333   0.287   8.972  0.1768 -0.4482 -0.0991
  435MOL0     C58608   7.335   0.179   8.892  0.4001  0.0465 -0.0370
  435MOL0     C58609   7.270   0.218   8.787 -0.2467 -0.4906 -0.4289
  435MOL0     C58610   7.244   0.142   8.664  0.1813  0.2482  0.7410
  435MOL0     C58611   7.379   0.097   8.595  0.1263 -0.6336  0.5803
  435MOL0     C58612   7.357   0.001   8.476 -0.2890 -0.7193 -0.4667
  435MOL0     C58613   7.264  -0.120   8.493  0.3688  0.0597 -0.2565
  435MOL0     O58614   7.297  -0.194   8.612 -0.5962 -1.2401  0.0441
  435MOL0     C58615   7.203  -0.248   8.690 -0.0368  0.0238  0.1184
  435MOL0     C58616   7.252  -0.308   8.801 -0.5579  0.2815  0.4791
  435MOL0     C58617   7.179  -0.363   8.902  0.3770 -0.2695 -0.1982
  435MOL0     C58618   7.039  -0.336   8.902  0.0077  0.2783 -0.8068
  435MOL0     C58619   6.957  -0.387   9.015 -1.5871  0.1369  0.8008
  435MOL0     O58620   7.008  -0.380   9.132  0.0564  0.3078 -0.8122
  435MOL0     C58621   6.931  -0.384   9.243 -0.1550  0.5396 -0.5578
  435MOL0     C58622   6.798  -0.346   9.262 -0.3299 -0.1044 -1.0090
  435MOL0     C58623   6.745  -0.348   9.393 -0.1253  0.2146  0.4449
  435MOL0     C58624   6.818  -0.407   9.495 -1.0152 -0.6914 -0.5968
  435MOL0     O58625   6.749  -0.421   9.622 -0.2571 -0.0485  0.6918
  435MOL0     C58626   6.783  -0.505   9.724  0.1852 -0.1820 -0.2806
  435MOL0     C58627   6.658  -0.516   9.808 -0.2887 -0.0459 -0.0025
  435MOL0     C58628   6.654  -0.422   9.929 -0.1972  0.3422  0.1092
  435MOL0     C58629   6.512  -0.418   9.992 -0.6740  0.1651  0.1638
  435MOL0     C58630   6.508  -0.354  10.126  1.1461  0.1227 -0.1127
  435MOL0     C58631   6.508  -0.462  10.231 -0.1661 -0.0466  0.0819
  435MOL0     C58632   6.468  -0.432  10.372  0.0187  0.2438 -0.4994
  435MOL0     C58633   6.474  -0.548  10.468 -0.2964  0.3092  1.2173
  435MOL0    Cl58634   6.427  -0.521  10.621 -0.2933 -0.0888  0.0842
  435MOL0     C58635   6.952  -0.452   9.475  1.0014 -0.4643 -0.4853
  435MOL0     C58636   7.011  -0.439   9.356 -0.0759 -1.2329  0.1216
  435MOL0     O58637   6.844  -0.422   8.987 -0.7617 -1.2046 -0.4007
  435MOL0     C58638   6.981  -0.268   8.787 -0.1357  1.5834 -0.8880
  435MOL0     C58639   7.065  -0.222   8.685 -0.5995  0.3051 -0.5180
  435MOL0     N58640   7.209   0.340   8.815 -0.4773 -0.3188  0.5425
  435MOL0     N58641   7.270   0.391   8.921  0.2605  0.4443  0.3697
  435MOL0     C58642   7.804   0.914   8.543 -0.5909  0.3916  0.0551
  435MOL0     C58643   7.745   0.973   8.428 -0.3797 -0.2805 -0.6650
  435MOL0     C58644   7.632   1.198   8.066  0.6375  0.8471  0.3766
  435MOL0     C58645   7.680   1.112   7.963 -0.9965 -0.3345 -0.2575
  435MOL0     C58646   7.640   1.134   7.833  0.4730 -0.1476  0.1348
  435MOL0     C58647   7.555   1.233   7.795 -1.2978  0.8226 -0.3565
  435MOL0     O58648   7.524   1.244   7.668 -0.1666 -0.2844  0.5091
  435MOL0     C58649   7.380   1.247   7.645 -0.4821 -0.5317 -0.7668
  435MOL0     C58650   7.329   1.099   7.634 -0.3845 -0.3730 -0.0118
  435MOL0     C58651   7.184   1.086   7.614 -0.3319  0.7097 -0.5671
  435MOL0     C58652   7.148   0.943   7.591 -0.3936  0.2606 -1.3519
  435MOL0     C58653   7.134   0.884   7.458 -0.5925 -0.8553  0.0622
  435MOL0     C58654   7.116   0.845   7.344 -1.1484  0.0701  0.8644
  435MOL0     C58655   7.526   1.330   7.892 -0.1915 -0.3050 -0.9268
  435MOL0     C58656   7.569   1.314   8.028 -0.8865 -0.1391  0.4241
  435MOL0     C58657   7.526   1.424   8.122  0.2337 -0.9406  0.1218
  435MOL0     H58658   8.028   1.141   8.342  0.7847 -0.9280 -1.1354
  435MOL0     H58659   8.104   1.056   8.549 -2.8396  2.9160  1.8967
  435MOL0     H58660   7.976   0.764   8.863 -1.2179  0.6822  0.9337
  435MOL0     H58661   7.825   0.824   8.808  0.9240  0.7357 -1.9701
  435MOL0     H58662   7.987   0.604   8.656  0.2588 -1.3505  2.4828
  435MOL0     H58663   7.828   0.657   8.614 -0.4087  0.2530  1.7633
  435MOL0     H58664   7.883   0.547   8.885 -0.8586  2.4331  0.1846
  435MOL0     H58665   7.810   0.456   8.757  0.9860 -1.4440  1.5976
  435MOL0     H58666   7.678   0.661   8.920  2.1668 -0.8806  1.0918
  435MOL0     H58667   7.631   0.638   8.744 -1.1663 -0.8376  1.1891
  435MOL0     H58668   7.485   0.515   8.855  1.1959  0.5431 -2.3941
  435MOL0     H58669   7.599   0.397   8.797 -0.4077 -2.1997  0.7339
  435MOL0     H58670   7.729   0.394   9.010 -0.3785 -1.4112  0.0068
  435MOL0     H58671   7.616   0.501   9.085  0.4280  1.8622 -1.6033
  435MOL0     H58672   7.604   0.270   9.146 -0.4346 -0.4839  0.0874
  435MOL0     H58673   7.569   0.204   8.993  2.0047 -0.0393 -0.1606
  435MOL0     H58674   7.384   0.208   9.156  1.7518  0.8085  2.1232
  435MOL0     H58675   7.377   0.392   9.145  1.0967  0.9187 -0.7606
  435MOL0     H58676   7.386   0.085   8.914 -1.6712 -1.3635 -0.9217
  435MOL0     H58677   7.197   0.050   8.699  1.6835 -0.4896  0.9113
  435MOL0     H58678   7.182   0.198   8.594  0.0847  1.1052  1.5033
  435MOL0     H58679   7.426   0.188   8.556 -2.0051  0.6643  0.9062
  435MOL0     H58680   7.442   0.049   8.670  1.1592  1.7192  1.3325
  435MOL0     H58681   7.456  -0.042   8.458  0.1341 -0.3193  0.8122
  435MOL0     H58682   7.316   0.063   8.396 -0.1151 -1.3097 -1.0206
  435MOL0     H58683   7.272  -0.190   8.410  1.9358  2.2246 -2.0576
  435MOL0     H58684   7.161  -0.084   8.496  0.5423  0.5340  1.0185
  435MOL0     H58685   7.360  -0.318   8.808 -0.8361 -2.5871  2.6011
  435MOL0     H58686   7.229  -0.433   8.967 -0.2246  1.2504  2.0225
  435MOL0     H58687   6.743  -0.294   9.184 -3.6540 -2.4485 -0.4204
  435MOL0     H58688   6.650  -0.296   9.401 -0.4020  0.0911 -1.4911
  435MOL0     H58689   6.809  -0.601   9.678 -1.6223 -0.6210 -0.4561
  435MOL0     H58690   6.875  -0.478   9.776 -0.6145 -0.6146  1.4361
  435MOL0     H58691   6.578  -0.480   9.744 -0.6622  2.8215  1.8862
  435MOL0     H58692   6.657  -0.621   9.839 -0.8516 -0.2857 -0.8160
  435MOL0     H58693   6.729  -0.454  10.001 -2.7945 -1.3323  2.2454
  435MOL0     H58694   6.683  -0.319   9.904  1.3375  0.2263  1.3296
  435MOL0     H58695   6.470  -0.519   9.998 -0.8547  0.2709  0.7443
  435MOL0     H58696   6.447  -0.352   9.934  1.2972 -1.0651 -3.8372
  435MOL0     H58697   6.409  -0.309  10.136 -0.5232 -3.2720  0.0658
  435MOL0     H58698   6.591  -0.283  10.127  0.1779  1.3524 -1.9480
  435MOL0     H58699   6.444  -0.549  10.217  0.6184 -1.0435  2.2142
  435MOL0     H58700   6.609  -0.504  10.240  0.4483  1.6088  1.9314
  435MOL0     H58701   6.363  -0.403  10.369 -0.3623 -1.1247 -1.5603
  435MOL0     H58702   6.528  -0.346  10.401 -0.5096  0.1734  0.8455
  435MOL0     H58703   6.422  -0.631  10.420  1.8045  0.5517 -1.8074
  435MOL0     H58704   6.579  -0.578  10.473  0.3558  1.7408 -1.5492
  435MOL0     H58705   7.012  -0.502   9.551 -1.5182 -1.8982  0.6938
  435MOL0     H58706   7.110  -0.480   9.339 -0.7242 -3.0438  0.5724
  435MOL0     H58707   6.873  -0.266   8.787 -0.7761 -3.3890  4.5609
  435MOL0     H58708   7.006  -0.192   8.599 -2.7826 -0.9645  0.4483
  435MOL0     H58709   7.743   0.846   8.602  0.3094  0.6750  1.3387
  435MOL0     H58710   7.646   0.946   8.392 -1.2386  0.2530  1.1357
  435MOL0     H58711   7.741   1.033   8.004  0.1340  0.2131 -0.8375
  435MOL0     H58712   7.693   1.078   7.756  1.9151 -0.8932  1.6191
  435MOL0     H58713   7.357   1.310   7.559  0.3094 -3.2532 -3.1504
  435MOL0     H58714   7.329   1.300   7.726  0.1821  1.5671 -1.6778
  435MOL0     H58715   7.376   1.043   7.715  0.0013  0.8429  0.6403
  435MOL0     H58716   7.378   1.062   7.544 -0.5627  0.2845 -0.3829
  435MOL0     H58717   7.161   1.141   7.523 -1.2276  2.3934  0.6335
  435MOL0     H58718   7.131   1.120   7.704 -1.5027  0.2387 -1.0631
  435MOL0     H58719   7.213   0.883   7.654 -1.0434  1.4996  0.6059
  435MOL0     H58720   7.047   0.936   7.633 -0.0695  3.0050  0.1048
  435MOL0     H58721   7.116   0.821   7.240 -0.3310  0.7751  0.6895
  435MOL0     H58722   7.464   1.414   7.865 -2.1595 -0.8207  1.6923
  435MOL0     H58723   7.482   1.513   8.074  1.3250 -0.1000  0.6509
  435MOL0     H58724   7.440   1.403   8.187 -1.5140  0.0093 -1.7406
  435MOL0     H58725   7.612   1.444   8.186 -1.8834 -4.6676  4.6612
  436MOL0     O58726  10.164  11.262   6.115 -0.6682  0.0927 -0.0373
  436MOL0     C58727  10.068  11.348   6.114 -1.4102 -0.6945 -0.5485
  436MOL0     O58728  10.022  11.413   6.228 -0.1826  0.1901 -0.2572
  436MOL0     C58729  10.111  11.423   6.331 -0.3545  0.0578  0.2598
  436MOL0     C58730  10.119  11.325   6.431  0.8806 -0.1947 -0.7394
  436MOL0     C58731  10.211  11.349   6.530  0.7884 -0.1780 -1.3354
  436MOL0     C58732  10.278  11.474   6.545  0.1165  1.0237  1.7271
  436MOL0     O58733  10.362  11.506   6.650  0.5048 -0.1282 -0.5214
  436MOL0     C58734  10.362  11.424   6.767 -0.5861  0.3741 -0.2576
  436MOL0     C58735  10.444  11.490   6.878  0.4326 -0.3484 -0.4046
  436MOL0     C58736  10.365  11.602   6.935  0.6401 -1.2709  0.2409
  436MOL0     C58737  10.427  11.681   7.053  0.1938  0.9678  0.0047
  436MOL0     C58738  10.383  11.820   7.055 -0.0480  0.6377  0.5448
  436MOL0     C58739  10.448  11.890   7.180  0.5474 -0.7092 -0.3558
  436MOL0     C58740  10.458  12.042   7.148 -0.2777  0.2161 -0.1648
  436MOL0     C58741  10.329  12.121   7.172 -0.4768 -0.3252  0.6322
  436MOL0     N58742  10.368  12.266   7.154  0.8280 -0.0650  0.3949
  436MOL0     C58743  10.359  12.356   7.258  0.6336  0.5574  0.9963
  436MOL0     C58744  10.367  12.469   7.204 -0.2535  0.1603 -0.8629
  436MOL0     C58745  10.384  12.596   7.271  0.2076 -0.4198 -0.9412
  436MOL0     C58746  10.530  12.634   7.327  0.1736 -0.6926 -0.6078
  436MOL0     C58747  10.604  12.706   7.218 -0.4725  0.2474  0.2046
  436MOL0     C58748  10.736  12.750   7.273  0.3986 -0.6156  0.6212
  436MOL0     O58749  10.711  12.887   7.319 -0.1745  0.6040  0.9153
  436MOL0     C58750  10.797  12.952   7.401 -0.4715 -0.5747 -0.0780
  436MOL0     C58751  10.830  12.895   7.525  0.6468  0.2315  0.5215
  436MOL0     C58752  10.902  12.965   7.623  0.0977  0.3745 -0.4625
  436MOL0     C58753  10.957  13.093   7.596  1.0007 -0.2168 -0.2857
  436MOL0     C58754  11.034  13.168   7.692  0.1873  0.4205  0.2808
  436MOL0     O58755  11.144  13.253   7.655  0.2780 -0.1010  0.1423
  436MOL0     C58756  11.204  13.299   7.771  0.4484  1.0037  1.1712
  436MOL0     C58757  11.183  13.431   7.818  0.4103  0.5404  0.3112
  436MOL0     C58758  11.254  13.474   7.931  0.1367 -0.2306 -0.7823
  436MOL0     C58759  11.341  13.395   8.002 -1.0593 -0.2459  0.1396
  436MOL0     O58760  11.414  13.452   8.110 -0.1358  1.2412 -0.1106
  436MOL0     C58761  11.346  13.510   8.221  0.9444 -0.5679 -0.2545
  436MOL0     C58762  11.276  13.419   8.321  0.5243  0.0314 -0.0123
  436MOL0     C58763  11.132  13.380   8.280  0.6573 -0.1862  0.2700
  436MOL0     C58764  11.081  13.270   8.375  0.0797  0.5323  0.9989
  436MOL0     C58765  10.932  13.233   8.333 -0.1165 -0.3046  0.2616
  436MOL0     C58766  10.861  13.157   8.452  0.6963  0.2793 -0.1416
  436MOL0     C58767  10.732  13.091   8.406  0.2176  0.9056 -0.4559
  436MOL0     C58768  10.656  13.031   8.519  1.3388  0.6322 -0.1964
  436MOL0    Cl58769  10.512  12.941   8.459 -0.3175  0.5524  0.0599
  436MOL0     C58770  11.367  13.266   7.947  0.2007  0.4818 -0.0927
  436MOL0     C58771  11.308  13.220   7.830 -0.7514 -0.2734  0.9185
  436MOL0     O58772  10.991  13.162   7.801  0.1701  0.1587 -0.2666
  436MOL0     C58773  10.939  13.149   7.470  0.0205 -0.1091 -0.3177
  436MOL0     C58774  10.852  13.078   7.377 -0.4695 -0.8090 -0.0154
  436MOL0     N58775  10.370  12.458   7.067 -0.1015 -0.7739 -0.1715
  436MOL0     N58776  10.363  12.328   7.030 -0.4018 -0.5160 -0.2267
  436MOL0     C58777  10.263  11.571   6.448 -0.5663  0.4190 -0.4242
  436MOL0     C58778  10.181  11.537   6.342  0.6534  0.2076 -0.5726
  436MOL0     C58779   9.984  11.367   5.989 -0.3765 -0.2918 -0.0755
  436MOL0     C58780   9.972  11.259   5.909 -0.8720 -0.0897  0.2995
  436MOL0     C58781   9.901  11.271   5.784 -0.3857 -0.3664 -0.7130
  436MOL0     C58782   9.845  11.388   5.750  0.3838 -0.8510  0.4647
  436MOL0     O58783   9.787  11.391   5.625 -0.4295 -0.2397 -0.8963
  436MOL0     C58784   9.744  11.514   5.576 -0.2732 -0.3360  0.6324
  436MOL0     C58785   9.680  11.478   5.442  0.4602 -0.0701  0.1448
  436MOL0     C58786   9.780  11.487   5.320  0.0465 -0.0937 -0.5597
  436MOL0     C58787   9.744  11.408   5.191  0.7975  0.4035 -0.9226
  436MOL0     C58788   9.754  11.262   5.223 -0.1473  0.4333 -0.8990
  436MOL0     C58789   9.761  11.150   5.234  0.8140  0.2296  0.5648
  436MOL0     C58790   9.861  11.504   5.832  0.0829 -0.1201  0.2020
  436MOL0     C58791   9.927  11.488   5.951 -0.3893 -0.3585 -0.4652
  436MOL0     C58792   9.950  11.608   6.043  0.6443  0.0627 -1.3398
  436MOL0     H58793  10.061  11.233   6.426  0.9967 -0.2894 -0.4434
  436MOL0     H58794  10.236  11.272   6.603 -1.2861 -2.2699 -2.6842
  436MOL0     H58795  10.257  11.407   6.797 -0.9307  2.4998 -0.1620
  436MOL0     H58796  10.420  11.332   6.751  0.4875  0.9310  0.3630
  436MOL0     H58797  10.536  11.536   6.840 -0.4965  1.2657 -0.7926
  436MOL0     H58798  10.469  11.407   6.944  1.6186 -1.6513 -2.3801
  436MOL0     H58799  10.274  11.554   6.973 -0.1487  0.3674  0.5010
  436MOL0     H58800  10.344  11.680   6.861  1.9620  0.9391  2.0938
  436MOL0     H58801  10.413  11.624   7.145  2.0998  1.2822  0.5422
  436MOL0     H58802  10.535  11.689   7.039  0.0184  1.6689 -1.1664
  436MOL0     H58803  10.432  11.869   6.970  5.5693 -0.0010  3.0266
  436MOL0     H58804  10.274  11.832   7.048  0.0474  2.7263  1.5990
  436MOL0     H58805  10.385  11.881   7.269 -0.3335 -0.8392 -0.9848
  436MOL0     H58806  10.545  11.843   7.203  1.7070  1.5072 -0.4517
  436MOL0     H58807  10.484  12.053   7.042 -1.8505  3.4745 -0.3380
  436MOL0     H58808  10.539  12.081   7.209 -0.5811 -3.2190  2.7930
  436MOL0     H58809  10.255  12.080   7.101 -1.7717 -1.1352  2.3657
  436MOL0     H58810  10.276  12.113   7.267 -1.2488  1.8907  0.4420
  436MOL0     H58811  10.367  12.346   7.366  1.1756  1.6740  1.0860
  436MOL0     H58812  10.370  12.673   7.196  3.6035  0.9571 -0.3272
  436MOL0     H58813  10.315  12.630   7.349 -0.6412 -1.3990 -1.2478
  436MOL0     H58814  10.527  12.709   7.407 -0.5466  0.3612 -1.5915
  436MOL0     H58815  10.580  12.544   7.365 -0.6875 -0.9499 -0.0225
  436MOL0     H58816  10.541  12.790   7.188 -1.8514 -0.8309 -0.0138
  436MOL0     H58817  10.612  12.638   7.132 -4.5095 -1.2757  0.8213
  436MOL0     H58818  10.814  12.748   7.196  0.9200 -3.5239  1.1090
  436MOL0     H58819  10.779  12.680   7.345  0.2880  1.0800  2.4494
  436MOL0     H58820  10.785  12.800   7.552 -0.8759  1.6420  3.3770
  436MOL0     H58821  10.917  12.918   7.719 -0.6330 -0.0384 -0.5440
  436MOL0     H58822  11.119  13.502   7.766  0.5365 -0.7393 -1.7270
  436MOL0     H58823  11.228  13.573   7.967  1.4795  0.6520 -2.1431
  436MOL0     H58824  11.421  13.569   8.275 -0.1655  1.1547 -0.5142
  436MOL0     H58825  11.280  13.584   8.176 -0.6788 -1.3192  0.8225
  436MOL0     H58826  11.332  13.326   8.303 -2.2874 -2.0194  1.1164
  436MOL0     H58827  11.279  13.472   8.417 -1.4439  0.3601 -0.0964
  436MOL0     H58828  11.071  13.471   8.274  1.7781  0.7004  1.5435
  436MOL0     H58829  11.135  13.331   8.183  1.1934 -1.5892  0.9642
  436MOL0     H58830  11.083  13.309   8.478 -0.9003  2.3353  0.3780
  436MOL0     H58831  11.136  13.176   8.368  0.2176  0.5335  1.9305
  436MOL0     H58832  10.919  13.175   8.241 -3.0990  0.8145 -0.1242
  436MOL0     H58833  10.890  13.332   8.317  3.5452  1.1700 -1.4929
  436MOL0     H58834  10.927  13.083   8.497 -0.4394 -0.2050  0.7658
  436MOL0     H58835  10.830  13.220   8.536  0.7497 -1.3268  1.1315
  436MOL0     H58836  10.755  13.003   8.345  3.3664 -0.2834  2.1905
  436MOL0     H58837  10.666  13.154   8.345 -0.4287  0.8500  0.1656
  436MOL0     H58838  10.723  12.964   8.574  0.8268  0.0330 -0.3001
  436MOL0     H58839  10.623  13.109   8.588  1.5235 -0.0197  0.6524
  436MOL0     H58840  11.447  13.213   7.997  1.0091 -0.1529 -1.9345
  436MOL0     H58841  11.352  13.129   7.789 -0.1571  0.2685  0.3150
  436MOL0     H58842  10.984  13.241   7.436 -0.6605  0.4803  0.3511
  436MOL0     H58843  10.827  13.132   7.286  0.9130  1.3362  0.8220
  436MOL0     H58844  10.330  11.656   6.456  0.3302 -0.3293  0.2438
  436MOL0     H58845  10.175  11.617   6.268  0.0176  0.4985 -0.2208
  436MOL0     H58846  10.009  11.163   5.945 -2.0870  0.5395  3.5067
  436MOL0     H58847   9.893  11.184   5.719  0.4762 -0.0850 -1.2169
  436MOL0     H58848   9.824  11.583   5.547 -0.0390 -0.3114  1.3207
  436MOL0     H58849   9.670  11.566   5.639 -1.4537  1.8124 -2.3082
  436MOL0     H58850   9.590  11.533   5.414 -0.0552 -1.5570 -1.3003
  436MOL0     H58851   9.659  11.371   5.453 -0.7371  0.1017 -0.3140
  436MOL0     H58852   9.872  11.441   5.357 -0.8004 -0.8889  0.6303
  436MOL0     H58853   9.783  11.594   5.296  1.0468  0.7730  2.8987
  436MOL0     H58854   9.639  11.429   5.171 -0.5650 -2.8849  1.8849
  436MOL0     H58855   9.794  11.443   5.100 -0.0293  1.0482 -1.1418
  436MOL0     H58856   9.767  11.043   5.225 -0.8063 -0.1239  2.8298
  436MOL0     H58857   9.828  11.604   5.804  1.9234  1.3574  2.7944
  436MOL0     H58858   9.888  11.610   6.133 -2.9848  3.9085 -3.5403
  436MOL0     H58859  10.056  11.624   6.065  1.1245 -1.7645 -2.0979
  436MOL0     H58860   9.915  11.695   5.987 -3.0190 -0.0648  0.4777
  437MOL0     O58861   1.191   3.634   9.814 -0.3018  0.9491  0.7085
  437MOL0     C58862   1.189   3.742   9.878 -0.5383  0.5897 -0.8497
  437MOL0     O58863   1.085   3.831   9.906  0.0028  0.1633 -0.1207
  437MOL0     C58864   0.975   3.792   9.832 -0.0088 -0.1171  0.9057
  437MOL0     C58865   0.875   3.706   9.880  0.4031 -0.6009 -0.2304
  437MOL0     C58866   0.762   3.676   9.804  0.2091 -0.1452  0.0924
  437MOL0     C58867   0.741   3.743   9.684 -0.3375 -0.0151  0.2933
  437MOL0     O58868   0.621   3.742   9.618  0.9740  0.5389  0.4340
  437MOL0     C58869   0.525   3.642   9.627  0.6338 -0.6648  0.4615
  437MOL0     C58870   0.384   3.686   9.567 -0.3016 -1.4513  0.2214
  437MOL0     C58871   0.334   3.812   9.636  0.6368  0.9316  0.0617
  437MOL0     C58872   0.201   3.864   9.571  0.3266  0.1281  0.1410
  437MOL0     C58873   0.179   4.010   9.599 -0.1968 -0.4407  0.3995
  437MOL0     C58874   0.041   4.052   9.534 -0.0253 -0.3023  0.3164
  437MOL0     C58875  -0.073   3.982   9.616 -0.5174 -0.5147 -0.1894
  437MOL0     C58876  -0.212   4.056   9.599  0.5671  0.2362  0.5800
  437MOL0     N58877  -0.265   4.035   9.455 -0.3466 -0.6008 -0.7202
  437MOL0     C58878  -0.228   3.929   9.376  0.1074  0.8942  1.0030
  437MOL0     C58879  -0.296   3.949   9.269 -0.5258 -0.3585  0.4754
  437MOL0     C58880  -0.308   3.864   9.151 -0.3792  0.6318 -0.7897
  437MOL0     C58881  -0.434   3.769   9.159  0.1738  0.3281 -0.3356
  437MOL0     C58882  -0.563   3.833   9.147  0.8565 -1.6551  0.2198
  437MOL0     C58883  -0.569   3.935   9.029 -0.3889 -0.7524  0.0853
  437MOL0     O58884  -0.713   3.943   9.001 -0.4542 -0.0661 -0.1451
  437MOL0     C58885  -0.795   4.004   9.091  0.5443 -0.0656 -0.1831
  437MOL0     C58886  -0.930   3.986   9.073 -0.5648 -0.5095  0.6102
  437MOL0     C58887  -1.018   4.034   9.167  0.0950 -0.3178  0.2908
  437MOL0     C58888  -0.981   4.112   9.278  0.0684  0.3846  0.3103
  437MOL0     C58889  -1.073   4.169   9.371  0.3183  0.2096 -1.2576
  437MOL0     O58890  -1.019   4.244   9.476 -0.2446  0.1073 -0.1133
  437MOL0     C58891  -1.114   4.294   9.551  0.4636  0.2423 -0.3424
  437MOL0     C58892  -1.156   4.425   9.525 -0.5398  0.1841  0.1824
  437MOL0     C58893  -1.253   4.479   9.597  0.2873 -0.3662 -0.3608
  437MOL0     C58894  -1.314   4.402   9.707  0.1958  0.2782  0.0325
  437MOL0     O58895  -1.416   4.440   9.787  0.2712  0.0229 -0.5949
  437MOL0     C58896  -1.503   4.540   9.735 -0.5414 -0.5781  0.0469
  437MOL0     C58897  -1.635   4.514   9.807 -0.6349 -0.3630  0.1777
  437MOL0     C58898  -1.755   4.607   9.772  0.2363 -0.0057  0.2801
  437MOL0     C58899  -1.762   4.729   9.859  0.1831 -0.5967 -0.3455
  437MOL0     C58900  -1.896   4.812   9.850 -0.1889  0.9947 -0.3769
  437MOL0     C58901  -1.889   4.954   9.891  0.4899  0.5635 -0.2692
  437MOL0     C58902  -2.030   5.011   9.920 -0.8180  0.3463 -0.1980
  437MOL0     C58903  -2.041   5.157   9.865  0.6602  0.2299 -0.0021
  437MOL0    Cl58904  -1.931   5.271   9.928 -0.1357  0.2120  0.7062
  437MOL0     C58905  -1.265   4.275   9.735  0.4526  0.8046 -0.4745
  437MOL0     C58906  -1.162   4.233   9.656 -0.7355 -0.4616 -0.5504
  437MOL0     O58907  -1.194   4.156   9.353  0.3301  0.1554  0.6822
  437MOL0     C58908  -0.839   4.139   9.288  0.2246 -0.3240 -0.3151
  437MOL0     C58909  -0.750   4.093   9.198  0.1677  0.4066  0.2688
  437MOL0     N58910  -0.355   4.080   9.279  0.0879  0.8551 -0.5493
  437MOL0     N58911  -0.341   4.128   9.396  0.1356  0.2449  0.7459
  437MOL0     C58912   0.835   3.827   9.637  0.0410 -0.0763 -0.5902
  437MOL0     C58913   0.954   3.852   9.708 -0.0457  0.4297  0.1559
  437MOL0     C58914   1.319   3.777   9.950  0.1472  0.2334  0.1129
  437MOL0     C58915   1.312   3.815  10.084 -0.6376 -0.4163  0.1834
  437MOL0     C58916   1.421   3.837  10.163  0.4477  0.4917 -0.3611
  437MOL0     C58917   1.541   3.840  10.095  0.4779 -0.7211  0.3800
  437MOL0     O58918   1.643   3.871  10.175  0.0703  0.1094 -1.2049
  437MOL0     C58919   1.782   3.876  10.130 -0.5396 -0.0679  0.2985
  437MOL0     C58920   1.864   3.980  10.204  0.8029  0.7940  0.9769
  437MOL0     C58921   1.817   4.118  10.157  0.8350  0.6260 -0.5098
  437MOL0     C58922   1.924   4.181  10.067 -0.6798  0.4648 -0.1387
  437MOL0     C58923   1.846   4.253   9.964 -0.2202  0.3809 -0.0784
  437MOL0     C58924   1.794   4.295   9.866 -0.4527 -0.0860 -0.6536
  437MOL0     C58925   1.548   3.819   9.957 -0.0696 -0.0548 -0.1238
  437MOL0     C58926   1.438   3.782   9.878 -0.4832  0.0146 -0.4395
  437MOL0     C58927   1.439   3.771   9.724  0.1177  0.7299  0.7430
  437MOL0     H58928   0.883   3.673   9.983 -1.5503 -0.2704  0.0760
  437MOL0     H58929   0.698   3.592   9.829  0.3099 -0.1603  0.3043
  437MOL0     H58930   0.560   3.542   9.600  1.4965 -0.7769  1.8756
  437MOL0     H58931   0.499   3.647   9.733  0.5260 -1.9728  0.5185
  437MOL0     H58932   0.303   3.612   9.570 -2.1891  0.5307  0.9793
  437MOL0     H58933   0.416   3.721   9.469  2.1614  1.6167  1.9361
  437MOL0     H58934   0.406   3.894   9.630  1.7437 -0.0247 -0.0574
  437MOL0     H58935   0.309   3.802   9.742  1.9155 -0.3328  0.2656
  437MOL0     H58936   0.195   3.858   9.462 -1.0722 -1.8916  0.2659
  437MOL0     H58937   0.113   3.803   9.596  0.3600  1.0171  2.6658
  437MOL0     H58938   0.174   4.044   9.703  0.5393 -1.5697  0.8257
  437MOL0     H58939   0.264   4.071   9.567  0.9209 -1.3483  1.5261
  437MOL0     H58940   0.034   4.162   9.537  2.3352 -0.0764 -0.4514
  437MOL0     H58941   0.029   4.022   9.429 -2.1734  0.4103  0.2994
  437MOL0     H58942  -0.046   3.988   9.722  0.0543  1.1409 -0.3882
  437MOL0     H58943  -0.085   3.877   9.590  1.5610 -1.8234  3.3620
  437MOL0     H58944  -0.283   4.017   9.672 -1.3517  1.7491 -0.4007
  437MOL0     H58945  -0.206   4.163   9.621 -1.3755  0.5006 -0.0185
  437MOL0     H58946  -0.171   3.837   9.390 -0.2160  0.4637 -0.3080
  437MOL0     H58947  -0.309   3.931   9.064  3.8686 -0.7217 -2.1365
  437MOL0     H58948  -0.216   3.806   9.149  1.4223  3.2023  1.1649
  437MOL0     H58949  -0.426   3.690   9.083  0.3203 -1.8484  1.7964
  437MOL0     H58950  -0.444   3.722   9.258 -1.4989 -1.0277 -1.0985
  437MOL0     H58951  -0.576   3.883   9.244 -0.2620 -3.3593  0.9989
  437MOL0     H58952  -0.640   3.756   9.140 -0.7444 -0.2705  1.3341
  437MOL0     H58953  -0.531   3.896   8.934 -3.9210 -1.6634 -1.1206
  437MOL0     H58954  -0.523   4.033   9.044  2.6537 -1.5729 -2.7319
  437MOL0     H58955  -0.970   3.940   8.983  0.3685  1.2038 -0.7648
  437MOL0     H58956  -1.123   4.028   9.140  0.2034  2.3409 -1.1088
  437MOL0     H58957  -1.103   4.478   9.447 -1.4451  0.4189 -0.2938
  437MOL0     H58958  -1.287   4.581   9.582  2.0905  0.4498  0.7628
  437MOL0     H58959  -1.461   4.639   9.754  3.5265 -2.4862  2.2213
  437MOL0     H58960  -1.530   4.543   9.629  2.1324  2.3491 -0.7023
  437MOL0     H58961  -1.657   4.408   9.790 -1.5128 -0.2381  0.4616
  437MOL0     H58962  -1.624   4.522   9.916 -2.3360  2.4446  0.2616
  437MOL0     H58963  -1.738   4.631   9.667  0.7219 -1.2071  0.0702
  437MOL0     H58964  -1.842   4.540   9.777  0.8777 -0.9937 -1.0599
  437MOL0     H58965  -1.691   4.807   9.830 -1.2770  0.1619 -2.0533
  437MOL0     H58966  -1.742   4.700   9.962 -0.2735 -0.6181 -0.2610
  437MOL0     H58967  -1.969   4.767   9.919  0.2767 -1.8874 -1.6070
  437MOL0     H58968  -1.945   4.811   9.753 -1.0885  1.7172  0.0527
  437MOL0     H58969  -1.828   4.966   9.981  2.3341 -2.5400 -0.9354
  437MOL0     H58970  -1.845   5.020   9.816  0.6769  1.9140  0.9895
  437MOL0     H58971  -2.050   5.010  10.027  1.2411  2.8293  0.3096
  437MOL0     H58972  -2.108   4.949   9.874 -1.0359 -0.0746  0.7326
  437MOL0     H58973  -2.035   5.150   9.756  2.2592  0.1243  0.0649
  437MOL0     H58974  -2.145   5.179   9.889 -0.4729 -2.7340 -1.6902
  437MOL0     H58975  -1.291   4.209   9.817  1.9241 -2.5843 -2.5285
  437MOL0     H58976  -1.124   4.132   9.664  1.9627  0.3915 -1.5873
  437MOL0     H58977  -0.803   4.203   9.368 -1.8936  2.3852 -1.3645
  437MOL0     H58978  -0.646   4.124   9.206  1.3029 -2.5587 -1.3102
  437MOL0     H58979   0.821   3.894   9.553  1.9316  1.9639  0.6185
  437MOL0     H58980   1.024   3.928   9.675  0.6993 -1.3658 -2.7368
  437MOL0     H58981   1.213   3.824  10.127 -1.0050  4.9890 -0.9806
  437MOL0     H58982   1.414   3.872  10.265 -1.3391 -1.8607  0.4242
  437MOL0     H58983   1.789   3.905  10.025  2.6625 -2.1025 -0.1730
  437MOL0     H58984   1.827   3.776  10.136  0.2025  0.2971  1.1040
  437MOL0     H58985   1.965   3.946  10.177  0.1145 -1.0669  0.6126
  437MOL0     H58986   1.848   3.973  10.312  1.1095  2.2375  1.1381
  437MOL0     H58987   1.804   4.169  10.253 -2.5971  1.3245 -1.2098
  437MOL0     H58988   1.720   4.115  10.105  2.1512 -0.1443 -3.1036
  437MOL0     H58989   1.984   4.259  10.115 -1.4173  1.9120 -1.4403
  437MOL0     H58990   1.994   4.107  10.026 -2.6669 -0.7589 -1.4528
  437MOL0     H58991   1.746   4.335   9.779 -3.0526 -0.7943  0.3281
  437MOL0     H58992   1.643   3.833   9.906  0.7210  2.0651  1.7524
  437MOL0     H58993   1.387   3.684   9.686  0.7078  0.3338  0.8292
  437MOL0     H58994   1.390   3.862   9.689 -0.0295  1.0871  1.8264
  437MOL0     H58995   1.538   3.766   9.679 -0.1419  1.9224 -0.0095
  438MOL0     O58996   4.958   1.425   1.929  0.2233 -0.3208 -0.6560
  438MOL0     C58997   4.937   1.479   1.822 -0.0007  0.4634 -0.2477
  438MOL0     O58998   4.832   1.441   1.744 -0.0991 -0.2035 -0.3328
  438MOL0     C58999   4.760   1.331   1.786 -0.6780  0.5026 -0.6021
  438MOL0     C59000   4.816   1.202   1.803  0.0773  0.5044 -0.3595
  438MOL0     C59001   4.732   1.108   1.857  0.2290  0.3528 -0.7995
  438MOL0     C59002   4.587   1.123   1.865 -0.2705 -0.4841 -0.1049
  438MOL0     O59003   4.517   1.004   1.880 -0.2210  0.2155 -0.4388
  438MOL0     C59004   4.376   1.009   1.874  0.2339  0.3752 -0.1241
  438MOL0     C59005   4.340   0.868   1.925  0.1887  1.1088  1.0003
  438MOL0     C59006   4.340   0.760   1.807 -0.4418  0.0794 -0.6304
  438MOL0     C59007   4.231   0.772   1.689 -1.1546 -0.2113  0.1586
  438MOL0     C59008   4.079   0.742   1.732  0.4278 -0.0686  0.0091
  438MOL0     C59009   4.059   0.616   1.818 -0.3743  0.7162  0.2899
  438MOL0     C59010   4.122   0.488   1.751  0.1668 -0.0397  0.6335
  438MOL0     C59011   4.043   0.375   1.801  0.4518 -0.1363 -0.9647
  438MOL0     N59012   4.041   0.363   1.953  0.1176  0.4320 -0.3315
  438MOL0     C59013   3.926   0.334   2.029 -0.3426  0.3476  0.5380
  438MOL0     C59014   3.971   0.294   2.152  0.1786  0.0359  1.0018
  438MOL0     C59015   3.884   0.233   2.255  0.1666 -0.0420 -0.1948
  438MOL0     C59016   3.964   0.135   2.342  0.2978 -0.3775 -0.7135
  438MOL0     C59017   3.954  -0.011   2.303  0.1235 -1.0607 -0.3622
  438MOL0     C59018   3.876  -0.085   2.412  0.0024 -0.3164 -0.1178
  438MOL0     O59019   3.869  -0.227   2.389  0.1294 -0.7863 -0.2366
  438MOL0     C59020   3.740  -0.269   2.377 -0.0255 -0.0852 -0.7752
  438MOL0     C59021   3.673  -0.333   2.482  0.4816 -0.5007 -0.4006
  438MOL0     C59022   3.546  -0.394   2.463  0.1992 -0.4790  0.7805
  438MOL0     C59023   3.491  -0.392   2.339  0.9166  0.4294  0.4246
  438MOL0     C59024   3.354  -0.439   2.313  0.4087 -0.2100  0.1526
  438MOL0     O59025   3.323  -0.558   2.385  0.2068  0.3864 -0.1411
  438MOL0     C59026   3.190  -0.590   2.383 -0.4171 -0.4965 -0.2414
  438MOL0     C59027   3.134  -0.634   2.259 -0.8511  0.6363 -0.1172
  438MOL0     C59028   2.995  -0.655   2.246  0.5072 -0.6387  0.2944
  438MOL0     C59029   2.901  -0.631   2.342 -0.4172  0.2859 -0.3525
  438MOL0     O59030   2.771  -0.643   2.310  0.1048 -0.4029  0.4243
  438MOL0     C59031   2.684  -0.674   2.423  0.4767  0.1626  0.3635
  438MOL0     C59032   2.548  -0.719   2.389 -0.3975 -0.6249  0.0003
  438MOL0     C59033   2.532  -0.852   2.326 -0.6586  0.2395  0.9651
  438MOL0     C59034   2.582  -0.871   2.178  0.9529  0.3603 -0.9713
  438MOL0     C59035   2.619  -1.013   2.147  0.2751  0.9773 -0.1503
  438MOL0     C59036   2.661  -1.027   2.000  0.1851  0.4162  0.0037
  438MOL0     C59037   2.724  -1.164   1.968  0.5455  0.1119  0.1339
  438MOL0     C59038   2.623  -1.273   1.975  0.8471 -0.8534  0.1806
  438MOL0    Cl59039   2.474  -1.241   1.873  0.6437 -0.0574 -0.5220
  438MOL0     C59040   2.954  -0.603   2.474 -0.3471  0.1493 -0.4116
  438MOL0     C59041   3.093  -0.589   2.489 -0.3121 -1.1819 -1.0540
  438MOL0     O59042   3.291  -0.390   2.219  0.4012  0.6300 -0.7603
  438MOL0     C59043   3.557  -0.320   2.241 -0.1314 -0.2158 -0.4622
  438MOL0     C59044   3.688  -0.273   2.249  1.0350 -1.1061  0.8571
  438MOL0     N59045   4.113   0.302   2.142 -0.4650 -0.1945 -0.0888
  438MOL0     N59046   4.150   0.353   2.035  0.0146 -0.4678  1.0552
  438MOL0     C59047   4.532   1.252   1.843  0.6101  0.4131  0.5816
  438MOL0     C59048   4.625   1.353   1.810  0.9690 -1.2203 -0.1466
  438MOL0     C59049   5.019   1.593   1.788  0.1377 -0.0263 -0.8214
  438MOL0     C59050   4.968   1.685   1.685  0.1254  0.2554  0.7199
  438MOL0     C59051   5.049   1.782   1.644  0.0425 -0.9303 -0.2490
  438MOL0     C59052   5.170   1.813   1.692  0.0053  1.4753 -0.5996
  438MOL0     O59053   5.236   1.911   1.615 -0.8046  0.1419  0.2819
  438MOL0     C59054   5.370   1.948   1.655  0.4574  1.1372 -0.7193
  438MOL0     C59055   5.416   2.066   1.584 -0.1060 -0.0324  0.2725
  438MOL0     C59056   5.556   2.127   1.613  0.1772  0.1820  0.3866
  438MOL0     C59057   5.645   2.030   1.707  0.2623  0.7119 -0.3876
  438MOL0     C59058   5.616   2.051   1.850  0.3475 -0.4569  1.0454
  438MOL0     C59059   5.614   2.069   1.970 -0.1548 -0.4920  0.4502
  438MOL0     C59060   5.215   1.733   1.806 -0.1532 -0.8338  1.0717
  438MOL0     C59061   5.147   1.627   1.847 -0.3779 -0.4154  0.8380
  438MOL0     C59062   5.205   1.549   1.967  0.1134  0.1171 -0.4174
  438MOL0     H59063   4.923   1.185   1.807 -0.2384 -1.4770  1.1995
  438MOL0     H59064   4.777   1.023   1.907  0.8236  0.7499 -0.6515
  438MOL0     H59065   4.339   1.086   1.942 -2.9227  1.3936 -2.7222
  438MOL0     H59066   4.333   1.036   1.777 -1.3241  0.5049  0.5700
  438MOL0     H59067   4.245   0.860   1.978  0.8056  0.5087  2.0650
  438MOL0     H59068   4.416   0.847   2.002  0.2501  1.1669  0.9555
  438MOL0     H59069   4.343   0.661   1.853 -0.8923  1.0154  1.5689
  438MOL0     H59070   4.435   0.771   1.753  0.7031  0.0205  1.2699
  438MOL0     H59071   4.250   0.872   1.652 -1.8955 -1.1976 -3.1928
  438MOL0     H59072   4.249   0.709   1.601 -0.4785 -0.0855  0.2078
  438MOL0     H59073   4.050   0.833   1.787 -2.7497  0.5475 -2.3785
  438MOL0     H59074   4.016   0.743   1.643  1.8792  0.6559 -1.0521
  438MOL0     H59075   4.110   0.621   1.915  2.2450  0.6197 -0.9793
  438MOL0     H59076   3.953   0.613   1.843 -0.4563  0.7430 -0.0445
  438MOL0     H59077   4.230   0.483   1.761  0.2105 -0.1357  0.1532
  438MOL0     H59078   4.100   0.479   1.644  1.2466 -0.6012  0.4481
  438MOL0     H59079   3.940   0.397   1.769 -0.8867  3.4383  4.4014
  438MOL0     H59080   4.079   0.283   1.755 -0.2429 -0.4215 -0.9536
  438MOL0     H59081   3.828   0.324   1.985 -1.0077  2.1015  1.4978
  438MOL0     H59082   3.832   0.309   2.315  1.8522  1.7132 -0.8590
  438MOL0     H59083   3.798   0.175   2.220  0.4208 -0.6857  0.2247
  438MOL0     H59084   4.065   0.177   2.342 -0.7862  2.4709 -1.4937
  438MOL0     H59085   3.936   0.147   2.447 -1.9518 -2.4457 -0.9812
  438MOL0     H59086   4.047  -0.062   2.277 -0.2315 -2.1762  0.4673
  438MOL0     H59087   3.896  -0.020   2.210 -1.3284  1.9879  0.1379
  438MOL0     H59088   3.777  -0.039   2.412 -0.3238 -0.9099 -2.3585
  438MOL0     H59089   3.928  -0.072   2.508 -0.0023 -2.3136  0.1953
  438MOL0     H59090   3.712  -0.339   2.584 -0.9804 -1.4405  0.1441
  438MOL0     H59091   3.508  -0.458   2.542  1.8236 -0.1293  1.8832
  438MOL0     H59092   3.199  -0.647   2.172 -1.1833  3.1801 -0.8065
  438MOL0     H59093   2.954  -0.663   2.146  1.2124  2.8829 -0.4114
  438MOL0     H59094   2.732  -0.752   2.483 -0.2495 -2.0866 -1.8613
  438MOL0     H59095   2.673  -0.586   2.488  1.6255 -1.0436  2.2881
  438MOL0     H59096   2.482  -0.707   2.475 -0.3290  2.6336 -0.2863
  438MOL0     H59097   2.506  -0.654   2.312 -1.6488  0.5010  1.5731
  438MOL0     H59098   2.590  -0.920   2.389 -2.4367 -1.1078  1.2288
  438MOL0     H59099   2.428  -0.887   2.334 -0.2602 -2.6806 -3.2479
  438MOL0     H59100   2.672  -0.809   2.165  0.8069  0.9694  0.6024
  438MOL0     H59101   2.499  -0.833   2.118 -1.4249 -1.3241  1.0322
  438MOL0     H59102   2.542  -1.089   2.161  2.6894 -1.1169  3.0217
  438MOL0     H59103   2.696  -1.055   2.212 -1.3227 -2.7874 -0.4715
  438MOL0     H59104   2.584  -0.987   1.934 -0.9729 -1.1445  0.3384
  438MOL0     H59105   2.742  -0.958   1.977 -0.9718  1.6790 -0.3849
  438MOL0     H59106   2.814  -1.187   2.026  2.7007 -0.6062 -3.1747
  438MOL0     H59107   2.762  -1.161   1.865  3.2388 -0.9363  1.0188
  438MOL0     H59108   2.660  -1.368   1.935  0.2692 -0.5255 -1.1541
  438MOL0     H59109   2.602  -1.292   2.081  0.8371 -3.2763 -0.1960
  438MOL0     H59110   2.892  -0.588   2.562  0.9911 -0.9464  0.7743
  438MOL0     H59111   3.130  -0.563   2.588 -0.5336  3.6006 -1.9824
  438MOL0     H59112   3.494  -0.316   2.152 -2.0379 -0.2080  0.8406
  438MOL0     H59113   3.746  -0.238   2.165 -1.4083  0.7895 -0.1794
  438MOL0     H59114   4.427   1.277   1.853  0.8935  1.3837  1.2799
  438MOL0     H59115   4.594   1.452   1.781  0.0661 -1.9236 -1.7559
  438MOL0     H59116   4.877   1.676   1.627  1.7158 -0.1087 -1.8891
  438MOL0     H59117   5.015   1.831   1.553  4.1179  2.7490 -0.1427
  438MOL0     H59118   5.439   1.867   1.630  0.7721  0.4155  2.1336
  438MOL0     H59119   5.366   1.962   1.764 -0.3015 -3.8425  0.1345
  438MOL0     H59120   5.340   2.143   1.603 -2.7932 -2.0736 -1.3693
  438MOL0     H59121   5.423   2.040   1.478  1.3590 -0.7052  0.5244
  438MOL0     H59122   5.552   2.224   1.662  0.8730  0.1335  0.5477
  438MOL0     H59123   5.605   2.133   1.516 -1.0504 -1.2325 -0.3688
  438MOL0     H59124   5.632   1.923   1.684 -1.9152  1.2616 -1.9745
  438MOL0     H59125   5.752   2.052   1.706  0.6446 -0.6310  2.1033
  438MOL0     H59126   5.630   2.098   2.071 -1.9215  0.2772  0.5542
  438MOL0     H59127   5.311   1.758   1.850 -0.5617  1.1686  0.9317
  438MOL0     H59128   5.304   1.583   1.999 -1.2852  3.0793  1.2321
  438MOL0     H59129   5.141   1.567   2.054  0.9012  3.1992 -0.3290
  438MOL0     H59130   5.213   1.442   1.948 -0.5067  0.2321 -1.4271
  439MOL0     O59131  10.406  10.335   5.210 -0.6046  1.1826  0.1533
  439MOL0     C59132  10.426  10.229   5.287  0.6174 -0.8868  0.5246
  439MOL0     O59133  10.401  10.099   5.257  0.1339 -0.4133  0.3869
  439MOL0     C59134  10.349  10.068   5.134  0.2998 -0.0356 -0.4734
  439MOL0     C59135  10.433  10.003   5.043 -0.4921  1.7879 -0.1885
  439MOL0     C59136  10.387   9.956   4.913 -0.1139  0.4774 -0.3127
  439MOL0     C59137  10.254   9.976   4.882  0.8761  0.8282 -0.0722
  439MOL0     O59138  10.208   9.952   4.761 -0.5178 -0.6729 -0.1462
  439MOL0     C59139  10.208   9.824   4.711 -0.0314 -0.4941 -0.7229
  439MOL0     C59140  10.146   9.833   4.573 -0.1017  0.4346  0.1035
  439MOL0     C59141   9.995   9.862   4.580  0.2684 -1.0090  0.0010
  439MOL0     C59142   9.908   9.829   4.456 -0.4425  0.0830  0.0265
  439MOL0     C59143   9.861   9.682   4.465  0.2834 -0.0830  0.4851
  439MOL0     C59144   9.749   9.645   4.361  0.3641 -0.8197  0.4201
  439MOL0     C59145   9.602   9.657   4.409 -1.4045  0.0072  0.5443
  439MOL0     C59146   9.554   9.792   4.460 -0.2857  0.8419 -0.1624
  439MOL0     N59147   9.522   9.878   4.347  0.2017 -0.2297  0.1782
  439MOL0     C59148   9.606   9.912   4.239  0.5945  0.4740 -0.5010
  439MOL0     C59149   9.533  10.017   4.181  0.7910  0.1209 -0.1798
  439MOL0     C59150   9.583  10.100   4.071  0.6279  0.5000  0.2227
  439MOL0     C59151   9.468  10.190   4.005  0.6313 -0.3011 -0.2212
  439MOL0     C59152   9.496  10.221   3.862  0.6123  0.0202  0.3709
  439MOL0     C59153   9.398  10.312   3.793  0.9086 -0.0734  0.1789
  439MOL0     O59154   9.412  10.277   3.650  0.1659  0.4655  0.4559
  439MOL0     C59155   9.386  10.366   3.553  0.7851 -0.1631  0.7723
  439MOL0     C59156   9.295  10.468   3.581  0.7333  0.3602 -0.8857
  439MOL0     C59157   9.266  10.567   3.479 -0.6893 -0.4522 -0.7831
  439MOL0     C59158   9.325  10.557   3.357  0.3505 -1.2845 -0.6211
  439MOL0     C59159   9.284  10.653   3.252 -0.0743  0.6416 -0.9874
  439MOL0     O59160   9.334  10.627   3.129  0.5127  0.3605 -0.2270
  439MOL0     C59161   9.290  10.698   3.017  0.4470 -0.7888 -1.0963
  439MOL0     C59162   9.153  10.757   3.006 -0.2977  0.4647  0.1509
  439MOL0     C59163   9.116  10.814   2.882 -0.6312  0.4278  0.2136
  439MOL0     C59164   9.205  10.812   2.776 -0.2426 -0.2313 -0.7147
  439MOL0     O59165   9.144  10.850   2.657 -0.1504 -0.2133 -0.5875
  439MOL0     C59166   9.228  10.872   2.547 -0.9786 -0.6985  0.5519
  439MOL0     C59167   9.143  10.947   2.446  0.7555  0.3492 -0.0497
  439MOL0     C59168   9.225  10.969   2.326 -0.3486 -0.0146 -0.0968
  439MOL0     C59169   9.148  11.031   2.209  0.0571 -0.0436  0.3173
  439MOL0     C59170   9.247  11.073   2.091  0.4780 -0.6640  0.5152
  439MOL0     C59171   9.234  10.968   1.977 -0.5305  0.4853 -0.2432
  439MOL0     C59172   9.324  11.011   1.852  0.6592  0.6945 -0.2332
  439MOL0     C59173   9.249  11.097   1.751 -0.3081  0.4211  0.2061
  439MOL0    Cl59174   9.367  11.148   1.627 -0.0482  0.5717  0.0165
  439MOL0     C59175   9.328  10.744   2.781  0.0185  0.1911  0.0456
  439MOL0     C59176   9.367  10.688   2.903  1.2419  0.5959 -0.0167
  439MOL0     O59177   9.222  10.753   3.279 -0.6079 -0.0439 -0.3084
  439MOL0     C59178   9.425  10.459   3.341  1.0075 -0.2155 -0.5570
  439MOL0     C59179   9.445  10.355   3.428 -0.5808 -0.3433  0.6043
  439MOL0     N59180   9.411  10.046   4.239 -0.3463  0.0467 -0.2319
  439MOL0     N59181   9.408   9.962   4.340 -0.2076  0.2170 -0.4399
  439MOL0     C59182  10.169  10.050   4.971  0.3889  1.7377  0.7738
  439MOL0     C59183  10.212  10.090   5.094  0.0491 -0.0498 -0.5338
  439MOL0     C59184  10.477  10.266   5.424  0.2759  1.3159 -0.1667
  439MOL0     C59185  10.411  10.197   5.535  0.0890  0.9195 -0.5541
  439MOL0     C59186  10.457  10.218   5.662  0.6719 -0.8562 -0.2156
  439MOL0     C59187  10.551  10.323   5.696  0.6534  0.6088 -0.3773
  439MOL0     O59188  10.552  10.361   5.830  0.3748  0.0395 -0.4215
  439MOL0     C59189  10.598  10.502   5.858 -0.8257  0.3906 -0.1578
  439MOL0     C59190  10.563  10.553   5.998 -0.3067 -0.3960  0.6011
  439MOL0     C59191  10.651  10.469   6.098  0.6840 -0.9988  1.5547
  439MOL0     C59192  10.807  10.476   6.084  0.1607  0.4499 -0.0804
  439MOL0     C59193  10.846  10.618   6.108 -0.0371  0.6169 -0.0950
  439MOL0     C59194  10.849  10.734   6.127  0.1815  0.2571  0.3012
  439MOL0     C59195  10.607  10.393   5.591 -0.5926  0.1062  0.3884
  439MOL0     C59196  10.579  10.354   5.447 -0.1797  0.3498  0.2267
  439MOL0     C59197  10.656  10.429   5.333 -0.8835 -0.2324  0.3470
  439MOL0     H59198  10.538   9.999   5.072 -0.2102 -1.3960 -1.2049
  439MOL0     H59199  10.453   9.907   4.843  0.4360  0.4976  0.1802
  439MOL0     H59200  10.312   9.789   4.707  0.0091 -0.2460 -2.3944
  439MOL0     H59201  10.143   9.768   4.779  0.8049  1.1639  1.6155
  439MOL0     H59202  10.163   9.738   4.521 -3.0890 -0.9195  1.3833
  439MOL0     H59203  10.185   9.924   4.525 -3.1530  0.6831 -2.1816
  439MOL0     H59204   9.990   9.972   4.582  1.5841 -0.9287  0.0386
  439MOL0     H59205   9.949   9.826   4.672 -2.8932  1.2985 -0.4865
  439MOL0     H59206   9.820   9.892   4.440 -2.0273 -2.5037 -2.4305
  439MOL0     H59207   9.969   9.848   4.368 -2.0421  3.4048 -0.5223
  439MOL0     H59208   9.948   9.617   4.462  0.8768  0.6193  1.6510
  439MOL0     H59209   9.819   9.664   4.565  0.1375  0.0607  0.4516
  439MOL0     H59210   9.767   9.715   4.278 -0.9013 -0.7808  0.1565
  439MOL0     H59211   9.765   9.546   4.318  0.4523  0.4144 -2.7470
  439MOL0     H59212   9.573   9.579   4.481 -3.0554 -0.1435 -0.2392
  439MOL0     H59213   9.539   9.644   4.321 -0.7607  2.0471 -0.2769
  439MOL0     H59214   9.460   9.772   4.512  1.3358 -2.2346  1.8651
  439MOL0     H59215   9.617   9.833   4.539 -1.5568 -0.6835  1.7102
  439MOL0     H59216   9.705   9.879   4.209  0.7534  0.2359  0.2617
  439MOL0     H59217   9.657  10.171   4.109 -0.1003 -0.2898  3.4106
  439MOL0     H59218   9.636  10.046   3.992  1.6545  0.8439  0.6558
  439MOL0     H59219   9.370  10.142   4.016  0.2066  0.8893  1.8162
  439MOL0     H59220   9.456  10.280   4.066 -1.4471 -2.0935  2.2153
  439MOL0     H59221   9.501  10.124   3.811  0.1399  1.5238 -2.7819
  439MOL0     H59222   9.591  10.273   3.844  0.5975 -0.3326 -0.8154
  439MOL0     H59223   9.437  10.414   3.802  1.6721  0.1382 -3.6372
  439MOL0     H59224   9.296  10.310   3.832  1.5808  1.2320  2.1399
  439MOL0     H59225   9.252  10.473   3.681 -1.0805 -0.9161 -1.5482
  439MOL0     H59226   9.197  10.650   3.492 -1.0559 -0.8226 -0.3138
  439MOL0     H59227   9.076  10.741   3.081  0.6123 -4.0456  0.4420
  439MOL0     H59228   9.016  10.854   2.865 -1.1535 -1.1297 -0.5273
  439MOL0     H59229   9.318  10.932   2.561 -0.4183 -1.0485 -1.3199
  439MOL0     H59230   9.251  10.775   2.502 -2.7567 -0.2495 -1.4927
  439MOL0     H59231   9.050  10.897   2.418  0.4838  2.5883 -3.7988
  439MOL0     H59232   9.115  11.043   2.491  0.4018 -0.0290  0.5578
  439MOL0     H59233   9.306  11.034   2.361 -1.3911  0.6435  1.1813
  439MOL0     H59234   9.251  10.871   2.285  3.8399  1.1825 -0.8091
  439MOL0     H59235   9.102  11.123   2.246  0.6529 -0.3624  1.9207
  439MOL0     H59236   9.069  10.971   2.162  0.6502 -0.3690 -0.2833
  439MOL0     H59237   9.346  11.082   2.135  0.0625 -0.8460  1.5135
  439MOL0     H59238   9.220  11.174   2.059  3.2470 -0.5580 -1.9087
  439MOL0     H59239   9.263  10.871   2.018  1.2757  1.8277  1.9075
  439MOL0     H59240   9.133  10.961   1.937  0.2089 -4.0356 -1.9655
  439MOL0     H59241   9.362  10.927   1.794 -1.4751  0.2544 -1.0718
  439MOL0     H59242   9.414  11.064   1.886  1.4885 -0.7566 -0.1005
  439MOL0     H59243   9.176  11.038   1.695 -2.3681  1.1967  1.9586
  439MOL0     H59244   9.190  11.179   1.792 -0.4135  0.4297  0.0384
  439MOL0     H59245   9.393  10.725   2.696  3.4808 -0.0635  2.5746
  439MOL0     H59246   9.466  10.643   2.901  1.1248  0.3330  0.1471
  439MOL0     H59247   9.488  10.460   3.252  2.3049  3.6998  0.2095
  439MOL0     H59248   9.516  10.275   3.410  0.5369  0.5621  0.8683
  439MOL0     H59249  10.075  10.087   4.931  1.5165  4.3305  0.2522
  439MOL0     H59250  10.143  10.135   5.164  2.7676  1.1363  1.5684
  439MOL0     H59251  10.336  10.123   5.509  0.7430  0.4757 -1.2277
  439MOL0     H59252  10.406  10.179   5.750  0.8771 -0.0888  0.2543
  439MOL0     H59253  10.550  10.568   5.785  1.2493 -0.3776 -2.3579
  439MOL0     H59254  10.706  10.516   5.851 -0.8730  0.9232  0.1302
  439MOL0     H59255  10.458  10.557   6.028 -0.2874  0.2701  0.5998
  439MOL0     H59256  10.594  10.657   6.009  1.7920 -0.8893 -0.1964
  439MOL0     H59257  10.627  10.365   6.077 -0.3990 -0.2542 -1.5286
  439MOL0     H59258  10.619  10.498   6.198  0.3918 -1.0118  1.4664
  439MOL0     H59259  10.861  10.413   6.155 -1.4424 -1.9217 -0.8513
  439MOL0     H59260  10.851  10.439   5.991 -1.1328  0.4145 -0.7060
  439MOL0     H59261  10.853  10.836   6.162 -1.6451  1.5733 -2.8733
  439MOL0     H59262  10.681  10.470   5.610  2.4669 -2.3204 -0.7945
  439MOL0     H59263  10.584  10.486   5.273  0.8575  4.9445  2.6023
  439MOL0     H59264  10.727  10.502   5.374  0.2544 -0.4184 -1.2056
  439MOL0     H59265  10.709  10.356   5.270 -2.0358  0.1799 -1.1666
  440MOL0     O59266   7.619  10.401   8.308  0.5156  0.8028 -0.0452
  440MOL0     C59267   7.526  10.338   8.353  0.4417  0.9610  0.8259
  440MOL0     O59268   7.519  10.301   8.481  0.1951  0.3020 -0.5111
  440MOL0     C59269   7.580  10.387   8.570  0.6151  1.0444 -0.0667
  440MOL0     C59270   7.554  10.526   8.562 -0.0953 -0.0334 -0.3346
  440MOL0     C59271   7.610  10.601   8.667 -1.2632 -0.2820 -0.0721
  440MOL0     C59272   7.683  10.546   8.773 -1.1582  0.1216  0.4068
  440MOL0     O59273   7.742  10.638   8.851  0.2588 -0.6091 -0.1576
  440MOL0     C59274   7.846  10.595   8.940  0.3141  0.2966 -0.5252
  440MOL0     C59275   7.951  10.706   8.945 -0.0293  0.4780 -0.4873
  440MOL0     C59276   7.895  10.832   9.022  0.9377  0.8055  0.5356
  440MOL0     C59277   7.987  10.947   9.051  0.2868 -0.0206  0.8426
  440MOL0     C59278   7.914  11.065   9.121  0.1618 -0.4753  1.1002
  440MOL0     C59279   8.000  11.200   9.133  0.0322  0.2623  0.7261
  440MOL0     C59280   8.057  11.266   9.008  0.4342  0.3171  0.0684
  440MOL0     C59281   8.108  11.404   9.044 -0.2010  0.1680 -0.2794
  440MOL0     N59282   8.209  11.464   8.950 -0.0361 -0.2692 -0.8831
  440MOL0     C59283   8.340  11.415   8.916 -0.6239  0.9601 -0.2899
  440MOL0     C59284   8.375  11.469   8.798 -0.2665  0.6605 -0.8435
  440MOL0     C59285   8.507  11.463   8.726  1.1427 -0.9686 -0.2618
  440MOL0     C59286   8.618  11.517   8.826  0.3354 -0.1421  0.1019
  440MOL0     C59287   8.752  11.514   8.765 -0.5153 -0.2348 -0.6050
  440MOL0     C59288   8.750  11.594   8.627 -0.2359 -1.0206 -0.2683
  440MOL0     O59289   8.695  11.734   8.628  0.3457  0.0436 -0.1506
  440MOL0     C59290   8.761  11.835   8.690  0.8979 -0.0056  0.6966
  440MOL0     C59291   8.686  11.954   8.702  1.1719  0.1621 -0.2098
  440MOL0     C59292   8.747  12.067   8.774  0.1504  0.6110 -0.9405
  440MOL0     C59293   8.868  12.049   8.851  0.1164 -1.4055  0.5305
  440MOL0     C59294   8.930  12.164   8.927  0.8218  0.4717 -1.1781
  440MOL0     O59295   8.863  12.285   8.909 -0.2400 -1.0356 -0.2895
  440MOL0     C59296   8.939  12.394   8.934  0.1693 -1.1505  1.7352
  440MOL0     C59297   8.930  12.459   9.057  0.2737 -1.4312 -0.0381
  440MOL0     C59298   9.007  12.572   9.086  0.1033  0.2584 -0.8290
  440MOL0     C59299   9.101  12.617   8.998 -0.1939 -0.0805 -0.4499
  440MOL0     O59300   9.182  12.725   9.034  0.7265  0.3611  0.2532
  440MOL0     C59301   9.148  12.825   9.136 -0.3501  1.5988  0.2105
  440MOL0     C59302   9.033  12.920   9.087 -0.1743  1.2242  0.7310
  440MOL0     C59303   9.070  13.004   8.970  0.7304 -0.4892  0.1709
  440MOL0     C59304   8.965  13.126   8.939  0.1183  1.0101 -0.8407
  440MOL0     C59305   9.027  13.249   8.878 -0.0462  0.2958 -0.7564
  440MOL0     C59306   9.052  13.231   8.732 -0.2024  0.1935 -0.6035
  440MOL0     C59307   9.081  13.369   8.668  0.3011 -0.5300  0.1851
  440MOL0     C59308   9.125  13.342   8.529  0.7148  0.1849 -0.0353
  440MOL0    Cl59309   9.185  13.491   8.469 -0.2069  0.4574  0.3421
  440MOL0     C59310   9.119  12.547   8.872  0.6831 -1.3808  0.0017
  440MOL0     C59311   9.033  12.441   8.835 -0.0692 -0.2806 -0.7234
  440MOL0     O59312   9.035  12.145   8.987 -0.4693  0.3602  0.1811
  440MOL0     C59313   8.931  11.924   8.837  0.0615 -0.5887 -0.8890
  440MOL0     C59314   8.869  11.816   8.763 -0.7538  0.5792  0.2039
  440MOL0     N59315   8.266  11.546   8.755  0.8037 -0.5186 -0.2900
  440MOL0     N59316   8.174  11.544   8.849  0.1679 -0.6282 -0.1363
  440MOL0     C59317   7.696  10.406   8.779 -0.2462  0.2311  0.3346
  440MOL0     C59318   7.656  10.329   8.670  0.5896  0.1536 -0.5175
  440MOL0     C59319   7.421  10.287   8.257  0.8529  0.4000 -0.5692
  440MOL0     C59320   7.289  10.307   8.309 -0.0759 -0.2370  0.3475
  440MOL0     C59321   7.178  10.245   8.252  0.8906 -0.5551  0.4745
  440MOL0     C59322   7.194  10.163   8.138  1.1796 -0.4345  0.5498
  440MOL0     O59323   7.095  10.101   8.080  0.4288  0.2620 -0.2785
  440MOL0     C59324   6.969  10.058   8.143 -0.0649 -0.2984 -0.3492
  440MOL0     C59325   6.890   9.949   8.070 -0.3534  0.6399 -0.3660
  440MOL0     C59326   6.748   9.897   8.124  0.0068  0.2512  0.2088
  440MOL0     C59327   6.698   9.780   8.035 -0.4130 -1.2700  0.4586
  440MOL0     C59328   6.560   9.766   8.067 -0.0126 -0.1051  0.7940
  440MOL0     C59329   6.443   9.739   8.078  1.0932 -0.0484 -0.3599
  440MOL0     C59330   7.319  10.145   8.087 -0.4469  0.1035  0.7659
  440MOL0     C59331   7.432  10.201   8.151 -0.7495  0.0463  0.8205
  440MOL0     C59332   7.566  10.166   8.088 -0.3087  0.4837  0.2791
  440MOL0     H59333   7.491  10.574   8.489  1.4943  2.1692 -0.3506
  440MOL0     H59334   7.593  10.706   8.649  0.6792 -0.2412 -1.9787
  440MOL0     H59335   7.814  10.568   9.041 -2.4313  2.4233 -0.7288
  440MOL0     H59336   7.902  10.503   8.919  1.7801  0.8917  0.6478
  440MOL0     H59337   7.975  10.739   8.844  0.1854  3.1198  0.3324
  440MOL0     H59338   8.032  10.657   8.999 -0.5950 -1.0561 -0.9833
  440MOL0     H59339   7.840  10.813   9.114 -0.4467  2.7357  0.1611
  440MOL0     H59340   7.818  10.863   8.951  0.7497  0.2438  0.4846
  440MOL0     H59341   8.062  10.909   9.120 -1.1451 -2.8921  0.9877
  440MOL0     H59342   8.037  10.987   8.962  0.9348  2.4579  2.2476
  440MOL0     H59343   7.829  11.093   9.059 -0.1977 -3.5309  0.0505
  440MOL0     H59344   7.864  11.026   9.211  1.0726 -0.1207  1.7816
  440MOL0     H59345   7.938  11.274   9.185 -2.4473 -1.2304  0.0527
  440MOL0     H59346   8.074  11.170   9.208  0.4002  0.2258  0.3502
  440MOL0     H59347   7.975  11.273   8.936 -1.4406  0.2687  2.0807
  440MOL0     H59348   8.144  11.218   8.963  2.9837  2.6254  2.1657
  440MOL0     H59349   8.017  11.464   9.042  0.3840  1.0554 -1.4960
  440MOL0     H59350   8.137  11.417   9.149  2.4736  0.7936 -1.0020
  440MOL0     H59351   8.403  11.348   8.973 -1.3272  2.2256  2.0844
  440MOL0     H59352   8.529  11.361   8.693  3.2609 -0.6298 -0.0888
  440MOL0     H59353   8.500  11.525   8.637  2.0846 -3.7798 -2.4254
  440MOL0     H59354   8.605  11.618   8.866  1.2443  0.5115 -1.1891
  440MOL0     H59355   8.611  11.446   8.909  0.1349 -1.2355 -0.8258
  440MOL0     H59356   8.776  11.408   8.750 -1.3668 -0.5844  0.4534
  440MOL0     H59357   8.827  11.553   8.835 -0.4619  1.1445 -1.3866
  440MOL0     H59358   8.697  11.533   8.554  3.1275 -3.5908 -0.8168
  440MOL0     H59359   8.856  11.608   8.603  0.6463  3.5052  4.5151
  440MOL0     H59360   8.600  11.973   8.639 -1.2592  1.4020  3.1633
  440MOL0     H59361   8.714  12.170   8.771  2.7027  1.6522  1.7598
  440MOL0     H59362   8.863  12.414   9.130 -1.2765  0.5364 -0.1465
  440MOL0     H59363   9.001  12.608   9.189 -0.7868 -2.9929  0.3616
  440MOL0     H59364   9.130  12.774   9.232 -0.8525 -2.0198 -1.6328
  440MOL0     H59365   9.231  12.892   9.158 -0.6284  1.7158  0.9444
  440MOL0     H59366   8.945  12.857   9.069  0.4613  0.6490 -0.5136
  440MOL0     H59367   9.023  12.981   9.177  2.0317 -1.0345  2.6381
  440MOL0     H59368   9.170  13.041   8.993  1.0211 -0.2253 -1.4032
  440MOL0     H59369   9.075  12.942   8.880 -0.3817 -0.9608  0.4151
  440MOL0     H59370   8.917  13.152   9.033  1.8643  1.1909  0.0512
  440MOL0     H59371   8.895  13.090   8.864  1.4117 -0.0555 -1.5909
  440MOL0     H59372   9.115  13.277   8.937 -0.0250 -2.6411  0.8341
  440MOL0     H59373   8.947  13.322   8.888  1.3781  1.6429  1.7853
  440MOL0     H59374   9.131  13.159   8.711  1.5431  0.8330  2.9016
  440MOL0     H59375   8.958  13.195   8.688 -1.1988  0.6356  1.0530
  440MOL0     H59376   9.165  13.411   8.724  2.5084 -0.9988 -2.5876
  440MOL0     H59377   8.997  13.437   8.684  1.9139  2.2783 -2.3248
  440MOL0     H59378   9.202  13.265   8.545 -0.4054 -0.4668  2.9836
  440MOL0     H59379   9.048  13.295   8.467 -0.3215 -1.1218  2.1040
  440MOL0     H59380   9.184  12.600   8.804 -1.8407  1.8274 -0.1382
  440MOL0     H59381   9.033  12.387   8.741  2.3114 -2.2388  0.2900
  440MOL0     H59382   9.029  11.909   8.882 -0.3836 -1.3010 -0.1145
  440MOL0     H59383   8.921  11.722   8.747 -0.1239  0.9665 -0.0453
  440MOL0     H59384   7.740  10.356   8.864 -0.8199 -2.0720 -0.6566
  440MOL0     H59385   7.664  10.221   8.663 -2.8782 -0.1253 -2.8496
  440MOL0     H59386   7.283  10.374   8.394 -0.3077 -0.1134  0.2361
  440MOL0     H59387   7.079  10.264   8.292  0.5971  1.5629 -1.0938
  440MOL0     H59388   6.901  10.144   8.152  0.2804 -0.0734  0.1525
  440MOL0     H59389   7.003  10.017   8.238  0.2747  2.3179  0.7584
  440MOL0     H59390   6.958   9.872   8.032 -0.7226 -0.5521  1.3164
  440MOL0     H59391   6.857   9.997   7.977 -0.1538 -0.0779 -0.8205
  440MOL0     H59392   6.672   9.976   8.127 -0.0089  0.2183  1.0419
  440MOL0     H59393   6.760   9.853   8.224 -0.8760  0.2532  0.3288
  440MOL0     H59394   6.696   9.797   7.927  0.2797 -0.7100  0.5309
  440MOL0     H59395   6.754   9.691   8.067  0.3124 -0.9057  0.2101
  440MOL0     H59396   6.338   9.723   8.093  1.2270  0.3009  1.1051
  440MOL0     H59397   7.335  10.075   8.006 -2.2253 -0.3600  0.7719
  440MOL0     H59398   7.543  10.092   8.011  0.9715 -0.2486  0.5672
  440MOL0     H59399   7.612  10.257   8.048  0.9107  0.4750  1.5718
  440MOL0     H59400   7.635  10.115   8.157  1.9703  2.3890 -0.4585
  441MOL0     O59401   0.555   0.006   8.687  0.0729  0.3090 -0.6041
  441MOL0     C59402   0.678  -0.000   8.663 -0.6949 -0.8506  0.4492
  441MOL0     O59403   0.736  -0.100   8.592  0.3736  0.0961  0.1020
  441MOL0     C59404   0.654  -0.198   8.541  0.7046  0.6970 -0.5572
  441MOL0     C59405   0.572  -0.169   8.438 -0.0417 -0.0392 -0.0868
  441MOL0     C59406   0.515  -0.268   8.366 -0.5059  0.4923 -0.3878
  441MOL0     C59407   0.533  -0.403   8.395 -1.2633 -0.2570 -0.7010
  441MOL0     O59408   0.488  -0.500   8.307 -0.0006 -1.0920  0.4463
  441MOL0     C59409   0.374  -0.566   8.365  1.1262  0.1715 -0.6593
  441MOL0     C59410   0.268  -0.606   8.266 -0.1928 -0.1203 -1.5516
  441MOL0     C59411   0.324  -0.651   8.129  0.3942 -0.0645 -0.5341
  441MOL0     C59412   0.442  -0.749   8.144  0.0767  0.0981 -0.7303
  441MOL0     C59413   0.488  -0.815   8.012  0.1363  0.2600  0.3820
  441MOL0     C59414   0.555  -0.944   8.053 -0.8705  0.4943 -1.0009
  441MOL0     C59415   0.608  -1.023   7.931  0.4591 -1.2013  0.2433
  441MOL0     C59416   0.751  -1.068   7.951  1.0199  0.0654  0.0902
  441MOL0     N59417   0.802  -1.158   7.846  0.5299  0.4348  0.3607
  441MOL0     C59418   0.790  -1.297   7.852  0.4256 -0.4967 -0.3525
  441MOL0     C59419   0.864  -1.334   7.744 -0.6223  0.2036 -0.2585
  441MOL0     C59420   0.898  -1.478   7.729 -0.6229 -0.2048 -0.3688
  441MOL0     C59421   1.039  -1.515   7.782 -0.4179 -0.0452  0.8266
  441MOL0     C59422   1.107  -1.651   7.731  0.1128 -0.2367 -0.1203
  441MOL0     C59423   1.251  -1.672   7.791 -0.2660 -0.3155  0.7080
  441MOL0     O59424   1.254  -1.748   7.912 -0.0018  0.7676  0.0650
  441MOL0     C59425   1.376  -1.756   7.969  0.1720  0.8954  0.5839
  441MOL0     C59426   1.458  -1.860   7.940 -1.4323 -0.4152 -0.0612
  441MOL0     C59427   1.589  -1.858   7.993 -1.1070  0.1078 -0.9449
  441MOL0     C59428   1.638  -1.758   8.085  0.8736  0.1576  0.8257
  441MOL0     C59429   1.753  -1.757   8.168  0.1822 -0.4390  0.0747
  441MOL0     O59430   1.844  -1.845   8.135  0.9177 -0.4495 -0.2840
  441MOL0     C59431   1.957  -1.855   8.206  0.4019  0.1747  0.1844
  441MOL0     C59432   2.080  -1.793   8.176 -0.0044  0.6260  0.2760
  441MOL0     C59433   2.197  -1.807   8.256  0.7312 -0.0386 -0.3063
  441MOL0     C59434   2.190  -1.883   8.368 -0.2519  0.4265 -0.7574
  441MOL0     O59435   2.292  -1.911   8.446 -0.4200 -0.1428 -0.8234
  441MOL0     C59436   2.355  -1.798   8.506 -0.3053 -0.4992 -0.8693
  441MOL0     C59437   2.450  -1.845   8.619 -0.0859  0.3400  0.1719
  441MOL0     C59438   2.380  -1.929   8.723 -0.4635 -0.9726  0.4990
  441MOL0     C59439   2.318  -1.833   8.837  0.0765  0.2987  0.1738
  441MOL0     C59440   2.166  -1.850   8.854 -0.3012 -0.1669  0.5023
  441MOL0     C59441   2.104  -1.758   8.963  0.4585 -0.4889 -0.0901
  441MOL0     C59442   2.149  -1.808   9.096 -0.7891  0.8028 -0.0177
  441MOL0     C59443   2.072  -1.743   9.206  0.1824 -0.0596 -0.7256
  441MOL0    Cl59444   1.921  -1.827   9.210 -0.1122  0.2964 -0.4267
  441MOL0     C59445   2.065  -1.941   8.407  0.8026  0.6008  0.2624
  441MOL0     C59446   1.942  -1.925   8.328  0.1084 -0.5106 -1.0089
  441MOL0     O59447   1.752  -1.688   8.274 -0.8752  0.0743 -0.0927
  441MOL0     C59448   1.547  -1.656   8.110 -0.3394  0.3530 -0.4323
  441MOL0     C59449   1.419  -1.654   8.053 -0.2138 -0.2553 -0.4727
  441MOL0     N59450   0.903  -1.221   7.669  0.8145  0.5289  0.5421
  441MOL0     N59451   0.867  -1.118   7.734  0.6672  0.0724  0.8211
  441MOL0     C59452   0.621  -0.436   8.504  0.4900 -0.3763 -0.2540
  441MOL0     C59453   0.678  -0.331   8.576  0.2014 -0.0359  0.4924
  441MOL0     C59454   0.757   0.109   8.719  0.7246 -0.8160  0.5176
  441MOL0     C59455   0.690   0.232   8.749 -0.5417  0.1542  0.1779
  441MOL0     C59456   0.766   0.341   8.798  0.4683  0.4929 -0.9571
  441MOL0     C59457   0.905   0.329   8.830  0.1087  1.0401  0.4620
  441MOL0     O59458   0.984   0.431   8.883  0.2143  0.0460  0.2269
  441MOL0     C59459   0.917   0.545   8.950 -0.5116 -0.2356 -0.2913
  441MOL0     C59460   1.022   0.622   9.026  0.3841 -0.4144  0.2245
  441MOL0     C59461   1.162   0.652   8.946 -0.4156  0.3348  0.2135
  441MOL0     C59462   1.145   0.691   8.796 -0.5011  0.3462  0.3889
  441MOL0     C59463   1.271   0.687   8.721  0.5057  0.3367 -0.2778
  441MOL0     C59464   1.376   0.675   8.658  1.0984  0.3712 -0.5854
  441MOL0     C59465   0.966   0.208   8.794 -0.4646 -0.6709 -0.0426
  441MOL0     C59466   0.895   0.101   8.747 -0.3113  0.2246 -0.0320
  441MOL0     C59467   0.960  -0.035   8.742  0.0470 -0.5493  0.4234
  441MOL0     H59468   0.556  -0.068   8.402  1.0773 -1.4722 -5.5529
  441MOL0     H59469   0.466  -0.232   8.276 -2.5699  2.0392  1.2509
  441MOL0     H59470   0.406  -0.655   8.421  0.8661  0.3274 -0.2597
  441MOL0     H59471   0.328  -0.503   8.441 -0.5397  0.3637 -1.7861
  441MOL0     H59472   0.235  -0.506   8.236  3.0190  1.8956  0.9166
  441MOL0     H59473   0.185  -0.660   8.313 -1.5101  3.0549  0.0441
  441MOL0     H59474   0.352  -0.565   8.068 -1.7886  1.3586  0.3276
  441MOL0     H59475   0.246  -0.707   8.077  1.1961 -1.4381 -0.2829
  441MOL0     H59476   0.530  -0.697   8.181  0.5669 -1.9650  1.1987
  441MOL0     H59477   0.419  -0.813   8.230  0.9987  2.4986  1.4096
  441MOL0     H59478   0.400  -0.825   7.948  1.1892  0.6445 -1.1937
  441MOL0     H59479   0.561  -0.757   7.955  0.2777 -1.2040 -1.0212
  441MOL0     H59480   0.633  -0.927   8.127 -1.2092  0.9243 -0.7335
  441MOL0     H59481   0.481  -1.003   8.107 -0.6073 -1.5000 -2.6770
  441MOL0     H59482   0.595  -0.966   7.839  0.1018 -2.9649 -0.8589
  441MOL0     H59483   0.556  -1.118   7.921 -0.1302 -1.3657  3.5980
  441MOL0     H59484   0.805  -0.974   7.935  0.7007  0.2660  0.1955
  441MOL0     H59485   0.759  -1.116   8.049 -1.3473 -1.0184 -0.1887
  441MOL0     H59486   0.751  -1.367   7.924  2.0152 -3.7086 -2.4029
  441MOL0     H59487   0.822  -1.538   7.780  0.3015 -0.3720  0.8502
  441MOL0     H59488   0.895  -1.493   7.621  0.5863  0.9568 -0.5893
  441MOL0     H59489   1.098  -1.425   7.762 -3.1260  1.7492  0.2399
  441MOL0     H59490   1.027  -1.530   7.890  1.6761 -2.2404  0.8461
  441MOL0     H59491   1.110  -1.663   7.622 -2.2663 -3.6060  0.0066
  441MOL0     H59492   1.031  -1.724   7.762 -3.3764  2.7172 -0.9882
  441MOL0     H59493   1.292  -1.570   7.789 -0.5273  0.0035 -5.2508
  441MOL0     H59494   1.302  -1.724   7.710 -2.7525  0.1129 -1.2789
  441MOL0     H59495   1.440  -1.939   7.868  0.6619 -1.9937  1.0613
  441MOL0     H59496   1.646  -1.948   7.973 -1.5098 -1.1983  2.9047
  441MOL0     H59497   2.090  -1.731   8.087  0.7757  2.1087  1.3582
  441MOL0     H59498   2.290  -1.767   8.219 -0.7567  2.2591 -1.8141
  441MOL0     H59499   2.412  -1.744   8.430  0.9098 -1.0055 -0.3524
  441MOL0     H59500   2.281  -1.724   8.537 -1.5115 -2.3570  0.9179
  441MOL0     H59501   2.525  -1.907   8.568  0.6686  1.0298  0.4193
  441MOL0     H59502   2.499  -1.758   8.663 -0.4166  1.9009 -2.3602
  441MOL0     H59503   2.297  -1.990   8.687 -2.2765  1.5359  0.1898
  441MOL0     H59504   2.464  -1.980   8.772  1.0418  4.0639  4.0123
  441MOL0     H59505   2.339  -1.729   8.812  0.4662  0.5970  1.6243
  441MOL0     H59506   2.368  -1.847   8.934 -0.6912 -2.7562  0.2251
  441MOL0     H59507   2.150  -1.955   8.880 -0.2268 -0.6928 -1.4281
  441MOL0     H59508   2.122  -1.847   8.754  0.8732 -1.4830 -0.0875
  441MOL0     H59509   2.129  -1.655   8.936 -0.7650 -0.5955 -1.7952
  441MOL0     H59510   1.996  -1.769   8.957  0.3995 -0.1346  0.3144
  441MOL0     H59511   2.257  -1.788   9.097 -0.8214  1.9099 -3.6717
  441MOL0     H59512   2.139  -1.916   9.114  1.2464  0.7125  0.8405
  441MOL0     H59513   2.115  -1.757   9.306 -0.1143  1.1265 -0.4213
  441MOL0     H59514   2.058  -1.641   9.169  0.1675 -0.0909 -0.8060
  441MOL0     H59515   2.060  -2.003   8.496  0.0057  0.3890  0.0869
  441MOL0     H59516   1.852  -1.975   8.362 -0.0272 -0.0689 -0.7157
  441MOL0     H59517   1.559  -1.572   8.178  0.5682  0.8734 -1.2074
  441MOL0     H59518   1.361  -1.565   8.074 -0.2039  0.0060 -1.5185
  441MOL0     H59519   0.641  -0.537   8.538  2.9030  0.1985  0.2232
  441MOL0     H59520   0.739  -0.351   8.664  0.8275 -3.8750 -0.6146
  441MOL0     H59521   0.583   0.248   8.735 -0.9451 -0.8221  1.8054
  441MOL0     H59522   0.711   0.433   8.811 -0.0909  0.0903 -0.4420
  441MOL0     H59523   0.841   0.510   9.020 -0.0387  0.2406  0.4826
  441MOL0     H59524   0.864   0.613   8.883 -0.2434  0.2618 -0.0058
  441MOL0     H59525   1.033   0.566   9.119 -0.0931  1.0327  1.1851
  441MOL0     H59526   0.974   0.719   9.043  0.9207 -0.2186  0.6332
  441MOL0     H59527   1.218   0.559   8.957 -2.7581 -1.0236  1.3279
  441MOL0     H59528   1.206   0.735   9.002  0.3775 -0.3710  0.6500
  441MOL0     H59529   1.075   0.620   8.751  1.3725 -0.3789 -1.5633
  441MOL0     H59530   1.096   0.788   8.790  0.4892  0.7583 -2.7589
  441MOL0     H59531   1.472   0.660   8.613  2.2226  2.1265  1.0765
  441MOL0     H59532   1.073   0.201   8.813 -0.4653 -1.3133 -0.2440
  441MOL0     H59533   1.008  -0.053   8.645 -2.8675 -0.7971 -1.0885
  441MOL0     H59534   1.029  -0.032   8.827  0.7359  0.2770 -0.1376
  441MOL0     H59535   0.887  -0.114   8.757 -1.5536  0.3372 -2.1564
  442MOL0     O59536   0.031   4.484   2.064 -0.8866 -0.1282  0.0109
  442MOL0     C59537  -0.041   4.442   2.155  0.1536  0.5717 -0.5466
  442MOL0     O59538  -0.043   4.493   2.287  1.0179 -0.5661 -0.0801
  442MOL0     C59539   0.014   4.615   2.314 -0.3938 -0.8110  0.0605
  442MOL0     C59540   0.015   4.730   2.225 -0.3597  0.0107  0.2588
  442MOL0     C59541   0.055   4.852   2.279  0.9011 -0.6960  1.3737
  442MOL0     C59542   0.107   4.857   2.408  0.4691  0.6682  0.0317
  442MOL0     O59543   0.149   4.973   2.465  1.0369 -0.2853 -0.0014
  442MOL0     C59544   0.112   5.102   2.417 -0.0235 -0.1532 -0.8180
  442MOL0     C59545   0.202   5.195   2.503 -0.0703 -0.8786 -0.1881
  442MOL0     C59546   0.174   5.335   2.467 -0.0757  0.3202  0.3656
  442MOL0     C59547   0.075   5.416   2.549 -0.2145  0.2913  0.3253
  442MOL0     C59548   0.056   5.564   2.513 -0.3765  0.2389 -0.2352
  442MOL0     C59549  -0.017   5.574   2.379 -0.7842 -0.9778 -0.2259
  442MOL0     C59550  -0.041   5.716   2.346 -0.2054  0.9927  0.2766
  442MOL0     C59551  -0.117   5.729   2.215  0.7505  0.4589 -0.3547
  442MOL0     N59552  -0.186   5.858   2.211 -0.4457  0.7878  0.2224
  442MOL0     C59553  -0.125   5.975   2.163 -0.2535 -0.0129 -0.8530
  442MOL0     C59554  -0.230   6.073   2.188 -0.3128  0.2036  0.0518
  442MOL0     C59555  -0.217   6.219   2.136  0.5664  0.4571  1.0387
  442MOL0     C59556  -0.297   6.233   2.004 -0.3529 -0.4222 -0.0295
  442MOL0     C59557  -0.334   6.378   1.972  0.8135  0.1197  0.2803
  442MOL0     C59558  -0.353   6.404   1.827  0.2707  0.0757  0.1447
  442MOL0     O59559  -0.229   6.408   1.755  0.4778 -0.1296  0.1902
  442MOL0     C59560  -0.216   6.535   1.692 -0.4027  0.3075 -0.8247
  442MOL0     C59561  -0.269   6.568   1.573 -0.1965 -0.0166 -0.7647
  442MOL0     C59562  -0.247   6.699   1.514  0.5933  1.0779 -0.9314
  442MOL0     C59563  -0.186   6.794   1.589 -0.1842 -0.8003  0.3232
  442MOL0     C59564  -0.204   6.937   1.541  0.0715 -0.2320  0.0077
  442MOL0     O59565  -0.328   6.972   1.493 -0.0596  0.0280  0.0207
  442MOL0     C59566  -0.354   7.097   1.444  0.3430  0.1196 -0.1612
  442MOL0     C59567  -0.472   7.158   1.493 -0.0392  0.2614  0.2960
  442MOL0     C59568  -0.503   7.291   1.452  0.7810  0.5781 -0.5061
  442MOL0     C59569  -0.419   7.361   1.369 -0.3954  0.5256  0.3272
  442MOL0     O59570  -0.454   7.490   1.333 -0.0581  0.2017  1.2298
  442MOL0     C59571  -0.355   7.583   1.274  0.7166 -0.1542  0.0670
  442MOL0     C59572  -0.294   7.664   1.392 -0.5132 -0.3340  0.0835
  442MOL0     C59573  -0.189   7.771   1.348 -0.8702  0.2892 -0.1019
  442MOL0     C59574  -0.152   7.875   1.459  0.0390  0.3285  0.0304
  442MOL0     C59575  -0.028   7.958   1.423  0.0689 -0.0070  0.5826
  442MOL0     C59576  -0.009   8.059   1.539  0.0600 -0.9405 -0.3827
  442MOL0     C59577   0.135   8.114   1.536  0.4801  0.2273  0.4265
  442MOL0     C59578   0.148   8.189   1.664  0.6820 -0.6236 -0.8283
  442MOL0    Cl59579   0.303   8.265   1.666  0.1757 -0.2723  0.6862
  442MOL0     C59580  -0.294   7.299   1.341  0.1058  0.4191  0.3276
  442MOL0     C59581  -0.260   7.164   1.374 -0.4244  0.5042  0.0159
  442MOL0     O59582  -0.103   7.008   1.551 -0.0105 -0.8370  0.7830
  442MOL0     C59583  -0.140   6.769   1.712 -0.7445  0.3971  0.1106
  442MOL0     C59584  -0.145   6.638   1.766 -0.0928  0.7382  1.0644
  442MOL0     N59585  -0.333   6.008   2.252  0.1448 -0.9918 -0.4008
  442MOL0     N59586  -0.313   5.877   2.257  0.4376 -0.2785  0.5840
  442MOL0     C59587   0.124   4.746   2.491 -0.6557  0.7038 -0.2002
  442MOL0     C59588   0.073   4.628   2.445  0.1457 -0.4122  0.1677
  442MOL0     C59589  -0.111   4.318   2.128 -0.1279 -0.3125 -0.5295
  442MOL0     C59590  -0.088   4.243   2.006  0.1412  1.4239  0.2740
  442MOL0     C59591  -0.161   4.118   1.984  0.4959 -0.4062 -0.0450
  442MOL0     C59592  -0.237   4.055   2.078  0.3158  0.3963 -0.2344
  442MOL0     O59593  -0.293   3.936   2.046 -0.4360  0.2000  0.6473
  442MOL0     C59594  -0.366   3.867   2.157 -0.5167  0.0425  0.1031
  442MOL0     C59595  -0.400   3.735   2.091 -0.4099 -0.3633  0.2279
  442MOL0     C59596  -0.289   3.636   2.130  0.7631 -0.3492 -0.0814
  442MOL0     C59597  -0.280   3.593   2.279 -0.8082  0.1563 -0.4339
  442MOL0     C59598  -0.405   3.534   2.336  0.5869 -0.5445  0.1501
  442MOL0     C59599  -0.513   3.515   2.391 -0.1649 -0.3233 -0.4171
  442MOL0     C59600  -0.255   4.128   2.193  1.0451 -0.7350  0.0677
  442MOL0     C59601  -0.204   4.258   2.218  0.5491 -0.8201 -0.2680
  442MOL0     C59602  -0.257   4.326   2.341 -0.4342 -0.9365  0.9401
  442MOL0     H59603  -0.031   4.717   2.127 -0.7238 -3.0321  0.7230
  442MOL0     H59604   0.059   4.933   2.208 -0.0784  1.1200  3.2824
  442MOL0     H59605   0.107   5.106   2.308 -1.1538 -1.5277 -0.8400
  442MOL0     H59606   0.011   5.121   2.456 -0.5288 -0.5876 -1.8710
  442MOL0     H59607   0.304   5.162   2.485  0.4163 -0.4972  1.6417
  442MOL0     H59608   0.178   5.176   2.608  1.4208  2.2697  0.8622
  442MOL0     H59609   0.126   5.343   2.369  3.1704  0.7939 -1.3543
  442MOL0     H59610   0.263   5.398   2.460 -1.3367  2.1590  0.2400
  442MOL0     H59611  -0.016   5.355   2.546  1.7651 -2.9207  0.2391
  442MOL0     H59612   0.110   5.410   2.653  0.0169 -1.8835  0.1678
  442MOL0     H59613  -0.002   5.615   2.591 -2.3440 -1.2840 -0.6189
  442MOL0     H59614   0.155   5.611   2.509 -1.2822  2.1980 -3.5968
  442MOL0     H59615   0.042   5.528   2.299 -0.3511  0.0365 -0.5026
  442MOL0     H59616  -0.114   5.524   2.383 -0.6557 -1.1590  1.5538
  442MOL0     H59617   0.041   5.786   2.330 -1.4620  1.7001 -5.0398
  442MOL0     H59618  -0.098   5.763   2.426  0.0160  1.0410  0.4069
  442MOL0     H59619  -0.053   5.718   2.126 -1.3535  0.9216 -1.9970
  442MOL0     H59620  -0.184   5.643   2.220 -0.0964  1.1616  0.7220
  442MOL0     H59621  -0.029   5.994   2.116 -0.1164  1.7840  0.0791
  442MOL0     H59622  -0.271   6.278   2.210 -2.3808 -0.2177 -0.4088
  442MOL0     H59623  -0.116   6.258   2.120  0.1110  1.2793 -0.0078
  442MOL0     H59624  -0.237   6.195   1.921 -0.3730 -0.1247 -0.1825
  442MOL0     H59625  -0.386   6.169   2.004  0.6247 -1.8430  0.4066
  442MOL0     H59626  -0.255   6.450   1.996  2.0176 -0.2589 -2.2188
  442MOL0     H59627  -0.422   6.404   2.031  0.2186 -0.7207 -0.2199
  442MOL0     H59628  -0.406   6.498   1.818 -0.0129  0.1943  2.5339
  442MOL0     H59629  -0.411   6.318   1.792  1.2465 -0.9033  0.8504
  442MOL0     H59630  -0.319   6.486   1.522 -0.3150 -0.0639 -0.5712
  442MOL0     H59631  -0.283   6.724   1.415  0.2656  0.8731 -0.8654
  442MOL0     H59632  -0.532   7.098   1.560  1.6153 -1.4197  0.3657
  442MOL0     H59633  -0.596   7.331   1.491 -1.2451 -3.6757 -0.3823
  442MOL0     H59634  -0.291   7.535   1.199 -0.0400 -1.0681 -0.0014
  442MOL0     H59635  -0.426   7.655   1.231  0.7243  1.3518  2.3821
  442MOL0     H59636  -0.374   7.719   1.442  0.4466  1.2244 -0.0221
  442MOL0     H59637  -0.244   7.584   1.448  4.3580 -1.1519 -4.5750
  442MOL0     H59638  -0.110   7.725   1.288  0.2734 -0.7821  2.0770
  442MOL0     H59639  -0.239   7.820   1.264  2.0602  2.8961 -0.5148
  442MOL0     H59640  -0.121   7.818   1.548  1.3832 -0.6020 -0.9842
  442MOL0     H59641  -0.234   7.944   1.479 -0.7063  0.4898 -3.1128
  442MOL0     H59642  -0.040   8.014   1.329 -0.6474  2.0972  1.8559
  442MOL0     H59643   0.059   7.892   1.416 -0.7438 -1.1121  0.6224
  442MOL0     H59644  -0.092   8.131   1.537 -0.2396 -1.2504  0.6472
  442MOL0     H59645  -0.032   8.003   1.629 -2.2887 -2.7300 -1.9612
  442MOL0     H59646   0.147   8.179   1.449  1.2892 -2.2947 -1.4750
  442MOL0     H59647   0.209   8.033   1.538 -0.7423 -0.8913  2.0552
  442MOL0     H59648   0.067   8.263   1.670 -1.5213 -3.0010  1.2017
  442MOL0     H59649   0.144   8.135   1.759  1.0628  1.2893  0.3282
  442MOL0     H59650  -0.226   7.356   1.280 -0.8817 -0.7161 -1.9828
  442MOL0     H59651  -0.163   7.123   1.349 -0.5352  0.3561 -0.1677
  442MOL0     H59652  -0.071   6.837   1.763  0.1018 -0.3699  0.0131
  442MOL0     H59653  -0.111   6.601   1.863  2.1633 -0.4007 -0.0796
  442MOL0     H59654   0.175   4.756   2.586  1.4154  1.8493 -1.3642
  442MOL0     H59655   0.070   4.537   2.503  0.8939 -0.1269  0.6634
  442MOL0     H59656  -0.036   4.290   1.924 -0.0963  2.8877  0.9210
  442MOL0     H59657  -0.163   4.063   1.891 -1.1475 -1.3392  0.4937
  442MOL0     H59658  -0.458   3.917   2.189 -0.8054 -0.9319  0.8467
  442MOL0     H59659  -0.302   3.846   2.244  1.6739 -2.0043 -1.8441
  442MOL0     H59660  -0.424   3.730   1.984 -1.3667  3.1189  0.1282
  442MOL0     H59661  -0.492   3.685   2.124 -0.5418 -3.1493 -3.7394
  442MOL0     H59662  -0.192   3.668   2.090  0.1228 -2.3450 -3.6798
  442MOL0     H59663  -0.306   3.541   2.077  0.4402 -1.1242  1.3464
  442MOL0     H59664  -0.215   3.506   2.290 -0.0610  0.6774 -0.6741
  442MOL0     H59665  -0.232   3.665   2.346  2.4443 -0.8678 -1.4695
  442MOL0     H59666  -0.593   3.484   2.455  1.2224  1.5217  2.4027
  442MOL0     H59667  -0.328   4.094   2.266  1.5471  0.5507  1.2142
  442MOL0     H59668  -0.195   4.307   2.429 -1.0183  1.1440  1.8537
  442MOL0     H59669  -0.259   4.433   2.316 -0.1873 -1.4057 -1.2849
  442MOL0     H59670  -0.360   4.294   2.359  0.1392 -2.7851  1.0827
  443MOL0     O59671  10.460   1.631   6.707  0.1648  0.0833 -0.0278
  443MOL0     C59672  10.452   1.532   6.786 -0.9689  0.1076  1.2091
  443MOL0     O59673  10.489   1.527   6.915 -0.0309  0.7553  0.1543
  443MOL0     C59674  10.553   1.629   6.985 -0.4357  0.5248 -0.1538
  443MOL0     C59675  10.536   1.633   7.125 -0.0419 -0.0132  0.7765
  443MOL0     C59676  10.606   1.730   7.202 -0.0462  0.0501  0.1174
  443MOL0     C59677  10.687   1.825   7.143 -0.7442 -0.2910 -0.0102
  443MOL0     O59678  10.735   1.921   7.223  0.4763 -0.1707 -0.0292
  443MOL0     C59679  10.846   1.998   7.186 -1.0611  0.5189  0.7378
  443MOL0     C59680  10.893   2.058   7.324  0.2928 -1.1938 -0.0193
  443MOL0     C59681  11.035   2.122   7.322 -0.3741 -0.1425  0.4408
  443MOL0     C59682  11.055   2.192   7.461 -0.3165 -0.3292  0.0467
  443MOL0     C59683  11.198   2.254   7.464 -1.0576 -0.2279  0.1501
  443MOL0     C59684  11.214   2.376   7.369  0.1208 -0.4308 -0.2657
  443MOL0     C59685  11.316   2.490   7.401  0.6210  0.2575 -0.6280
  443MOL0     C59686  11.326   2.581   7.278 -0.3668  0.3027  0.4119
  443MOL0     N59687  11.455   2.647   7.287 -0.1263 -0.5636  0.3196
  443MOL0     C59688  11.578   2.585   7.272  0.3356 -0.0905 -1.0090
  443MOL0     C59689  11.669   2.680   7.292  0.1069 -0.2551  0.4710
  443MOL0     C59690  11.828   2.669   7.287 -0.0568 -0.0670  0.6769
  443MOL0     C59691  11.900   2.763   7.378 -0.3186  0.0107  0.0330
  443MOL0     C59692  11.910   2.710   7.519 -0.3637 -0.3730 -0.4498
  443MOL0     C59693  11.988   2.810   7.609 -0.3791 -0.7542 -0.3473
  443MOL0     O59694  12.119   2.811   7.552 -0.0330  0.1862 -0.4748
  443MOL0     C59695  12.216   2.853   7.644 -0.4103  0.6108 -0.1373
  443MOL0     C59696  12.318   2.776   7.704 -0.9672  1.2656 -0.5020
  443MOL0     C59697  12.413   2.827   7.795  0.5341 -0.4851  0.0390
  443MOL0     C59698  12.402   2.961   7.832  0.0899  0.2311  0.2759
  443MOL0     C59699  12.484   3.022   7.936  0.0209 -0.4335 -0.1771
  443MOL0     O59700  12.432   3.126   8.005  0.4727 -1.0868  0.5299
  443MOL0     C59701  12.512   3.186   8.106 -0.9663 -0.0958 -0.4172
  443MOL0     C59702  12.520   3.133   8.235  0.0239  0.1121 -0.1266
  443MOL0     C59703  12.612   3.186   8.321 -0.8590  0.5417 -0.6917
  443MOL0     C59704  12.690   3.303   8.289 -0.4864 -0.6025  0.6547
  443MOL0     O59705  12.771   3.367   8.373 -0.5114 -0.8193 -0.1485
  443MOL0     C59706  12.793   3.316   8.509  0.6911  0.2997  0.0116
  443MOL0     C59707  12.885   3.427   8.567  0.1034  0.3617 -0.2081
  443MOL0     C59708  12.889   3.429   8.728 -0.2245 -0.2009 -0.8053
  443MOL0     C59709  12.993   3.542   8.773  0.1252 -0.0896 -0.6528
  443MOL0     C59710  12.957   3.585   8.916  0.6209  0.0606 -0.0049
  443MOL0     C59711  13.061   3.673   8.967 -0.5521 -0.2408  0.8988
  443MOL0     C59712  13.047   3.722   9.111  0.9711 -0.3110 -0.0789
  443MOL0     C59713  13.162   3.786   9.171  0.0207 -0.2562  0.0881
  443MOL0    Cl59714  13.147   3.789   9.355  0.1844 -0.1948 -0.1232
  443MOL0     C59715  12.673   3.358   8.166 -0.3095  0.1648 -0.5980
  443MOL0     C59716  12.586   3.297   8.078  0.2101  0.4281 -0.5317
  443MOL0     O59717  12.591   2.969   7.962 -0.0664  0.5231  0.2107
  443MOL0     C59718  12.297   3.031   7.779 -0.0653 -0.6074 -0.4939
  443MOL0     C59719  12.206   2.986   7.683  0.0848  0.3399 -1.4440
  443MOL0     N59720  11.610   2.806   7.309  0.5217 -0.4612  0.4936
  443MOL0     N59721  11.477   2.789   7.303  0.1020  0.2716 -0.5853
  443MOL0     C59722  10.708   1.814   7.002  0.1335  0.3852 -0.5050
  443MOL0     C59723  10.641   1.719   6.923  0.2735  0.5197 -0.9919
  443MOL0     C59724  10.377   1.414   6.740  0.7509 -0.0993 -0.0865
  443MOL0     C59725  10.353   1.312   6.836  0.1379 -0.1599 -0.3222
  443MOL0     C59726  10.275   1.201   6.801 -0.3096 -0.5112  0.2815
  443MOL0     C59727  10.210   1.187   6.673 -0.3475 -0.0289  0.0651
  443MOL0     O59728  10.146   1.075   6.628  0.8535 -0.2629 -1.3330
  443MOL0     C59729  10.114   0.968   6.726 -0.9057 -0.1342  0.6267
  443MOL0     C59730   9.969   0.960   6.769  0.4134  0.5632  0.9124
  443MOL0     C59731   9.936   1.078   6.854  0.4904  0.7158 -0.6076
  443MOL0     C59732   9.803   1.054   6.934  0.5969  0.9252 -0.0299
  443MOL0     C59733   9.784   1.169   7.013 -0.0361  0.2087  0.6269
  443MOL0     C59734   9.765   1.273   7.083 -0.2783 -1.3672  1.0742
  443MOL0     C59735  10.234   1.294   6.581 -0.3951 -0.0250 -0.4066
  443MOL0     C59736  10.322   1.401   6.608 -0.1597  0.6354  0.4238
  443MOL0     C59737  10.371   1.487   6.488  0.9318 -0.2266  0.4970
  443MOL0     H59738  10.464   1.562   7.164 -0.0645 -1.7810 -2.1981
  443MOL0     H59739  10.611   1.704   7.307 -1.6556 -0.9888 -0.0284
  443MOL0     H59740  10.921   1.935   7.136 -1.8503 -0.7831  1.1602
  443MOL0     H59741  10.833   2.083   7.117  2.4692 -2.1730 -3.8875
  443MOL0     H59742  10.887   1.982   7.402  1.4580 -2.0122 -0.6926
  443MOL0     H59743  10.828   2.143   7.346  0.9835 -0.5329 -0.4584
  443MOL0     H59744  11.052   2.187   7.236  3.3596 -0.2838  0.9158
  443MOL0     H59745  11.107   2.041   7.307  0.1835  0.7116 -1.8458
  443MOL0     H59746  10.973   2.262   7.483 -0.6165 -1.1170  1.5504
  443MOL0     H59747  11.050   2.115   7.538 -0.0733 -1.3265 -0.9064
  443MOL0     H59748  11.219   2.299   7.562  1.4764 -0.8069 -0.0618
  443MOL0     H59749  11.284   2.192   7.438  0.9339  1.2648  2.7479
  443MOL0     H59750  11.256   2.337   7.276 -0.2299 -0.5326 -0.3844
  443MOL0     H59751  11.112   2.413   7.357  0.7597  0.7692 -2.3957
  443MOL0     H59752  11.412   2.447   7.427 -1.6313 -3.0211  3.3638
  443MOL0     H59753  11.263   2.530   7.488 -0.4096 -1.8628 -0.2248
  443MOL0     H59754  11.311   2.527   7.184 -1.5891  0.8397  0.2762
  443MOL0     H59755  11.250   2.660   7.286  1.6415  2.7677 -2.5933
  443MOL0     H59756  11.594   2.481   7.246  0.6969  0.0034 -1.1641
  443MOL0     H59757  11.876   2.571   7.301  0.8206 -0.3974 -3.4401
  443MOL0     H59758  11.854   2.690   7.183 -0.4569  0.9306  0.7638
  443MOL0     H59759  12.000   2.777   7.334 -0.9315  1.6373 -0.9229
  443MOL0     H59760  11.844   2.856   7.364  0.5483  0.1273 -3.7672
  443MOL0     H59761  11.951   2.609   7.525 -0.8038 -0.5482 -0.3727
  443MOL0     H59762  11.805   2.714   7.548 -0.6695  0.7193 -1.5814
  443MOL0     H59763  11.995   2.796   7.717 -2.2109  4.3599  0.7074
  443MOL0     H59764  11.933   2.904   7.607  0.3248 -0.3327 -2.6615
  443MOL0     H59765  12.306   2.670   7.685 -1.8264  1.5355 -1.6118
  443MOL0     H59766  12.489   2.770   7.848  1.5045  1.3999  0.7789
  443MOL0     H59767  12.449   3.054   8.260 -0.9021 -0.6420 -4.3685
  443MOL0     H59768  12.620   3.153   8.424  4.4783  0.6693 -0.7782
  443MOL0     H59769  12.707   3.318   8.576 -0.3427  2.6880 -1.2711
  443MOL0     H59770  12.850   3.223   8.505  1.8751  1.0099 -0.1065
  443MOL0     H59771  12.991   3.415   8.541  1.1020  3.6289  1.6689
  443MOL0     H59772  12.857   3.526   8.529 -1.6406 -0.5463 -1.3991
  443MOL0     H59773  12.794   3.454   8.776  2.1799  1.3517  3.7773
  443MOL0     H59774  12.920   3.337   8.778 -1.0512 -0.5798 -0.9806
  443MOL0     H59775  12.991   3.628   8.706 -0.2406  0.0768 -0.4288
  443MOL0     H59776  13.095   3.504   8.784 -0.2909 -0.5100  2.5739
  443MOL0     H59777  12.943   3.499   8.981 -0.8628  0.2386 -0.0521
  443MOL0     H59778  12.860   3.635   8.915  1.4418  1.7286 -0.3790
  443MOL0     H59779  13.153   3.614   8.974  0.1195  0.3939 -1.7127
  443MOL0     H59780  13.085   3.754   8.897 -2.5839  1.8242  2.4164
  443MOL0     H59781  13.019   3.636   9.173 -2.5086  1.7892  1.5780
  443MOL0     H59782  12.957   3.783   9.123 -1.1730 -3.5010  1.3813
  443MOL0     H59783  13.250   3.730   9.136 -0.9358 -1.1505 -0.9372
  443MOL0     H59784  13.168   3.890   9.135 -2.0060  0.0507  0.5516
  443MOL0     H59785  12.728   3.445   8.132 -3.1660  1.1225 -3.1671
  443MOL0     H59786  12.576   3.336   7.977  2.1798 -2.5804 -2.0339
  443MOL0     H59787  12.270   3.128   7.821  2.8610  0.1526 -0.1386
  443MOL0     H59788  12.124   3.052   7.658 -0.0470  0.5406 -0.5186
  443MOL0     H59789  10.772   1.889   6.956  3.6868 -0.5497  2.4718
  443MOL0     H59790  10.660   1.726   6.817  2.2191  0.3719 -0.6928
  443MOL0     H59791  10.387   1.307   6.939 -2.8272 -2.0953  0.7083
  443MOL0     H59792  10.254   1.135   6.885 -0.2373 -2.6681 -1.3106
  443MOL0     H59793  10.185   0.953   6.807 -2.1486 -0.7355  1.6377
  443MOL0     H59794  10.133   0.875   6.672 -0.0577  1.1185 -1.3780
  443MOL0     H59795   9.946   0.866   6.820 -0.2481  1.4358  2.3015
  443MOL0     H59796   9.904   0.965   6.681  0.2043 -2.0538  0.8319
  443MOL0     H59797   9.922   1.163   6.787 -1.3593  2.0808  1.3967
  443MOL0     H59798  10.017   1.097   6.925  0.1458  1.4050 -0.3886
  443MOL0     H59799   9.730   1.052   6.853  1.1154 -0.1443 -0.4854
  443MOL0     H59800   9.793   0.966   6.999 -1.8652  1.5563  0.5607
  443MOL0     H59801   9.739   1.368   7.126  0.0905 -1.0598  0.6362
  443MOL0     H59802  10.196   1.280   6.480  0.9940  2.7337 -1.4195
  443MOL0     H59803  10.480   1.488   6.481  0.8945 -1.5548 -0.8996
  443MOL0     H59804  10.357   1.436   6.391  3.2828 -0.3614  0.1707
  443MOL0     H59805  10.323   1.585   6.490 -0.5235 -0.9232  0.6825
  444MOL0     O59806   3.102   8.180   9.811 -0.2132  0.9019  0.4251
  444MOL0     C59807   3.082   8.084   9.883  1.2041  0.3389 -1.0119
  444MOL0     O59808   3.139   7.963   9.880  0.3257 -0.0347 -0.1192
  444MOL0     C59809   3.200   7.913   9.765  0.0169  0.5033 -0.0180
  444MOL0     C59810   3.159   7.959   9.633  0.8716 -0.4730  0.1960
  444MOL0     C59811   3.231   7.911   9.523  0.1219 -0.2961  0.0854
  444MOL0     C59812   3.341   7.823   9.534  0.1177  0.3109 -0.1938
  444MOL0     O59813   3.409   7.781   9.425  0.6256  0.9453  0.1043
  444MOL0     C59814   3.454   7.883   9.327  0.5169  0.0665  0.7205
  444MOL0     C59815   3.550   7.985   9.384  0.3043  0.6471  1.0996
  444MOL0     C59816   3.603   8.083   9.270 -0.5712 -0.0684  0.5733
  444MOL0     C59817   3.681   8.009   9.160 -0.2720  0.3532  0.0226
  444MOL0     C59818   3.743   8.117   9.064  0.3626 -0.1077 -0.1970
  444MOL0     C59819   3.872   8.077   9.002  0.1357  0.1481  0.1001
  444MOL0     C59820   3.917   8.179   8.884 -0.1612  0.6447 -0.0428
  444MOL0     C59821   3.903   8.106   8.753  0.2584  0.1690  0.6179
  444MOL0     N59822   3.916   8.200   8.641  0.4724  0.0181 -0.3353
  444MOL0     C59823   3.821   8.294   8.605 -0.0829 -0.1644  0.9169
  444MOL0     C59824   3.879   8.353   8.490  0.3882  0.2314 -0.9709
  444MOL0     C59825   3.822   8.472   8.406 -0.4386  0.0592 -0.6331
  444MOL0     C59826   3.927   8.526   8.308  0.3090 -0.2378  0.1955
  444MOL0     C59827   3.859   8.626   8.213  0.8083 -0.2499 -0.9904
  444MOL0     C59828   3.975   8.704   8.131 -0.0050  0.6805  0.4918
  444MOL0     O59829   4.043   8.778   8.223 -0.0195 -0.1803 -0.5648
  444MOL0     C59830   4.026   8.915   8.215 -0.0718  1.2815 -0.3007
  444MOL0     C59831   4.125   8.998   8.172 -0.7703 -0.6136  0.6140
  444MOL0     C59832   4.105   9.133   8.140 -0.1135  0.4375 -0.2869
  444MOL0     C59833   3.986   9.192   8.193  0.1380  0.1715  0.0086
  444MOL0     C59834   3.963   9.340   8.174  0.1188  0.4172 -0.1018
  444MOL0     O59835   4.056   9.408   8.098 -0.4556 -0.2191  0.2555
  444MOL0     C59836   4.024   9.540   8.075 -0.4832  0.3468  0.0729
  444MOL0     C59837   4.043   9.642   8.169 -0.4388  0.1793  0.1109
  444MOL0     C59838   4.015   9.776   8.137 -0.1599  0.0746  0.6504
  444MOL0     C59839   3.981   9.808   8.005  0.2544 -1.3931  0.6953
  444MOL0     O59840   3.976   9.938   7.981  0.5729 -0.5398  0.5477
  444MOL0     C59841   4.038  10.000   7.867 -0.0488  0.7607  0.1778
  444MOL0     C59842   4.112  10.130   7.912 -1.1717 -0.0180  0.1624
  444MOL0     C59843   4.262  10.110   7.945 -0.5729 -0.6978  0.6587
  444MOL0     C59844   4.295  10.033   8.070 -0.4134  0.6637  0.8502
  444MOL0     C59845   4.422   9.951   8.069  0.2793 -0.4209  0.1243
  444MOL0     C59846   4.418   9.841   7.964 -0.6100  0.1919  0.4124
  444MOL0     C59847   4.528   9.733   7.991 -0.0147 -0.7267  0.4445
  444MOL0     C59848   4.670   9.793   7.962  1.0758  0.3080  0.6788
  444MOL0    Cl59849   4.783   9.722   8.089  0.1496 -0.2793  0.0777
  444MOL0     C59850   3.960   9.715   7.913  0.0876  0.7285 -0.4367
  444MOL0     C59851   3.986   9.582   7.951  0.3500 -0.3769  0.3749
  444MOL0     O59852   3.870   9.398   8.238  0.4791 -0.3665  0.1839
  444MOL0     C59853   3.894   9.109   8.256 -0.1938 -0.4651  0.6336
  444MOL0     C59854   3.908   8.973   8.254 -0.2803  0.4185 -0.7067
  444MOL0     N59855   4.000   8.287   8.467  0.2731 -0.0677 -0.4983
  444MOL0     N59856   4.023   8.210   8.565  0.1335 -0.4494  0.4066
  444MOL0     C59857   3.374   7.781   9.660  1.0392 -0.2042 -0.0301
  444MOL0     C59858   3.307   7.826   9.771  0.9404  0.2718  0.4965
  444MOL0     C59859   2.965   8.098   9.979 -0.2834  0.0581 -0.1466
  444MOL0     C59860   2.976   8.184  10.086 -1.1537 -0.5263 -0.0100
  444MOL0     C59861   2.874   8.208  10.174 -0.6302 -0.9062 -0.2004
  444MOL0     C59862   2.745   8.147  10.147 -0.5332  0.4817  0.0034
  444MOL0     O59863   2.643   8.158  10.238 -0.6189 -0.5318  0.1653
  444MOL0     C59864   2.606   8.299  10.262  0.6574 -0.8869 -0.8368
  444MOL0     C59865   2.680   8.363  10.388  0.0437 -1.1872 -0.6820
  444MOL0     C59866   2.577   8.388  10.503 -0.3964 -0.3267  1.3343
  444MOL0     C59867   2.633   8.467  10.618 -0.6020  0.3573 -0.7532
  444MOL0     C59868   2.725   8.370  10.688  0.2427 -0.7060  0.1826
  444MOL0     C59869   2.793   8.286  10.745 -0.6356  1.0454  0.2313
  444MOL0     C59870   2.729   8.062  10.035 -0.8209  0.3661  0.1515
  444MOL0     C59871   2.839   8.036   9.956  0.0505  0.1340  0.2712
  444MOL0     C59872   2.822   7.945   9.844 -0.2859 -0.3481 -0.3894
  444MOL0     H59873   3.080   8.029   9.612 -3.1464 -4.4792  0.4178
  444MOL0     H59874   3.208   7.957   9.428 -0.7630  0.0159  0.4363
  444MOL0     H59875   3.489   7.824   9.242  1.5736  4.0910 -1.8979
  444MOL0     H59876   3.364   7.929   9.284 -1.1462 -1.8026  2.0261
  444MOL0     H59877   3.639   7.942   9.432  1.3572  0.0783 -1.2116
  444MOL0     H59878   3.499   8.039   9.464 -0.1812  0.6047  0.8238
  444MOL0     H59879   3.660   8.160   9.323  2.1044 -0.3330 -1.7108
  444MOL0     H59880   3.514   8.124   9.220 -1.0643 -0.9923  0.6782
  444MOL0     H59881   3.755   7.943   9.205 -0.9721  2.3046  4.5825
  444MOL0     H59882   3.620   7.945   9.095  0.5710 -0.7393  0.2736
  444MOL0     H59883   3.672   8.137   8.983 -1.5617  2.7662  2.0237
  444MOL0     H59884   3.760   8.209   9.120  0.9434  0.0800 -0.6644
  444MOL0     H59885   3.956   8.077   9.072  0.2729 -1.4553 -0.0363
  444MOL0     H59886   3.866   7.974   8.966  2.7242  0.1077 -0.4141
  444MOL0     H59887   4.016   8.225   8.878 -0.2170  0.7184 -0.4482
  444MOL0     H59888   3.849   8.264   8.885 -0.5578  0.4016 -1.8934
  444MOL0     H59889   3.977   8.027   8.733 -1.9377 -1.2595 -2.8847
  444MOL0     H59890   3.806   8.056   8.748  0.7032 -0.6048 -1.7521
  444MOL0     H59891   3.725   8.314   8.650 -0.6860  0.3214 -0.5182
  444MOL0     H59892   3.736   8.440   8.346 -1.0291  0.4218  0.0098
  444MOL0     H59893   3.795   8.548   8.480  0.2840 -1.0526  0.8310
  444MOL0     H59894   4.006   8.579   8.363  3.0138  0.7606 -4.1247
  444MOL0     H59895   3.961   8.444   8.244 -2.4745 -1.0151 -0.3945
  444MOL0     H59896   3.791   8.702   8.252  2.1076  1.7019 -2.3375
  444MOL0     H59897   3.802   8.569   8.139 -3.0609  0.4683  1.1736
  444MOL0     H59898   3.926   8.771   8.059 -2.3431 -2.0008 -0.6029
  444MOL0     H59899   4.040   8.640   8.071 -1.5303  0.8595 -1.4449
  444MOL0     H59900   4.203   8.941   8.121 -2.2396  0.1205 -2.7826
  444MOL0     H59901   4.180   9.192   8.089 -0.3474  0.2970 -0.7951
  444MOL0     H59902   4.087   9.604   8.261 -0.0676  0.1154 -0.0950
  444MOL0     H59903   4.051   9.858   8.199 -1.2921  0.7151  0.5005
  444MOL0     H59904   4.114   9.937   7.822  0.4792  0.9306  0.8083
  444MOL0     H59905   3.969  10.032   7.788  1.5545  1.1331 -1.1243
  444MOL0     H59906   4.111  10.208   7.836 -0.4552 -0.5681 -0.4303
  444MOL0     H59907   4.070  10.184   7.997 -0.7302  2.9512 -1.4028
  444MOL0     H59908   4.319  10.055   7.869  1.5918  4.8614 -2.2937
  444MOL0     H59909   4.308  10.208   7.956 -0.9511 -0.7898  4.3310
  444MOL0     H59910   4.214   9.959   8.077  2.3414 -2.6219  0.8818
  444MOL0     H59911   4.296  10.100   8.156  1.2286 -0.1761  1.5299
  444MOL0     H59912   4.445   9.906   8.166 -0.4565 -0.1626  0.4296
  444MOL0     H59913   4.496  10.029   8.049  0.6306 -0.9511 -0.6754
  444MOL0     H59914   4.321   9.792   7.965 -1.2552  1.4004 -0.5444
  444MOL0     H59915   4.427   9.881   7.863  0.3319 -0.6278  0.1551
  444MOL0     H59916   4.514   9.652   7.919 -0.1155  2.1835 -3.1418
  444MOL0     H59917   4.515   9.704   8.095 -0.4301  2.9359  1.5738
  444MOL0     H59918   4.706   9.744   7.872  2.4441  0.6415  1.0228
  444MOL0     H59919   4.676   9.901   7.946  1.0194  0.0706 -1.1236
  444MOL0     H59920   3.925   9.739   7.813  0.9913  0.1528 -0.9082
  444MOL0     H59921   3.970   9.506   7.874  2.0943  0.7638 -1.1917
  444MOL0     H59922   3.796   9.147   8.285 -1.1115  0.7553 -3.3786
  444MOL0     H59923   3.840   8.897   8.291 -1.2156  0.9652 -1.2533
  444MOL0     H59924   3.453   7.708   9.673 -0.1077 -1.4870 -0.0660
  444MOL0     H59925   3.339   7.789   9.868 -2.1509 -1.5971  0.9435
  444MOL0     H59926   3.075   8.223  10.109 -1.1938  0.0042 -0.7072
  444MOL0     H59927   2.896   8.256  10.268  2.7036 -3.1526  0.3354
  444MOL0     H59928   2.497   8.298  10.269  0.5435  0.3675 -2.1452
  444MOL0     H59929   2.637   8.363  10.179  2.8442 -2.1318 -1.0610
  444MOL0     H59930   2.730   8.460  10.373 -0.6787 -0.7123 -0.1154
  444MOL0     H59931   2.752   8.286  10.415 -0.7021 -1.9271 -0.7727
  444MOL0     H59932   2.531   8.291  10.524 -0.3677 -0.4038  1.0430
  444MOL0     H59933   2.500   8.454  10.461  0.5487  0.6984  1.1594
  444MOL0     H59934   2.694   8.555  10.597  2.1218 -0.6618  2.0654
  444MOL0     H59935   2.557   8.517  10.680  1.6110  1.9732  0.8223
  444MOL0     H59936   2.845   8.199  10.779 -1.0243 -0.1625 -2.0762
  444MOL0     H59937   2.632   8.014  10.030 -1.2977  1.0780  1.8102
  444MOL0     H59938   2.720   7.908   9.835  0.3259 -1.6123 -4.1063
  444MOL0     H59939   2.853   7.991   9.750  1.5950 -0.9093 -0.0959
  444MOL0     H59940   2.878   7.851   9.856 -0.7365 -1.2601 -4.0795
  445MOL0     O59941  10.619   4.180   4.600  0.5736 -0.0780 -0.0541
  445MOL0     C59942  10.684   4.174   4.495  0.5867 -0.2516 -0.2670
  445MOL0     O59943  10.770   4.265   4.451  0.3986 -0.9287  0.3487
  445MOL0     C59944  10.765   4.391   4.502  0.7715 -0.1797  0.9285
  445MOL0     C59945  10.862   4.420   4.593  0.0384  0.6467  0.2026
  445MOL0     C59946  10.882   4.545   4.653  0.0671  0.3395  0.0728
  445MOL0     C59947  10.786   4.644   4.620  0.2210  0.1598 -0.8834
  445MOL0     O59948  10.794   4.765   4.678  0.1033  0.2463 -0.7103
  445MOL0     C59949  10.793   4.758   4.819 -0.2159  0.9569  0.2231
  445MOL0     C59950  10.661   4.820   4.867 -0.6231  0.1632  0.9888
  445MOL0     C59951  10.680   4.968   4.883 -0.2068  0.1804  0.3751
  445MOL0     C59952  10.550   5.039   4.931  1.0620 -0.5086 -0.2489
  445MOL0     C59953  10.555   5.189   4.950 -0.7952  0.5286 -0.0766
  445MOL0     C59954  10.439   5.237   5.030  0.6432 -0.6269 -0.3200
  445MOL0     C59955  10.417   5.393   5.027  0.9481 -0.1199  0.2612
  445MOL0     C59956  10.348   5.462   5.146 -0.3812  0.0161  0.6904
  445MOL0     N59957  10.201   5.429   5.165  0.2766  0.0215  0.5914
  445MOL0     C59958  10.157   5.315   5.235  0.5748 -0.5068 -0.2309
  445MOL0     C59959  10.026   5.340   5.257 -0.4666  0.0081  1.0357
  445MOL0     C59960   9.928   5.241   5.320 -0.1439  1.2670 -1.3563
  445MOL0     C59961   9.814   5.207   5.227  0.6230  0.0720 -0.6614
  445MOL0     C59962   9.684   5.190   5.303 -0.0080 -0.4335  0.0287
  445MOL0     C59963   9.580   5.153   5.200 -0.4659  0.5036 -0.0482
  445MOL0     O59964   9.559   5.015   5.205  0.0989 -0.2357 -0.9891
  445MOL0     C59965   9.488   4.965   5.307 -0.3246 -0.0997 -0.5373
  445MOL0     C59966   9.385   5.032   5.381 -0.3282  0.5669 -0.2331
  445MOL0     C59967   9.304   4.975   5.475 -0.3305 -0.4412 -0.9391
  445MOL0     C59968   9.333   4.839   5.506 -0.6087  0.4709  0.9341
  445MOL0     C59969   9.256   4.784   5.606 -0.8710 -0.4678 -0.3860
  445MOL0     O59970   9.132   4.825   5.615 -0.3513  0.0039  0.4351
  445MOL0     C59971   9.057   4.799   5.723  0.5939  0.0962  0.2627
  445MOL0     C59972   8.991   4.906   5.779  0.5289  0.6489 -0.3537
  445MOL0     C59973   8.909   4.890   5.891  0.2885 -0.3329  0.2166
  445MOL0     C59974   8.891   4.770   5.958 -0.1334 -0.0572  0.2742
  445MOL0     O59975   8.787   4.770   6.054 -0.2022  0.0534  0.4542
  445MOL0     C59976   8.775   4.658   6.144  0.3169  0.6924 -0.7703
  445MOL0     C59977   8.672   4.559   6.123  0.6182 -0.3842  0.5917
  445MOL0     C59978   8.653   4.476   6.245 -0.4339  0.1338  1.0692
  445MOL0     C59979   8.548   4.366   6.236  0.5356  0.2879  0.1201
  445MOL0     C59980   8.551   4.285   6.102  0.0157 -0.3518 -0.7484
  445MOL0     C59981   8.436   4.195   6.078  0.4513  0.7218  0.1152
  445MOL0     C59982   8.438   4.070   6.161  0.3230 -0.3194 -0.4421
  445MOL0     C59983   8.291   4.030   6.162 -0.4258 -0.3309 -0.0391
  445MOL0    Cl59984   8.268   3.883   6.252 -0.0707 -0.0766  0.4404
  445MOL0     C59985   8.971   4.659   5.900  0.5047 -0.3449  0.6901
  445MOL0     C59986   9.051   4.677   5.792  0.6165 -0.5327 -0.3192
  445MOL0     O59987   9.311   4.703   5.676  0.4730 -0.3780 -0.7228
  445MOL0     C59988   9.432   4.775   5.436 -0.1354 -0.7607 -1.0845
  445MOL0     C59989   9.512   4.840   5.346  0.2042 -0.5174  0.8543
  445MOL0     N59990   9.985   5.456   5.192 -0.4420  0.0654 -0.3957
  445MOL0     N59991  10.091   5.506   5.137  0.7645  0.2035 -0.4428
  445MOL0     C59992  10.697   4.617   4.507 -0.2952  0.1315 -0.3100
  445MOL0     C59993  10.683   4.495   4.455 -0.3118  0.5214  0.3373
  445MOL0     C59994  10.682   4.043   4.423 -0.2466 -0.0258  0.7874
  445MOL0     C59995  10.604   3.935   4.473 -0.2484  0.6284  0.4814
  445MOL0     C59996  10.595   3.811   4.408 -0.0813 -0.7731  0.2473
  445MOL0     C59997  10.675   3.795   4.292  0.8345  0.6998 -0.4507
  445MOL0     O59998  10.664   3.674   4.232  0.9565  0.3161 -0.3176
  445MOL0     C59999  10.770   3.625   4.137  0.3898  0.4507  0.2992
  445MOL0     C60000  10.750   3.469   4.106 -0.5571 -0.8927 -0.1707
  445MOL0     C60001  10.882   3.393   4.109  0.5823  0.3177 -0.9418
  445MOL0     C60002  10.862   3.248   4.118 -0.7080 -0.0636 -0.1191
  445MOL0     C60003  10.886   3.174   3.992 -0.2351  0.2404 -0.5045
  445MOL0     C60004  10.901   3.111   3.890 -0.6158 -0.4953 -0.4742
  445MOL0     C60005  10.751   3.899   4.234 -0.0169  0.7234 -0.5620
  445MOL0     C60006  10.747   4.027   4.297 -0.6979 -0.2100 -0.0921
  445MOL0     C60007  10.831   4.136   4.219  0.6744  0.7429  0.1327
  445MOL0     H60008  10.924   4.339   4.629  0.0664  0.4929 -0.1782
  445MOL0     H60009  10.967   4.569   4.717 -0.3320  0.8769  0.4047
  445MOL0     H60010  10.813   4.658   4.857 -2.4699  0.0692 -0.7063
  445MOL0     H60011  10.882   4.810   4.854  2.3251 -0.1734 -3.7997
  445MOL0     H60012  10.634   4.778   4.964 -2.2983 -1.6912 -0.2019
  445MOL0     H60013  10.580   4.800   4.796  0.1931 -0.3938  0.1999
  445MOL0     H60014  10.728   5.007   4.793  0.9928 -2.0806 -0.0574
  445MOL0     H60015  10.743   4.974   4.972  1.3065 -0.2353 -0.6196
  445MOL0     H60016  10.473   5.015   4.857  1.0353 -1.6748  0.1509
  445MOL0     H60017  10.513   4.987   5.020 -1.4731  1.4466 -0.0431
  445MOL0     H60018  10.640   5.200   5.018 -2.6707 -2.9183  3.1887
  445MOL0     H60019  10.576   5.249   4.860 -0.5533  0.4760 -0.0564
  445MOL0     H60020  10.341   5.194   5.008 -0.1312 -1.7698  4.2395
  445MOL0     H60021  10.445   5.212   5.136 -3.5111 -0.5599  0.1059
  445MOL0     H60022  10.352   5.425   4.945  0.6542  0.6285  0.7768
  445MOL0     H60023  10.507   5.455   5.023 -1.5234  4.3280  3.8112
  445MOL0     H60024  10.401   5.433   5.238  1.2224 -0.0211 -0.2210
  445MOL0     H60025  10.356   5.571   5.139 -1.4429  0.0260 -1.0048
  445MOL0     H60026  10.211   5.227   5.271  2.6849  0.3943 -0.9987
  445MOL0     H60027   9.992   5.161   5.359 -1.5570  0.1044 -1.3364
  445MOL0     H60028   9.890   5.279   5.415 -0.5558 -0.0106 -0.9868
  445MOL0     H60029   9.800   5.293   5.161  1.8703  2.1065  1.5627
  445MOL0     H60030   9.837   5.117   5.169 -3.1183 -2.0223  0.7955
  445MOL0     H60031   9.664   5.293   5.333 -1.9394 -0.4341 -1.0683
  445MOL0     H60032   9.687   5.118   5.385  0.1265 -0.0157  0.3959
  445MOL0     H60033   9.611   5.186   5.101  0.9156  0.0778  0.2069
  445MOL0     H60034   9.489   5.211   5.213 -1.2587 -1.0894  2.2167
  445MOL0     H60035   9.371   5.138   5.363  2.6998  1.3177  1.2214
  445MOL0     H60036   9.234   5.035   5.531 -1.1075  0.3765 -2.7162
  445MOL0     H60037   9.006   4.998   5.723 -0.2833  1.9895  1.5518
  445MOL0     H60038   8.850   4.974   5.925 -1.7341 -1.0668 -1.2598
  445MOL0     H60039   8.868   4.601   6.149 -1.7408 -3.1474 -1.9198
  445MOL0     H60040   8.766   4.715   6.236 -1.0605  0.0564 -0.4874
  445MOL0     H60041   8.582   4.615   6.095  0.0158 -2.3231 -1.7809
  445MOL0     H60042   8.696   4.497   6.036  1.2423 -2.1413  1.9625
  445MOL0     H60043   8.748   4.422   6.253  0.0840  1.0937  1.4702
  445MOL0     H60044   8.650   4.539   6.335  3.2532  1.0761  0.6961
  445MOL0     H60045   8.449   4.405   6.259 -1.3837 -3.7395 -0.3013
  445MOL0     H60046   8.566   4.295   6.317 -4.7671 -1.2002  0.3725
  445MOL0     H60047   8.647   4.233   6.096  0.1418 -0.0392 -1.6369
  445MOL0     H60048   8.537   4.357   6.020 -2.3738 -0.6486 -0.6850
  445MOL0     H60049   8.353   4.261   6.106 -1.1484 -0.6698 -1.1807
  445MOL0     H60050   8.423   4.170   5.973 -2.6440  0.7513  0.3960
  445MOL0     H60051   8.464   4.097   6.264  1.4023  0.8460 -0.9994
  445MOL0     H60052   8.505   3.992   6.124 -0.6725 -0.9749 -0.8998
  445MOL0     H60053   8.239   4.114   6.209 -1.2894 -1.4796  1.1229
  445MOL0     H60054   8.250   4.027   6.061  1.4558 -1.3382 -0.8371
  445MOL0     H60055   8.957   4.558   5.937  1.5152 -1.2431 -1.2225
  445MOL0     H60056   9.101   4.596   5.739  1.0091 -0.1819 -0.4861
  445MOL0     H60057   9.442   4.667   5.442 -1.0792 -0.7883  0.2875
  445MOL0     H60058   9.596   4.790   5.296 -1.6378 -2.1461 -0.7947
  445MOL0     H60059  10.645   4.706   4.475 -0.5972 -0.5206 -1.7133
  445MOL0     H60060  10.618   4.486   4.369  0.3813 -0.9163 -0.0692
  445MOL0     H60061  10.554   3.949   4.568 -0.4016 -1.2835  0.7088
  445MOL0     H60062  10.546   3.727   4.457 -0.9973  1.2653  3.0865
  445MOL0     H60063  10.868   3.634   4.184  0.4464 -2.2591  0.9069
  445MOL0     H60064  10.779   3.670   4.038 -1.1813 -0.0152 -0.0824
  445MOL0     H60065  10.698   3.456   4.010  1.7650  1.1695 -1.8305
  445MOL0     H60066  10.692   3.439   4.194  2.3803  4.0801  3.9925
  445MOL0     H60067  10.950   3.425   4.188 -1.6807 -0.7816  1.6015
  445MOL0     H60068  10.938   3.424   4.020  5.0152 -0.2908  1.3442
  445MOL0     H60069  10.938   3.210   4.187 -0.2028  0.0951 -0.5818
  445MOL0     H60070  10.763   3.217   4.153 -0.2887 -1.5493 -0.1552
  445MOL0     H60071  10.914   3.055   3.799  0.9524 -0.2724 -0.4030
  445MOL0     H60072  10.801   3.889   4.138  1.4819 -0.7950  0.3155
  445MOL0     H60073  10.930   4.147   4.265  2.1519 -2.5107 -1.9169
  445MOL0     H60074  10.852   4.100   4.118  0.7083 -0.4708  0.5608
  445MOL0     H60075  10.772   4.228   4.211  0.7866  0.9318  1.3722
  446MOL0     O60076   2.149   1.881   4.481  0.4742  0.1311  0.4592
  446MOL0     C60077   2.110   1.947   4.388  0.5691  0.9025 -0.1199
  446MOL0     O60078   2.187   2.016   4.292  1.2805  0.0517  0.1717
  446MOL0     C60079   2.308   2.064   4.313 -0.0432  0.4598  0.0729
  446MOL0     C60080   2.394   2.034   4.424 -0.1060  0.5596 -0.1463
  446MOL0     C60081   2.523   2.096   4.418 -0.9503 -0.2940 -0.0016
  446MOL0     C60082   2.563   2.175   4.310  1.1714  0.3578  0.5826
  446MOL0     O60083   2.678   2.242   4.324  0.3434  0.4161 -0.8613
  446MOL0     C60084   2.670   2.376   4.377  0.9639 -0.2342 -0.5905
  446MOL0     C60085   2.773   2.466   4.306  1.2314 -0.4107  0.0058
  446MOL0     C60086   2.909   2.438   4.380 -0.1796  0.2047 -0.1063
  446MOL0     C60087   3.026   2.516   4.311 -0.5974  0.0899  0.3204
  446MOL0     C60088   3.166   2.486   4.369 -0.1822  0.2504 -0.3459
  446MOL0     C60089   3.275   2.561   4.306 -0.9808 -0.8791  0.0581
  446MOL0     C60090   3.415   2.498   4.349 -0.4252 -0.1213 -0.1111
  446MOL0     C60091   3.530   2.579   4.282 -0.4070  0.2811 -1.3342
  446MOL0     N60092   3.659   2.525   4.348 -0.4813  0.1528  0.4568
  446MOL0     C60093   3.736   2.418   4.310  0.8488 -0.4406 -0.2535
  446MOL0     C60094   3.818   2.401   4.417  0.1248  0.3092  0.5009
  446MOL0     C60095   3.882   2.271   4.445 -0.1823 -0.2305 -0.5626
  446MOL0     C60096   4.023   2.285   4.496  0.2515 -0.5641 -0.2550
  446MOL0     C60097   4.076   2.157   4.538 -0.8022  0.2433 -0.1432
  446MOL0     C60098   4.226   2.151   4.551  0.2615  0.3783 -0.0139
  446MOL0     O60099   4.265   2.023   4.614  0.1324 -0.0979  0.7881
  446MOL0     C60100   4.400   1.995   4.593  0.7761 -0.4219 -0.1248
  446MOL0     C60101   4.417   1.909   4.493 -0.0128  1.1011  0.4880
  446MOL0     C60102   4.547   1.875   4.451  0.6269 -0.3352  0.1616
  446MOL0     C60103   4.649   1.939   4.515 -0.7233 -0.2793  0.4866
  446MOL0     C60104   4.787   1.903   4.488  0.2055 -0.6927 -0.0403
  446MOL0     O60105   4.876   1.934   4.589  0.7236 -0.1044 -0.7565
  446MOL0     C60106   5.003   1.887   4.574 -0.1957  0.4067 -0.6004
  446MOL0     C60107   5.026   1.749   4.552  0.4702  0.3471 -0.6109
  446MOL0     C60108   5.159   1.698   4.540  0.4584 -0.5800 -0.0093
  446MOL0     C60109   5.268   1.784   4.539  0.3300  0.9175 -0.9352
  446MOL0     O60110   5.392   1.727   4.525 -0.0163  0.4279 -0.1411
  446MOL0     C60111   5.487   1.765   4.625  0.1839  0.0495  0.2371
  446MOL0     C60112   5.629   1.729   4.575  0.9201 -0.3704 -0.7391
  446MOL0     C60113   5.645   1.581   4.560  0.4590  0.6861  0.6363
  446MOL0     C60114   5.784   1.547   4.507 -0.8203  0.1737 -0.2395
  446MOL0     C60115   5.794   1.402   4.472  0.1639 -0.1355 -0.3217
  446MOL0     C60116   5.934   1.354   4.421 -0.6619  1.5986  0.1810
  446MOL0     C60117   5.946   1.205   4.386 -0.2564 -0.6701  0.0507
  446MOL0     C60118   6.064   1.195   4.298 -0.5200 -0.0553  0.8490
  446MOL0    Cl60119   6.209   1.287   4.354 -0.2248  0.3675 -0.2508
  446MOL0     C60120   5.241   1.919   4.572  0.5907 -0.0091  0.5504
  446MOL0     C60121   5.115   1.968   4.590  0.1646  0.7804 -0.1413
  446MOL0     O60122   4.819   1.857   4.385 -0.3324  0.5419 -0.0219
  446MOL0     C60123   4.626   2.032   4.613 -0.9692 -0.3916 -0.1751
  446MOL0     C60124   4.498   2.062   4.655 -0.2820 -1.0397 -0.0810
  446MOL0     N60125   3.810   2.511   4.504  0.1596  0.4787  1.3135
  446MOL0     N60126   3.713   2.584   4.452  0.1203  0.0863 -0.1604
  446MOL0     C60127   2.474   2.199   4.203  0.5821  0.3434 -0.1702
  446MOL0     C60128   2.343   2.150   4.211 -1.1899 -0.0697 -0.4310
  446MOL0     C60129   1.962   1.921   4.354 -0.2118 -0.2340  0.8105
  446MOL0     C60130   1.919   1.983   4.236 -0.1151  0.4187  0.0579
  446MOL0     C60131   1.788   1.982   4.202  0.3627  1.0195  0.5127
  446MOL0     C60132   1.690   1.901   4.267 -0.7954  0.5041 -0.2488
  446MOL0     O60133   1.563   1.923   4.232 -0.1289 -0.5215  0.0510
  446MOL0     C60134   1.458   1.819   4.254  0.3996 -0.1799  0.1675
  446MOL0     C60135   1.322   1.855   4.203  0.7267  0.5442 -0.3735
  446MOL0     C60136   1.275   1.976   4.284  1.0015 -0.0323 -0.3139
  446MOL0     C60137   1.304   2.105   4.202  0.4405  1.0631 -0.9933
  446MOL0     C60138   1.194   2.146   4.109  0.1429 -0.6732  0.0821
  446MOL0     C60139   1.118   2.191   4.013 -0.3133 -1.0720 -0.6298
  446MOL0     C60140   1.734   1.824   4.374 -0.9637  0.2544  0.5514
  446MOL0     C60141   1.868   1.835   4.419 -0.7990 -0.2914  0.1425
  446MOL0     C60142   1.902   1.748   4.541  1.2282  0.1179  0.3276
  446MOL0     H60143   2.365   1.976   4.511 -0.6664 -1.4685 -1.6103
  446MOL0     H60144   2.594   2.087   4.500  0.3613  0.8399 -0.9667
  446MOL0     H60145   2.568   2.414   4.363  1.2042  0.3234 -0.8476
  446MOL0     H60146   2.680   2.385   4.486  1.1493 -3.3373 -0.2681
  446MOL0     H60147   2.741   2.570   4.317 -1.4107 -1.0222 -1.1529
  446MOL0     H60148   2.787   2.429   4.204  0.4644 -1.0958  0.1381
  446MOL0     H60149   2.929   2.331   4.375  1.6466  0.5740 -2.5066
  446MOL0     H60150   2.895   2.483   4.479  0.5178 -0.1448  0.1511
  446MOL0     H60151   3.036   2.480   4.208  2.1794 -3.8455  1.7254
  446MOL0     H60152   3.000   2.622   4.314  0.4290  0.3825 -0.4728
  446MOL0     H60153   3.158   2.504   4.477 -0.4997  1.7821 -0.6091
  446MOL0     H60154   3.187   2.379   4.384 -2.3311 -0.2189 -0.3139
  446MOL0     H60155   3.268   2.569   4.197  1.4604  4.3989 -0.0433
  446MOL0     H60156   3.287   2.658   4.356  2.1265 -2.1623  2.0890
  446MOL0     H60157   3.421   2.392   4.322  0.1060 -0.2644  0.5252
  446MOL0     H60158   3.435   2.503   4.457  2.6696  0.7717 -0.6350
  446MOL0     H60159   3.543   2.550   4.177  3.8259 -3.3569 -0.1146
  446MOL0     H60160   3.509   2.685   4.298 -1.9728  0.1046 -2.0121
  446MOL0     H60161   3.709   2.349   4.230  0.3650  0.0654 -0.5345
  446MOL0     H60162   3.824   2.219   4.522 -2.3056  0.8868 -1.3231
  446MOL0     H60163   3.880   2.218   4.350  0.2708  1.5171 -1.5937
  446MOL0     H60164   4.073   2.323   4.407  1.6695  0.5106  0.9446
  446MOL0     H60165   4.026   2.361   4.575 -2.9238 -2.6555  2.1880
  446MOL0     H60166   4.057   2.088   4.455  1.3500 -0.5198 -0.0640
  446MOL0     H60167   4.042   2.122   4.636 -1.1319  1.0953  0.0638
  446MOL0     H60168   4.258   2.231   4.618  2.8177  0.0863 -0.7855
  446MOL0     H60169   4.256   2.176   4.448  1.9812 -1.9994 -0.1770
  446MOL0     H60170   4.329   1.866   4.445  0.3569  0.0766  0.6856
  446MOL0     H60171   4.564   1.817   4.360 -1.9173 -2.5974  0.9907
  446MOL0     H60172   4.948   1.677   4.533  1.2148 -0.1798 -1.7873
  446MOL0     H60173   5.175   1.594   4.512  0.1853 -2.0416  4.5318
  446MOL0     H60174   5.485   1.872   4.647  2.1924 -0.0373  1.0111
  446MOL0     H60175   5.463   1.709   4.716 -2.8975  1.8984  0.7211
  446MOL0     H60176   5.650   1.776   4.478  1.4473 -1.4439 -1.1636
  446MOL0     H60177   5.700   1.765   4.650 -2.3148  1.9003  1.5195
  446MOL0     H60178   5.645   1.539   4.661 -3.0356 -0.0455  0.4553
  446MOL0     H60179   5.560   1.533   4.511 -1.7410  3.9278  1.0437
  446MOL0     H60180   5.848   1.580   4.589 -2.0303  2.1902 -0.0355
  446MOL0     H60181   5.806   1.610   4.420 -1.4387  0.8702  0.0959
  446MOL0     H60182   5.714   1.363   4.410  0.0016 -0.0877 -0.1440
  446MOL0     H60183   5.780   1.337   4.559  2.0099  1.0477  0.9375
  446MOL0     H60184   5.952   1.420   4.335 -0.2240  2.5556  0.9887
  446MOL0     H60185   6.017   1.380   4.487 -0.6507  2.5335 -0.1831
  446MOL0     H60186   5.856   1.174   4.333 -0.5884  2.2519 -1.2841
  446MOL0     H60187   5.958   1.147   4.479  0.5519 -0.8416 -0.1476
  446MOL0     H60188   6.090   1.089   4.296  0.2477  0.1321 -0.3198
  446MOL0     H60189   6.043   1.230   4.196 -1.7188  2.3057  1.8421
  446MOL0     H60190   5.310   2.002   4.569 -3.3633  3.5910 -2.4532
  446MOL0     H60191   5.122   2.075   4.609  4.9943  0.7908 -0.8511
  446MOL0     H60192   4.709   2.076   4.667  0.8202 -2.3527 -1.1619
  446MOL0     H60193   4.473   2.137   4.729  1.3307  1.6847 -2.1320
  446MOL0     H60194   2.491   2.247   4.107  0.2509 -0.9184 -0.8854
  446MOL0     H60195   2.274   2.172   4.130 -0.6026 -1.6181 -1.3876
  446MOL0     H60196   1.972   2.049   4.168  0.8757 -0.8973 -0.5005
  446MOL0     H60197   1.751   2.047   4.124  0.2949  2.3796  1.6323
  446MOL0     H60198   1.451   1.806   4.362 -0.3585  2.0885  0.4269
  446MOL0     H60199   1.482   1.727   4.199 -2.2870  0.6525 -2.6981
  446MOL0     H60200   1.246   1.778   4.221  0.8970  0.5325  0.3155
  446MOL0     H60201   1.317   1.868   4.095 -0.0543 -1.2460 -0.5929
  446MOL0     H60202   1.320   1.972   4.384 -1.5893  1.5276  1.0146
  446MOL0     H60203   1.167   1.974   4.301  0.9645  0.2034 -0.5075
  446MOL0     H60204   1.326   2.192   4.266  0.1348  1.5203 -1.4986
  446MOL0     H60205   1.401   2.082   4.157  0.3166 -2.2496  0.1550
  446MOL0     H60206   1.053   2.226   3.935  0.0930 -1.7478 -1.2828
  446MOL0     H60207   1.659   1.770   4.430 -2.1337  1.6245  0.3746
  446MOL0     H60208   1.938   1.803   4.629  2.1852 -0.9770  0.6411
  446MOL0     H60209   1.815   1.693   4.580 -1.1806  3.2983 -0.1540
  446MOL0     H60210   1.963   1.663   4.510 -0.5085 -0.3461 -2.1266
  447MOL0     O60211   4.994   4.297   6.695 -0.7358 -0.6008  0.5845
  447MOL0     C60212   5.027   4.287   6.576 -0.9633  0.4085 -1.3703
  447MOL0     O60213   4.975   4.194   6.500 -0.0837  0.2540  0.6487
  447MOL0     C60214   4.873   4.107   6.531  0.2269  1.1291  0.8813
  447MOL0     C60215   4.900   3.982   6.475 -0.5856  1.0948 -0.4400
  447MOL0     C60216   4.810   3.874   6.496 -0.0200 -1.0210  0.6552
  447MOL0     C60217   4.701   3.887   6.588  1.3581  0.0838 -1.1004
  447MOL0     O60218   4.632   3.772   6.635 -0.6672  0.0389  0.2108
  447MOL0     C60219   4.500   3.794   6.675  0.0704  0.6919  0.1172
  447MOL0     C60220   4.434   3.654   6.680  0.5850  0.2430  0.3195
  447MOL0     C60221   4.284   3.651   6.654  0.4632  0.4369  0.2198
  447MOL0     C60222   4.200   3.725   6.760  0.1612 -0.1871 -0.0392
  447MOL0     C60223   4.050   3.733   6.751 -0.4806 -0.6569 -0.3870
  447MOL0     C60224   3.985   3.602   6.708  1.0857 -0.1108 -1.0874
  447MOL0     C60225   3.982   3.495   6.822 -0.3062  0.5008 -0.2788
  447MOL0     C60226   3.915   3.363   6.763 -0.3008 -0.0889 -0.0635
  447MOL0     N60227   4.010   3.281   6.676  0.4629 -0.6987 -0.4872
  447MOL0     C60228   4.144   3.281   6.689  0.1613 -0.3312  0.6414
  447MOL0     C60229   4.192   3.210   6.582 -0.7346 -0.4265  0.2561
  447MOL0     C60230   4.333   3.192   6.536 -0.1411 -0.9688  0.6485
  447MOL0     C60231   4.383   3.298   6.433 -0.2243 -0.1832  1.0264
  447MOL0     C60232   4.535   3.281   6.385 -0.3957 -0.5485  0.0867
  447MOL0     C60233   4.639   3.284   6.504  0.7058  0.5912  0.8606
  447MOL0     O60234   4.770   3.285   6.437 -0.4313 -0.6069  0.0865
  447MOL0     C60235   4.886   3.279   6.524  1.1608  0.1055  0.2587
  447MOL0     C60236   5.004   3.318   6.461 -0.5912  0.2209  0.2700
  447MOL0     C60237   5.124   3.342   6.535 -0.4693  0.0456  0.0342
  447MOL0     C60238   5.127   3.322   6.667 -0.7585  0.8410 -0.4380
  447MOL0     C60239   5.255   3.357   6.735  0.3230  0.6644  0.0675
  447MOL0     O60240   5.255   3.322   6.876  0.2111  0.3756  1.5645
  447MOL0     C60241   5.369   3.362   6.940  0.9072  0.9896  0.4236
  447MOL0     C60242   5.386   3.493   6.982 -0.2657  0.3562  0.2408
  447MOL0     C60243   5.488   3.529   7.066  0.4486  0.5097 -1.3511
  447MOL0     C60244   5.575   3.433   7.123 -0.1110  0.4048 -0.0116
  447MOL0     O60245   5.669   3.474   7.208 -0.6520 -0.1083  0.7850
  447MOL0     C60246   5.800   3.415   7.222  0.3377  0.2337 -0.6170
  447MOL0     C60247   5.882   3.516   7.304  0.1696  1.2036 -0.7003
  447MOL0     C60248   5.939   3.639   7.224  0.9462  0.7752  0.6805
  447MOL0     C60249   6.062   3.702   7.288 -0.0733 -0.1698 -0.1132
  447MOL0     C60250   6.202   3.652   7.262 -0.0753  0.0902 -0.0558
  447MOL0     C60251   6.260   3.551   7.360 -0.2298 -0.1980 -0.3386
  447MOL0     C60252   6.243   3.596   7.511 -0.1025 -0.1926 -0.1282
  447MOL0     C60253   6.329   3.510   7.616  1.1174 -0.0105  0.6883
  447MOL0    Cl60254   6.363   3.602   7.765 -0.5886  0.1600 -0.1993
  447MOL0     C60255   5.557   3.298   7.083 -0.9758 -0.6014 -0.6567
  447MOL0     C60256   5.456   3.264   6.986 -0.6287 -0.2065  0.3159
  447MOL0     O60257   5.347   3.413   6.681 -0.5450 -0.5261 -0.0344
  447MOL0     C60258   5.014   3.269   6.737 -0.5498 -0.5403 -0.0383
  447MOL0     C60259   4.889   3.255   6.666 -0.3288  0.2475 -0.0240
  447MOL0     N60260   4.078   3.163   6.510  0.5473  0.7144  0.5520
  447MOL0     N60261   3.974   3.210   6.573  0.0411  0.4774 -0.1151
  447MOL0     C60262   4.672   4.019   6.638  0.0730 -0.6473  1.1479
  447MOL0     C60263   4.756   4.131   6.609  0.8137  0.1461  0.3740
  447MOL0     C60264   5.127   4.374   6.509  1.1888 -0.1012  0.1436
  447MOL0     C60265   5.174   4.495   6.569  0.5543  0.2386  0.4934
  447MOL0     C60266   5.286   4.559   6.528  0.6940  0.4874  0.1590
  447MOL0     C60267   5.348   4.536   6.411  0.5306  0.0525 -0.6683
  447MOL0     O60268   5.446   4.599   6.356 -0.3091 -0.3195 -0.1181
  447MOL0     C60269   5.514   4.708   6.412  0.2306  0.8844  1.0802
  447MOL0     C60270   5.449   4.848   6.404 -0.1582  0.7764  0.2133
  447MOL0     C60271   5.544   4.971   6.414  0.0333 -0.5283  0.0265
  447MOL0     C60272   5.646   4.963   6.528  0.7966  0.9580 -0.0180
  447MOL0     C60273   5.581   4.968   6.655  0.3401  0.8599  0.4322
  447MOL0     C60274   5.530   4.972   6.763 -0.4654 -0.4738 -0.1528
  447MOL0     C60275   5.292   4.434   6.331  0.0749 -0.2384 -0.0998
  447MOL0     C60276   5.186   4.349   6.372  0.4420  0.5737 -0.4029
  447MOL0     C60277   5.157   4.227   6.282 -0.3070 -0.2538  0.5014
  447MOL0     H60278   4.987   3.976   6.410  0.9943  3.5648  1.2747
  447MOL0     H60279   4.837   3.777   6.457 -2.5216 -0.9698 -1.4989
  447MOL0     H60280   4.499   3.827   6.780 -4.1864 -1.4310  0.9656
  447MOL0     H60281   4.450   3.864   6.608 -0.7485 -1.3479 -1.4889
  447MOL0     H60282   4.474   3.611   6.773  0.0242 -3.1154 -0.8575
  447MOL0     H60283   4.474   3.589   6.602  0.3932  0.4909  0.0161
  447MOL0     H60284   4.253   3.546   6.653  1.1386  0.0124  4.6547
  447MOL0     H60285   4.249   3.699   6.562 -2.7534  0.1281  1.1624
  447MOL0     H60286   4.227   3.684   6.858  2.2991 -1.2578 -1.0069
  447MOL0     H60287   4.230   3.830   6.763 -1.2023  0.2086  0.6670
  447MOL0     H60288   3.998   3.777   6.836 -2.0792 -1.7155 -0.7708
  447MOL0     H60289   4.023   3.804   6.672  0.8806 -1.5985 -1.7830
  447MOL0     H60290   3.879   3.621   6.689  1.1414 -0.9037 -2.2764
  447MOL0     H60291   4.022   3.575   6.609  1.6299  1.3785 -1.3201
  447MOL0     H60292   3.917   3.549   6.892  1.7690  1.7034  0.8076
  447MOL0     H60293   4.084   3.483   6.859  0.4646  2.6849 -1.5409
  447MOL0     H60294   3.902   3.300   6.851  1.2179  1.1472  1.1132
  447MOL0     H60295   3.818   3.385   6.717 -1.2846 -0.4827  1.7342
  447MOL0     H60296   4.192   3.333   6.771 -0.7933  2.7339 -0.5982
  447MOL0     H60297   4.402   3.188   6.621  1.5135 -3.3790 -0.7061
  447MOL0     H60298   4.333   3.092   6.494 -0.0214 -1.0067  0.7395
  447MOL0     H60299   4.317   3.288   6.346  0.0306  2.2421  0.4810
  447MOL0     H60300   4.361   3.400   6.464  1.1043  0.0296  1.3342
  447MOL0     H60301   4.565   3.360   6.315  0.3658 -1.4225 -0.5970
  447MOL0     H60302   4.548   3.190   6.326  0.1284  1.7855 -3.7175
  447MOL0     H60303   4.636   3.189   6.558  3.8934  0.2898  0.6548
  447MOL0     H60304   4.613   3.365   6.573  0.1392 -0.5152  1.9972
  447MOL0     H60305   5.005   3.329   6.353 -1.7952  1.8373  0.3934
  447MOL0     H60306   5.216   3.383   6.493 -0.0960 -0.8519 -0.0371
  447MOL0     H60307   5.330   3.578   6.946  1.6529  2.5460  2.1212
  447MOL0     H60308   5.493   3.634   7.090 -1.2315  0.2871  0.2889
  447MOL0     H60309   5.806   3.316   7.269 -1.9068 -0.4184 -1.5604
  447MOL0     H60310   5.836   3.406   7.118 -0.9869 -2.4625 -0.9468
  447MOL0     H60311   5.820   3.551   7.387  1.8596  1.6013  0.4566
  447MOL0     H60312   5.967   3.462   7.348 -1.6570 -2.0945 -0.9414
  447MOL0     H60313   5.955   3.601   7.123 -1.0107 -1.9339  1.2548
  447MOL0     H60314   5.867   3.720   7.212  0.6528  0.3191 -0.8767
  447MOL0     H60315   6.045   3.720   7.395  3.5506  1.0901  0.4024
  447MOL0     H60316   6.059   3.802   7.243 -0.1023  0.7461  1.7818
  447MOL0     H60317   6.266   3.740   7.273  0.4221 -0.2937  0.1909
  447MOL0     H60318   6.200   3.633   7.154 -1.6796  2.4154 -0.5106
  447MOL0     H60319   6.213   3.454   7.344  0.7928 -0.9770  1.1031
  447MOL0     H60320   6.368   3.545   7.345  0.4714  2.1546  2.7120
  447MOL0     H60321   6.144   3.587   7.557 -0.6510 -1.7941 -1.5387
  447MOL0     H60322   6.266   3.702   7.523  2.6441 -0.4622 -2.0610
  447MOL0     H60323   6.268   3.422   7.638 -1.3070  1.4900  0.3758
  447MOL0     H60324   6.424   3.489   7.567  1.2153 -0.7575  1.1865
  447MOL0     H60325   5.625   3.222   7.121  1.5140  2.5960  1.8773
  447MOL0     H60326   5.451   3.163   6.946  2.2512  0.0838 -1.0367
  447MOL0     H60327   5.026   3.244   6.842 -0.8740  1.5515  0.5258
  447MOL0     H60328   4.799   3.228   6.721 -0.4190 -1.7597 -1.0678
  447MOL0     H60329   4.602   4.031   6.720 -0.5193 -2.7717  0.9866
  447MOL0     H60330   4.722   4.227   6.645 -1.5470  0.2921 -1.9969
  447MOL0     H60331   5.126   4.526   6.662  0.0894  1.6207 -0.1870
  447MOL0     H60332   5.339   4.631   6.590 -1.2420  0.0689  2.4820
  447MOL0     H60333   5.609   4.724   6.360 -2.0480 -1.4808 -4.6102
  447MOL0     H60334   5.548   4.682   6.513  1.1959 -1.5359  0.2047
  447MOL0     H60335   5.389   4.865   6.495 -2.6759  1.7053 -1.5060
  447MOL0     H60336   5.381   4.860   6.320 -0.7874  2.1934  0.8881
  447MOL0     H60337   5.490   5.066   6.420 -1.7503 -1.5889  4.5713
  447MOL0     H60338   5.597   4.980   6.319  4.4933 -2.8696  1.9999
  447MOL0     H60339   5.700   4.872   6.502  2.7248  2.0015  0.1027
  447MOL0     H60340   5.719   5.045   6.517  1.1357  0.4976 -1.3535
  447MOL0     H60341   5.489   4.987   6.861 -0.8851  1.0072 -0.5343
  447MOL0     H60342   5.342   4.429   6.235 -1.6307  2.5161 -1.2564
  447MOL0     H60343   5.241   4.209   6.215  0.3435  2.8303  0.3403
  447MOL0     H60344   5.157   4.138   6.345 -2.9190 -0.0068  0.9929
  447MOL0     H60345   5.063   4.245   6.229  0.2274  3.1091  0.4365
  448MOL0     O60346   2.294   5.971   7.716 -0.8254  0.4602 -0.4180
  448MOL0     C60347   2.382   6.010   7.796  0.6016  0.0818  0.3190
  448MOL0     O60348   2.516   5.954   7.807 -0.6426  0.4079  0.6335
  448MOL0     C60349   2.571   5.859   7.721  0.0262  0.1444  0.4081
  448MOL0     C60350   2.525   5.807   7.605 -0.2693 -0.3267 -0.4918
  448MOL0     C60351   2.591   5.706   7.537  0.1044 -0.4610  1.4274
  448MOL0     C60352   2.718   5.669   7.578  0.1764 -0.1514 -0.4722
  448MOL0     O60353   2.774   5.569   7.512  0.2553  0.6044 -0.3418
  448MOL0     C60354   2.900   5.515   7.545  0.6026 -0.0710 -0.0854
  448MOL0     C60355   3.026   5.588   7.517 -1.0683 -0.2348 -0.4019
  448MOL0     C60356   3.150   5.517   7.557 -0.2470  0.5503  0.6328
  448MOL0     C60357   3.274   5.599   7.549 -0.9412  0.0789  0.5062
  448MOL0     C60358   3.401   5.517   7.562  0.2797  1.0575  0.0320
  448MOL0     C60359   3.529   5.595   7.609  0.1547  0.5180  0.5087
  448MOL0     C60360   3.493   5.640   7.755  0.6541 -0.1312 -0.4045
  448MOL0     C60361   3.607   5.696   7.838 -0.3002 -0.4547  0.4119
  448MOL0     N60362   3.630   5.834   7.803  0.0205 -0.1583  0.0844
  448MOL0     C60363   3.746   5.882   7.728  0.3097  0.4127 -0.2922
  448MOL0     C60364   3.713   6.002   7.677 -0.2928  0.4984  0.7036
  448MOL0     C60365   3.813   6.094   7.614 -1.1309 -0.4666 -0.2481
  448MOL0     C60366   3.894   6.044   7.503  0.5628  0.4758 -0.6939
  448MOL0     C60367   3.832   6.069   7.360  0.2031  0.2998 -0.5482
  448MOL0     C60368   3.684   6.026   7.343  0.4843  0.5232  0.1680
  448MOL0     O60369   3.660   5.893   7.392 -0.3875 -0.0411 -0.0708
  448MOL0     C60370   3.615   5.804   7.295  0.8933 -0.4525  0.2176
  448MOL0     C60371   3.480   5.782   7.310  0.0582  0.1162  0.4280
  448MOL0     C60372   3.417   5.698   7.222 -0.3069  0.2548  0.0779
  448MOL0     C60373   3.481   5.642   7.116 -0.0740 -0.1129 -0.7107
  448MOL0     C60374   3.413   5.553   7.018  0.8652  0.1216  0.0010
  448MOL0     O60375   3.493   5.457   6.946  0.3590 -0.5326 -0.6135
  448MOL0     C60376   3.420   5.369   6.870 -0.3571  0.7585  0.1050
  448MOL0     C60377   3.400   5.387   6.732 -0.1811 -0.3014  0.0604
  448MOL0     C60378   3.337   5.294   6.643  0.0854  0.5658 -0.8391
  448MOL0     C60379   3.283   5.177   6.699 -0.1005 -0.6782 -0.0648
  448MOL0     O60380   3.222   5.094   6.610 -1.1697 -0.5426 -0.4130
  448MOL0     C60381   3.137   4.984   6.642 -0.3058 -0.2217  0.7250
  448MOL0     C60382   2.991   5.023   6.654  0.5538  0.0151  0.2325
  448MOL0     C60383   2.945   5.096   6.784 -0.0647  0.3522  0.4495
  448MOL0     C60384   2.819   5.172   6.769 -0.5475  0.4533  0.0888
  448MOL0     C60385   2.784   5.270   6.888  0.3225  0.9326  1.4125
  448MOL0     C60386   2.872   5.394   6.875 -0.7617 -0.6884  0.2492
  448MOL0     C60387   2.861   5.488   7.002  0.5166 -0.4701 -1.0942
  448MOL0     C60388   2.938   5.619   6.998 -0.3424  0.2662 -0.4966
  448MOL0    Cl60389   2.930   5.715   7.162 -0.2787  0.3567  0.3874
  448MOL0     C60390   3.306   5.153   6.837  0.3402 -0.0046 -1.2497
  448MOL0     C60391   3.372   5.247   6.929 -0.5556 -0.0515  0.0494
  448MOL0     O60392   3.292   5.581   6.994 -0.7796 -0.2130  0.3750
  448MOL0     C60393   3.621   5.667   7.110 -0.3592 -0.4035  0.1133
  448MOL0     C60394   3.685   5.746   7.197 -0.4884 -0.4804  0.7816
  448MOL0     N60395   3.591   6.034   7.733  0.6869  0.6953 -0.3440
  448MOL0     N60396   3.539   5.934   7.798 -0.1457 -0.3463  0.0439
  448MOL0     C60397   2.772   5.713   7.701  0.1343 -0.4112 -0.1688
  448MOL0     C60398   2.700   5.812   7.770 -0.1670 -1.4091  0.3062
  448MOL0     C60399   2.340   6.124   7.877  0.6004 -0.3797 -0.5015
  448MOL0     C60400   2.252   6.213   7.808  0.0932 -0.3179  0.1401
  448MOL0     C60401   2.209   6.321   7.878 -0.2201  0.0401 -0.3876
  448MOL0     C60402   2.234   6.337   8.019  0.2748 -0.0957  0.1952
  448MOL0     O60403   2.165   6.433   8.089  0.3098  0.2240  0.0221
  448MOL0     C60404   2.194   6.573   8.061  0.5832  0.5580  0.1245
  448MOL0     C60405   2.064   6.643   8.023  0.4780  1.1008  0.0953
  448MOL0     C60406   1.951   6.628   8.125  0.4939  0.2450 -1.3760
  448MOL0     C60407   1.815   6.642   8.061 -0.7350 -0.1750 -0.7701
  448MOL0     C60408   1.778   6.524   7.987  0.0674 -0.0871  0.1029
  448MOL0     C60409   1.749   6.423   7.927 -0.0270  0.6169 -0.2639
  448MOL0     C60410   2.305   6.240   8.086 -0.7616  0.2434 -0.1287
  448MOL0     C60411   2.368   6.133   8.014  0.5752 -0.3388  0.4122
  448MOL0     C60412   2.450   6.035   8.082 -0.5982 -0.5729 -0.1989
  448MOL0     H60413   2.436   5.845   7.555  1.4006  2.1147 -1.7933
  448MOL0     H60414   2.540   5.665   7.451 -0.5746  3.7325 -0.4536
  448MOL0     H60415   2.908   5.490   7.652  0.5189 -0.6398 -0.2052
  448MOL0     H60416   2.910   5.420   7.491  3.5843  0.1799 -0.1373
  448MOL0     H60417   3.021   5.686   7.567  1.4157 -0.2990  0.0909
  448MOL0     H60418   3.037   5.605   7.409 -0.2208 -2.0221 -0.6316
  448MOL0     H60419   3.146   5.425   7.498 -4.0816  0.7289  0.3381
  448MOL0     H60420   3.156   5.482   7.661  2.2466  0.0628  0.3718
  448MOL0     H60421   3.281   5.644   7.449 -4.8913 -0.1076 -0.0523
  448MOL0     H60422   3.269   5.687   7.613  1.9685  1.0408 -0.4485
  448MOL0     H60423   3.386   5.442   7.641  2.5606  0.5242  0.0380
  448MOL0     H60424   3.417   5.460   7.470 -0.1906  2.5177 -0.9890
  448MOL0     H60425   3.621   5.536   7.601 -0.6932 -0.9665  1.2062
  448MOL0     H60426   3.536   5.683   7.545 -0.4545  0.0595 -0.2068
  448MOL0     H60427   3.458   5.555   7.813  0.4423  0.3280  0.1545
  448MOL0     H60428   3.416   5.718   7.759  1.6352  0.8026  2.0396
  448MOL0     H60429   3.576   5.712   7.942  0.4764 -0.8675  0.7179
  448MOL0     H60430   3.704   5.645   7.832  0.2346  0.5688 -0.0557
  448MOL0     H60431   3.848   5.853   7.710  0.8610  0.7394  1.9736
  448MOL0     H60432   3.755   6.178   7.573 -2.8705 -0.1363  2.5956
  448MOL0     H60433   3.886   6.132   7.687 -1.7521 -0.9691  0.6610
  448MOL0     H60434   3.993   6.091   7.500  1.1079 -0.7094 -2.1481
  448MOL0     H60435   3.912   5.939   7.525  1.9518  0.9074  0.3990
  448MOL0     H60436   3.896   6.028   7.282  0.6126 -0.0928 -0.0114
  448MOL0     H60437   3.834   6.177   7.348  0.8311  0.2581 -0.8761
  448MOL0     H60438   3.659   6.038   7.238  0.2059  2.0307  0.3815
  448MOL0     H60439   3.617   6.087   7.405  0.1424 -0.2113  0.5430
  448MOL0     H60440   3.425   5.849   7.375 -0.7549  0.7689 -0.8811
  448MOL0     H60441   3.311   5.674   7.231 -0.3922  0.6463  0.1572
  448MOL0     H60442   3.437   5.480   6.689 -1.6151 -1.3445 -3.7903
  448MOL0     H60443   3.328   5.317   6.537 -2.2034  2.7733 -0.2682
  448MOL0     H60444   3.150   4.918   6.557  0.0246 -0.4108  0.9232
  448MOL0     H60445   3.168   4.925   6.728  0.6878 -0.0552  0.4838
  448MOL0     H60446   2.967   5.098   6.577 -0.9034 -2.7598 -2.2115
  448MOL0     H60447   2.921   4.940   6.640 -1.1843  1.6475 -1.6670
  448MOL0     H60448   2.923   5.032   6.870 -0.2029 -2.1346 -1.3381
  448MOL0     H60449   3.019   5.165   6.827 -0.1573 -0.0958  1.3508
  448MOL0     H60450   2.739   5.097   6.763 -0.1016 -0.0604  0.4822
  448MOL0     H60451   2.800   5.219   6.672 -2.1636 -1.8452 -0.8284
  448MOL0     H60452   2.807   5.229   6.987  0.0508 -0.4880  0.9086
  448MOL0     H60453   2.680   5.303   6.886 -0.7984 -2.2224 -0.5980
  448MOL0     H60454   2.978   5.368   6.859 -0.7268  0.2589 -1.2375
  448MOL0     H60455   2.841   5.445   6.784 -2.5910  1.3134  1.9048
  448MOL0     H60456   2.882   5.447   7.102 -1.3870  3.3075  1.0960
  448MOL0     H60457   2.756   5.518   7.007 -0.0502 -2.3418 -1.0018
  448MOL0     H60458   3.038   5.592   6.962 -1.0650 -1.7048 -1.1750
  448MOL0     H60459   2.909   5.686   6.917  2.2234  0.3794 -1.4050
  448MOL0     H60460   3.262   5.061   6.874 -0.0786  0.9000  0.6067
  448MOL0     H60461   3.382   5.240   7.037 -3.7189  0.3139  0.4447
  448MOL0     H60462   3.669   5.638   7.017  1.1875  2.5700 -0.1275
  448MOL0     H60463   3.792   5.756   7.180 -0.5993  0.7173  0.6359
  448MOL0     H60464   2.871   5.677   7.726  0.1148 -3.3484 -3.5594
  448MOL0     H60465   2.752   5.864   7.850 -1.1755  0.0596  0.0375
  448MOL0     H60466   2.218   6.216   7.705  0.0149  0.4066  0.1765
  448MOL0     H60467   2.144   6.392   7.829  2.0280  2.6431  0.1596
  448MOL0     H60468   2.262   6.581   7.975 -1.3563  0.4837 -1.4991
  448MOL0     H60469   2.230   6.626   8.149  0.8460  0.3277  0.1584
  448MOL0     H60470   2.039   6.578   7.939  1.0121 -2.6351  2.6009
  448MOL0     H60471   2.060   6.747   7.987  0.1381  1.1708  0.3157
  448MOL0     H60472   1.967   6.713   8.192  1.4564  0.5679 -1.9963
  448MOL0     H60473   1.958   6.530   8.171  1.9388  0.5044 -1.0079
  448MOL0     H60474   1.734   6.675   8.125 -2.2353 -3.5619 -0.6799
  448MOL0     H60475   1.822   6.727   7.992  2.7630  1.5327  1.3844
  448MOL0     H60476   1.727   6.332   7.877  0.5229 -0.3663  1.2090
  448MOL0     H60477   2.325   6.258   8.191  0.4819 -0.9979 -0.1244
  448MOL0     H60478   2.553   6.055   8.049 -0.0264  1.4713  2.4228
  448MOL0     H60479   2.459   6.047   8.191 -0.3290 -2.0658 -0.0340
  448MOL0     H60480   2.420   5.932   8.062 -2.9597 -0.7872  3.5180
  449MOL0     O60481   2.470   7.128   8.044  0.3455  0.2656 -0.1563
  449MOL0     C60482   2.510   7.037   8.119 -0.0175  0.4442  0.1665
  449MOL0     O60483   2.631   6.984   8.121 -0.2817 -0.6540 -0.5607
  449MOL0     C60484   2.725   7.082   8.105 -0.5001  0.4977  0.7906
  449MOL0     C60485   2.814   7.109   8.202  0.1396  0.0564 -0.0017
  449MOL0     C60486   2.921   7.182   8.185  0.0207 -0.5909 -0.4590
  449MOL0     C60487   2.943   7.247   8.063 -0.3927 -0.2977 -1.1390
  449MOL0     O60488   3.046   7.336   8.033  0.1760  1.1777 -0.1587
  449MOL0     C60489   3.174   7.314   8.093  1.4074  0.7502 -0.4181
  449MOL0     C60490   3.292   7.346   7.999  0.3746  0.1890 -0.5246
  449MOL0     C60491   3.271   7.471   7.904  0.0723  0.7511  0.9481
  449MOL0     C60492   3.363   7.456   7.767  1.1830 -0.3146 -0.3045
  449MOL0     C60493   3.360   7.568   7.668 -0.4917  0.3330  0.4068
  449MOL0     C60494   3.459   7.684   7.695  0.5258  0.6267 -0.9851
  449MOL0     C60495   3.410   7.796   7.602 -0.1469  0.7215  0.2587
  449MOL0     C60496   3.528   7.906   7.589  0.3880  1.0178  0.3408
  449MOL0     N60497   3.620   7.867   7.478  0.4905 -0.6753  0.3311
  449MOL0     C60498   3.585   7.883   7.340 -0.0588 -1.4537 -0.0981
  449MOL0     C60499   3.710   7.849   7.276  0.1427  0.6279  0.8416
  449MOL0     C60500   3.724   7.859   7.134 -0.0463  0.0100  0.1701
  449MOL0     C60501   3.848   7.942   7.094 -0.2754 -0.2369 -0.1178
  449MOL0     C60502   3.813   8.092   7.118  0.7654 -0.0747 -0.0853
  449MOL0     C60503   3.935   8.177   7.099  1.1073  0.7171  0.0822
  449MOL0     O60504   3.968   8.193   6.962 -0.4279  0.6841  0.3087
  449MOL0     C60505   4.061   8.113   6.902  0.4952 -0.3513  0.5291
  449MOL0     C60506   4.027   8.044   6.790  0.4983  0.4682 -0.1102
  449MOL0     C60507   4.110   7.954   6.728 -0.6761 -0.1509  1.0100
  449MOL0     C60508   4.246   7.936   6.776 -0.1042 -0.8818 -0.7705
  449MOL0     C60509   4.343   7.834   6.731  0.5596 -0.7047 -0.1587
  449MOL0     O60510   4.461   7.813   6.796  0.1299  0.6107  0.3985
  449MOL0     C60511   4.566   7.734   6.752  0.4890 -0.5009  0.1491
  449MOL0     C60512   4.666   7.797   6.680 -1.3492  0.6779 -0.2337
  449MOL0     C60513   4.780   7.722   6.638 -0.8785 -0.1654 -0.2052
  449MOL0     C60514   4.787   7.580   6.665  0.2610 -0.6167  1.1369
  449MOL0     O60515   4.894   7.503   6.631 -0.4414 -0.2862  0.4294
  449MOL0     C60516   5.018   7.570   6.590  1.7200 -0.7107  0.3378
  449MOL0     C60517   5.130   7.470   6.547  0.6513  0.2523  0.1925
  449MOL0     C60518   5.130   7.416   6.408  0.3381 -0.1891  0.2018
  449MOL0     C60519   5.022   7.293   6.402  0.0196 -0.9065 -1.1341
  449MOL0     C60520   5.017   7.238   6.260 -0.5675 -0.5438 -0.4046
  449MOL0     C60521   5.140   7.141   6.233 -0.3160  0.5751  0.8688
  449MOL0     C60522   5.139   7.006   6.305  0.1155 -0.0020  0.2004
  449MOL0     C60523   5.252   6.900   6.246  0.0442  0.4520  0.1482
  449MOL0    Cl60524   5.415   6.959   6.277  0.2337 -0.3942  0.3787
  449MOL0     C60525   4.686   7.526   6.744 -0.2532  0.2401 -0.2747
  449MOL0     C60526   4.584   7.608   6.785  0.0301  0.5323 -0.2871
  449MOL0     O60527   4.315   7.788   6.627 -0.9041  0.1812 -0.1533
  449MOL0     C60528   4.278   8.010   6.891 -0.0166 -0.1673 -0.3962
  449MOL0     C60529   4.189   8.095   6.952  0.3262 -0.2449 -0.5100
  449MOL0     N60530   3.804   7.822   7.369 -0.0919  0.3931 -0.5073
  449MOL0     N60531   3.755   7.845   7.493  0.5573 -0.2053  0.0087
  449MOL0     C60532   2.858   7.227   7.959  1.5681  0.3595 -0.3784
  449MOL0     C60533   2.743   7.141   7.979 -0.1916 -0.1181  0.4430
  449MOL0     C60534   2.432   6.970   8.224  0.4177 -0.2010  0.7881
  449MOL0     C60535   2.505   6.905   8.326 -0.1339  0.8837  0.4058
  449MOL0     C60536   2.445   6.815   8.417  0.1643  0.2177  0.1388
  449MOL0     C60537   2.305   6.806   8.417 -0.3278 -0.2571  0.0116
  449MOL0     O60538   2.241   6.720   8.498  0.2083 -0.1732 -1.0481
  449MOL0     C60539   2.319   6.602   8.546 -0.0736  0.8999  0.2691
  449MOL0     C60540   2.232   6.477   8.577 -0.6771 -0.5522  0.2740
  449MOL0     C60541   2.159   6.430   8.447 -0.2765 -0.0906  0.6928
  449MOL0     C60542   2.116   6.282   8.450  0.8267 -0.0030  0.5543
  449MOL0     C60543   2.234   6.186   8.449  0.6059 -0.7191  0.8933
  449MOL0     C60544   2.325   6.111   8.450 -0.6127  0.1328  0.6458
  449MOL0     C60545   2.234   6.888   8.329 -0.5913 -0.1295  0.0718
  449MOL0     C60546   2.292   6.961   8.230  0.4499 -0.1405  0.1586
  449MOL0     C60547   2.197   7.035   8.139 -0.5028  0.4146 -0.0434
  449MOL0     H60548   2.811   7.074   8.304  1.9292  1.2014  0.4996
  449MOL0     H60549   2.980   7.208   8.272 -0.5474  3.0934 -1.0067
  449MOL0     H60550   3.191   7.386   8.174  1.4612 -0.6942  0.8877
  449MOL0     H60551   3.192   7.212   8.128  0.7840  0.0575 -2.0302
  449MOL0     H60552   3.305   7.260   7.932 -3.6287  1.2904 -3.0634
  449MOL0     H60553   3.382   7.368   8.056  1.0724 -1.9148 -0.6956
  449MOL0     H60554   3.297   7.559   7.962  2.0908  0.5730  0.3915
  449MOL0     H60555   3.166   7.476   7.873  0.6553 -0.0680 -1.4303
  449MOL0     H60556   3.463   7.447   7.810  0.2668 -1.3185  1.7510
  449MOL0     H60557   3.323   7.364   7.722 -1.9698 -0.3665  2.2157
  449MOL0     H60558   3.394   7.531   7.571  1.3281 -1.5460  1.6852
  449MOL0     H60559   3.259   7.609   7.658 -0.9655 -0.9077 -0.1535
  449MOL0     H60560   3.455   7.724   7.797 -2.4942  0.9646 -1.1585
  449MOL0     H60561   3.553   7.633   7.672  0.7393 -0.0969  1.2196
  449MOL0     H60562   3.321   7.845   7.643 -0.4732  0.1015  0.2991
  449MOL0     H60563   3.372   7.762   7.505  0.1463 -1.3881  0.8509
  449MOL0     H60564   3.489   8.005   7.563  3.0147  2.1079  0.2190
  449MOL0     H60565   3.580   7.921   7.684 -0.5179 -2.1453  1.4516
  449MOL0     H60566   3.494   7.901   7.285  0.4634  0.0763 -0.5036
  449MOL0     H60567   3.735   7.756   7.099 -2.2223 -0.1782 -0.1032
  449MOL0     H60568   3.642   7.909   7.080  2.8499  0.0509 -4.7871
  449MOL0     H60569   3.942   7.919   7.145 -0.4265 -0.7466 -0.0634
  449MOL0     H60570   3.867   7.927   6.987  1.1938 -0.3412  0.1317
  449MOL0     H60571   3.764   8.109   7.214  2.9192 -1.7780  1.4335
  449MOL0     H60572   3.747   8.116   7.035  0.6887  0.8498  0.2214
  449MOL0     H60573   4.019   8.144   7.161  2.3152  1.7005 -0.9787
  449MOL0     H60574   3.897   8.277   7.119 -1.6336 -0.5126  1.6029
  449MOL0     H60575   3.926   8.061   6.753  1.0302  2.1300 -0.8650
  449MOL0     H60576   4.067   7.900   6.644  0.7131  0.3613 -0.0524
  449MOL0     H60577   4.657   7.902   6.650  0.6804  0.9845  0.1276
  449MOL0     H60578   4.865   7.780   6.605  1.2767 -1.9320  1.8808
  449MOL0     H60579   4.996   7.624   6.497 -0.9739 -2.4161 -0.1376
  449MOL0     H60580   5.052   7.627   6.677  0.3811 -2.2004  1.9009
  449MOL0     H60581   5.215   7.537   6.556 -0.2171  1.1126  3.6518
  449MOL0     H60582   5.128   7.389   6.621  1.0620  0.8176  0.8287
  449MOL0     H60583   5.097   7.493   6.338 -0.6438 -0.1418  0.7024
  449MOL0     H60584   5.232   7.380   6.392  0.3003 -0.9438  1.5062
  449MOL0     H60585   4.932   7.337   6.447  2.3669  0.1446  3.1356
  449MOL0     H60586   5.058   7.213   6.468 -0.8995 -0.6267 -0.2644
  449MOL0     H60587   5.024   7.321   6.190  3.8358 -2.0835 -2.1152
  449MOL0     H60588   4.922   7.190   6.238 -1.4552  1.7267 -1.9130
  449MOL0     H60589   5.134   7.137   6.124 -4.4604  0.3234  0.9363
  449MOL0     H60590   5.231   7.196   6.258 -1.4389  4.7412 -2.8007
  449MOL0     H60591   5.048   6.954   6.277 -0.6083  1.7926 -0.9463
  449MOL0     H60592   5.145   7.008   6.414 -2.1071  1.3262  0.3530
  449MOL0     H60593   5.231   6.809   6.303  2.9904  1.8257  3.7608
  449MOL0     H60594   5.243   6.884   6.138  0.4760  1.1757 -0.0027
  449MOL0     H60595   4.695   7.421   6.767 -2.1632  0.0949 -0.0581
  449MOL0     H60596   4.499   7.575   6.844 -1.0186  2.5173 -0.5645
  449MOL0     H60597   4.366   7.993   6.953 -1.3496 -1.6134  1.1982
  449MOL0     H60598   4.195   8.146   7.048 -1.2971  0.5279 -0.7803
  449MOL0     H60599   2.861   7.286   7.868  2.0506  2.2400  0.7961
  449MOL0     H60600   2.672   7.112   7.902  2.6639  0.9170 -2.8632
  449MOL0     H60601   2.613   6.904   8.330 -0.1632 -0.5548  2.3056
  449MOL0     H60602   2.515   6.754   8.472  0.1857  0.1578  0.0456
  449MOL0     H60603   2.369   6.624   8.641  0.3483 -1.4367  0.6544
  449MOL0     H60604   2.393   6.569   8.473 -1.6893 -1.8841 -0.2738
  449MOL0     H60605   2.154   6.498   8.651 -2.6607  2.6770 -2.4261
  449MOL0     H60606   2.312   6.413   8.617 -0.2875  0.4788  1.1974
  449MOL0     H60607   2.222   6.454   8.361  2.8994 -0.7097  2.7058
  449MOL0     H60608   2.070   6.494   8.443 -0.1963 -0.0185 -0.2545
  449MOL0     H60609   2.047   6.276   8.534 -0.6379  0.8857 -0.5397
  449MOL0     H60610   2.071   6.282   8.350 -2.0170 -2.7603  1.6776
  449MOL0     H60611   2.401   6.036   8.457 -0.5834  0.1394  0.3976
  449MOL0     H60612   2.127   6.882   8.350 -0.5973  0.6900  0.2760
  449MOL0     H60613   2.160   7.126   8.187 -1.4689 -0.4978  0.9961
  449MOL0     H60614   2.237   7.067   8.042 -0.0992  0.3755  0.1099
  449MOL0     H60615   2.111   6.970   8.121 -0.1790 -1.1792  3.4281
  450MOL0     O60616   0.295  11.451   9.776  0.5827 -0.0581 -1.0990
  450MOL0     C60617   0.357  11.475   9.670 -0.3450 -0.2162  0.3931
  450MOL0     O60618   0.310  11.509   9.542 -0.2183  0.4421 -0.7235
  450MOL0     C60619   0.180  11.520   9.509 -0.1190  1.2929  0.1670
  450MOL0     C60620   0.159  11.512   9.368 -0.6919  0.2249  0.8038
  450MOL0     C60621   0.021  11.528   9.320  0.5569  0.7613 -0.3112
  450MOL0     C60622  -0.088  11.551   9.417 -0.6284  0.9990  0.2299
  450MOL0     O60623  -0.215  11.570   9.372  0.5775 -0.0292 -0.4409
  450MOL0     C60624  -0.276  11.460   9.311 -0.1872  0.2437  0.2030
  450MOL0     C60625  -0.333  11.369   9.420 -0.2713 -0.3358 -0.2980
  450MOL0     C60626  -0.381  11.238   9.355  0.1978  0.1936 -0.4911
  450MOL0     C60627  -0.446  11.154   9.469  0.1219 -0.6343 -0.2719
  450MOL0     C60628  -0.487  11.015   9.430 -0.7252  0.3081  0.1089
  450MOL0     C60629  -0.441  10.904   9.514  0.3078  0.4975 -0.3571
  450MOL0     C60630  -0.481  10.768   9.455  0.3543 -0.1896 -0.0336
  450MOL0     C60631  -0.619  10.724   9.506 -0.6817  0.5175  0.2218
  450MOL0     N60632  -0.622  10.680   9.651 -0.3234 -0.3168  0.1575
  450MOL0     C60633  -0.564  10.569   9.705  0.3619  0.5464  0.5180
  450MOL0     C60634  -0.595  10.580   9.838 -0.1281 -0.0155 -0.3577
  450MOL0     C60635  -0.555  10.478   9.943  0.2237 -0.2177  0.0094
  450MOL0     C60636  -0.666  10.360   9.964 -1.0054 -0.3988  0.5234
  450MOL0     C60637  -0.636  10.252   9.850  0.9239  0.5392  0.1759
  450MOL0     C60638  -0.540  10.138   9.883  0.0142 -0.2651  0.1254
  450MOL0     O60639  -0.542  10.028   9.789 -0.6215 -0.3336 -0.2323
  450MOL0     C60640  -0.464   9.921   9.816 -0.3211  0.4506 -0.4915
  450MOL0     C60641  -0.341   9.933   9.887  1.0167  0.9340  0.1171
  450MOL0     C60642  -0.249   9.832   9.897 -0.9502  0.2617  0.2872
  450MOL0     C60643  -0.280   9.712   9.833 -0.2079  0.1400  0.1440
  450MOL0     C60644  -0.181   9.604   9.847 -0.5242 -0.1518  0.2878
  450MOL0     O60645  -0.205   9.496   9.765 -0.5753  0.9459 -0.5453
  450MOL0     C60646  -0.145   9.370   9.789  0.2422 -0.4651 -0.0710
  450MOL0     C60647  -0.139   9.309   9.913 -0.0574  0.3663 -0.2538
  450MOL0     C60648  -0.091   9.173   9.936 -0.8998 -0.3796 -1.0794
  450MOL0     C60649  -0.050   9.100   9.822  0.0227 -0.0670  0.1680
  450MOL0     O60650  -0.006   8.967   9.826 -0.4489 -0.2586  0.0310
  450MOL0     C60651  -0.095   8.876   9.902 -0.0795 -0.1145  0.2722
  450MOL0     C60652  -0.054   8.730   9.891  0.4575 -0.2183  0.2812
  450MOL0     C60653  -0.026   8.693   9.741 -0.6106  1.1271 -0.0318
  450MOL0     C60654  -0.157   8.636   9.680 -0.0747 -0.0149  0.3158
  450MOL0     C60655  -0.113   8.555   9.554  0.4189 -0.3333 -0.5193
  450MOL0     C60656  -0.221   8.525   9.456  0.4230  0.4437 -0.6192
  450MOL0     C60657  -0.183   8.456   9.323  0.2528  0.8801  0.0250
  450MOL0     C60658  -0.307   8.411   9.242  0.2077 -0.5313 -0.8343
  450MOL0    Cl60659  -0.396   8.550   9.187 -0.1564  0.1063  0.7508
  450MOL0     C60660  -0.047   9.169   9.699  0.7789  0.4310  0.8689
  450MOL0     C60661  -0.099   9.298   9.677 -0.7145 -0.0219  0.2442
  450MOL0     O60662  -0.098   9.609   9.937 -0.1917 -0.7863 -0.1900
  450MOL0     C60663  -0.408   9.697   9.776 -0.0701  1.6550 -0.6951
  450MOL0     C60664  -0.497   9.802   9.768  0.5689  0.0051 -0.2391
  450MOL0     N60665  -0.667  10.698   9.862  0.2968 -0.1192 -0.5147
  450MOL0     N60666  -0.695  10.748   9.750 -0.3230  0.0462  0.2521
  450MOL0     C60667  -0.049  11.569   9.549  0.5244  0.0783  0.0542
  450MOL0     C60668   0.081  11.554   9.595 -0.7080  0.3392 -0.7569
  450MOL0     C60669   0.506  11.444   9.680 -0.7738  0.9655  0.2400
  450MOL0     C60670   0.555  11.358   9.786  0.5853 -0.4787  0.4296
  450MOL0     C60671   0.687  11.317   9.799 -0.3926 -0.1991  0.1225
  450MOL0     C60672   0.774  11.342   9.694  0.5115  0.9183 -0.0533
  450MOL0     O60673   0.898  11.278   9.706  0.3103  0.3417 -0.0818
  450MOL0     C60674   1.000  11.294   9.611  0.2406  1.0325  0.5693
  450MOL0     C60675   1.127  11.221   9.659 -0.3802 -0.0442 -0.0678
  450MOL0     C60676   1.246  11.279   9.575 -0.4255 -0.0230 -0.3869
  450MOL0     C60677   1.383  11.224   9.598  0.0226  0.6347 -0.5903
  450MOL0     C60678   1.485  11.266   9.496 -0.4257 -0.3473 -0.4882
  450MOL0     C60679   1.568  11.313   9.421 -0.6410  0.1271 -0.2020
  450MOL0     C60680   0.728  11.424   9.590 -0.8721  0.2082  0.0035
  450MOL0     C60681   0.602  11.472   9.581 -0.3587 -0.5373 -0.5566
  450MOL0     C60682   0.570  11.569   9.466  0.0857 -0.6583 -0.3122
  450MOL0     H60683   0.248  11.497   9.308 -0.0990  0.9693  1.4815
  450MOL0     H60684  -0.009  11.535   9.216  2.5525 -0.1881 -0.9899
  450MOL0     H60685  -0.357  11.479   9.240  1.1860  2.5191 -0.8729
  450MOL0     H60686  -0.199  11.416   9.247  2.5389  1.7963  2.2357
  450MOL0     H60687  -0.418  11.421   9.466  0.3617  2.1839 -1.7516
  450MOL0     H60688  -0.268  11.350   9.506  0.5251 -0.2072 -0.8621
  450MOL0     H60689  -0.298  11.178   9.318 -0.5789 -1.2148 -0.0208
  450MOL0     H60690  -0.457  11.260   9.280 -2.3469  1.1837  2.1696
  450MOL0     H60691  -0.368  11.140   9.545  2.1975  1.7981 -1.8147
  450MOL0     H60692  -0.532  11.208   9.510  0.6642 -0.1139  0.1919
  450MOL0     H60693  -0.594  10.999   9.416 -0.2725 -4.7397  0.6700
  450MOL0     H60694  -0.445  10.988   9.333 -1.5258 -2.5219  0.4549
  450MOL0     H60695  -0.335  10.922   9.536 -0.0249  3.4669 -0.6932
  450MOL0     H60696  -0.489  10.923   9.611  0.6643 -0.7889  0.0797
  450MOL0     H60697  -0.398  10.701   9.483 -0.6411 -0.2552  3.1087
  450MOL0     H60698  -0.487  10.768   9.346 -2.1712  1.1104  0.0485
  450MOL0     H60699  -0.691  10.805   9.495 -0.7615  0.4049 -0.0854
  450MOL0     H60700  -0.655  10.644   9.441 -2.9488 -0.1155  2.0933
  450MOL0     H60701  -0.483  10.505   9.671 -1.9267 -2.0082 -0.4346
  450MOL0     H60702  -0.462  10.430   9.912  0.5325  0.2691  0.1721
  450MOL0     H60703  -0.535  10.519  10.042 -1.2856 -1.2167  0.7705
  450MOL0     H60704  -0.659  10.314  10.063  0.9142  0.2107  0.7053
  450MOL0     H60705  -0.767  10.398   9.948 -0.3728  0.9296 -0.4696
  450MOL0     H60706  -0.621  10.305   9.756 -1.6229  2.8983  0.9446
  450MOL0     H60707  -0.732  10.205   9.825  0.3731  1.9331 -0.4676
  450MOL0     H60708  -0.548  10.100   9.985  2.8414 -1.4133 -0.0023
  450MOL0     H60709  -0.437  10.175   9.882  0.3252 -1.1142 -0.5383
  450MOL0     H60710  -0.307  10.021   9.940  3.1847 -0.1404  0.5825
  450MOL0     H60711  -0.164   9.853   9.960 -1.0494  1.3898  0.0740
  450MOL0     H60712  -0.201   9.363   9.983 -0.8986  0.2203 -0.8714
  450MOL0     H60713  -0.085   9.133  10.037  5.7017 -0.8417 -1.2481
  450MOL0     H60714  -0.098   8.894  10.010  0.9699 -1.1339  0.5036
  450MOL0     H60715  -0.196   8.893   9.866  0.2887 -0.8286 -1.1881
  450MOL0     H60716   0.044   8.715   9.936  1.4162  0.8244 -1.3477
  450MOL0     H60717  -0.138   8.677   9.938  0.5335 -2.6010 -2.0077
  450MOL0     H60718   0.012   8.767   9.670  0.9451 -0.0691 -0.5233
  450MOL0     H60719   0.050   8.614   9.741 -1.6087  0.0799  2.3826
  450MOL0     H60720  -0.212   8.720   9.636 -1.9455 -1.7622 -0.8848
  450MOL0     H60721  -0.225   8.584   9.748  0.0680  1.2164  1.4338
  450MOL0     H60722  -0.070   8.460   9.587  0.5067 -0.4220 -0.8777
  450MOL0     H60723  -0.037   8.601   9.490 -1.3357  0.1122 -2.4023
  450MOL0     H60724  -0.288   8.458   9.511  4.0252 -0.6902  2.8095
  450MOL0     H60725  -0.269   8.620   9.429 -1.2294 -0.0555  0.3715
  450MOL0     H60726  -0.120   8.367   9.336 -1.7417 -0.3928  1.6600
  450MOL0     H60727  -0.126   8.536   9.276 -2.6597  2.1218 -1.6661
  450MOL0     H60728  -0.276   8.360   9.151 -1.0454 -0.3265 -1.3870
  450MOL0     H60729  -0.380   8.350   9.297  0.2389  1.8468  2.0715
  450MOL0     H60730  -0.010   9.097   9.627  0.1241  0.4911  0.4644
  450MOL0     H60731  -0.099   9.338   9.576  3.5267 -0.9478 -0.3116
  450MOL0     H60732  -0.428   9.601   9.729  0.6336  1.5495 -0.7846
  450MOL0     H60733  -0.594   9.784   9.721 -0.0246 -2.1692  1.6152
  450MOL0     H60734  -0.119  11.585   9.631  1.7049 -1.8086  1.5098
  450MOL0     H60735   0.121  11.590   9.689 -4.4951 -0.7466  1.4936
  450MOL0     H60736   0.486  11.319   9.859 -0.4883 -0.6682 -0.6563
  450MOL0     H60737   0.714  11.249   9.880  2.1017 -0.2062 -0.6331
  450MOL0     H60738   1.014  11.398   9.582 -1.1010  0.1978 -3.8370
  450MOL0     H60739   0.976  11.250   9.513  1.2665  2.0965 -0.1903
  450MOL0     H60740   1.120  11.113   9.648  0.5141 -0.2339  0.9975
  450MOL0     H60741   1.141  11.246   9.765  1.6527  0.5460 -0.4321
  450MOL0     H60742   1.262  11.384   9.601 -2.8875  0.0700  1.0661
  450MOL0     H60743   1.223  11.264   9.469  1.6862  2.4114 -1.2981
  450MOL0     H60744   1.416  11.254   9.697  4.4885  0.3931 -1.7818
  450MOL0     H60745   1.385  11.115   9.609  1.5634  0.8412  2.0276
  450MOL0     H60746   1.652  11.334   9.357 -3.0003  0.1041 -3.5533
  450MOL0     H60747   0.791  11.458   9.507 -1.1994  1.5488  0.2802
  450MOL0     H60748   0.505  11.513   9.398  0.0779  0.8111 -1.5464
  450MOL0     H60749   0.527  11.663   9.502  1.5292 -0.6967  1.6784
  450MOL0     H60750   0.662  11.603   9.417  0.2091 -0.3737  0.1162
  451MOL0     O60751   0.615   8.936   8.000  0.7005  0.2056 -0.4111
  451MOL0     C60752   0.670   9.013   8.081  0.6233 -0.5700 -0.3611
  451MOL0     O60753   0.610   9.139   8.119 -0.2265 -0.0841 -0.2703
  451MOL0     C60754   0.476   9.159   8.080 -0.8056  0.1270  0.1009
  451MOL0     C60755   0.379   9.195   8.172 -0.6087  0.0608  0.2548
  451MOL0     C60756   0.243   9.197   8.158  0.8314  0.3185  0.2912
  451MOL0     C60757   0.199   9.188   8.025 -0.7243 -0.2877  0.8810
  451MOL0     O60758   0.068   9.211   7.981  0.0236  0.1084 -0.4998
  451MOL0     C60759  -0.024   9.220   8.090 -0.1861 -0.6762  0.2795
  451MOL0     C60760  -0.167   9.248   8.039 -0.0913  0.3108 -0.2434
  451MOL0     C60761  -0.224   9.137   7.950 -0.1695  0.0429 -0.6655
  451MOL0     C60762  -0.245   9.004   8.027  0.2735  0.0591 -0.9571
  451MOL0     C60763  -0.384   9.000   8.102 -0.3507  0.6724  0.4077
  451MOL0     C60764  -0.509   8.957   8.017  0.3592  1.1756  0.7148
  451MOL0     C60765  -0.509   8.808   7.980  0.4245  0.1492 -0.1572
  451MOL0     C60766  -0.642   8.757   7.938 -0.5516 -0.0399  0.2668
  451MOL0     N60767  -0.632   8.632   7.865  0.2903 -0.4045  0.6315
  451MOL0     C60768  -0.547   8.602   7.767 -0.6997  0.3061  0.3288
  451MOL0     C60769  -0.596   8.482   7.724 -0.4028 -0.0113 -0.0235
  451MOL0     C60770  -0.538   8.392   7.614 -0.4586 -0.4262 -0.2603
  451MOL0     C60771  -0.426   8.302   7.667 -0.8570 -0.1508 -0.4649
  451MOL0     C60772  -0.448   8.186   7.781  0.6284  0.0499  0.4274
  451MOL0     C60773  -0.547   8.074   7.746 -0.0613 -0.2360 -0.0462
  451MOL0     O60774  -0.675   8.128   7.765  0.3452  0.4207 -0.5994
  451MOL0     C60775  -0.780   8.078   7.691  0.2744  0.1277 -0.5067
  451MOL0     C60776  -0.821   7.937   7.686  0.1644 -0.5203  0.6645
  451MOL0     C60777  -0.921   7.900   7.604  0.6594  0.1719 -0.3253
  451MOL0     C60778  -0.995   7.994   7.528  0.1549 -0.5215 -0.4468
  451MOL0     C60779  -1.111   7.959   7.434 -0.3592 -0.0147 -1.0129
  451MOL0     O60780  -1.215   8.053   7.430 -0.6510  0.1408  0.2125
  451MOL0     C60781  -1.318   8.023   7.338 -0.3124 -0.3647 -0.5298
  451MOL0     C60782  -1.308   8.045   7.205  0.5663  0.6799  0.1474
  451MOL0     C60783  -1.425   8.022   7.120 -0.0615 -0.3502  0.5303
  451MOL0     C60784  -1.544   7.977   7.180  0.6565 -0.9665 -0.7973
  451MOL0     O60785  -1.664   7.965   7.112 -0.0255  0.3713  0.0933
  451MOL0     C60786  -1.664   7.955   6.967 -0.1859  0.3994 -0.5825
  451MOL0     C60787  -1.686   8.085   6.892  0.2965 -0.4332  0.5540
  451MOL0     C60788  -1.657   8.065   6.745 -0.1855 -0.7759 -0.4935
  451MOL0     C60789  -1.753   7.986   6.672  0.5467 -0.7679  0.2416
  451MOL0     C60790  -1.727   7.999   6.526 -1.3284 -0.3103  0.5293
  451MOL0     C60791  -1.627   7.903   6.472 -0.7239  0.9751 -0.3893
  451MOL0     C60792  -1.570   7.940   6.340  0.0196 -1.1647  0.0080
  451MOL0     C60793  -1.675   7.920   6.227 -0.5867 -0.5037 -0.9358
  451MOL0    Cl60794  -1.750   8.083   6.198  0.6204 -0.1098  0.1180
  451MOL0     C60795  -1.542   7.949   7.317 -0.3017  0.5356  0.0651
  451MOL0     C60796  -1.429   7.976   7.393 -0.2519  0.0122 -0.7172
  451MOL0     O60797  -1.096   7.866   7.351  0.7495  0.5367 -0.1302
  451MOL0     C60798  -0.964   8.133   7.540  0.4769 -0.4225 -0.4924
  451MOL0     C60799  -0.863   8.171   7.631 -0.2598 -0.3646  0.0518
  451MOL0     N60800  -0.706   8.446   7.800 -0.1680  0.5106  0.8257
  451MOL0     N60801  -0.722   8.538   7.886 -0.2413 -0.5704 -0.9637
  451MOL0     C60802   0.295   9.173   7.923  1.1833 -0.4565  0.0575
  451MOL0     C60803   0.431   9.153   7.952 -0.2247 -0.0094 -0.6125
  451MOL0     C60804   0.811   8.983   8.129  0.3239  0.4337 -0.0042
  451MOL0     C60805   0.896   9.087   8.177 -0.2674  0.0135 -0.0733
  451MOL0     C60806   1.027   9.057   8.214  0.5549  0.6307 -0.4410
  451MOL0     C60807   1.082   8.926   8.210  0.1202 -0.0533  0.5397
  451MOL0     O60808   1.212   8.881   8.228  0.1611 -0.7289 -0.3407
  451MOL0     C60809   1.312   8.971   8.291  1.1767 -0.4243  0.5232
  451MOL0     C60810   1.308   8.960   8.443 -0.0907  0.0260  0.0683
  451MOL0     C60811   1.438   8.915   8.517 -1.0229 -0.1981 -0.3717
  451MOL0     C60812   1.494   8.785   8.454  0.6670  0.2419  0.2735
  451MOL0     C60813   1.586   8.719   8.544  0.0498 -0.1289  0.0377
  451MOL0     C60814   1.654   8.652   8.620  0.2650  1.0423  0.4409
  451MOL0     C60815   0.998   8.827   8.161  0.4804 -0.0660  0.6020
  451MOL0     C60816   0.860   8.847   8.132 -0.7239 -0.2149 -1.0559
  451MOL0     C60817   0.776   8.718   8.089 -0.3323 -0.8618 -0.1770
  451MOL0     H60818   0.411   9.217   8.273 -0.6766 -0.3945  0.3759
  451MOL0     H60819   0.183   9.232   8.240  1.1369 -0.5037  0.8813
  451MOL0     H60820  -0.015   9.132   8.153  1.7316 -1.2615 -0.7054
  451MOL0     H60821   0.001   9.311   8.145  1.8444  1.3957 -3.6496
  451MOL0     H60822  -0.176   9.347   7.994  1.4297  0.0098 -1.2542
  451MOL0     H60823  -0.238   9.253   8.123  0.0722  0.6660 -0.1217
  451MOL0     H60824  -0.171   9.116   7.857 -1.7826 -2.3818 -1.1209
  451MOL0     H60825  -0.325   9.173   7.925 -1.0468 -0.0675  2.3359
  451MOL0     H60826  -0.225   8.916   7.965 -0.1612  0.9235 -2.3807
  451MOL0     H60827  -0.166   8.994   8.102 -1.5988  0.2819  1.1386
  451MOL0     H60828  -0.403   8.917   8.171 -3.8609 -2.1578 -3.4448
  451MOL0     H60829  -0.399   9.098   8.148  1.0772  0.4633  1.3540
  451MOL0     H60830  -0.599   8.987   8.073 -0.3747  4.1560 -1.7816
  451MOL0     H60831  -0.522   9.011   7.923 -0.5579 -0.9270 -0.4218
  451MOL0     H60832  -0.486   8.746   8.068 -0.7722 -0.9089 -0.5672
  451MOL0     H60833  -0.429   8.790   7.908 -2.9821 -0.9093 -4.0398
  451MOL0     H60834  -0.686   8.727   8.034 -2.1064  2.5500  0.4497
  451MOL0     H60835  -0.709   8.826   7.886  2.4709  0.6988 -3.0016
  451MOL0     H60836  -0.454   8.653   7.746 -0.4746 -0.2100  0.0386
  451MOL0     H60837  -0.620   8.328   7.580  0.5336 -2.9033  1.6696
  451MOL0     H60838  -0.506   8.454   7.530 -3.2039  0.1698 -0.9376
  451MOL0     H60839  -0.366   8.263   7.584 -1.9462 -1.6659 -0.5766
  451MOL0     H60840  -0.362   8.369   7.725  1.1151 -2.5767  0.3276
  451MOL0     H60841  -0.491   8.232   7.871 -1.4653 -1.2314  0.1370
  451MOL0     H60842  -0.348   8.146   7.801  1.3262 -1.1675 -4.3163
  451MOL0     H60843  -0.520   7.975   7.783  1.6789  0.0753 -0.3899
  451MOL0     H60844  -0.543   8.051   7.639  2.9058 -1.0881  0.1728
  451MOL0     H60845  -0.769   7.865   7.748  2.2275 -0.8003 -1.2236
  451MOL0     H60846  -0.968   7.802   7.605 -0.9067  0.7933 -2.9802
  451MOL0     H60847  -1.212   8.080   7.166  1.9599 -2.6755  0.2075
  451MOL0     H60848  -1.416   8.047   7.015  0.3621  2.5028  1.1630
  451MOL0     H60849  -1.567   7.912   6.940  0.4450  1.3682  0.0826
  451MOL0     H60850  -1.749   7.891   6.942 -1.4000  1.0379  1.7141
  451MOL0     H60851  -1.791   8.112   6.901 -0.7604 -3.1222 -1.9402
  451MOL0     H60852  -1.619   8.163   6.930  0.8882 -0.6251 -0.0866
  451MOL0     H60853  -1.658   8.163   6.696  3.3066 -1.1534 -1.6310
  451MOL0     H60854  -1.558   8.023   6.722 -0.0694  0.0955 -1.7019
  451MOL0     H60855  -1.862   7.999   6.681  0.3085 -2.2768 -0.2375
  451MOL0     H60856  -1.746   7.879   6.693  2.5429 -0.4503  1.3759
  451MOL0     H60857  -1.705   8.103   6.502  0.6236 -0.9489 -0.5999
  451MOL0     H60858  -1.819   7.961   6.480  1.4751 -3.6911 -2.9168
  451MOL0     H60859  -1.542   7.873   6.533 -2.2617  0.5258  1.6347
  451MOL0     H60860  -1.662   7.802   6.446  1.0413  0.1482  0.3242
  451MOL0     H60861  -1.478   7.886   6.317  0.8765  0.8495 -1.7334
  451MOL0     H60862  -1.534   8.044   6.347  0.0278 -1.2429  5.5549
  451MOL0     H60863  -1.626   7.888   6.135  2.6263 -0.9225  0.7954
  451MOL0     H60864  -1.744   7.840   6.256  2.8845 -2.7925  1.8227
  451MOL0     H60865  -1.638   7.913   7.353  0.0753 -1.0697 -0.4771
  451MOL0     H60866  -1.437   7.969   7.502  1.8181  0.9818 -0.4580
  451MOL0     H60867  -1.025   8.206   7.488  0.3244 -1.6350 -2.1125
  451MOL0     H60868  -0.846   8.275   7.656  4.0534 -1.3365  2.2824
  451MOL0     H60869   0.259   9.149   7.823  1.5092 -0.0190 -0.1647
  451MOL0     H60870   0.499   9.126   7.872 -0.6255 -0.8994 -0.6666
  451MOL0     H60871   0.873   9.192   8.194  1.5806  0.1184  2.1570
  451MOL0     H60872   1.086   9.144   8.242  0.1484  1.1090 -1.0403
  451MOL0     H60873   1.298   9.075   8.260  1.7826 -1.6560 -4.7919
  451MOL0     H60874   1.414   8.948   8.261  1.1498 -3.0166  2.1361
  451MOL0     H60875   1.230   8.888   8.471 -1.8038  0.8256 -2.3271
  451MOL0     H60876   1.271   9.049   8.496 -0.3190 -1.7490  3.1322
  451MOL0     H60877   1.413   8.897   8.622  0.0191 -0.9606 -0.2389
  451MOL0     H60878   1.502   9.004   8.513 -0.4744 -0.5804 -0.1982
  451MOL0     H60879   1.402   8.730   8.430 -0.9863  2.5801  0.8687
  451MOL0     H60880   1.552   8.808   8.364  2.5457  1.0707  1.6305
  451MOL0     H60881   1.697   8.580   8.688  0.9104 -0.8559 -1.8116
  451MOL0     H60882   1.032   8.726   8.140  4.1016  0.8611  1.3936
  451MOL0     H60883   0.769   8.708   7.980 -1.6148 -0.3360 -0.1640
  451MOL0     H60884   0.835   8.633   8.125  2.8195  1.3741  0.3354
  451MOL0     H60885   0.673   8.699   8.123 -0.7964 -1.0099 -1.5764
  452MOL0     O60886   5.093   6.504   6.420  0.1779 -0.1573  0.1924
  452MOL0     C60887   5.117   6.477   6.304  0.1430  0.3448 -0.3020
  452MOL0     O60888   5.159   6.563   6.209 -0.1375 -0.6390 -0.0975
  452MOL0     C60889   5.060   6.638   6.144 -0.4347  0.0383 -0.6785
  452MOL0     C60890   5.085   6.675   6.016 -0.7142 -0.3033  0.8475
  452MOL0     C60891   4.996   6.752   5.940  0.0243  1.0052 -0.0260
  452MOL0     C60892   4.881   6.804   6.001  0.0654 -0.3206 -0.4236
  452MOL0     O60893   4.794   6.863   5.911  0.1516  0.6583 -0.1546
  452MOL0     C60894   4.743   6.998   5.949 -0.8663  0.5284  1.0134
  452MOL0     C60895   4.760   7.101   5.840  0.1657  0.6293  0.5151
  452MOL0     C60896   4.755   7.242   5.889 -0.4271  0.1385 -0.3567
  452MOL0     C60897   4.627   7.286   5.969  0.1839  0.4246  0.1822
  452MOL0     C60898   4.659   7.409   6.050 -0.3831 -0.3174 -1.3035
  452MOL0     C60899   4.529   7.453   6.117 -0.1310  0.5158 -0.0529
  452MOL0     C60900   4.536   7.591   6.193 -0.2006  0.4688  0.1709
  452MOL0     C60901   4.621   7.584   6.315  0.3138 -0.3295  0.0179
  452MOL0     N60902   4.570   7.491   6.415  0.3792  0.1663 -0.0162
  452MOL0     C60903   4.455   7.505   6.498 -0.0376  0.1816 -0.3097
  452MOL0     C60904   4.436   7.382   6.560 -0.2791 -0.4044  0.1255
  452MOL0     C60905   4.328   7.339   6.649 -0.1691 -0.3883  0.2688
  452MOL0     C60906   4.354   7.298   6.788 -0.2563  0.8038 -0.3774
  452MOL0     C60907   4.313   7.147   6.820  0.3108 -0.6422  0.2023
  452MOL0     C60908   4.291   7.139   6.980 -0.1503  0.5817  0.3541
  452MOL0     O60909   4.245   7.009   7.028 -0.2657 -0.0044 -0.2545
  452MOL0     C60910   4.112   6.987   7.044 -1.2595 -0.3050  0.2610
  452MOL0     C60911   4.071   6.884   7.136  0.5345 -0.3357 -0.4344
  452MOL0     C60912   3.934   6.864   7.167  0.0127  0.0200  0.8009
  452MOL0     C60913   3.840   6.946   7.102 -0.5945  0.2362 -1.9051
  452MOL0     C60914   3.691   6.938   7.138  0.6160  0.2965 -0.1823
  452MOL0     O60915   3.597   6.983   7.038  0.2314 -0.2383  0.5247
  452MOL0     C60916   3.465   6.958   7.063 -0.5974  0.3434  0.2376
  452MOL0     C60917   3.428   6.826   7.083  0.6633  0.6722  0.1044
  452MOL0     C60918   3.296   6.789   7.129 -0.3100 -0.6445  0.6012
  452MOL0     C60919   3.203   6.895   7.148 -0.1198 -0.4260 -0.4587
  452MOL0     O60920   3.080   6.873   7.204  0.4897 -0.3064  0.3146
  452MOL0     C60921   2.982   6.978   7.196 -0.3860 -0.2336 -0.3727
  452MOL0     C60922   2.843   6.953   7.245 -0.2778 -0.4320  0.1223
  452MOL0     C60923   2.831   6.982   7.388 -0.8926 -0.3675 -0.8381
  452MOL0     C60924   2.686   6.963   7.434  0.5460 -0.5081 -0.2830
  452MOL0     C60925   2.660   7.042   7.562 -0.5400  0.5336 -1.3649
  452MOL0     C60926   2.510   7.032   7.599 -1.1295  0.3874  0.5104
  452MOL0     C60927   2.483   6.896   7.664  0.6090  0.3586 -0.4342
  452MOL0     C60928   2.362   6.907   7.767 -0.2779 -0.1245 -0.4161
  452MOL0    Cl60929   2.220   6.926   7.668 -0.5369 -0.3764  0.4126
  452MOL0     C60930   3.243   7.033   7.135 -0.7463 -0.2290  0.9967
  452MOL0     C60931   3.374   7.053   7.084  0.3508 -0.3092  0.2646
  452MOL0     O60932   3.661   6.860   7.228  0.2271 -0.0184 -0.7717
  452MOL0     C60933   3.874   7.043   7.013  0.4142  0.4183  0.9172
  452MOL0     C60934   4.010   7.063   6.978  0.6088 -0.3151 -0.6781
  452MOL0     N60935   4.539   7.300   6.513 -0.2812  0.4932 -1.0822
  452MOL0     N60936   4.608   7.364   6.424  0.3238  0.4328  0.0238
  452MOL0     C60937   4.845   6.766   6.136 -0.2096 -0.3383  0.2526
  452MOL0     C60938   4.940   6.688   6.208 -0.6856  0.5264  0.5499
  452MOL0     C60939   5.102   6.335   6.254  0.0719  0.7648  0.4911
  452MOL0     C60940   5.009   6.259   6.313 -0.7835  0.0134 -0.7233
  452MOL0     C60941   4.976   6.130   6.268 -1.3573 -0.0889 -0.7145
  452MOL0     C60942   5.052   6.077   6.159 -0.4504 -0.4728  0.1283
  452MOL0     O60943   5.013   5.950   6.118 -0.0090  0.4618 -0.2127
  452MOL0     C60944   5.061   5.895   5.998  0.5736 -0.0576 -0.7036
  452MOL0     C60945   5.190   5.814   6.020 -0.8395  0.1870 -0.4304
  452MOL0     C60946   5.155   5.693   6.125  0.2371 -0.5416  0.1655
  452MOL0     C60947   5.082   5.575   6.056 -0.8527  0.9976  0.5671
  452MOL0     C60948   5.133   5.447   6.102 -0.5080  0.2804 -0.0651
  452MOL0     C60949   5.172   5.335   6.129 -1.0132 -0.4179  0.0312
  452MOL0     C60950   5.150   6.155   6.101 -0.0022  0.0227 -0.6210
  452MOL0     C60951   5.179   6.279   6.138 -0.2806 -0.0485  0.2736
  452MOL0     C60952   5.281   6.362   6.062 -0.6769  0.4047  0.1471
  452MOL0     H60953   5.186   6.662   5.979 -1.5066  0.8988 -1.9975
  452MOL0     H60954   5.016   6.759   5.833 -2.1487 -2.4883 -0.8217
  452MOL0     H60955   4.641   6.984   5.986 -1.3163 -1.9894 -0.9156
  452MOL0     H60956   4.812   7.027   6.028 -0.9391 -0.3680  1.4183
  452MOL0     H60957   4.680   7.074   5.772 -1.1288 -3.3683  3.2800
  452MOL0     H60958   4.859   7.091   5.794 -0.5988 -2.4193 -0.6644
  452MOL0     H60959   4.766   7.310   5.804  3.1644  0.1742 -0.0249
  452MOL0     H60960   4.843   7.258   5.952  0.3999 -0.0891 -1.4224
  452MOL0     H60961   4.549   7.301   5.893  0.8124  2.0887 -0.1706
  452MOL0     H60962   4.607   7.200   6.034 -0.2886  0.9429  0.7350
  452MOL0     H60963   4.727   7.389   6.133  2.5640  1.3406 -3.1220
  452MOL0     H60964   4.715   7.489   5.999 -0.0967  0.8695  0.7518
  452MOL0     H60965   4.449   7.442   6.044 -0.0862  0.0298 -0.0298
  452MOL0     H60966   4.508   7.383   6.198 -1.1264 -1.9943 -2.3443
  452MOL0     H60967   4.438   7.627   6.224 -0.5312 -0.8984  0.7908
  452MOL0     H60968   4.584   7.660   6.123  1.0201 -1.0666 -0.5901
  452MOL0     H60969   4.722   7.549   6.294  0.4118 -2.2383  3.0585
  452MOL0     H60970   4.623   7.680   6.369 -1.5402 -1.5021  2.3706
  452MOL0     H60971   4.402   7.599   6.509  1.5706  1.5175 -2.8586
  452MOL0     H60972   4.266   7.428   6.658  1.4343  0.6115  2.1877
  452MOL0     H60973   4.283   7.260   6.587  0.0487  0.5860 -1.1882
  452MOL0     H60974   4.461   7.313   6.806  0.5395 -2.2080 -1.9809
  452MOL0     H60975   4.297   7.367   6.851  2.3468  0.9162  2.1077
  452MOL0     H60976   4.388   7.073   6.790 -1.6834 -2.6692 -0.0668
  452MOL0     H60977   4.214   7.135   6.775  1.1586  0.3270 -2.0328
  452MOL0     H60978   4.220   7.216   7.011 -2.4697 -0.6459 -1.5328
  452MOL0     H60979   4.392   7.156   7.019 -0.6395 -2.4893  3.4841
  452MOL0     H60980   4.147   6.823   7.183 -1.0290 -1.7604  0.3219
  452MOL0     H60981   3.901   6.793   7.242  1.4793 -1.2938  0.2453
  452MOL0     H60982   3.492   6.739   7.081 -1.5858 -1.0896 -0.2497
  452MOL0     H60983   3.274   6.685   7.153 -1.1248 -0.9384 -1.2668
  452MOL0     H60984   3.018   7.069   7.246  0.7003  0.5638 -2.4725
  452MOL0     H60985   2.976   7.008   7.091 -1.6674  0.6249 -0.0881
  452MOL0     H60986   2.776   7.016   7.185  0.4077  0.7005  0.5052
  452MOL0     H60987   2.806   6.854   7.216  0.1950 -0.3759 -0.6902
  452MOL0     H60988   2.879   6.910   7.455 -3.3325 -1.2707  0.0464
  452MOL0     H60989   2.879   7.077   7.414  2.4692 -1.3494 -2.8381
  452MOL0     H60990   2.658   6.858   7.431 -0.6681 -0.1923 -3.1748
  452MOL0     H60991   2.618   7.008   7.361  0.7806  0.3324 -0.0061
  452MOL0     H60992   2.695   7.145   7.578 -0.5147  0.0946  2.4646
  452MOL0     H60993   2.713   6.992   7.644 -3.3946 -1.0786 -0.3619
  452MOL0     H60994   2.498   7.116   7.669  0.5912  2.5529 -1.6523
  452MOL0     H60995   2.450   7.050   7.509 -1.2830 -1.1821  0.2674
  452MOL0     H60996   2.574   6.865   7.717 -1.2299  0.9677  3.4761
  452MOL0     H60997   2.463   6.820   7.588 -1.3304 -0.9748  1.2799
  452MOL0     H60998   2.358   6.826   7.841 -3.1606 -0.7710 -1.1824
  452MOL0     H60999   2.370   6.997   7.829 -0.7861 -2.1431  2.8496
  452MOL0     H61000   3.186   7.124   7.150  0.7626  1.5903 -2.9684
  452MOL0     H61001   3.406   7.155   7.061 -2.2557  0.1514 -1.7930
  452MOL0     H61002   3.802   7.107   6.962 -0.0724 -0.7902  0.0515
  452MOL0     H61003   4.029   7.150   6.916  0.4408  1.4230  1.5916
  452MOL0     H61004   4.753   6.805   6.179  0.8004  0.9836  1.3069
  452MOL0     H61005   4.913   6.647   6.305 -1.3820 -3.2083 -1.0354
  452MOL0     H61006   4.943   6.307   6.385  0.9079 -0.7538  1.4527
  452MOL0     H61007   4.893   6.074   6.311 -1.6323  1.1781  0.4737
  452MOL0     H61008   5.079   5.974   5.924  1.6730 -1.5372 -2.0816
  452MOL0     H61009   4.981   5.841   5.947 -0.9531  0.0289  1.4484
  452MOL0     H61010   5.268   5.872   6.071 -2.3176  1.2191  0.7373
  452MOL0     H61011   5.223   5.768   5.926 -1.8558 -2.9681  0.6551
  452MOL0     H61012   5.085   5.706   6.208 -1.7424 -3.2098 -0.9162
  452MOL0     H61013   5.253   5.665   6.163  0.4348  0.7230  0.6366
  452MOL0     H61014   4.973   5.571   6.061 -0.7763  0.2112  2.8799
  452MOL0     H61015   5.109   5.580   5.950 -4.2025  0.2428 -0.4249
  452MOL0     H61016   5.187   5.231   6.150 -2.0064 -0.9543 -1.7141
  452MOL0     H61017   5.194   6.119   6.008  0.0418 -0.0904 -0.5568
  452MOL0     H61018   5.351   6.298   6.007  0.3088  0.8390  0.8627
  452MOL0     H61019   5.242   6.440   5.997  0.3890  0.6268 -0.2604
  452MOL0     H61020   5.350   6.421   6.123  1.1219 -0.0902 -1.2926
  453MOL0     O61021  10.087  10.832   5.709 -0.0886  0.3961 -0.1546
  453MOL0     C61022  10.209  10.828   5.751  1.2734  0.4963 -0.7154
  453MOL0     O61023  10.270  10.715   5.803 -0.1655 -0.1881  0.2993
  453MOL0     C61024  10.202  10.606   5.843 -0.7925  0.8548 -1.0780
  453MOL0     C61025  10.234  10.475   5.797 -0.3844 -0.8689 -0.3521
  453MOL0     C61026  10.181  10.361   5.861 -0.3414 -0.3467  0.4187
  453MOL0     C61027  10.088  10.371   5.957 -0.2568  0.9707  0.2788
  453MOL0     O61028  10.036  10.253   6.010  0.3515 -0.4307  0.0198
  453MOL0     C61029   9.951  10.247   6.116  0.2252  0.6931 -0.2591
  453MOL0     C61030  10.031  10.191   6.239 -0.3341 -0.2143  0.0809
  453MOL0     C61031  10.120  10.075   6.212  0.8314  0.4614 -0.3917
  453MOL0     C61032  10.060   9.969   6.112 -0.1592 -0.4357 -0.2927
  453MOL0     C61033  10.134   9.841   6.124  0.0939 -0.2228  0.0621
  453MOL0     C61034  10.275   9.869   6.080 -0.6723 -0.4848  0.0953
  453MOL0     C61035  10.333   9.731   6.052 -0.0339  0.1410  0.3250
  453MOL0     C61036  10.489   9.737   6.042  0.5544 -1.0333 -0.0956
  453MOL0     N61037  10.549   9.808   5.926  0.5111 -0.3532  0.4297
  453MOL0     C61038  10.505   9.786   5.798 -0.2416  0.0480 -0.1376
  453MOL0     C61039  10.579   9.865   5.720 -0.9469  0.7156  0.0563
  453MOL0     C61040  10.587   9.882   5.568 -0.8536 -0.6939 -0.0881
  453MOL0     C61041  10.655   9.760   5.505  0.1906 -0.2780 -0.5586
  453MOL0     C61042  10.637   9.766   5.348  0.8095 -0.1229  0.9796
  453MOL0     C61043  10.656   9.619   5.294  0.5930 -0.1996 -0.0286
  453MOL0     O61044  10.570   9.517   5.352 -0.3228 -0.5695 -0.0730
  453MOL0     C61045  10.438   9.531   5.308  0.2964  0.0508 -0.6763
  453MOL0     C61046  10.394   9.614   5.205 -0.7647  0.0338  0.3561
  453MOL0     C61047  10.258   9.612   5.158 -1.0944  0.0783  0.6663
  453MOL0     C61048  10.169   9.524   5.225 -0.1491  0.0092  0.0071
  453MOL0     C61049  10.028   9.517   5.185 -0.5175 -0.0052  0.7708
  453MOL0     O61050   9.948   9.429   5.260  0.4384  0.7775  0.4312
  453MOL0     C61051   9.810   9.442   5.254 -0.0812  0.2194 -0.6351
  453MOL0     C61052   9.748   9.458   5.376  1.1930  0.6719 -0.4337
  453MOL0     C61053   9.613   9.491   5.383 -0.3512 -0.2170  0.4731
  453MOL0     C61054   9.536   9.489   5.261 -0.7365  0.1468  0.4403
  453MOL0     O61055   9.401   9.512   5.268  0.4888  0.5691 -0.1499
  453MOL0     C61056   9.341   9.615   5.348  1.5783  0.6708  0.6561
  453MOL0     C61057   9.269   9.549   5.470 -0.2601  0.7113  0.0762
  453MOL0     C61058   9.211   9.661   5.556  0.2629  0.1808 -0.1191
  453MOL0     C61059   9.305   9.757   5.624  0.0187 -0.6927 -0.0192
  453MOL0     C61060   9.410   9.699   5.727  0.5110 -0.2795  0.8066
  453MOL0     C61061   9.331   9.617   5.827 -0.6283  0.8785 -0.6210
  453MOL0     C61062   9.425   9.583   5.939 -0.1561  0.5905  0.0331
  453MOL0     C61063   9.385   9.479   6.040  0.3539  0.1610  0.2380
  453MOL0    Cl61064   9.457   9.494   6.207 -0.1858  0.3330 -0.1005
  453MOL0     C61065   9.593   9.460   5.137 -0.6946 -0.2476  0.9647
  453MOL0     C61066   9.729   9.445   5.133 -0.0639 -0.3542  0.5049
  453MOL0     O61067   9.981   9.601   5.105 -0.2364  0.5780 -0.1358
  453MOL0     C61068  10.215   9.441   5.327  0.5189 -0.2071  0.1402
  453MOL0     C61069  10.348   9.447   5.369 -0.3675  0.3041 -0.7353
  453MOL0     N61070  10.653   9.948   5.803 -0.4108 -0.2487 -0.2431
  453MOL0     N61071  10.637   9.915   5.929  0.9110 -0.7659  0.0055
  453MOL0     C61072  10.046  10.499   6.001 -0.6814  0.2799  0.1312
  453MOL0     C61073  10.108  10.609   5.945  0.3954 -1.2647  0.5590
  453MOL0     C61074  10.276  10.964   5.758 -0.0723  0.2919 -0.7938
  453MOL0     C61075  10.364  10.994   5.858  0.2262  1.1412 -0.3581
  453MOL0     C61076  10.420  11.122   5.879 -0.7826 -0.2800  0.4608
  453MOL0     C61077  10.376  11.231   5.802  0.4373 -1.2830 -1.2934
  453MOL0     O61078  10.440  11.349   5.823  0.4031  0.3432 -0.0816
  453MOL0     C61079  10.364  11.448   5.883 -0.4744 -0.4819  0.5922
  453MOL0     C61080  10.434  11.576   5.853  1.6487 -0.1163  0.1792
  453MOL0     C61081  10.348  11.705   5.874  0.2306  0.3756  0.1889
  453MOL0     C61082  10.419  11.801   5.977  0.5484 -0.7450  0.3144
  453MOL0     C61083  10.352  11.933   5.976 -0.2910  0.8174 -0.2444
  453MOL0     C61084  10.299  12.037   5.983 -1.1181 -0.4460 -0.4643
  453MOL0     C61085  10.283  11.210   5.697 -0.6405 -0.7990 -0.9282
  453MOL0     C61086  10.234  11.072   5.678  0.0817  0.5355  0.5580
  453MOL0     C61087  10.150  11.046   5.553  0.1656 -0.2580 -0.4441
  453MOL0     H61088  10.313  10.467   5.723  1.3703  1.6645  1.0727
  453MOL0     H61089  10.208  10.266   5.818  1.2193  0.1823  0.1630
  453MOL0     H61090   9.911  10.343   6.149  0.9845  0.8343  0.2682
  453MOL0     H61091   9.873  10.171   6.106  2.0939 -1.6487  1.7739
  453MOL0     H61092   9.957  10.146   6.307 -0.2327 -4.2852 -2.1989
  453MOL0     H61093  10.098  10.263   6.285  1.5348 -2.4462  1.0800
  453MOL0     H61094  10.140  10.029   6.309 -1.0084 -2.9127 -1.4425
  453MOL0     H61095  10.211  10.113   6.165  1.0043 -2.9910 -3.2409
  453MOL0     H61096   9.954   9.954   6.136 -0.3355  2.4721  1.1326
  453MOL0     H61097  10.059  10.017   6.014  0.5380  1.6984  0.6816
  453MOL0     H61098  10.130   9.815   6.230  4.2737  2.3738  1.1039
  453MOL0     H61099  10.081   9.765   6.067  0.0996  0.1845 -0.4916
  453MOL0     H61100  10.290   9.936   5.995 -0.4714 -0.9007 -0.2007
  453MOL0     H61101  10.320   9.927   6.161 -1.4223  0.2328  0.0116
  453MOL0     H61102  10.289   9.697   5.958  0.4956 -1.3118  0.5763
  453MOL0     H61103  10.304   9.660   6.129 -0.2595 -0.6780 -0.4976
  453MOL0     H61104  10.530   9.775   6.136 -2.0138  1.5157  0.1528
  453MOL0     H61105  10.522   9.635   6.023 -0.9619 -1.5681 -0.0269
  453MOL0     H61106  10.433   9.711   5.768  1.0303 -1.2088 -0.1448
  453MOL0     H61107  10.487   9.900   5.528 -1.2839  0.0118  1.2434
  453MOL0     H61108  10.644   9.973   5.544 -0.9160 -0.6229  0.0301
  453MOL0     H61109  10.762   9.750   5.527  0.3309 -0.2993 -1.2503
  453MOL0     H61110  10.606   9.667   5.534  1.7665 -1.2762 -0.9970
  453MOL0     H61111  10.703   9.840   5.302 -2.6020  2.6826  0.1952
  453MOL0     H61112  10.535   9.799   5.326  0.9586 -0.1895  0.1567
  453MOL0     H61113  10.761   9.596   5.317  1.6413  0.1754 -3.8233
  453MOL0     H61114  10.657   9.609   5.185  0.6212  1.3825 -0.1860
  453MOL0     H61115  10.458   9.690   5.162  0.3480  0.3304  2.4549
  453MOL0     H61116  10.228   9.678   5.076 -0.5174 -0.1576  0.2566
  453MOL0     H61117   9.810   9.444   5.464 -0.1818 -0.1602  0.4360
  453MOL0     H61118   9.577   9.527   5.479  0.1315 -0.1008  0.6156
  453MOL0     H61119   9.418   9.683   5.386  1.0902  1.7774 -0.2921
  453MOL0     H61120   9.263   9.674   5.299 -1.7279 -2.9164  1.1257
  453MOL0     H61121   9.202   9.469   5.436  1.1945 -0.7117  0.4495
  453MOL0     H61122   9.339   9.496   5.535  0.1335  2.3020  1.0051
  453MOL0     H61123   9.133   9.706   5.495 -2.3396 -1.4546  1.8058
  453MOL0     H61124   9.158   9.615   5.640 -0.2706 -0.1152 -0.6112
  453MOL0     H61125   9.242   9.831   5.674 -1.8962  2.6726 -6.3448
  453MOL0     H61126   9.357   9.826   5.557  3.5687  1.2339  4.2112
  453MOL0     H61127   9.473   9.772   5.780 -3.6975  2.1996  2.9033
  453MOL0     H61128   9.478   9.639   5.665  1.1400  2.5464 -1.4449
  453MOL0     H61129   9.243   9.672   5.863 -1.4891 -1.2098  0.6190
  453MOL0     H61130   9.296   9.524   5.781  0.0388  0.4077 -0.1883
  453MOL0     H61131   9.447   9.669   6.003  4.1766  0.9147 -1.5229
  453MOL0     H61132   9.522   9.554   5.898 -0.0836  1.5679 -0.5325
  453MOL0     H61133   9.276   9.477   6.049  0.3075  1.7257  0.2888
  453MOL0     H61134   9.413   9.382   5.997  0.1422 -0.4597  1.4553
  453MOL0     H61135   9.536   9.421   5.053  1.8491 -1.7936 -0.1411
  453MOL0     H61136   9.782   9.422   5.040  0.3477 -1.1107  0.9102
  453MOL0     H61137  10.138   9.379   5.371 -0.3870  0.4390 -0.4991
  453MOL0     H61138  10.382   9.385   5.451 -0.2239  2.1856  0.6698
  453MOL0     H61139   9.971  10.521   6.077 -0.5861 -0.2597  0.3846
  453MOL0     H61140  10.084  10.711   5.973  1.2114 -1.7259  3.1826
  453MOL0     H61141  10.383  10.925   5.939  2.8339  1.2778 -0.7641
  453MOL0     H61142  10.483  11.144   5.964 -1.2121  2.5392  0.1543
  453MOL0     H61143  10.366  11.434   5.992 -0.8852 -0.9365  0.5465
  453MOL0     H61144  10.263  11.453   5.841  0.3092  0.5706 -1.2882
  453MOL0     H61145  10.462  11.563   5.748 -0.0675 -3.1321 -0.0110
  453MOL0     H61146  10.528  11.577   5.909  2.4715  2.1980 -1.0972
  453MOL0     H61147  10.252  11.689   5.924 -0.1508  3.0943  0.5048
  453MOL0     H61148  10.338  11.751   5.775 -0.0995  0.3778  0.2216
  453MOL0     H61149  10.395  11.769   6.079 -6.8247 -3.5678 -1.5848
  453MOL0     H61150  10.526  11.796   5.956  0.5110  1.2825 -0.5939
  453MOL0     H61151  10.242  12.128   5.981  1.1942  1.1127  0.5341
  453MOL0     H61152  10.243  11.287   5.632 -2.6225 -2.7745 -2.2011
  453MOL0     H61153  10.048  11.037   5.588  0.4141 -3.0850 -0.2234
  453MOL0     H61154  10.158  11.114   5.467  0.7088  0.8877  0.4893
  453MOL0     H61155  10.181  10.948   5.515  5.0135  0.8797 -0.1197
  454MOL0     O61156   9.450   4.421   7.395 -0.6436  0.0863 -0.6040
  454MOL0     C61157   9.502   4.444   7.278  0.3094 -0.9009 -0.9449
  454MOL0     O61158   9.472   4.378   7.169 -0.3358  0.1346  0.0546
  454MOL0     C61159   9.397   4.262   7.185  0.3824 -0.4890 -0.0476
  454MOL0     C61160   9.278   4.260   7.121 -0.2714 -1.0264  0.1135
  454MOL0     C61161   9.192   4.157   7.124 -0.5405  0.0746 -0.0376
  454MOL0     C61162   9.225   4.037   7.189 -0.2667 -0.5522  0.0713
  454MOL0     O61163   9.121   3.943   7.193 -0.2893 -0.3666 -0.0313
  454MOL0     C61164   9.145   3.837   7.287 -0.5718 -0.0458 -0.7379
  454MOL0     C61165   9.016   3.761   7.297  0.2215 -0.4027  0.2811
  454MOL0     C61166   9.010   3.668   7.412 -0.8917  0.0577 -0.3154
  454MOL0     C61167   8.878   3.608   7.455 -0.1070 -0.1936  0.4493
  454MOL0     C61168   8.849   3.630   7.602 -0.4059  1.0287 -0.2994
  454MOL0     C61169   8.700   3.631   7.641 -0.2740  0.7304  0.2419
  454MOL0     C61170   8.642   3.769   7.614  0.5614 -0.1082 -0.6074
  454MOL0     C61171   8.493   3.791   7.659  0.9079 -0.6377 -0.6034
  454MOL0     N61172   8.455   3.930   7.654  0.5092  0.2765  0.2107
  454MOL0     C61173   8.535   4.038   7.618  0.3650 -0.3940  0.1740
  454MOL0     C61174   8.452   4.135   7.566  0.3367 -0.5181 -0.3408
  454MOL0     C61175   8.496   4.275   7.523  0.3363  0.6455  1.1057
  454MOL0     C61176   8.401   4.396   7.523  0.7589  0.5484 -0.6102
  454MOL0     C61177   8.451   4.505   7.437  0.3917  0.1801 -0.1597
  454MOL0     C61178   8.368   4.632   7.484 -0.9769 -0.3497  1.4925
  454MOL0     O61179   8.402   4.739   7.395  0.0476  0.1553  0.5756
  454MOL0     C61180   8.300   4.835   7.395 -0.5921 -0.0648  0.1078
  454MOL0     C61181   8.284   4.914   7.282 -0.5619  1.0412  0.1224
  454MOL0     C61182   8.187   5.014   7.282 -1.2432 -1.1331  0.1585
  454MOL0     C61183   8.105   5.049   7.388  0.1054  0.5646  0.0819
  454MOL0     C61184   7.998   5.155   7.377  1.2012  0.2666 -0.2209
  454MOL0     O61185   7.996   5.232   7.270  0.1460  0.1660 -0.0449
  454MOL0     C61186   7.915   5.346   7.257 -0.2699  0.1836 -0.3218
  454MOL0     C61187   7.851   5.421   7.357 -0.0046  0.2422 -0.0172
  454MOL0     C61188   7.778   5.540   7.325 -0.1241  0.2469 -1.1789
  454MOL0     C61189   7.757   5.575   7.188 -0.1850  0.2201 -0.1512
  454MOL0     O61190   7.669   5.681   7.163 -0.2213  0.5162 -0.4108
  454MOL0     C61191   7.592   5.664   7.045 -0.8853 -0.4816  0.3336
  454MOL0     C61192   7.520   5.786   6.999  0.0015  0.8368  0.5829
  454MOL0     C61193   7.430   5.826   7.110 -0.3660 -0.2376 -0.5055
  454MOL0     C61194   7.287   5.769   7.103 -0.3078  0.2948  0.4887
  454MOL0     C61195   7.189   5.862   7.184 -1.0511  0.3384  0.1103
  454MOL0     C61196   7.063   5.783   7.218  0.0567 -0.0998 -0.5995
  454MOL0     C61197   6.974   5.753   7.101  0.2720  0.8816  0.4866
  454MOL0     C61198   6.850   5.681   7.140 -0.5410  0.5979  0.2319
  454MOL0    Cl61199   6.760   5.697   6.997 -0.0435  0.5272 -0.3086
  454MOL0     C61200   7.822   5.503   7.087 -1.2664  0.3337 -0.0431
  454MOL0     C61201   7.893   5.395   7.127 -0.3870 -0.6083 -0.2882
  454MOL0     O61202   7.919   5.166   7.470 -0.7748  0.5174 -0.2373
  454MOL0     C61203   8.126   4.978   7.503  0.1444 -0.0108 -0.9002
  454MOL0     C61204   8.221   4.872   7.505 -0.2079  0.2114  0.4482
  454MOL0     N61205   8.328   4.082   7.566 -1.0587  0.2089  0.4562
  454MOL0     N61206   8.327   3.962   7.605  0.3634  0.1129 -1.1056
  454MOL0     C61207   9.353   4.037   7.249  0.1398 -0.1694 -0.2955
  454MOL0     C61208   9.439   4.148   7.251  0.5855  0.2476 -0.0050
  454MOL0     C61209   9.597   4.564   7.270 -0.1093 -0.1114 -0.2775
  454MOL0     C61210   9.546   4.683   7.223 -0.0379 -0.2998  0.1529
  454MOL0     C61211   9.635   4.787   7.197  0.3294 -0.4399  0.3806
  454MOL0     C61212   9.771   4.776   7.225  0.5176  0.0837  0.4346
  454MOL0     O61213   9.851   4.880   7.173 -0.3462 -0.0684  0.0622
  454MOL0     C61214   9.997   4.903   7.192  0.4642  0.7109  0.6990
  454MOL0     C61215  10.043   4.999   7.094 -0.3839 -1.3564  0.6373
  454MOL0     C61216  10.190   5.016   7.052 -0.1444  0.3296  0.4885
  454MOL0     C61217  10.197   5.080   6.904  0.0617  0.4203 -0.6642
  454MOL0     C61218  10.165   5.222   6.911 -0.0706  0.0722  0.0751
  454MOL0     C61219  10.144   5.343   6.896  0.1592 -0.6998 -0.4961
  454MOL0     C61220   9.822   4.657   7.283 -0.5622  0.8703 -0.5040
  454MOL0     C61221   9.738   4.544   7.301  0.9380 -0.4169  0.1351
  454MOL0     C61222   9.801   4.413   7.334  0.9366  0.6283  0.2133
  454MOL0     H61223   9.260   4.356   7.073  0.2487 -0.7641  0.4430
  454MOL0     H61224   9.097   4.162   7.071 -1.0537 -0.4054  0.8054
  454MOL0     H61225   9.232   3.779   7.256 -0.8795 -0.9768  0.0781
  454MOL0     H61226   9.155   3.872   7.390 -3.5686 -0.9037 -0.0448
  454MOL0     H61227   9.011   3.706   7.202  1.6800  0.4880 -0.3584
  454MOL0     H61228   8.934   3.834   7.297 -1.7684 -2.5239  0.6489
  454MOL0     H61229   9.050   3.716   7.502 -2.2830  3.5385 -1.3977
  454MOL0     H61230   9.071   3.581   7.386 -1.4029  0.0980 -1.7086
  454MOL0     H61231   8.807   3.648   7.382  0.6019  0.0476 -0.1108
  454MOL0     H61232   8.879   3.502   7.429  3.5502 -0.2659  0.3921
  454MOL0     H61233   8.903   3.552   7.657  0.0353  1.4777 -0.0946
  454MOL0     H61234   8.886   3.729   7.628  0.1822 -0.1941  4.3001
  454MOL0     H61235   8.643   3.558   7.582  2.2781 -1.9802  0.8978
  454MOL0     H61236   8.701   3.603   7.746  0.7224 -3.0452 -0.6236
  454MOL0     H61237   8.658   3.784   7.507 -1.4834 -2.8922 -1.4231
  454MOL0     H61238   8.692   3.844   7.676 -0.0118  2.2001 -2.8067
  454MOL0     H61239   8.427   3.724   7.603 -0.5430  2.0810 -2.3791
  454MOL0     H61240   8.479   3.768   7.765 -2.6148  0.7381 -0.6178
  454MOL0     H61241   8.641   4.057   7.631  0.7088 -1.0222 -1.4430
  454MOL0     H61242   8.580   4.305   7.586  2.7898 -1.4583 -0.9207
  454MOL0     H61243   8.530   4.263   7.420 -1.7373 -2.2832  0.6412
  454MOL0     H61244   8.301   4.374   7.487 -0.4351  3.6164  0.5056
  454MOL0     H61245   8.375   4.425   7.625  0.9075 -2.3370  0.3565
  454MOL0     H61246   8.443   4.478   7.331  2.2585  3.8449 -1.4280
  454MOL0     H61247   8.555   4.529   7.461 -0.0182 -0.1251  2.0981
  454MOL0     H61248   8.400   4.667   7.583  1.8669  7.3636 -1.3538
  454MOL0     H61249   8.264   4.601   7.483 -1.1531  0.1819 -0.2772
  454MOL0     H61250   8.352   4.896   7.199 -2.5930  0.6609 -1.5540
  454MOL0     H61251   8.171   5.060   7.185 -3.0984 -2.9758 -0.4783
  454MOL0     H61252   7.863   5.396   7.462  0.5185  0.2958 -0.0583
  454MOL0     H61253   7.729   5.587   7.409  0.8851 -0.7212 -0.0023
  454MOL0     H61254   7.661   5.649   6.962 -0.4064  2.3500  0.0994
  454MOL0     H61255   7.517   5.588   7.065 -1.4877 -1.0822 -3.4772
  454MOL0     H61256   7.590   5.869   6.992  0.8688  0.4159  3.1310
  454MOL0     H61257   7.464   5.761   6.908  1.3804 -2.5162  0.4934
  454MOL0     H61258   7.473   5.807   7.209 -0.6582 -0.2940 -0.3875
  454MOL0     H61259   7.429   5.935   7.114  2.9013 -0.1366  1.1609
  454MOL0     H61260   7.297   5.668   7.144  3.2415  1.1087  2.0175
  454MOL0     H61261   7.255   5.762   6.999 -2.0984  2.6315  0.7989
  454MOL0     H61262   7.172   5.952   7.123 -2.6285  0.7504  1.1081
  454MOL0     H61263   7.237   5.900   7.274  1.4363  5.7921 -3.0212
  454MOL0     H61264   7.096   5.690   7.266  0.2773  1.8543  3.4480
  454MOL0     H61265   7.007   5.840   7.293 -1.0082 -0.4850 -1.0736
  454MOL0     H61266   7.025   5.697   7.023 -1.4759  0.2757 -0.2658
  454MOL0     H61267   6.943   5.846   7.052 -0.3866  0.1579 -0.4888
  454MOL0     H61268   6.863   5.576   7.169 -2.4935  0.5015  0.8640
  454MOL0     H61269   6.789   5.734   7.214 -3.6030 -2.4673  0.1248
  454MOL0     H61270   7.832   5.533   6.983 -2.4356  2.1494  0.3266
  454MOL0     H61271   7.937   5.329   7.053  1.1131  1.1514 -1.0407
  454MOL0     H61272   8.064   4.985   7.592 -0.3273 -1.8563 -1.0446
  454MOL0     H61273   8.220   4.807   7.591 -0.8507 -0.2829  0.0747
  454MOL0     H61274   9.387   3.957   7.314 -1.8551  0.8781  2.1667
  454MOL0     H61275   9.534   4.142   7.303  0.6419 -1.3968 -0.2499
  454MOL0     H61276   9.440   4.705   7.218  0.1935  1.2601  1.2742
  454MOL0     H61277   9.610   4.885   7.157  2.2687 -1.8234 -5.1138
  454MOL0     H61278  10.045   4.806   7.178 -2.0121 -0.9016  2.4594
  454MOL0     H61279  10.017   4.934   7.295  1.5007 -2.3476  1.5178
  454MOL0     H61280  10.009   5.099   7.121 -0.9331 -1.1463 -0.7322
  454MOL0     H61281   9.986   4.961   7.009  1.3573 -2.9529  0.1056
  454MOL0     H61282  10.242   4.923   7.032  0.5078  0.6230  0.8028
  454MOL0     H61283  10.258   5.073   7.116  0.8033 -2.3259  1.9887
  454MOL0     H61284  10.295   5.062   6.859 -0.1411  1.1834 -1.4353
  454MOL0     H61285  10.129   5.020   6.841  1.3796 -3.5395  1.3372
  454MOL0     H61286  10.117   5.444   6.874  0.2250 -0.0772  1.9616
  454MOL0     H61287   9.928   4.647   7.303 -0.3751  1.3834 -1.1906
  454MOL0     H61288   9.755   4.383   7.429  1.6873  1.7936  0.9581
  454MOL0     H61289   9.777   4.325   7.273  2.5073  1.2369 -1.3310
  454MOL0     H61290   9.910   4.419   7.342  1.2804 -1.3069 -1.9376
  455MOL0     O61291   4.604   9.668   4.658  0.2637  0.1306  0.5016
  455MOL0     C61292   4.515   9.728   4.716 -0.3506  0.4933 -0.3477
  455MOL0     O61293   4.392   9.673   4.741 -0.2834 -0.2186  0.0198
  455MOL0     C61294   4.370   9.538   4.741 -0.2241  0.2883 -0.0945
  455MOL0     C61295   4.238   9.512   4.765  0.3466  0.4147 -0.3632
  455MOL0     C61296   4.188   9.377   4.762 -0.7042  0.5682  0.3465
  455MOL0     C61297   4.278   9.270   4.746  0.5462  0.2785  1.1099
  455MOL0     O61298   4.218   9.144   4.728 -0.2874 -0.0979 -0.3815
  455MOL0     C61299   4.292   9.024   4.750  0.3138  0.4644 -0.3590
  455MOL0     C61300   4.202   8.900   4.733  0.4288 -0.6253 -1.5140
  455MOL0     C61301   4.126   8.861   4.854 -0.2714  0.5858 -0.5805
  455MOL0     C61302   4.216   8.833   4.974  0.1937  0.5804 -0.2835
  455MOL0     C61303   4.129   8.828   5.098 -0.6210  0.4814  0.3198
  455MOL0     C61304   4.218   8.813   5.213  0.7658 -0.2706 -0.6037
  455MOL0     C61305   4.143   8.792   5.344  0.1607  0.9106 -0.5869
  455MOL0     C61306   4.063   8.664   5.354  0.5425  0.3168 -0.8492
  455MOL0     N61307   4.051   8.613   5.493  1.1829 -0.0078 -0.6550
  455MOL0     C61308   4.133   8.525   5.553  0.6789 -0.4578  0.3035
  455MOL0     C61309   4.112   8.527   5.683  0.2760  0.3356  0.7075
  455MOL0     C61310   4.199   8.490   5.797 -0.0187  1.1857 -0.9712
  455MOL0     C61311   4.243   8.345   5.796 -0.3419 -0.5153 -0.3147
  455MOL0     C61312   4.377   8.321   5.731  0.2894 -0.6298  0.0289
  455MOL0     C61313   4.438   8.180   5.754  0.6511 -0.1247  0.2523
  455MOL0     O61314   4.537   8.140   5.664 -0.0787  0.2087 -0.4979
  455MOL0     C61315   4.668   8.203   5.671 -0.2926  0.0667  0.5408
  455MOL0     C61316   4.762   8.175   5.565  0.4411  0.0869 -0.1149
  455MOL0     C61317   4.879   8.243   5.568 -0.8557  0.6673  0.2804
  455MOL0     C61318   4.912   8.338   5.656 -0.3999  0.4676 -1.3229
  455MOL0     C61319   5.049   8.404   5.661 -0.5361  0.0585 -0.1460
  455MOL0     O61320   5.069   8.504   5.747  0.0320  0.7862 -0.3163
  455MOL0     C61321   5.192   8.526   5.795 -0.2041  0.1781  0.8393
  455MOL0     C61322   5.288   8.597   5.716 -0.9081  0.5946  0.0980
  455MOL0     C61323   5.412   8.635   5.762  0.2333 -0.3561 -0.2678
  455MOL0     C61324   5.446   8.611   5.894  0.8859  0.2898 -0.7314
  455MOL0     O61325   5.565   8.641   5.943 -0.3417 -0.1769 -0.5825
  455MOL0     C61326   5.598   8.780   5.980  0.6022  0.5894 -0.0191
  455MOL0     C61327   5.537   8.814   6.114  0.8349  0.5607  0.7677
  455MOL0     C61328   5.578   8.947   6.154 -0.1301  0.6171  0.1870
  455MOL0     C61329   5.526   8.978   6.290  0.5979  0.3068 -0.1711
  455MOL0     C61330   5.539   9.121   6.330  0.2570 -0.5801 -0.9569
  455MOL0     C61331   5.535   9.139   6.478 -0.0461  0.1143 -0.0994
  455MOL0     C61332   5.584   9.266   6.537 -0.2129  0.3727  0.1319
  455MOL0     C61333   5.570   9.274   6.687  0.1302 -0.5807  0.1285
  455MOL0    Cl61334   5.388   9.286   6.722 -0.3225  0.3486 -0.0361
  455MOL0     C61335   5.349   8.546   5.973 -0.8048 -0.5878  0.6970
  455MOL0     C61336   5.217   8.516   5.934  0.8600  0.2213 -0.2712
  455MOL0     O61337   5.132   8.357   5.588 -0.3977 -0.2800  0.3711
  455MOL0     C61338   4.825   8.368   5.764  0.4726  0.0687  0.7271
  455MOL0     C61339   4.699   8.305   5.763  0.0705 -1.4876  0.4631
  455MOL0     N61340   4.012   8.625   5.710  0.0426  0.1380 -0.0433
  455MOL0     N61341   3.979   8.672   5.593 -0.8392  0.2464  0.1568
  455MOL0     C61342   4.413   9.294   4.729  1.6815 -0.9150  0.2351
  455MOL0     C61343   4.455   9.429   4.715 -0.2599  0.8631  0.8538
  455MOL0     C61344   4.531   9.877   4.738  0.5355  0.6809  0.8424
  455MOL0     C61345   4.437   9.944   4.813  0.6144  0.3969  0.1787
  455MOL0     C61346   4.448  10.081   4.836 -0.5707 -0.3825 -1.4586
  455MOL0     C61347   4.543  10.160   4.775 -0.2173 -0.6963 -0.1155
  455MOL0     O61348   4.548  10.291   4.804 -0.2330  0.2713  0.2678
  455MOL0     C61349   4.615  10.380   4.708  0.2918 -0.7833 -0.0624
  455MOL0     C61350   4.584  10.523   4.737 -0.6148 -0.3303  0.2488
  455MOL0     C61351   4.626  10.572   4.870 -0.1357  0.6257  0.0015
  455MOL0     C61352   4.549  10.699   4.912 -0.8568  0.5293 -0.1555
  455MOL0     C61353   4.440  10.648   4.997  0.9315 -0.3876  0.0483
  455MOL0     C61354   4.348  10.603   5.057 -1.0763  0.1501 -0.4335
  455MOL0     C61355   4.629  10.097   4.692  0.7095 -1.0498  0.8953
  455MOL0     C61356   4.624   9.960   4.673 -0.4664  1.2348 -0.3251
  455MOL0     C61357   4.725   9.909   4.567  1.1466 -1.6496  0.1357
  455MOL0     H61358   4.160   9.581   4.794 -0.8421 -0.7062 -0.7947
  455MOL0     H61359   4.083   9.352   4.758 -0.5042 -0.2906  0.3066
  455MOL0     H61360   4.360   9.002   4.667 -3.2929 -1.7442 -3.0567
  455MOL0     H61361   4.348   9.040   4.843  0.3071  2.7528 -0.6848
  455MOL0     H61362   4.263   8.813   4.708  1.4532 -0.7537  1.1355
  455MOL0     H61363   4.133   8.918   4.650 -1.9414  0.9035  0.6461
  455MOL0     H61364   4.063   8.774   4.836 -0.2209  0.1383  1.1773
  455MOL0     H61365   4.061   8.946   4.877 -3.2094 -1.2538 -1.6176
  455MOL0     H61366   4.265   8.736   4.960  2.6293  1.0048  3.7777
  455MOL0     H61367   4.280   8.921   4.980  1.6683 -0.5723  2.2609
  455MOL0     H61368   4.076   8.921   5.120 -1.4222  0.2917 -0.6974
  455MOL0     H61369   4.057   8.747   5.080 -1.1944  0.8500  0.9188
  455MOL0     H61370   4.282   8.729   5.188  0.9761 -0.8649  1.6729
  455MOL0     H61371   4.279   8.902   5.229 -0.4425  0.5275 -0.2056
  455MOL0     H61372   4.066   8.866   5.368 -3.9432 -2.3764 -2.5032
  455MOL0     H61373   4.211   8.794   5.430 -1.3732 -3.3193  0.9879
  455MOL0     H61374   3.966   8.673   5.304 -0.4798 -2.6684  0.3190
  455MOL0     H61375   4.111   8.584   5.296 -3.5126 -1.7703 -1.6929
  455MOL0     H61376   4.219   8.480   5.504 -0.2983  0.1898 -2.1317
  455MOL0     H61377   4.285   8.559   5.798 -0.8480  2.2478 -0.8081
  455MOL0     H61378   4.141   8.501   5.889  3.0541  2.5384  0.9717
  455MOL0     H61379   4.260   8.322   5.902  1.3038 -0.7509 -0.6094
  455MOL0     H61380   4.171   8.270   5.762  0.5541 -0.6359 -2.0716
  455MOL0     H61381   4.449   8.397   5.762  1.6033 -1.8348  0.0127
  455MOL0     H61382   4.349   8.337   5.626  2.1226  0.1632 -0.3780
  455MOL0     H61383   4.364   8.100   5.758  2.6126 -2.1525 -1.2106
  455MOL0     H61384   4.481   8.187   5.854  0.9038  0.4373  0.1147
  455MOL0     H61385   4.729   8.104   5.491 -0.4261 -1.1791  1.4077
  455MOL0     H61386   4.958   8.226   5.495 -0.3172 -0.6281  1.1286
  455MOL0     H61387   5.269   8.613   5.610  2.3283  0.0263 -0.6953
  455MOL0     H61388   5.471   8.694   5.692 -1.5885 -0.3703 -1.8885
  455MOL0     H61389   5.706   8.796   5.974  0.4476  1.5070 -0.6918
  455MOL0     H61390   5.570   8.840   5.892  0.3451 -3.4392 -2.9879
  455MOL0     H61391   5.428   8.803   6.104  0.8738 -0.4464  1.3759
  455MOL0     H61392   5.576   8.740   6.184  0.7908 -3.1911 -2.8054
  455MOL0     H61393   5.685   8.963   6.134 -0.4284  2.8995  0.0857
  455MOL0     H61394   5.524   9.015   6.087 -0.8538 -2.6069 -2.7805
  455MOL0     H61395   5.579   8.911   6.359 -1.7189 -0.7993  0.6485
  455MOL0     H61396   5.419   8.957   6.281  0.6365  0.6489 -1.6648
  455MOL0     H61397   5.450   9.168   6.288 -1.5671 -3.4649 -0.6252
  455MOL0     H61398   5.627   9.164   6.281 -1.7848  1.3968 -3.1079
  455MOL0     H61399   5.433   9.123   6.515  0.5506  0.7119  1.9412
  455MOL0     H61400   5.612   9.067   6.507  0.3690  0.1416 -1.0905
  455MOL0     H61401   5.516   9.339   6.490 -1.3233 -1.1841 -0.7574
  455MOL0     H61402   5.687   9.288   6.509 -0.9046  0.6645 -2.4441
  455MOL0     H61403   5.608   9.180   6.729  0.3066  0.0607  1.4480
  455MOL0     H61404   5.630   9.356   6.727 -1.4932  2.3590 -2.9783
  455MOL0     H61405   5.384   8.518   6.073  1.0540  3.0311  1.2234
  455MOL0     H61406   5.141   8.467   5.994 -0.1880  0.5811 -1.2749
  455MOL0     H61407   4.839   8.454   5.830 -2.6284  1.0631  0.2613
  455MOL0     H61408   4.633   8.330   5.847  1.1593 -3.2917  1.9319
  455MOL0     H61409   4.475   9.218   4.682 -0.5846 -1.0361 -2.9201
  455MOL0     H61410   4.558   9.445   4.686  0.3688 -0.9855  1.9091
  455MOL0     H61411   4.351   9.897   4.859 -0.5292  1.5180 -0.7689
  455MOL0     H61412   4.385  10.122   4.915  1.1048 -3.5672  1.8893
  455MOL0     H61413   4.573  10.357   4.609  3.1168 -2.3698 -1.0017
  455MOL0     H61414   4.722  10.360   4.714  1.4336  4.2326  0.4693
  455MOL0     H61415   4.478  10.546   4.721 -0.2918 -0.1471 -1.7658
  455MOL0     H61416   4.630  10.591   4.665 -0.0172 -0.2901  0.6586
  455MOL0     H61417   4.731  10.598   4.858 -0.4160  1.9682  0.3407
  455MOL0     H61418   4.610  10.487   4.937 -2.0729  0.8652 -0.0859
  455MOL0     H61419   4.609  10.770   4.969 -0.0515  0.1388 -0.5060
  455MOL0     H61420   4.512  10.756   4.826  2.2169  1.2138 -1.1600
  455MOL0     H61421   4.258  10.572   5.105 -1.5450  0.9158 -0.8071
  455MOL0     H61422   4.701  10.160   4.640 -2.3552  0.5978 -1.7427
  455MOL0     H61423   4.774   9.989   4.510 -1.8163  1.5470  1.7168
  455MOL0     H61424   4.799   9.841   4.610  0.1865 -1.2809  2.5011
  455MOL0     H61425   4.671   9.861   4.485  0.9966 -1.6457  0.2329
  456MOL0     O61426  10.652   5.500   0.689  1.0296 -0.5481 -0.2671
  456MOL0     C61427  10.756   5.428   0.696 -0.3526 -0.4238 -0.3681
  456MOL0     O61428  10.778   5.325   0.607  0.4795  0.1617 -0.2636
  456MOL0     C61429  10.676   5.259   0.537 -0.7076  0.3188  1.0394
  456MOL0     C61430  10.708   5.180   0.422 -0.4801 -0.6363  0.2278
  456MOL0     C61431  10.613   5.103   0.348  0.0065  0.4312  0.3350
  456MOL0     C61432  10.480   5.092   0.384  0.1169  0.0189  0.8115
  456MOL0     O61433  10.382   5.028   0.316 -0.2766  0.0577 -0.3715
  456MOL0     C61434  10.406   4.955   0.198 -0.3666  0.2165 -0.3868
  456MOL0     C61435  10.266   4.907   0.148  0.0559  0.0748 -0.8366
  456MOL0     C61436  10.291   4.795   0.048 -0.3438  0.1958 -0.0651
  456MOL0     C61437  10.372   4.839  -0.078 -0.2090  0.6050  1.2582
  456MOL0     C61438  10.349   4.748  -0.200  1.0729 -0.1370 -0.6832
  456MOL0     C61439  10.419   4.782  -0.337  1.3134 -0.0487 -1.4884
  456MOL0     C61440  10.383   4.684  -0.441  0.8962 -0.6971 -0.4741
  456MOL0     C61441  10.228   4.670  -0.459  0.9455  0.5746  0.5041
  456MOL0     N61442  10.181   4.789  -0.538  0.6515  0.0996 -0.2525
  456MOL0     C61443  10.114   4.891  -0.491 -0.4227  0.0413  0.0860
  456MOL0     C61444  10.098   4.982  -0.592  0.0403  0.2901  0.0708
  456MOL0     C61445  10.050   5.127  -0.584  1.3454  0.8260 -0.1108
  456MOL0     C61446  10.158   5.235  -0.586  0.0977 -0.4636 -0.1231
  456MOL0     C61447  10.103   5.374  -0.589  0.3842  0.0727  0.5814
  456MOL0     C61448  10.210   5.483  -0.558 -0.8062  0.5900  0.6202
  456MOL0     O61449  10.282   5.500  -0.684  0.0583  0.1165  0.1556
  456MOL0     C61450  10.416   5.485  -0.673 -0.4342 -0.0635 -0.6353
  456MOL0     C61451  10.480   5.460  -0.792 -0.0376 -0.0614 -0.0416
  456MOL0     C61452  10.615   5.466  -0.805 -0.4258  0.8653 -0.4406
  456MOL0     C61453  10.697   5.468  -0.688  0.5199 -0.1476  1.0062
  456MOL0     C61454  10.845   5.481  -0.696 -1.1576  0.6561 -0.0607
  456MOL0     O61455  10.913   5.498  -0.578  0.4260  0.4700  0.1721
  456MOL0     C61456  11.054   5.505  -0.591 -0.2151  0.8276  0.5504
  456MOL0     C61457  11.140   5.407  -0.655  0.3766 -0.2338 -0.0881
  456MOL0     C61458  11.272   5.427  -0.667 -0.0859  0.1142 -0.1816
  456MOL0     C61459  11.332   5.531  -0.597 -0.8393  0.3839  0.2819
  456MOL0     O61460  11.468   5.550  -0.606 -0.1998 -0.9771 -0.4417
  456MOL0     C61461  11.541   5.449  -0.535 -1.0108 -0.3935 -1.0221
  456MOL0     C61462  11.684   5.504  -0.504  0.3543 -0.2684  0.1614
  456MOL0     C61463  11.753   5.513  -0.640 -0.0729 -0.5050  0.0774
  456MOL0     C61464  11.905   5.541  -0.614 -0.3961 -0.1099 -0.0749
  456MOL0     C61465  12.003   5.532  -0.734 -0.2575 -0.0844  0.6305
  456MOL0     C61466  12.126   5.438  -0.722  0.0743  0.0273  0.1044
  456MOL0     C61467  12.231   5.439  -0.833 -0.6527 -0.0720  0.0800
  456MOL0     C61468  12.245   5.298  -0.888 -0.1907  0.5393 -0.3969
  456MOL0    Cl61469  12.370   5.292  -1.009 -0.3997 -0.2143  0.0475
  456MOL0     C61470  11.254   5.619  -0.528 -0.5576 -0.6219 -0.1913
  456MOL0     C61471  11.117   5.608  -0.526  0.0756 -0.2543  0.5302
  456MOL0     O61472  10.896   5.468  -0.806 -0.1252  0.0575 -0.7496
  456MOL0     C61473  10.630   5.500  -0.562  0.3356 -0.0551 -0.6089
  456MOL0     C61474  10.494   5.513  -0.557 -0.1471  0.3647 -0.5835
  456MOL0     N61475  10.149   4.926  -0.714 -0.4728  0.1683 -0.9636
  456MOL0     N61476  10.195   4.809  -0.675 -0.3590  0.8207 -0.3920
  456MOL0     C61477  10.457   5.172   0.503  0.1449 -0.0860  0.3390
  456MOL0     C61478  10.546   5.245   0.585 -0.6569  0.3263  0.0641
  456MOL0     C61479  10.853   5.454   0.802  0.0091  0.2680 -0.2359
  456MOL0     C61480  10.819   5.549   0.905  1.6216  0.3314  0.0231
  456MOL0     C61481  10.899   5.578   1.011  0.4592 -0.2552  0.3885
  456MOL0     C61482  11.031   5.533   1.005  0.2545 -0.1655  0.3614
  456MOL0     O61483  11.121   5.547   1.106  0.9710 -0.7869  0.1781
  456MOL0     C61484  11.192   5.669   1.100 -0.1733 -0.0330 -1.1720
  456MOL0     C61485  11.314   5.652   1.188 -0.2383  0.3166  0.7653
  456MOL0     C61486  11.275   5.599   1.323  0.4554  0.3413 -0.4283
  456MOL0     C61487  11.184   5.687   1.404  0.0031  0.7942  0.5200
  456MOL0     C61488  11.042   5.678   1.388 -0.2445 -0.1993  0.4904
  456MOL0     C61489  10.921   5.657   1.385 -0.5237  0.4002  0.5885
  456MOL0     C61490  11.068   5.439   0.904 -0.4593 -0.1390  0.0207
  456MOL0     C61491  10.987   5.397   0.810 -0.4070  0.3382  0.5413
  456MOL0     C61492  11.033   5.283   0.715  0.2107  0.5074 -0.8304
  456MOL0     H61493  10.813   5.185   0.398 -0.5915 -2.9291 -0.9350
  456MOL0     H61494  10.666   5.046   0.271  1.5910  1.1939  0.8065
  456MOL0     H61495  10.467   5.021   0.134  1.6991  0.3508  1.5906
  456MOL0     H61496  10.476   4.879   0.232 -0.1367 -0.1007 -1.5126
  456MOL0     H61497  10.215   4.987   0.093 -0.2217 -1.8475 -3.5446
  456MOL0     H61498  10.200   4.870   0.226 -0.1262  0.8711 -0.6027
  456MOL0     H61499  10.194   4.759   0.014 -0.5355 -1.3804  1.9356
  456MOL0     H61500  10.329   4.710   0.106 -0.7623 -0.8112 -1.2390
  456MOL0     H61501  10.352   4.939  -0.117 -4.0986 -0.7742 -0.7925
  456MOL0     H61502  10.477   4.821  -0.051  0.2543 -0.7728 -1.1790
  456MOL0     H61503  10.369   4.642  -0.183  1.4106 -0.0337 -0.4227
  456MOL0     H61504  10.240   4.745  -0.207  0.9447 -1.4268  1.0537
  456MOL0     H61505  10.393   4.886  -0.361 -0.8933  0.3026  1.8307
  456MOL0     H61506  10.524   4.784  -0.306  0.2727  1.4269  2.5345
  456MOL0     H61507  10.427   4.588  -0.411  1.8479 -0.3664 -0.7739
  456MOL0     H61508  10.445   4.710  -0.527  0.4830 -1.8790 -1.1441
  456MOL0     H61509  10.214   4.582  -0.524 -1.4432  0.3774  1.1769
  456MOL0     H61510  10.173   4.659  -0.365 -0.5015  2.9065  0.0104
  456MOL0     H61511  10.083   4.920  -0.391  0.1369 -2.1652  0.9694
  456MOL0     H61512   9.973   5.133  -0.662  1.3315  1.9554 -0.0173
  456MOL0     H61513   9.984   5.127  -0.496  0.2869  0.9398 -0.8866
  456MOL0     H61514  10.227   5.229  -0.501  1.2223 -0.1403 -0.9994
  456MOL0     H61515  10.227   5.210  -0.667 -0.2025  0.3953 -0.6544
  456MOL0     H61516  10.037   5.395  -0.505 -2.5119  3.1803 -2.1478
  456MOL0     H61517  10.048   5.400  -0.680  2.3709  1.8128 -0.2057
  456MOL0     H61518  10.271   5.438  -0.479  1.8510  0.5745 -1.3177
  456MOL0     H61519  10.164   5.576  -0.523 -2.1747 -0.9036  3.0943
  456MOL0     H61520  10.421   5.449  -0.882  1.5609  0.3688 -1.1797
  456MOL0     H61521  10.673   5.458  -0.897  0.0457  0.5149 -0.1193
  456MOL0     H61522  11.094   5.332  -0.719  1.7097  0.1271 -1.5506
  456MOL0     H61523  11.327   5.354  -0.725 -1.3150 -2.1019  1.3098
  456MOL0     H61524  11.506   5.436  -0.432 -0.2772 -2.4936 -0.9830
  456MOL0     H61525  11.554   5.354  -0.587 -0.1618 -2.0064  1.8788
  456MOL0     H61526  11.696   5.598  -0.449  3.2650 -1.6340  2.0928
  456MOL0     H61527  11.742   5.427  -0.453  0.9409  0.8819  1.2924
  456MOL0     H61528  11.752   5.424  -0.704 -0.0410 -1.8672  1.8749
  456MOL0     H61529  11.722   5.597  -0.703 -0.9580 -1.3632 -0.6594
  456MOL0     H61530  11.943   5.475  -0.536 -0.5142 -0.0268  0.0516
  456MOL0     H61531  11.914   5.639  -0.568  0.9676 -0.4779  0.4902
  456MOL0     H61532  12.041   5.632  -0.755 -0.0642 -0.2910 -0.0588
  456MOL0     H61533  11.941   5.497  -0.818 -0.8613  1.1580  0.5368
  456MOL0     H61534  12.168   5.451  -0.622 -0.1329  0.2292  0.1635
  456MOL0     H61535  12.083   5.338  -0.713  0.9150 -0.1921  2.0633
  456MOL0     H61536  12.318   5.491  -0.793 -2.6935  2.2191  1.8349
  456MOL0     H61537  12.179   5.494  -0.912 -0.0680  1.4193  0.7123
  456MOL0     H61538  12.261   5.221  -0.813  0.2173 -0.2840 -1.3086
  456MOL0     H61539  12.152   5.273  -0.941  0.4450 -0.2645 -1.1515
  456MOL0     H61540  11.290   5.712  -0.484 -6.4034  2.3395 -0.7217
  456MOL0     H61541  11.058   5.676  -0.465  0.9302  0.1283  0.9452
  456MOL0     H61542  10.701   5.525  -0.484  1.0841  1.1248 -1.6266
  456MOL0     H61543  10.452   5.556  -0.467 -0.7161 -2.7902  0.7855
  456MOL0     H61544  10.352   5.174   0.531  0.4811  1.3832  1.5721
  456MOL0     H61545  10.504   5.287   0.676 -0.5001  0.4376  0.0857
  456MOL0     H61546  10.727   5.607   0.905 -0.8396 -3.2398  0.4935
  456MOL0     H61547  10.862   5.631   1.098 -0.2834 -2.0241  1.1937
  456MOL0     H61548  11.136   5.751   1.146 -0.3322 -1.9070  2.2351
  456MOL0     H61549  11.223   5.696   0.998  0.1307 -1.5300 -1.4950
  456MOL0     H61550  11.373   5.744   1.198  2.4553 -1.2966  0.9058
  456MOL0     H61551  11.393   5.590   1.144  2.1493  1.1741  3.5219
  456MOL0     H61552  11.364   5.589   1.387  0.0409  0.9343  0.2521
  456MOL0     H61553  11.231   5.499   1.312  2.6482 -0.5403 -2.2947
  456MOL0     H61554  11.202   5.660   1.509  2.1436 -0.8532 -0.2052
  456MOL0     H61555  11.228   5.784   1.380  3.1346 -1.0137 -1.9030
  456MOL0     H61556  10.815   5.652   1.393 -0.6773 -0.5678 -1.3367
  456MOL0     H61557  11.173   5.414   0.918 -1.0536 -1.6766  2.3861
  456MOL0     H61558  10.961   5.202   0.724 -1.5226  2.1903  1.6128
  456MOL0     H61559  11.044   5.308   0.609 -2.4878  2.1430 -0.8062
  456MOL0     H61560  11.128   5.239   0.747 -0.8011  0.3327  2.2891
  457MOL0     O61561   9.453   6.702   8.670  0.1010 -0.6620 -0.5606
  457MOL0     C61562   9.474   6.782   8.761 -0.2221  0.3027  1.1607
  457MOL0     O61563   9.592   6.790   8.827  0.3693 -0.3242 -0.4371
  457MOL0     C61564   9.686   6.695   8.789  0.2555 -0.1236 -0.3487
  457MOL0     C61565   9.726   6.604   8.886  0.4682  0.1142 -0.7065
  457MOL0     C61566   9.829   6.518   8.857  1.2183 -0.6899  0.0292
  457MOL0     C61567   9.890   6.507   8.733  0.0129 -0.7982  0.6994
  457MOL0     O61568  10.001   6.428   8.699  0.8892 -0.2242 -0.4357
  457MOL0     C61569  10.036   6.320   8.790  0.3635 -0.3455  0.5700
  457MOL0     C61570  10.134   6.217   8.716  0.0975 -0.6934  0.6820
  457MOL0     C61571  10.259   6.263   8.653  0.7966 -0.4437  0.1359
  457MOL0     C61572  10.348   6.355   8.746  1.2447  0.1158 -0.6183
  457MOL0     C61573  10.490   6.358   8.691 -0.9925 -0.7837  0.0163
  457MOL0     C61574  10.557   6.206   8.697  0.2892 -0.3407 -0.8924
  457MOL0     C61575  10.562   6.164   8.846 -0.5333  0.2625  0.1599
  457MOL0     C61576  10.657   6.048   8.858  0.1670 -1.0635 -0.0520
  457MOL0     N61577  10.646   5.992   8.996  0.2253  0.0714  0.2226
  457MOL0     C61578  10.727   6.033   9.100  0.1922  0.1872 -0.1786
  457MOL0     C61579  10.670   5.984   9.209  0.3866  1.1233 -0.6546
  457MOL0     C61580  10.721   5.988   9.354 -0.7169  1.3932  0.3149
  457MOL0     C61581  10.621   6.049   9.452  0.1832 -0.6709  0.8369
  457MOL0     C61582  10.572   5.952   9.559  0.3107 -0.4917  0.2591
  457MOL0     C61583  10.454   6.020   9.632 -0.0819  0.1327 -0.5578
  457MOL0     O61584  10.416   5.933   9.742  0.1371  0.7389 -0.4510
  457MOL0     C61585  10.354   5.813   9.723  1.0770  0.2629 -0.6882
  457MOL0     C61586  10.299   5.766   9.603 -0.6490  0.2120 -0.6013
  457MOL0     C61587  10.232   5.644   9.593 -0.3000  0.1890 -1.9010
  457MOL0     C61588  10.222   5.566   9.710 -0.6196 -0.3658 -0.7390
  457MOL0     C61589  10.153   5.439   9.697 -1.1265  0.0678  0.4085
  457MOL0     O61590  10.155   5.376   9.579  0.6522 -0.7137 -0.4974
  457MOL0     C61591  10.076   5.263   9.549  0.4405 -0.2982  0.5277
  457MOL0     C61592  10.039   5.162   9.646  0.8117 -0.2707 -0.6624
  457MOL0     C61593   9.956   5.057   9.614 -0.3912  0.0034 -1.1780
  457MOL0     C61594   9.944   5.019   9.478 -0.7590  0.0614  0.0261
  457MOL0     O61595   9.893   4.895   9.445  0.3685 -0.1252 -0.2082
  457MOL0     C61596   9.848   4.889   9.309 -0.3964 -0.9732  0.3359
  457MOL0     C61597   9.770   4.768   9.270 -0.0104 -0.7455  0.4645
  457MOL0     C61598   9.860   4.652   9.239 -0.2756  0.3574  0.3534
  457MOL0     C61599   9.770   4.544   9.190  0.0453  0.5982 -0.4544
  457MOL0     C61600   9.822   4.397   9.194 -0.6071  0.1558 -0.0345
  457MOL0     C61601   9.945   4.373   9.112 -0.3201  0.8808 -0.3954
  457MOL0     C61602   9.998   4.238   9.131  0.2832 -0.2830  0.4941
  457MOL0     C61603  10.142   4.225   9.068 -0.1657 -0.0528 -0.1658
  457MOL0    Cl61604  10.143   4.165   8.902 -0.2933 -0.3371 -0.1670
  457MOL0     C61605   9.990   5.107   9.382 -1.3080  0.0765  0.6333
  457MOL0     C61606  10.047   5.230   9.410 -0.9169 -0.1997 -0.4790
  457MOL0     O61607  10.106   5.399   9.804  0.1491  0.0532  0.7827
  457MOL0     C61608  10.261   5.620   9.837 -0.1481 -0.7007 -0.0352
  457MOL0     C61609  10.325   5.741   9.845 -0.3553  0.8610  0.0065
  457MOL0     N61610  10.548   5.919   9.180 -0.0080 -0.5336  0.4519
  457MOL0     N61611  10.528   5.936   9.049  0.2994 -0.0782 -0.8566
  457MOL0     C61612   9.841   6.601   8.647  0.0110 -0.6296  1.2812
  457MOL0     C61613   9.749   6.696   8.667 -0.4016 -0.9152  0.2717
  457MOL0     C61614   9.362   6.866   8.808  0.1426 -0.2469 -0.5943
  457MOL0     C61615   9.383   6.937   8.929  0.3830 -0.7802 -0.0669
  457MOL0     C61616   9.282   7.023   8.971  0.3616  0.2554  0.6789
  457MOL0     C61617   9.162   7.021   8.909  0.3646 -0.2308  0.4850
  457MOL0     O61618   9.059   7.106   8.958 -0.3172  0.5601 -0.7114
  457MOL0     C61619   8.966   7.030   9.033  0.5412  0.4455  0.2060
  457MOL0     C61620   8.851   7.130   9.071 -0.1198 -0.2181  0.9438
  457MOL0     C61621   8.895   7.197   9.208  0.1610  0.3696 -0.0549
  457MOL0     C61622   8.865   7.098   9.329  0.1449  0.0721  0.6238
  457MOL0     C61623   8.733   7.119   9.390  0.2839 -0.3948 -0.8119
  457MOL0     C61624   8.621   7.107   9.442 -0.4237  0.2146  0.3428
  457MOL0     C61625   9.135   6.947   8.795  0.4894 -0.1607  0.6839
  457MOL0     C61626   9.239   6.880   8.739 -0.4502 -0.5197 -0.2336
  457MOL0     C61627   9.215   6.825   8.596 -0.0770  0.1446 -0.1763
  457MOL0     H61628   9.682   6.609   8.986  1.2152 -4.1839  0.0073
  457MOL0     H61629   9.861   6.449   8.935 -0.0180 -4.5786 -2.6165
  457MOL0     H61630  10.086   6.358   8.880 -2.4967  0.5639  1.9046
  457MOL0     H61631   9.944   6.273   8.826 -0.1139  1.0064  1.1891
  457MOL0     H61632  10.082   6.170   8.632  0.8550  0.5895 -0.5267
  457MOL0     H61633  10.156   6.135   8.785 -0.4243 -2.3131 -0.9892
  457MOL0     H61634  10.235   6.324   8.566  1.3593  0.2673  0.4667
  457MOL0     H61635  10.309   6.177   8.608  0.0035 -3.1374  3.9378
  457MOL0     H61636  10.305   6.455   8.759 -0.8026 -0.8332  0.4525
  457MOL0     H61637  10.346   6.321   8.850 -1.3311  0.5450 -0.4685
  457MOL0     H61638  10.484   6.397   8.589  4.6232  1.8595  0.2915
  457MOL0     H61639  10.563   6.422   8.742 -0.3789 -1.2480 -0.2722
  457MOL0     H61640  10.508   6.130   8.635  0.3280  0.6680 -2.2014
  457MOL0     H61641  10.659   6.222   8.663  0.7518  3.6818  1.7674
  457MOL0     H61642  10.465   6.141   8.891 -1.6356  2.6860 -0.8061
  457MOL0     H61643  10.602   6.244   8.908  1.2765 -0.1771 -0.3753
  457MOL0     H61644  10.626   5.978   8.781 -0.9714 -1.0759  0.3989
  457MOL0     H61645  10.760   6.079   8.837 -0.1164 -1.0900 -1.5978
  457MOL0     H61646  10.829   6.068   9.096  1.4211 -2.5347  2.9495
  457MOL0     H61647  10.750   5.885   9.376 -1.3246  0.9243 -0.9799
  457MOL0     H61648  10.810   6.050   9.369  0.1497 -0.3912  3.8454
  457MOL0     H61649  10.669   6.132   9.506  0.6697 -1.6559  1.9457
  457MOL0     H61650  10.531   6.085   9.401 -0.9014  0.8184  3.5623
  457MOL0     H61651  10.654   5.926   9.626  0.1997 -2.1581 -0.2149
  457MOL0     H61652  10.548   5.855   9.514  3.1917 -1.9753  1.6237
  457MOL0     H61653  10.371   6.041   9.564 -0.4577 -1.8938 -0.7706
  457MOL0     H61654  10.485   6.116   9.675 -5.1583  3.9620 -4.2481
  457MOL0     H61655  10.319   5.820   9.511  0.5700 -1.3557 -1.3140
  457MOL0     H61656  10.193   5.605   9.500  0.3386 -2.4009 -1.1630
  457MOL0     H61657  10.055   5.180   9.752 -0.1213 -0.4686 -0.4804
  457MOL0     H61658   9.924   4.982   9.686 -1.5379  1.6721  0.1071
  457MOL0     H61659   9.790   4.977   9.278  2.4577  0.3902 -1.5360
  457MOL0     H61660   9.926   4.893   9.232 -0.6990 -0.2588  0.0576
  457MOL0     H61661   9.706   4.736   9.352 -1.8229 -0.4999 -0.7880
  457MOL0     H61662   9.708   4.781   9.180  1.0929 -0.5524 -0.2904
  457MOL0     H61663   9.935   4.684   9.166 -0.8251  0.2689 -0.2548
  457MOL0     H61664   9.913   4.625   9.332  0.1749  2.5089  0.7888
  457MOL0     H61665   9.755   4.559   9.083 -1.5193 -2.6758 -0.8454
  457MOL0     H61666   9.675   4.533   9.244  1.1487 -0.3738  1.3671
  457MOL0     H61667   9.743   4.332   9.156 -1.1922  0.2166  1.0255
  457MOL0     H61668   9.845   4.374   9.299 -1.1082 -0.0472  0.0373
  457MOL0     H61669   9.941   4.393   9.004  1.5436  1.9893 -0.3026
  457MOL0     H61670  10.006   4.450   9.160 -0.9553  0.2378  1.5512
  457MOL0     H61671   9.931   4.161   9.091 -0.3133 -0.1573  1.2012
  457MOL0     H61672   9.997   4.225   9.240 -0.5587  1.4040  0.7183
  457MOL0     H61673  10.192   4.322   9.060  1.0972 -0.6665 -0.0160
  457MOL0     H61674  10.201   4.156   9.130  0.7823 -0.0599 -1.0397
  457MOL0     H61675   9.997   5.087   9.275  4.2015  0.9835  0.5206
  457MOL0     H61676  10.077   5.285   9.321 -2.4989 -1.9960 -2.2141
  457MOL0     H61677  10.262   5.565   9.931  4.2320  2.0762  1.8946
  457MOL0     H61678  10.352   5.768   9.947 -0.0665 -1.6396  0.6456
  457MOL0     H61679   9.878   6.600   8.545 -2.1892  2.7383  0.2640
  457MOL0     H61680   9.715   6.768   8.593  0.2382 -2.9671 -2.2046
  457MOL0     H61681   9.469   6.945   8.995  0.1038  1.8424  0.1000
  457MOL0     H61682   9.283   7.090   9.056 -0.3750  1.7734 -0.4615
  457MOL0     H61683   9.011   6.983   9.121  1.5189 -0.9985 -1.0140
  457MOL0     H61684   8.921   6.958   8.963  2.3406 -0.6678  0.1269
  457MOL0     H61685   8.756   7.077   9.075 -1.6272  2.0794 -1.1981
  457MOL0     H61686   8.859   7.198   8.986 -1.5555 -1.2907 -0.0897
  457MOL0     H61687   8.839   7.290   9.223  1.2338  1.0387 -0.1202
  457MOL0     H61688   8.998   7.232   9.203 -0.1743  1.5104  0.5385
  457MOL0     H61689   8.876   6.996   9.291  1.1109  1.4789 -3.2740
  457MOL0     H61690   8.942   7.111   9.405 -0.5028  3.2594  0.8896
  457MOL0     H61691   8.525   7.094   9.487 -1.4999  0.2072 -1.8247
  457MOL0     H61692   9.038   6.949   8.747  0.9553 -2.2955 -0.4641
  457MOL0     H61693   9.170   6.728   8.617  1.5500  0.0649  3.8131
  457MOL0     H61694   9.146   6.897   8.551 -0.7036  0.3160  1.0301
  457MOL0     H61695   9.301   6.827   8.528  1.3288  1.3748  1.5495
  458MOL0     O61696   5.617   4.544  10.096 -0.2754 -0.0708  0.4347
  458MOL0     C61697   5.713   4.523  10.170  0.3469 -0.1517 -0.8722
  458MOL0     O61698   5.710   4.434  10.273  0.2768  0.0652 -0.0663
  458MOL0     C61699   5.608   4.340  10.286 -0.5001  0.6418  1.0189
  458MOL0     C61700   5.565   4.297  10.414  0.2494 -0.2900  0.6182
  458MOL0     C61701   5.459   4.205  10.432  0.6277  0.4084 -0.0703
  458MOL0     C61702   5.389   4.151  10.325  0.3314 -0.1922 -0.1737
  458MOL0     O61703   5.309   4.050  10.345 -0.3492  0.5739 -1.2374
  458MOL0     C61704   5.195   4.051  10.246 -0.3162  0.2046  0.1856
  458MOL0     C61705   5.077   3.967  10.312  0.5915  0.5096 -0.6149
  458MOL0     C61706   4.956   4.058  10.322 -0.3524  0.0156  0.4111
  458MOL0     C61707   4.984   4.169  10.427 -0.9499 -0.0004 -0.1821
  458MOL0     C61708   4.973   4.111  10.574 -0.2317  0.5733  0.5819
  458MOL0     C61709   4.839   4.041  10.612 -0.3670  0.1068  0.1789
  458MOL0     C61710   4.825   4.033  10.762  0.0992  0.2775  0.9232
  458MOL0     C61711   4.898   3.910  10.817  0.0410  0.3281  0.0987
  458MOL0     N61712   4.943   3.939  10.954 -0.0100  0.0761 -0.6710
  458MOL0     C61713   5.060   3.899  11.021  0.2540 -0.3061  0.6588
  458MOL0     C61714   5.030   3.920  11.150  0.6567  0.8469  0.3759
  458MOL0     C61715   5.117   3.895  11.269  0.4391  0.2120  0.6684
  458MOL0     C61716   5.249   3.975  11.272  0.8474 -0.2285  0.8852
  458MOL0     C61717   5.229   4.124  11.309  0.2562  0.2055 -0.0646
  458MOL0     C61718   5.228   4.132  11.457  0.9770 -0.4445 -1.6613
  458MOL0     O61719   5.222   4.274  11.492 -0.8081  0.3988  0.4422
  458MOL0     C61720   5.092   4.341  11.485 -0.4677 -0.0392 -0.1434
  458MOL0     C61721   4.979   4.283  11.436  0.4829 -0.0938 -0.7568
  458MOL0     C61722   4.850   4.334  11.443 -0.4919  1.0784 -1.0100
  458MOL0     C61723   4.832   4.462  11.493  0.4397 -1.0658 -0.1887
  458MOL0     C61724   4.693   4.531  11.498 -1.0061  0.1597 -0.3185
  458MOL0     O61725   4.684   4.667  11.503  0.4210  0.1850 -0.0335
  458MOL0     C61726   4.558   4.726  11.524  0.4209 -0.1498  0.3166
  458MOL0     C61727   4.480   4.682  11.629 -0.7862 -0.4938  0.5118
  458MOL0     C61728   4.350   4.733  11.648 -0.1666  0.2609 -0.0727
  458MOL0     C61729   4.291   4.839  11.567 -0.2560 -0.1764  0.5874
  458MOL0     O61730   4.162   4.896  11.581 -0.0165 -0.4919  0.4041
  458MOL0     C61731   4.075   4.832  11.675 -0.7362  0.2331  0.3207
  458MOL0     C61732   3.957   4.920  11.695 -0.5620  0.5154  0.1794
  458MOL0     C61733   3.987   5.045  11.771 -0.3883 -0.5692 -0.6838
  458MOL0     C61734   4.010   5.034  11.918  0.4706  0.0856 -1.1271
  458MOL0     C61735   3.996   5.168  11.999 -0.8790  0.3891 -0.4398
  458MOL0     C61736   4.038   5.141  12.145 -0.6175 -0.2736 -0.1819
  458MOL0     C61737   4.060   5.275  12.215  0.9072  0.5083 -0.4354
  458MOL0     C61738   3.940   5.309  12.312  0.7384  0.1797  0.0322
  458MOL0    Cl61739   3.936   5.211  12.464 -0.0541 -0.3598  0.2531
  458MOL0     C61740   4.375   4.891  11.469 -0.2278  0.2639 -0.1612
  458MOL0     C61741   4.508   4.840  11.449 -0.6002  0.5066 -0.5954
  458MOL0     O61742   4.599   4.454  11.476 -0.3699  0.1795  0.3359
  458MOL0     C61743   4.948   4.530  11.536  0.4558 -0.3071 -0.1298
  458MOL0     C61744   5.073   4.471  11.532  0.4618  0.5798 -1.0603
  458MOL0     N61745   4.919   3.993  11.162 -0.1482  0.0895 -0.4828
  458MOL0     N61746   4.860   3.994  11.046 -0.3307 -0.6287  0.5019
  458MOL0     C61747   5.437   4.190  10.197 -0.2306  0.7655  0.2811
  458MOL0     C61748   5.543   4.274  10.181 -1.0319 -0.4628  0.1695
  458MOL0     C61749   5.844   4.603  10.169  0.8697  0.2709 -0.2474
  458MOL0     C61750   5.926   4.606  10.287  0.5375  1.1051  0.1195
  458MOL0     C61751   6.054   4.657  10.270 -0.5248  0.8190  0.8169
  458MOL0     C61752   6.112   4.695  10.149  0.4641 -0.0824  0.2010
  458MOL0     O61753   6.244   4.727  10.124  0.7642 -0.4881 -0.5696
  458MOL0     C61754   6.337   4.674  10.222  0.4568  0.6275  0.9900
  458MOL0     C61755   6.464   4.673  10.140 -1.0603  0.2231  0.7175
  458MOL0     C61756   6.599   4.650  10.218 -0.4804  0.1397  0.1276
  458MOL0     C61757   6.585   4.501  10.271  0.4315 -0.5376 -0.1518
  458MOL0     C61758   6.700   4.456  10.349 -0.2862  0.0787  0.4505
  458MOL0     C61759   6.798   4.433  10.413 -0.4743  0.8870  0.2019
  458MOL0     C61760   6.031   4.691  10.041 -0.2831 -0.0381 -0.7476
  458MOL0     C61761   5.901   4.651  10.050 -0.7800  0.0823  1.2809
  458MOL0     C61762   5.820   4.648   9.922 -0.2251  0.2317 -0.0707
  458MOL0     H61763   5.623   4.355  10.485 -0.1892  3.1801 -1.6261
  458MOL0     H61764   5.421   4.193  10.533  0.1670  0.1901 -0.2697
  458MOL0     H61765   5.162   4.150  10.213 -0.2712 -0.5704 -2.3743
  458MOL0     H61766   5.233   3.994  10.161 -0.0411  2.4220 -1.2573
  458MOL0     H61767   5.102   3.914  10.405  1.7849  1.1819 -0.5248
  458MOL0     H61768   5.045   3.888  10.244 -0.1286 -0.9567  1.3288
  458MOL0     H61769   4.872   3.997  10.358  0.2541 -1.9181 -1.2685
  458MOL0     H61770   4.924   4.103  10.227 -2.3843 -2.4439 -0.1779
  458MOL0     H61771   5.085   4.209  10.420 -1.2047  1.7318  3.6066
  458MOL0     H61772   4.914   4.253  10.420 -0.2978  0.5587 -0.0975
  458MOL0     H61773   5.061   4.050  10.591 -0.5017 -0.4786 -1.4828
  458MOL0     H61774   4.978   4.199  10.639  0.3408  0.1633  1.0990
  458MOL0     H61775   4.756   4.100  10.572  1.9395  0.9567 -3.9491
  458MOL0     H61776   4.827   3.938  10.577 -0.8569  0.2361 -0.0395
  458MOL0     H61777   4.720   4.030  10.790 -0.3106 -3.4627 -0.5281
  458MOL0     H61778   4.857   4.126  10.810 -0.6543  0.1582  1.6742
  458MOL0     H61779   4.834   3.822  10.805  1.4567 -0.4240 -3.2864
  458MOL0     H61780   4.981   3.894  10.747 -0.9635 -2.1582 -0.6065
  458MOL0     H61781   5.152   3.853  10.986  1.1480 -0.1038  2.5841
  458MOL0     H61782   5.056   3.909  11.358  1.0145 -1.5462  1.3948
  458MOL0     H61783   5.148   3.790  11.268  0.1098  0.0655 -2.1405
  458MOL0     H61784   5.329   3.930  11.332  1.4662  0.9704  0.9841
  458MOL0     H61785   5.280   3.966  11.167 -1.2888 -3.5631  0.3732
  458MOL0     H61786   5.140   4.154  11.251  0.6984  2.2143  0.2137
  458MOL0     H61787   5.314   4.180  11.269 -1.3037  1.4507 -1.8313
  458MOL0     H61788   5.314   4.084  11.505  2.2437  1.9462 -1.4012
  458MOL0     H61789   5.137   4.083  11.492  0.3916 -0.0174 -2.5495
  458MOL0     H61790   4.989   4.183  11.396 -0.4246 -2.1862  3.6300
  458MOL0     H61791   4.779   4.256  11.416 -1.5254  2.2788 -1.8612
  458MOL0     H61792   4.513   4.608  11.700  0.7765  1.5049  1.9807
  458MOL0     H61793   4.285   4.694  11.725  1.0781  0.5005  1.1454
  458MOL0     H61794   4.039   4.737  11.635  1.0857  0.3132 -1.6887
  458MOL0     H61795   4.123   4.817  11.772  1.1806 -1.3065 -0.7977
  458MOL0     H61796   3.927   4.953  11.595  3.5488 -0.7995 -1.7086
  458MOL0     H61797   3.875   4.858  11.732 -0.1648 -1.2933 -1.8177
  458MOL0     H61798   4.061   5.100  11.711 -0.6127  1.3326  0.6805
  458MOL0     H61799   3.888   5.091  11.760  0.9971  3.1158  0.6141
  458MOL0     H61800   4.107   4.984  11.928 -1.5312 -3.7812  1.5465
  458MOL0     H61801   3.943   4.961  11.966  0.4589  2.5203  3.0852
  458MOL0     H61802   3.892   5.197  11.983 -1.5560 -2.4113 -1.7315
  458MOL0     H61803   4.065   5.234  11.946  2.0677 -2.7478 -0.8407
  458MOL0     H61804   3.953   5.087  12.187 -0.1615 -0.7399  0.1497
  458MOL0     H61805   4.129   5.080  12.146 -0.0356  0.5890  0.9396
  458MOL0     H61806   4.074   5.353  12.140  0.4901  1.5940  0.5898
  458MOL0     H61807   4.150   5.275  12.276 -1.5467  1.7037  3.5295
  458MOL0     H61808   3.938   5.415  12.339 -1.2493  0.7953 -2.1622
  458MOL0     H61809   3.848   5.282  12.259  0.7677  1.8914 -0.9548
  458MOL0     H61810   4.352   4.963  11.391  2.8612 -0.8086 -2.2418
  458MOL0     H61811   4.570   4.899  11.382  2.0184 -1.1509  0.1829
  458MOL0     H61812   4.951   4.628  11.583 -0.0430 -0.6266  0.5770
  458MOL0     H61813   5.163   4.519  11.572  0.0834  1.8110 -1.6370
  458MOL0     H61814   5.398   4.142  10.108  0.1871  0.6615  0.1494
  458MOL0     H61815   5.563   4.303  10.078 -2.6233  0.7643  0.1640
  458MOL0     H61816   5.901   4.580  10.389  2.5820 -0.8758  0.1848
  458MOL0     H61817   6.116   4.677  10.357 -0.6045  1.0158  0.8298
  458MOL0     H61818   6.313   4.579  10.268  1.6452  0.6204  1.6480
  458MOL0     H61819   6.343   4.754  10.297  2.1767  2.5490 -1.0515
  458MOL0     H61820   6.470   4.776  10.103  1.4472  0.4964  1.6974
  458MOL0     H61821   6.456   4.602  10.057 -1.9405  1.7051 -0.5114
  458MOL0     H61822   6.622   4.722  10.297  3.9129 -1.4526  0.5750
  458MOL0     H61823   6.688   4.661  10.155 -1.1047  2.6993 -0.4170
  458MOL0     H61824   6.498   4.494  10.337  0.2351  0.0552 -0.3411
  458MOL0     H61825   6.556   4.438  10.187  0.4176 -0.6734 -0.0451
  458MOL0     H61826   6.875   4.421  10.487 -0.0272  0.4623 -0.3318
  458MOL0     H61827   6.079   4.716   9.947  1.9076  0.4509  0.4383
  458MOL0     H61828   5.742   4.718   9.953  0.9684  1.4813  0.1862
  458MOL0     H61829   5.887   4.691   9.848  4.9944 -2.5635  2.3959
  458MOL0     H61830   5.791   4.546   9.895  0.7129 -0.7098  2.1745
  459MOL0     O61831   5.266   5.211   3.520  0.3198  0.0314 -0.7799
  459MOL0     C61832   5.316   5.222   3.627 -0.5429 -1.1917 -1.0408
  459MOL0     O61833   5.299   5.329   3.714 -0.7902 -0.2044 -0.1710
  459MOL0     C61834   5.237   5.447   3.684  0.4061  0.1207 -0.7660
  459MOL0     C61835   5.314   5.555   3.680  0.3067 -0.1150  0.4012
  459MOL0     C61836   5.256   5.680   3.649 -0.7498  0.1107  0.5384
  459MOL0     C61837   5.119   5.691   3.605 -1.4099  0.1574 -0.5444
  459MOL0     O61838   5.075   5.807   3.548  0.2400 -0.6501  0.4331
  459MOL0     C61839   4.987   5.898   3.622  0.3720  0.7137 -1.0849
  459MOL0     C61840   4.861   5.908   3.547  0.2904  0.7526 -0.7691
  459MOL0     C61841   4.861   5.971   3.413 -0.5206 -0.9115 -0.0643
  459MOL0     C61842   4.915   5.874   3.307  0.8387 -0.1699  0.2099
  459MOL0     C61843   4.913   5.940   3.161  0.7396 -0.5445 -0.0588
  459MOL0     C61844   4.768   5.937   3.096 -1.2594 -1.0449 -0.5329
  459MOL0     C61845   4.739   6.022   2.968  0.0532 -0.7831 -0.0369
  459MOL0     C61846   4.758   6.166   3.008 -0.5710  0.7240  0.2135
  459MOL0     N61847   4.623   6.217   3.059  0.6817  0.5773 -0.4719
  459MOL0     C61848   4.519   6.274   2.985  0.0807 -0.0284  0.8192
  459MOL0     C61849   4.440   6.324   3.081  0.8226 -0.1549  0.0014
  459MOL0     C61850   4.318   6.399   3.052  0.2820 -0.2422  1.3319
  459MOL0     C61851   4.338   6.553   3.052  0.8402  0.3561 -0.1385
  459MOL0     C61852   4.398   6.581   2.916  0.1201 -0.1331  0.3765
  459MOL0     C61853   4.549   6.604   2.916  0.8531 -0.5878 -0.7755
  459MOL0     O61854   4.612   6.573   2.798 -0.8068 -0.2751  0.8264
  459MOL0     C61855   4.606   6.674   2.701  0.4032  0.4663  0.3260
  459MOL0     C61856   4.585   6.817   2.707  0.6455  0.0309 -1.4372
  459MOL0     C61857   4.566   6.897   2.597 -0.1210 -0.0922 -0.2496
  459MOL0     C61858   4.542   6.829   2.468 -0.1913 -0.3946 -0.3034
  459MOL0     C61859   4.485   6.900   2.353 -0.3720  0.4445 -1.0315
  459MOL0     O61860   4.481   7.037   2.350  0.0139 -0.9104 -0.1986
  459MOL0     C61861   4.428   7.109   2.250 -0.2809 -0.0056 -0.6561
  459MOL0     C61862   4.397   7.057   2.120 -0.7807 -1.3231  0.7936
  459MOL0     C61863   4.365   7.147   2.025 -1.0980 -0.1815 -0.3274
  459MOL0     C61864   4.374   7.289   2.026 -0.6347  1.0111 -0.4422
  459MOL0     O61865   4.360   7.358   1.906 -0.9535 -0.3952 -0.3055
  459MOL0     C61866   4.438   7.481   1.901  0.0590 -0.0251  0.5479
  459MOL0     C61867   4.448   7.509   1.755  1.2094 -0.8112  0.0049
  459MOL0     C61868   4.505   7.648   1.735  0.3293  0.1542 -0.3421
  459MOL0     C61869   4.655   7.640   1.758 -0.2669  0.5813  0.0755
  459MOL0     C61870   4.716   7.765   1.708 -0.4466 -0.9261 -0.1913
  459MOL0     C61871   4.851   7.758   1.644 -0.1064  0.1681  0.6173
  459MOL0     C61872   4.901   7.902   1.624 -0.2013 -0.4667  0.2852
  459MOL0     C61873   5.042   7.905   1.559  1.1864  0.1228 -0.2953
  459MOL0    Cl61874   5.096   8.073   1.520  0.4270 -0.3989 -0.1048
  459MOL0     C61875   4.409   7.333   2.151 -0.3460  0.5759  0.0577
  459MOL0     C61876   4.439   7.249   2.260  0.0355 -0.1287 -0.8121
  459MOL0     O61877   4.458   6.823   2.265 -0.0786 -0.8806  0.5306
  459MOL0     C61878   4.572   6.701   2.465  0.4832  0.4391  0.1188
  459MOL0     C61879   4.601   6.623   2.572  0.7549 -0.7851  0.3874
  459MOL0     N61880   4.494   6.311   3.207  0.3006 -0.3552 -0.5417
  459MOL0     N61881   4.612   6.251   3.188  0.4170  0.2447 -0.4773
  459MOL0     C61882   5.042   5.572   3.609  0.1074  0.2798 -0.7042
  459MOL0     C61883   5.102   5.448   3.643 -0.5725 -0.3508  0.4021
  459MOL0     C61884   5.388   5.109   3.689  0.6305  1.0530  0.4134
  459MOL0     C61885   5.350   5.067   3.817  0.1130  0.0318 -0.7572
  459MOL0     C61886   5.406   4.959   3.883  0.2106 -1.1400 -0.0404
  459MOL0     C61887   5.500   4.884   3.806 -1.0050 -0.8312 -0.0250
  459MOL0     O61888   5.564   4.760   3.851 -0.0241 -0.2323  0.1905
  459MOL0     C61889   5.540   4.714   3.989  0.2378 -0.2883 -0.1514
  459MOL0     C61890   5.608   4.578   4.031 -0.0616 -0.9304 -0.4749
  459MOL0     C61891   5.616   4.478   3.921 -0.3650  0.8379 -1.0601
  459MOL0     C61892   5.471   4.416   3.903 -0.1618 -0.1085  0.0390
  459MOL0     C61893   5.469   4.312   3.803  1.0366 -0.8463  0.2000
  459MOL0     C61894   5.481   4.235   3.713  0.6697 -0.2122  0.2806
  459MOL0     C61895   5.551   4.937   3.683  0.2825  0.5248 -0.7163
  459MOL0     C61896   5.496   5.049   3.623  0.4134  0.4520 -0.2112
  459MOL0     C61897   5.524   5.081   3.477  0.1515  0.7399  0.0746
  459MOL0     H61898   5.418   5.530   3.694 -0.1217 -1.3669  1.5963
  459MOL0     H61899   5.313   5.773   3.647  0.6911 -0.6650  2.5034
  459MOL0     H61900   4.979   5.862   3.725 -1.3153  0.0392 -1.4170
  459MOL0     H61901   5.022   6.001   3.631  0.2305  0.6153  1.1932
  459MOL0     H61902   4.796   5.970   3.610 -0.2321  1.2659 -1.7889
  459MOL0     H61903   4.810   5.812   3.554  1.2890  0.1812 -1.1573
  459MOL0     H61904   4.927   6.058   3.423 -2.0065 -0.0155  3.6046
  459MOL0     H61905   4.757   6.000   3.400  0.0833  0.9824 -1.1317
  459MOL0     H61906   5.021   5.857   3.326  1.1734  1.4938 -0.0072
  459MOL0     H61907   4.863   5.777   3.308  1.3426 -0.4425  0.1750
  459MOL0     H61908   4.952   6.039   3.185 -2.3375  0.6348  0.4807
  459MOL0     H61909   4.983   5.884   3.099 -1.0804 -0.8683 -1.9531
  459MOL0     H61910   4.742   5.832   3.080 -0.2256 -1.5062  0.6848
  459MOL0     H61911   4.707   5.971   3.180 -1.3148  1.1647 -1.4060
  459MOL0     H61912   4.635   6.015   2.934 -0.6478  4.3222  0.3212
  459MOL0     H61913   4.810   5.993   2.890  0.8107 -1.6645  0.9543
  459MOL0     H61914   4.843   6.168   3.076  0.9779 -1.2495 -1.5055
  459MOL0     H61915   4.780   6.224   2.918 -0.5178 -1.1273 -1.0394
  459MOL0     H61916   4.488   6.271   2.881  0.7880 -1.2252  0.6177
  459MOL0     H61917   4.264   6.370   2.961  0.8025  1.3153  0.4876
  459MOL0     H61918   4.247   6.375   3.132 -1.1691  1.4028  0.6080
  459MOL0     H61919   4.253   6.621   3.059  0.7598  0.0452  2.8895
  459MOL0     H61920   4.401   6.578   3.138 -1.7927 -0.6065  2.2295
  459MOL0     H61921   4.351   6.658   2.854 -1.4675 -0.0319  1.6491
  459MOL0     H61922   4.383   6.502   2.843  2.3614 -0.4095  0.1215
  459MOL0     H61923   4.574   6.533   2.996  0.6078  0.4711  0.2603
  459MOL0     H61924   4.565   6.707   2.948 -0.7814 -1.2774  2.7013
  459MOL0     H61925   4.592   6.869   2.801  3.8005 -1.5506 -0.6594
  459MOL0     H61926   4.563   7.005   2.607  0.5785 -0.1640  0.9235
  459MOL0     H61927   4.383   6.955   2.086 -1.2633 -0.3429 -2.2377
  459MOL0     H61928   4.341   7.093   1.934  1.2851  0.3993 -1.3703
  459MOL0     H61929   4.365   7.550   1.945 -0.9387  0.4429 -1.7068
  459MOL0     H61930   4.528   7.486   1.963  1.1154  0.3494 -0.9689
  459MOL0     H61931   4.515   7.439   1.704  1.6037  1.5202 -2.9956
  459MOL0     H61932   4.353   7.501   1.702  1.4159 -1.1523 -0.3150
  459MOL0     H61933   4.471   7.678   1.635  1.8580 -0.0254 -0.9442
  459MOL0     H61934   4.454   7.722   1.798  0.1930  0.5112 -0.8622
  459MOL0     H61935   4.689   7.562   1.690 -2.3123  0.6560 -1.1193
  459MOL0     H61936   4.686   7.612   1.860  1.9319  1.1281 -0.3902
  459MOL0     H61937   4.707   7.839   1.789 -1.5984 -0.9152 -0.3077
  459MOL0     H61938   4.652   7.800   1.627 -0.1585 -0.5959 -0.2774
  459MOL0     H61939   4.917   7.698   1.706 -0.4403  0.3986  1.2063
  459MOL0     H61940   4.846   7.711   1.545 -1.0478 -0.6863  1.0563
  459MOL0     H61941   4.899   7.952   1.721  0.6765 -3.3162  1.8969
  459MOL0     H61942   4.831   7.946   1.552  0.7783 -0.4003 -0.6466
  459MOL0     H61943   5.111   7.855   1.628  0.6238  1.5154  1.3432
  459MOL0     H61944   5.040   7.860   1.459  4.9552 -0.4724 -0.2455
  459MOL0     H61945   4.420   7.439   2.173  1.0254  0.8419 -1.7348
  459MOL0     H61946   4.472   7.292   2.354 -1.5070 -1.6855  0.5134
  459MOL0     H61947   4.556   6.635   2.380  2.9750 -0.7130  0.4709
  459MOL0     H61948   4.618   6.520   2.543  0.8285 -1.0206  1.2408
  459MOL0     H61949   4.937   5.572   3.580 -1.2113 -4.3744  2.8135
  459MOL0     H61950   5.039   5.359   3.650 -0.9929 -0.1004 -0.1333
  459MOL0     H61951   5.265   5.118   3.861  1.7878  1.9609  0.3837
  459MOL0     H61952   5.373   4.920   3.979  1.0505  0.3424  0.8918
  459MOL0     H61953   5.435   4.694   4.012 -0.7556  2.7617 -1.5642
  459MOL0     H61954   5.565   4.797   4.057 -0.4050 -1.0769  1.0991
  459MOL0     H61955   5.558   4.545   4.123  2.7762 -2.1864  0.7508
  459MOL0     H61956   5.711   4.609   4.049 -0.2958 -0.0229 -0.6481
  459MOL0     H61957   5.689   4.400   3.947 -0.3613  1.0417 -0.4426
  459MOL0     H61958   5.663   4.517   3.830  2.3039 -2.9193 -1.5429
  459MOL0     H61959   5.434   4.355   3.986  0.7101 -2.7344 -1.4062
  459MOL0     H61960   5.403   4.501   3.897 -3.3552 -2.2673  2.1502
  459MOL0     H61961   5.486   4.153   3.644  1.0270  0.8078 -0.9457
  459MOL0     H61962   5.635   4.887   3.635 -1.2067 -3.0629  0.1562
  459MOL0     H61963   5.430   5.055   3.429  0.2537 -1.6680  1.0123
  459MOL0     H61964   5.550   5.187   3.473 -1.3486  1.2931  2.7312
  459MOL0     H61965   5.600   5.016   3.432  0.8276  2.5935 -1.5678
  460MOL0     O61966  11.157   5.772   8.969 -0.2770  0.0667 -1.0667
  460MOL0     C61967  11.046   5.761   9.032 -0.3155  0.1740  0.3001
  460MOL0     O61968  11.027   5.763   9.173  0.4935  0.7481  0.3222
  460MOL0     C61969  11.121   5.797   9.269  0.2473 -0.7978  0.8932
  460MOL0     C61970  11.082   5.866   9.377 -0.5044 -0.0943 -0.5642
  460MOL0     C61971  11.167   5.863   9.494 -0.4399 -0.5140  0.1832
  460MOL0     C61972  11.298   5.814   9.496 -0.2446  0.0382  0.3351
  460MOL0     O61973  11.391   5.804   9.600 -0.0781 -0.0584 -0.1109
  460MOL0     C61974  11.335   5.778   9.728  0.2514 -0.1052 -1.1708
  460MOL0     C61975  11.394   5.862   9.831 -0.4632 -0.0518 -0.1355
  460MOL0     C61976  11.343   5.799   9.967 -1.3123  0.1351  0.4889
  460MOL0     C61977  11.264   5.902  10.051 -0.1232 -0.1163  0.0994
  460MOL0     C61978  11.344   6.006  10.139  0.1316 -0.0048  0.5844
  460MOL0     C61979  11.261   6.067  10.246  0.0562 -0.2073 -0.5655
  460MOL0     C61980  11.329   6.153  10.348  0.6462  0.0810 -0.4211
  460MOL0     C61981  11.355   6.294  10.306  1.0844  0.2778  0.5246
  460MOL0     N61982  11.226   6.369  10.284 -0.2078  0.2040  0.2017
  460MOL0     C61983  11.136   6.402  10.378 -0.2877 -0.2135  0.2011
  460MOL0     C61984  11.047   6.483  10.307 -0.5528  0.3870  0.8912
  460MOL0     C61985  10.927   6.547  10.374  0.1226  0.2502  0.8624
  460MOL0     C61986  10.957   6.689  10.415  0.0203 -0.4939 -0.2111
  460MOL0     C61987  10.962   6.773  10.291  0.3174 -0.0021 -0.4685
  460MOL0     C61988  11.041   6.899  10.311  0.9313 -0.0817 -0.8862
  460MOL0     O61989  10.980   6.976  10.417  0.3320 -0.2650 -0.9153
  460MOL0     C61990  10.933   7.105  10.383 -0.5649  0.4160  0.2749
  460MOL0     C61991  11.028   7.193  10.340 -1.0111 -0.1547  0.2098
  460MOL0     C61992  10.995   7.319  10.291  0.7048  0.0026 -0.7410
  460MOL0     C61993  10.862   7.362  10.287 -0.0599  0.1844  0.7376
  460MOL0     C61994  10.823   7.491  10.243  0.0709 -0.8387  0.2220
  460MOL0     O61995  10.695   7.504  10.193  0.2148  0.6138 -1.1231
  460MOL0     C61996  10.670   7.622  10.129 -0.1773 -0.1370  0.7282
  460MOL0     C61997  10.556   7.689  10.161  0.0406  0.6172  0.2364
  460MOL0     C61998  10.523   7.810  10.100 -0.0272 -0.5759 -0.3256
  460MOL0     C61999  10.601   7.861  10.005 -0.0128 -0.1181 -0.0073
  460MOL0     O62000  10.575   7.988   9.945 -0.4603 -0.3513 -0.0291
  460MOL0     C62001  10.479   8.080  10.002 -0.4912 -0.3832 -0.3040
  460MOL0     C62002  10.527   8.222   9.953 -0.1393 -0.4237 -0.2291
  460MOL0     C62003  10.436   8.339   9.998 -0.5670  0.2836  0.2506
  460MOL0     C62004  10.489   8.470   9.946 -0.4271 -0.0592  0.1220
  460MOL0     C62005  10.381   8.572   9.922 -0.3587 -0.3500 -0.1179
  460MOL0     C62006  10.441   8.706   9.954 -0.0014  0.4032 -0.4006
  460MOL0     C62007  10.480   8.731  10.107 -0.1837  0.7375  0.5271
  460MOL0     C62008  10.442   8.876  10.133  0.2773 -0.2799 -0.3303
  460MOL0    Cl62009  10.536   8.993  10.038 -0.0172 -0.4054  0.2510
  460MOL0     C62010  10.712   7.788   9.966 -0.0017  0.5090 -0.1471
  460MOL0     C62011  10.743   7.665  10.022 -0.2689 -0.5345 -0.5488
  460MOL0     O62012  10.912   7.573  10.229  0.3369 -0.1868  0.6235
  460MOL0     C62013  10.770   7.270  10.332 -0.1474  0.3800  0.4797
  460MOL0     C62014  10.800   7.143  10.372 -0.8078  0.2970 -0.0361
  460MOL0     N62015  11.081   6.482  10.170  0.3803 -0.6099  0.1655
  460MOL0     N62016  11.196   6.425  10.160 -0.0167  0.4836 -0.1408
  460MOL0     C62017  11.343   5.761   9.372 -0.5440 -0.9349 -0.1901
  460MOL0     C62018  11.248   5.745   9.268  0.6030  0.1853  0.3603
  460MOL0     C62019  10.925   5.732   8.950  0.1409 -0.3498 -1.5720
  460MOL0     C62020  10.802   5.710   9.028 -0.9175 -0.1990 -0.3896
  460MOL0     C62021  10.687   5.669   8.963  0.1482 -0.2831  0.1731
  460MOL0     C62022  10.680   5.641   8.828 -1.5107 -0.6772 -0.0097
  460MOL0     O62023  10.572   5.598   8.755 -0.2463 -0.4546  0.0658
  460MOL0     C62024  10.438   5.627   8.806 -1.1337 -0.2922 -0.0771
  460MOL0     C62025  10.336   5.627   8.695  0.1750  0.3331 -0.3377
  460MOL0     C62026  10.336   5.754   8.609  0.8024  0.0521 -0.1729
  460MOL0     C62027  10.260   5.871   8.682 -0.1758  0.7028 -0.4631
  460MOL0     C62028  10.116   5.860   8.637  0.8988  1.0685 -0.5259
  460MOL0     C62029   9.994   5.853   8.610 -0.4459  0.2139 -0.4830
  460MOL0     C62030  10.803   5.665   8.756  0.9362  1.3830  0.0893
  460MOL0     C62031  10.920   5.719   8.813  0.9838 -0.6650  0.0922
  460MOL0     C62032  11.039   5.763   8.724  0.1464  0.1686  0.9431
  460MOL0     H62033  10.986   5.916   9.388  0.0573  1.0821 -0.8060
  460MOL0     H62034  11.115   5.898   9.583  1.0735 -0.0000  0.8866
  460MOL0     H62035  11.226   5.788   9.731  0.2341 -0.4084  0.5981
  460MOL0     H62036  11.353   5.673   9.750 -1.5688 -1.1891 -4.1587
  460MOL0     H62037  11.359   5.965   9.815 -2.8239 -0.5208  1.4345
  460MOL0     H62038  11.502   5.851   9.820 -0.5006 -1.8541  0.8902
  460MOL0     H62039  11.429   5.768  10.028 -2.7037  0.6232  2.8105
  460MOL0     H62040  11.276   5.715   9.947  0.8663 -1.3322 -1.1901
  460MOL0     H62041  11.176   5.949  10.007  1.2995  2.1429 -0.4923
  460MOL0     H62042  11.221   5.830  10.121  1.2513 -0.6021  0.4816
  460MOL0     H62043  11.423   5.957  10.197  2.1569  0.4553 -1.6566
  460MOL0     H62044  11.389   6.076  10.068  3.9201 -1.0425  1.7735
  460MOL0     H62045  11.174   6.121  10.208 -0.8899 -1.1013  0.2704
  460MOL0     H62046  11.234   5.989  10.318  1.5743  0.1139  0.3993
  460MOL0     H62047  11.416   6.105  10.394 -0.0034 -1.1654 -0.4822
  460MOL0     H62048  11.258   6.166  10.430 -0.5722 -1.9488 -1.0981
  460MOL0     H62049  11.399   6.360  10.381 -2.3382  3.5255 -0.0219
  460MOL0     H62050  11.414   6.291  10.214  3.2244  2.5690  1.7064
  460MOL0     H62051  11.148   6.377  10.483 -2.6947  2.9551  1.4320
  460MOL0     H62052  10.837   6.549  10.312  0.5363  1.0737  0.2698
  460MOL0     H62053  10.923   6.487  10.466 -2.5821  0.3644  0.8888
  460MOL0     H62054  10.882   6.727  10.485  1.8094  2.1234  0.4319
  460MOL0     H62055  11.050   6.690  10.472  0.8507 -0.6041 -1.5148
  460MOL0     H62056  10.861   6.808  10.268  0.2644 -0.2583 -0.6395
  460MOL0     H62057  11.000   6.720  10.203  4.0642  3.1503 -1.0063
  460MOL0     H62058  11.041   6.954  10.217  1.4981  1.0020 -0.2737
  460MOL0     H62059  11.147   6.887  10.334  0.0433 -2.1223  2.9530
  460MOL0     H62060  11.132   7.161  10.345 -0.2326  1.9948 -0.9146
  460MOL0     H62061  11.071   7.397  10.284  0.4687  0.3299  0.1852
  460MOL0     H62062  10.492   7.645  10.237  0.6510 -1.1576 -0.2064
  460MOL0     H62063  10.432   7.866  10.120 -0.0093 -0.6536 -0.0293
  460MOL0     H62064  10.376   8.052   9.982 -1.1156  0.6662  1.2789
  460MOL0     H62065  10.491   8.071  10.110 -2.0484 -1.4479 -0.2012
  460MOL0     H62066  10.625   8.240   9.999  0.6058 -1.1232 -1.4835
  460MOL0     H62067  10.537   8.217   9.844  1.1933 -4.1990 -0.0932
  460MOL0     H62068  10.338   8.323   9.953 -1.5373 -2.0924  2.8768
  460MOL0     H62069  10.436   8.331  10.107  1.1404  0.8750  0.3310
  460MOL0     H62070  10.548   8.452   9.855 -1.1165  3.6305 -1.2423
  460MOL0     H62071  10.553   8.507  10.026 -0.6072 -0.8346  0.6395
  460MOL0     H62072  10.292   8.551   9.980  1.0565 -3.3143  1.1858
  460MOL0     H62073  10.356   8.565   9.816  0.3765 -1.0136 -0.2636
  460MOL0     H62074  10.537   8.716   9.904  0.0708  0.6927 -0.2118
  460MOL0     H62075  10.393   8.796   9.914  1.6122  1.5096  0.0585
  460MOL0     H62076  10.584   8.715  10.136  0.0107  0.2015 -0.4027
  460MOL0     H62077  10.414   8.666  10.165 -2.2898 -0.2737 -2.7022
  460MOL0     H62078  10.336   8.883  10.108  0.0571  0.6636  0.7814
  460MOL0     H62079  10.453   8.919  10.233  0.4443  2.0370 -1.2737
  460MOL0     H62080  10.766   7.828   9.881 -0.2416 -0.0589 -0.5708
  460MOL0     H62081  10.831   7.608   9.995 -0.9425 -1.9460  0.1055
  460MOL0     H62082  10.665   7.297  10.326 -0.4142 -0.8525 -1.7791
  460MOL0     H62083  10.726   7.075  10.413  0.2861 -1.4635 -0.8560
  460MOL0     H62084  11.447   5.739   9.351  0.5530  1.6863  1.8017
  460MOL0     H62085  11.287   5.698   9.178 -2.5558 -2.1662  0.0298
  460MOL0     H62086  10.805   5.715   9.136  2.9988 -0.7597 -0.3330
  460MOL0     H62087  10.592   5.647   9.011 -0.1141  1.3057  0.4143
  460MOL0     H62088  10.428   5.725   8.853  0.3874  1.4254 -3.0399
  460MOL0     H62089  10.404   5.551   8.877  0.3940  0.1495  1.1706
  460MOL0     H62090  10.242   5.606   8.748  0.2801 -1.6765 -0.9002
  460MOL0     H62091  10.368   5.544   8.632  0.3612  0.1823 -0.0490
  460MOL0     H62092  10.295   5.739   8.509  2.8223  1.3131 -1.2761
  460MOL0     H62093  10.442   5.780   8.595  0.6759  0.3878 -0.5242
  460MOL0     H62094  10.257   5.865   8.791 -4.1228  0.0365 -0.4423
  460MOL0     H62095  10.319   5.950   8.636 -1.7087  0.3468 -3.2860
  460MOL0     H62096   9.889   5.850   8.590 -1.2088  2.1640  2.5044
  460MOL0     H62097  10.798   5.647   8.649  1.2465 -1.0529  0.4246
  460MOL0     H62098  11.124   5.697   8.706  0.3716  0.1339  2.0574
  460MOL0     H62099  10.999   5.774   8.622  6.7375  1.4953 -2.0005
  460MOL0     H62100  11.089   5.856   8.751  2.4759 -0.4484 -0.9297
  461MOL0     O62101   1.978  11.295   2.242 -0.4574  0.1978  0.2446
  461MOL0     C62102   2.021  11.175   2.251  0.9908 -1.0143  0.2763
  461MOL0     O62103   1.945  11.075   2.275  0.5245  0.4102 -0.5400
  461MOL0     C62104   1.816  11.084   2.250  0.5771 -0.0177  0.0526
  461MOL0     C62105   1.758  11.009   2.154 -0.2709 -0.6563  0.5861
  461MOL0     C62106   1.621  10.999   2.124  0.1281 -0.2077 -0.1059
  461MOL0     C62107   1.533  11.062   2.197  0.4298 -0.6592 -0.1626
  461MOL0     O62108   1.391  11.051   2.192 -0.4897 -0.8866  0.3997
  461MOL0     C62109   1.343  10.966   2.089  0.3889  0.2101 -0.7290
  461MOL0     C62110   1.211  10.910   2.131 -0.0877 -0.2971 -0.3007
  461MOL0     C62111   1.210  10.814   2.258  0.5718  0.1121 -0.1815
  461MOL0     C62112   1.081  10.825   2.330 -0.1706  0.4216 -0.0345
  461MOL0     C62113   0.960  10.780   2.241  0.1607  0.7552  0.8060
  461MOL0     C62114   0.831  10.852   2.294 -0.5615 -1.1029 -0.7356
  461MOL0     C62115   0.697  10.833   2.219 -0.0209  0.2456 -0.4223
  461MOL0     C62116   0.575  10.898   2.278  0.9038 -0.3925 -0.1832
  461MOL0     N62117   0.601  11.042   2.270 -0.2820 -0.7921  0.5540
  461MOL0     C62118   0.650  11.123   2.370  0.8642  0.6484 -0.3338
  461MOL0     C62119   0.652  11.250   2.323 -0.3337 -0.5039  0.1127
  461MOL0     C62120   0.692  11.374   2.402  1.0249 -0.4006  0.0910
  461MOL0     C62121   0.769  11.466   2.308 -0.9853 -0.2044 -0.0450
  461MOL0     C62122   0.848  11.575   2.381 -0.2050  0.0229  0.2370
  461MOL0     C62123   0.908  11.673   2.278 -1.1780 -0.5401  0.2108
  461MOL0     O62124   0.986  11.584   2.185  0.1881 -0.7413 -0.2906
  461MOL0     C62125   1.080  11.640   2.105  1.0104  0.2927  0.3985
  461MOL0     C62126   1.184  11.555   2.066 -0.5224  0.2098  0.1187
  461MOL0     C62127   1.290  11.606   1.980 -0.2981 -0.2495 -0.2310
  461MOL0     C62128   1.286  11.737   1.944 -0.9958  0.7235  0.1692
  461MOL0     C62129   1.401  11.800   1.872  0.2001  0.3311  0.0744
  461MOL0     O62130   1.509  11.717   1.844  0.4408 -0.1809 -0.1207
  461MOL0     C62131   1.610  11.766   1.762  0.1174 -0.1643  0.3395
  461MOL0     C62132   1.601  11.742   1.628 -0.3390  0.2443 -0.2133
  461MOL0     C62133   1.709  11.779   1.543  1.2862 -0.3521  0.6278
  461MOL0     C62134   1.825  11.851   1.594  0.3599  0.1301  0.1666
  461MOL0     O62135   1.917  11.914   1.518 -0.3445 -0.2587  0.0878
  461MOL0     C62136   1.877  11.998   1.399 -0.4464 -0.4307 -0.1111
  461MOL0     C62137   1.944  12.133   1.406  0.1835  0.1565  0.2440
  461MOL0     C62138   2.092  12.115   1.428 -0.6642 -0.1142  0.9826
  461MOL0     C62139   2.160  12.064   1.295  0.4014  0.2904  0.4102
  461MOL0     C62140   2.313  12.064   1.313  0.2041 -0.0540  0.2116
  461MOL0     C62141   2.393  12.003   1.198  0.9300  0.3141 -0.3258
  461MOL0     C62142   2.538  12.016   1.238  0.9853  0.5195 -0.2605
  461MOL0     C62143   2.637  11.945   1.148 -0.0581  0.1158  0.2597
  461MOL0    Cl62144   2.789  11.926   1.239 -0.3245  0.0873  0.0775
  461MOL0     C62145   1.824  11.876   1.726 -0.0738  0.3073 -0.8930
  461MOL0     C62146   1.722  11.837   1.812  0.0094 -0.8733  0.4007
  461MOL0     O62147   1.380  11.910   1.826 -0.0645 -0.4620  0.5344
  461MOL0     C62148   1.168  11.814   1.975  0.1377 -0.0299  0.0653
  461MOL0     C62149   1.065  11.770   2.050 -0.5600 -0.0739 -0.4625
  461MOL0     N62150   0.605  11.251   2.195  0.1013 -0.5366 -0.3757
  461MOL0     N62151   0.581  11.126   2.163 -0.3560 -0.6553  0.3984
  461MOL0     C62152   1.584  11.165   2.288  0.2602 -1.4021 -0.8991
  461MOL0     C62153   1.725  11.164   2.323  0.7108 -0.4451  0.0346
  461MOL0     C62154   2.161  11.156   2.244 -0.2014 -0.6421  0.5736
  461MOL0     C62155   2.256  11.242   2.324  0.0298  1.0944  0.8123
  461MOL0     C62156   2.393  11.233   2.318  0.2946  0.4257  0.9104
  461MOL0     C62157   2.458  11.131   2.259 -0.9025 -0.8100  0.5011
  461MOL0     O62158   2.592  11.117   2.253 -0.1771  0.5611 -0.8054
  461MOL0     C62159   2.690  11.194   2.322 -0.0454  0.0884  0.0918
  461MOL0     C62160   2.731  11.304   2.230  0.3977 -0.6080 -0.2502
  461MOL0     C62161   2.824  11.406   2.298 -0.0958 -0.5889  0.8584
  461MOL0     C62162   2.760  11.499   2.410  0.1720  1.5214 -0.2201
  461MOL0     C62163   2.821  11.628   2.443  0.2383 -1.0833  0.9659
  461MOL0     C62164   2.877  11.737   2.456  1.1071 -0.1429 -0.0461
  461MOL0     C62165   2.372  11.048   2.181  0.4864  0.1610 -0.1965
  461MOL0     C62166   2.233  11.052   2.179 -0.0101  0.3263 -0.6818
  461MOL0     C62167   2.152  10.956   2.089  0.0285  0.6199 -0.9262
  461MOL0     H62168   1.821  10.965   2.077 -2.8628 -1.0833 -1.4232
  461MOL0     H62169   1.598  10.946   2.032  2.4492  1.8241 -2.0074
  461MOL0     H62170   1.343  11.020   1.994  3.1874  1.5780 -0.0600
  461MOL0     H62171   1.400  10.873   2.073 -1.4148 -0.9638 -0.6594
  461MOL0     H62172   1.170  10.857   2.045  1.8217 -2.2650 -0.0814
  461MOL0     H62173   1.151  10.999   2.155  0.9038  1.4859 -3.7544
  461MOL0     H62174   1.294  10.843   2.322  1.9067  0.0054 -1.8240
  461MOL0     H62175   1.217  10.711   2.220 -1.4271 -1.1571  2.4995
  461MOL0     H62176   1.078  10.756   2.416  2.4914  2.4887  1.9002
  461MOL0     H62177   1.089  10.929   2.363 -1.0356 -0.4064  3.1541
  461MOL0     H62178   0.981  10.804   2.137  0.3905 -0.4803  0.5530
  461MOL0     H62179   0.949  10.672   2.242  0.5682  0.7095  1.6363
  461MOL0     H62180   0.809  10.824   2.398  0.5203  1.3760  0.2572
  461MOL0     H62181   0.857  10.958   2.294 -2.1349 -0.6326  1.4729
  461MOL0     H62182   0.685  10.724   2.216  0.2364  0.2345 -1.2750
  461MOL0     H62183   0.705  10.864   2.115 -0.9763 -4.6715 -2.2598
  461MOL0     H62184   0.487  10.865   2.220  0.4656  0.0289  0.2368
  461MOL0     H62185   0.563  10.870   2.383  0.3507  0.1814 -0.0866
  461MOL0     H62186   0.684  11.083   2.465 -0.3437  0.8927  0.2142
  461MOL0     H62187   0.604  11.426   2.441 -0.7945 -0.7370 -3.1931
  461MOL0     H62188   0.755  11.345   2.486 -0.2831 -3.1723  0.2130
  461MOL0     H62189   0.839  11.403   2.252 -0.0489  0.0899  0.7721
  461MOL0     H62190   0.689  11.511   2.248 -1.1901 -3.0826 -2.1865
  461MOL0     H62191   0.931  11.530   2.438 -3.2435 -2.0406  3.4724
  461MOL0     H62192   0.776  11.615   2.453  0.4793 -3.5469  3.2701
  461MOL0     H62193   0.981  11.736   2.329 -0.2664 -1.1970 -0.2580
  461MOL0     H62194   0.838  11.729   2.215 -0.1604  0.7786  0.2123
  461MOL0     H62195   1.184  11.450   2.094 -2.8195 -0.6417 -2.5716
  461MOL0     H62196   1.368  11.547   1.932  1.0665 -0.6778  2.3242
  461MOL0     H62197   1.501  11.708   1.602 -0.6190  0.3405  0.7123
  461MOL0     H62198   1.684  11.762   1.439  1.6259 -0.8017  0.6191
  461MOL0     H62199   1.905  11.951   1.305  0.3232  1.0044 -0.6265
  461MOL0     H62200   1.769  12.017   1.404 -0.3123  0.5038 -0.7119
  461MOL0     H62201   1.918  12.189   1.316 -3.0508  0.3008  1.1137
  461MOL0     H62202   1.895  12.175   1.495  1.8583 -0.4566  1.4885
  461MOL0     H62203   2.141  12.212   1.438  2.2998 -1.5972  1.9706
  461MOL0     H62204   2.120  12.059   1.517 -0.5797 -1.5375  0.1000
  461MOL0     H62205   2.141  12.131   1.211  0.4704  0.0366  0.1904
  461MOL0     H62206   2.121  11.964   1.275  2.0172 -0.7626  2.2197
  461MOL0     H62207   2.328  12.014   1.410 -1.6700 -2.1719 -0.4906
  461MOL0     H62208   2.349  12.167   1.315  0.2236 -0.0345 -0.9485
  461MOL0     H62209   2.362  11.898   1.207  3.0147 -0.3028  0.1031
  461MOL0     H62210   2.352  12.032   1.101 -0.8189 -2.7317 -0.6280
  461MOL0     H62211   2.545  11.973   1.338 -2.3453 -0.6262 -0.3909
  461MOL0     H62212   2.558  12.123   1.249 -0.0656  0.9845 -2.2855
  461MOL0     H62213   2.585  11.850   1.135  1.3223 -0.7165  0.6895
  461MOL0     H62214   2.648  11.991   1.049  0.3153 -0.1938  0.1569
  461MOL0     H62215   1.910  11.925   1.770  2.1753 -1.9904 -2.4084
  461MOL0     H62216   1.729  11.855   1.919 -1.7905 -1.4637  0.6501
  461MOL0     H62217   1.152  11.918   1.951  2.1258  0.4990  0.7839
  461MOL0     H62218   0.979  11.831   2.075  0.3384  1.9483 -2.0920
  461MOL0     H62219   1.519  11.235   2.338  2.1276  0.1178 -0.4721
  461MOL0     H62220   1.763  11.236   2.395  0.2005  1.7430 -1.7320
  461MOL0     H62221   2.213  11.325   2.379 -1.1825  1.7302 -0.9961
  461MOL0     H62222   2.458  11.308   2.362  0.7997 -1.2668  3.2434
  461MOL0     H62223   2.788  11.145   2.328  1.3465  2.3526 -2.1017
  461MOL0     H62224   2.656  11.239   2.416  1.8548 -0.8246  1.2790
  461MOL0     H62225   2.643  11.353   2.187 -0.0676 -0.2047  1.1038
  461MOL0     H62226   2.785  11.258   2.147 -1.3282 -0.3022 -1.6084
  461MOL0     H62227   2.855  11.483   2.227  3.1166  0.3798  3.1128
  461MOL0     H62228   2.906  11.349   2.342 -0.3929 -2.1268 -0.4617
  461MOL0     H62229   2.654  11.511   2.388  0.5862  1.0053 -2.8220
  461MOL0     H62230   2.756  11.436   2.500 -0.6928  2.4109  0.3781
  461MOL0     H62231   2.932  11.829   2.461  0.9461 -0.0513  0.0476
  461MOL0     H62232   2.419  10.959   2.139 -1.6670 -1.4572  0.6257
  461MOL0     H62233   2.069  10.910   2.143  0.0573 -0.5084 -1.8063
  461MOL0     H62234   2.126  10.991   1.988  0.4243  1.5225 -0.7233
  461MOL0     H62235   2.217  10.869   2.075 -1.2179 -1.1355  2.8987
  462MOL0     O62236   3.658   6.692   1.358  0.1494  0.1564 -0.4721
  462MOL0     C62237   3.728   6.768   1.292 -0.5263 -0.5263  0.0975
  462MOL0     O62238   3.694   6.891   1.234  0.8143  1.4948  0.0532
  462MOL0     C62239   3.554   6.910   1.207 -0.2652 -0.2680 -0.5324
  462MOL0     C62240   3.500   7.009   1.288 -0.0772  0.0501 -0.6910
  462MOL0     C62241   3.368   7.042   1.279  0.3293 -0.1973  0.4854
  462MOL0     C62242   3.283   6.986   1.176 -0.4663 -0.5890 -0.7877
  462MOL0     O62243   3.157   7.027   1.179  0.5603  0.1437 -0.1837
  462MOL0     C62244   3.115   7.123   1.084  0.6467 -0.0260  1.0185
  462MOL0     C62245   3.027   7.232   1.149 -0.1780 -0.4771  0.0197
  462MOL0     C62246   2.884   7.173   1.179  0.3412  0.4035  0.0454
  462MOL0     C62247   2.799   7.227   1.067 -0.1776  0.2207 -0.7074
  462MOL0     C62248   2.649   7.202   1.083  0.7092  0.4923 -0.4422
  462MOL0     C62249   2.601   7.060   1.136 -0.7079 -0.0188 -0.3773
  462MOL0     C62250   2.453   7.064   1.147 -0.3588 -0.1960  0.0998
  462MOL0     C62251   2.395   6.946   1.227  0.3936  0.1463 -0.0391
  462MOL0     N62252   2.256   6.981   1.255 -0.8233 -1.1162 -0.3348
  462MOL0     C62253   2.217   7.055   1.366  0.7258 -0.4254 -0.2004
  462MOL0     C62254   2.091   7.015   1.379 -0.8403  0.3737  0.4664
  462MOL0     C62255   1.990   7.065   1.488  0.7989 -0.5308 -0.0493
  462MOL0     C62256   1.867   7.144   1.434  0.0271  0.2116  0.3837
  462MOL0     C62257   1.876   7.293   1.459  0.8935 -1.1438 -0.3450
  462MOL0     C62258   2.001   7.354   1.388  0.2678 -0.7032  0.3301
  462MOL0     O62259   1.983   7.326   1.246  0.6755 -0.0799 -0.1912
  462MOL0     C62260   2.075   7.317   1.150  0.0156  0.7214 -0.1553
  462MOL0     C62261   2.040   7.232   1.038  0.3074  0.0270 -0.0499
  462MOL0     C62262   2.128   7.228   0.928  0.2993  0.4066 -0.0982
  462MOL0     C62263   2.250   7.298   0.932  0.1437  0.3220 -0.3614
  462MOL0     C62264   2.329   7.298   0.807  1.0306  0.2098 -0.2902
  462MOL0     O62265   2.420   7.405   0.785  1.0411  0.2660 -1.6557
  462MOL0     C62266   2.495   7.404   0.667 -0.3758 -0.5369  0.3806
  462MOL0     C62267   2.501   7.517   0.584  0.4268 -0.5041  0.0833
  462MOL0     C62268   2.578   7.521   0.470  0.4625 -0.3227 -0.3536
  462MOL0     C62269   2.646   7.412   0.433  0.6420  0.2667  0.0149
  462MOL0     O62270   2.716   7.417   0.318  0.0084 -0.0603 -1.0303
  462MOL0     C62271   2.799   7.312   0.297 -0.0926  0.0064 -0.6446
  462MOL0     C62272   2.889   7.348   0.179  0.6689  0.6539  0.5023
  462MOL0     C62273   2.979   7.223   0.160 -0.6618 -0.6784 -0.3498
  462MOL0     C62274   3.090   7.249   0.056  0.4892  0.8381 -0.5049
  462MOL0     C62275   3.179   7.123   0.050 -0.4896 -0.4744 -1.1556
  462MOL0     C62276   3.108   6.991  -0.006  0.0611  0.0378 -0.8535
  462MOL0     C62277   3.006   6.996  -0.120  0.8473  0.9189  0.0316
  462MOL0     C62278   2.959   6.858  -0.156 -0.8514  0.5857  0.3702
  462MOL0    Cl62279   3.096   6.778  -0.244 -0.1841  0.2820  0.3331
  462MOL0     C62280   2.641   7.296   0.513  0.1685 -0.6815 -0.2267
  462MOL0     C62281   2.569   7.296   0.634 -0.9141  0.6065  0.0778
  462MOL0     O62282   2.318   7.193   0.736 -0.3962 -0.3764  0.1541
  462MOL0     C62283   2.283   7.381   1.042 -0.1421 -0.6419 -0.1594
  462MOL0     C62284   2.194   7.391   1.153 -0.6015  0.5008  0.2559
  462MOL0     N62285   2.055   6.944   1.271 -0.0645 -0.3650  0.6633
  462MOL0     N62286   2.158   6.916   1.198  0.7650 -0.5534 -0.2849
  462MOL0     C62287   3.344   6.900   1.088  0.1908 -0.1509 -0.0590
  462MOL0     C62288   3.478   6.852   1.103  0.1807 -0.0004  0.0496
  462MOL0     C62289   3.872   6.734   1.301  0.7188 -0.1495 -0.4262
  462MOL0     C62290   3.910   6.604   1.327 -0.1100 -0.6541 -1.1152
  462MOL0     C62291   4.045   6.565   1.359  0.3430 -0.6877  0.6704
  462MOL0     C62292   4.147   6.656   1.343 -0.1244  0.1037 -0.3020
  462MOL0     O62293   4.281   6.621   1.360 -0.8057 -0.1048  0.0545
  462MOL0     C62294   4.329   6.519   1.455 -0.8153  0.3407 -0.2313
  462MOL0     C62295   4.278   6.557   1.598  0.3083 -0.6448 -0.4121
  462MOL0     C62296   4.354   6.686   1.625 -0.3906  0.2048  0.4668
  462MOL0     C62297   4.302   6.739   1.768  0.0147  0.5634  0.5100
  462MOL0     C62298   4.170   6.797   1.765  0.2358 -0.1642 -0.1631
  462MOL0     C62299   4.064   6.851   1.767  0.1722  0.1208 -0.1740
  462MOL0     C62300   4.112   6.785   1.318 -0.2492  0.3715 -1.1540
  462MOL0     C62301   3.978   6.835   1.298  0.2191  0.2609 -0.1555
  462MOL0     C62302   3.954   6.980   1.275 -0.4017  0.0200  0.0382
  462MOL0     H62303   3.549   7.059   1.372 -0.4526  2.4196 -1.7800
  462MOL0     H62304   3.321   7.118   1.340 -3.2282 -0.5498 -1.5253
  462MOL0     H62305   3.204   7.172   1.043  0.0103 -0.3102 -0.8220
  462MOL0     H62306   3.061   7.081   0.998  0.1796 -1.0992  1.8068
  462MOL0     H62307   3.021   7.311   1.074 -0.6180 -0.4116  0.1218
  462MOL0     H62308   3.080   7.283   1.230  2.7940 -0.5746 -1.7380
  462MOL0     H62309   2.839   7.196   1.275 -1.0544 -1.3171 -0.1423
  462MOL0     H62310   2.885   7.064   1.170 -2.6550  0.1796  1.2698
  462MOL0     H62311   2.819   7.335   1.066  0.7197  0.0629 -0.3927
  462MOL0     H62312   2.832   7.184   0.972  0.4196  0.3072 -0.5432
  462MOL0     H62313   2.607   7.283   1.143  0.4224 -0.4705  0.6808
  462MOL0     H62314   2.610   7.227   0.984  2.0451  0.0271 -1.1167
  462MOL0     H62315   2.627   6.983   1.062  2.4087 -3.1095  3.4543
  462MOL0     H62316   2.643   7.034   1.234 -0.3312  2.2585  0.1250
  462MOL0     H62317   2.402   7.066   1.051  0.6756 -1.7648 -0.5109
  462MOL0     H62318   2.438   7.159   1.200 -0.8514  0.6257 -1.4336
  462MOL0     H62319   2.404   6.849   1.179  0.7520 -0.1271  0.5632
  462MOL0     H62320   2.451   6.933   1.321 -0.3832 -0.4165  0.3582
  462MOL0     H62321   2.280   7.114   1.431  2.0769 -2.1971  0.1505
  462MOL0     H62322   1.954   6.971   1.532  2.3263 -1.6873 -1.1764
  462MOL0     H62323   2.046   7.110   1.570 -1.3022 -3.0175  3.0014
  462MOL0     H62324   1.849   7.124   1.328  0.6202  0.5216  0.2218
  462MOL0     H62325   1.775   7.112   1.483 -0.0853 -2.0937 -1.1321
  462MOL0     H62326   1.879   7.297   1.568  0.1811 -2.0435 -0.2816
  462MOL0     H62327   1.783   7.343   1.431  1.3031 -0.6771 -0.9238
  462MOL0     H62328   2.090   7.304   1.427  0.4452  0.5579  1.6472
  462MOL0     H62329   2.009   7.462   1.407  0.0348  0.1167 -3.4589
  462MOL0     H62330   1.956   7.163   1.045 -0.2297  0.6679 -0.1425
  462MOL0     H62331   2.096   7.167   0.843  0.7459  0.2825 -0.1786
  462MOL0     H62332   2.441   7.602   0.614 -0.9676 -0.9700 -1.2840
  462MOL0     H62333   2.576   7.601   0.397 -1.4049  0.7094  0.7254
  462MOL0     H62334   2.855   7.303   0.391 -2.4889  1.5918  1.0610
  462MOL0     H62335   2.744   7.220   0.274 -4.5699  1.9586  1.0928
  462MOL0     H62336   2.821   7.361   0.094  2.5428  1.7686 -0.8924
  462MOL0     H62337   2.944   7.440   0.201  4.1172 -1.1157 -0.0421
  462MOL0     H62338   3.028   7.203   0.256 -0.1981 -0.0101 -0.4424
  462MOL0     H62339   2.911   7.139   0.142 -0.0171 -1.3073  0.1154
  462MOL0     H62340   3.136   7.339   0.097  1.1172  1.2984 -2.1126
  462MOL0     H62341   3.046   7.274  -0.041  1.6404  2.4868 -0.6294
  462MOL0     H62342   3.218   7.095   0.149 -2.4671 -0.7900 -0.4288
  462MOL0     H62343   3.265   7.142  -0.015  1.5443  0.1483  1.5139
  462MOL0     H62344   3.185   6.915  -0.027  1.4566  1.6123 -1.7070
  462MOL0     H62345   3.052   6.962   0.083 -0.0611  2.4197 -0.0788
  462MOL0     H62346   3.059   7.045  -0.202  1.0730 -0.5249 -0.7198
  462MOL0     H62347   2.915   7.055  -0.107 -0.6041  0.2046 -4.9261
  462MOL0     H62348   2.932   6.793  -0.073 -1.3770 -0.6799 -0.7737
  462MOL0     H62349   2.871   6.862  -0.220 -0.3756 -0.3530 -0.3633
  462MOL0     H62350   2.677   7.198   0.484  1.6347 -0.6759  1.3315
  462MOL0     H62351   2.575   7.214   0.704  2.5233  2.1538  1.8698
  462MOL0     H62352   2.375   7.439   1.035 -0.9084  0.6522  0.1894
  462MOL0     H62353   2.207   7.458   1.237  0.7247 -1.2473  1.5200
  462MOL0     H62354   3.284   6.865   1.004 -1.3160 -1.4926  1.4972
  462MOL0     H62355   3.510   6.766   1.045  0.9638 -0.2452  0.8191
  462MOL0     H62356   3.834   6.527   1.339  1.5088 -1.8787  5.3702
  462MOL0     H62357   4.073   6.461   1.375  2.8488 -0.2074 -0.1672
  462MOL0     H62358   4.438   6.515   1.461 -0.8776  0.6941  2.2644
  462MOL0     H62359   4.295   6.420   1.423  2.5913 -0.9346 -0.2752
  462MOL0     H62360   4.310   6.487   1.676  0.7473  0.1599  0.1407
  462MOL0     H62361   4.169   6.570   1.603  0.4503  0.0607  1.7333
  462MOL0     H62362   4.354   6.752   1.538  4.9147 -0.8892 -0.7096
  462MOL0     H62363   4.457   6.660   1.650 -0.8079 -1.2152  0.8260
  462MOL0     H62364   4.309   6.651   1.832 -0.6886 -2.6434 -3.4071
  462MOL0     H62365   4.371   6.820   1.794 -0.7623  0.8611  1.6856
  462MOL0     H62366   3.974   6.908   1.776 -0.7936 -1.6490  3.0346
  462MOL0     H62367   4.194   6.853   1.339  0.4361 -0.4916 -0.9609
  462MOL0     H62368   4.045   7.040   1.274 -1.4181  1.7161  1.6600
  462MOL0     H62369   3.909   7.007   1.179  0.6665  0.9703 -0.2231
  462MOL0     H62370   3.890   7.013   1.358 -0.1241 -0.9507  0.6526
  463MOL0     O62371  10.563   2.319  10.741  0.1683  0.0942  0.2421
  463MOL0     C62372  10.458   2.316  10.676  0.1580 -1.0982 -0.3962
  463MOL0     O62373  10.426   2.235  10.576  0.2836  0.1763  0.3290
  463MOL0     C62374  10.511   2.138  10.550 -0.1370 -0.1752  0.3835
  463MOL0     C62375  10.571   2.146  10.425 -0.0466  0.3061 -1.2448
  463MOL0     C62376  10.678   2.052  10.401 -0.0515 -0.5058  0.7055
  463MOL0     C62377  10.704   1.952  10.491 -0.0249 -0.3441  0.3413
  463MOL0     O62378  10.803   1.868  10.448  0.3615 -0.2788 -0.2413
  463MOL0     C62379  10.746   1.748  10.398  0.7487 -0.6467 -0.6090
  463MOL0     C62380  10.829   1.726  10.272 -0.5706  1.1765 -0.1827
  463MOL0     C62381  10.971   1.671  10.321  0.2029 -0.3960  1.2160
  463MOL0     C62382  11.067   1.649  10.206 -0.1943 -0.7189 -0.4237
  463MOL0     C62383  11.214   1.620  10.247 -0.7992  0.0711  0.3726
  463MOL0     C62384  11.310   1.620  10.122  0.2458 -0.3792  0.5337
  463MOL0     C62385  11.285   1.503  10.034 -0.0586  0.7194  0.4892
  463MOL0     C62386  11.405   1.451   9.955  0.0746 -0.3489 -0.4536
  463MOL0     N62387  11.368   1.330   9.873  0.3203 -0.3958  0.5471
  463MOL0     C62388  11.329   1.325   9.740 -1.2995 -0.5674 -0.2575
  463MOL0     C62389  11.333   1.202   9.700 -0.4488  0.0953  0.4969
  463MOL0     C62390  11.278   1.175   9.568 -0.4986 -0.3736  0.8393
  463MOL0     C62391  11.367   1.186   9.440 -0.4870  0.0486 -0.1832
  463MOL0     C62392  11.397   1.330   9.393  0.4703  0.9963 -0.7150
  463MOL0     C62393  11.480   1.309   9.268 -0.0063 -0.3851 -0.7120
  463MOL0     O62394  11.562   1.431   9.254  0.1824 -0.2495 -0.5155
  463MOL0     C62395  11.631   1.447   9.142  0.1941 -0.3094  0.3691
  463MOL0     C62396  11.688   1.572   9.123  0.1490  0.8977 -0.2291
  463MOL0     C62397  11.763   1.607   9.015 -0.4001  0.1116  0.1494
  463MOL0     C62398  11.800   1.497   8.925  0.1915 -0.5885 -0.5025
  463MOL0     C62399  11.885   1.519   8.801 -0.2001 -0.5222 -0.0890
  463MOL0     O62400  11.935   1.411   8.730  0.3118  0.4342 -0.4183
  463MOL0     C62401  12.001   1.411   8.612 -0.0384 -0.7844  0.1846
  463MOL0     C62402  12.008   1.287   8.548 -1.2387  0.0783  0.6869
  463MOL0     C62403  12.087   1.288   8.434  0.6921 -0.0826  0.0697
  463MOL0     C62404  12.154   1.390   8.374 -0.7283 -0.6913  0.7738
  463MOL0     O62405  12.231   1.373   8.261  0.1096 -0.2825 -1.0373
  463MOL0     C62406  12.339   1.277   8.269 -0.6598  0.6491  0.3040
  463MOL0     C62407  12.449   1.338   8.369 -0.0681 -0.2339 -0.9253
  463MOL0     C62408  12.580   1.258   8.391  0.1746  0.1745 -0.3116
  463MOL0     C62409  12.566   1.120   8.460 -0.5125  0.5392  1.0356
  463MOL0     C62410  12.706   1.049   8.476 -0.0023  0.0257 -0.3535
  463MOL0     C62411  12.798   1.057   8.363  0.6157 -0.7036  0.0879
  463MOL0     C62412  12.883   0.933   8.367  0.5870  0.7871 -0.4686
  463MOL0     C62413  13.008   0.944   8.281 -0.2530  0.2370 -0.9927
  463MOL0    Cl62414  13.102   0.797   8.303 -0.1968 -0.2744 -0.0541
  463MOL0     C62415  12.143   1.513   8.430 -0.6998 -0.7397  0.8740
  463MOL0     C62416  12.069   1.530   8.548 -0.4980  0.7121 -0.5769
  463MOL0     O62417  11.915   1.636   8.789 -0.6187  0.1717 -0.0123
  463MOL0     C62418  11.740   1.370   8.940 -0.1754 -0.2773  0.4604
  463MOL0     C62419  11.658   1.338   9.051 -0.6751 -0.3810 -0.0419
  463MOL0     N62420  11.349   1.122   9.814  0.2787  0.3038  0.4448
  463MOL0     N62421  11.379   1.201   9.918 -0.3983  0.3326  0.0374
  463MOL0     C62422  10.644   1.943  10.610 -0.2636  0.0199  0.1593
  463MOL0     C62423  10.543   2.033  10.643  0.3881 -0.3946 -0.2742
  463MOL0     C62424  10.347   2.416  10.709  0.2859 -0.1190  1.0726
  463MOL0     C62425  10.381   2.534  10.780  0.4977 -0.1353 -0.1717
  463MOL0     C62426  10.290   2.609  10.853 -0.3336 -0.1385  0.3339
  463MOL0     C62427  10.154   2.594  10.833  1.0019 -0.6653 -0.2475
  463MOL0     O62428  10.049   2.662  10.890 -0.4289 -0.3785 -0.3952
  463MOL0     C62429   9.987   2.624  11.021 -0.2431 -0.3482  0.1639
  463MOL0     C62430   9.975   2.738  11.127 -0.1239  0.5784  0.2730
  463MOL0     C62431   9.916   2.862  11.063  0.0202 -0.2413 -0.3576
  463MOL0     C62432   9.767   2.865  11.053 -0.0892 -0.1212  1.0564
  463MOL0     C62433   9.729   2.958  10.948  0.3290 -0.1212  0.6050
  463MOL0     C62434   9.708   3.028  10.853 -0.3577 -0.2443 -0.1952
  463MOL0     C62435  10.117   2.485  10.756  0.4379  0.2337 -0.9264
  463MOL0     C62436  10.211   2.392  10.701 -0.1744 -0.9334 -0.4421
  463MOL0     C62437  10.149   2.276  10.615 -0.2948  0.2117  0.1674
  463MOL0     H62438  10.545   2.223  10.353 -0.5607  2.0968  0.7375
  463MOL0     H62439  10.756   2.071  10.328 -0.1605 -1.3101  0.3757
  463MOL0     H62440  10.745   1.668  10.472 -0.6736  1.0152  1.2747
  463MOL0     H62441  10.643   1.772  10.370  0.3538 -0.1882  1.1236
  463MOL0     H62442  10.844   1.820  10.218 -0.7025  4.1068  4.3441
  463MOL0     H62443  10.773   1.657  10.209 -0.7776  0.3558  0.8634
  463MOL0     H62444  10.950   1.577  10.373 -1.2118 -1.6122 -1.3726
  463MOL0     H62445  11.011   1.746  10.390  0.3638 -0.8681  1.6388
  463MOL0     H62446  11.041   1.556  10.154 -1.9168 -1.9182  2.3429
  463MOL0     H62447  11.061   1.736  10.139 -0.9619 -1.1130 -0.8762
  463MOL0     H62448  11.247   1.701  10.313  1.7765 -0.0466 -0.6670
  463MOL0     H62449  11.235   1.534  10.311 -0.9850 -2.9259 -3.2884
  463MOL0     H62450  11.292   1.711  10.064  2.1092 -2.5666 -3.9620
  463MOL0     H62451  11.413   1.595  10.151  0.0270 -0.7330  1.0251
  463MOL0     H62452  11.207   1.526   9.961 -2.8984  1.8126  3.5939
  463MOL0     H62453  11.255   1.409  10.080  0.0140 -1.2439 -3.1541
  463MOL0     H62454  11.450   1.529   9.893 -1.5085 -0.1625 -1.4369
  463MOL0     H62455  11.478   1.413  10.027  1.3934 -0.4510 -1.7949
  463MOL0     H62456  11.316   1.421   9.692  1.4489 -0.1510 -0.3387
  463MOL0     H62457  11.268   1.066   9.564 -4.9178 -0.1746  1.6526
  463MOL0     H62458  11.186   1.234   9.561  1.2348  2.3407 -1.5030
  463MOL0     H62459  11.461   1.132   9.456 -1.5303 -1.7744  0.0130
  463MOL0     H62460  11.321   1.136   9.355  0.3991  0.3938 -0.8815
  463MOL0     H62461  11.449   1.391   9.469  0.7945  0.5039 -0.5390
  463MOL0     H62462  11.303   1.380   9.368 -0.4120 -0.3653 -0.1809
  463MOL0     H62463  11.405   1.297   9.188 -1.1386  0.5412  0.1689
  463MOL0     H62464  11.546   1.224   9.288  0.3015  0.2591  1.1455
  463MOL0     H62465  11.661   1.643   9.201 -1.7690 -0.9814  0.9107
  463MOL0     H62466  11.817   1.701   9.005 -0.2665 -0.0907 -1.2130
  463MOL0     H62467  11.950   1.200   8.575  0.3524 -0.8397  1.2397
  463MOL0     H62468  12.098   1.186   8.397  1.7349 -0.1512  0.5273
  463MOL0     H62469  12.303   1.179   8.300 -0.0142 -0.3692 -1.9739
  463MOL0     H62470  12.385   1.272   8.170 -0.5698  0.2287  0.3643
  463MOL0     H62471  12.478   1.442   8.349 -0.0856  0.7514  3.2623
  463MOL0     H62472  12.397   1.342   8.465  2.1734 -4.9055  0.7843
  463MOL0     H62473  12.640   1.252   8.300  0.4393  0.2620 -0.1424
  463MOL0     H62474  12.638   1.318   8.461 -2.2800  0.5915  1.5028
  463MOL0     H62475  12.499   1.056   8.402  2.0284 -1.2797 -0.0559
  463MOL0     H62476  12.525   1.130   8.561  3.1166 -0.9699  2.8263
  463MOL0     H62477  12.683   0.943   8.495  3.6624 -0.3499  3.4256
  463MOL0     H62478  12.757   1.089   8.564  1.5803 -0.5125 -0.9877
  463MOL0     H62479  12.750   1.052   8.265  0.9008 -0.4596 -0.0661
  463MOL0     H62480  12.849   1.153   8.375 -0.7845  0.0564  0.1187
  463MOL0     H62481  12.829   0.842   8.339 -0.3359 -0.4800  4.5070
  463MOL0     H62482  12.910   0.926   8.473  0.1949  2.6782 -0.2102
  463MOL0     H62483  12.980   0.957   8.176 -3.4771 -1.9709 -0.5560
  463MOL0     H62484  13.065   1.023   8.331  1.7953 -1.7612 -0.0028
  463MOL0     H62485  12.171   1.595   8.363 -0.4999 -1.4401  0.0815
  463MOL0     H62486  12.056   1.630   8.590  2.3911  0.3269  1.5050
  463MOL0     H62487  11.758   1.284   8.876  0.8414  1.1498 -1.2133
  463MOL0     H62488  11.621   1.239   9.078 -2.1024  0.5082  1.4028
  463MOL0     H62489  10.666   1.865  10.681  0.3276  1.1486  1.2584
  463MOL0     H62490  10.494   2.042  10.739 -1.5815  2.5416 -1.3922
  463MOL0     H62491  10.486   2.553  10.798  0.0861  5.0665 -1.4932
  463MOL0     H62492  10.315   2.691  10.919  1.5859 -0.4034 -0.0019
  463MOL0     H62493  10.054   2.545  11.056  0.9490  0.5899  0.0757
  463MOL0     H62494   9.888   2.578  11.012  0.3203 -2.0331  2.0366
  463MOL0     H62495  10.073   2.761  11.170 -0.9711  1.2398  1.9687
  463MOL0     H62496   9.911   2.704  11.209  0.2501 -0.0988  0.2865
  463MOL0     H62497   9.965   2.887  10.968  1.0147 -1.7243 -0.2646
  463MOL0     H62498   9.932   2.954  11.122 -2.6864  1.6761 -2.3780
  463MOL0     H62499   9.730   2.766  11.025 -3.2729  1.3405 -0.4107
  463MOL0     H62500   9.721   2.892  11.149 -0.1847  0.3475  0.8807
  463MOL0     H62501   9.687   3.077  10.760  1.4393  3.0807  0.9581
  463MOL0     H62502  10.012   2.466  10.739  0.0251 -2.2197  3.0267
  463MOL0     H62503  10.166   2.178  10.660  3.0253 -0.3564 -1.9298
  463MOL0     H62504  10.044   2.293  10.590 -0.0128  4.6580  1.3038
  463MOL0     H62505  10.200   2.275  10.518 -1.2020 -1.2035 -0.3289
  464MOL0     O62506   1.995   1.994   6.377 -0.0145 -0.5148 -0.6808
  464MOL0     C62507   2.062   1.924   6.443 -0.9505 -0.5675 -0.4306
  464MOL0     O62508   2.027   1.869   6.558 -0.8941 -0.4604 -0.0822
  464MOL0     C62509   1.941   1.918   6.646 -0.7033  0.0045  0.8649
  464MOL0     C62510   1.885   2.047   6.635 -0.1592 -0.3105 -0.3320
  464MOL0     C62511   1.800   2.085   6.740 -0.4651  0.2385  1.1437
  464MOL0     C62512   1.784   2.020   6.860 -0.0912  0.3337  0.7112
  464MOL0     O62513   1.712   2.064   6.969 -0.1875  0.2228  0.5009
  464MOL0     C62514   1.782   2.159   7.052  0.0249  0.5276  0.5234
  464MOL0     C62515   1.678   2.208   7.164 -0.7805 -0.1943  0.4688
  464MOL0     C62516   1.527   2.224   7.121  0.1268  0.5197  1.2597
  464MOL0     C62517   1.513   2.342   7.027  0.5475  0.4712  0.6849
  464MOL0     C62518   1.381   2.419   7.033 -0.5213  0.6324 -0.0783
  464MOL0     C62519   1.263   2.338   6.985  0.5693  0.2578  0.2147
  464MOL0     C62520   1.133   2.439   6.993  0.2858  0.5934  0.3199
  464MOL0     C62521   1.009   2.352   6.955  0.2885  0.0602  0.6202
  464MOL0     N62522   0.959   2.241   7.056 -0.3683 -0.2748  0.2866
  464MOL0     C62523   1.014   2.208   7.183 -0.5287 -0.7314  0.1363
  464MOL0     C62524   0.944   2.099   7.217  0.5401 -0.3542  0.1280
  464MOL0     C62525   0.953   2.029   7.341 -0.2350  0.1450 -0.3614
  464MOL0     C62526   0.920   2.110   7.459 -0.4463  0.0882 -0.3083
  464MOL0     C62527   0.773   2.142   7.486 -0.4833  0.2141  0.4005
  464MOL0     C62528   0.762   2.206   7.626 -0.4619  0.1230  0.2301
  464MOL0     O62529   0.642   2.199   7.700  0.0211 -0.3521  0.5354
  464MOL0     C62530   0.626   2.315   7.773 -0.4161 -0.0996  0.8337
  464MOL0     C62531   0.737   2.371   7.843 -0.0888 -0.0975  0.0326
  464MOL0     C62532   0.713   2.479   7.934  0.1174 -0.1838  0.8991
  464MOL0     C62533   0.593   2.559   7.925 -0.8470  0.4113  0.7679
  464MOL0     C62534   0.573   2.678   8.006 -0.7665 -0.6456  0.0039
  464MOL0     O62535   0.472   2.774   7.977 -0.4640 -0.1461 -0.0034
  464MOL0     C62536   0.481   2.890   8.048  0.0965 -0.3952  0.7587
  464MOL0     C62537   0.592   2.973   8.079 -0.7642 -0.4170  0.2817
  464MOL0     C62538   0.572   3.092   8.149 -0.0745 -0.4136  0.5501
  464MOL0     C62539   0.447   3.140   8.191 -0.2431 -0.2592  0.5918
  464MOL0     O62540   0.412   3.243   8.269 -0.6793  0.2491  0.6551
  464MOL0     C62541   0.513   3.298   8.360 -0.0625  0.0498 -0.5580
  464MOL0     C62542   0.455   3.412   8.438  0.3579 -0.1051  0.9300
  464MOL0     C62543   0.554   3.485   8.531 -0.2138 -1.0278  0.0533
  464MOL0     C62544   0.624   3.395   8.631 -0.1164 -0.5389 -0.6882
  464MOL0     C62545   0.775   3.354   8.592  0.2696  0.5920 -0.4647
  464MOL0     C62546   0.875   3.459   8.616 -0.3126 -0.6879 -0.5022
  464MOL0     C62547   0.899   3.498   8.765 -0.5966 -0.5027  0.4464
  464MOL0     C62548   0.933   3.382   8.856 -0.6441 -0.0757 -0.2485
  464MOL0    Cl62549   1.045   3.256   8.780 -0.5117 -0.5971  0.1342
  464MOL0     C62550   0.341   3.051   8.165 -0.7657 -0.2965  0.5625
  464MOL0     C62551   0.357   2.934   8.096 -0.1970 -0.1032  0.0224
  464MOL0     O62552   0.652   2.683   8.100  0.4924 -1.1662 -0.2604
  464MOL0     C62553   0.497   2.510   7.836  0.8727 -0.2936 -0.0522
  464MOL0     C62554   0.513   2.392   7.772 -0.1820  0.2314  0.6099
  464MOL0     N62555   0.860   2.071   7.116  0.4567 -0.0914 -0.4925
  464MOL0     N62556   0.861   2.158   7.024  0.1140  0.0465 -0.0994
  464MOL0     C62557   1.843   1.900   6.865  0.3838  0.6023  0.2626
  464MOL0     C62558   1.911   1.833   6.759 -0.2638 -1.3575  1.0084
  464MOL0     C62559   2.188   1.875   6.373  0.1717  0.5546 -0.0375
  464MOL0     C62560   2.256   1.775   6.452 -0.2596  0.9299  0.0778
  464MOL0     C62561   2.377   1.723   6.397  0.1686  0.8050 -0.2705
  464MOL0     C62562   2.431   1.757   6.273 -0.1410  0.8226 -0.0714
  464MOL0     O62563   2.553   1.722   6.211 -0.2294  0.0155 -0.5293
  464MOL0     C62564   2.653   1.672   6.298  0.5095  0.4954 -0.5209
  464MOL0     C62565   2.789   1.656   6.240 -1.3054 -0.2757  1.1744
  464MOL0     C62566   2.833   1.784   6.168  0.3650 -0.3990  0.0716
  464MOL0     C62567   2.980   1.777   6.129 -1.7104 -0.0389 -0.5193
  464MOL0     C62568   3.011   1.900   6.050  0.2957 -0.2977 -0.0380
  464MOL0     C62569   3.014   1.997   5.983  0.4639 -0.6440  1.1326
  464MOL0     C62570   2.357   1.855   6.205  0.9281 -0.8403  0.3306
  464MOL0     C62571   2.233   1.910   6.251 -0.7688  0.3630  0.5059
  464MOL0     C62572   2.175   2.021   6.163  0.2307  0.3655 -1.0427
  464MOL0     H62573   1.898   2.126   6.561  1.0793  0.0746  0.2844
  464MOL0     H62574   1.735   2.172   6.740 -0.3451  0.3316  1.5861
  464MOL0     H62575   1.868   2.109   7.096  0.8899 -0.2699 -1.8959
  464MOL0     H62576   1.805   2.238   6.980 -3.0982 -0.3543 -1.6919
  464MOL0     H62577   1.718   2.299   7.209  2.3363 -0.8496 -0.7312
  464MOL0     H62578   1.679   2.129   7.240  0.3656 -1.1058 -0.4611
  464MOL0     H62579   1.467   2.250   7.209 -0.9582 -1.3090  1.0991
  464MOL0     H62580   1.481   2.129   7.095 -0.5139  1.2309 -0.3378
  464MOL0     H62581   1.595   2.413   7.043  1.1338 -0.5342  2.4329
  464MOL0     H62582   1.523   2.305   6.925 -0.7231  0.8802  0.3931
  464MOL0     H62583   1.346   2.454   7.130 -1.7462 -1.3064  0.2215
  464MOL0     H62584   1.404   2.511   6.977  1.3841  1.8898  2.5700
  464MOL0     H62585   1.290   2.301   6.885  1.4751 -1.3363  1.0086
  464MOL0     H62586   1.247   2.254   7.053 -0.4264 -0.4443 -0.8521
  464MOL0     H62587   1.153   2.521   6.923  0.4317  2.2993  2.2810
  464MOL0     H62588   1.119   2.477   7.094 -0.9461 -1.3048  0.9139
  464MOL0     H62589   0.921   2.412   6.932 -0.9180 -2.1142 -0.8594
  464MOL0     H62590   1.035   2.305   6.860  1.0916  1.0541  0.3335
  464MOL0     H62591   1.096   2.252   7.238  0.9807  0.0700 -2.5679
  464MOL0     H62592   0.884   1.945   7.356  1.9091 -1.5712  0.3857
  464MOL0     H62593   1.056   1.994   7.353 -0.2604 -0.2581 -1.2362
  464MOL0     H62594   0.969   2.069   7.547 -0.0809  1.8646  0.3620
  464MOL0     H62595   0.977   2.203   7.451 -1.8765  1.1973  1.4840
  464MOL0     H62596   0.705   2.056   7.478 -2.1157  1.6431 -3.9984
  464MOL0     H62597   0.731   2.211   7.412  1.7945  1.9983  0.6746
  464MOL0     H62598   0.790   2.308   7.599  6.6219 -1.6242 -1.1187
  464MOL0     H62599   0.842   2.165   7.689  0.9926  0.7452 -1.1406
  464MOL0     H62600   0.828   2.314   7.864  0.1868  1.3605  3.5640
  464MOL0     H62601   0.793   2.507   8.003 -0.8233  2.8442  0.9258
  464MOL0     H62602   0.693   2.944   8.052 -0.1999 -0.6012  2.4066
  464MOL0     H62603   0.669   3.138   8.167 -1.0429  3.6885 -2.8958
  464MOL0     H62604   0.536   3.221   8.435 -1.9332  1.5666  1.7166
  464MOL0     H62605   0.611   3.325   8.320  1.5840 -0.7746  2.6077
  464MOL0     H62606   0.417   3.483   8.363  3.2083 -0.5330 -1.0833
  464MOL0     H62607   0.376   3.359   8.491 -0.5957  2.1984  1.9591
  464MOL0     H62608   0.626   3.538   8.468 -1.4017 -0.0851 -0.5723
  464MOL0     H62609   0.502   3.566   8.583 -1.9492 -1.5233 -0.8271
  464MOL0     H62610   0.560   3.306   8.635 -1.4081  0.3039  4.4321
  464MOL0     H62611   0.628   3.439   8.731  2.1483 -0.1712 -0.8994
  464MOL0     H62612   0.776   3.323   8.487  1.3091  0.1212 -0.3265
  464MOL0     H62613   0.799   3.266   8.653 -0.8049  2.3414  2.7568
  464MOL0     H62614   0.968   3.414   8.582  1.4294  0.9963  1.7670
  464MOL0     H62615   0.843   3.541   8.552 -0.3204  0.4976  0.9605
  464MOL0     H62616   0.822   3.553   8.821  3.4398  0.1917  6.1436
  464MOL0     H62617   0.985   3.566   8.762  0.4443 -1.8276 -1.7671
  464MOL0     H62618   0.969   3.422   8.951 -0.8533  4.0130 -1.6882
  464MOL0     H62619   0.841   3.324   8.865  0.3573 -1.7076 -0.2677
  464MOL0     H62620   0.239   3.081   8.188 -1.6001 -2.0369 -0.5914
  464MOL0     H62621   0.267   2.879   8.071 -2.5289  2.8358  1.3566
  464MOL0     H62622   0.397   2.552   7.825 -0.9015 -4.0391 -0.1131
  464MOL0     H62623   0.434   2.357   7.706  0.4640 -0.8075  0.3743
  464MOL0     H62624   1.828   1.837   6.952 -2.4049 -2.2218 -1.9905
  464MOL0     H62625   1.942   1.730   6.773 -1.5464 -1.6739  1.6892
  464MOL0     H62626   2.218   1.736   6.546 -1.4573  0.9731 -0.3800
  464MOL0     H62627   2.452   1.679   6.462  3.3998 -0.2915 -4.3522
  464MOL0     H62628   2.620   1.570   6.321  1.2274  0.5137  0.6785
  464MOL0     H62629   2.666   1.731   6.389  3.1661 -0.2370 -0.3319
  464MOL0     H62630   2.784   1.586   6.156  0.6446  0.7199  0.1722
  464MOL0     H62631   2.858   1.624   6.319 -0.0911  0.7705  0.5799
  464MOL0     H62632   2.818   1.867   6.238 -1.2479 -1.8988  1.6042
  464MOL0     H62633   2.774   1.803   6.078  1.4042 -1.6115 -0.9058
  464MOL0     H62634   3.051   1.775   6.212 -2.7068 -2.6426  0.3845
  464MOL0     H62635   3.002   1.700   6.054 -0.2162  2.0129 -2.3232
  464MOL0     H62636   3.012   2.086   5.924  4.1142 -1.1789 -0.0472
  464MOL0     H62637   2.403   1.893   6.113  1.8515  0.2145  1.1925
  464MOL0     H62638   2.225   2.043   6.068 -3.8309 -1.5240 -3.9414
  464MOL0     H62639   2.072   2.004   6.131 -0.5002  2.9895 -0.3650
  464MOL0     H62640   2.181   2.109   6.229 -0.5009 -0.7167  0.5162
  465MOL0     O62641   2.460   2.025   3.748 -0.1446  0.2987 -0.1706
  465MOL0     C62642   2.517   1.959   3.830 -0.9410 -0.5525 -0.1333
  465MOL0     O62643   2.471   1.851   3.899 -0.6966  0.3771 -1.0777
  465MOL0     C62644   2.343   1.825   3.883  1.1513  0.0639  0.9461
  465MOL0     C62645   2.287   1.781   3.760 -0.8348  0.9492 -0.4501
  465MOL0     C62646   2.147   1.766   3.740  0.1865 -1.3969 -0.9579
  465MOL0     C62647   2.058   1.777   3.849 -0.5709  0.1155 -1.1731
  465MOL0     O62648   1.924   1.766   3.832 -0.4503  0.5902 -0.5515
  465MOL0     C62649   1.837   1.786   3.939  0.1822 -0.1530 -0.6317
  465MOL0     C62650   1.697   1.747   3.889 -0.8170  0.1999 -0.1174
  465MOL0     C62651   1.661   1.610   3.938  0.1790 -0.8799  0.3670
  465MOL0     C62652   1.543   1.568   3.853  0.8844  0.0369  0.4780
  465MOL0     C62653   1.483   1.427   3.891 -0.6266  0.4288  0.6256
  465MOL0     C62654   1.589   1.307   3.863  0.0547 -0.1716 -0.4550
  465MOL0     C62655   1.631   1.289   3.713  0.2442 -0.8095 -0.1617
  465MOL0     C62656   1.516   1.240   3.623 -0.6133  0.1612 -1.1821
  465MOL0     N62657   1.485   1.095   3.645  1.5106 -0.3379 -1.3514
  465MOL0     C62658   1.570   0.990   3.646 -0.5212 -0.2654  0.4728
  465MOL0     C62659   1.503   0.883   3.597 -1.1783 -0.9736 -0.7295
  465MOL0     C62660   1.574   0.756   3.557  0.3181 -0.1150  0.7017
  465MOL0     C62661   1.584   0.752   3.403 -0.3722 -0.1023 -0.4478
  465MOL0     C62662   1.684   0.647   3.347 -0.4050  0.4882  1.0942
  465MOL0     C62663   1.827   0.713   3.331 -0.5311 -0.5896  0.2355
  465MOL0     O62664   1.831   0.833   3.258 -0.5466  0.1143  0.2228
  465MOL0     C62665   1.959   0.903   3.256  0.7390  0.5875 -0.4465
  465MOL0     C62666   1.961   1.031   3.195 -0.6619 -1.0443  0.1560
  465MOL0     C62667   2.079   1.104   3.186  0.1610 -0.4362  0.1245
  465MOL0     C62668   2.198   1.048   3.244 -0.0855  0.1199  0.2708
  465MOL0     C62669   2.325   1.123   3.250  0.2404 -0.8965  0.5019
  465MOL0     O62670   2.442   1.057   3.269 -0.5819  0.5039 -0.2631
  465MOL0     C62671   2.549   1.136   3.325  0.1006  0.3366  0.1558
  465MOL0     C62672   2.579   1.109   3.459 -0.1140 -0.1141  0.7675
  465MOL0     C62673   2.677   1.175   3.522 -0.4672 -0.3770 -0.8315
  465MOL0     C62674   2.762   1.271   3.449 -0.3222 -0.5367  0.4368
  465MOL0     O62675   2.859   1.346   3.516 -0.3181 -0.2000 -0.5714
  465MOL0     C62676   2.853   1.342   3.661  0.6141 -0.7902  0.1933
  465MOL0     C62677   2.949   1.446   3.708  0.6015 -0.9050  0.4148
  465MOL0     C62678   2.972   1.431   3.861  1.1274 -0.3595 -0.3465
  465MOL0     C62679   3.062   1.553   3.917  0.8379  0.5072 -0.2418
  465MOL0     C62680   3.170   1.503   4.013 -0.0050 -0.3625 -0.1747
  465MOL0     C62681   3.239   1.618   4.069  0.7435 -0.5985 -1.2314
  465MOL0     C62682   3.317   1.579   4.198 -0.6370 -0.1076  0.1714
  465MOL0     C62683   3.412   1.693   4.237 -0.6153 -0.0458 -1.0657
  465MOL0    Cl62684   3.491   1.669   4.398  1.0033  0.2798 -0.1636
  465MOL0     C62685   2.727   1.312   3.315  0.2017 -1.1213  0.4097
  465MOL0     C62686   2.623   1.237   3.261  0.0681 -0.7771  0.1141
  465MOL0     O62687   2.316   1.250   3.255  0.4211  0.2931 -0.3387
  465MOL0     C62688   2.194   0.921   3.307 -0.7161 -0.0592 -0.1291
  465MOL0     C62689   2.072   0.856   3.322  0.5354 -0.6118  0.3373
  465MOL0     N62690   1.379   0.923   3.565  0.6860 -0.4599  0.2966
  465MOL0     N62691   1.364   1.052   3.593  0.4989  0.0021 -0.2237
  465MOL0     C62692   2.117   1.825   3.968 -0.1549 -0.1056  0.0939
  465MOL0     C62693   2.255   1.841   3.984  0.1261  0.3611  0.0941
  465MOL0     C62694   2.645   2.029   3.870  0.8220  0.3700  0.6013
  465MOL0     C62695   2.638   2.165   3.892 -1.2611  0.4129 -0.9759
  465MOL0     C62696   2.748   2.230   3.939 -0.3826  0.2955  1.0077
  465MOL0     C62697   2.861   2.158   3.984 -0.0537 -0.2991  0.9178
  465MOL0     O62698   2.959   2.239   4.031  0.4671 -0.0199 -0.4035
  465MOL0     C62699   3.089   2.209   4.008 -0.4429 -0.8603 -0.1728
  465MOL0     C62700   3.145   2.132   4.135 -0.6213  0.1676 -0.2220
  465MOL0     C62701   3.297   2.116   4.127  0.1491  0.0881 -0.8098
  465MOL0     C62702   3.342   2.044   4.001 -0.7272 -0.5788 -0.1635
  465MOL0     C62703   3.362   2.149   3.896  0.3716 -0.4367 -1.3581
  465MOL0     C62704   3.407   2.228   3.815 -0.0162 -0.7228 -0.1898
  465MOL0     C62705   2.865   2.027   3.955  0.0697  0.4891  0.1685
  465MOL0     C62706   2.766   1.958   3.897  0.8901 -1.1774  0.0686
  465MOL0     C62707   2.779   1.813   3.892  0.2005 -0.5964 -0.5930
  465MOL0     H62708   2.359   1.762   3.681 -0.0347 -0.8280  0.6465
  465MOL0     H62709   2.108   1.734   3.643  1.0725 -0.4693 -1.6459
  465MOL0     H62710   1.859   1.739   4.036 -2.3332 -0.7814 -0.3107
  465MOL0     H62711   1.827   1.893   3.960 -1.0784  0.3644 -3.4772
  465MOL0     H62712   1.697   1.763   3.781 -0.8989 -1.7020 -0.4270
  465MOL0     H62713   1.625   1.818   3.932 -0.3822  0.5085  0.0996
  465MOL0     H62714   1.635   1.631   4.042 -1.1234  0.0282 -0.1051
  465MOL0     H62715   1.740   1.535   3.935  0.5301 -0.6434  2.3035
  465MOL0     H62716   1.458   1.637   3.860  1.8069  1.1745  0.8788
  465MOL0     H62717   1.579   1.571   3.750  0.6300  0.9307  0.4101
  465MOL0     H62718   1.452   1.426   3.996 -1.1792 -1.6961  0.4827
  465MOL0     H62719   1.396   1.391   3.835 -1.4707  1.5851  1.1465
  465MOL0     H62720   1.678   1.324   3.924  1.5011 -1.1843 -2.1920
  465MOL0     H62721   1.537   1.214   3.891 -0.0959 -0.4995 -1.7430
  465MOL0     H62722   1.719   1.225   3.720  1.8788  1.4268  0.8457
  465MOL0     H62723   1.658   1.388   3.674  3.8213 -1.6998 -0.2622
  465MOL0     H62724   1.430   1.307   3.615  0.2894  1.1683 -3.6488
  465MOL0     H62725   1.556   1.250   3.522  2.5247 -1.5359 -0.2329
  465MOL0     H62726   1.675   1.002   3.671 -0.5056  4.0973 -0.9185
  465MOL0     H62727   1.676   0.743   3.593  0.9765  2.0257 -0.2314
  465MOL0     H62728   1.529   0.666   3.601 -3.8556  1.2084 -0.3998
  465MOL0     H62729   1.482   0.737   3.368 -0.3327  0.7981 -1.0010
  465MOL0     H62730   1.606   0.849   3.357 -4.4888  0.7827 -0.8885
  465MOL0     H62731   1.637   0.618   3.252 -0.4009  2.1051  0.5643
  465MOL0     H62732   1.696   0.566   3.419 -2.6033  0.6221  1.7046
  465MOL0     H62733   1.892   0.645   3.275 -0.3080  1.9499 -2.8419
  465MOL0     H62734   1.862   0.728   3.434 -0.8199  5.1112 -0.1852
  465MOL0     H62735   1.867   1.075   3.161 -0.2018 -0.7042 -0.7154
  465MOL0     H62736   2.074   1.205   3.148  2.9687  0.2670  1.3730
  465MOL0     H62737   2.520   1.035   3.513 -0.8508  0.2750  0.5093
  465MOL0     H62738   2.700   1.154   3.627  0.8466 -2.1923 -1.4178
  465MOL0     H62739   2.755   1.377   3.696  0.0377 -1.0007 -1.1299
  465MOL0     H62740   2.884   1.247   3.703  0.4261  0.0812  2.4112
  465MOL0     H62741   3.043   1.433   3.654  0.7716 -3.5512  1.2022
  465MOL0     H62742   2.912   1.545   3.680  2.7034 -0.6294 -1.7076
  465MOL0     H62743   2.876   1.438   3.913  0.4195 -1.8590 -1.3636
  465MOL0     H62744   3.030   1.347   3.900 -2.6983 -1.2919  4.2285
  465MOL0     H62745   2.993   1.612   3.978 -0.1492  0.0043 -0.8466
  465MOL0     H62746   3.106   1.623   3.845 -1.2200  1.5174 -0.5925
  465MOL0     H62747   3.240   1.426   3.978 -1.3700 -1.4479 -0.5998
  465MOL0     H62748   3.124   1.456   4.100  0.2611  1.4194  0.9816
  465MOL0     H62749   3.301   1.662   3.991 -0.3809  4.0071  0.1807
  465MOL0     H62750   3.161   1.685   4.109 -1.2932 -3.0097 -0.9107
  465MOL0     H62751   3.379   1.492   4.172 -2.0316 -1.3518  0.8781
  465MOL0     H62752   3.261   1.556   4.289 -1.4287  0.0827 -0.2573
  465MOL0     H62753   3.483   1.697   4.154 -2.1331 -1.2561 -2.4904
  465MOL0     H62754   3.355   1.786   4.245 -0.6993 -0.1734 -0.0495
  465MOL0     H62755   2.772   1.390   3.255 -1.4972  2.3009  3.2350
  465MOL0     H62756   2.600   1.261   3.158  0.1674  4.9285  1.1109
  465MOL0     H62757   2.284   0.895   3.363 -0.8897 -1.0768 -0.3079
  465MOL0     H62758   2.068   0.770   3.388 -0.1196 -1.0640 -0.2672
  465MOL0     H62759   2.061   1.840   4.060 -1.9672 -0.7741 -0.8689
  465MOL0     H62760   2.292   1.885   4.076 -2.0844  2.5398  0.0295
  465MOL0     H62761   2.547   2.223   3.876  0.6676  4.0314  0.0588
  465MOL0     H62762   2.743   2.332   3.975 -1.6374  0.4363  0.4970
  465MOL0     H62763   3.149   2.293   3.973 -1.3603 -1.1912 -2.7158
  465MOL0     H62764   3.094   2.143   3.921  1.9916 -0.5500 -0.3609
  465MOL0     H62765   3.102   2.032   4.145 -2.9345  1.2680  1.6521
  465MOL0     H62766   3.127   2.182   4.231  0.8481  1.3769 -0.5215
  465MOL0     H62767   3.335   2.048   4.204  2.4092  1.4823 -0.5880
  465MOL0     H62768   3.344   2.210   4.157  1.4106 -1.1362  1.2954
  465MOL0     H62769   3.436   1.993   4.021 -0.5920  0.0075  0.7969
  465MOL0     H62770   3.263   1.975   3.971 -0.9974 -0.1129 -0.5474
  465MOL0     H62771   3.467   2.277   3.741  0.0757  0.7262  0.8036
  465MOL0     H62772   2.946   1.970   3.999  0.1233  0.8553  0.5495
  465MOL0     H62773   2.750   1.778   3.793 -0.3165 -2.2349  0.0957
  465MOL0     H62774   2.873   1.769   3.924 -1.1401 -3.6814 -0.5136
  465MOL0     H62775   2.708   1.773   3.965  1.0418  2.3518  2.0611
  466MOL0     O62776   8.965   6.641  10.215  0.4992  0.2477 -0.5709
  466MOL0     C62777   8.973   6.522  10.244  0.0766 -0.4429 -0.3532
  466MOL0     O62778   9.090   6.462  10.254  0.2995  0.3072 -0.4618
  466MOL0     C62779   9.210   6.525  10.238  0.7929 -0.6223  0.1600
  466MOL0     C62780   9.290   6.556  10.350  0.1448  0.0013  0.3040
  466MOL0     C62781   9.417   6.606  10.324  0.8442 -0.0064  0.3304
  466MOL0     C62782   9.455   6.655  10.196 -0.5986  1.1414  0.1496
  466MOL0     O62783   9.585   6.704  10.180  0.3732  0.3176 -0.3746
  466MOL0     C62784   9.597   6.826  10.102  0.3758  0.8404  0.5489
  466MOL0     C62785   9.640   6.943  10.190 -0.2353  0.6967 -0.4590
  466MOL0     C62786   9.534   6.955  10.303  0.2064  0.8359 -0.8635
  466MOL0     C62787   9.552   6.895  10.442  0.2556  1.2019  0.2661
  466MOL0     C62788   9.441   6.912  10.549  0.3531  0.2969  0.1177
  466MOL0     C62789   9.363   7.037  10.528  0.0812  0.2355  0.0400
  466MOL0     C62790   9.260   7.061  10.638  0.3869  0.1632  0.4249
  466MOL0     C62791   9.124   6.981  10.635 -0.1871  0.1076  0.6762
  466MOL0     N62792   9.057   7.024  10.512 -0.8199 -0.0327 -0.7589
  466MOL0     C62793   9.057   6.957  10.395 -0.6896  0.4344  1.1340
  466MOL0     C62794   8.988   7.024  10.304 -0.4034  0.2606 -0.5208
  466MOL0     C62795   8.954   7.000  10.163  0.1538  0.6908 -0.3098
  466MOL0     C62796   9.089   6.999  10.080 -0.2832  0.0463  1.0240
  466MOL0     C62797   9.192   7.109  10.094 -0.0552  0.0795  0.2389
  466MOL0     C62798   9.264   7.132   9.958 -0.1210 -0.8608  0.6511
  466MOL0     O62799   9.390   7.196   9.993  0.1652  0.7081 -1.1699
  466MOL0     C62800   9.491   7.224   9.901  0.2895  0.2984 -0.5445
  466MOL0     C62801   9.478   7.195   9.763  0.3404 -0.3243  1.0054
  466MOL0     C62802   9.583   7.227   9.673  0.8258 -0.4191 -0.5217
  466MOL0     C62803   9.691   7.295   9.730 -1.0440 -0.4389 -0.3144
  466MOL0     C62804   9.815   7.319   9.643  0.4974  0.1840 -0.1841
  466MOL0     O62805   9.836   7.225   9.550 -0.2876 -0.3392  0.0546
  466MOL0     C62806   9.925   7.235   9.443 -0.6147  0.2230  0.6782
  466MOL0     C62807   9.991   7.345   9.397  0.6839  0.1763  0.9103
  466MOL0     C62808  10.094   7.342   9.305 -0.0194 -0.7233  0.4116
  466MOL0     C62809  10.128   7.224   9.243 -0.2699  0.3981  0.0263
  466MOL0     O62810  10.228   7.207   9.147 -0.1462 -0.4751  0.2732
  466MOL0     C62811  10.339   7.302   9.169  0.2778 -0.4006  0.1245
  466MOL0     C62812  10.453   7.290   9.069 -0.3279  0.4510  1.3626
  466MOL0     C62813  10.508   7.138   9.078 -0.0478 -0.2372  0.4922
  466MOL0     C62814  10.657   7.130   9.082 -0.0081 -0.3358 -0.5191
  466MOL0     C62815  10.698   6.982   9.108  0.6308 -0.3606  0.0998
  466MOL0     C62816  10.845   6.973   9.106  0.1783 -0.4629 -0.6409
  466MOL0     C62817  10.894   6.840   9.158 -0.4003  0.3464 -0.5496
  466MOL0     C62818  10.912   6.830   9.308 -0.7185 -0.6659  0.2169
  466MOL0    Cl62819  11.040   6.968   9.352  0.1731  0.4649 -0.6631
  466MOL0     C62820  10.047   7.111   9.267  0.2720 -0.8462 -0.2078
  466MOL0     C62821   9.957   7.119   9.374  0.6551 -0.4094  1.0037
  466MOL0     O62822   9.882   7.421   9.656  0.6324 -0.2239 -0.0093
  466MOL0     C62823   9.698   7.335   9.865 -0.5580  0.5025  0.2361
  466MOL0     C62824   9.599   7.298   9.950  0.1150 -0.7629 -0.5323
  466MOL0     N62825   8.939   7.131  10.374  0.5113  0.6272 -0.4623
  466MOL0     N62826   8.976   7.125  10.498  1.2162 -0.1300 -0.7866
  466MOL0     C62827   9.373   6.626  10.088  0.2677 -0.1106 -0.6263
  466MOL0     C62828   9.246   6.576  10.113  0.3619  0.2638 -0.4225
  466MOL0     C62829   8.847   6.452  10.251 -0.0700  0.6011 -0.7953
  466MOL0     C62830   8.854   6.316  10.244 -0.2883 -0.4391 -0.1904
  466MOL0     C62831   8.731   6.240  10.241 -0.2957  0.5818 -0.6714
  466MOL0     C62832   8.601   6.297  10.263 -0.1112  0.0037 -0.5581
  466MOL0     O62833   8.482   6.228  10.265 -0.2348 -0.8555  0.9356
  466MOL0     C62834   8.483   6.087  10.252  0.5709 -0.7639 -0.0571
  466MOL0     C62835   8.366   6.015  10.318  0.3491  0.0586 -0.2141
  466MOL0     C62836   8.243   6.036  10.247  0.1286 -0.8434  0.3829
  466MOL0     C62837   8.118   5.984  10.320  0.0158 -0.1490 -0.3057
  466MOL0     C62838   8.004   5.947  10.234 -0.2629  0.2496 -1.0422
  466MOL0     C62839   7.920   5.928  10.149 -0.5139 -0.7695  1.3581
  466MOL0     C62840   8.597   6.433  10.271  0.1157  0.4929 -0.5169
  466MOL0     C62841   8.718   6.508  10.283  1.0734  0.1273  1.1250
  466MOL0     C62842   8.704   6.650  10.345  0.2891 -0.2676  0.0358
  466MOL0     H62843   9.258   6.528  10.449  3.6715 -2.4943  0.9055
  466MOL0     H62844   9.489   6.605  10.406 -0.6438  1.5953  1.7207
  466MOL0     H62845   9.667   6.804  10.021 -0.9883  2.4861 -1.1755
  466MOL0     H62846   9.510   6.859  10.044  1.6573  0.9115 -1.4586
  466MOL0     H62847   9.644   7.036  10.131  2.5387  0.6706 -0.4597
  466MOL0     H62848   9.738   6.921  10.233 -0.6535 -1.6230 -0.5865
  466MOL0     H62849   9.445   6.908  10.260 -0.0302  0.5803 -0.1047
  466MOL0     H62850   9.512   7.061  10.319 -0.4590  1.1370 -3.3207
  466MOL0     H62851   9.584   6.790  10.444 -1.4700  0.6510  0.8843
  466MOL0     H62852   9.646   6.945  10.467 -0.6030  3.8554 -1.3643
  466MOL0     H62853   9.382   6.821  10.536  3.7401 -1.9302 -1.2339
  466MOL0     H62854   9.497   6.908  10.643  0.5709 -1.3349 -0.0575
  466MOL0     H62855   9.439   7.115  10.533  1.0336 -0.7143  1.1696
  466MOL0     H62856   9.315   7.030  10.430  0.2818 -3.0975  0.0679
  466MOL0     H62857   9.245   7.168  10.618  1.7401  0.2314 -0.3957
  466MOL0     H62858   9.297   7.055  10.741 -2.3375  1.7154  1.5978
  466MOL0     H62859   9.151   6.875  10.625 -1.6676 -0.2494  0.3129
  466MOL0     H62860   9.059   7.000  10.721 -3.2988  1.4508 -1.7860
  466MOL0     H62861   9.099   6.857  10.380 -0.9369  0.6641 -1.6780
  466MOL0     H62862   8.913   6.899  10.154  1.9476  0.0353 -1.8865
  466MOL0     H62863   8.869   7.058  10.126 -0.1023  1.6109  1.5996
  466MOL0     H62864   9.142   6.905  10.099  1.7361  0.8228 -0.4700
  466MOL0     H62865   9.064   6.990   9.974 -0.8049  0.2324  1.1306
  466MOL0     H62866   9.263   7.078  10.171 -1.2071 -0.3666  1.1467
  466MOL0     H62867   9.141   7.204  10.114  2.1602  1.6305 -1.0259
  466MOL0     H62868   9.204   7.193   9.890  0.4128 -0.2090  0.7646
  466MOL0     H62869   9.270   7.038   9.902  0.7546 -1.9559  2.4871
  466MOL0     H62870   9.390   7.146   9.723  0.9837 -4.3580  3.8574
  466MOL0     H62871   9.563   7.186   9.575  0.1771 -0.9938 -0.1573
  466MOL0     H62872   9.952   7.437   9.438 -3.0166 -0.1345 -1.4087
  466MOL0     H62873  10.144   7.438   9.304  3.6381 -2.3371  3.2121
  466MOL0     H62874  10.288   7.399   9.163 -1.2793 -1.2024 -0.2958
  466MOL0     H62875  10.380   7.295   9.270  0.6435 -0.7315 -0.0449
  466MOL0     H62876  10.431   7.309   8.963  0.6410  0.1925  1.1021
  466MOL0     H62877  10.531   7.364   9.088  0.7061 -0.1023 -0.4213
  466MOL0     H62878  10.459   7.085   9.160 -0.6228 -2.6756 -1.3266
  466MOL0     H62879  10.474   7.076   8.995  2.1929  0.3194 -0.9356
  466MOL0     H62880  10.691   7.192   9.166 -2.5400 -2.6154  2.4199
  466MOL0     H62881  10.695   7.174   8.989  0.3232 -1.0997 -0.7507
  466MOL0     H62882  10.640   6.924   9.036 -0.1456  0.2294  0.2295
  466MOL0     H62883  10.669   6.948   9.208 -0.3267 -1.1493 -0.4392
  466MOL0     H62884  10.881   6.971   9.002  2.5940 -2.2797  0.1451
  466MOL0     H62885  10.879   7.056   9.167 -3.2057 -1.1729  2.5756
  466MOL0     H62886  10.986   6.795   9.119  0.2348  1.6103 -0.5707
  466MOL0     H62887  10.822   6.764   9.126 -0.0605 -0.4112  0.4112
  466MOL0     H62888  10.818   6.852   9.359  1.7164 -0.3123  5.1131
  466MOL0     H62889  10.943   6.737   9.356 -1.0300  0.2321  2.2620
  466MOL0     H62890  10.068   7.014   9.225 -1.5174 -3.0984  3.5397
  466MOL0     H62891   9.910   7.027   9.408  0.9127 -1.3937 -1.1771
  466MOL0     H62892   9.778   7.397   9.905  0.1441 -0.6504  0.6670
  466MOL0     H62893   9.603   7.325  10.055 -0.5963 -0.1020 -0.6607
  466MOL0     H62894   9.397   6.647   9.984  0.8155 -1.6241 -0.8222
  466MOL0     H62895   9.178   6.556  10.031  0.5120 -0.6240 -0.3460
  466MOL0     H62896   8.945   6.257  10.239 -0.1248 -0.7010  3.1044
  466MOL0     H62897   8.755   6.134  10.234  1.1634  0.6961  1.4889
  466MOL0     H62898   8.573   6.038  10.290 -0.3455 -2.0897  0.5129
  466MOL0     H62899   8.482   6.072  10.144  1.9689  1.4527 -0.4380
  466MOL0     H62900   8.352   6.039  10.424 -3.2224  1.6842 -0.9028
  466MOL0     H62901   8.387   5.907  10.314 -1.2452 -0.2846 -0.1503
  466MOL0     H62902   8.250   5.977  10.155 -1.4763 -1.3795  0.5694
  466MOL0     H62903   8.227   6.144  10.239  0.2397 -0.3477  4.6111
  466MOL0     H62904   8.137   5.897  10.384  4.7217 -0.4498 -1.7490
  466MOL0     H62905   8.074   6.062  10.383  2.5351  0.0507  1.3433
  466MOL0     H62906   7.827   5.897  10.105  0.0368 -1.3551  0.5794
  466MOL0     H62907   8.501   6.481  10.284  0.2838  1.9420 -3.6269
  466MOL0     H62908   8.770   6.655  10.432  0.6498 -1.3554 -0.1529
  466MOL0     H62909   8.726   6.725  10.268 -1.2563 -0.8678 -1.0463
  466MOL0     H62910   8.602   6.662  10.383  1.4078  2.5612  2.5611
  467MOL0     O62911   1.258   0.901  10.770 -0.3214 -0.2971 -0.2111
  467MOL0     C62912   1.372   0.871  10.725  0.8475 -0.0695 -0.1864
  467MOL0     O62913   1.475   0.834  10.812 -0.0011  1.2609 -0.7459
  467MOL0     C62914   1.457   0.791  10.946 -0.2383 -0.5929  0.3080
  467MOL0     C62915   1.577   0.760  11.005 -0.9037 -0.8039  0.0084
  467MOL0     C62916   1.590   0.708  11.133  0.2401 -0.5463 -0.1585
  467MOL0     C62917   1.475   0.698  11.214 -0.9490 -1.1579  0.6093
  467MOL0     O62918   1.497   0.644  11.341  0.2990 -0.2320  0.4910
  467MOL0     C62919   1.383   0.616  11.433  0.1303 -0.5213  0.9046
  467MOL0     C62920   1.432   0.596  11.569  0.1797  1.5045  0.0969
  467MOL0     C62921   1.323   0.556  11.670 -0.4639 -0.3148  0.0867
  467MOL0     C62922   1.388   0.547  11.813 -0.0205  0.1650 -0.5838
  467MOL0     C62923   1.407   0.689  11.874 -0.0744 -0.1873  0.8439
  467MOL0     C62924   1.456   0.699  12.023  0.4687 -0.0773  0.4098
  467MOL0     C62925   1.360   0.662  12.131  0.3478 -0.0598 -0.1527
  467MOL0     C62926   1.210   0.717  12.117 -0.0926  0.0654  1.6066
  467MOL0     N62927   1.118   0.683  12.222 -0.4607  0.7196  0.7420
  467MOL0     C62928   1.064   0.558  12.240  0.8094  0.3125  0.5982
  467MOL0     C62929   0.948   0.569  12.320 -0.7893 -0.6338 -0.5512
  467MOL0     C62930   0.847   0.475  12.373  0.2448  0.4293 -0.5858
  467MOL0     C62931   0.865   0.443  12.512 -0.1095  0.3128 -0.4953
  467MOL0     C62932   0.752   0.355  12.579 -0.1056 -0.1190  0.5251
  467MOL0     C62933   0.786   0.331  12.730  0.6560 -1.0695 -1.4313
  467MOL0     O62934   0.676   0.267  12.800  0.0794  0.5750  0.4408
  467MOL0     C62935   0.650   0.139  12.773 -1.0611  0.7614  1.0277
  467MOL0     C62936   0.519   0.106  12.746 -0.9174  0.2660 -0.1581
  467MOL0     C62937   0.483  -0.033  12.720  0.4431 -0.5569 -0.2103
  467MOL0     C62938   0.576  -0.139  12.720 -0.4212 -0.0373  0.5126
  467MOL0     C62939   0.541  -0.279  12.688 -0.1360 -0.2905 -0.8510
  467MOL0     O62940   0.415  -0.323  12.714 -0.1991 -0.0172  0.0358
  467MOL0     C62941   0.385  -0.454  12.712 -0.4008  0.0792 -0.2555
  467MOL0     C62942   0.417  -0.558  12.622 -0.2304  0.0126  0.3201
  467MOL0     C62943   0.352  -0.683  12.627  0.6209  0.6950 -0.9147
  467MOL0     C62944   0.272  -0.724  12.734 -0.7859 -0.3661  0.6231
  467MOL0     O62945   0.225  -0.850  12.752  0.3992 -0.5478 -0.1888
  467MOL0     C62946   0.276  -0.960  12.687 -0.0896 -0.5948  0.3820
  467MOL0     C62947   0.171  -1.063  12.716 -0.1856  0.2286 -0.1642
  467MOL0     C62948   0.167  -1.112  12.871  0.2055  0.3743  0.0083
  467MOL0     C62949   0.031  -1.194  12.897 -0.3886  0.1799 -1.2369
  467MOL0     C62950  -0.019  -1.231  13.044  0.7519  0.2090 -0.1902
  467MOL0     C62951  -0.072  -1.110  13.123 -0.1295 -1.0770  0.3939
  467MOL0     C62952  -0.010  -1.104  13.268  0.4105  0.1518  0.0572
  467MOL0     C62953  -0.094  -1.032  13.376  0.1441  0.3799  1.3197
  467MOL0    Cl62954   0.005  -1.014  13.521 -0.3859  0.2669 -0.4831
  467MOL0     C62955   0.249  -0.627  12.829  0.5928 -0.4457  0.3565
  467MOL0     C62956   0.309  -0.500  12.825  0.1292 -0.0578 -0.2526
  467MOL0     O62957   0.640  -0.352  12.658  0.4408 -0.9198  0.3347
  467MOL0     C62958   0.708  -0.101  12.746  0.3986  0.4533 -0.6645
  467MOL0     C62959   0.744   0.035  12.776 -0.4651 -0.7188 -0.3830
  467MOL0     N62960   0.944   0.702  12.353 -0.4012 -1.1129  0.2442
  467MOL0     N62961   1.042   0.767  12.298 -0.2402  0.8483 -0.1127
  467MOL0     C62962   1.351   0.722  11.156  0.5286 -1.0391 -0.5225
  467MOL0     C62963   1.338   0.764  11.018  0.2705  0.0056 -0.1852
  467MOL0     C62964   1.391   0.844  10.579  0.1199  0.3165 -0.5962
  467MOL0     C62965   1.479   0.756  10.532  0.0994  0.6902 -0.8362
  467MOL0     C62966   1.502   0.719  10.402  0.0758  0.0028  0.1754
  467MOL0     C62967   1.432   0.778  10.308 -0.9031 -0.3908 -0.3728
  467MOL0     O62968   1.457   0.747  10.169 -0.3955 -0.1432  0.5381
  467MOL0     C62969   1.414   0.824  10.050  0.1284 -0.0463 -1.1524
  467MOL0     C62970   1.525   0.914   9.988  0.0205  0.3180 -0.4916
  467MOL0     C62971   1.651   0.840   9.924 -0.0809 -0.3697 -0.3003
  467MOL0     C62972   1.764   0.934   9.864  0.1583  0.2864  0.6531
  467MOL0     C62973   1.748   0.984   9.727  0.3299  0.3043 -0.4157
  467MOL0     C62974   1.707   1.032   9.620  0.0996  1.2639 -0.2943
  467MOL0     C62975   1.333   0.869  10.346  0.4888 -1.1822 -0.2674
  467MOL0     C62976   1.314   0.906  10.478  0.0574  0.7179 -0.2148
  467MOL0     C62977   1.217   1.023  10.509 -0.4179  0.2483 -0.0476
  467MOL0     H62978   1.668   0.786  10.953 -0.3185 -1.9151  0.4384
  467MOL0     H62979   1.685   0.677  11.175 -1.1504 -0.7268  3.2054
  467MOL0     H62980   1.314   0.701  11.445  3.6486  2.4018  2.2206
  467MOL0     H62981   1.325   0.529  11.401 -1.1798  0.4514  0.5326
  467MOL0     H62982   1.486   0.687  11.598  0.7235  0.4578  2.5618
  467MOL0     H62983   1.503   0.513  11.566 -1.4697 -0.0003  0.8206
  467MOL0     H62984   1.287   0.460  11.631 -3.7428  1.2312 -1.0902
  467MOL0     H62985   1.235   0.621  11.673 -1.0785 -0.9633 -1.9413
  467MOL0     H62986   1.326   0.486  11.879  0.2447 -1.2239 -1.5775
  467MOL0     H62987   1.494   0.522  11.808  0.1320  0.5451  0.3787
  467MOL0     H62988   1.471   0.746  11.807 -0.8656  0.1027  0.3193
  467MOL0     H62989   1.312   0.741  11.856 -0.5580 -1.7088 -1.4944
  467MOL0     H62990   1.556   0.654  12.025  2.5542  4.0318 -0.0258
  467MOL0     H62991   1.484   0.805  12.031 -0.9305  0.2959  0.7334
  467MOL0     H62992   1.401   0.695  12.227 -1.3369  1.9243 -0.0388
  467MOL0     H62993   1.357   0.552  12.131  3.0753 -0.2492 -2.2715
  467MOL0     H62994   1.214   0.827  12.123  3.9331  0.1485  0.3312
  467MOL0     H62995   1.171   0.686  12.020  3.9517  1.5826 -0.7874
  467MOL0     H62996   1.093   0.462  12.198  2.4699  0.3575  1.5617
  467MOL0     H62997   0.750   0.527  12.373 -0.9411 -1.6095  1.2734
  467MOL0     H62998   0.836   0.389  12.305  0.6078  2.0728 -2.8494
  467MOL0     H62999   0.960   0.390  12.520  0.0172  0.7886  1.7906
  467MOL0     H63000   0.859   0.541  12.560  0.7242 -0.8073  2.0143
  467MOL0     H63001   0.735   0.260  12.527  1.4560 -0.8408  1.2611
  467MOL0     H63002   0.661   0.415  12.577  1.2291  2.4201  4.4180
  467MOL0     H63003   0.807   0.417  12.794 -1.2315 -1.3106 -0.4200
  467MOL0     H63004   0.874   0.267  12.725  0.4382 -1.5912  0.5603
  467MOL0     H63005   0.449   0.189  12.753 -2.1164 -0.6444 -1.0472
  467MOL0     H63006   0.385  -0.055  12.681  0.1711 -1.9239  1.1406
  467MOL0     H63007   0.488  -0.530  12.544  0.9315  1.2679  1.7637
  467MOL0     H63008   0.361  -0.755  12.546 -1.9903 -1.2162  0.3404
  467MOL0     H63009   0.285  -0.935  12.581 -0.7692 -1.7275  0.0418
  467MOL0     H63010   0.372  -0.988  12.729 -0.3894 -0.4398  1.1856
  467MOL0     H63011   0.084  -1.008  12.680  0.6654  2.1644  0.5719
  467MOL0     H63012   0.196  -1.150  12.655 -0.3601 -0.0714  0.1872
  467MOL0     H63013   0.250  -1.180  12.892 -1.8081 -1.6721  2.0072
  467MOL0     H63014   0.187  -1.023  12.931 -3.1092  1.6253 -0.5088
  467MOL0     H63015   0.026  -1.284  12.836 -1.2236 -1.7379  1.5094
  467MOL0     H63016  -0.044  -1.133  12.846 -2.7277 -0.2047  1.5000
  467MOL0     H63017   0.050  -1.296  13.099  1.2650  2.1800  1.6285
  467MOL0     H63018  -0.111  -1.290  13.044 -0.1892  1.3158  4.3130
  467MOL0     H63019  -0.049  -1.022  13.062 -1.2250 -2.1455 -1.6870
  467MOL0     H63020  -0.181  -1.116  13.134  0.0095 -1.5465  1.6292
  467MOL0     H63021   0.091  -1.065  13.261  0.5047 -0.1873 -0.6505
  467MOL0     H63022  -0.018  -1.208  13.302 -2.5393  1.0641  2.6097
  467MOL0     H63023  -0.115  -0.930  13.342 -2.0298 -0.7543 -1.1545
  467MOL0     H63024  -0.187  -1.087  13.396 -1.0717  2.3670  1.4340
  467MOL0     H63025   0.185  -0.647  12.914 -0.6365 -1.5444 -0.7925
  467MOL0     H63026   0.288  -0.426  12.902  2.3019 -1.3790  1.7505
  467MOL0     H63027   0.773  -0.187  12.756 -3.5130 -2.6096  1.7022
  467MOL0     H63028   0.847   0.054  12.802 -0.4582 -0.8606 -0.3037
  467MOL0     H63029   1.264   0.716  11.221  0.9714 -0.1542  0.1566
  467MOL0     H63030   1.237   0.797  10.995  0.2298  1.2977  1.6215
  467MOL0     H63031   1.535   0.700  10.606 -1.0172 -0.5599 -0.9100
  467MOL0     H63032   1.575   0.646  10.371  0.1816  0.5923 -1.0483
  467MOL0     H63033   1.319   0.878  10.055 -0.5890 -0.9050 -3.9955
  467MOL0     H63034   1.385   0.747   9.978 -0.7619  1.7798 -2.8273
  467MOL0     H63035   1.557   0.979  10.070 -0.8347 -0.3752  0.4195
  467MOL0     H63036   1.459   0.971   9.921 -0.7457 -0.6248 -0.5675
  467MOL0     H63037   1.628   0.773   9.841 -0.2360  0.3678 -0.8721
  467MOL0     H63038   1.691   0.778  10.005 -4.6972 -1.6219  1.3528
  467MOL0     H63039   1.785   1.014   9.935  0.0353  1.2217 -0.3461
  467MOL0     H63040   1.861   0.882   9.863  0.2028  0.3399  1.7685
  467MOL0     H63041   1.676   1.072   9.525 -1.2368 -0.1735 -0.4899
  467MOL0     H63042   1.280   0.918  10.265  1.6386  0.5527 -0.0419
  467MOL0     H63043   1.252   1.081  10.594 -1.8390  1.8930 -0.5205
  467MOL0     H63044   1.207   1.095  10.427  0.3533  0.1922 -0.2016
  467MOL0     H63045   1.120   0.984  10.542  0.1675 -1.7142 -0.5452
  468MOL0     O63046   6.579   4.824   3.944  0.5273 -1.8179 -1.1484
  468MOL0     C63047   6.597   4.928   3.881 -0.7021  0.5535  0.4501
  468MOL0     O63048   6.679   4.942   3.777 -0.2158 -0.0462 -0.3043
  468MOL0     C63049   6.799   4.874   3.764  0.1167 -1.2213  0.8257
  468MOL0     C63050   6.861   4.852   3.633  0.5373 -0.0437 -0.8118
  468MOL0     C63051   6.980   4.782   3.623  0.0527 -0.6159 -0.0390
  468MOL0     C63052   7.047   4.733   3.737 -0.0881 -1.1516  0.2331
  468MOL0     O63053   7.172   4.674   3.721 -0.5965 -0.5008 -0.0128
  468MOL0     C63054   7.169   4.541   3.667  0.2593  0.6732 -0.6577
  468MOL0     C63055   7.303   4.479   3.687 -0.0403  0.4183 -0.0299
  468MOL0     C63056   7.333   4.338   3.618  0.5616  0.4413  0.0440
  468MOL0     C63057   7.228   4.246   3.551  0.0741 -0.4011  0.0251
  468MOL0     C63058   7.211   4.268   3.405 -0.1551 -0.6973  0.0512
  468MOL0     C63059   7.113   4.189   3.330  0.2832  0.0308  0.2385
  468MOL0     C63060   6.967   4.141   3.384  0.2154  0.0006 -0.7578
  468MOL0     C63061   6.885   4.255   3.449  1.1483 -0.4938 -0.6771
  468MOL0     N63062   6.891   4.383   3.380  0.2084 -0.0452 -0.6257
  468MOL0     C63063   6.844   4.411   3.253 -0.1201  0.0808  0.2410
  468MOL0     C63064   6.868   4.544   3.236  0.7463  0.3373 -0.4563
  468MOL0     C63065   6.860   4.607   3.109 -1.2606  1.1954 -0.9831
  468MOL0     C63066   6.874   4.763   3.120 -0.2884 -0.1746 -1.3164
  468MOL0     C63067   6.753   4.816   3.207  0.0291 -0.5862 -0.2115
  468MOL0     C63068   6.623   4.807   3.130  0.4632  0.1837 -0.5408
  468MOL0     O63069   6.518   4.876   3.199  0.2073 -0.1074 -0.3410
  468MOL0     C63070   6.413   4.935   3.139  1.6748 -0.0017  0.0697
  468MOL0     C63071   6.394   4.904   3.002 -0.6051 -0.1808  0.7405
  468MOL0     C63072   6.282   4.938   2.937 -1.2469 -0.7250  0.7896
  468MOL0     C63073   6.177   5.009   3.003 -0.5056  0.2891 -0.0641
  468MOL0     C63074   6.056   5.040   2.926 -0.5242 -0.0985  0.0454
  468MOL0     O63075   6.053   5.015   2.795 -1.0874 -0.4044 -0.1292
  468MOL0     C63076   5.937   5.038   2.732  0.2947 -0.0461  0.2186
  468MOL0     C63077   5.835   4.943   2.745  0.0219 -0.4509 -0.4904
  468MOL0     C63078   5.721   4.955   2.662  0.4968 -0.2443  0.2079
  468MOL0     C63079   5.721   5.055   2.561  0.8208  0.3332  0.0868
  468MOL0     O63080   5.611   5.049   2.475  0.2879  0.4960  0.8200
  468MOL0     C63081   5.584   5.166   2.407 -0.1956  0.2315 -0.4967
  468MOL0     C63082   5.635   5.163   2.274  0.7293  0.0136  0.5674
  468MOL0     C63083   5.534   5.202   2.165 -0.6212 -0.5956  0.7698
  468MOL0     C63084   5.595   5.254   2.037 -0.3288 -0.5639  2.1155
  468MOL0     C63085   5.512   5.219   1.905  0.2026 -0.8023  0.3130
  468MOL0     C63086   5.354   5.257   1.909 -1.4579 -0.3285  0.6157
  468MOL0     C63087   5.296   5.276   1.765  0.0199 -0.5776  1.0892
  468MOL0     C63088   5.305   5.422   1.706  0.1636  0.8319  1.0536
  468MOL0    Cl63089   5.172   5.533   1.740 -0.3286  0.1216  0.2761
  468MOL0     C63090   5.829   5.146   2.541 -0.9981  0.3410  0.2590
  468MOL0     C63091   5.933   5.142   2.636  0.4172  0.2203  0.0067
  468MOL0     O63092   5.960   5.085   2.992 -0.2818  0.0657 -0.0780
  468MOL0     C63093   6.189   5.037   3.146 -0.3442 -0.4531 -0.0311
  468MOL0     C63094   6.306   5.001   3.207 -0.8625 -0.2892 -0.0140
  468MOL0     N63095   6.923   4.594   3.350 -0.5037 -0.2274  0.2033
  468MOL0     N63096   6.934   4.502   3.434  0.7785 -0.2545  0.4914
  468MOL0     C63097   6.987   4.754   3.862 -0.5272  0.3183  0.4668
  468MOL0     C63098   6.861   4.809   3.873  0.7212 -0.6110  0.5285
  468MOL0     C63099   6.523   5.053   3.907 -0.5021  0.2571  0.4460
  468MOL0     C63100   6.603   5.162   3.909  0.0894  1.1125 -0.0664
  468MOL0     C63101   6.561   5.291   3.919 -0.2791  1.1684 -0.1388
  468MOL0     C63102   6.426   5.315   3.944  0.2822 -0.3668 -0.0628
  468MOL0     O63103   6.370   5.435   3.955 -0.6123  0.6922 -0.2355
  468MOL0     C63104   6.431   5.550   3.902 -0.4386 -0.0273 -0.6657
  468MOL0     C63105   6.327   5.647   3.843 -0.2808  0.2606 -1.5359
  468MOL0     C63106   6.209   5.686   3.932 -0.0356  0.0383  0.3213
  468MOL0     C63107   6.219   5.693   4.083  0.0314 -0.6197  0.1371
  468MOL0     C63108   6.297   5.807   4.116 -0.0864 -0.0967  0.0850
  468MOL0     C63109   6.364   5.906   4.148 -0.4549 -0.0792 -1.1116
  468MOL0     C63110   6.338   5.201   3.953 -0.5065  0.1188 -0.1281
  468MOL0     C63111   6.386   5.068   3.945  0.1613 -1.3580  0.0155
  468MOL0     C63112   6.294   4.942   3.943  0.0111 -0.6620  0.1203
  468MOL0     H63113   6.808   4.908   3.557 -1.0840 -0.2355  0.1416
  468MOL0     H63114   7.038   4.782   3.531  1.5251 -0.0900  0.8551
  468MOL0     H63115   7.087   4.497   3.726 -1.5942  2.4708 -1.7473
  468MOL0     H63116   7.143   4.520   3.563 -0.4834 -1.8864 -0.0398
  468MOL0     H63117   7.324   4.469   3.794  1.7612 -2.2334 -0.5393
  468MOL0     H63118   7.374   4.558   3.661 -0.0862  0.9606  1.3888
  468MOL0     H63119   7.369   4.290   3.710 -0.7533  0.7858  0.7711
  468MOL0     H63120   7.410   4.363   3.544  1.2652  1.5216  1.1172
  468MOL0     H63121   7.262   4.144   3.570  0.2176 -0.2293  0.7460
  468MOL0     H63122   7.133   4.265   3.600 -1.0631  1.5696 -2.6686
  468MOL0     H63123   7.181   4.372   3.391 -1.9677 -1.2252 -0.2690
  468MOL0     H63124   7.311   4.260   3.360 -0.3943  0.1479 -0.6429
  468MOL0     H63125   7.108   4.224   3.227  3.3624 -1.5625 -0.5666
  468MOL0     H63126   7.166   4.095   3.312 -1.0366 -0.3762 -1.8338
  468MOL0     H63127   6.973   4.063   3.461 -1.7199  1.2632  0.7676
  468MOL0     H63128   6.898   4.116   3.304 -0.9927  0.3683  0.1356
  468MOL0     H63129   6.781   4.222   3.460  1.9227 -2.1323  4.1433
  468MOL0     H63130   6.913   4.260   3.554  1.3646  0.4907 -0.7727
  468MOL0     H63131   6.813   4.341   3.175 -2.9736  2.4359 -0.9452
  468MOL0     H63132   6.937   4.572   3.039 -0.3714 -1.3088  1.0995
  468MOL0     H63133   6.762   4.581   3.068 -1.1229  0.8292 -1.0898
  468MOL0     H63134   6.962   4.782   3.183 -1.1556 -0.7478  0.1190
  468MOL0     H63135   6.891   4.811   3.023  3.0405  2.1942  0.2316
  468MOL0     H63136   6.761   4.922   3.233 -3.8957  0.6603 -3.1102
  468MOL0     H63137   6.742   4.763   3.302 -3.6516 -1.7672 -1.1550
  468MOL0     H63138   6.607   4.702   3.107  0.1825  0.7120 -3.0782
  468MOL0     H63139   6.648   4.854   3.034  0.8296 -0.6515 -0.8604
  468MOL0     H63140   6.464   4.853   2.937 -1.4146 -1.0262  0.4982
  468MOL0     H63141   6.269   4.922   2.831  1.8114 -0.6909  0.3371
  468MOL0     H63142   5.847   4.860   2.814  0.4271  1.9726  2.6047
  468MOL0     H63143   5.638   4.886   2.673  0.8355 -0.7553 -0.4277
  468MOL0     H63144   5.475   5.153   2.397  0.1625 -1.9774 -2.8444
  468MOL0     H63145   5.603   5.258   2.461  0.4848 -0.2077  0.0313
  468MOL0     H63146   5.725   5.225   2.261  1.7724 -1.3972  0.7480
  468MOL0     H63147   5.661   5.058   2.264 -0.3923 -0.3866  1.6574
  468MOL0     H63148   5.479   5.108   2.158 -0.8469 -0.4573  0.6779
  468MOL0     H63149   5.466   5.282   2.196  0.1000  0.8557 -1.1565
  468MOL0     H63150   5.695   5.212   2.024 -0.1470  0.6657 -1.4540
  468MOL0     H63151   5.603   5.362   2.055  0.3658 -0.6419  2.3075
  468MOL0     H63152   5.520   5.115   1.870 -0.6577  0.1942 -3.2500
  468MOL0     H63153   5.571   5.272   1.830 -1.2310 -0.1422 -0.3700
  468MOL0     H63154   5.311   5.166   1.951 -1.4731 -0.6655 -0.1106
  468MOL0     H63155   5.338   5.344   1.974 -1.9719  0.7133 -0.8403
  468MOL0     H63156   5.190   5.254   1.756  0.2305 -1.1059 -0.6088
  468MOL0     H63157   5.358   5.220   1.694 -0.4156  0.9467 -0.5678
  468MOL0     H63158   5.404   5.458   1.736  0.9674  0.2196 -0.7285
  468MOL0     H63159   5.299   5.425   1.597  0.8194 -0.1788  0.9761
  468MOL0     H63160   5.835   5.218   2.460 -2.3852 -2.1022 -2.1596
  468MOL0     H63161   6.024   5.200   2.640 -0.0426  0.9581 -0.1238
  468MOL0     H63162   6.112   5.083   3.207 -0.5665  1.0010 -1.3402
  468MOL0     H63163   6.319   5.018   3.313  2.7225  4.1622 -0.8777
  468MOL0     H63164   7.046   4.717   3.946 -0.4696 -0.8874 -0.0933
  468MOL0     H63165   6.824   4.809   3.975 -0.8569  1.9851  0.0547
  468MOL0     H63166   6.709   5.163   3.886 -0.2178 -1.8912 -2.1485
  468MOL0     H63167   6.631   5.373   3.915 -1.0642  1.8277 -0.9122
  468MOL0     H63168   6.491   5.529   3.813  0.5685 -0.2922  0.0589
  468MOL0     H63169   6.503   5.585   3.976  2.7618 -2.5196 -2.3579
  468MOL0     H63170   6.283   5.597   3.757  0.4399  1.5061 -2.6676
  468MOL0     H63171   6.382   5.739   3.822  1.3963  0.2151  1.9520
  468MOL0     H63172   6.128   5.615   3.911 -1.3204  1.3314  0.7721
  468MOL0     H63173   6.183   5.782   3.889  1.5247  0.1511 -0.4513
  468MOL0     H63174   6.118   5.701   4.124  1.1592 -0.8348  3.1734
  468MOL0     H63175   6.268   5.601   4.118 -2.0586 -1.2482  1.5959
  468MOL0     H63176   6.410   5.994   4.187 -1.2418  0.4940 -1.4608
  468MOL0     H63177   6.235   5.209   3.987 -0.3536 -0.7326  0.5479
  468MOL0     H63178   6.316   4.860   3.874 -1.7863 -0.4480 -0.7703
  468MOL0     H63179   6.303   4.905   4.045  3.0765  0.1352  0.2350
  468MOL0     H63180   6.188   4.966   3.933 -0.3807 -2.5466 -0.7287
  469MOL0     O63181   6.950   8.192   2.478 -0.0100  1.1739 -0.8348
  469MOL0     C63182   6.995   8.165   2.587 -0.1824  0.9753 -0.0830
  469MOL0     O63183   6.950   8.054   2.667  1.0945 -0.7552  0.5830
  469MOL0     C63184   6.877   7.957   2.607 -0.4605  0.2938  0.3211
  469MOL0     C63185   6.948   7.850   2.559  0.1955 -0.3948 -0.8395
  469MOL0     C63186   6.887   7.737   2.497  0.6222 -0.3315 -0.4681
  469MOL0     C63187   6.748   7.742   2.480  0.5307  0.6501 -0.1918
  469MOL0     O63188   6.678   7.649   2.409 -0.6922  0.5907  0.0536
  469MOL0     C63189   6.742   7.530   2.344 -0.0478 -1.0635 -0.1762
  469MOL0     C63190   6.643   7.490   2.230  0.2559 -0.3153 -0.1035
  469MOL0     C63191   6.498   7.475   2.285 -1.2068  0.6303  0.3914
  469MOL0     C63192   6.491   7.347   2.379 -0.0462 -0.7386  0.2980
  469MOL0     C63193   6.354   7.318   2.438 -0.6312  0.7018  0.2421
  469MOL0     C63194   6.252   7.287   2.323  0.3960  0.6567 -0.4463
  469MOL0     C63195   6.121   7.241   2.375 -0.1579  0.0320 -0.4794
  469MOL0     C63196   6.074   7.338   2.487  0.8943 -0.1805  0.2190
  469MOL0     N63197   5.938   7.325   2.539  0.6350  0.0202 -0.2308
  469MOL0     C63198   5.907   7.278   2.665 -0.7449  0.3895  0.9216
  469MOL0     C63199   5.766   7.292   2.677 -0.1158 -1.0138 -0.7336
  469MOL0     C63200   5.683   7.243   2.788  0.3706  0.8839 -0.7830
  469MOL0     C63201   5.533   7.287   2.768 -0.9998 -1.1218  0.1093
  469MOL0     C63202   5.449   7.309   2.889  0.1184  0.1890 -0.7344
  469MOL0     C63203   5.430   7.183   2.989  0.6596 -0.0336 -0.0599
  469MOL0     O63204   5.410   7.224   3.125 -0.8592 -0.6728 -0.7956
  469MOL0     C63205   5.282   7.219   3.168 -0.0097  0.0743 -0.3011
  469MOL0     C63206   5.257   7.139   3.270  0.3197 -0.2099  0.2956
  469MOL0     C63207   5.124   7.104   3.302 -0.2737 -1.2488 -0.5283
  469MOL0     C63208   5.017   7.164   3.247 -0.3590  0.0213 -0.8703
  469MOL0     C63209   4.882   7.141   3.306  1.0942 -0.1685 -0.5073
  469MOL0     O63210   4.860   7.037   3.394 -0.3046  0.4544  0.5959
  469MOL0     C63211   4.733   6.977   3.407  0.0322  1.0105  0.0665
  469MOL0     C63212   4.738   6.861   3.478 -0.0092  0.6387  0.8217
  469MOL0     C63213   4.624   6.802   3.535 -0.3541 -0.0322  0.3400
  469MOL0     C63214   4.501   6.864   3.514  0.0172 -0.5978  1.6046
  469MOL0     O63215   4.376   6.832   3.566  0.0420  0.1344 -1.0125
  469MOL0     C63216   4.351   6.702   3.623  0.2193 -0.1610 -0.5322
  469MOL0     C63217   4.195   6.653   3.607  0.3914 -0.5987  0.3289
  469MOL0     C63218   4.104   6.715   3.707  0.7723 -0.1311 -0.7619
  469MOL0     C63219   3.963   6.655   3.697  0.4173  0.6629  0.9281
  469MOL0     C63220   3.868   6.711   3.797  0.4460  0.4202  0.0549
  469MOL0     C63221   3.737   6.637   3.769 -0.4233  0.3109  0.1631
  469MOL0     C63222   3.678   6.651   3.625  1.0066  0.2891 -0.1467
  469MOL0     C63223   3.529   6.642   3.623 -0.1697  0.4599 -0.2694
  469MOL0    Cl63224   3.447   6.495   3.698  0.3594 -0.5495 -0.0056
  469MOL0     C63225   4.494   6.976   3.429  0.1567  0.5667 -0.1500
  469MOL0     C63226   4.610   7.030   3.378 -0.3764 -0.1459 -0.4677
  469MOL0     O63227   4.793   7.223   3.281  0.4752  0.2082 -0.2175
  469MOL0     C63228   5.044   7.267   3.156  1.0209 -0.4367  0.1425
  469MOL0     C63229   5.183   7.289   3.104  0.2057  0.0328  0.2736
  469MOL0     N63230   5.719   7.355   2.563  0.7064  0.3800  0.7307
  469MOL0     N63231   5.822   7.375   2.473  1.1038  0.0165 -0.9110
  469MOL0     C63232   6.676   7.857   2.530 -0.0582 -0.0633 -0.7421
  469MOL0     C63233   6.744   7.977   2.585  0.3035  0.5351  0.4224
  469MOL0     C63234   7.092   8.260   2.651  0.2933  1.2104 -0.3361
  469MOL0     C63235   7.119   8.235   2.786 -1.4876 -0.6729  0.8255
  469MOL0     C63236   7.201   8.311   2.854  0.1653  0.2847  0.3406
  469MOL0     C63237   7.281   8.411   2.800  0.4179 -0.5767  0.6550
  469MOL0     O63238   7.380   8.465   2.879 -0.5074 -0.1154  0.1228
  469MOL0     C63239   7.483   8.548   2.824  0.3683 -0.0901 -0.5025
  469MOL0     C63240   7.576   8.607   2.925  1.0556 -0.6190  0.0758
  469MOL0     C63241   7.722   8.608   2.862  0.4603  0.0693  0.2395
  469MOL0     C63242   7.821   8.506   2.923 -0.6746  0.0743 -0.6250
  469MOL0     C63243   7.791   8.371   2.881  0.4511 -0.4354  0.6447
  469MOL0     C63244   7.744   8.264   2.836 -0.3720 -0.4335  0.3640
  469MOL0     C63245   7.252   8.442   2.666 -0.2156 -0.0911  1.0325
  469MOL0     C63246   7.153   8.377   2.591 -0.1884  0.1951  0.7116
  469MOL0     C63247   7.122   8.417   2.445 -0.8041  0.5473  0.6157
  469MOL0     H63248   7.054   7.866   2.575  0.2305 -2.7264  2.0454
  469MOL0     H63249   6.956   7.658   2.469  3.0747  1.1549  1.0489
  469MOL0     H63250   6.841   7.557   2.305 -0.1047  0.2949  0.5707
  469MOL0     H63251   6.760   7.448   2.414 -2.2562 -2.0252 -0.6541
  469MOL0     H63252   6.666   7.396   2.180 -1.6376 -1.5825  1.3068
  469MOL0     H63253   6.627   7.568   2.155 -0.8011  1.3362  1.7385
  469MOL0     H63254   6.430   7.457   2.201 -0.1234 -0.5547 -0.2777
  469MOL0     H63255   6.468   7.558   2.349  2.2333 -1.6252  5.5352
  469MOL0     H63256   6.511   7.257   2.321  0.1349 -0.4840 -0.0417
  469MOL0     H63257   6.571   7.358   2.453  0.1615  1.1240 -0.1421
  469MOL0     H63258   6.365   7.225   2.493 -2.3811  0.1259 -0.3187
  469MOL0     H63259   6.328   7.400   2.506 -0.2479 -0.1543  1.4380
  469MOL0     H63260   6.236   7.371   2.255  2.6393  0.1038 -1.7419
  469MOL0     H63261   6.296   7.202   2.271 -0.9112 -0.1182 -0.3480
  469MOL0     H63262   6.127   7.134   2.399  0.7168 -0.2208 -1.7030
  469MOL0     H63263   6.048   7.248   2.293 -1.0905 -2.9636 -0.0661
  469MOL0     H63264   6.143   7.341   2.572 -1.5766 -2.3114  2.5044
  469MOL0     H63265   6.078   7.426   2.422  0.8935 -1.7613 -2.0492
  469MOL0     H63266   5.955   7.223   2.745  1.1043  2.7722  1.5523
  469MOL0     H63267   5.676   7.135   2.772 -0.2570  1.0685 -1.9394
  469MOL0     H63268   5.733   7.270   2.881  2.7697 -1.2148 -1.3421
  469MOL0     H63269   5.528   7.375   2.703  1.1958 -1.8400 -1.1540
  469MOL0     H63270   5.474   7.209   2.720 -1.9131 -1.1061  1.1796
  469MOL0     H63271   5.349   7.346   2.865 -0.4638  0.5349  1.8592
  469MOL0     H63272   5.505   7.377   2.954  3.2324 -2.0225 -0.8819
  469MOL0     H63273   5.511   7.110   2.985  0.3751 -0.6339  2.9869
  469MOL0     H63274   5.338   7.139   2.948  0.0868 -0.5954  1.7323
  469MOL0     H63275   5.344   7.096   3.318  1.4416  1.3670 -0.2447
  469MOL0     H63276   5.100   7.023   3.370  2.1140 -1.8236 -0.2960
  469MOL0     H63277   4.831   6.825   3.521 -0.2518  0.3985  1.1523
  469MOL0     H63278   4.634   6.732   3.617  2.0338  2.6606  2.5600
  469MOL0     H63279   4.412   6.629   3.569 -1.9843 -0.7431 -2.4130
  469MOL0     H63280   4.384   6.689   3.726  0.9489 -1.0766 -0.8685
  469MOL0     H63281   4.153   6.679   3.510  1.3079 -0.0133  0.0693
  469MOL0     H63282   4.192   6.544   3.607 -0.9462 -0.5818 -0.0791
  469MOL0     H63283   4.140   6.704   3.809 -3.3096 -1.6920  0.7243
  469MOL0     H63284   4.102   6.823   3.687  1.5029  0.9043  3.6385
  469MOL0     H63285   3.963   6.546   3.697  2.8207  0.5658 -1.0895
  469MOL0     H63286   3.934   6.677   3.594  0.9876 -2.0925  0.0885
  469MOL0     H63287   3.849   6.818   3.789 -2.6353 -0.0412 -0.0004
  469MOL0     H63288   3.896   6.691   3.901 -1.4345 -0.2334  0.4687
  469MOL0     H63289   3.745   6.528   3.779  0.9932  0.2243 -1.4941
  469MOL0     H63290   3.660   6.665   3.842 -2.9417  0.4935 -2.3828
  469MOL0     H63291   3.715   6.565   3.569  0.6847 -0.1043  0.2339
  469MOL0     H63292   3.717   6.735   3.567  0.8134  1.3533  1.2135
  469MOL0     H63293   3.489   6.727   3.680  0.1641  1.5242 -1.5615
  469MOL0     H63294   3.493   6.655   3.520 -1.0097 -1.2901 -0.2232
  469MOL0     H63295   4.394   7.016   3.437  0.8684  2.0115  3.2740
  469MOL0     H63296   4.587   7.120   3.322  0.9212 -0.8361 -2.1813
  469MOL0     H63297   4.957   7.329   3.134  0.5763 -1.7421 -1.9921
  469MOL0     H63298   5.203   7.365   3.029  0.6933 -0.6666 -0.3112
  469MOL0     H63299   6.569   7.869   2.517 -0.0987 -0.4238 -0.7680
  469MOL0     H63300   6.695   8.058   2.638  0.2939  2.0272 -1.7467
  469MOL0     H63301   7.090   8.144   2.837 -1.8604 -1.7318 -1.1622
  469MOL0     H63302   7.207   8.269   2.954 -0.9237  0.0133  0.3083
  469MOL0     H63303   7.431   8.631   2.774  3.9241  1.2519 -2.3243
  469MOL0     H63304   7.533   8.488   2.748  3.5621 -0.8631  1.9897
  469MOL0     H63305   7.580   8.557   3.023 -1.0073  0.5109  0.8134
  469MOL0     H63306   7.541   8.710   2.941 -0.3642 -1.1135  0.3467
  469MOL0     H63307   7.774   8.704   2.868  1.7568 -0.5901 -0.0384
  469MOL0     H63308   7.712   8.583   2.756 -0.5855 -2.7617  0.9306
  469MOL0     H63309   7.915   8.534   2.873 -0.9266 -4.4037 -4.2623
  469MOL0     H63310   7.822   8.510   3.033  1.7790  0.1593 -0.5805
  469MOL0     H63311   7.721   8.170   2.791 -3.0148 -0.8779  2.3801
  469MOL0     H63312   7.307   8.524   2.622 -2.6151  1.7991  1.3502
  469MOL0     H63313   7.154   8.345   2.369 -3.2968 -0.0603  0.0422
  469MOL0     H63314   7.016   8.441   2.429 -1.4509 -2.4278 -0.2373
  469MOL0     H63315   7.178   8.508   2.423  3.0184 -2.0470 -1.6084
  470MOL0     O63316   2.832   9.542   7.207 -0.1451  0.0328 -0.7027
  470MOL0     C63317   2.786   9.435   7.166 -0.2594  0.0995  0.4208
  470MOL0     O63318   2.657   9.403   7.170 -0.3408  0.4980 -0.7795
  470MOL0     C63319   2.562   9.483   7.223 -0.2919 -0.8281  1.1735
  470MOL0     C63320   2.549   9.621   7.189  0.1017 -0.5917 -0.9305
  470MOL0     C63321   2.455   9.705   7.250 -0.3422 -0.8114  0.3954
  470MOL0     C63322   2.388   9.656   7.360  0.4010  0.4422 -0.3581
  470MOL0     O63323   2.309   9.737   7.440 -0.1799  0.6628  0.3719
  470MOL0     C63324   2.292   9.871   7.417  0.1965 -0.5032  0.3716
  470MOL0     C63325   2.209   9.955   7.512 -0.7099  0.7926  1.3613
  470MOL0     C63326   2.234  10.110   7.484 -0.2284  0.1240  0.2807
  470MOL0     C63327   2.212  10.147   7.336 -0.3283 -0.3299  0.3198
  470MOL0     C63328   2.229  10.302   7.312  0.0451 -0.2441 -0.5134
  470MOL0     C63329   2.145  10.402   7.392 -0.0893 -0.6591  0.6813
  470MOL0     C63330   1.985  10.368   7.374  0.7466  1.2551  0.0420
  470MOL0     C63331   1.909  10.470   7.460 -1.0245  0.0865  0.3009
  470MOL0     N63332   1.768  10.439   7.476  0.1349  0.2042  0.2072
  470MOL0     C63333   1.683  10.390   7.380 -0.2580 -0.2877 -0.0365
  470MOL0     C63334   1.559  10.422   7.427  0.0217  0.5249  0.9691
  470MOL0     C63335   1.438  10.424   7.335  0.4351 -1.0903 -0.6046
  470MOL0     C63336   1.303  10.399   7.409  0.2808  0.0303  0.6667
  470MOL0     C63337   1.191  10.423   7.309 -0.7057  0.1786  1.1516
  470MOL0     C63338   1.061  10.373   7.344 -0.0760  0.3267 -0.6734
  470MOL0     O63339   0.965  10.464   7.281 -0.5629 -0.2914  0.3456
  470MOL0     C63340   0.845  10.417   7.251 -0.8019 -1.5516  0.1494
  470MOL0     C63341   0.802  10.348   7.142  0.1260  0.2655 -0.1107
  470MOL0     C63342   0.672  10.322   7.116  0.3644 -0.3909 -1.3977
  470MOL0     C63343   0.570  10.349   7.212  0.5999 -0.0287 -0.2599
  470MOL0     C63344   0.428  10.295   7.186 -0.0907  0.7901  0.1425
  470MOL0     O63345   0.329  10.323   7.280  0.0959 -0.3524  0.0059
  470MOL0     C63346   0.200  10.299   7.250  0.1447  0.0368  0.2484
  470MOL0     C63347   0.145  10.327   7.122 -0.2509 -0.2174 -0.6821
  470MOL0     C63348   0.017  10.293   7.084 -0.1686 -0.1734 -0.1589
  470MOL0     C63349  -0.057  10.222   7.180 -0.4981  0.1751  0.6497
  470MOL0     O63350  -0.179  10.182   7.126 -0.6111 -0.1050  0.1293
  470MOL0     C63351  -0.302  10.202   7.203 -0.7314  0.3672 -0.7496
  470MOL0     C63352  -0.418  10.136   7.133  0.5397  0.7314 -0.7305
  470MOL0     C63353  -0.496  10.233   7.037 -0.4312 -0.6518 -0.7079
  470MOL0     C63354  -0.615  10.151   6.970 -0.0668 -0.0248 -0.2680
  470MOL0     C63355  -0.693  10.236   6.870  0.3671 -0.6137  0.1623
  470MOL0     C63356  -0.812  10.316   6.932 -1.3030 -0.9753  0.5260
  470MOL0     C63357  -0.911  10.368   6.827  0.4115  0.4372 -0.2119
  470MOL0     C63358  -1.039  10.428   6.893  0.3365  0.0861 -0.0093
  470MOL0    Cl63359  -1.139  10.503   6.763  0.0065 -0.1606 -0.4307
  470MOL0     C63360  -0.016  10.211   7.317  0.0640  0.7241  0.1840
  470MOL0     C63361   0.113  10.251   7.345 -0.0572 -0.2307  0.9311
  470MOL0     O63362   0.417  10.240   7.078  0.2242  0.0310 -0.5202
  470MOL0     C63363   0.608  10.420   7.326 -0.4199 -0.3331  0.2187
  470MOL0     C63364   0.752  10.438   7.351 -0.2166 -0.4060 -0.3900
  470MOL0     N63365   1.574  10.468   7.555  0.3157 -0.4204  0.0226
  470MOL0     N63366   1.703  10.467   7.590 -0.4859 -0.3919 -0.7852
  470MOL0     C63367   2.390   9.520   7.396 -0.6772  1.2755  0.5695
  470MOL0     C63368   2.477   9.428   7.324  0.6452  0.3046  0.4520
  470MOL0     C63369   2.882   9.361   7.086 -0.0778  0.0296  0.5623
  470MOL0     C63370   2.845   9.342   6.953 -0.3362  0.6060  0.1877
  470MOL0     C63371   2.931   9.275   6.862  0.7937  0.6534  0.2408
  470MOL0     C63372   3.051   9.217   6.906 -0.0271  0.1918 -0.2589
  470MOL0     O63373   3.122   9.144   6.814  0.0425  0.2118 -0.3732
  470MOL0     C63374   3.217   9.238   6.752  0.6640  0.5049  0.1742
  470MOL0     C63375   3.297   9.178   6.629  0.8441 -0.1867 -0.7219
  470MOL0     C63376   3.396   9.284   6.568  0.2354  0.4627  0.5692
  470MOL0     C63377   3.523   9.216   6.514 -0.2611  0.0776 -0.4738
  470MOL0     C63378   3.598   9.116   6.605 -0.2260  0.1485 -0.0718
  470MOL0     C63379   3.651   9.025   6.674 -0.1986 -1.0907  0.6860
  470MOL0     C63380   3.081   9.224   7.044  0.0394 -0.2185  0.1573
  470MOL0     C63381   3.004   9.294   7.133  0.8893 -0.4559 -0.7660
  470MOL0     C63382   3.039   9.305   7.273 -0.8941  0.0370 -1.0108
  470MOL0     H63383   2.619   9.666   7.119  2.1066  1.7310  2.2773
  470MOL0     H63384   2.455   9.811   7.230 -1.1519 -1.0098 -0.7394
  470MOL0     H63385   2.388   9.924   7.416 -0.1029  0.0618 -1.3889
  470MOL0     H63386   2.249   9.885   7.318  0.6562  1.9055  0.4499
  470MOL0     H63387   2.245   9.931   7.612 -0.3668  2.1680  1.5862
  470MOL0     H63388   2.101   9.938   7.504 -0.6509  0.6695  0.7095
  470MOL0     H63389   2.334  10.140   7.518 -1.0158 -0.0394  2.9493
  470MOL0     H63390   2.163  10.159   7.551 -0.4011  0.7308 -0.3351
  470MOL0     H63391   2.285  10.100   7.269 -1.5722  1.0326 -2.1389
  470MOL0     H63392   2.117  10.108   7.299  0.1959 -0.3757 -1.0525
  470MOL0     H63393   2.337  10.317   7.324  0.0896 -1.6973  1.3994
  470MOL0     H63394   2.211  10.318   7.205 -0.0222  1.5398 -0.2496
  470MOL0     H63395   2.177  10.397   7.497 -0.3174  0.4156  0.8121
  470MOL0     H63396   2.161  10.502   7.350  3.3958 -2.3780 -2.7458
  470MOL0     H63397   1.972  10.265   7.407  0.4142  1.5125  0.7327
  470MOL0     H63398   1.964  10.372   7.267 -1.8238 -3.5200  0.1263
  470MOL0     H63399   1.961  10.474   7.556  0.9505  2.3242 -0.7771
  470MOL0     H63400   1.928  10.571   7.422  1.1989 -0.3805  0.0836
  470MOL0     H63401   1.703  10.352   7.280  0.2191 -2.6869  0.9006
  470MOL0     H63402   1.437  10.525   7.292  1.0152 -1.4549 -1.4876
  470MOL0     H63403   1.445  10.361   7.246 -0.6744 -0.1089 -1.4124
  470MOL0     H63404   1.296  10.292   7.428 -0.6052 -0.1668 -0.6467
  470MOL0     H63405   1.294  10.457   7.501 -1.6769  2.8757 -1.1304
  470MOL0     H63406   1.232  10.383   7.216 -0.7471  1.4480  0.5638
  470MOL0     H63407   1.184  10.532   7.310  0.5654  0.3040 -0.3728
  470MOL0     H63408   1.040  10.363   7.451  0.4692  1.6797 -0.4226
  470MOL0     H63409   1.054  10.267   7.319 -1.9930  0.2124  0.1347
  470MOL0     H63410   0.876  10.319   7.068 -0.4437 -3.2846  0.5281
  470MOL0     H63411   0.645  10.262   7.030 -1.3329  0.2807 -1.3699
  470MOL0     H63412   0.221  10.373   7.059  1.9888  0.8190  2.5456
  470MOL0     H63413  -0.023  10.300   6.984  3.5214 -0.2562 -1.7807
  470MOL0     H63414  -0.289  10.147   7.297  1.4267 -2.4190 -2.4895
  470MOL0     H63415  -0.323  10.308   7.218 -0.8919  0.2853 -0.3904
  470MOL0     H63416  -0.395  10.042   7.081  0.1421  0.5925 -0.6616
  470MOL0     H63417  -0.486  10.107   7.214  3.1556  1.4359  1.8838
  470MOL0     H63418  -0.549  10.315   7.086 -1.2083 -1.8220  0.5033
  470MOL0     H63419  -0.429  10.281   6.965 -2.2643 -0.0179 -2.0934
  470MOL0     H63420  -0.680  10.131   7.056  0.2416  1.5465  0.3642
  470MOL0     H63421  -0.574  10.064   6.917 -3.3861 -1.6074 -0.4477
  470MOL0     H63422  -0.743  10.170   6.799  0.8024 -0.1051 -0.6303
  470MOL0     H63423  -0.619  10.304   6.824 -0.1155 -0.7202 -0.8009
  470MOL0     H63424  -0.870  10.246   6.993 -2.4688 -0.6605 -0.2064
  470MOL0     H63425  -0.770  10.398   6.991  1.3872 -2.5101  0.9362
  470MOL0     H63426  -0.948  10.283   6.769 -0.6037 -1.2071  2.6770
  470MOL0     H63427  -0.866  10.449   6.767 -0.6142 -0.0538 -1.7026
  470MOL0     H63428  -1.094  10.350   6.945  0.1114  1.3297  1.7118
  470MOL0     H63429  -1.007  10.505   6.965 -2.5886 -0.1729  1.7308
  470MOL0     H63430  -0.090  10.184   7.391 -4.2694  2.9582 -2.8728
  470MOL0     H63431   0.143  10.259   7.449 -0.0472  0.3792  0.8813
  470MOL0     H63432   0.522  10.446   7.386  0.7342  1.7116  1.1215
  470MOL0     H63433   0.796  10.475   7.443  0.6670  1.7851 -1.6299
  470MOL0     H63434   2.319   9.483   7.469  0.8015 -0.2370  1.3152
  470MOL0     H63435   2.476   9.320   7.340 -4.4091  0.0212 -0.0363
  470MOL0     H63436   2.750   9.382   6.919 -0.0298 -1.1106 -3.0593
  470MOL0     H63437   2.901   9.264   6.758 -0.7944 -2.6275  0.9229
  470MOL0     H63438   3.291   9.267   6.827 -0.3923  1.8829  0.7267
  470MOL0     H63439   3.167   9.331   6.725  2.1959  1.4923  0.5682
  470MOL0     H63440   3.223   9.145   6.556 -0.3268 -2.6874  1.4115
  470MOL0     H63441   3.353   9.092   6.668  3.8587  2.4246  1.2667
  470MOL0     H63442   3.426   9.365   6.636  1.0674 -1.4739  2.6607
  470MOL0     H63443   3.357   9.343   6.485 -0.4004 -0.6470  0.0627
  470MOL0     H63444   3.482   9.170   6.423 -2.3468  3.5691 -1.4686
  470MOL0     H63445   3.595   9.295   6.491 -0.4843  0.9119  1.4657
  470MOL0     H63446   3.682   8.946   6.740  0.4520 -1.7739 -0.4008
  470MOL0     H63447   3.174   9.179   7.075  1.1834  0.8025 -1.6109
  470MOL0     H63448   3.002   9.214   7.321  0.4176  0.2936  0.5891
  470MOL0     H63449   3.148   9.309   7.285 -0.8044  2.0526 -2.0451
  470MOL0     H63450   3.003   9.401   7.310  0.6575 -0.2436  1.4360
  471MOL0     O63451   7.401   8.258   0.775 -0.4168 -0.2621  0.4325
  471MOL0     C63452   7.438   8.159   0.840 -0.0983 -0.5640  0.4505
  471MOL0     O63453   7.481   8.048   0.787 -0.1842  0.2410 -0.0416
  471MOL0     C63454   7.497   8.040   0.651 -0.2392  0.0888 -0.6740
  471MOL0     C63455   7.438   7.935   0.589  0.3774  0.3541 -0.1637
  471MOL0     C63456   7.457   7.903   0.452 -0.3065 -0.1286  0.7998
  471MOL0     C63457   7.537   7.991   0.368 -0.0979  0.4473 -0.7023
  471MOL0     O63458   7.565   7.990   0.235  1.1496 -1.1949  0.1933
  471MOL0     C63459   7.535   7.865   0.172  0.2661  0.2640  0.0202
  471MOL0     C63460   7.583   7.865   0.026  0.1332  0.2673  0.5155
  471MOL0     C63461   7.544   7.736  -0.042  0.1337  0.0877  0.0014
  471MOL0     C63462   7.639   7.617  -0.020  0.4635  0.0803 -0.1649
  471MOL0     C63463   7.573   7.482  -0.036  0.5135  0.1675 -0.9010
  471MOL0     C63464   7.455   7.450   0.059  1.0236  0.8516 -0.6248
  471MOL0     C63465   7.492   7.482   0.209  0.1268  0.1722 -0.3560
  471MOL0     C63466   7.621   7.405   0.254 -0.0849 -0.4342 -0.6841
  471MOL0     N63467   7.641   7.424   0.396  0.2359 -0.2915  1.0419
  471MOL0     C63468   7.640   7.537   0.465  0.0420  0.2047 -0.5113
  471MOL0     C63469   7.659   7.503   0.595 -0.2897 -0.6915 -0.5732
  471MOL0     C63470   7.680   7.583   0.723  0.1798  0.2365  0.8630
  471MOL0     C63471   7.729   7.723   0.693  0.2190  0.3163 -0.1364
  471MOL0     C63472   7.824   7.776   0.797 -0.2045 -0.3613 -0.2220
  471MOL0     C63473   7.797   7.736   0.933 -0.2435 -0.2166  0.0006
  471MOL0     O63474   7.836   7.848   1.006 -0.3720 -0.3444  0.0069
  471MOL0     C63475   7.888   7.817   1.125  0.1698  0.0827  0.8439
  471MOL0     C63476   7.828   7.723   1.208  0.7010 -0.4547 -1.2717
  471MOL0     C63477   7.892   7.683   1.323 -0.2638  0.3042  0.0351
  471MOL0     C63478   8.010   7.752   1.366 -0.0412  1.2530 -0.2009
  471MOL0     C63479   8.065   7.700   1.494 -0.3001 -0.2028  0.7559
  471MOL0     O63480   8.192   7.737   1.523  0.1447 -0.4845  0.7909
  471MOL0     C63481   8.242   7.694   1.645  1.4495 -0.1416  0.0534
  471MOL0     C63482   8.240   7.558   1.699 -0.2702 -0.7566 -0.0891
  471MOL0     C63483   8.311   7.515   1.813  0.3124 -0.0385 -0.7817
  471MOL0     C63484   8.388   7.611   1.882 -0.4967  0.0913  0.8432
  471MOL0     O63485   8.460   7.575   1.993  0.2519 -0.1981 -0.7228
  471MOL0     C63486   8.575   7.635   2.036  0.3399 -0.1401 -0.9424
  471MOL0     C63487   8.641   7.524   2.123 -0.4962 -0.4459 -0.4054
  471MOL0     C63488   8.568   7.507   2.255  0.1314  0.2584  0.1075
  471MOL0     C63489   8.621   7.389   2.329  0.1475  0.1533 -0.5917
  471MOL0     C63490   8.631   7.386   2.484  0.7211 -0.4036  0.5169
  471MOL0     C63491   8.524   7.457   2.554 -0.2467  0.5015 -0.3665
  471MOL0     C63492   8.534   7.425   2.703 -0.2867  0.7555  0.2575
  471MOL0     C63493   8.446   7.517   2.800  0.5271 -0.7296 -0.4031
  471MOL0    Cl63494   8.484   7.693   2.779 -0.0654 -0.0031  0.0313
  471MOL0     C63495   8.390   7.741   1.831  0.6060  0.0550  0.8276
  471MOL0     C63496   8.319   7.780   1.721  1.1351 -0.0486  0.4583
  471MOL0     O63497   7.988   7.643   1.575 -1.1139  0.1354 -0.1021
  471MOL0     C63498   8.060   7.855   1.296  0.7183 -0.1691  0.0051
  471MOL0     C63499   8.001   7.886   1.172  0.3169  0.2415 -0.3588
  471MOL0     N63500   7.694   7.371   0.598 -1.1095 -0.3289 -1.0773
  471MOL0     N63501   7.687   7.326   0.481  0.3484  0.4104  0.3949
  471MOL0     C63502   7.594   8.099   0.432 -0.3365 -0.0398  0.2308
  471MOL0     C63503   7.566   8.124   0.571 -0.1599 -0.3343  0.6127
  471MOL0     C63504   7.470   8.176   0.979  0.4206  0.4975 -0.1799
  471MOL0     C63505   7.549   8.078   1.035  0.6426  1.5036 -0.3186
  471MOL0     C63506   7.607   8.092   1.158  0.4106  0.6367  0.2362
  471MOL0     C63507   7.577   8.192   1.244  0.1428 -0.5355  0.7375
  471MOL0     O63508   7.636   8.191   1.364  0.3065  0.0297  0.4090
  471MOL0     C63509   7.623   8.301   1.457 -1.5201  0.2326  1.0704
  471MOL0     C63510   7.696   8.428   1.413 -1.2162  0.1282  1.1051
  471MOL0     C63511   7.643   8.546   1.494  0.8104 -0.5096  0.1727
  471MOL0     C63512   7.688   8.678   1.421  1.7087 -0.4686 -0.1007
  471MOL0     C63513   7.602   8.798   1.461  0.7980 -0.3113 -0.5590
  471MOL0     C63514   7.512   8.865   1.506  0.8053 -1.0592 -0.2780
  471MOL0     C63515   7.487   8.291   1.191  0.8879 -0.4525  0.3584
  471MOL0     C63516   7.429   8.282   1.064  0.2849  0.0937  0.4418
  471MOL0     C63517   7.308   8.372   1.038  0.2494  0.5078 -0.0650
  471MOL0     H63518   7.366   7.878   0.648 -2.1931  0.1078 -3.2567
  471MOL0     H63519   7.418   7.811   0.409  1.1374  0.3601 -1.8291
  471MOL0     H63520   7.596   7.791   0.225 -0.2437 -1.2635 -1.4039
  471MOL0     H63521   7.431   7.831   0.166 -0.0703  1.2923 -0.0636
  471MOL0     H63522   7.692   7.863   0.037  0.2478  1.4975 -0.1895
  471MOL0     H63523   7.543   7.951  -0.028 -1.1067 -0.6063  0.0049
  471MOL0     H63524   7.552   7.760  -0.148 -0.6616  0.8067  0.0870
  471MOL0     H63525   7.439   7.713  -0.019 -0.6604  0.4038 -2.9650
  471MOL0     H63526   7.713   7.638  -0.098 -1.3626 -0.2646 -2.0674
  471MOL0     H63527   7.706   7.612   0.066 -0.3307  0.2127  0.4718
  471MOL0     H63528   7.537   7.498  -0.138  1.2729  1.0107 -1.0509
  471MOL0     H63529   7.643   7.397  -0.033 -0.3685 -0.5804  2.1944
  471MOL0     H63530   7.358   7.494   0.034  1.2345  0.8934 -1.3982
  471MOL0     H63531   7.443   7.342   0.052  1.7829  0.1552  4.9214
  471MOL0     H63532   7.408   7.448   0.271 -0.4461  2.7529  0.3974
  471MOL0     H63533   7.492   7.590   0.222  0.8397 -0.0146  1.5571
  471MOL0     H63534   7.609   7.298   0.235  2.0735 -0.8271 -0.0889
  471MOL0     H63535   7.704   7.428   0.187 -0.8875 -0.6749 -1.7882
  471MOL0     H63536   7.633   7.638   0.425 -3.5043  0.1591 -0.2754
  471MOL0     H63537   7.582   7.579   0.772  0.4264 -0.4067  1.3169
  471MOL0     H63538   7.745   7.527   0.792 -3.4970 -0.1130  4.4149
  471MOL0     H63539   7.776   7.730   0.595  1.6893 -2.0993  0.3016
  471MOL0     H63540   7.647   7.796   0.699 -0.7814 -0.8491  3.7315
  471MOL0     H63541   7.814   7.885   0.791  1.7978 -0.1411 -0.3543
  471MOL0     H63542   7.931   7.754   0.790 -0.2903 -1.3024  1.0868
  471MOL0     H63543   7.855   7.646   0.956  3.5369  0.9932 -3.5434
  471MOL0     H63544   7.690   7.726   0.951 -0.1447  2.3695  2.8587
  471MOL0     H63545   7.741   7.668   1.176 -1.5477  2.4627 -0.5780
  471MOL0     H63546   7.839   7.606   1.379  0.8772 -1.5087 -1.2839
  471MOL0     H63547   8.186   7.489   1.635  1.1377  0.9532 -3.3668
  471MOL0     H63548   8.301   7.411   1.843 -1.5719  0.3968  0.2438
  471MOL0     H63549   8.640   7.650   1.949  0.0510 -1.6842 -1.4543
  471MOL0     H63550   8.559   7.732   2.085 -1.0716 -2.1197  2.8787
  471MOL0     H63551   8.654   7.434   2.063  1.0496  0.4650 -1.5048
  471MOL0     H63552   8.735   7.574   2.148  0.2883 -0.5001 -2.9708
  471MOL0     H63553   8.575   7.596   2.319  1.8601  0.5534 -0.4402
  471MOL0     H63554   8.460   7.496   2.240 -0.8999  1.8981  4.5047
  471MOL0     H63555   8.722   7.361   2.299  1.5704  0.1874  3.5426
  471MOL0     H63556   8.563   7.307   2.286  2.0637 -0.0256 -3.0635
  471MOL0     H63557   8.732   7.413   2.515  0.9184  0.4625 -0.7952
  471MOL0     H63558   8.625   7.280   2.510 -0.1238 -0.2801  0.8525
  471MOL0     H63559   8.529   7.564   2.529  1.9137  0.4933 -0.1681
  471MOL0     H63560   8.432   7.416   2.511 -0.2056  2.1922 -2.2289
  471MOL0     H63561   8.641   7.419   2.725 -0.1234 -1.8000 -0.8527
  471MOL0     H63562   8.495   7.323   2.708  2.1733 -0.3718 -1.3861
  471MOL0     H63563   8.338   7.508   2.787  0.7031 -2.5081 -0.9146
  471MOL0     H63564   8.466   7.477   2.900 -2.1159 -0.0714  0.4588
  471MOL0     H63565   8.438   7.826   1.877 -1.6301  2.7738 -1.4570
  471MOL0     H63566   8.319   7.886   1.698 -0.2264  0.4719  2.5173
  471MOL0     H63567   8.137   7.918   1.340 -0.9818  1.3422  0.9395
  471MOL0     H63568   8.029   7.968   1.107  0.5884 -0.7498 -1.5373
  471MOL0     H63569   7.653   8.168   0.373  1.6734 -1.5422  0.3677
  471MOL0     H63570   7.620   8.210   0.610  1.6310 -0.8391 -0.6151
  471MOL0     H63571   7.586   7.991   0.981  1.2331  2.1613 -1.0105
  471MOL0     H63572   7.675   8.016   1.196  1.6751  1.3425 -0.5209
  471MOL0     H63573   7.657   8.269   1.556 -0.2193 -2.3112 -0.1101
  471MOL0     H63574   7.515   8.311   1.467 -1.6293  0.6491 -0.3848
  471MOL0     H63575   7.683   8.446   1.306  3.2762  1.7210  0.6028
  471MOL0     H63576   7.806   8.431   1.415 -1.2065 -0.0897  0.9082
  471MOL0     H63577   7.679   8.559   1.597 -1.3750  2.1852  0.6809
  471MOL0     H63578   7.534   8.540   1.495  0.6716  1.2467  2.0033
  471MOL0     H63579   7.790   8.700   1.453  1.1149 -0.6010  2.0488
  471MOL0     H63580   7.680   8.677   1.312 -0.5808  0.6624 -0.0200
  471MOL0     H63581   7.443   8.927   1.559 -1.9689 -4.1927  0.0825
  471MOL0     H63582   7.465   8.373   1.259  2.1005 -0.5693  0.8972
  471MOL0     H63583   7.333   8.457   0.973 -1.7022 -0.9904 -2.9488
  471MOL0     H63584   7.246   8.313   0.971  1.5609 -1.8427  0.6972
  471MOL0     H63585   7.245   8.400   1.123 -1.7223 -1.7942 -0.6903
  472MOL0     O63586   2.872   3.423   6.834  0.3438 -0.9006 -0.1458
  472MOL0     C63587   2.915   3.312   6.808 -0.6018 -0.1120  0.6002
  472MOL0     O63588   3.044   3.289   6.784 -0.6388 -0.2140  0.3976
  472MOL0     C63589   3.158   3.365   6.811 -0.7557 -0.0043 -0.0463
  472MOL0     C63590   3.281   3.327   6.761  0.1668  0.0507 -0.4989
  472MOL0     C63591   3.392   3.404   6.791  0.5872 -0.2223 -0.5815
  472MOL0     C63592   3.387   3.514   6.876 -0.0928  0.1952  0.0165
  472MOL0     O63593   3.508   3.577   6.886  0.9858  0.4841  0.4521
  472MOL0     C63594   3.518   3.716   6.900  0.5952 -0.3603  0.1589
  472MOL0     C63595   3.493   3.773   6.751  0.0284 -0.0082  0.1358
  472MOL0     C63596   3.538   3.924   6.751  0.2735 -0.4837 -0.1260
  472MOL0     C63597   3.547   3.979   6.615  0.2124  0.3987 -0.2987
  472MOL0     C63598   3.593   4.128   6.619 -0.5176 -0.0176 -0.3418
  472MOL0     C63599   3.743   4.150   6.654 -0.2670 -0.2538  0.2413
  472MOL0     C63600   3.780   4.299   6.635  0.0439  0.7204 -0.2242
  472MOL0     C63601   3.928   4.323   6.685  0.0466 -0.0909  1.1129
  472MOL0     N63602   3.937   4.371   6.823  0.7088 -0.6492  0.1534
  472MOL0     C63603   3.943   4.506   6.851  0.5855  0.1572 -0.3249
  472MOL0     C63604   3.933   4.508   6.988  0.3602 -0.2518 -0.1545
  472MOL0     C63605   3.916   4.617   7.086  0.7058  0.3171  0.0700
  472MOL0     C63606   3.898   4.749   7.016 -0.2748 -0.0523 -0.4361
  472MOL0     C63607   3.869   4.863   7.107  0.5255  0.2481  0.2321
  472MOL0     C63608   3.859   4.997   7.027 -0.3165 -0.2826 -0.0595
  472MOL0     O63609   3.968   5.029   6.938 -0.2829  0.6339  0.4401
  472MOL0     C63610   4.084   5.093   6.976 -0.1962  0.7762 -0.1501
  472MOL0     C63611   4.118   5.100   7.115  0.2246 -0.5890 -0.1490
  472MOL0     C63612   4.225   5.187   7.151 -0.9707 -0.5701 -0.3991
  472MOL0     C63613   4.318   5.236   7.055 -0.1250 -1.3123  0.0435
  472MOL0     C63614   4.417   5.339   7.092  0.1944  0.3421 -0.4862
  472MOL0     O63615   4.526   5.336   7.016  0.5326 -0.4280  0.5401
  472MOL0     C63616   4.597   5.455   7.017  0.0514  0.3070  1.1346
  472MOL0     C63617   4.531   5.579   6.999 -0.3905  0.0923  0.7240
  472MOL0     C63618   4.596   5.700   7.008 -0.0398 -0.0758 -0.3122
  472MOL0     C63619   4.731   5.703   7.050 -0.1095 -0.4510 -0.2092
  472MOL0     O63620   4.806   5.812   7.067 -0.5645 -0.0012  0.0554
  472MOL0     C63621   4.760   5.948   7.080 -1.0214  0.2120  0.5024
  472MOL0     C63622   4.846   6.049   6.990 -0.7794  0.4744 -0.2530
  472MOL0     C63623   4.820   6.201   7.013  0.0447  0.7808 -0.2341
  472MOL0     C63624   4.898   6.259   7.133  0.0200 -0.6434 -0.2774
  472MOL0     C63625   4.843   6.399   7.161  0.1702  0.9269 -0.1759
  472MOL0     C63626   4.928   6.485   7.255 -0.3936 -0.3330  0.3184
  472MOL0     C63627   4.872   6.625   7.246 -0.3820 -0.1670  0.2849
  472MOL0     C63628   4.944   6.739   7.327 -0.4208  0.5228  0.1979
  472MOL0    Cl63629   4.903   6.907   7.260  0.6184  0.3059 -0.0351
  472MOL0     C63630   4.794   5.581   7.085  0.7186 -0.3961  1.0567
  472MOL0     C63631   4.730   5.461   7.063  0.7961 -0.2439  0.0316
  472MOL0     O63632   4.400   5.412   7.188 -0.2846 -0.0774 -0.0982
  472MOL0     C63633   4.298   5.202   6.918 -0.0868  0.2177 -0.4993
  472MOL0     C63634   4.178   5.129   6.884 -0.2883  0.6166  0.1842
  472MOL0     N63635   3.917   4.376   7.036 -0.6741 -0.3862  0.5776
  472MOL0     N63636   3.927   4.299   6.936  0.1434 -0.0534  0.3580
  472MOL0     C63637   3.267   3.537   6.939 -0.3162 -0.1608 -0.3051
  472MOL0     C63638   3.154   3.473   6.898 -0.1530  0.4381  0.3765
  472MOL0     C63639   2.820   3.194   6.798 -0.4547 -0.4288 -0.0240
  472MOL0     C63640   2.864   3.084   6.725  0.3616  0.2037 -0.2994
  472MOL0     C63641   2.769   2.982   6.701 -1.0384  0.2291 -0.2855
  472MOL0     C63642   2.633   2.985   6.739  0.4046 -0.4173  0.8500
  472MOL0     O63643   2.550   2.874   6.709  0.7160  0.7557 -0.1071
  472MOL0     C63644   2.414   2.885   6.761 -0.3420 -0.6643 -0.5256
  472MOL0     C63645   2.325   2.763   6.714 -0.2592 -0.5137  0.1111
  472MOL0     C63646   2.188   2.754   6.769  0.4267  0.4771  0.1062
  472MOL0     C63647   2.087   2.868   6.715 -0.2771 -0.4421  0.1201
  472MOL0     C63648   1.945   2.841   6.721 -0.2456  0.8785  0.7930
  472MOL0     C63649   1.824   2.817   6.737 -0.4117  1.0032 -0.1323
  472MOL0     C63650   2.600   3.099   6.814  0.2295 -0.2365  0.8227
  472MOL0     C63651   2.689   3.204   6.848 -0.2167  0.6161  0.5195
  472MOL0     C63652   2.626   3.307   6.950 -0.9392 -0.9243 -0.2315
  472MOL0     H63653   3.284   3.240   6.696  0.1636  0.2427 -0.7604
  472MOL0     H63654   3.491   3.380   6.752  0.0809 -3.4877 -0.1161
  472MOL0     H63655   3.454   3.759   6.978  1.3566 -0.1113  0.6558
  472MOL0     H63656   3.622   3.741   6.918  0.7750 -1.4584  0.7270
  472MOL0     H63657   3.388   3.757   6.728 -0.6906  1.1578  2.2681
  472MOL0     H63658   3.557   3.711   6.688 -0.5199 -1.0026  0.5309
  472MOL0     H63659   3.630   3.943   6.806  0.1821 -1.8012  0.5189
  472MOL0     H63660   3.455   3.969   6.806  0.2180  4.4082 -3.6120
  472MOL0     H63661   3.627   3.922   6.568 -0.7437 -1.7458  0.5468
  472MOL0     H63662   3.447   3.979   6.570 -1.2333  1.6089  2.5669
  472MOL0     H63663   3.561   4.170   6.523 -2.3230 -0.4294  0.0463
  472MOL0     H63664   3.527   4.184   6.685 -0.7584  2.7532 -2.7418
  472MOL0     H63665   3.761   4.128   6.760  0.8435  2.0932  0.6096
  472MOL0     H63666   3.803   4.089   6.586  1.3507  0.3381  1.0856
  472MOL0     H63667   3.713   4.371   6.682 -1.1766  0.6821 -1.7941
  472MOL0     H63668   3.780   4.310   6.526  1.6883  0.7428 -0.2380
  472MOL0     H63669   3.979   4.227   6.695 -0.7245 -1.0934 -2.8177
  472MOL0     H63670   3.980   4.381   6.608 -0.3802 -0.3313  0.6391
  472MOL0     H63671   3.938   4.587   6.780 -0.0840 -0.8022 -1.4195
  472MOL0     H63672   3.827   4.602   7.149 -1.5565  1.8254 -2.5450
  472MOL0     H63673   3.995   4.636   7.159 -1.2323  2.6210  1.7597
  472MOL0     H63674   3.991   4.765   6.959  1.9786 -1.7067  2.4850
  472MOL0     H63675   3.816   4.739   6.944 -2.2051  0.4093  1.6035
  472MOL0     H63676   3.950   4.862   7.180  1.9895  0.9925 -1.3057
  472MOL0     H63677   3.773   4.858   7.159  0.4240  2.8709  0.4258
  472MOL0     H63678   3.829   5.077   7.096  1.7739  1.9020 -1.5129
  472MOL0     H63679   3.773   5.001   6.960  0.2771 -1.2210 -0.9086
  472MOL0     H63680   4.065   5.060   7.201  3.4878  1.2196  2.9857
  472MOL0     H63681   4.245   5.214   7.254 -2.7821 -0.0101 -0.1513
  472MOL0     H63682   4.425   5.573   6.979 -0.6277  0.7967  1.7184
  472MOL0     H63683   4.545   5.792   6.981  1.7823  0.1436 -3.5430
  472MOL0     H63684   4.653   5.949   7.056 -0.3675  0.2774 -2.9503
  472MOL0     H63685   4.781   5.974   7.184  1.0524  1.7427 -0.2191
  472MOL0     H63686   4.953   6.028   6.987 -0.2408  3.0326 -1.4472
  472MOL0     H63687   4.813   6.037   6.886 -2.4101  0.9587  0.1753
  472MOL0     H63688   4.860   6.253   6.925  0.7401  0.2947 -0.2189
  472MOL0     H63689   4.712   6.215   7.018  0.1446  2.0415 -1.1697
  472MOL0     H63690   5.002   6.281   7.104 -0.2809  2.7651  0.7953
  472MOL0     H63691   4.895   6.196   7.222  3.8712  0.4780  0.8677
  472MOL0     H63692   4.739   6.390   7.195  0.0577 -0.1717 -0.7517
  472MOL0     H63693   4.839   6.448   7.063 -1.9626 -2.7360 -2.1606
  472MOL0     H63694   4.905   6.429   7.347 -0.3395 -2.1957 -0.7439
  472MOL0     H63695   5.033   6.479   7.224 -0.9640  1.2117 -2.1349
  472MOL0     H63696   4.765   6.629   7.265 -0.4534  2.3663 -0.3368
  472MOL0     H63697   4.889   6.658   7.143  0.8027  0.8053  0.7621
  472MOL0     H63698   4.919   6.746   7.433 -0.3990  5.0663  0.0595
  472MOL0     H63699   5.051   6.735   7.305 -0.8596  0.1882 -2.2485
  472MOL0     H63700   4.891   5.600   7.130  0.0170  2.2784  1.5784
  472MOL0     H63701   4.796   5.377   7.085  0.3060 -0.1169  2.2945
  472MOL0     H63702   4.372   5.218   6.841 -1.8477  1.1480 -2.0921
  472MOL0     H63703   4.164   5.102   6.780 -0.1069  1.7546 -0.1548
  472MOL0     H63704   3.256   3.614   7.015 -2.8476 -0.5220 -0.2409
  472MOL0     H63705   3.060   3.509   6.940 -0.5168  1.1770 -0.9925
  472MOL0     H63706   2.969   3.084   6.698  0.3764  0.2393 -0.2438
  472MOL0     H63707   2.804   2.899   6.640 -1.0986 -0.3476  0.4539
  472MOL0     H63708   2.360   2.968   6.716 -0.9820  0.7763  2.6555
  472MOL0     H63709   2.411   2.881   6.870 -0.4492  2.5457 -0.3211
  472MOL0     H63710   2.378   2.674   6.750  0.0897 -0.9840 -1.4861
  472MOL0     H63711   2.330   2.767   6.605 -0.6334  0.4388  0.1239
  472MOL0     H63712   2.210   2.752   6.876  4.1986 -3.7311 -0.4094
  472MOL0     H63713   2.142   2.663   6.728 -0.8150  2.1776 -2.5113
  472MOL0     H63714   2.104   2.963   6.768  0.1884  0.4722 -1.6035
  472MOL0     H63715   2.123   2.887   6.614  1.4916 -1.2952  0.5394
  472MOL0     H63716   1.719   2.811   6.756 -0.8591  1.2477 -2.2154
  472MOL0     H63717   2.500   3.108   6.855  1.0682  0.4002  2.8261
  472MOL0     H63718   2.697   3.329   7.030 -2.1104 -1.8372  1.1204
  472MOL0     H63719   2.612   3.401   6.897  5.2231 -2.2256 -5.3550
  472MOL0     H63720   2.538   3.263   6.998  1.3934 -3.8375  1.7163
  473MOL0     O63721   6.069   2.294   2.965 -0.9514  0.2309  0.2570
  473MOL0     C63722   6.079   2.243   3.080 -0.0477  0.8349  0.0495
  473MOL0     O63723   6.105   2.110   3.113  0.2732 -0.4787 -0.0728
  473MOL0     C63724   6.130   2.026   3.009  0.2103  0.5630  0.0383
  473MOL0     C63725   6.259   1.982   2.963 -0.3270  0.1943 -0.0383
  473MOL0     C63726   6.268   1.918   2.840  0.2582  1.3356  0.8763
  473MOL0     C63727   6.157   1.888   2.759  0.5861  0.6317  0.3385
  473MOL0     O63728   6.150   1.843   2.630 -0.6162 -0.1004 -0.2815
  473MOL0     C63729   6.270   1.802   2.558  1.1138  0.3879 -0.1658
  473MOL0     C63730   6.227   1.727   2.431 -0.1915 -0.1758 -0.2155
  473MOL0     C63731   6.179   1.833   2.333 -0.7708 -0.9742  1.3341
  473MOL0     C63732   6.155   1.765   2.195  0.3692  0.5226 -0.2371
  473MOL0     C63733   6.085   1.856   2.087  0.4754 -0.2990  0.7523
  473MOL0     C63734   6.054   1.780   1.964  0.0401 -0.2944  0.1266
  473MOL0     C63735   6.035   1.859   1.843 -0.0126 -0.7154  0.0939
  473MOL0     C63736   6.032   1.777   1.712 -1.0014 -0.7524  0.1992
  473MOL0     N63737   5.985   1.852   1.597  0.1402 -0.5745  0.8384
  473MOL0     C63738   5.927   1.801   1.478  0.0487  0.7695 -0.7845
  473MOL0     C63739   5.910   1.902   1.393  0.3360  0.5935 -0.0081
  473MOL0     C63740   5.872   1.907   1.242  0.5089  0.2884 -0.0809
  473MOL0     C63741   5.794   2.030   1.190 -0.3519 -0.1683 -0.1246
  473MOL0     C63742   5.749   2.024   1.049  0.1452 -0.1819  0.6496
  473MOL0     C63743   5.863   2.002   0.955  0.1949  0.7291  0.3319
  473MOL0     O63744   5.959   2.102   0.942 -0.5106  0.2474 -0.1433
  473MOL0     C63745   6.073   2.060   0.881  0.1194 -0.3937  1.3303
  473MOL0     C63746   6.192   2.132   0.897  0.7123 -1.0551  0.1518
  473MOL0     C63747   6.304   2.093   0.824  0.0695  1.1800  0.6097
  473MOL0     C63748   6.295   2.002   0.722  0.0500  0.5726 -0.4699
  473MOL0     C63749   6.413   1.950   0.643 -0.1831 -0.0831 -0.5051
  473MOL0     O63750   6.400   1.924   0.508  0.1184 -0.1043 -0.3842
  473MOL0     C63751   6.508   1.881   0.431  0.0565 -0.2322  0.0485
  473MOL0     C63752   6.504   1.749   0.381  0.2176 -0.0418  0.2410
  473MOL0     C63753   6.610   1.703   0.307  0.7729  0.1137 -0.1477
  473MOL0     C63754   6.716   1.794   0.271 -0.6385  0.0367 -0.4870
  473MOL0     O63755   6.825   1.754   0.200 -0.5125 -0.3608 -0.2348
  473MOL0     C63756   6.819   1.653   0.104  0.4467 -0.5649  0.8392
  473MOL0     C63757   6.911   1.689  -0.007 -0.2824  0.0768 -0.3964
  473MOL0     C63758   7.052   1.629   0.002  0.0591  0.1818 -0.8160
  473MOL0     C63759   7.156   1.704  -0.081  1.1798 -1.1322 -0.0594
  473MOL0     C63760   7.297   1.649  -0.011  0.5788 -0.1160 -0.1045
  473MOL0     C63761   7.412   1.735  -0.074  0.6116 -0.3317  0.1648
  473MOL0     C63762   7.548   1.662  -0.047  0.0655 -0.3241 -0.6552
  473MOL0     C63763   7.669   1.758  -0.009 -0.1208  0.7646  0.9968
  473MOL0    Cl63764   7.730   1.715   0.152 -0.1881 -0.6537  0.2979
  473MOL0     C63765   6.721   1.922   0.331  0.3830  0.7193  0.2105
  473MOL0     C63766   6.613   1.971   0.404  0.1321 -0.6988  0.2155
  473MOL0     O63767   6.516   1.940   0.711  0.3756  0.3278 -0.1166
  473MOL0     C63768   6.171   1.944   0.691  0.4177 -0.5678 -0.1700
  473MOL0     C63769   6.062   1.976   0.768 -0.2285  0.6890  0.3147
  473MOL0     N63770   5.960   2.017   1.454  0.2244 -0.8599  0.9622
  473MOL0     N63771   6.004   1.983   1.572  0.4490 -0.7235 -0.2154
  473MOL0     C63772   6.035   1.930   2.810 -0.6536  0.3425  0.4115
  473MOL0     C63773   6.020   1.988   2.933  0.4078 -0.1322 -0.1480
  473MOL0     C63774   6.078   2.329   3.199 -0.3812  0.2670 -0.7718
  473MOL0     C63775   6.125   2.290   3.326 -0.3516 -0.3108  0.8318
  473MOL0     C63776   6.137   2.368   3.431 -0.1414 -0.6239 -0.1875
  473MOL0     C63777   6.081   2.503   3.421  1.0083  0.4392  0.2285
  473MOL0     O63778   6.088   2.593   3.520  0.9832 -0.2248 -1.0938
  473MOL0     C63779   6.101   2.537   3.648  0.8953  0.3757  0.1113
  473MOL0     C63780   6.058   2.636   3.766 -0.5255  0.9728  0.1532
  473MOL0     C63781   6.148   2.752   3.766 -0.5299 -0.3097  0.0751
  473MOL0     C63782   6.305   2.721   3.767  0.1202  0.1976  1.2256
  473MOL0     C63783   6.359   2.808   3.874  1.2079 -0.3598  0.5329
  473MOL0     C63784   6.412   2.873   3.962  0.1765  0.1848 -0.0678
  473MOL0     C63785   6.030   2.548   3.305  0.5312  0.0678 -0.3259
  473MOL0     C63786   6.023   2.460   3.195 -1.1465  0.5203  0.3122
  473MOL0     C63787   5.946   2.517   3.075  1.0757  0.4371 -0.0261
  473MOL0     H63788   6.349   2.002   3.021 -1.4166  0.1649  1.7566
  473MOL0     H63789   6.360   1.867   2.812  0.9802  2.0108  1.9674
  473MOL0     H63790   6.337   1.886   2.534  2.8746 -0.6475  0.9057
  473MOL0     H63791   6.327   1.744   2.631 -0.6477 -0.6233  0.4577
  473MOL0     H63792   6.142   1.663   2.455 -0.2666  0.2270  0.6300
  473MOL0     H63793   6.302   1.662   2.384 -0.1549  1.1824 -2.2076
  473MOL0     H63794   6.265   1.897   2.310 -1.1484 -0.9349 -0.0506
  473MOL0     H63795   6.085   1.878   2.365 -1.1154 -0.5493 -0.1966
  473MOL0     H63796   6.244   1.715   2.157  0.3753  0.6600 -0.4090
  473MOL0     H63797   6.095   1.679   2.225  0.8592  0.7362  1.4946
  473MOL0     H63798   5.988   1.898   2.116  0.4732  0.4037 -0.2297
  473MOL0     H63799   6.139   1.950   2.074 -1.8611  1.2747  1.7057
  473MOL0     H63800   6.121   1.705   1.921  1.1229  1.6934 -1.8720
  473MOL0     H63801   5.967   1.716   1.982  0.3597 -0.3393  1.6678
  473MOL0     H63802   6.114   1.934   1.837 -0.2901 -0.4228  0.1047
  473MOL0     H63803   5.935   1.902   1.846  0.3376  0.1018  0.3684
  473MOL0     H63804   6.135   1.751   1.687 -1.9102 -2.3933 -2.1399
  473MOL0     H63805   5.981   1.682   1.727 -1.5749 -0.4895 -0.0761
  473MOL0     H63806   5.894   1.700   1.459 -0.4340  0.8034 -0.1303
  473MOL0     H63807   5.966   1.889   1.189  2.0812 -0.1332  2.6567
  473MOL0     H63808   5.806   1.825   1.210 -0.3688  0.5597  0.9990
  473MOL0     H63809   5.712   2.035   1.262 -0.1812  0.3776  0.0364
  473MOL0     H63810   5.850   2.122   1.206 -0.5447 -0.3867  2.0073
  473MOL0     H63811   5.693   2.117   1.036  2.4271  1.1238 -0.2267
  473MOL0     H63812   5.681   1.939   1.039  0.6841 -0.6440  0.8748
  473MOL0     H63813   5.804   2.001   0.862  0.0947  2.3955  0.3389
  473MOL0     H63814   5.910   1.908   0.982  0.6165  1.3008  1.6651
  473MOL0     H63815   6.204   2.212   0.969  0.1201 -0.2380 -0.6386
  473MOL0     H63816   6.407   2.124   0.838  1.0195 -1.8911  1.0632
  473MOL0     H63817   6.420   1.685   0.403  0.4718 -1.3766 -2.3216
  473MOL0     H63818   6.612   1.597   0.280  4.6782 -0.9498  3.3397
  473MOL0     H63819   6.859   1.559   0.144  4.3683  0.3448 -0.4593
  473MOL0     H63820   6.717   1.645   0.064  1.2324  1.1198 -1.7781
  473MOL0     H63821   6.863   1.692  -0.105 -0.7626  3.5127 -0.1910
  473MOL0     H63822   6.928   1.796   0.010 -1.6043 -0.1633  3.4675
  473MOL0     H63823   7.084   1.648   0.104  3.8408  1.8243 -2.1363
  473MOL0     H63824   7.047   1.522  -0.019  0.0240 -0.2475  1.2092
  473MOL0     H63825   7.147   1.810  -0.056 -2.6951 -1.5330  1.0171
  473MOL0     H63826   7.148   1.678  -0.187  0.4083 -0.6611 -0.1256
  473MOL0     H63827   7.307   1.540  -0.021  0.3876 -0.0251 -1.5972
  473MOL0     H63828   7.300   1.660   0.097 -3.8008  2.3355 -0.0006
  473MOL0     H63829   7.411   1.759  -0.180  1.4314  0.0478  0.2393
  473MOL0     H63830   7.401   1.834  -0.028 -2.9741 -0.7473  0.4997
  473MOL0     H63831   7.574   1.608  -0.138 -1.8907 -1.0761 -0.8084
  473MOL0     H63832   7.540   1.586   0.031  1.1796  1.5079  1.3489
  473MOL0     H63833   7.748   1.744  -0.084 -1.3982  0.8953 -0.4172
  473MOL0     H63834   7.640   1.863  -0.015 -1.8426  0.2320 -1.6197
  473MOL0     H63835   6.806   1.980   0.297  0.1536  1.9241  1.5629
  473MOL0     H63836   6.599   2.076   0.428  4.0392 -0.4676  2.2854
  473MOL0     H63837   6.142   1.874   0.614 -3.3129 -1.7720  2.0716
  473MOL0     H63838   5.976   1.916   0.739 -1.2275  2.6710 -1.0189
  473MOL0     H63839   5.959   1.887   2.746 -1.0604 -1.8808  2.2534
  473MOL0     H63840   5.918   2.018   2.955  0.0464  0.3995 -2.3186
  473MOL0     H63841   6.174   2.193   3.318  3.9827  1.7727 -1.5632
  473MOL0     H63842   6.196   2.332   3.515  1.5065  2.6381  0.2467
  473MOL0     H63843   6.198   2.494   3.675  0.9704  2.5603  4.2259
  473MOL0     H63844   6.033   2.452   3.656  2.3460 -0.7811  0.4311
  473MOL0     H63845   6.079   2.585   3.860  0.2741  0.2300 -0.4114
  473MOL0     H63846   5.951   2.658   3.759 -1.0012 -1.3817 -0.7143
  473MOL0     H63847   6.115   2.827   3.839  0.6518 -0.2083  0.5221
  473MOL0     H63848   6.135   2.804   3.671 -2.7258  1.0818  1.0636
  473MOL0     H63849   6.327   2.619   3.799 -0.8091  0.5555  3.1622
  473MOL0     H63850   6.360   2.738   3.674 -0.0680 -1.2237  0.8216
  473MOL0     H63851   6.468   2.920   4.040 -1.8212 -4.0268  4.4426
  473MOL0     H63852   5.978   2.644   3.309 -1.0668 -0.4657 -4.4692
  473MOL0     H63853   5.871   2.598   3.082 -1.9046 -1.6117 -4.1492
  473MOL0     H63854   6.027   2.558   3.015  1.2445 -1.7774 -1.4117
  473MOL0     H63855   5.896   2.434   3.025 -0.8789  0.3242  1.9302
  474MOL0     O63856  10.533   7.692  11.321  0.6223  0.9115 -0.3391
  474MOL0     C63857  10.530   7.568  11.353 -0.3263  0.4062 -0.8895
  474MOL0     O63858  10.629   7.500  11.420  0.5450 -0.0433 -0.2759
  474MOL0     C63859  10.726   7.575  11.488  0.1713  0.3798  0.4665
  474MOL0     C63860  10.844   7.508  11.523 -0.2357 -0.7792 -0.6780
  474MOL0     C63861  10.952   7.552  11.600 -1.2260  0.0385  1.0538
  474MOL0     C63862  10.948   7.686  11.644 -0.0853  0.4250  0.6114
  474MOL0     O63863  11.027   7.755  11.733  0.5228 -0.0904  0.3969
  474MOL0     C63864  11.050   7.683  11.859 -0.6976 -0.0656  0.4772
  474MOL0     C63865  11.194   7.731  11.913 -0.7420 -0.9903 -0.5526
  474MOL0     C63866  11.309   7.637  11.876  0.0345 -0.3978 -0.5199
  474MOL0     C63867  11.440   7.678  11.952  0.1389 -0.5233  0.9809
  474MOL0     C63868  11.528   7.553  11.966  0.9477 -0.4086  0.6623
  474MOL0     C63869  11.644   7.571  12.066 -0.0291  0.0523 -0.4393
  474MOL0     C63870  11.582   7.568  12.207 -0.1444  1.9691  0.2113
  474MOL0     C63871  11.692   7.546  12.321 -0.3938  0.7171  0.4529
  474MOL0     N63872  11.638   7.524  12.457 -0.1155  0.2962 -0.3072
  474MOL0     C63873  11.711   7.505  12.573 -0.2545  0.3065  0.9635
  474MOL0     C63874  11.616   7.486  12.660  0.3991 -0.1618  0.6357
  474MOL0     C63875  11.631   7.464  12.811  0.0328  1.1740  0.4994
  474MOL0     C63876  11.670   7.597  12.881  0.5131 -0.6744  0.2525
  474MOL0     C63877  11.818   7.631  12.904 -0.5345  0.5240  0.5923
  474MOL0     C63878  11.897   7.548  13.006 -0.9557 -0.7808  0.0342
  474MOL0     O63879  12.035   7.584  12.974  0.2411  1.3146 -0.1498
  474MOL0     C63880  12.111   7.630  13.079 -0.1867 -0.3428 -0.6050
  474MOL0     C63881  12.207   7.551  13.131  0.1244 -0.1824 -0.0612
  474MOL0     C63882  12.304   7.609  13.205 -0.8878 -0.9009  0.2973
  474MOL0     C63883  12.289   7.743  13.258 -0.2195  1.2909 -0.2424
  474MOL0     C63884  12.388   7.797  13.347  0.3511  0.2009 -0.6350
  474MOL0     O63885  12.513   7.750  13.344 -0.7138  0.6356 -1.1904
  474MOL0     C63886  12.599   7.759  13.458  1.1796  0.8836  0.3559
  474MOL0     C63887  12.584   7.851  13.566 -0.8514 -0.2829  0.2321
  474MOL0     C63888  12.675   7.848  13.671  0.0742  0.2623  0.1705
  474MOL0     C63889  12.790   7.768  13.669  1.1739  0.4448  0.2275
  474MOL0     O63890  12.896   7.748  13.762 -0.3953 -0.0039  0.9312
  474MOL0     C63891  12.869   7.806  13.889  0.5210 -0.2221  0.1827
  474MOL0     C63892  12.984   7.778  13.980 -0.7291 -0.1460 -0.2335
  474MOL0     C63893  13.105   7.863  13.945 -0.1691  0.5377 -0.2041
  474MOL0     C63894  13.214   7.779  13.876  0.3214 -0.2980  0.1398
  474MOL0     C63895  13.298   7.878  13.796 -1.4683 -0.7975  0.3664
  474MOL0     C63896  13.369   7.975  13.896  0.6291 -0.2720 -0.3555
  474MOL0     C63897  13.486   8.057  13.842 -0.2343  0.0252  0.8674
  474MOL0     C63898  13.517   8.181  13.917  0.0028  0.0135  0.0223
  474MOL0    Cl63899  13.667   8.241  13.833 -0.1361 -0.1546 -0.0225
  474MOL0     C63900  12.806   7.679  13.560  0.4469  1.0995  0.6598
  474MOL0     C63901  12.712   7.668  13.461  0.0334 -0.4745 -0.2339
  474MOL0     O63902  12.349   7.898  13.411 -0.3737  0.4791  0.3968
  474MOL0     C63903  12.189   7.821  13.203  0.5033 -0.0774 -0.5075
  474MOL0     C63904  12.101   7.761  13.123 -0.0827  0.0493  0.0645
  474MOL0     N63905  11.486   7.509  12.604  0.0804  0.7158  0.0760
  474MOL0     N63906  11.507   7.517  12.478  0.9314 -0.5001 -0.6704
  474MOL0     C63907  10.835   7.760  11.607 -0.2603  0.3212 -0.4298
  474MOL0     C63908  10.729   7.715  11.526 -0.8012 -0.4821 -0.2363
  474MOL0     C63909  10.419   7.486  11.303 -0.1613 -0.0339 -0.6451
  474MOL0     C63910  10.311   7.559  11.266  0.0128 -0.1753  0.0752
  474MOL0     C63911  10.193   7.501  11.216  0.6656  0.5806  0.8889
  474MOL0     C63912  10.186   7.364  11.187 -0.8420  0.0055 -0.0888
  474MOL0     O63913  10.068   7.318  11.131  0.1442  0.2716  0.1071
  474MOL0     C63914  10.026   7.180  11.133 -1.3575  0.1093  0.1609
  474MOL0     C63915   9.878   7.190  11.144  0.4979  0.5870 -0.3141
  474MOL0     C63916   9.817   7.056  11.131 -0.2857 -0.2638 -0.4427
  474MOL0     C63917   9.675   7.059  11.055  0.0810  0.3391  0.7901
  474MOL0     C63918   9.568   7.097  11.145 -0.2132  0.3133 -0.8907
  474MOL0     C63919   9.480   7.135  11.217 -0.1628 -0.3070 -0.1707
  474MOL0     C63920  10.293   7.285  11.223  0.6005  0.0149 -0.2424
  474MOL0     C63921  10.409   7.347  11.281 -0.1376  1.0062 -0.0091
  474MOL0     C63922  10.519   7.246  11.315 -0.2910  0.8915 -0.4218
  474MOL0     H63923  10.855   7.407  11.484  1.2336 -1.3067  0.9789
  474MOL0     H63924  11.045   7.500  11.621  0.9330  1.9831 -2.7127
  474MOL0     H63925  10.969   7.702  11.929 -0.6334  0.7528  0.3425
  474MOL0     H63926  11.049   7.574  11.843  0.6554 -0.0852  0.4291
  474MOL0     H63927  11.180   7.695  12.015 -2.3394 -0.3907 -0.5230
  474MOL0     H63928  11.221   7.837  11.918  2.4463 -1.7384  3.0859
  474MOL0     H63929  11.327   7.637  11.768  2.2022  2.5633 -0.2876
  474MOL0     H63930  11.275   7.535  11.897  2.6936 -1.7721 -2.3049
  474MOL0     H63931  11.492   7.759  11.899 -2.9415 -0.4385 -2.2844
  474MOL0     H63932  11.426   7.710  12.056  2.5276  1.0260  0.9211
  474MOL0     H63933  11.468   7.472  12.009  0.2080  0.6272  1.6434
  474MOL0     H63934  11.568   7.525  11.868  2.3473  0.5261  0.9271
  474MOL0     H63935  11.704   7.480  12.055 -3.0910 -2.2907  0.6315
  474MOL0     H63936  11.697   7.665  12.054 -2.7612  1.5141 -2.2227
  474MOL0     H63937  11.516   7.481  12.214 -0.7503  2.5601  3.2499
  474MOL0     H63938  11.541   7.667  12.230 -0.6661  1.7370  0.2868
  474MOL0     H63939  11.747   7.458  12.286 -1.6342 -0.4767  1.3615
  474MOL0     H63940  11.761   7.630  12.321 -0.8303  1.0824  0.5654
  474MOL0     H63941  11.818   7.496  12.589  0.2805 -3.2786 -2.9313
  474MOL0     H63942  11.539   7.438  12.865 -0.6533  1.9448 -0.2612
  474MOL0     H63943  11.704   7.383  12.823 -1.8598 -0.4307  2.0397
  474MOL0     H63944  11.630   7.673  12.814  3.4231 -0.1580 -1.0542
  474MOL0     H63945  11.620   7.599  12.979  3.7964 -1.2798  2.1040
  474MOL0     H63946  11.840   7.736  12.923 -0.2819  0.8626 -1.4036
  474MOL0     H63947  11.861   7.600  12.809  0.0801 -2.4465  1.7077
  474MOL0     H63948  11.891   7.441  12.984 -1.4593 -0.5366 -1.0514
  474MOL0     H63949  11.864   7.578  13.106  1.3095  0.5255  0.4547
  474MOL0     H63950  12.220   7.445  13.112 -2.5823 -0.4323 -1.0311
  474MOL0     H63951  12.389   7.544  13.222 -1.5027 -1.3877  1.6500
  474MOL0     H63952  12.511   7.930  13.573 -1.3819 -0.7918  0.4638
  474MOL0     H63953  12.674   7.923  13.749  1.3263  1.3705 -0.8207
  474MOL0     H63954  12.846   7.913  13.889 -1.1268 -0.4904  2.6313
  474MOL0     H63955  12.774   7.765  13.926 -0.1544 -0.3940 -1.6575
  474MOL0     H63956  12.951   7.782  14.085 -0.2390 -1.0697 -0.0330
  474MOL0     H63957  13.013   7.672  13.978 -2.6938 -0.7286 -0.5015
  474MOL0     H63958  13.073   7.947  13.883 -1.1449 -1.3023 -2.3647
  474MOL0     H63959  13.141   7.894  14.044 -1.5421  2.0844 -0.1323
  474MOL0     H63960  13.164   7.709  13.808 -2.3737  2.8958 -1.4640
  474MOL0     H63961  13.269   7.725  13.953  0.6205 -2.7054 -1.6598
  474MOL0     H63962  13.233   7.927  13.723 -1.6141  2.5295  2.5029
  474MOL0     H63963  13.370   7.818  13.740 -0.9045  0.0299  0.1843
  474MOL0     H63964  13.293   8.041  13.939  0.3561 -0.6527 -0.2497
  474MOL0     H63965  13.407   7.913  13.979  2.2563  0.8579 -0.1986
  474MOL0     H63966  13.454   8.090  13.743  2.0869 -1.0105 -0.3047
  474MOL0     H63967  13.580   8.002  13.849  0.4199  0.6872 -1.8248
  474MOL0     H63968  13.432   8.248  13.915 -0.3093 -0.2028  2.4529
  474MOL0     H63969  13.546   8.148  14.018  2.3630 -0.4779 -0.7387
  474MOL0     H63970  12.887   7.607  13.552 -2.2982 -2.0747 -1.4058
  474MOL0     H63971  12.725   7.597  13.380 -0.9117  1.0579 -1.7997
  474MOL0     H63972  12.171   7.923  13.233  1.8999  0.0665 -0.1043
  474MOL0     H63973  12.025   7.821  13.072 -0.3297  2.3388  2.8977
  474MOL0     H63974  10.829   7.860  11.649 -0.0254 -0.1401  0.7445
  474MOL0     H63975  10.652   7.788  11.505  1.1312  2.0762  0.9653
  474MOL0     H63976  10.303   7.666  11.283  1.4477  0.3585 -2.1638
  474MOL0     H63977  10.108   7.567  11.201 -0.1737 -0.4351  1.0526
  474MOL0     H63978  10.058   7.117  11.217  0.1606  0.7319  0.0788
  474MOL0     H63979  10.068   7.141  11.040  2.2088  0.2681  1.5512
  474MOL0     H63980   9.839   7.260  11.070 -0.7611  1.6406  1.2967
  474MOL0     H63981   9.847   7.242  11.234 -2.8709  0.8358 -1.4852
  474MOL0     H63982   9.788   7.005  11.224 -3.5444  0.5386 -0.8909
  474MOL0     H63983   9.887   6.984  11.089  3.0334  2.2257  0.4234
  474MOL0     H63984   9.684   7.131  10.973  2.6176  2.5711  2.8137
  474MOL0     H63985   9.647   6.959  11.021  0.7133  0.2732  0.4426
  474MOL0     H63986   9.408   7.174  11.287  0.5126 -0.1132  0.4303
  474MOL0     H63987  10.287   7.177  11.225  2.4109 -0.1592  3.3323
  474MOL0     H63988  10.617   7.296  11.318 -1.1506  2.7213 -1.1400
  474MOL0     H63989  10.508   7.212  11.418 -0.1407 -0.3082 -0.7892
  474MOL0     H63990  10.510   7.163  11.244 -3.1984 -0.2818  1.1607
  475MOL0     O63991   1.171   4.788   5.258  0.3781 -0.5040  0.1743
  475MOL0     C63992   1.079   4.750   5.189 -0.2314  0.3530 -0.3653
  475MOL0     O63993   0.950   4.733   5.232 -0.9776  0.4982 -0.0700
  475MOL0     C63994   0.929   4.735   5.365  0.6871 -1.2355 -0.7574
  475MOL0     C63995   0.945   4.859   5.431 -0.5558 -1.0052  0.5076
  475MOL0     C63996   0.887   4.884   5.559  0.2775 -1.1382  0.1948
  475MOL0     C63997   0.816   4.784   5.623  1.2110 -1.0527  0.0949
  475MOL0     O63998   0.781   4.812   5.753 -1.7760  0.2793 -0.9415
  475MOL0     C63999   0.701   4.715   5.820  0.0261 -0.5028 -0.1041
  475MOL0     C64000   0.667   4.759   5.959  0.5118  1.0615  0.0338
  475MOL0     C64001   0.570   4.670   6.041  0.1757 -0.5310  0.5349
  475MOL0     C64002   0.577   4.515   6.014 -0.2824 -0.3769 -0.3354
  475MOL0     C64003   0.491   4.434   6.102  0.6385  1.0179 -0.0245
  475MOL0     C64004   0.520   4.275   6.091  0.3264 -0.9350 -0.4733
  475MOL0     C64005   0.416   4.182   6.160 -1.0033 -0.1679  0.1562
  475MOL0     C64006   0.444   4.029   6.129  0.3065  0.3772  0.3952
  475MOL0     N64007   0.559   3.974   6.204  0.6700 -0.0513  0.6632
  475MOL0     C64008   0.548   3.880   6.312  0.0897 -0.1666  0.3639
  475MOL0     C64009   0.678   3.859   6.350 -0.0010 -0.2842  0.9371
  475MOL0     C64010   0.722   3.760   6.450  0.5111 -0.3974  0.1681
  475MOL0     C64011   0.661   3.797   6.589  0.3931  0.4206  0.3006
  475MOL0     C64012   0.749   3.738   6.708  0.2811  1.7515  0.0369
  475MOL0     C64013   0.799   3.591   6.684 -0.0858 -0.2468  0.0142
  475MOL0     O64014   0.866   3.551   6.804  0.3523  0.1118 -0.1167
  475MOL0     C64015   0.997   3.504   6.794  0.9930  0.1954  0.6415
  475MOL0     C64016   1.083   3.542   6.883  0.6922 -0.5381  0.2566
  475MOL0     C64017   1.218   3.502   6.880  0.2731 -0.5869  0.1636
  475MOL0     C64018   1.261   3.404   6.796  0.4684 -0.4085  1.3287
  475MOL0     C64019   1.392   3.357   6.795 -0.2238  0.7590 -0.5472
  475MOL0     O64020   1.474   3.430   6.887 -0.3012  0.1907  0.0635
  475MOL0     C64021   1.602   3.397   6.878  0.0332  0.7286  0.6451
  475MOL0     C64022   1.664   3.343   6.982 -0.0087 -0.0109 -1.4595
  475MOL0     C64023   1.799   3.302   6.978 -0.6536 -0.7618  0.6229
  475MOL0     C64024   1.871   3.301   6.852  0.6456  0.5949  0.7234
  475MOL0     O64025   2.005   3.262   6.864 -0.4151  0.1204 -0.5177
  475MOL0     C64026   2.085   3.303   6.750 -0.1955  0.4639  0.2375
  475MOL0     C64027   2.240   3.273   6.763  0.3022  0.1457 -1.4066
  475MOL0     C64028   2.327   3.279   6.637  0.9352  0.1499 -0.7947
  475MOL0     C64029   2.276   3.363   6.524  0.2522 -0.6506  0.1274
  475MOL0     C64030   2.381   3.380   6.419  0.5355  0.0929  0.1532
  475MOL0     C64031   2.325   3.463   6.297  0.2938  0.5438  0.0696
  475MOL0     C64032   2.428   3.527   6.211 -0.4637  0.5714  0.4728
  475MOL0     C64033   2.356   3.595   6.091  0.6584 -0.8196  0.3699
  475MOL0    Cl64034   2.203   3.687   6.129 -0.2188  0.1416  0.5280
  475MOL0     C64035   1.802   3.362   6.741  0.4707  0.4011 -0.2331
  475MOL0     C64036   1.674   3.405   6.754  0.8689  0.5836  0.7348
  475MOL0     O64037   1.424   3.280   6.701  0.2620 -0.0479  0.7288
  475MOL0     C64038   1.156   3.350   6.704 -0.5151  0.6440 -0.6014
  475MOL0     C64039   1.031   3.405   6.697 -0.7178  0.3417  0.0823
  475MOL0     N64040   0.760   3.929   6.264  1.5248 -0.7707 -0.4471
  475MOL0     N64041   0.685   4.007   6.180  0.9094  0.3849 -0.1655
  475MOL0     C64042   0.792   4.667   5.559 -0.1281  0.2043  0.6214
  475MOL0     C64043   0.848   4.636   5.432 -0.2994  0.0317  0.6879
  475MOL0     C64044   1.091   4.729   5.042 -0.2175 -0.2375  0.0610
  475MOL0     C64045   0.975   4.713   4.966  0.3743  0.2208 -0.0777
  475MOL0     C64046   0.981   4.692   4.827  0.4956  0.4641 -0.0150
  475MOL0     C64047   1.106   4.676   4.762  0.0452 -0.3344 -0.3140
  475MOL0     O64048   1.099   4.637   4.632  0.4381 -0.2802  0.4818
  475MOL0     C64049   1.215   4.574   4.569  0.0606 -0.9376  0.1052
  475MOL0     C64050   1.153   4.472   4.468  0.2271 -0.2215  0.1036
  475MOL0     C64051   1.247   4.365   4.414 -0.8499  0.0668 -0.4486
  475MOL0     C64052   1.200   4.272   4.309  0.3760 -0.5730  0.0052
  475MOL0     C64053   1.160   4.335   4.179 -0.0327 -0.4004 -0.3292
  475MOL0     C64054   1.123   4.365   4.067  0.3870  0.0416  0.3463
  475MOL0     C64055   1.227   4.690   4.837 -0.1145  0.9823  0.2192
  475MOL0     C64056   1.222   4.711   4.977  0.3819  0.4024 -0.6141
  475MOL0     C64057   1.349   4.739   5.053  0.0153 -0.3060  0.8385
  475MOL0     H64058   1.011   4.935   5.389  1.1370 -2.1707  0.9407
  475MOL0     H64059   0.901   4.984   5.600 -1.6541 -0.2334 -1.1787
  475MOL0     H64060   0.611   4.705   5.758  0.7904 -1.6560 -1.0865
  475MOL0     H64061   0.747   4.616   5.830  2.5316  0.7059  1.1234
  475MOL0     H64062   0.624   4.859   5.952  2.0076  1.8233  1.0788
  475MOL0     H64063   0.763   4.771   6.011  0.3102 -2.5657  1.4918
  475MOL0     H64064   0.467   4.705   6.040 -0.1674 -1.5233 -0.2542
  475MOL0     H64065   0.606   4.698   6.141  4.0955 -0.8451 -0.5981
  475MOL0     H64066   0.548   4.506   5.909 -0.2776  1.4113 -0.5183
  475MOL0     H64067   0.679   4.481   6.034 -1.4685 -3.0161  2.0577
  475MOL0     H64068   0.502   4.471   6.204  2.1577  0.4252  0.0627
  475MOL0     H64069   0.388   4.460   6.076  2.0419  5.0069 -2.4364
  475MOL0     H64070   0.528   4.248   5.985  1.6186 -2.3197 -0.0589
  475MOL0     H64071   0.616   4.266   6.142 -0.1622 -2.0480  0.2983
  475MOL0     H64072   0.318   4.216   6.124 -0.2229  1.6350 -0.3274
  475MOL0     H64073   0.420   4.180   6.270  1.7038 -4.3586  0.2165
  475MOL0     H64074   0.360   3.962   6.146 -0.9071  2.2386  2.3411
  475MOL0     H64075   0.455   4.033   6.021 -0.7079  2.1971  0.3196
  475MOL0     H64076   0.454   3.841   6.348  0.6442 -2.6755 -0.6883
  475MOL0     H64077   0.683   3.666   6.409  3.0717 -1.7668  0.6836
  475MOL0     H64078   0.831   3.764   6.441  0.6640 -0.1353  1.8832
  475MOL0     H64079   0.656   3.906   6.595 -0.7423  0.3257  1.6972
  475MOL0     H64080   0.557   3.766   6.590  0.4800  0.1254  0.2919
  475MOL0     H64081   0.683   3.744   6.795 -1.5027 -1.8823 -0.8592
  475MOL0     H64082   0.832   3.807   6.728  1.9251  0.7196 -2.7266
  475MOL0     H64083   0.865   3.585   6.597  0.3908 -2.0886  0.4592
  475MOL0     H64084   0.712   3.526   6.672  0.0114 -0.9235  2.5344
  475MOL0     H64085   1.054   3.629   6.942 -3.5187 -0.7178 -1.2011
  475MOL0     H64086   1.286   3.551   6.950  1.4737 -0.5885 -0.9645
  475MOL0     H64087   1.606   3.334   7.073 -1.1866  0.1755 -2.1825
  475MOL0     H64088   1.855   3.272   7.066  0.5758 -2.1470 -0.5807
  475MOL0     H64089   2.061   3.240   6.665  0.2459  2.5034 -1.5005
  475MOL0     H64090   2.071   3.409   6.726 -1.3664  1.0028  2.9693
  475MOL0     H64091   2.277   3.327   6.850 -0.2059  1.8445 -2.1960
  475MOL0     H64092   2.236   3.171   6.800  1.5599 -0.3587 -2.5556
  475MOL0     H64093   2.429   3.312   6.657  0.3458  2.0077 -0.6248
  475MOL0     H64094   2.332   3.175   6.604 -0.1343 -0.9875  2.2912
  475MOL0     H64095   2.240   3.462   6.554 -0.6306 -1.8508  3.3954
  475MOL0     H64096   2.189   3.314   6.479 -1.8904  0.2264  3.0284
  475MOL0     H64097   2.417   3.285   6.378  1.9389  1.2894 -1.5245
  475MOL0     H64098   2.470   3.431   6.456 -0.7251  1.6795  1.1286
  475MOL0     H64099   2.265   3.400   6.230  0.6256  0.4770 -0.1653
  475MOL0     H64100   2.271   3.549   6.336  1.9377  2.2306 -1.2116
  475MOL0     H64101   2.491   3.450   6.167 -1.4248 -1.5399  2.5410
  475MOL0     H64102   2.485   3.596   6.275 -0.0036  2.4540 -1.8315
  475MOL0     H64103   2.418   3.672   6.044 -1.0275  0.4057  0.0583
  475MOL0     H64104   2.329   3.529   6.008  0.1451  1.0349 -1.0128
  475MOL0     H64105   1.852   3.384   6.648  1.2375  0.5639  0.2113
  475MOL0     H64106   1.619   3.442   6.668  3.6849 -0.8194 -1.8595
  475MOL0     H64107   1.192   3.280   6.629  0.2386  0.4407 -0.0754
  475MOL0     H64108   0.963   3.361   6.626  1.3094 -1.4436 -0.8512
  475MOL0     H64109   0.736   4.583   5.600  2.5632 -1.9373  0.1609
  475MOL0     H64110   0.828   4.538   5.392  3.0003 -1.5616  2.5345
  475MOL0     H64111   0.873   4.723   5.001 -0.6561  2.9824 -3.2517
  475MOL0     H64112   0.891   4.692   4.766  2.6445  1.6254 -3.4919
  475MOL0     H64113   1.277   4.518   4.640 -0.6481 -0.3253  1.2360
  475MOL0     H64114   1.287   4.639   4.517  0.0331 -0.2464  0.9054
  475MOL0     H64115   1.127   4.545   4.390 -2.0682  2.9591  3.4925
  475MOL0     H64116   1.063   4.425   4.507 -0.2324 -0.2392 -0.9331
  475MOL0     H64117   1.270   4.295   4.495 -0.9330  1.3785  0.7574
  475MOL0     H64118   1.342   4.410   4.385 -1.1191 -0.6748 -2.6631
  475MOL0     H64119   1.275   4.194   4.291  0.0591 -1.4631  2.2207
  475MOL0     H64120   1.110   4.233   4.359 -0.3000  3.2759  2.2106
  475MOL0     H64121   1.119   4.407   3.968  2.1640  1.5367  0.8526
  475MOL0     H64122   1.322   4.665   4.791 -0.9200  2.9500 -2.8026
  475MOL0     H64123   1.371   4.670   5.135  1.4946 -0.3967  0.4032
  475MOL0     H64124   1.441   4.743   4.993  0.2276 -1.0879  1.0913
  475MOL0     H64125   1.353   4.830   5.114 -0.6492  0.9292 -0.8700
  476MOL0     O64126   9.204   5.171   6.257 -0.1753  0.2719 -0.8054
  476MOL0     C64127   9.194   5.068   6.189  0.5047  1.0761  0.0712
  476MOL0     O64128   9.074   5.020   6.144  0.1371 -0.9065  0.9806
  476MOL0     C64129   8.962   5.074   6.196  0.5562 -0.0181 -0.2893
  476MOL0     C64130   8.894   5.008   6.297  1.2298  0.7122  0.5466
  476MOL0     C64131   8.770   5.061   6.348  0.3459 -0.1573 -0.2524
  476MOL0     C64132   8.718   5.182   6.313  0.9242 -1.2805 -0.1511
  476MOL0     O64133   8.598   5.216   6.380 -1.2939 -0.9676 -0.2620
  476MOL0     C64134   8.559   5.351   6.361 -0.5068  0.4453  0.3604
  476MOL0     C64135   8.445   5.390   6.458 -0.6537 -0.4786 -0.1944
  476MOL0     C64136   8.320   5.304   6.443 -0.1102  0.0644  0.0519
  476MOL0     C64137   8.202   5.394   6.475 -0.9839  0.2271 -0.1586
  476MOL0     C64138   8.071   5.319   6.461 -0.3071 -0.2039  0.1382
  476MOL0     C64139   8.020   5.312   6.314 -0.2918  0.4798 -1.4791
  476MOL0     C64140   7.868   5.321   6.284 -0.5927  0.2867  0.3216
  476MOL0     C64141   7.780   5.216   6.358  0.5680 -0.2373 -0.7150
  476MOL0     N64142   7.787   5.082   6.286 -0.0148  0.7432 -0.5154
  476MOL0     C64143   7.859   4.968   6.314  0.4849  0.7189  0.5239
  476MOL0     C64144   7.815   4.874   6.221 -0.4507 -0.7872 -0.1029
  476MOL0     C64145   7.830   4.730   6.192  0.4526  1.0797 -0.3146
  476MOL0     C64146   7.730   4.652   6.291  0.5719  0.0949 -0.7124
  476MOL0     C64147   7.735   4.496   6.296 -0.7098 -0.4316  0.0370
  476MOL0     C64148   7.688   4.433   6.158  0.0626  0.5312 -0.5072
  476MOL0     O64149   7.545   4.460   6.133 -0.1798  0.3549  0.2036
  476MOL0     C64150   7.446   4.414   6.228  0.1932 -0.7798  0.8237
  476MOL0     C64151   7.315   4.464   6.200 -0.3268  0.0034  0.6941
  476MOL0     C64152   7.200   4.422   6.264 -0.0960 -0.2608  0.3713
  476MOL0     C64153   7.212   4.313   6.357 -0.9961 -0.6903 -0.1026
  476MOL0     C64154   7.089   4.238   6.406  0.4607 -0.0223 -0.3843
  476MOL0     O64155   7.109   4.142   6.506  0.2802 -0.5257  0.4617
  476MOL0     C64156   7.011   4.044   6.524 -0.2149 -0.3641  0.6991
  476MOL0     C64157   6.953   4.028   6.654 -0.1073 -0.0668  0.2482
  476MOL0     C64158   6.860   3.934   6.677 -0.1297  0.3354 -0.1781
  476MOL0     C64159   6.832   3.835   6.581 -0.5264  1.3879  0.7666
  476MOL0     O64160   6.759   3.723   6.594 -0.2538 -0.0068 -0.0311
  476MOL0     C64161   6.695   3.700   6.723 -0.5626 -0.3848 -0.2355
  476MOL0     C64162   6.601   3.586   6.711  0.1845  0.5618 -0.5893
  476MOL0     C64163   6.527   3.570   6.845 -0.3359  0.8304 -0.1924
  476MOL0     C64164   6.470   3.425   6.837  0.1869 -0.3132  0.0825
  476MOL0     C64165   6.378   3.410   6.957  1.2973 -0.0839 -0.5471
  476MOL0     C64166   6.276   3.296   6.953 -0.2736  0.4227  1.5393
  476MOL0     C64167   6.180   3.285   7.059  0.1426  0.8734  0.9196
  476MOL0     C64168   6.240   3.227   7.182 -0.3887 -0.6695 -0.4235
  476MOL0    Cl64169   6.222   3.046   7.166 -0.2961 -0.0625  0.7771
  476MOL0     C64170   6.885   3.852   6.456 -0.0680 -0.2560 -1.0430
  476MOL0     C64171   6.967   3.956   6.417  0.3099  0.6705  0.6093
  476MOL0     O64172   6.985   4.260   6.345 -0.2341  0.3273  0.8048
  476MOL0     C64173   7.339   4.269   6.403  0.4393  0.5117  0.4305
  476MOL0     C64174   7.458   4.324   6.340 -0.2409  0.6237 -0.2771
  476MOL0     N64175   7.727   4.941   6.136 -0.3712  0.8649  0.2879
  476MOL0     N64176   7.712   5.057   6.180 -0.3175  0.0569 -0.4721
  476MOL0     C64177   8.784   5.250   6.206  0.1459  0.1137  0.0505
  476MOL0     C64178   8.900   5.195   6.148  0.1602  0.6313  0.3679
  476MOL0     C64179   9.319   5.003   6.155 -0.3809  0.8225  0.1631
  476MOL0     C64180   9.308   4.907   6.053 -0.6233  0.4636  1.0212
  476MOL0     C64181   9.422   4.834   6.021 -0.0376 -0.1744  0.5717
  476MOL0     C64182   9.550   4.857   6.074 -0.0680  1.0779 -0.3300
  476MOL0     O64183   9.645   4.782   6.008 -0.0051  0.0975  0.0998
  476MOL0     C64184   9.742   4.721   6.089 -0.4766 -0.1732 -0.4563
  476MOL0     C64185   9.882   4.786   6.058  0.4561  0.4831  0.1958
  476MOL0     C64186  10.006   4.713   6.120 -0.0337  0.1765  0.7552
  476MOL0     C64187  10.138   4.773   6.079  0.3974  0.4165  0.2976
  476MOL0     C64188  10.170   4.765   5.932 -0.0051 -0.3365 -0.4946
  476MOL0     C64189  10.206   4.751   5.819 -0.4310  0.7673  0.1330
  476MOL0     C64190   9.557   4.944   6.180 -0.0936 -0.9698 -0.3144
  476MOL0     C64191   9.441   5.017   6.220  0.5624 -0.4224  0.5251
  476MOL0     C64192   9.471   5.125   6.311 -0.2509  0.3199  0.0989
  476MOL0     H64193   8.923   4.906   6.320 -1.6243  0.1451  2.2265
  476MOL0     H64194   8.731   5.004   6.432  2.4864  1.0880  1.7167
  476MOL0     H64195   8.647   5.416   6.364  0.4733 -0.8281  0.0547
  476MOL0     H64196   8.525   5.372   6.260 -1.5948 -0.8260  0.4322
  476MOL0     H64197   8.425   5.493   6.426 -2.5852 -1.2055 -1.5146
  476MOL0     H64198   8.475   5.395   6.563 -0.1711  0.7898 -0.3642
  476MOL0     H64199   8.334   5.221   6.514 -1.4503  1.3785  1.9582
  476MOL0     H64200   8.305   5.265   6.342  0.3838 -4.8969  1.6231
  476MOL0     H64201   8.213   5.441   6.573 -2.1159 -3.2288  1.7948
  476MOL0     H64202   8.202   5.468   6.394 -0.4733  3.1805  2.3602
  476MOL0     H64203   8.071   5.219   6.506  0.6623 -0.0661  0.4643
  476MOL0     H64204   7.996   5.380   6.511  1.0120  0.9081  0.8052
  476MOL0     H64205   8.062   5.392   6.252  1.8517 -1.4185 -2.6336
  476MOL0     H64206   8.050   5.215   6.273  1.2778 -0.1529  0.9351
  476MOL0     H64207   7.851   5.312   6.177  0.2397 -1.9111  0.3298
  476MOL0     H64208   7.831   5.418   6.317 -3.1724  0.9392 -3.7662
  476MOL0     H64209   7.811   5.205   6.462  0.8537 -1.0942 -0.8859
  476MOL0     H64210   7.673   5.242   6.361  1.0987  2.2015 -0.3926
  476MOL0     H64211   7.929   4.949   6.394  0.1774 -2.2993  0.1783
  476MOL0     H64212   7.810   4.725   6.084  2.0053  2.8134 -0.7357
  476MOL0     H64213   7.930   4.688   6.196  0.5248  1.3362  0.8564
  476MOL0     H64214   7.742   4.694   6.391 -1.1994  0.7944 -0.7534
  476MOL0     H64215   7.625   4.666   6.262  0.7326 -3.7904 -4.1425
  476MOL0     H64216   7.667   4.468   6.377 -0.5056 -0.8978  0.0490
  476MOL0     H64217   7.838   4.465   6.314 -1.4399 -2.9045  0.3865
  476MOL0     H64218   7.694   4.324   6.164  0.8553  0.6588  3.9641
  476MOL0     H64219   7.753   4.474   6.080  1.8072  2.4418  1.8067
  476MOL0     H64220   7.326   4.541   6.124 -2.7885  2.0951  2.2929
  476MOL0     H64221   7.103   4.461   6.236 -1.5065 -1.5302  3.1230
  476MOL0     H64222   6.978   4.100   6.731  0.8794 -1.7812  1.6044
  476MOL0     H64223   6.822   3.929   6.779  0.7219 -1.4983  0.0857
  476MOL0     H64224   6.773   3.674   6.795  0.2217  1.9931 -0.1564
  476MOL0     H64225   6.642   3.791   6.753 -0.4151 -0.8361  1.5214
  476MOL0     H64226   6.535   3.605   6.626  1.6969 -0.5095 -2.0683
  476MOL0     H64227   6.655   3.492   6.696 -1.2794 -0.1722 -1.4710
  476MOL0     H64228   6.596   3.571   6.931  0.1594  1.1207 -0.5877
  476MOL0     H64229   6.448   3.641   6.868  0.0630  2.0689 -2.3802
  476MOL0     H64230   6.550   3.351   6.838  0.3292 -0.2356 -1.8320
  476MOL0     H64231   6.417   3.400   6.744  0.5800 -0.6928 -0.0437
  476MOL0     H64232   6.316   3.498   6.973 -0.9920 -1.6250 -0.3909
  476MOL0     H64233   6.440   3.395   7.046 -1.3593 -1.5299  1.2074
  476MOL0     H64234   6.225   3.326   6.862  1.6548 -0.8310 -0.0451
  476MOL0     H64235   6.318   3.196   6.937 -2.4293 -0.3811  0.5323
  476MOL0     H64236   6.105   3.220   7.013  0.2647  1.4844 -0.1659
  476MOL0     H64237   6.124   3.377   7.078  1.5923  1.9286  0.2480
  476MOL0     H64238   6.349   3.242   7.186  0.0530 -2.5063 -3.1180
  476MOL0     H64239   6.190   3.254   7.276  0.0709  0.4183 -0.4753
  476MOL0     H64240   6.855   3.782   6.379 -2.0996 -1.0061  0.3383
  476MOL0     H64241   6.998   3.952   6.313  0.4849 -3.5966  0.6216
  476MOL0     H64242   7.342   4.192   6.480  1.4196  1.3812  1.2799
  476MOL0     H64243   7.551   4.284   6.381 -0.2868  1.7576  1.0010
  476MOL0     H64244   8.736   5.340   6.169 -0.8598  0.6975  2.5767
  476MOL0     H64245   8.943   5.230   6.055  0.9454 -1.1569  0.0150
  476MOL0     H64246   9.217   4.875   6.004  0.0974 -0.3849  0.1753
  476MOL0     H64247   9.412   4.767   5.936  0.5204  2.0817 -1.3913
  476MOL0     H64248   9.745   4.614   6.071  1.6983 -0.1520 -0.4471
  476MOL0     H64249   9.735   4.743   6.196  2.0012 -2.4387  0.2754
  476MOL0     H64250   9.882   4.888   6.097 -0.0800 -0.1641  1.9684
  476MOL0     H64251   9.895   4.777   5.950  1.2174  0.4338  0.2853
  476MOL0     H64252  10.010   4.615   6.072  2.5111  0.7875 -0.4889
  476MOL0     H64253  10.008   4.705   6.229  3.0501 -1.9855  0.6824
  476MOL0     H64254  10.136   4.875   6.118  2.1417 -0.3452  2.5996
  476MOL0     H64255  10.217   4.714   6.127  1.5702  0.4659 -1.4704
  476MOL0     H64256  10.224   4.737   5.714 -1.1455  0.3568  0.0569
  476MOL0     H64257   9.652   4.966   6.227 -0.0628 -1.3052 -0.2155
  476MOL0     H64258   9.397   5.123   6.391  1.8436  1.0164  2.1412
  476MOL0     H64259   9.572   5.121   6.353  2.3614 -0.5995 -5.2689
  476MOL0     H64260   9.465   5.219   6.256  1.1191  1.8732  2.4482
  477MOL0     O64261   9.326   8.362   8.236 -0.1232  0.1465  0.2623
  477MOL0     C64262   9.412   8.278   8.226  0.0596  0.6756  0.4036
  477MOL0     O64263   9.465   8.236   8.110 -0.1869  0.5356 -0.8875
  477MOL0     C64264   9.447   8.281   7.981  0.8167 -0.1982  0.0929
  477MOL0     C64265   9.496   8.195   7.882 -0.3728 -0.8720  0.4142
  477MOL0     C64266   9.481   8.224   7.744  0.4559 -1.5302  0.1438
  477MOL0     C64267   9.411   8.336   7.693  0.5675  0.1026 -0.2433
  477MOL0     O64268   9.412   8.352   7.563  0.2469  0.0966  0.4495
  477MOL0     C64269   9.537   8.420   7.516 -0.2194 -0.7496  1.1743
  477MOL0     C64270   9.577   8.399   7.372  0.1277 -0.2609  0.9166
  477MOL0     C64271   9.555   8.250   7.328 -0.5179 -0.0826 -0.3812
  477MOL0     C64272   9.603   8.226   7.178  0.7429 -0.3344 -0.9501
  477MOL0     C64273   9.478   8.235   7.097 -0.1738  0.0030 -0.9561
  477MOL0     C64274   9.507   8.250   6.943  0.4504  0.6540 -0.9601
  477MOL0     C64275   9.367   8.286   6.885 -0.8321 -0.7866  0.2199
  477MOL0     C64276   9.388   8.267   6.734  0.3403  0.3763 -0.3167
  477MOL0     N64277   9.481   8.363   6.677  0.8106 -0.6785  0.1193
  477MOL0     C64278   9.612   8.359   6.656 -0.4748  1.0822 -0.9581
  477MOL0     C64279   9.655   8.467   6.596  0.7208  0.4140 -0.0629
  477MOL0     C64280   9.798   8.488   6.547  0.6471  0.4181 -0.5429
  477MOL0     C64281   9.888   8.566   6.644  0.3883  0.1108 -0.5642
  477MOL0     C64282   9.904   8.501   6.784 -0.3838 -0.2179  0.0509
  477MOL0     C64283   9.985   8.598   6.870 -0.0349  0.8337  0.2006
  477MOL0     O64284   9.909   8.615   6.994  0.6189  0.5376 -0.2216
  477MOL0     C64285   9.955   8.668   7.106  0.1908 -0.1737  0.6500
  477MOL0     C64286   9.876   8.658   7.219  0.2203  0.1096 -0.2472
  477MOL0     C64287   9.916   8.717   7.337  0.3682  0.2754  0.3589
  477MOL0     C64288  10.036   8.779   7.346 -0.1241 -0.4012 -0.5798
  477MOL0     C64289  10.066   8.858   7.469  0.4806 -0.1072 -0.7830
  477MOL0     O64290  10.175   8.941   7.447 -0.3176  0.2179 -0.1462
  477MOL0     C64291  10.249   8.994   7.548  0.4061 -0.4011  0.5014
  477MOL0     C64292  10.391   8.982   7.534  0.8634 -0.3236  0.4475
  477MOL0     C64293  10.476   9.024   7.642  0.4703 -0.8768  0.6097
  477MOL0     C64294  10.416   9.082   7.760 -0.1117 -0.2427 -0.3052
  477MOL0     O64295  10.475   9.132   7.878  0.0006  0.6596  0.1775
  477MOL0     C64296  10.602   9.085   7.904 -0.3132  0.0369  0.2969
  477MOL0     C64297  10.653   9.160   8.027  0.7022  0.3133  0.8479
  477MOL0     C64298  10.563   9.146   8.150  0.1061  0.8951 -0.9490
  477MOL0     C64299  10.541   9.287   8.214 -0.0397 -1.3780  0.5277
  477MOL0     C64300  10.500   9.275   8.365  0.1021  0.0159 -0.3279
  477MOL0     C64301  10.344   9.256   8.385 -0.4643  0.0573  0.5449
  477MOL0     C64302  10.301   9.259   8.534  0.5441 -0.0965 -0.5164
  477MOL0     C64303  10.153   9.252   8.569 -0.2744  0.1698  0.2560
  477MOL0    Cl64304  10.056   9.375   8.472  0.3578 -0.6992 -0.0635
  477MOL0     C64305  10.279   9.087   7.766  1.2642  1.8130  0.1885
  477MOL0     C64306  10.191   9.048   7.660 -0.6457  0.1860  0.1347
  477MOL0     O64307  10.001   8.847   7.574 -0.1142  0.4370  0.2822
  477MOL0     C64308  10.128   8.771   7.240  0.6256  0.8855 -0.6367
  477MOL0     C64309  10.086   8.729   7.112  0.0628 -0.8297  0.0078
  477MOL0     N64310   9.550   8.559   6.583 -0.2915 -0.7847 -0.1925
  477MOL0     N64311   9.442   8.490   6.632 -0.6642  0.6804  0.5726
  477MOL0     C64312   9.355   8.417   7.793  0.0262 -0.1378 -0.6174
  477MOL0     C64313   9.371   8.389   7.935 -0.6698  0.3719  0.7133
  477MOL0     C64314   9.457   8.211   8.367 -0.0490 -0.1963  0.6031
  477MOL0     C64315   9.593   8.188   8.388 -0.6060 -0.9172  0.4272
  477MOL0     C64316   9.633   8.133   8.504  0.4851 -0.2379  0.1725
  477MOL0     C64317   9.549   8.114   8.609 -0.5524  0.3098 -0.8746
  477MOL0     O64318   9.595   8.072   8.734 -0.2785 -0.6823  0.1537
  477MOL0     C64319   9.506   8.020   8.834 -0.5990 -0.6537 -0.0215
  477MOL0     C64320   9.583   8.010   8.964  0.3309  0.0040 -0.3164
  477MOL0     C64321   9.499   7.933   9.073  0.4544 -0.0821 -0.3255
  477MOL0     C64322   9.522   7.989   9.215 -0.6393 -0.3323 -0.3238
  477MOL0     C64323   9.480   8.134   9.222 -0.2084 -0.0568 -0.5445
  477MOL0     C64324   9.448   8.252   9.227 -0.5601  0.6432  0.7321
  477MOL0     C64325   9.412   8.143   8.589  0.1061 -0.6464  0.2811
  477MOL0     C64326   9.359   8.183   8.464  0.0850 -1.3405 -0.3078
  477MOL0     C64327   9.201   8.183   8.443  0.3708  0.7798 -1.2341
  477MOL0     H64328   9.544   8.098   7.891 -1.6482 -1.6125 -0.3413
  477MOL0     H64329   9.524   8.156   7.672  0.1450  2.9828 -5.0007
  477MOL0     H64330   9.522   8.528   7.512 -0.6403 -0.7243 -4.7107
  477MOL0     H64331   9.626   8.394   7.574 -1.9080 -1.6711  3.5411
  477MOL0     H64332   9.681   8.429   7.360 -0.9140  3.2007 -0.7869
  477MOL0     H64333   9.517   8.457   7.302  2.3795 -1.2122 -1.9711
  477MOL0     H64334   9.452   8.216   7.341 -0.2313 -0.3872  1.2217
  477MOL0     H64335   9.623   8.189   7.388 -0.6212 -1.2445 -1.3956
  477MOL0     H64336   9.684   8.292   7.143  0.6501  1.0246  1.1569
  477MOL0     H64337   9.634   8.121   7.174  1.4424 -0.3126  1.6929
  477MOL0     H64338   9.412   8.150   7.116  3.3281 -2.4971  1.2155
  477MOL0     H64339   9.428   8.324   7.135  2.1366  0.4077  1.4181
  477MOL0     H64340   9.582   8.327   6.921  0.4904  0.1628 -2.7029
  477MOL0     H64341   9.531   8.147   6.914 -2.5618 -0.8777  1.4379
  477MOL0     H64342   9.347   8.392   6.897  3.3540 -0.0194  2.2419
  477MOL0     H64343   9.290   8.220   6.925 -1.5496 -0.0793  0.0276
  477MOL0     H64344   9.412   8.164   6.707  3.5644  1.3289 -1.5408
  477MOL0     H64345   9.300   8.296   6.675  0.7796  1.7724 -0.3166
  477MOL0     H64346   9.682   8.282   6.687  1.8027  3.9927  1.8325
  477MOL0     H64347   9.853   8.396   6.524  0.6793  0.1902  0.3986
  477MOL0     H64348   9.792   8.544   6.454 -1.5741  3.6407  1.3293
  477MOL0     H64349   9.990   8.565   6.603  1.2781  0.6890  1.4960
  477MOL0     H64350   9.856   8.669   6.655  1.9421  0.5548  0.1648
  477MOL0     H64351   9.958   8.408   6.765  0.3894  0.3626 -0.6488
  477MOL0     H64352   9.816   8.463   6.837  0.4401 -1.0427  0.8884
  477MOL0     H64353  10.007   8.700   6.838  0.5117  1.1203  1.4332
  477MOL0     H64354  10.084   8.564   6.899 -0.5764 -0.2642  0.8562
  477MOL0     H64355   9.770   8.641   7.201  0.0876  1.4908 -0.9045
  477MOL0     H64356   9.835   8.736   7.407  0.0613  0.4395 -0.0351
  477MOL0     H64357  10.431   8.942   7.440 -1.7747  3.1814 -2.4545
  477MOL0     H64358  10.585   9.021   7.637  0.5277  1.6123 -2.3433
  477MOL0     H64359  10.595   8.976   7.902  0.8870 -0.0637  0.2995
  477MOL0     H64360  10.678   9.118   7.831  0.0984  1.5326  1.3571
  477MOL0     H64361  10.757   9.133   8.049  0.4154 -1.6162  0.0375
  477MOL0     H64362  10.651   9.266   8.002  0.8225  0.0546 -0.3477
  477MOL0     H64363  10.466   9.098   8.133 -1.3185  2.0755  2.7405
  477MOL0     H64364  10.609   9.083   8.227 -1.5508 -0.2437 -0.8412
  477MOL0     H64365  10.470   9.343   8.153  0.3866 -1.3964  0.0087
  477MOL0     H64366  10.635   9.342   8.208 -0.2710 -0.8585  1.5533
  477MOL0     H64367  10.522   9.372   8.410  2.2365  0.1447 -1.5222
  477MOL0     H64368  10.537   9.187   8.419 -1.6523 -0.2466  0.5309
  477MOL0     H64369  10.294   9.338   8.334  0.1889  0.0675 -0.0998
  477MOL0     H64370  10.319   9.164   8.332 -0.1781  0.9426 -1.2099
  477MOL0     H64371  10.341   9.349   8.581 -2.6436  1.4666 -0.5209
  477MOL0     H64372  10.348   9.172   8.580 -1.1176 -1.3996 -1.1723
  477MOL0     H64373  10.122   9.149   8.551 -1.2477  0.5092 -0.0464
  477MOL0     H64374  10.136   9.277   8.674 -0.4881  1.8962 -0.1592
  477MOL0     H64375  10.221   9.108   7.855 -1.8374  0.6029 -1.4180
  477MOL0     H64376  10.086   9.067   7.677 -0.7938 -2.0450  2.2299
  477MOL0     H64377  10.231   8.804   7.249  0.5037  1.0848  0.1046
  477MOL0     H64378  10.146   8.753   7.025 -0.3942 -2.7683 -0.8838
  477MOL0     H64379   9.300   8.508   7.773 -3.5161 -1.6278  1.3480
  477MOL0     H64380   9.314   8.449   8.006 -1.1657 -0.9390  1.4457
  477MOL0     H64381   9.662   8.223   8.312 -1.9307  3.7586  1.0774
  477MOL0     H64382   9.733   8.098   8.525  0.5924 -0.2530 -0.3508
  477MOL0     H64383   9.467   7.925   8.798 -2.4369  0.1610 -0.2631
  477MOL0     H64384   9.419   8.082   8.854  0.3368  0.4356  0.8672
  477MOL0     H64385   9.600   8.111   9.003  2.7641 -0.3343 -0.3361
  477MOL0     H64386   9.679   7.960   8.946 -0.2092 -1.6601  1.1452
  477MOL0     H64387   9.551   7.837   9.074  0.0712 -0.3301 -2.0250
  477MOL0     H64388   9.390   7.937   9.062  0.5219  3.6300 -0.8695
  477MOL0     H64389   9.475   7.923   9.288 -0.1887 -1.2180 -0.8143
  477MOL0     H64390   9.629   7.971   9.231 -0.1724 -2.7339 -4.4845
  477MOL0     H64391   9.412   8.352   9.214 -1.2342  0.3706  0.4749
  477MOL0     H64392   9.340   8.118   8.665  0.0650  2.5590  1.4507
  477MOL0     H64393   9.156   8.175   8.542 -0.2177  1.3738 -1.4467
  477MOL0     H64394   9.146   8.264   8.394 -1.0505 -1.2801 -3.2087
  477MOL0     H64395   9.183   8.093   8.384 -0.3150  0.1587 -0.1111
  478MOL0     O64396   0.299   7.447   2.015 -0.5481 -0.6939  0.1046
  478MOL0     C64397   0.346   7.422   2.125 -0.3104  0.5753  0.1223
  478MOL0     O64398   0.273   7.365   2.228 -0.4687  0.3944  0.1854
  478MOL0     C64399   0.140   7.367   2.203 -0.3272  0.6480 -1.0829
  478MOL0     C64400   0.066   7.437   2.293 -0.2944 -0.9340  0.2216
  478MOL0     C64401  -0.075   7.423   2.300  0.0339  0.1449 -0.8257
  478MOL0     C64402  -0.140   7.351   2.197 -1.2011 -0.1765 -0.4434
  478MOL0     O64403  -0.278   7.354   2.178  0.1811 -0.4608 -0.0734
  478MOL0     C64404  -0.363   7.444   2.264  0.0116  0.3877  0.5816
  478MOL0     C64405  -0.479   7.490   2.173  0.0477  0.4165 -1.5355
  478MOL0     C64406  -0.581   7.579   2.249  0.6111  0.0667  0.5666
  478MOL0     C64407  -0.675   7.637   2.143  0.6911  0.0254 -0.2865
  478MOL0     C64408  -0.758   7.763   2.196 -0.1212 -0.0361 -0.1159
  478MOL0     C64409  -0.902   7.743   2.169  0.3931  0.8301  0.2925
  478MOL0     C64410  -1.001   7.845   2.230 -0.7505 -0.8030  0.0400
  478MOL0     C64411  -1.117   7.868   2.145  1.1867  1.5528 -0.2595
  478MOL0     N64412  -1.224   7.762   2.155  0.2827  0.4759 -0.2100
  478MOL0     C64413  -1.236   7.656   2.074  0.0921  0.8905  0.6484
  478MOL0     C64414  -1.358   7.602   2.102 -0.4025  0.1904  0.2964
  478MOL0     C64415  -1.443   7.489   2.050 -1.0706  0.0459 -0.5744
  478MOL0     C64416  -1.547   7.540   1.944  0.5772  0.3045 -0.1271
  478MOL0     C64417  -1.606   7.411   1.877  0.0724 -0.1621 -0.3744
  478MOL0     C64418  -1.713   7.452   1.792 -0.8940 -0.5996  0.4075
  478MOL0     O64419  -1.840   7.469   1.869  0.4284  0.0274 -0.2023
  478MOL0     C64420  -1.929   7.557   1.826  0.2260 -0.1206 -0.4106
  478MOL0     C64421  -1.983   7.640   1.928  0.4905  0.2627 -0.4064
  478MOL0     C64422  -2.050   7.759   1.885  0.2717 -0.2959  0.3886
  478MOL0     C64423  -2.077   7.782   1.752 -1.0078 -0.2285 -0.7086
  478MOL0     C64424  -2.172   7.893   1.726  0.7267 -1.0930  0.3238
  478MOL0     O64425  -2.244   7.887   1.613  0.1833  0.1817  0.1178
  478MOL0     C64426  -2.337   7.981   1.564 -0.4311 -0.8641 -0.2334
  478MOL0     C64427  -2.375   8.103   1.621 -0.7167 -0.2372 -0.0323
  478MOL0     C64428  -2.483   8.175   1.570 -0.2242 -0.3604 -0.3561
  478MOL0     C64429  -2.548   8.137   1.450 -0.2699  0.4669  0.5526
  478MOL0     O64430  -2.658   8.221   1.420 -0.3231 -0.0829 -0.4571
  478MOL0     C64431  -2.732   8.187   1.303  0.4244 -0.1224  0.6245
  478MOL0     C64432  -2.808   8.309   1.233 -1.6420  0.9298  0.9051
  478MOL0     C64433  -2.713   8.412   1.173 -0.2731 -0.7671  0.2753
  478MOL0     C64434  -2.658   8.360   1.032  0.3185 -0.2603  0.8018
  478MOL0     C64435  -2.530   8.426   0.973 -0.0489  0.6482  1.0126
  478MOL0     C64436  -2.553   8.566   0.936 -1.0129 -0.1974  0.1191
  478MOL0     C64437  -2.447   8.638   0.848 -1.1194  0.2692  0.5471
  478MOL0     C64438  -2.338   8.707   0.924 -0.3692 -0.5765  1.1084
  478MOL0    Cl64439  -2.392   8.809   1.052 -0.1842  0.0069 -0.0044
  478MOL0     C64440  -2.506   8.021   1.388 -0.5142 -0.3613  0.4894
  478MOL0     C64441  -2.400   7.948   1.443  0.4069 -0.0933 -0.2663
  478MOL0     O64442  -2.182   7.984   1.815 -0.8963 -0.3409  0.0955
  478MOL0     C64443  -2.015   7.703   1.652 -0.5052 -0.1438 -0.2755
  478MOL0     C64444  -1.943   7.584   1.688 -0.4055  0.1404 -0.0663
  478MOL0     N64445  -1.410   7.670   2.214 -0.8121  0.6660 -0.3062
  478MOL0     N64446  -1.335   7.762   2.248 -0.5611 -1.1466  0.5907
  478MOL0     C64447  -0.060   7.275   2.108  0.1358  0.4135 -0.0060
  478MOL0     C64448   0.083   7.276   2.117  0.2068  0.0028  1.3505
  478MOL0     C64449   0.495   7.453   2.157 -0.2089  0.5977 -0.0568
  478MOL0     C64450   0.546   7.419   2.285  0.2393 -0.6273 -0.4710
  478MOL0     C64451   0.675   7.440   2.330 -1.0579 -0.1830 -0.1881
  478MOL0     C64452   0.759   7.515   2.253  1.2158  0.0649 -0.4575
  478MOL0     O64453   0.887   7.548   2.290  0.0348 -0.5461 -0.1870
  478MOL0     C64454   0.969   7.472   2.377  0.8339 -0.3050 -0.0671
  478MOL0     C64455   1.048   7.377   2.292  0.0970  0.3398  0.9722
  478MOL0     C64456   1.193   7.410   2.280  0.1388  0.7994 -0.7243
  478MOL0     C64457   1.287   7.331   2.384  0.9999 -0.0356  0.7714
  478MOL0     C64458   1.420   7.377   2.388  0.1091  0.3714  1.0881
  478MOL0     C64459   1.536   7.415   2.367  1.2014  0.3404 -0.8732
  478MOL0     C64460   0.700   7.581   2.141  0.3469 -0.1125 -0.5762
  478MOL0     C64461   0.574   7.548   2.085 -0.4905  0.7841  0.9232
  478MOL0     C64462   0.537   7.621   1.963  0.0351  0.5093 -0.0843
  478MOL0     H64463   0.118   7.510   2.354  0.1345 -0.1360 -1.0424
  478MOL0     H64464  -0.130   7.463   2.385  1.3118  0.8651 -0.2955
  478MOL0     H64465  -0.403   7.390   2.351 -1.9129 -1.2679 -1.2107
  478MOL0     H64466  -0.327   7.546   2.282 -1.3137  0.9121  0.4371
  478MOL0     H64467  -0.535   7.408   2.127  0.1293 -0.4381 -0.1386
  478MOL0     H64468  -0.432   7.535   2.085  2.9776 -1.4414 -1.0559
  478MOL0     H64469  -0.517   7.652   2.300  0.5145 -0.4574  1.4517
  478MOL0     H64470  -0.631   7.512   2.320  1.6437 -2.5730 -1.0131
  478MOL0     H64471  -0.606   7.680   2.070 -0.4457 -1.6406 -2.4570
  478MOL0     H64472  -0.739   7.560   2.100  1.8513 -0.2899 -1.5119
  478MOL0     H64473  -0.725   7.773   2.299  0.8353 -0.7805 -0.3394
  478MOL0     H64474  -0.735   7.852   2.137  1.2405  0.2927  0.8753
  478MOL0     H64475  -0.915   7.739   2.061  0.8695  1.2897  0.2142
  478MOL0     H64476  -0.927   7.644   2.209 -0.7222  2.3733  3.9051
  478MOL0     H64477  -0.939   7.936   2.234  0.0277 -1.3748  2.3889
  478MOL0     H64478  -1.028   7.826   2.334 -6.2539 -0.9973 -1.1156
  478MOL0     H64479  -1.177   7.954   2.178 -1.5746 -0.3361  0.0122
  478MOL0     H64480  -1.080   7.870   2.042  2.8726 -2.0985  0.1181
  478MOL0     H64481  -1.172   7.615   1.997  2.1176  2.4472  1.4248
  478MOL0     H64482  -1.375   7.412   2.014 -0.7406 -0.2823  0.7080
  478MOL0     H64483  -1.482   7.441   2.140  0.7256 -1.6731 -0.6383
  478MOL0     H64484  -1.620   7.611   1.984  1.1354  2.3802 -2.5662
  478MOL0     H64485  -1.491   7.603   1.874  1.3135  0.9195  0.9808
  478MOL0     H64486  -1.631   7.333   1.949  5.2073  0.1427  2.2232
  478MOL0     H64487  -1.519   7.373   1.823  0.6565  3.3750 -2.2005
  478MOL0     H64488  -1.733   7.384   1.708 -1.7849  2.0306 -1.6639
  478MOL0     H64489  -1.694   7.548   1.744 -2.4216 -0.7629 -0.5890
  478MOL0     H64490  -1.977   7.620   2.035 -2.3987  0.7109 -0.0846
  478MOL0     H64491  -2.081   7.831   1.960  3.4064  0.0172  1.5394
  478MOL0     H64492  -2.329   8.136   1.714  1.2103 -0.5582 -0.8399
  478MOL0     H64493  -2.530   8.245   1.638  1.9762  0.3410  0.5486
  478MOL0     H64494  -2.662   8.140   1.234  2.4242  3.4536 -0.0431
  478MOL0     H64495  -2.813   8.118   1.328  0.4357 -0.7699 -1.0302
  478MOL0     H64496  -2.884   8.272   1.164  0.4817 -1.2887 -0.4311
  478MOL0     H64497  -2.863   8.354   1.317 -0.2135  0.7284  1.9986
  478MOL0     H64498  -2.751   8.514   1.173  1.7020  0.0158  1.2485
  478MOL0     H64499  -2.635   8.418   1.249 -0.1003  4.6354  0.0124
  478MOL0     H64500  -2.732   8.370   0.951  1.0062  1.3707  0.3379
  478MOL0     H64501  -2.629   8.254   1.028  2.6434  0.1923 -5.1778
  478MOL0     H64502  -2.497   8.365   0.889 -1.5599 -0.8147  1.4214
  478MOL0     H64503  -2.457   8.438   1.054  2.1054 -2.3774 -0.3243
  478MOL0     H64504  -2.641   8.572   0.871 -0.3149 -1.2490 -0.9457
  478MOL0     H64505  -2.575   8.639   1.015  0.1798  2.0712 -1.5103
  478MOL0     H64506  -2.494   8.713   0.784 -0.2877  0.3710  0.0400
  478MOL0     H64507  -2.385   8.569   0.790  0.0544  2.0611 -0.4502
  478MOL0     H64508  -2.266   8.632   0.959  0.1897  1.2831  4.3198
  478MOL0     H64509  -2.284   8.769   0.851  0.0482 -1.0294  1.0180
  478MOL0     H64510  -2.547   7.981   1.296  0.6106  1.5214 -0.9148
  478MOL0     H64511  -2.371   7.852   1.401 -1.4889  0.0832 -2.1402
  478MOL0     H64512  -2.032   7.725   1.548  0.0347  0.0632 -0.3233
  478MOL0     H64513  -1.896   7.523   1.612  1.3561  3.6730 -2.1089
  478MOL0     H64514  -0.117   7.228   2.028 -2.2145  0.4523  1.5409
  478MOL0     H64515   0.147   7.215   2.055 -1.7522 -0.5781 -0.2167
  478MOL0     H64516   0.509   7.333   2.339 -0.8279  0.4263  0.5626
  478MOL0     H64517   0.711   7.397   2.423 -2.5242  1.2577  1.1114
  478MOL0     H64518   0.909   7.420   2.453 -0.4146  0.0602 -0.7702
  478MOL0     H64519   1.044   7.529   2.434  4.5841 -3.1535 -1.7356
  478MOL0     H64520   1.004   7.364   2.192  0.1654 -1.3010  1.1297
  478MOL0     H64521   1.033   7.277   2.334 -2.9301 -0.0433 -0.7289
  478MOL0     H64522   1.210   7.517   2.294  0.0008  0.6330  0.9144
  478MOL0     H64523   1.226   7.387   2.178  1.0710  0.0484 -0.2699
  478MOL0     H64524   1.240   7.340   2.483 -0.5863  1.6016 -0.0491
  478MOL0     H64525   1.289   7.226   2.353  2.0373 -0.1204  1.1127
  478MOL0     H64526   1.632   7.460   2.382  0.6836  0.8767  1.1496
  478MOL0     H64527   0.770   7.641   2.084  2.1442  0.1755  1.7775
  478MOL0     H64528   0.562   7.563   1.874  0.0927  0.9965 -0.3894
  478MOL0     H64529   0.433   7.653   1.955 -0.2262 -0.7072 -2.8130
  478MOL0     H64530   0.586   7.719   1.967  1.4411 -0.1452 -0.3140
  479MOL0     O64531   5.803   7.915   5.716  0.6553 -0.7221  0.8199
  479MOL0     C64532   5.726   7.894   5.620  0.0982  0.2201  0.3145
  479MOL0     O64533   5.647   7.788   5.609  0.4535  0.3040  0.1402
  479MOL0     C64534   5.667   7.692   5.701  0.3593 -0.4281 -0.2425
  479MOL0     C64535   5.563   7.683   5.796 -0.2885  0.1979  0.3119
  479MOL0     C64536   5.565   7.578   5.890  0.3626  0.5808  0.3092
  479MOL0     C64537   5.670   7.493   5.899 -0.3364 -0.2735  0.7921
  479MOL0     O64538   5.637   7.384   5.975  0.1684  0.5121  0.1903
  479MOL0     C64539   5.746   7.334   6.052 -0.5412 -1.1701  0.3059
  479MOL0     C64540   5.700   7.248   6.178 -0.2486 -0.3681  0.4180
  479MOL0     C64541   5.659   7.330   6.301  0.2678  0.8624 -0.1490
  479MOL0     C64542   5.579   7.240   6.395  0.3462  0.8328 -0.2795
  479MOL0     C64543   5.586   7.298   6.539 -0.5243 -0.9540  0.7994
  479MOL0     C64544   5.484   7.230   6.629  0.3149  0.5815  0.1243
  479MOL0     C64545   5.498   7.083   6.660 -0.1606  0.0738  0.7301
  479MOL0     C64546   5.485   7.073   6.807 -0.3366 -0.7425 -0.0660
  479MOL0     N64547   5.344   7.089   6.844 -0.4659 -0.4191  0.0310
  479MOL0     C64548   5.239   7.003   6.813  0.8228  0.4164  1.1021
  479MOL0     C64549   5.123   7.060   6.863  0.8849  0.4670  1.0670
  479MOL0     C64550   4.982   7.021   6.860  0.7076 -0.4135 -0.1877
  479MOL0     C64551   4.908   7.090   6.748 -0.7363 -0.9490  0.4237
  479MOL0     C64552   4.772   7.018   6.734  0.1094 -0.6275  0.1595
  479MOL0     C64553   4.773   6.881   6.670  0.6692  0.2155  0.0401
  479MOL0     O64554   4.799   6.786   6.771  0.0373 -0.7619 -0.5492
  479MOL0     C64555   4.763   6.656   6.737  0.0303  0.2642 -0.0256
  479MOL0     C64556   4.699   6.587   6.836 -1.1754  1.5720  0.8522
  479MOL0     C64557   4.666   6.447   6.819 -0.7456  0.2937 -0.1527
  479MOL0     C64558   4.692   6.387   6.696 -0.3514  0.0425  1.1543
  479MOL0     C64559   4.647   6.244   6.676  0.9065 -0.6312  0.0815
  479MOL0     O64560   4.588   6.169   6.780  0.3533 -0.6581 -0.1887
  479MOL0     C64561   4.530   6.045   6.755 -0.2761 -0.8228 -0.3444
  479MOL0     C64562   4.598   5.942   6.692 -0.0603 -0.0435 -0.1166
  479MOL0     C64563   4.538   5.818   6.692 -0.2883 -0.0106 -0.5005
  479MOL0     C64564   4.418   5.780   6.747  0.4165  0.0560  0.3701
  479MOL0     O64565   4.343   5.663   6.733  0.1113  0.5958 -0.6857
  479MOL0     C64566   4.397   5.561   6.638 -0.3933  0.4894 -0.5496
  479MOL0     C64567   4.289   5.457   6.595  0.1485 -0.3771  0.1734
  479MOL0     C64568   4.344   5.328   6.531  0.0273 -0.3064  0.3375
  479MOL0     C64569   4.450   5.356   6.414 -0.3559  0.2373 -0.2133
  479MOL0     C64570   4.462   5.233   6.319  0.2665  0.1411 -0.5031
  479MOL0     C64571   4.530   5.285   6.194  0.0509 -0.7708 -0.7514
  479MOL0     C64572   4.552   5.184   6.083 -0.3916  0.5935 -1.1197
  479MOL0     C64573   4.639   5.242   5.972  0.2218 -0.1374 -0.6225
  479MOL0    Cl64574   4.641   5.148   5.822  0.3503 -0.2271 -0.5372
  479MOL0     C64575   4.360   5.881   6.827 -0.5560 -0.4558  0.6745
  479MOL0     C64576   4.416   6.011   6.825 -0.0467  0.4993 -0.3275
  479MOL0     O64577   4.665   6.200   6.566 -0.1192 -0.2313  0.2496
  479MOL0     C64578   4.763   6.461   6.592 -0.0247  0.4697  0.2335
  479MOL0     C64579   4.801   6.592   6.616 -0.7713 -0.4559 -0.3182
  479MOL0     N64580   5.160   7.176   6.922  0.7317  0.4113  0.5760
  479MOL0     N64581   5.294   7.193   6.926  0.1387 -0.3831 -0.2890
  479MOL0     C64582   5.775   7.503   5.800 -0.2017  0.4894 -0.3325
  479MOL0     C64583   5.776   7.599   5.702 -0.5068  0.2524  0.0289
  479MOL0     C64584   5.751   7.979   5.506 -0.0387  0.6178  0.5265
  479MOL0     C64585   5.752   7.920   5.383  0.1896 -0.7378  0.4028
  479MOL0     C64586   5.784   7.990   5.272  0.2549  0.1847 -0.3326
  479MOL0     C64587   5.787   8.127   5.279 -0.7028  0.2885  0.5385
  479MOL0     O64588   5.806   8.213   5.170 -0.6934  0.3962  0.3716
  479MOL0     C64589   5.849   8.143   5.051  0.5757 -0.4899  0.0663
  479MOL0     C64590   5.893   8.239   4.949  1.0512 -2.1141  0.8895
  479MOL0     C64591   6.013   8.315   5.006  0.1149  0.0453  1.0760
  479MOL0     C64592   6.110   8.348   4.889  0.7398  0.5964  0.3522
  479MOL0     C64593   6.186   8.228   4.850 -0.7321 -1.0581  0.0589
  479MOL0     C64594   6.247   8.135   4.814  1.1634  0.1082 -0.2075
  479MOL0     C64595   5.771   8.193   5.400  0.1608  0.3095  0.2479
  479MOL0     C64596   5.759   8.118   5.517  0.0124 -0.3414 -0.6633
  479MOL0     C64597   5.770   8.199   5.646  0.0673 -0.9554  0.0007
  479MOL0     H64598   5.489   7.761   5.811 -0.3955  0.2629 -0.4966
  479MOL0     H64599   5.492   7.568   5.970  0.1227 -1.5056 -0.1278
  479MOL0     H64600   5.805   7.283   5.976 -3.8400 -0.7868 -2.7706
  479MOL0     H64601   5.802   7.418   6.092 -1.5694 -0.7529  0.9027
  479MOL0     H64602   5.775   7.170   6.190 -1.2216 -1.5943 -1.0537
  479MOL0     H64603   5.612   7.193   6.145  1.7591 -2.7336 -1.4321
  479MOL0     H64604   5.594   7.410   6.265 -0.2803  0.2769 -0.4793
  479MOL0     H64605   5.746   7.378   6.346 -1.2521  1.6087  2.2103
  479MOL0     H64606   5.472   7.244   6.372  0.2316  3.2949  0.4033
  479MOL0     H64607   5.608   7.135   6.401 -0.7126  0.3508 -2.6375
  479MOL0     H64608   5.687   7.297   6.583  0.0897  0.0257 -0.5370
  479MOL0     H64609   5.551   7.400   6.528 -2.4717 -1.5618  1.0697
  479MOL0     H64610   5.492   7.287   6.722  1.6521 -0.6196  0.7823
  479MOL0     H64611   5.385   7.240   6.583  0.5132 -2.3589 -1.1453
  479MOL0     H64612   5.596   7.047   6.627  0.1359  1.2333  0.2593
  479MOL0     H64613   5.420   7.020   6.618  1.2631 -0.8908 -0.6142
  479MOL0     H64614   5.511   6.970   6.834  4.1864 -0.0400 -0.8678
  479MOL0     H64615   5.551   7.150   6.847  0.1934  0.2042 -2.5511
  479MOL0     H64616   5.225   6.901   6.777 -3.9709  1.3627 -0.4263
  479MOL0     H64617   4.973   6.912   6.865 -3.0076 -0.2088  0.7314
  479MOL0     H64618   4.943   7.058   6.955  0.5558  0.5954 -0.6360
  479MOL0     H64619   4.891   7.198   6.747  3.1981 -0.1994  1.3780
  479MOL0     H64620   4.965   7.071   6.657  0.5476  0.9314  0.7922
  479MOL0     H64621   4.702   7.083   6.680 -3.3797 -3.8635  0.3363
  479MOL0     H64622   4.724   7.007   6.831  1.1119 -0.1010  0.7344
  479MOL0     H64623   4.851   6.872   6.594  1.7708 -0.3995  1.2089
  479MOL0     H64624   4.681   6.851   6.619  0.6846 -1.4760  0.9508
  479MOL0     H64625   4.665   6.652   6.915  1.3184  0.8585  2.6447
  479MOL0     H64626   4.603   6.405   6.896 -1.4735  1.3675 -0.1406
  479MOL0     H64627   4.700   5.947   6.654  0.1325 -1.9400  0.0508
  479MOL0     H64628   4.597   5.743   6.640  2.3697  0.3077  1.7817
  479MOL0     H64629   4.438   5.609   6.549 -1.5353 -0.0714 -1.4126
  479MOL0     H64630   4.474   5.496   6.681  1.2067  2.6127 -0.0189
  479MOL0     H64631   4.239   5.433   6.690  0.7386 -0.4737  0.4642
  479MOL0     H64632   4.239   5.521   6.522  1.3380 -1.4121 -1.6163
  479MOL0     H64633   4.391   5.247   6.588  0.1650 -1.3336 -1.1599
  479MOL0     H64634   4.250   5.286   6.494 -2.0929 -1.0653  5.6918
  479MOL0     H64635   4.552   5.373   6.451 -0.0306 -1.6653 -0.1341
  479MOL0     H64636   4.423   5.448   6.362  1.5044  0.1100 -1.4904
  479MOL0     H64637   4.365   5.203   6.280 -0.7209  1.9065  0.4423
  479MOL0     H64638   4.508   5.150   6.374 -1.6510 -0.6717 -0.0664
  479MOL0     H64639   4.479   5.371   6.151 -2.0024 -0.3700  2.2112
  479MOL0     H64640   4.626   5.315   6.237 -0.8379 -1.4777  1.8987
  479MOL0     H64641   4.454   5.165   6.040  0.1425 -1.1758 -1.6373
  479MOL0     H64642   4.588   5.088   6.121 -0.9969  0.5798 -0.5676
  479MOL0     H64643   4.605   5.345   5.961  0.8140  0.6274  3.2680
  479MOL0     H64644   4.733   5.251   6.028 -1.7301  1.3149  2.7155
  479MOL0     H64645   4.264   5.858   6.870 -0.7146  1.6476  1.5398
  479MOL0     H64646   4.367   6.084   6.889  1.7337  1.6120 -0.1636
  479MOL0     H64647   4.790   6.423   6.494  2.5827 -2.8979  2.0336
  479MOL0     H64648   4.865   6.635   6.540  0.2250  0.7654  1.1411
  479MOL0     H64649   5.864   7.442   5.802  1.3807  2.6917  0.1253
  479MOL0     H64650   5.856   7.610   5.630  0.2355  2.1240  1.0703
  479MOL0     H64651   5.767   7.813   5.383  3.8003 -0.4142 -1.8293
  479MOL0     H64652   5.790   7.927   5.184  0.9252 -1.1549  0.6385
  479MOL0     H64653   5.771   8.082   5.003 -1.2939  1.1512  0.8560
  479MOL0     H64654   5.927   8.070   5.071  0.9463  0.7081  3.5853
  479MOL0     H64655   5.819   8.317   4.928  1.2028 -2.1661  0.1147
  479MOL0     H64656   5.911   8.187   4.854  0.8063  2.7459 -2.1581
  479MOL0     H64657   6.055   8.258   5.089 -0.0624  0.3540  1.3799
  479MOL0     H64658   5.970   8.404   5.054 -0.7155  0.3813 -0.2305
  479MOL0     H64659   6.060   8.404   4.809  0.0518 -2.0838 -1.2111
  479MOL0     H64660   6.183   8.414   4.935  1.6912  0.4840 -0.9565
  479MOL0     H64661   6.300   8.050   4.777  2.7127  1.5311 -1.4554
  479MOL0     H64662   5.780   8.302   5.400 -5.0855  0.9906  1.9308
  479MOL0     H64663   5.867   8.180   5.692 -0.3614  0.4970  1.6142
  479MOL0     H64664   5.781   8.306   5.628 -0.0870 -1.1583 -1.3857
  479MOL0     H64665   5.687   8.167   5.711  2.8770 -0.8514  4.0059
  480MOL0     O64666   9.901   6.362   0.613  0.2013 -0.1585 -0.2139
  480MOL0     C64667   9.999   6.420   0.655 -0.6243  0.3773 -0.4947
  480MOL0     O64668  10.002   6.502   0.759  0.4171 -1.3674 -0.0505
  480MOL0     C64669   9.892   6.500   0.843 -0.4566 -1.0154  0.1676
  480MOL0     C64670   9.847   6.384   0.905  1.5076 -0.1295 -0.0573
  480MOL0     C64671   9.716   6.381   0.966  0.4174  0.1717  0.2817
  480MOL0     C64672   9.641   6.502   0.963 -0.3600  0.1629 -0.0583
  480MOL0     O64673   9.511   6.490   1.019 -0.2231  0.4229  0.2832
  480MOL0     C64674   9.410   6.561   0.944  0.4328 -0.4641  0.4072
  480MOL0     C64675   9.267   6.527   1.004 -1.1654  0.0247 -0.1152
  480MOL0     C64676   9.163   6.632   0.979 -0.0135  0.5499  0.4211
  480MOL0     C64677   9.036   6.603   1.064 -0.2767  0.1373  0.0884
  480MOL0     C64678   8.944   6.724   1.044 -0.4255 -0.2038  0.4952
  480MOL0     C64679   8.844   6.733   1.162  0.2006 -0.8346 -0.6716
  480MOL0     C64680   8.713   6.807   1.130 -0.6180 -0.4694  0.5365
  480MOL0     C64681   8.634   6.847   1.254  0.6167  0.2670  0.0472
  480MOL0     N64682   8.534   6.747   1.290  0.0641 -0.7857 -0.5238
  480MOL0     C64683   8.550   6.648   1.385  0.5643 -0.3266 -0.7260
  480MOL0     C64684   8.419   6.593   1.384  0.6250 -0.1244 -1.0034
  480MOL0     C64685   8.403   6.446   1.437 -0.1063  0.2547  0.5510
  480MOL0     C64686   8.256   6.403   1.453  0.8315 -0.9949  0.2387
  480MOL0     C64687   8.242   6.278   1.519  0.3228  0.8998 -1.1252
  480MOL0     C64688   8.096   6.252   1.529 -0.9945 -0.0193 -0.0146
  480MOL0     O64689   8.053   6.184   1.649  0.4489  0.4636 -0.2451
  480MOL0     C64690   7.932   6.124   1.673 -0.4346 -0.4723 -0.4933
  480MOL0     C64691   7.912   6.058   1.799  0.5088 -1.6333  0.3664
  480MOL0     C64692   7.793   6.009   1.839  0.3377  0.2253 -0.7400
  480MOL0     C64693   7.674   6.022   1.757  0.4875 -0.5280  0.3668
  480MOL0     C64694   7.540   5.986   1.803 -0.2117 -0.2909 -0.8260
  480MOL0     O64695   7.542   5.916   1.923 -0.2965 -0.3189 -0.2059
  480MOL0     C64696   7.431   5.849   1.968  0.4085 -0.8734  0.6561
  480MOL0     C64697   7.306   5.914   1.969 -0.1237 -0.4287 -0.9671
  480MOL0     C64698   7.191   5.858   2.026 -0.0204  0.0221 -0.3999
  480MOL0     C64699   7.198   5.735   2.095 -0.2695 -0.1469  0.6692
  480MOL0     O64700   7.093   5.698   2.165  1.0956 -0.1728  0.4135
  480MOL0     C64701   7.074   5.556   2.194  0.7587 -0.1092  1.3447
  480MOL0     C64702   6.957   5.544   2.293  0.1824 -0.5857 -0.2956
  480MOL0     C64703   6.825   5.589   2.228 -0.2225  0.3283 -0.3578
  480MOL0     C64704   6.746   5.681   2.322  0.7404  0.4620 -0.5079
  480MOL0     C64705   6.805   5.814   2.364 -0.7548 -0.3040  0.3815
  480MOL0     C64706   6.710   5.871   2.474 -0.0503 -0.0577 -0.5541
  480MOL0     C64707   6.751   6.018   2.509 -0.0394  0.7530 -0.7663
  480MOL0     C64708   6.678   6.091   2.617  0.3276 -0.0039 -0.3263
  480MOL0    Cl64709   6.753   6.255   2.635  0.0494  0.8205 -0.1092
  480MOL0     C64710   7.331   5.671   2.092 -0.0103  0.7407  0.0499
  480MOL0     C64711   7.444   5.733   2.048 -0.2103 -0.0045  0.0861
  480MOL0     O64712   7.441   6.010   1.735 -0.7625  0.3996 -0.7448
  480MOL0     C64713   7.695   6.086   1.628 -0.3659 -0.5973 -0.0650
  480MOL0     C64714   7.824   6.130   1.589 -0.6615  0.1069  0.0776
  480MOL0     N64715   8.338   6.663   1.295  0.2018 -0.0574 -0.6527
  480MOL0     N64716   8.412   6.748   1.242 -0.0025 -0.2871  0.2769
  480MOL0     C64717   9.694   6.609   0.896 -0.3778 -0.9126 -0.9409
  480MOL0     C64718   9.811   6.614   0.833 -0.2461 -0.1595  0.2249
  480MOL0     C64719  10.122   6.418   0.568 -0.4065  0.4959  0.4005
  480MOL0     C64720  10.220   6.518   0.579 -0.5174 -0.0213 -0.8705
  480MOL0     C64721  10.326   6.543   0.495 -0.2152 -0.7740 -0.0923
  480MOL0     C64722  10.345   6.464   0.386 -0.2259 -1.1152 -0.9251
  480MOL0     O64723  10.443   6.477   0.289  0.2151 -0.4748 -0.3255
  480MOL0     C64724  10.505   6.608   0.270  0.3398  0.7642 -0.8674
  480MOL0     C64725  10.564   6.606   0.129  0.1089  0.6354 -0.0121
  480MOL0     C64726  10.683   6.697   0.105  0.8799 -0.4364  0.6821
  480MOL0     C64727  10.811   6.642   0.156  0.5364 -0.3682 -0.4328
  480MOL0     C64728  10.842   6.669   0.298  0.3821  0.1879  0.7114
  480MOL0     C64729  10.882   6.680   0.415 -0.1307 -0.1908 -0.5727
  480MOL0     C64730  10.251   6.367   0.370  0.4672 -1.1285  0.2802
  480MOL0     C64731  10.148   6.335   0.454  0.2615 -0.3260 -0.3260
  480MOL0     C64732  10.061   6.226   0.399  0.3229 -0.8928  0.5832
  480MOL0     H64733   9.897   6.288   0.908 -3.8940 -3.4266  4.9977
  480MOL0     H64734   9.673   6.295   1.015 -1.6881 -0.8293 -2.9642
  480MOL0     H64735   9.425   6.669   0.953 -0.1962 -0.3387  0.0007
  480MOL0     H64736   9.407   6.525   0.841  2.6016 -0.8133  0.4095
  480MOL0     H64737   9.273   6.508   1.111  0.9562  2.6660  0.3521
  480MOL0     H64738   9.233   6.433   0.959 -0.2604 -1.0946  1.4582
  480MOL0     H64739   9.153   6.638   0.870  0.5398 -2.5186  0.1208
  480MOL0     H64740   9.206   6.726   1.014 -3.3105  1.9299  1.1616
  480MOL0     H64741   8.985   6.517   1.020 -0.3347  0.5682 -0.6887
  480MOL0     H64742   9.059   6.587   1.170  0.5864  2.8709  0.3929
  480MOL0     H64743   8.992   6.821   1.034  0.0105 -0.6715 -4.3164
  480MOL0     H64744   8.888   6.705   0.952 -0.8099 -0.3152  0.7498
  480MOL0     H64745   8.803   6.634   1.184 -3.8648  0.9303  0.5245
  480MOL0     H64746   8.902   6.754   1.252 -0.0698 -1.4666 -0.3450
  480MOL0     H64747   8.659   6.749   1.055 -1.7926  0.6243  0.5015
  480MOL0     H64748   8.742   6.898   1.076 -2.4124 -1.4593 -2.2916
  480MOL0     H64749   8.704   6.874   1.334 -0.5686  1.6565  0.6662
  480MOL0     H64750   8.579   6.939   1.233  1.7769  0.9439 -0.1349
  480MOL0     H64751   8.640   6.623   1.441  0.1285  0.9994  0.6472
  480MOL0     H64752   8.448   6.382   1.361 -2.3639  1.3032 -1.8303
  480MOL0     H64753   8.461   6.428   1.528  0.4013  2.2095  0.6544
  480MOL0     H64754   8.208   6.492   1.496  1.7921 -0.6905  0.7167
  480MOL0     H64755   8.224   6.398   1.348  0.4081  1.2923  0.2010
  480MOL0     H64756   8.301   6.279   1.611 -0.9704 -3.8167  0.0127
  480MOL0     H64757   8.284   6.204   1.450  1.2813  0.5481 -0.2041
  480MOL0     H64758   8.073   6.199   1.436  2.5282  0.3205 -1.2371
  480MOL0     H64759   8.054   6.353   1.530  0.0818  0.4503  1.6497
  480MOL0     H64760   8.002   6.047   1.858  1.8308 -0.3019 -1.3171
  480MOL0     H64761   7.780   5.979   1.942  1.0561  0.9478 -0.4271
  480MOL0     H64762   7.288   6.006   1.915 -1.9906  1.1691  2.1367
  480MOL0     H64763   7.092   5.903   2.026 -1.4456 -2.8347  1.4754
  480MOL0     H64764   7.052   5.508   2.098  1.0999  1.2214  0.5699
  480MOL0     H64765   7.161   5.526   2.253  1.1992  0.8144  1.1825
  480MOL0     H64766   6.951   5.435   2.306 -1.0060 -0.5546 -0.4822
  480MOL0     H64767   6.995   5.603   2.377  2.9650  1.2382 -2.6497
  480MOL0     H64768   6.845   5.642   2.135 -3.1435  1.2520 -0.5766
  480MOL0     H64769   6.757   5.506   2.204  0.1179 -1.2068  3.3441
  480MOL0     H64770   6.735   5.627   2.416 -0.5324  2.1481  0.3583
  480MOL0     H64771   6.648   5.694   2.276  0.3444 -1.4032 -0.2456
  480MOL0     H64772   6.818   5.863   2.267 -2.6832 -2.7500 -1.2696
  480MOL0     H64773   6.903   5.799   2.411  1.8854  0.5944 -4.1810
  480MOL0     H64774   6.617   5.884   2.419 -0.0214 -0.0745 -0.6072
  480MOL0     H64775   6.702   5.808   2.563 -0.3994 -0.2273 -0.7050
  480MOL0     H64776   6.750   6.081   2.419  1.6534  1.5215 -0.2929
  480MOL0     H64777   6.852   6.010   2.552 -0.7987  2.5752  1.5816
  480MOL0     H64778   6.572   6.110   2.599 -0.0677  0.3729  2.0746
  480MOL0     H64779   6.687   6.043   2.715 -0.7060  0.7174  0.1366
  480MOL0     H64780   7.341   5.582   2.153 -1.4075 -0.2234 -1.0656
  480MOL0     H64781   7.539   5.683   2.062  0.1253  0.3480 -0.8552
  480MOL0     H64782   7.612   6.086   1.558 -0.9196 -2.1092  0.5496
  480MOL0     H64783   7.851   6.169   1.491  0.3237 -2.2891 -0.6556
  480MOL0     H64784   9.641   6.703   0.892  0.7144 -0.2885 -0.9884
  480MOL0     H64785   9.842   6.704   0.780 -1.3117 -1.3536 -2.6400
  480MOL0     H64786  10.206   6.580   0.666 -3.4931  0.1539 -1.3470
  480MOL0     H64787  10.391   6.626   0.523 -3.1417  2.1378 -1.2706
  480MOL0     H64788  10.587   6.606   0.342  1.3369  0.0885 -1.9903
  480MOL0     H64789  10.450   6.701   0.283 -0.2115  0.4277 -0.7610
  480MOL0     H64790  10.484   6.635   0.060 -1.2631  1.1713  1.7218
  480MOL0     H64791  10.593   6.504   0.101  3.9463  1.7669 -0.8064
  480MOL0     H64792  10.672   6.791   0.160  4.3782  0.3066  0.2945
  480MOL0     H64793  10.679   6.730   0.001  1.3252  3.2268  1.6948
  480MOL0     H64794  10.811   6.532   0.153  2.0987 -0.3788 -2.8288
  480MOL0     H64795  10.898   6.682   0.104  0.9302  1.7981  1.7043
  480MOL0     H64796  10.927   6.682   0.513 -3.6399  0.5284  1.1613
  480MOL0     H64797  10.261   6.307   0.280  1.7851  2.2420 -2.0353
  480MOL0     H64798   9.991   6.264   0.324 -0.5493  2.9728  3.1033
  480MOL0     H64799  10.123   6.150   0.350  1.3047  0.8965 -1.0982
  480MOL0     H64800  10.014   6.171   0.480 -0.3571  0.3439  1.0464
  481MOL0     O64801   6.654  11.422   2.022 -0.4259 -0.5485  1.1029
  481MOL0     C64802   6.692  11.382   1.915 -0.3267  0.7885 -0.0163
  481MOL0     O64803   6.809  11.315   1.892  0.4097 -0.0336  0.1914
  481MOL0     C64804   6.856  11.258   2.008 -0.7551  0.4857 -0.1729
  481MOL0     C64805   6.833  11.131   2.027  0.0178  0.6464 -0.2285
  481MOL0     C64806   6.882  11.051   2.130 -0.0706  1.2916  0.3320
  481MOL0     C64807   6.976  11.115   2.214 -0.0202 -0.6637  0.6441
  481MOL0     O64808   7.027  11.038   2.308  0.3654 -0.0383 -0.3806
  481MOL0     C64809   7.143  11.075   2.377  0.0313 -0.3763 -0.6418
  481MOL0     C64810   7.201  10.955   2.446  1.1100  1.2675 -0.0604
  481MOL0     C64811   7.323  10.968   2.537  0.9106 -0.1682  0.8676
  481MOL0     C64812   7.441  10.970   2.438 -1.2944 -0.8787 -1.0058
  481MOL0     C64813   7.561  11.026   2.514  0.4907 -0.7570 -0.4668
  481MOL0     C64814   7.684  10.997   2.423  0.6127 -0.1433  0.1166
  481MOL0     C64815   7.812  11.038   2.497 -0.3713  0.7236  0.7604
  481MOL0     C64816   7.941  10.982   2.438 -1.0622 -0.4137 -0.6694
  481MOL0     N64817   8.045  10.992   2.551 -0.7726  0.6984  1.3041
  481MOL0     C64818   8.152  10.899   2.551  0.1616 -0.2794 -0.8089
  481MOL0     C64819   8.248  10.961   2.622 -0.0689  0.5772 -0.2028
  481MOL0     C64820   8.383  10.909   2.670 -0.4425 -0.5226 -0.5531
  481MOL0     C64821   8.493  10.904   2.558  1.3218 -0.9368  0.4312
  481MOL0     C64822   8.628  10.857   2.613 -0.0388  0.6533 -0.2459
  481MOL0     C64823   8.714  10.971   2.659 -0.5526 -0.6256 -0.0746
  481MOL0     O64824   8.691  11.100   2.594  0.4233  0.1875  0.2003
  481MOL0     C64825   8.790  11.181   2.587  0.4885  0.0470 -0.5338
  481MOL0     C64826   8.773  11.290   2.501  0.1975 -0.2996 -0.2390
  481MOL0     C64827   8.866  11.386   2.498  1.0485 -0.0904  0.3225
  481MOL0     C64828   8.977  11.389   2.577  0.2338  0.1279 -0.2578
  481MOL0     C64829   9.080  11.501   2.573 -0.3565  0.9532  0.1003
  481MOL0     O64830   9.049  11.593   2.486  0.1691 -0.0536 -0.1823
  481MOL0     C64831   9.130  11.703   2.475 -0.0604  0.3841 -1.2406
  481MOL0     C64832   9.274  11.708   2.469  0.8271 -0.8302  0.4928
  481MOL0     C64833   9.330  11.835   2.444  1.3927 -0.1262  0.1982
  481MOL0     C64834   9.245  11.945   2.442  0.6752 -0.1568  0.4865
  481MOL0     O64835   9.316  12.067   2.417  0.5273 -0.2298  0.0756
  481MOL0     C64836   9.234  12.165   2.343 -0.6631 -0.2151  0.1770
  481MOL0     C64837   9.316  12.288   2.310  0.1599  0.7664  0.1423
  481MOL0     C64838   9.308  12.395   2.415  0.1104 -0.4198  0.5538
  481MOL0     C64839   9.403  12.368   2.530  0.7776 -0.8063 -0.3402
  481MOL0     C64840   9.366  12.456   2.648  0.2260  0.3204 -0.2012
  481MOL0     C64841   9.483  12.490   2.745  0.3527  0.8046  0.5419
  481MOL0     C64842   9.435  12.564   2.879 -0.4068 -0.5796 -0.3567
  481MOL0     C64843   9.539  12.661   2.944  0.1696  0.5699  0.4341
  481MOL0    Cl64844   9.665  12.577   3.035  0.4067  0.1455 -0.5241
  481MOL0     C64845   9.106  11.934   2.445  0.9046  0.4558 -1.3497
  481MOL0     C64846   9.045  11.812   2.470  0.0989 -0.6766 -0.4448
  481MOL0     O64847   9.158  11.514   2.669 -0.1932  0.3681  0.6950
  481MOL0     C64848   8.994  11.274   2.652 -0.5503  0.4161 -0.0403
  481MOL0     C64849   8.896  11.173   2.668 -1.0218  0.2398  0.1330
  481MOL0     N64850   8.195  11.083   2.673  0.2910 -0.0469  0.1478
  481MOL0     N64851   8.079  11.103   2.626  1.1822 -0.0370  0.0959
  481MOL0     C64852   7.016  11.249   2.190  0.0205 -0.2640 -0.6903
  481MOL0     C64853   6.952  11.323   2.084 -0.8409  0.6929  0.4226
  481MOL0     C64854   6.625  11.437   1.795  0.3927  0.4886 -0.2998
  481MOL0     C64855   6.711  11.466   1.688 -0.8407  0.1399  0.1458
  481MOL0     C64856   6.670  11.513   1.566 -0.7604 -0.3588  0.2726
  481MOL0     C64857   6.532  11.521   1.539 -0.0165 -0.1676 -0.5193
  481MOL0     O64858   6.489  11.566   1.415  0.9658 -0.5418  0.2187
  481MOL0     C64859   6.355  11.532   1.373  0.3761 -0.3236  0.3560
  481MOL0     C64860   6.366  11.498   1.226  0.3334  1.0187  0.3329
  481MOL0     C64861   6.238  11.499   1.154  0.2668  0.2652 -0.6849
  481MOL0     C64862   6.254  11.504   0.998 -0.0760 -0.1718 -0.8449
  481MOL0     C64863   6.298  11.371   0.956  0.3639  0.6389  0.1499
  481MOL0     C64864   6.333  11.264   0.909 -0.7736  0.0599 -0.0757
  481MOL0     C64865   6.442  11.487   1.646 -0.7220 -0.9667 -0.6104
  481MOL0     C64866   6.485  11.440   1.771  1.0479  0.4371 -0.4935
  481MOL0     C64867   6.377  11.408   1.878 -0.0583 -0.3484 -0.2366
  481MOL0     H64868   6.775  11.076   1.954 -0.1952 -0.8166  0.9968
  481MOL0     H64869   6.850  10.948   2.141  1.9701  0.5913  0.0652
  481MOL0     H64870   7.209  11.132   2.310 -1.8839  0.1866 -2.1339
  481MOL0     H64871   7.111  11.140   2.459  1.2885  0.9014 -1.0972
  481MOL0     H64872   7.209  10.874   2.373 -0.1154  1.3165 -0.2721
  481MOL0     H64873   7.124  10.924   2.517  1.4446  1.3975  0.3565
  481MOL0     H64874   7.321  10.882   2.604  0.7180  0.2525  1.4029
  481MOL0     H64875   7.309  11.054   2.602 -3.3901 -1.2906  1.7162
  481MOL0     H64876   7.464  10.870   2.398 -1.1559 -1.6092  0.8043
  481MOL0     H64877   7.424  11.035   2.352 -1.8421 -1.7893 -1.6153
  481MOL0     H64878   7.559  11.133   2.539  1.2510 -0.8170 -0.1365
  481MOL0     H64879   7.565  10.979   2.613  3.7304  0.6356  0.1915
  481MOL0     H64880   7.675  10.901   2.371 -0.3093  0.2342 -0.4465
  481MOL0     H64881   7.668  11.067   2.341  1.0433  0.5217  0.5928
  481MOL0     H64882   7.800  10.988   2.594  0.1814  2.3161  1.6803
  481MOL0     H64883   7.818  11.145   2.516 -0.2806  0.7862  0.3905
  481MOL0     H64884   7.923  10.879   2.403 -2.1572  0.1073 -1.6907
  481MOL0     H64885   7.973  11.045   2.354 -1.7236  4.2104  2.2136
  481MOL0     H64886   8.152  10.804   2.499 -1.1217  0.2649 -1.8653
  481MOL0     H64887   8.423  10.982   2.741 -1.6242 -0.4226  0.0264
  481MOL0     H64888   8.371  10.817   2.727 -1.1171  0.3391  0.7323
  481MOL0     H64889   8.458  10.827   2.488 -0.7556 -0.3660  0.7497
  481MOL0     H64890   8.490  11.000   2.506  0.1523 -0.7383  0.8257
  481MOL0     H64891   8.679  10.805   2.531 -0.0617 -3.7670  2.1900
  481MOL0     H64892   8.608  10.788   2.696  1.3749  1.6280  0.9386
  481MOL0     H64893   8.816  10.948   2.628 -0.2634  0.8171 -0.2415
  481MOL0     H64894   8.707  10.977   2.768 -2.2786  3.6810 -0.2013
  481MOL0     H64895   8.689  11.302   2.433 -0.9820  0.6267  1.3293
  481MOL0     H64896   8.845  11.471   2.433  4.6243  1.4114  0.9205
  481MOL0     H64897   9.325  11.612   2.460  2.0239 -0.0440 -1.9310
  481MOL0     H64898   9.438  11.837   2.437  1.6395  0.6274  2.9826
  481MOL0     H64899   9.206  12.123   2.245  1.1051 -0.7071 -0.1459
  481MOL0     H64900   9.143  12.186   2.400 -1.0184 -2.3151  0.4668
  481MOL0     H64901   9.420  12.260   2.290 -0.0062 -0.2793  0.6950
  481MOL0     H64902   9.269  12.328   2.219 -0.6756  0.5776  0.4850
  481MOL0     H64903   9.330  12.491   2.368  0.8369 -1.6189 -1.7305
  481MOL0     H64904   9.203  12.393   2.446  0.1697 -3.6467  0.8990
  481MOL0     H64905   9.503  12.378   2.487  0.2256  2.1529 -1.2117
  481MOL0     H64906   9.409  12.265   2.567 -1.2198 -0.8782 -0.1125
  481MOL0     H64907   9.284  12.407   2.702 -0.2133  0.1335 -1.0170
  481MOL0     H64908   9.335  12.556   2.617  3.3959  1.1176 -1.2320
  481MOL0     H64909   9.537  12.398   2.768 -1.7124 -0.6177 -0.0044
  481MOL0     H64910   9.558  12.553   2.696  0.1178  1.4128  0.9633
  481MOL0     H64911   9.408  12.491   2.957  1.7209 -0.2845  0.7312
  481MOL0     H64912   9.334  12.600   2.857 -1.1658 -2.5451 -0.2833
  481MOL0     H64913   9.572  12.719   2.857 -3.1018 -1.0806 -2.1706
  481MOL0     H64914   9.481  12.736   2.998  0.1528 -0.1185  1.3953
  481MOL0     H64915   9.038  12.018   2.445 -0.5815 -0.6403  0.7828
  481MOL0     H64916   8.939  11.789   2.462  0.1672 -0.5347 -2.0104
  481MOL0     H64917   9.083  11.265   2.715  0.5416  1.7689 -1.3394
  481MOL0     H64918   8.920  11.091   2.734  1.1762  0.1719 -0.6733
  481MOL0     H64919   7.083  11.302   2.258  0.0271 -1.5306  0.3322
  481MOL0     H64920   6.976  11.423   2.051 -0.2994  0.4365  0.0172
  481MOL0     H64921   6.816  11.459   1.715 -1.0696  2.0121  1.7503
  481MOL0     H64922   6.731  11.554   1.486 -1.5933  2.1479  0.8138
  481MOL0     H64923   6.289  11.620   1.381  0.1187 -0.4437 -0.3202
  481MOL0     H64924   6.310  11.452   1.432  1.2051  0.5543  2.2643
  481MOL0     H64925   6.422  11.404   1.219  1.2852  1.6732 -1.7513
  481MOL0     H64926   6.436  11.570   1.182  2.0980 -1.7019 -1.6545
  481MOL0     H64927   6.188  11.589   1.192  2.6412  0.8867  1.2579
  481MOL0     H64928   6.185  11.407   1.180  2.5248 -0.6192  1.1316
  481MOL0     H64929   6.153  11.537   0.971  0.5175  2.0031 -0.6204
  481MOL0     H64930   6.319  11.584   0.962  0.6341  0.1754  1.0854
  481MOL0     H64931   6.365  11.174   0.860  0.5548  0.8506 -0.7336
  481MOL0     H64932   6.335  11.505   1.630 -0.7703 -0.6127  0.0776
  481MOL0     H64933   6.341  11.505   1.913 -1.7489 -2.1219  3.5033
  481MOL0     H64934   6.299  11.345   1.835  0.2827 -1.1014  0.2356
  481MOL0     H64935   6.414  11.352   1.965 -0.1353 -0.1055 -0.0450
  482MOL0     O64936   5.931  10.233   1.324  0.1060  0.0816  0.7556
  482MOL0     C64937   5.924  10.243   1.204 -0.0975  0.4685 -0.5699
  482MOL0     O64938   5.960  10.143   1.118 -0.4694  0.0213  0.4895
  482MOL0     C64939   5.973  10.019   1.161 -0.6571 -0.3283  0.7200
  482MOL0     C64940   5.862   9.954   1.206  0.1747  0.7635 -1.0280
  482MOL0     C64941   5.879   9.828   1.263 -0.0138  0.4290  1.3072
  482MOL0     C64942   6.002   9.758   1.250  0.7021  0.7619 -0.2943
  482MOL0     O64943   6.027   9.638   1.298 -1.0084  0.5192 -0.4225
  482MOL0     C64944   5.983   9.525   1.216 -0.6085  0.3315 -0.6670
  482MOL0     C64945   6.073   9.515   1.086 -0.2202  0.2985  0.5736
  482MOL0     C64946   6.087   9.365   1.025  0.0761 -0.7971 -1.3087
  482MOL0     C64947   6.191   9.350   0.912  0.3757 -0.3224 -0.2305
  482MOL0     C64948   6.181   9.208   0.851 -0.7367  1.1284 -0.2145
  482MOL0     C64949   6.324   9.158   0.844 -0.2231 -0.5028 -0.2865
  482MOL0     C64950   6.440   9.230   0.778  0.3076  0.3246  0.7570
  482MOL0     C64951   6.540   9.137   0.719  0.3876 -0.7605 -0.0747
  482MOL0     N64952   6.645   9.209   0.647 -1.0164 -0.3275  0.1059
  482MOL0     C64953   6.695   9.165   0.524 -0.3602  0.0241  0.0017
  482MOL0     C64954   6.788   9.258   0.483 -0.7158  0.5948  0.7117
  482MOL0     C64955   6.877   9.236   0.357  0.3706  0.2273 -0.7334
  482MOL0     C64956   7.032   9.246   0.379  1.0485 -0.7982 -0.6938
  482MOL0     C64957   7.077   9.165   0.500 -0.1152  0.0873 -0.7927
  482MOL0     C64958   7.218   9.202   0.543 -0.0283 -0.1218 -0.6662
  482MOL0     O64959   7.250   9.146   0.670  0.4082  0.0152 -0.7792
  482MOL0     C64960   7.276   9.228   0.772  0.3272 -0.4761  0.7983
  482MOL0     C64961   7.174   9.282   0.860  0.3613 -0.1925  1.2408
  482MOL0     C64962   7.213   9.367   0.966  0.7700  0.2538  0.9066
  482MOL0     C64963   7.349   9.393   0.981 -0.3252 -0.3675 -0.5216
  482MOL0     C64964   7.391   9.472   1.102  1.1078 -0.2075  0.1374
  482MOL0     O64965   7.513   9.543   1.079 -0.0869 -0.3118 -0.2736
  482MOL0     C64966   7.561   9.605   1.191  0.6859 -0.1115  0.3340
  482MOL0     C64967   7.603   9.529   1.295  0.1139  0.2740  0.0472
  482MOL0     C64968   7.634   9.607   1.409  0.2214 -0.5822 -0.6593
  482MOL0     C64969   7.617   9.747   1.416 -0.3764 -0.3282  0.3912
  482MOL0     O64970   7.639   9.821   1.531  0.0224 -0.2020  0.1150
  482MOL0     C64971   7.751   9.785   1.605 -0.6417 -0.8893 -0.0143
  482MOL0     C64972   7.769   9.868   1.725  0.1274  0.3109 -0.2248
  482MOL0     C64973   7.910   9.873   1.785  0.0072  0.3633 -0.1445
  482MOL0     C64974   8.012   9.940   1.700  0.2101  0.7144  0.1308
  482MOL0     C64975   8.139   9.952   1.786 -0.0526  0.0350  0.1236
  482MOL0     C64976   8.248  10.032   1.718 -0.1073 -0.0238  0.5079
  482MOL0     C64977   8.287   9.978   1.579  0.7044 -0.8337 -0.7699
  482MOL0     C64978   8.427  10.037   1.558 -0.3652  0.2268  0.1615
  482MOL0    Cl64979   8.424  10.211   1.549 -0.0287 -0.3851  0.1527
  482MOL0     C64980   7.587   9.817   1.296 -0.3505 -0.2170  0.0246
  482MOL0     C64981   7.559   9.746   1.189  0.1803  0.8311 -0.5343
  482MOL0     O64982   7.320   9.466   1.204  0.2391 -1.0066  0.6729
  482MOL0     C64983   7.450   9.355   0.883  1.2319  0.3233 -0.4294
  482MOL0     C64984   7.412   9.268   0.780  0.9024 -0.1149  0.8197
  482MOL0     N64985   6.785   9.352   0.582  0.9431  0.2615  0.0238
  482MOL0     N64986   6.695   9.333   0.669  0.4239 -0.1919 -1.0839
  482MOL0     C64987   6.109   9.823   1.191 -1.2979  0.3370 -0.9138
  482MOL0     C64988   6.102   9.961   1.162 -0.7602  0.8292 -0.1090
  482MOL0     C64989   5.878  10.364   1.148  0.7662 -0.3850  0.7088
  482MOL0     C64990   5.918  10.390   1.015 -0.5576  0.2662 -0.5297
  482MOL0     C64991   5.929  10.519   0.958  0.5705 -0.2473  0.1434
  482MOL0     C64992   5.891  10.631   1.040  0.1488 -0.2397 -0.0540
  482MOL0     O64993   5.906  10.754   0.987  0.5849 -0.5956  0.5982
  482MOL0     C64994   5.927  10.871   1.070 -0.1553  0.9770  0.8270
  482MOL0     C64995   5.950  10.982   0.971  0.2875  0.6001 -0.2681
  482MOL0     C64996   6.056  10.953   0.865 -0.2364 -0.0004  0.4477
  482MOL0     C64997   6.063  11.059   0.758  0.0826 -0.3434  0.0475
  482MOL0     C64998   6.017  11.190   0.795  0.7214  0.2866 -1.0989
  482MOL0     C64999   5.967  11.292   0.836  0.0223  0.1119  0.2359
  482MOL0     C65000   5.838  10.599   1.169 -0.1352  0.3886 -0.3839
  482MOL0     C65001   5.820  10.470   1.223  0.4988 -0.1754  0.6052
  482MOL0     C65002   5.757  10.458   1.353  0.3157 -0.2740 -0.9428
  482MOL0     H65003   5.772  10.013   1.223 -0.4213 -0.3347 -0.2655
  482MOL0     H65004   5.796   9.788   1.320 -1.4979  3.5827  1.5439
  482MOL0     H65005   5.998   9.437   1.279 -1.9857  1.6197  1.5790
  482MOL0     H65006   5.879   9.528   1.183 -1.0346  6.2571  0.1059
  482MOL0     H65007   6.172   9.551   1.116 -0.6932  0.5302  1.8925
  482MOL0     H65008   6.033   9.579   1.007  0.1970  1.2071  1.0761
  482MOL0     H65009   5.982   9.357   0.997 -0.6089  0.8821  0.5431
  482MOL0     H65010   6.116   9.294   1.103 -3.4720  2.2693  3.2968
  482MOL0     H65011   6.184   9.422   0.831  1.3271  2.7944  2.2699
  482MOL0     H65012   6.289   9.367   0.957  0.7731  0.2702 -1.2867
  482MOL0     H65013   6.127   9.140   0.918 -0.1972 -1.3229 -2.1366
  482MOL0     H65014   6.140   9.194   0.751 -2.9413 -0.3898  0.8152
  482MOL0     H65015   6.364   9.137   0.943  4.7984  0.6950 -1.7804
  482MOL0     H65016   6.305   9.071   0.779  0.3973  0.5358 -1.9168
  482MOL0     H65017   6.476   9.293   0.859 -4.0714  1.0892  2.3867
  482MOL0     H65018   6.404   9.295   0.697 -0.2769  1.9726  2.2726
  482MOL0     H65019   6.588   9.074   0.794  0.1156 -0.1343  0.6372
  482MOL0     H65020   6.485   9.072   0.650 -1.2487 -1.8866  2.1598
  482MOL0     H65021   6.689   9.069   0.475  1.7986 -0.7428  1.1284
  482MOL0     H65022   6.843   9.138   0.325  0.4342 -0.2429  0.5851
  482MOL0     H65023   6.853   9.316   0.286  5.9251  2.7834 -0.2678
  482MOL0     H65024   7.085   9.215   0.288 -0.4528  0.3960 -2.0314
  482MOL0     H65025   7.049   9.353   0.391 -0.1128 -0.6845  0.1052
  482MOL0     H65026   7.067   9.058   0.481  0.0377 -0.0387 -0.1758
  482MOL0     H65027   7.020   9.195   0.588 -0.0659 -0.4768 -0.5675
  482MOL0     H65028   7.229   9.311   0.542  0.8869  0.0237  3.6203
  482MOL0     H65029   7.291   9.161   0.473 -0.7810 -5.1580  1.0588
  482MOL0     H65030   7.069   9.265   0.839 -0.1372 -0.5747  3.6848
  482MOL0     H65031   7.135   9.399   1.035 -1.0027  0.8044 -1.2406
  482MOL0     H65032   7.615   9.422   1.291 -0.6504  0.2210 -1.1610
  482MOL0     H65033   7.651   9.567   1.508 -1.2940  1.4325  0.4764
  482MOL0     H65034   7.747   9.679   1.632 -0.9229 -0.5210  1.5031
  482MOL0     H65035   7.845   9.804   1.553  0.4283  1.5707  2.5361
  482MOL0     H65036   7.723   9.964   1.697 -1.4689 -0.8227 -1.7641
  482MOL0     H65037   7.697   9.837   1.801  3.3598 -2.7230  1.8793
  482MOL0     H65038   7.895   9.930   1.877  0.8871 -1.7570  1.4038
  482MOL0     H65039   7.947   9.773   1.810 -1.3293  0.0953  0.9353
  482MOL0     H65040   7.972  10.037   1.671  0.6491  0.7473 -0.3676
  482MOL0     H65041   8.036   9.871   1.618 -5.3446  0.8277 -2.0599
  482MOL0     H65042   8.183   9.858   1.822  3.0100  1.9742  1.8252
  482MOL0     H65043   8.112  10.008   1.875  2.8038  2.8806 -0.6295
  482MOL0     H65044   8.202  10.129   1.702  0.1736  0.1761  0.9018
  482MOL0     H65045   8.340  10.039   1.778  0.5533  0.9786 -0.5944
  482MOL0     H65046   8.214  10.003   1.501 -0.3693  1.8831  0.9739
  482MOL0     H65047   8.290   9.868   1.580  1.7846 -0.8176  0.6990
  482MOL0     H65048   8.504  10.011   1.630  1.0601  0.5224 -1.1952
  482MOL0     H65049   8.456   9.988   1.464 -0.7551 -0.9028  0.6092
  482MOL0     H65050   7.577   9.925   1.294  3.6699  0.3337 -3.2386
  482MOL0     H65051   7.538   9.808   1.103  1.9976  0.0298 -1.6182
  482MOL0     H65052   7.550   9.392   0.902  1.2439 -0.7154  1.8400
  482MOL0     H65053   7.482   9.234   0.704 -0.3354 -0.5890 -0.1522
  482MOL0     H65054   6.207   9.776   1.187 -1.3743  0.0557  0.1501
  482MOL0     H65055   6.193  10.008   1.125 -0.1002  0.3762  0.8805
  482MOL0     H65056   5.955  10.311   0.951 -0.2163  0.5010 -0.6220
  482MOL0     H65057   5.962  10.534   0.856 -0.1119  2.7608  0.2667
  482MOL0     H65058   6.023  10.858   1.122 -0.2556  2.7020  1.5098
  482MOL0     H65059   5.846  10.886   1.141 -1.9238  0.6916 -1.0498
  482MOL0     H65060   5.969  11.071   1.032 -1.0295 -1.2201  2.9808
  482MOL0     H65061   5.852  11.005   0.928  0.8555  1.2349 -1.2847
  482MOL0     H65062   6.034  10.852   0.828 -0.3874 -0.7233  2.3683
  482MOL0     H65063   6.157  10.946   0.907 -0.6102  0.4300  1.4673
  482MOL0     H65064   6.166  11.075   0.725  0.4613 -3.0941 -0.3412
  482MOL0     H65065   6.011  11.020   0.670 -1.5499 -1.2775  1.3605
  482MOL0     H65066   5.926  11.385   0.872 -3.2007 -1.1982  0.2717
  482MOL0     H65067   5.814  10.669   1.248  2.2864 -1.4018  2.1662
  482MOL0     H65068   5.826  10.413   1.424  1.6510 -2.0214 -3.1994
  482MOL0     H65069   5.701  10.548   1.380 -0.0779 -0.1669 -2.0492
  482MOL0     H65070   5.669  10.393   1.341 -2.6026  3.1440  0.0179
  483MOL0     O65071   3.490   4.146   5.747  0.8474 -0.4353  0.1660
  483MOL0     C65072   3.466   4.152   5.624 -0.8044 -0.0879  0.6758
  483MOL0     O65073   3.429   4.268   5.565  0.1629  0.6319  0.2213
  483MOL0     C65074   3.412   4.371   5.648 -0.4454  0.4328 -0.6388
  483MOL0     C65075   3.291   4.389   5.704  1.4585 -0.8630 -0.7232
  483MOL0     C65076   3.240   4.503   5.762 -0.8709  0.3641  0.0766
  483MOL0     C65077   3.327   4.609   5.773 -0.7388  0.3244 -0.1112
  483MOL0     O65078   3.269   4.728   5.822 -0.1497  0.0507 -0.0206
  483MOL0     C65079   3.128   4.744   5.829  0.4563 -0.2239  0.0279
  483MOL0     C65080   3.087   4.882   5.886 -0.1052  0.6809  0.2692
  483MOL0     C65081   3.172   5.000   5.849 -0.0518  0.6043 -0.3673
  483MOL0     C65082   3.117   5.114   5.935  0.1479 -0.5526  0.6730
  483MOL0     C65083   3.143   5.258   5.874 -0.4390  0.0920  0.4158
  483MOL0     C65084   3.131   5.368   5.972 -0.7377  1.2053  0.5314
  483MOL0     C65085   3.125   5.503   5.907  0.0685 -0.2756 -0.8625
  483MOL0     C65086   3.114   5.623   5.993 -0.0486 -0.7163 -0.9006
  483MOL0     N65087   3.242   5.660   6.052 -0.0492 -0.0106  0.3622
  483MOL0     C65088   3.307   5.647   6.170  0.1869  0.1247 -1.3757
  483MOL0     C65089   3.424   5.714   6.173 -0.4469  0.4016  0.3749
  483MOL0     C65090   3.509   5.721   6.290 -0.4478 -0.1815  0.7142
  483MOL0     C65091   3.525   5.867   6.327 -0.4719  0.7424  0.1874
  483MOL0     C65092   3.404   5.924   6.399  1.7014 -1.2369  1.0549
  483MOL0     C65093   3.372   6.061   6.330  0.1588 -0.0293 -0.3799
  483MOL0     O65094   3.256   6.128   6.377 -0.7372  0.3525 -0.5752
  483MOL0     C65095   3.229   6.253   6.319 -0.5509  0.6317 -0.6515
  483MOL0     C65096   3.307   6.325   6.227 -0.4651  0.7643 -0.1083
  483MOL0     C65097   3.260   6.449   6.188 -0.2088 -1.2143  0.1568
  483MOL0     C65098   3.137   6.505   6.238  0.2638  0.0163  0.7652
  483MOL0     C65099   3.084   6.625   6.177  0.0667 -0.2785 -0.4077
  483MOL0     O65100   3.163   6.698   6.091 -0.2120 -0.9627  0.6833
  483MOL0     C65101   3.113   6.817   6.035 -0.2870  0.4563  0.3697
  483MOL0     C65102   3.057   6.816   5.904  0.5006  0.8914 -0.1786
  483MOL0     C65103   2.998   6.931   5.850  0.4975  0.1822  0.1665
  483MOL0     C65104   3.008   7.051   5.920 -0.3148  0.9264 -0.1372
  483MOL0     O65105   2.940   7.163   5.872 -0.6958 -0.6081 -0.0302
  483MOL0     C65106   3.023   7.276   5.853  0.1987 -0.0322  0.3925
  483MOL0     C65107   2.934   7.342   5.745  1.1732  0.1512  0.5168
  483MOL0     C65108   3.007   7.462   5.678 -0.3193  1.5819 -0.2792
  483MOL0     C65109   2.907   7.556   5.604 -1.4014 -0.1681  0.2057
  483MOL0     C65110   2.978   7.632   5.490  0.5908  0.4127 -0.6112
  483MOL0     C65111   2.911   7.759   5.430 -0.0723  0.1489 -0.2330
  483MOL0     C65112   2.975   7.800   5.295 -0.7293  0.1823 -0.6032
  483MOL0     C65113   2.922   7.933   5.241  1.1054  1.0954  0.3567
  483MOL0    Cl65114   2.765   7.918   5.167  0.1552  0.4232  0.2567
  483MOL0     C65115   3.067   7.046   6.047  1.0214  0.0328 -0.3754
  483MOL0     C65116   3.115   6.928   6.106  0.0648 -0.4669 -0.4737
  483MOL0     O65117   2.971   6.661   6.209  0.4046  0.4459 -0.6895
  483MOL0     C65118   3.066   6.433   6.328 -0.3654  0.0568 -0.2270
  483MOL0     C65119   3.111   6.313   6.364 -0.0440  0.5412 -0.3107
  483MOL0     N65120   3.436   5.768   6.047 -0.0189 -0.2590  0.2734
  483MOL0     N65121   3.325   5.732   5.977 -0.0400 -0.6777 -0.1336
  483MOL0     C65122   3.454   4.601   5.722  0.0514  0.0028 -0.4514
  483MOL0     C65123   3.502   4.478   5.662 -0.1520 -0.1288  0.9735
  483MOL0     C65124   3.487   4.028   5.543 -0.4997  0.1687  0.5709
  483MOL0     C65125   3.467   4.028   5.405  0.3123 -1.1692  1.5962
  483MOL0     C65126   3.471   3.912   5.330 -0.9843 -0.1899  1.1290
  483MOL0     C65127   3.508   3.791   5.380 -0.2547 -0.3931  0.3365
  483MOL0     O65128   3.489   3.677   5.302 -0.0087  0.8679  0.5612
  483MOL0     C65129   3.552   3.689   5.170 -0.0593 -0.0810  0.5978
  483MOL0     C65130   3.510   3.562   5.083 -0.7130  0.4059  0.0251
  483MOL0     C65131   3.591   3.560   4.949  0.7769 -0.6450  0.3352
  483MOL0     C65132   3.528   3.464   4.852  0.6804 -0.2344  0.0246
  483MOL0     C65133   3.598   3.464   4.730  0.8968 -0.5754  0.3942
  483MOL0     C65134   3.676   3.472   4.641  1.0367  0.6883 -0.1303
  483MOL0     C65135   3.552   3.793   5.518  0.1492  0.5984  0.5676
  483MOL0     C65136   3.540   3.910   5.601  0.2934  1.0045  0.0850
  483MOL0     C65137   3.590   3.882   5.744 -0.0346 -0.5840 -0.4093
  483MOL0     H65138   3.215   4.313   5.693 -1.8825  2.0524  0.2465
  483MOL0     H65139   3.135   4.495   5.789 -0.8464  0.2355  0.1374
  483MOL0     H65140   3.079   4.737   5.731 -1.3386  0.1324  0.8599
  483MOL0     H65141   3.099   4.668   5.903  1.1019 -0.6531 -0.1479
  483MOL0     H65142   3.092   4.873   5.995 -2.6193  0.4656  0.4208
  483MOL0     H65143   2.986   4.906   5.853 -0.4059  2.2390  2.0974
  483MOL0     H65144   3.153   5.023   5.744  2.3265  3.3788 -0.3216
  483MOL0     H65145   3.280   5.003   5.869 -0.0194  0.4985 -0.5281
  483MOL0     H65146   3.010   5.110   5.953  0.0990 -1.5075  0.2604
  483MOL0     H65147   3.169   5.114   6.031  0.1775  1.9062  0.7223
  483MOL0     H65148   3.246   5.254   5.838 -0.3676  0.6232  0.5552
  483MOL0     H65149   3.086   5.266   5.781 -0.3570 -1.1491  0.2428
  483MOL0     H65150   3.049   5.361   6.044 -1.1211 -1.0819 -0.0763
  483MOL0     H65151   3.219   5.366   6.038 -0.1174 -0.2670 -0.3099
  483MOL0     H65152   3.040   5.512   5.839  0.2099 -0.3697 -1.0520
  483MOL0     H65153   3.210   5.518   5.839 -0.6010  1.0599 -1.4527
  483MOL0     H65154   3.097   5.716   5.937 -0.3637 -0.5303 -0.4993
  483MOL0     H65155   3.044   5.614   6.076 -0.0443  1.3341 -0.6283
  483MOL0     H65156   3.276   5.606   6.265 -0.5374  2.3598 -0.5883
  483MOL0     H65157   3.466   5.670   6.376  3.2478 -0.0989  2.8422
  483MOL0     H65158   3.607   5.678   6.266 -0.5747  1.1121 -2.6710
  483MOL0     H65159   3.613   5.863   6.392 -0.5041  1.2094  0.2630
  483MOL0     H65160   3.567   5.933   6.250 -1.2010  1.0341  0.0338
  483MOL0     H65161   3.409   5.933   6.508 -1.7070  0.5033  1.2188
  483MOL0     H65162   3.318   5.858   6.381  0.1897  1.0704 -0.7587
  483MOL0     H65163   3.379   6.062   6.221  0.4912  1.6087 -0.3660
  483MOL0     H65164   3.453   6.125   6.367 -0.3616  0.2347  0.3111
  483MOL0     H65165   3.407   6.303   6.191  0.0066  2.7594 -0.1632
  483MOL0     H65166   3.317   6.517   6.125 -0.7212 -2.2402 -1.5004
  483MOL0     H65167   3.080   6.728   5.846  2.3210 -1.7850  4.0908
  483MOL0     H65168   2.957   6.934   5.750  0.4232  1.3712  0.2186
  483MOL0     H65169   3.051   7.334   5.941  1.1342 -1.6819  1.2450
  483MOL0     H65170   3.114   7.250   5.799 -0.8561  0.7899 -1.9252
  483MOL0     H65171   2.899   7.274   5.667  1.7351 -0.4330  0.7610
  483MOL0     H65172   2.846   7.390   5.788  0.3394  0.9703 -1.9144
  483MOL0     H65173   3.065   7.510   5.757 -0.1083 -0.3573  0.8038
  483MOL0     H65174   3.081   7.432   5.603  0.2557  1.0657  0.4774
  483MOL0     H65175   2.869   7.625   5.680 -1.1187 -0.6144  0.7669
  483MOL0     H65176   2.821   7.504   5.561 -1.5266  1.5362 -1.7293
  483MOL0     H65177   3.004   7.563   5.409 -0.8772 -0.7641 -0.1443
  483MOL0     H65178   3.072   7.669   5.531  0.0701  0.2544  0.7632
  483MOL0     H65179   2.811   7.718   5.415  0.4924 -1.5456  0.3802
  483MOL0     H65180   2.910   7.842   5.501  1.0045  0.9752 -1.1422
  483MOL0     H65181   2.976   7.724   5.216  0.7131 -1.1866  0.6515
  483MOL0     H65182   3.082   7.823   5.307 -0.6937  0.3951 -1.2860
  483MOL0     H65183   2.929   8.018   5.308  0.2532  3.1402 -1.9822
  483MOL0     H65184   2.991   7.967   5.163  2.8011  0.0370  1.3492
  483MOL0     H65185   3.065   7.143   6.096  0.9672  0.4552 -1.1884
  483MOL0     H65186   3.152   6.934   6.208  1.1010  2.4545 -0.9224
  483MOL0     H65187   2.989   6.481   6.388  3.3468  2.0754  3.4400
  483MOL0     H65188   3.055   6.258   6.439  1.3371 -0.0204  0.3440
  483MOL0     H65189   3.507   4.694   5.736 -0.4070  0.0075  1.4753
  483MOL0     H65190   3.598   4.459   5.615  0.3558 -0.3119  2.0559
  483MOL0     H65191   3.435   4.119   5.355  3.3607  0.3593  2.1682
  483MOL0     H65192   3.424   3.923   5.233  1.4539  2.5064  0.1229
  483MOL0     H65193   3.660   3.672   5.182 -0.0631 -1.4184 -0.8166
  483MOL0     H65194   3.538   3.785   5.121  0.5009  0.6045  1.7365
  483MOL0     H65195   3.403   3.570   5.061 -0.4943  2.2481 -0.5243
  483MOL0     H65196   3.528   3.475   5.146 -1.2532  1.2076  1.3247
  483MOL0     H65197   3.696   3.530   4.957  0.7746 -1.1101 -1.0129
  483MOL0     H65198   3.589   3.653   4.891  2.3628 -1.3317 -0.8856
  483MOL0     H65199   3.507   3.362   4.888  1.3782 -1.2093 -2.1760
  483MOL0     H65200   3.428   3.506   4.842 -0.1449 -1.2405  2.9775
  483MOL0     H65201   3.749   3.479   4.563 -0.2958 -1.2966 -1.6514
  483MOL0     H65202   3.587   3.698   5.558  1.4322  1.1992  0.9130
  483MOL0     H65203   3.666   3.803   5.740  1.8434  1.0759 -5.4293
  483MOL0     H65204   3.649   3.963   5.789  0.3145 -0.1923 -1.5418
  483MOL0     H65205   3.501   3.870   5.806 -2.1923  0.5962 -3.0882
  484MOL0     O65206   1.262   0.231  11.425 -0.5492 -0.4873 -0.5578
  484MOL0     C65207   1.195   0.154  11.359  0.3666 -0.0990 -0.3014
  484MOL0     O65208   1.166   0.024  11.390 -0.0460  0.3956 -0.0493
  484MOL0     C65209   1.205  -0.020  11.517 -0.3487 -0.0868  0.0231
  484MOL0     C65210   1.167   0.044  11.639 -0.0120 -0.1253  0.8891
  484MOL0     C65211   1.235   0.006  11.756 -1.3159  0.0228  0.1806
  484MOL0     C65212   1.323  -0.111  11.762  0.8191 -0.3425  0.7058
  484MOL0     O65213   1.358  -0.155  11.885  0.2576 -0.4436  0.7263
  484MOL0     C65214   1.454  -0.257  11.889 -0.5891  0.3672 -0.2569
  484MOL0     C65215   1.496  -0.287  12.032  0.4355  0.5411  0.4024
  484MOL0     C65216   1.376  -0.347  12.103  0.8830 -0.0314 -0.9138
  484MOL0     C65217   1.301  -0.237  12.197 -0.2470  0.4819  0.0610
  484MOL0     C65218   1.203  -0.321  12.278  0.8414 -0.4974  0.2595
  484MOL0     C65219   1.132  -0.243  12.390  0.2504  0.5249  1.9318
  484MOL0     C65220   1.064  -0.351  12.492  0.3107 -0.8226 -0.6077
  484MOL0     C65221   1.052  -0.283  12.626  0.0619 -0.0494  0.3901
  484MOL0     N65222   1.182  -0.275  12.689 -0.1537 -0.1028  0.7079
  484MOL0     C65223   1.288  -0.367  12.686  0.2443  0.0790  0.4389
  484MOL0     C65224   1.398  -0.309  12.738  0.7901  0.5180  0.6796
  484MOL0     C65225   1.519  -0.362  12.791 -0.1798 -0.7418  0.4392
  484MOL0     C65226   1.501  -0.515  12.825  0.2677  0.5607 -0.4704
  484MOL0     C65227   1.631  -0.575  12.903 -0.1620 -0.8665  0.0425
  484MOL0     C65228   1.641  -0.727  12.907 -0.5650  0.6506 -0.4209
  484MOL0     O65229   1.773  -0.766  12.940 -0.1480  0.3120  0.1094
  484MOL0     C65230   1.807  -0.886  13.009  0.5280  1.1057 -0.1419
  484MOL0     C65231   1.723  -0.997  13.014 -0.0724 -0.0936 -0.3630
  484MOL0     C65232   1.767  -1.110  13.082 -0.5707  1.1661 -1.1975
  484MOL0     C65233   1.890  -1.110  13.144 -0.5040  1.2652  0.0683
  484MOL0     C65234   1.924  -1.226  13.234 -0.8238 -0.1322 -0.3725
  484MOL0     O65235   1.839  -1.325  13.250  0.7936  0.0961 -0.2973
  484MOL0     C65236   1.835  -1.393  13.372  0.1533  0.6645  0.6014
  484MOL0     C65237   1.748  -1.353  13.477 -0.2570 -0.6809  0.8228
  484MOL0     C65238   1.753  -1.417  13.600 -0.5493  0.6548  0.3038
  484MOL0     C65239   1.825  -1.530  13.623 -0.3388 -0.2513 -0.1828
  484MOL0     O65240   1.830  -1.595  13.741  0.0080 -0.9077 -0.4245
  484MOL0     C65241   1.769  -1.540  13.857  0.1679  0.5055  0.0244
  484MOL0     C65242   1.795  -1.622  13.980  0.2601  0.4415  0.2826
  484MOL0     C65243   1.711  -1.752  13.985  0.4268 -0.7156  0.0848
  484MOL0     C65244   1.737  -1.841  14.106  0.6027  0.2513  0.9439
  484MOL0     C65245   1.650  -1.968  14.099  0.8884 -0.1772 -0.2165
  484MOL0     C65246   1.689  -2.061  14.210  0.2061 -0.2779 -0.2923
  484MOL0     C65247   1.808  -2.141  14.174  0.5495  0.5737 -0.6248
  484MOL0     C65248   1.800  -2.277  14.244  0.2543  0.4234 -1.2232
  484MOL0    Cl65249   1.800  -2.280  14.424  0.0479  0.2544 -0.3067
  484MOL0     C65250   1.912  -1.573  13.520  0.1990 -0.4761  0.3743
  484MOL0     C65251   1.927  -1.497  13.401  0.0531 -0.6574 -0.0924
  484MOL0     O65252   2.033  -1.229  13.284  0.5161 -0.1778  0.3520
  484MOL0     C65253   1.966  -1.002  13.140  0.4724 -1.0117  0.8843
  484MOL0     C65254   1.925  -0.889  13.071 -0.0278 -0.4977  0.1547
  484MOL0     N65255   1.365  -0.178  12.752 -0.2489 -0.1654 -0.4070
  484MOL0     N65256   1.242  -0.163  12.723  0.0951  0.0452  0.4538
  484MOL0     C65257   1.365  -0.161  11.640 -0.5081 -0.0933 -0.1852
  484MOL0     C65258   1.309  -0.118  11.521  0.1502  0.0842  0.1849
  484MOL0     C65259   1.144   0.194  11.224  0.0936 -0.2833 -0.4412
  484MOL0     C65260   1.091   0.323  11.205  0.3864  0.3800 -0.0246
  484MOL0     C65261   1.043   0.364  11.078  0.0397  0.1220  1.0234
  484MOL0     C65262   1.041   0.275  10.971  0.4020 -0.6490 -0.0613
  484MOL0     O65263   0.962   0.314  10.871  0.3006 -0.1482  0.5393
  484MOL0     C65264   0.823   0.307  10.895 -0.6187  0.7035 -0.2305
  484MOL0     C65265   0.762   0.201  10.798 -0.0908 -0.7893  0.1318
  484MOL0     C65266   0.786   0.253  10.656  0.0782 -0.4464 -0.3399
  484MOL0     C65267   0.738   0.158  10.550 -0.0185 -0.4010  0.0444
  484MOL0     C65268   0.594   0.139  10.542  0.5165  0.2026  0.4039
  484MOL0     C65269   0.473   0.140  10.523  0.1274  0.6783  0.1404
  484MOL0     C65270   1.087   0.146  10.985  0.0511 -0.7532  0.6402
  484MOL0     C65271   1.144   0.110  11.109  0.3934 -0.1540 -0.3300
  484MOL0     C65272   1.231  -0.015  11.109  0.6562  0.4200  0.2735
  484MOL0     H65273   1.097   0.126  11.640  0.3960  0.3406  4.7648
  484MOL0     H65274   1.205   0.057  11.847  2.3250  0.3555  1.3522
  484MOL0     H65275   1.417  -0.350  11.844  2.9237 -0.3513 -2.0787
  484MOL0     H65276   1.540  -0.217  11.834 -0.5610  0.9411  0.1942
  484MOL0     H65277   1.515  -0.188  12.075  1.3720 -0.7325  3.1588
  484MOL0     H65278   1.584  -0.351  12.029  1.1424  1.5167 -1.8274
  484MOL0     H65279   1.416  -0.419  12.175 -0.0376  0.1187 -0.2319
  484MOL0     H65280   1.311  -0.404  12.036  0.8112 -0.4831 -0.4674
  484MOL0     H65281   1.379  -0.194  12.261 -0.1463  0.5868 -0.1314
  484MOL0     H65282   1.259  -0.149  12.147  2.6370  1.8675 -0.1174
  484MOL0     H65283   1.134  -0.354  12.200  1.1890  0.3718 -0.4408
  484MOL0     H65284   1.252  -0.411  12.314 -0.7387 -2.0675 -1.2847
  484MOL0     H65285   1.203  -0.179  12.443  2.5456  1.3526 -1.7585
  484MOL0     H65286   1.059  -0.180  12.339  0.0048 -1.2264 -0.0308
  484MOL0     H65287   1.120  -0.444  12.503  2.3009  0.5442  1.9576
  484MOL0     H65288   0.963  -0.370  12.453  0.6490 -2.9171 -0.5579
  484MOL0     H65289   1.016  -0.182  12.606  0.1242 -0.2080 -0.6001
  484MOL0     H65290   0.972  -0.328  12.685 -0.0610 -0.8326 -0.3428
  484MOL0     H65291   1.270  -0.469  12.653 -4.0053  0.0795  2.1928
  484MOL0     H65292   1.592  -0.342  12.712  0.0851 -0.8163  0.6615
  484MOL0     H65293   1.565  -0.315  12.879  0.0063  3.1110 -1.4986
  484MOL0     H65294   1.419  -0.533  12.896  2.1962 -3.5356  1.0521
  484MOL0     H65295   1.475  -0.570  12.735 -3.9440 -1.2749  1.5717
  484MOL0     H65296   1.639  -0.536  13.005 -0.3816  0.5687 -0.4728
  484MOL0     H65297   1.709  -0.541  12.834 -0.8535  2.4264  0.7033
  484MOL0     H65298   1.600  -0.754  12.809 -4.0438 -0.9432  1.3074
  484MOL0     H65299   1.571  -0.763  12.982  1.4349 -1.2379  0.6209
  484MOL0     H65300   1.624  -1.000  12.971  0.4393 -0.7673 -1.5539
  484MOL0     H65301   1.704  -1.195  13.059  0.5569  0.6446 -2.4501
  484MOL0     H65302   1.686  -1.265  13.480 -1.4324 -1.5009  1.5190
  484MOL0     H65303   1.699  -1.370  13.681 -5.4653 -1.0637 -1.6272
  484MOL0     H65304   1.805  -1.439  13.877 -0.1234  1.1051 -2.1869
  484MOL0     H65305   1.662  -1.539  13.833 -0.1244  1.5820  1.2691
  484MOL0     H65306   1.901  -1.651  13.984  0.2665 -0.2017 -2.5539
  484MOL0     H65307   1.767  -1.549  14.057  0.6855  2.9368 -1.7747
  484MOL0     H65308   1.606  -1.722  13.978  1.1307  1.5753 -2.4858
  484MOL0     H65309   1.736  -1.808  13.894  1.0835 -0.6829  0.2376
  484MOL0     H65310   1.723  -1.784  14.199  1.2942  0.1615  1.1093
  484MOL0     H65311   1.841  -1.874  14.099 -0.4112 -2.7505 -2.6689
  484MOL0     H65312   1.652  -2.017  14.002  0.6975 -1.3436  0.3564
  484MOL0     H65313   1.545  -1.938  14.106  0.5824 -1.5378  1.6124
  484MOL0     H65314   1.713  -2.008  14.302 -0.9778  1.9852 -1.2000
  484MOL0     H65315   1.602  -2.121  14.238 -0.8425  1.6909  0.9146
  484MOL0     H65316   1.908  -2.100  14.190  1.7333 -1.9783 -0.9962
  484MOL0     H65317   1.798  -2.171  14.069 -0.9302 -0.8172 -0.1317
  484MOL0     H65318   1.705  -2.325  14.220 -0.4907  1.2465 -0.0163
  484MOL0     H65319   1.889  -2.331  14.210 -0.2370  0.1189 -2.0699
  484MOL0     H65320   1.971  -1.662  13.538 -0.1620 -0.2603  2.8784
  484MOL0     H65321   1.990  -1.532  13.321 -3.0572 -4.2265 -1.2988
  484MOL0     H65322   2.059  -1.005  13.195  0.4137  0.4155  1.0918
  484MOL0     H65323   1.986  -0.799  13.061 -0.6203 -0.1807 -0.7390
  484MOL0     H65324   1.443  -0.236  11.634  2.8300  2.8653  2.2828
  484MOL0     H65325   1.340  -0.150  11.421 -0.9273 -1.7450  0.3941
  484MOL0     H65326   1.096   0.396  11.285  0.0937 -1.0493  1.3614
  484MOL0     H65327   1.017   0.467  11.056 -1.4914 -0.7553 -1.6493
  484MOL0     H65328   0.770   0.402  10.888 -1.3153  0.9241  4.5298
  484MOL0     H65329   0.806   0.275  10.998 -1.7792  2.8093  0.2855
  484MOL0     H65330   0.657   0.183  10.823  0.3814 -1.2178  1.9348
  484MOL0     H65331   0.832   0.118  10.811  0.4224 -0.4810 -0.5552
  484MOL0     H65332   0.888   0.285  10.632  0.7324 -2.2023 -0.0315
  484MOL0     H65333   0.731   0.348  10.652  0.7689  0.0093  0.5786
  484MOL0     H65334   0.772   0.195  10.453 -3.8650  4.1733  0.0861
  484MOL0     H65335   0.783   0.061  10.572 -1.9029 -1.6868 -1.4333
  484MOL0     H65336   0.369   0.165  10.512  0.7163  3.3835  0.0771
  484MOL0     H65337   1.065   0.090  10.895  0.0110  1.4089 -0.7802
  484MOL0     H65338   1.333   0.018  11.129  0.2525  1.2122  1.0860
  484MOL0     H65339   1.196  -0.094  11.176  1.4430 -0.6298 -0.5199
  484MOL0     H65340   1.234  -0.060  11.009 -0.9764 -0.6470  0.6657
  485MOL0     O65341   7.215   7.703   0.370 -0.3125 -0.2433 -0.1342
  485MOL0     C65342   7.151   7.603   0.340  0.2794  0.3126 -0.6460
  485MOL0     O65343   7.105   7.563   0.217 -0.4906 -0.0739 -0.3450
  485MOL0     C65344   7.111   7.654   0.106 -0.5564 -0.1011 -0.3288
  485MOL0     C65345   7.140   7.797   0.105  0.0460  0.0012 -0.6088
  485MOL0     C65346   7.138   7.860  -0.022  0.0514  0.3082 -0.1703
  485MOL0     C65347   7.120   7.792  -0.150  1.0081 -1.0251  1.4075
  485MOL0     O65348   7.115   7.859  -0.275 -0.7447  0.5344 -0.1875
  485MOL0     C65349   7.148   7.784  -0.393 -0.0428 -0.2222 -1.2548
  485MOL0     C65350   7.154   7.870  -0.519 -0.2289  0.2017 -0.1537
  485MOL0     C65351   7.212   7.779  -0.631  0.8220  0.0127  0.3225
  485MOL0     C65352   7.226   7.841  -0.768  0.3723 -0.4727  0.5809
  485MOL0     C65353   7.310   7.763  -0.870  0.7945  0.1661 -0.3760
  485MOL0     C65354   7.276   7.609  -0.876  0.1699 -0.1807  0.4602
  485MOL0     C65355   7.348   7.552  -0.999  0.1445 -0.0360  0.3172
  485MOL0     C65356   7.490   7.518  -0.963  0.4456 -0.2417  0.3268
  485MOL0     N65357   7.559   7.460  -1.067  0.1435  0.4533 -0.0743
  485MOL0     C65358   7.559   7.328  -1.078 -0.1935  0.1004 -1.0126
  485MOL0     C65359   7.637   7.303  -1.185  0.5323  0.0379  0.2619
  485MOL0     C65360   7.672   7.163  -1.234 -0.1510  0.4410 -0.1206
  485MOL0     C65361   7.827   7.155  -1.242  0.0789  0.5218  0.5958
  485MOL0     C65362   7.866   7.216  -1.379 -0.1057  0.7076 -0.1619
  485MOL0     C65363   8.017   7.216  -1.370 -0.4122  0.2269  1.4728
  485MOL0     O65364   8.058   7.293  -1.480 -0.4819 -0.3761  0.2894
  485MOL0     C65365   8.180   7.355  -1.480 -0.4717  0.1680  0.3448
  485MOL0     C65366   8.293   7.303  -1.421  0.4811 -0.0841  0.1269
  485MOL0     C65367   8.408   7.377  -1.419 -0.5821 -0.3260  0.5899
  485MOL0     C65368   8.420   7.502  -1.489  0.3294  0.2276  0.3540
  485MOL0     C65369   8.554   7.577  -1.484  0.2882  0.7013  0.4796
  485MOL0     O65370   8.671   7.503  -1.465 -0.0819  0.2593 -0.1174
  485MOL0     C65371   8.795   7.568  -1.462  0.1608  0.7639  0.5238
  485MOL0     C65372   8.835   7.644  -1.576  0.6808  1.5239  0.6395
  485MOL0     C65373   8.966   7.684  -1.590  0.1920  0.2011 -0.8457
  485MOL0     C65374   9.066   7.672  -1.495  0.4142 -0.4403 -0.1165
  485MOL0     O65375   9.189   7.713  -1.529 -0.5585  0.9709  0.2442
  485MOL0     C65376   9.306   7.633  -1.485 -0.6006  0.5672 -0.2034
  485MOL0     C65377   9.438   7.629  -1.572  0.1442 -0.4750  0.6691
  485MOL0     C65378   9.419   7.595  -1.725  0.0359  1.2329 -0.1052
  485MOL0     C65379   9.546   7.634  -1.805  0.5608  0.3517 -0.2527
  485MOL0     C65380   9.535   7.615  -1.952  0.3900  0.0051  0.0724
  485MOL0     C65381   9.623   7.707  -2.033 -0.5333 -0.5425 -0.7503
  485MOL0     C65382   9.776   7.671  -2.021 -0.9132 -0.8067  0.0023
  485MOL0     C65383   9.875   7.769  -2.082  0.2027  0.2750  0.4189
  485MOL0    Cl65384  10.038   7.707  -2.125  0.1576 -0.0630 -0.4195
  485MOL0     C65385   9.034   7.586  -1.387 -0.8008 -0.2306 -0.6785
  485MOL0     C65386   8.901   7.529  -1.373  0.0523 -0.4803  0.0790
  485MOL0     O65387   8.551   7.699  -1.520 -0.0264  0.1655  0.5297
  485MOL0     C65388   8.308   7.546  -1.559  0.4031  0.2177 -0.5989
  485MOL0     C65389   8.189   7.476  -1.552 -0.5490 -0.0045  0.1261
  485MOL0     N65390   7.688   7.417  -1.229  0.2253 -0.4592 -0.2828
  485MOL0     N65391   7.644   7.516  -1.157  0.1780  0.8503 -0.8659
  485MOL0     C65392   7.118   7.655  -0.140  1.1755  0.9640  0.7687
  485MOL0     C65393   7.102   7.590  -0.020  0.1630  0.0481 -0.4402
  485MOL0     C65394   7.116   7.502   0.434 -0.2514  0.2057 -1.1962
  485MOL0     C65395   6.999   7.428   0.417  0.2679 -0.0634  0.7752
  485MOL0     C65396   6.951   7.344   0.517 -0.5044 -0.6139  0.3990
  485MOL0     C65397   7.008   7.342   0.647 -0.8612  0.6814  0.1364
  485MOL0     O65398   6.941   7.263   0.736 -0.2633 -0.1512 -0.4869
  485MOL0     C65399   7.002   7.245   0.862  0.5191  0.2740  1.0625
  485MOL0     C65400   6.979   7.363   0.958 -1.0297  1.2231 -0.0225
  485MOL0     C65401   7.060   7.329   1.085  0.3808  0.3466  0.7218
  485MOL0     C65402   7.031   7.202   1.165  1.2985  0.0955  0.6128
  485MOL0     C65403   7.120   7.194   1.281  0.1426  0.4738  0.0312
  485MOL0     C65404   7.206   7.184   1.366 -0.0293  0.3675 -0.5848
  485MOL0     C65405   7.130   7.400   0.668  1.5113 -0.3810 -0.3000
  485MOL0     C65406   7.186   7.480   0.564 -0.3510 -0.0879 -0.0360
  485MOL0     C65407   7.321   7.539   0.603  0.2258 -0.8483 -0.5921
  485MOL0     H65408   7.161   7.857   0.193  1.3699  1.2491 -1.7354
  485MOL0     H65409   7.140   7.969  -0.021 -2.7043  0.4351  0.7150
  485MOL0     H65410   7.244   7.735  -0.373 -0.9997 -1.8688 -0.3942
  485MOL0     H65411   7.069   7.708  -0.401 -0.9492  0.6289 -0.6075
  485MOL0     H65412   7.219   7.957  -0.508 -0.7438  0.9497 -2.4538
  485MOL0     H65413   7.053   7.901  -0.546 -0.4591 -1.9452 -2.1157
  485MOL0     H65414   7.159   7.684  -0.642  1.2541 -0.1237 -0.7006
  485MOL0     H65415   7.308   7.733  -0.604  0.0135 -2.4850 -0.7382
  485MOL0     H65416   7.127   7.866  -0.808  0.7050  3.8500  1.9084
  485MOL0     H65417   7.272   7.940  -0.757  0.0039 -0.1405 -0.6472
  485MOL0     H65418   7.298   7.812  -0.967 -0.3654  0.1870 -0.2322
  485MOL0     H65419   7.416   7.773  -0.843  0.8664  0.8122 -0.8791
  485MOL0     H65420   7.313   7.550  -0.791  2.3898 -2.4909 -1.8899
  485MOL0     H65421   7.167   7.603  -0.874  0.0935  1.0052  0.3790
  485MOL0     H65422   7.342   7.627  -1.079  0.8812 -1.6226 -1.2698
  485MOL0     H65423   7.302   7.461  -1.037 -3.0604  1.4419  0.3031
  485MOL0     H65424   7.550   7.608  -0.949  0.6266 -0.6609  2.7768
  485MOL0     H65425   7.495   7.459  -0.871  0.9058  3.5288  2.9696
  485MOL0     H65426   7.512   7.251  -1.018  2.6509 -0.7181  0.3795
  485MOL0     H65427   7.646   7.086  -1.161 -3.2307  0.6404 -0.8971
  485MOL0     H65428   7.627   7.120  -1.325 -2.4354  0.9773  0.7027
  485MOL0     H65429   7.872   7.215  -1.163 -1.1609  1.1031  0.8907
  485MOL0     H65430   7.855   7.049  -1.242  1.0386  0.7619  0.2399
  485MOL0     H65431   7.835   7.320  -1.384 -1.0277  0.6798  2.7015
  485MOL0     H65432   7.827   7.169  -1.469  2.9038  0.6846 -1.5724
  485MOL0     H65433   8.058   7.115  -1.373  0.9418  0.7704  0.5416
  485MOL0     H65434   8.044   7.265  -1.276 -1.8567  2.0794  0.9784
  485MOL0     H65435   8.302   7.209  -1.369  1.3293 -0.7493 -1.1534
  485MOL0     H65436   8.498   7.335  -1.376 -0.2675 -0.9431 -0.6352
  485MOL0     H65437   8.765   7.657  -1.658 -1.1996 -0.1560  1.8954
  485MOL0     H65438   8.978   7.735  -1.685 -4.5670 -0.8799 -2.3142
  485MOL0     H65439   9.339   7.677  -1.390  1.2261  0.4904 -0.7566
  485MOL0     H65440   9.272   7.531  -1.464  1.8974 -0.5001 -0.9313
  485MOL0     H65441   9.458   7.736  -1.573 -0.8550 -0.2201  2.6404
  485MOL0     H65442   9.524   7.580  -1.527 -0.2018 -1.8271 -0.0715
  485MOL0     H65443   9.409   7.487  -1.733 -0.3287  1.1746  0.9847
  485MOL0     H65444   9.328   7.643  -1.763 -1.3074  1.2784  2.9199
  485MOL0     H65445   9.639   7.587  -1.772 -0.5158 -1.1952  0.7057
  485MOL0     H65446   9.561   7.741  -1.789 -0.9072  0.8109 -1.6320
  485MOL0     H65447   9.433   7.616  -1.991  0.1727 -2.1506  0.4815
  485MOL0     H65448   9.571   7.512  -1.955 -1.8005 -0.9439  2.7568
  485MOL0     H65449   9.603   7.713  -2.141  1.0288  0.2691 -1.0224
  485MOL0     H65450   9.610   7.810  -1.998 -2.4301  0.4630 -3.9599
  485MOL0     H65451   9.790   7.577  -2.075 -1.2011 -0.1910 -1.1835
  485MOL0     H65452   9.805   7.668  -1.916 -0.7658  0.6530  0.0212
  485MOL0     H65453   9.839   7.800  -2.180  0.6036  0.7227  0.4118
  485MOL0     H65454   9.899   7.856  -2.020  0.8950  0.4093 -0.0286
  485MOL0     H65455   9.106   7.556  -1.311  1.2114  2.4528 -1.3785
  485MOL0     H65456   8.879   7.452  -1.299 -1.3143 -0.0380  0.1485
  485MOL0     H65457   8.311   7.630  -1.627  0.1466 -0.9260 -2.0855
  485MOL0     H65458   8.094   7.517  -1.586 -0.1995 -0.7413 -1.8890
  485MOL0     H65459   7.110   7.588  -0.225 -0.5352  1.0702  0.8045
  485MOL0     H65460   7.084   7.483  -0.023  0.7193 -0.2163  2.5153
  485MOL0     H65461   6.924   7.455   0.344  1.8829  0.9494 -0.5881
  485MOL0     H65462   6.853   7.299   0.512 -0.6751 -0.7678  3.3363
  485MOL0     H65463   7.108   7.221   0.853  0.1451 -1.9144  1.7631
  485MOL0     H65464   6.957   7.164   0.921 -1.1403 -1.3548 -2.1259
  485MOL0     H65465   6.872   7.367   0.979 -1.1207 -1.5126  0.4253
  485MOL0     H65466   7.026   7.453   0.917  3.0348 -1.7516 -2.7256
  485MOL0     H65467   7.050   7.410   1.157  1.4013 -0.4929  1.8542
  485MOL0     H65468   7.168   7.321   1.066  0.0634 -0.1361 -1.0809
  485MOL0     H65469   6.924   7.213   1.185  1.3597  1.1419  0.3699
  485MOL0     H65470   7.034   7.109   1.107  1.1833  0.4381  0.0546
  485MOL0     H65471   7.279   7.171   1.443 -2.1556 -3.2559  1.1317
  485MOL0     H65472   7.176   7.393   0.766  1.3046  1.4970 -0.0349
  485MOL0     H65473   7.366   7.484   0.686  2.4671  1.7330  0.0413
  485MOL0     H65474   7.387   7.530   0.516  2.0912  2.4541  0.3174
  485MOL0     H65475   7.318   7.643   0.636  1.6607 -1.3217  1.2406
  486MOL0     O65476   4.992   5.996   1.666 -0.2036  0.0574 -0.0091
  486MOL0     C65477   4.946   6.018   1.777  0.0544 -0.2658  1.2650
  486MOL0     O65478   5.014   6.103   1.851 -0.2864  0.6542 -0.8175
  486MOL0     C65479   5.136   6.147   1.815 -0.5612 -0.4272 -0.2517
  486MOL0     C65480   5.234   6.048   1.821 -0.1041  0.6507 -0.3551
  486MOL0     C65481   5.369   6.074   1.801  0.2105 -0.6386 -0.6369
  486MOL0     C65482   5.404   6.203   1.758 -0.1668 -0.3086  0.3963
  486MOL0     O65483   5.531   6.240   1.738  0.1987 -0.4832  1.0311
  486MOL0     C65484   5.628   6.144   1.700 -0.8834 -0.5077 -0.5192
  486MOL0     C65485   5.765   6.217   1.685 -0.3259  0.4507 -0.2694
  486MOL0     C65486   5.833   6.247   1.822  1.3189  0.9432  0.2400
  486MOL0     C65487   5.732   6.304   1.924  0.9233  0.4499 -0.9100
  486MOL0     C65488   5.803   6.344   2.049  0.1047 -0.1778  0.5550
  486MOL0     C65489   5.708   6.409   2.149  0.4326 -0.0022 -0.0103
  486MOL0     C65490   5.740   6.376   2.298  0.1659 -0.7917 -0.8595
  486MOL0     C65491   5.866   6.447   2.352 -0.2327 -0.0454 -0.0061
  486MOL0     N65492   5.899   6.381   2.479 -0.9088 -0.9345  0.0245
  486MOL0     C65493   6.010   6.300   2.481  0.7098  0.0511  1.1130
  486MOL0     C65494   6.062   6.308   2.607  0.6551  0.0132 -1.2463
  486MOL0     C65495   6.189   6.244   2.657 -1.2253 -0.6273  0.2238
  486MOL0     C65496   6.297   6.351   2.657 -0.3376  0.3667  0.4694
  486MOL0     C65497   6.338   6.406   2.523 -0.2671  1.1195  0.1823
  486MOL0     C65498   6.396   6.305   2.423 -0.4621  0.4503  0.1245
  486MOL0     O65499   6.292   6.248   2.334 -0.3994 -0.0778  0.4976
  486MOL0     C65500   6.329   6.172   2.223 -0.3056 -0.5062 -0.0832
  486MOL0     C65501   6.454   6.107   2.214 -0.7441  1.5678  0.0904
  486MOL0     C65502   6.469   6.010   2.113  0.2972  1.0246  0.4429
  486MOL0     C65503   6.378   5.986   2.014 -0.4480 -0.7498 -0.5988
  486MOL0     C65504   6.423   5.896   1.899  0.8700  0.4269  0.4866
  486MOL0     O65505   6.537   5.831   1.914 -0.5666 -0.4155  0.2601
  486MOL0     C65506   6.591   5.743   1.817  0.1461 -0.4519  0.4020
  486MOL0     C65507   6.598   5.775   1.681 -0.5852  0.3215 -0.2317
  486MOL0     C65508   6.679   5.713   1.592 -0.0873 -0.1307 -0.4558
  486MOL0     C65509   6.774   5.622   1.628  0.9294 -0.1109 -0.4938
  486MOL0     O65510   6.849   5.547   1.533 -0.3629 -0.4154  0.4977
  486MOL0     C65511   6.862   5.406   1.540  0.1280  0.7836  0.4381
  486MOL0     C65512   6.726   5.336   1.539  0.2276 -0.2672 -0.7077
  486MOL0     C65513   6.729   5.181   1.523 -0.1063  0.7602 -0.3210
  486MOL0     C65514   6.623   5.103   1.599  0.2759  0.3994  0.0395
  486MOL0     C65515   6.611   4.953   1.550 -1.0322 -0.0601 -0.8400
  486MOL0     C65516   6.738   4.869   1.566 -1.0957  0.1089 -1.0012
  486MOL0     C65517   6.726   4.734   1.485 -0.5668 -0.2115 -0.3117
  486MOL0     C65518   6.835   4.637   1.514  0.8444 -0.0195  1.7629
  486MOL0    Cl65519   6.867   4.571   1.354  0.2177  0.0022 -0.1540
  486MOL0     C65520   6.776   5.589   1.761  0.5380  0.4754 -0.2343
  486MOL0     C65521   6.687   5.645   1.848  0.2571 -0.7269 -0.3734
  486MOL0     O65522   6.348   5.890   1.805 -0.0673  0.1944  0.0093
  486MOL0     C65523   6.256   6.054   2.021 -0.0849 -0.1671 -0.5725
  486MOL0     C65524   6.225   6.139   2.128  0.5948 -0.8871 -0.6389
  486MOL0     N65525   5.970   6.377   2.692 -0.5017  0.4637  0.3876
  486MOL0     N65526   5.882   6.422   2.608 -0.1134  0.2555 -0.1870
  486MOL0     C65527   5.309   6.298   1.742  1.3886 -1.2344  0.4101
  486MOL0     C65528   5.173   6.273   1.769 -0.4629  0.0218 -0.0722
  486MOL0     C65529   4.821   5.961   1.830  0.0233  0.6835  0.0702
  486MOL0     C65530   4.807   5.941   1.965 -0.0252  0.0542  0.6162
  486MOL0     C65531   4.691   5.912   2.028 -1.0908 -0.9394  1.0856
  486MOL0     C65532   4.576   5.884   1.949 -1.1034 -0.7084  0.7007
  486MOL0     O65533   4.472   5.845   2.022 -0.3918  0.3226  0.1299
  486MOL0     C65534   4.344   5.812   1.980  1.3686 -0.1429  0.4854
  486MOL0     C65535   4.327   5.673   1.924  0.0463  0.1752 -0.6843
  486MOL0     C65536   4.182   5.631   1.884 -1.1016  0.4470 -0.2206
  486MOL0     C65537   4.190   5.593   1.736  0.1261 -0.3007 -0.2375
  486MOL0     C65538   4.248   5.703   1.653 -0.5873  0.3160 -0.6211
  486MOL0     C65539   4.284   5.801   1.594 -0.2171  0.4810  0.5640
  486MOL0     C65540   4.595   5.886   1.807  0.6156 -0.5472 -0.8603
  486MOL0     C65541   4.710   5.927   1.748  0.5891  1.2146  0.1521
  486MOL0     C65542   4.715   5.947   1.600  0.0615  0.3745  0.2817
  486MOL0     H65543   5.225   5.944   1.852  0.6456  1.0622  1.3844
  486MOL0     H65544   5.446   6.000   1.823  1.9476  0.9965 -0.9106
  486MOL0     H65545   5.647   6.062   1.770  1.4462 -2.2715 -3.0203
  486MOL0     H65546   5.611   6.095   1.604 -0.8322 -1.8382  0.1310
  486MOL0     H65547   5.745   6.303   1.620 -3.7353 -1.8053 -2.5026
  486MOL0     H65548   5.827   6.145   1.631 -0.1448  0.6542 -0.3344
  486MOL0     H65549   5.910   6.324   1.808 -1.2237  3.5455 -0.4139
  486MOL0     H65550   5.870   6.151   1.860  0.5933 -0.0921 -1.5784
  486MOL0     H65551   5.679   6.390   1.883  0.0831  0.8030  0.7987
  486MOL0     H65552   5.653   6.242   1.968  2.2289 -0.9989 -0.5419
  486MOL0     H65553   5.840   6.249   2.089  1.1743  0.4319  1.0650
  486MOL0     H65554   5.885   6.416   2.034  1.9429 -2.3408 -0.3958
  486MOL0     H65555   5.699   6.516   2.131  0.3244 -0.3588 -2.3949
  486MOL0     H65556   5.605   6.376   2.130 -0.2226  0.3304  2.5264
  486MOL0     H65557   5.767   6.270   2.307 -0.9335 -0.9841  0.5124
  486MOL0     H65558   5.651   6.387   2.361  0.4933  1.2208 -0.7070
  486MOL0     H65559   5.944   6.435   2.277 -1.5927 -0.1119 -1.4434
  486MOL0     H65560   5.843   6.553   2.368 -2.2649 -0.3597 -0.5641
  486MOL0     H65561   6.051   6.252   2.393  2.0310 -0.5166  2.0101
  486MOL0     H65562   6.183   6.196   2.755  2.3049  0.0038  0.8733
  486MOL0     H65563   6.232   6.167   2.592 -0.9332  1.5401 -2.3150
  486MOL0     H65564   6.278   6.434   2.726  3.1450  0.1641  1.8720
  486MOL0     H65565   6.388   6.308   2.699  1.5446  0.8298 -2.8259
  486MOL0     H65566   6.412   6.480   2.552 -2.1241  1.6686  4.2907
  486MOL0     H65567   6.253   6.457   2.477 -1.7858 -1.0491  0.4033
  486MOL0     H65568   6.443   6.221   2.475  0.2535 -0.1156 -1.3701
  486MOL0     H65569   6.464   6.356   2.354 -2.7722 -0.3628 -3.0398
  486MOL0     H65570   6.534   6.120   2.285 -2.4251  0.6729  2.2526
  486MOL0     H65571   6.558   5.948   2.122 -0.8256 -1.0288 -1.4033
  486MOL0     H65572   6.531   5.847   1.636 -0.3534  0.2870 -0.6378
  486MOL0     H65573   6.666   5.745   1.489 -2.1729 -0.3047 -0.2903
  486MOL0     H65574   6.927   5.376   1.458 -0.8617 -0.6705  0.1405
  486MOL0     H65575   6.907   5.375   1.635 -2.5547 -0.2433  1.4686
  486MOL0     H65576   6.662   5.362   1.624 -0.0177  0.6657 -1.1682
  486MOL0     H65577   6.671   5.368   1.451  0.4117  5.5920  0.9090
  486MOL0     H65578   6.727   5.154   1.417  0.2603  0.2656 -0.2090
  486MOL0     H65579   6.826   5.148   1.563  0.4145  2.2528 -0.3110
  486MOL0     H65580   6.521   5.141   1.589 -0.9032 -2.6043 -0.2961
  486MOL0     H65581   6.642   5.098   1.706 -3.0351 -1.7178  0.6768
  486MOL0     H65582   6.590   4.949   1.443 -2.6483 -0.4399 -0.5321
  486MOL0     H65583   6.532   4.893   1.596 -2.3018  0.9229 -1.6836
  486MOL0     H65584   6.831   4.911   1.525 -0.9770 -3.3787 -4.9274
  486MOL0     H65585   6.739   4.849   1.673  0.9200 -1.7502 -1.2892
  486MOL0     H65586   6.733   4.770   1.382  3.6718  0.4611 -0.0019
  486MOL0     H65587   6.631   4.688   1.510 -1.8771  2.0617 -0.8489
  486MOL0     H65588   6.919   4.677   1.571  1.3157  1.5691  0.0656
  486MOL0     H65589   6.789   4.559   1.575  0.1511 -0.5953  0.5646
  486MOL0     H65590   6.845   5.518   1.805 -0.3243  1.8426  3.6989
  486MOL0     H65591   6.679   5.607   1.949 -1.2483 -1.2572 -0.6545
  486MOL0     H65592   6.170   6.048   1.954 -3.0341  2.2838  2.6072
  486MOL0     H65593   6.119   6.163   2.138  0.7099 -0.8831  0.9373
  486MOL0     H65594   5.341   6.394   1.704  1.5020 -1.4688 -0.1028
  486MOL0     H65595   5.093   6.346   1.759 -0.5473 -0.1106 -0.3565
  486MOL0     H65596   4.888   5.938   2.037 -0.6955 -3.0624  1.3621
  486MOL0     H65597   4.685   5.917   2.136  6.0094 -1.8071  2.0045
  486MOL0     H65598   4.293   5.884   1.916  2.3370  0.9804  0.9264
  486MOL0     H65599   4.283   5.824   2.070  0.5569 -0.4578 -0.0196
  486MOL0     H65600   4.364   5.605   2.001  0.6270  0.3181 -0.8302
  486MOL0     H65601   4.400   5.660   1.843 -0.7580 -0.0310 -1.3926
  486MOL0     H65602   4.102   5.703   1.905 -2.2148  0.2314 -3.2898
  486MOL0     H65603   4.165   5.538   1.939 -0.8083 -0.4389 -1.5853
  486MOL0     H65604   4.254   5.505   1.724  1.4987  0.6832 -0.3598
  486MOL0     H65605   4.089   5.565   1.703  0.1404 -3.4802  1.9757
  486MOL0     H65606   4.331   5.874   1.531  3.2755  0.1151  2.4867
  486MOL0     H65607   4.516   5.856   1.739 -0.6617  0.2755  0.2189
  486MOL0     H65608   4.772   5.871   1.547  0.1699 -1.6919  3.1483
  486MOL0     H65609   4.620   5.930   1.548  1.6820 -1.5570 -2.3039
  486MOL0     H65610   4.748   6.048   1.571 -3.1766  0.9679 -1.9296
  487MOL0     O65611  10.100   8.259   5.116  0.2018  0.2514  0.2119
  487MOL0     C65612   9.994   8.208   5.159  0.3967 -0.5290 -0.7083
  487MOL0     O65613   9.979   8.104   5.248  0.4868 -0.1270  0.7897
  487MOL0     C65614  10.096   8.049   5.295 -0.6884  0.3594 -0.2709
  487MOL0     C65615  10.151   8.083   5.419 -0.0240  1.4490  0.2403
  487MOL0     C65616  10.269   8.008   5.459  0.6644 -0.5039 -0.1618
  487MOL0     C65617  10.325   7.904   5.391 -0.0070  0.1007 -0.8653
  487MOL0     O65618  10.428   7.845   5.449 -0.7856 -0.0844  0.0111
  487MOL0     C65619  10.458   7.713   5.402  0.2133  0.0418 -0.1622
  487MOL0     C65620  10.598   7.678   5.453  0.5865  0.5044  1.0951
  487MOL0     C65621  10.706   7.780   5.416 -0.0861  0.7500 -0.8587
  487MOL0     C65622  10.752   7.775   5.271  0.4247 -1.4941 -1.1391
  487MOL0     C65623  10.863   7.883   5.240  0.7925  0.0773 -1.3205
  487MOL0     C65624  10.873   7.906   5.090 -0.0316 -0.6988  1.3461
  487MOL0     C65625  10.944   7.785   5.023  0.2796  0.1865  0.1940
  487MOL0     C65626  11.044   7.830   4.917  0.3750  0.1179  1.0177
  487MOL0     N65627  11.184   7.852   4.963  0.2463  0.5132 -0.6797
  487MOL0     C65628  11.277   7.765   4.995 -0.5886 -0.0383  0.0054
  487MOL0     C65629  11.384   7.846   5.036 -0.2936  0.0335 -0.0029
  487MOL0     C65630  11.523   7.810   5.102  0.0923  0.8444  0.1717
  487MOL0     C65631  11.576   7.672   5.069 -0.0451 -0.0120 -1.0168
  487MOL0     C65632  11.661   7.656   4.944 -0.0916  0.6406  0.1007
  487MOL0     C65633  11.712   7.524   4.913 -0.2133  1.1179 -0.0348
  487MOL0     O65634  11.777   7.514   4.784 -0.2320 -0.0613  0.3829
  487MOL0     C65635  11.821   7.391   4.736  0.6289  0.3136 -0.5648
  487MOL0     C65636  11.876   7.373   4.613  0.1654  0.0509  0.8707
  487MOL0     C65637  11.941   7.260   4.567  0.0150  1.0334  0.0177
  487MOL0     C65638  11.964   7.158   4.662  0.1242  0.0884 -0.9007
  487MOL0     C65639  12.057   7.045   4.637 -0.0828  0.3039  0.4381
  487MOL0     O65640  12.043   6.934   4.716 -0.1931  0.1555 -0.3655
  487MOL0     C65641  12.143   6.843   4.717 -0.0729  0.1069  0.4472
  487MOL0     C65642  12.252   6.857   4.807 -0.4611 -0.3653 -0.0364
  487MOL0     C65643  12.354   6.757   4.815 -0.5204  0.3258  0.1967
  487MOL0     C65644  12.334   6.652   4.725 -0.6907  0.3789  0.0770
  487MOL0     O65645  12.417   6.541   4.720 -0.3687  0.7674  1.0991
  487MOL0     C65646  12.368   6.412   4.764 -0.1786 -0.5346  0.1251
  487MOL0     C65647  12.351   6.401   4.926 -0.0830  0.0021  0.1325
  487MOL0     C65648  12.220   6.453   5.000 -0.8986 -0.3150 -0.8441
  487MOL0     C65649  12.200   6.401   5.144  0.6414  0.3988  0.6064
  487MOL0     C65650  12.104   6.277   5.165 -0.1877  0.3922 -0.1690
  487MOL0     C65651  11.958   6.307   5.128  0.5155  0.3919 -0.4722
  487MOL0     C65652  11.871   6.199   5.173  0.6865  0.6912 -0.4986
  487MOL0     C65653  11.899   6.074   5.096 -0.5221 -0.2214 -0.3687
  487MOL0    Cl65654  11.794   5.944   5.159 -0.1945  0.0039 -0.0212
  487MOL0     C65655  12.226   6.645   4.635 -0.1651 -0.1035 -0.0653
  487MOL0     C65656  12.135   6.743   4.620  0.2012 -0.0717 -0.6075
  487MOL0     O65657  12.154   7.060   4.550  0.3354  0.0621 -0.3392
  487MOL0     C65658  11.910   7.178   4.785 -0.1483  0.9115  0.0512
  487MOL0     C65659  11.839   7.285   4.828 -0.0386 -0.3543  0.0750
  487MOL0     N65660  11.341   7.977   5.039 -0.0948 -1.1500 -0.2848
  487MOL0     N65661  11.225   7.977   5.000  0.8824 -0.1184  0.0385
  487MOL0     C65662  10.257   7.869   5.272  0.6360 -0.8872 -0.4984
  487MOL0     C65663  10.149   7.941   5.219 -0.4337 -0.1867 -0.2960
  487MOL0     C65664   9.874   8.282   5.108 -0.0393 -0.4949  0.4525
  487MOL0     C65665   9.746   8.222   5.114  0.6282 -0.9648  0.5588
  487MOL0     C65666   9.640   8.273   5.050 -0.5201  0.8085  0.2322
  487MOL0     C65667   9.647   8.383   4.959  0.1000 -0.1012  0.1182
  487MOL0     O65668   9.553   8.427   4.869 -0.2049  0.6623 -0.6492
  487MOL0     C65669   9.420   8.392   4.890 -0.2557 -0.6449 -0.5904
  487MOL0     C65670   9.339   8.511   4.836  0.6389  0.4703 -0.1067
  487MOL0     C65671   9.190   8.480   4.838 -0.7156  0.7520 -0.2312
  487MOL0     C65672   9.094   8.577   4.769 -0.0054 -0.7230 -0.0692
  487MOL0     C65673   8.951   8.552   4.777  0.7198  0.5849 -0.1421
  487MOL0     C65674   8.831   8.511   4.796 -0.8849  0.0096 -0.1935
  487MOL0     C65675   9.770   8.450   4.961  0.9503 -0.3574 -0.9783
  487MOL0     C65676   9.878   8.405   5.031 -0.8138 -0.6179 -0.7917
  487MOL0     C65677   9.994   8.507   5.020 -0.4659 -0.3898 -1.0552
  487MOL0     H65678  10.105   8.158   5.483  3.9326  2.1058  2.6089
  487MOL0     H65679  10.313   8.038   5.554  1.6216 -1.5339 -0.2608
  487MOL0     H65680  10.392   7.636   5.442  0.4426 -0.9410 -1.5952
  487MOL0     H65681  10.467   7.710   5.293  0.8924 -0.0944 -0.1072
  487MOL0     H65682  10.618   7.586   5.397 -0.8751  0.1895  1.0584
  487MOL0     H65683  10.610   7.643   5.556  0.6903 -2.2388  0.2415
  487MOL0     H65684  10.790   7.752   5.480 -0.7705  0.8369  0.1015
  487MOL0     H65685  10.666   7.878   5.441 -1.3797  0.0277  0.0379
  487MOL0     H65686  10.795   7.679   5.242  2.0009 -0.7008 -1.5528
  487MOL0     H65687  10.665   7.787   5.205  1.0724  4.1859 -1.4635
  487MOL0     H65688  10.840   7.977   5.292  3.2338  1.3226 -2.3363
  487MOL0     H65689  10.957   7.855   5.287  1.6334  1.6165 -2.0166
  487MOL0     H65690  10.776   7.916   5.039  0.7028  2.6533  0.3375
  487MOL0     H65691  10.928   7.997   5.065 -1.6536  0.0982  0.4670
  487MOL0     H65692  10.865   7.716   4.991  0.5354  0.8560 -2.0094
  487MOL0     H65693  11.005   7.733   5.098  4.6508  1.0741 -2.4015
  487MOL0     H65694  11.069   7.752   4.844  1.7114  0.1547  1.4102
  487MOL0     H65695  10.997   7.909   4.858  3.6877 -0.6521 -3.1443
  487MOL0     H65696  11.268   7.657   4.995  0.6944 -0.3830  4.6245
  487MOL0     H65697  11.605   7.876   5.074  1.4108 -0.6536  0.3909
  487MOL0     H65698  11.495   7.821   5.207 -0.2218  2.1328 -0.0296
  487MOL0     H65699  11.632   7.647   5.160 -2.8797 -0.5124  0.6894
  487MOL0     H65700  11.497   7.597   5.064  0.2312 -0.2746 -1.5898
  487MOL0     H65701  11.745   7.726   4.946  0.8564 -0.1851 -3.5215
  487MOL0     H65702  11.593   7.691   4.866  0.0356 -0.9820 -0.7796
  487MOL0     H65703  11.638   7.446   4.932 -0.1670  1.2541  0.7528
  487MOL0     H65704  11.786   7.513   4.993  1.0899 -1.2868 -1.4332
  487MOL0     H65705  11.870   7.453   4.539  0.7633  0.2674  1.0491
  487MOL0     H65706  11.994   7.255   4.472 -0.8463  3.9250 -0.7364
  487MOL0     H65707  12.263   6.942   4.874 -2.7406 -1.6919  2.1799
  487MOL0     H65708  12.439   6.759   4.883 -0.9295 -0.7473  0.7632
  487MOL0     H65709  12.282   6.377   4.706  1.1665  1.0803 -3.0640
  487MOL0     H65710  12.456   6.349   4.749  0.2410 -0.1395  0.8360
  487MOL0     H65711  12.352   6.292   4.937 -0.6038 -0.1410 -1.0523
  487MOL0     H65712  12.441   6.438   4.974 -0.0804  0.6384 -0.3357
  487MOL0     H65713  12.226   6.562   5.001 -1.9164 -0.2389 -1.5959
  487MOL0     H65714  12.130   6.445   4.938 -1.4649  1.2583 -0.2693
  487MOL0     H65715  12.159   6.478   5.211  2.1146  0.2397  1.7555
  487MOL0     H65716  12.298   6.370   5.180  0.6205  0.4087  0.6728
  487MOL0     H65717  12.102   6.256   5.272 -4.0570 -0.8488 -0.3316
  487MOL0     H65718  12.147   6.198   5.102 -0.7607 -0.5791  0.6331
  487MOL0     H65719  11.921   6.398   5.175  1.1875 -0.7747  2.5107
  487MOL0     H65720  11.963   6.318   5.019 -1.9332 -3.8594 -1.2618
  487MOL0     H65721  11.764   6.220   5.157  0.7185  0.1297 -1.5412
  487MOL0     H65722  11.893   6.187   5.279  0.6567  1.8937 -0.3454
  487MOL0     H65723  11.885   6.094   4.990 -0.5273 -1.1508 -0.5585
  487MOL0     H65724  12.001   6.043   5.120 -0.2823  0.5078 -0.4396
  487MOL0     H65725  12.221   6.555   4.573  0.1575  0.0336 -0.2922
  487MOL0     H65726  12.060   6.733   4.542  1.3761 -2.3443 -1.5327
  487MOL0     H65727  11.924   7.113   4.870 -3.2241  1.9141  1.4773
  487MOL0     H65728  11.828   7.281   4.936  0.7035 -1.1268  0.1386
  487MOL0     H65729  10.311   7.796   5.212  3.2443  1.7175 -1.5813
  487MOL0     H65730  10.106   7.905   5.126  3.2533  0.2285 -2.3295
  487MOL0     H65731   9.708   8.140   5.175  0.3605 -0.0858  1.6000
  487MOL0     H65732   9.541   8.230   5.063 -1.1926  2.0755 -0.4964
  487MOL0     H65733   9.395   8.361   4.992  1.9123 -1.2694 -0.2002
  487MOL0     H65734   9.396   8.302   4.833  0.6964 -0.6900 -0.9349
  487MOL0     H65735   9.379   8.532   4.737  1.3296 -3.0791 -0.7222
  487MOL0     H65736   9.360   8.593   4.906 -1.5395  1.6916 -0.7786
  487MOL0     H65737   9.158   8.455   4.940  1.3751 -2.0369 -0.1382
  487MOL0     H65738   9.185   8.388   4.778  1.5262 -0.0495  0.7190
  487MOL0     H65739   9.120   8.675   4.811 -1.2063  0.8400 -2.6862
  487MOL0     H65740   9.128   8.586   4.665 -0.0855  0.4020 -0.0137
  487MOL0     H65741   8.734   8.467   4.800  0.2507 -3.1842 -2.9727
  487MOL0     H65742   9.768   8.551   4.921 -2.3849  1.2896  2.7679
  487MOL0     H65743   9.957   8.610   5.012 -1.3508 -0.8193 -3.0965
  487MOL0     H65744  10.051   8.514   5.113 -2.1258  2.5212 -0.1543
  487MOL0     H65745  10.063   8.492   4.936  0.5853 -1.5400 -0.0195
  488MOL0     O65746  10.064   4.483   8.134 -1.0067 -1.2049  0.8560
  488MOL0     C65747  10.044   4.453   8.247 -0.1151  0.6007 -0.0506
  488MOL0     O65748  10.045   4.544   8.350  0.4264  0.1806  0.5058
  488MOL0     C65749  10.093   4.677   8.339 -0.6593  0.3470 -0.1521
  488MOL0     C65750  10.199   4.710   8.257  0.7244 -0.4516  0.7894
  488MOL0     C65751  10.246   4.839   8.254  0.1264 -1.2937 -0.0853
  488MOL0     C65752  10.190   4.941   8.326  0.8415 -0.2059  0.4504
  488MOL0     O65753  10.247   5.063   8.341  0.7806 -0.4695  0.2920
  488MOL0     C65754  10.212   5.157   8.236  0.1868  0.8078 -0.9218
  488MOL0     C65755  10.280   5.286   8.265  0.1840  0.2406  0.1036
  488MOL0     C65756  10.437   5.271   8.278 -0.0415  0.1967  0.2869
  488MOL0     C65757  10.502   5.418   8.311  0.3046  0.0175 -0.0417
  488MOL0     C65758  10.645   5.401   8.340  0.0854 -0.2148 -0.3769
  488MOL0     C65759  10.725   5.468   8.229  0.6732  0.5986  0.4316
  488MOL0     C65760  10.871   5.476   8.258  0.6641  0.2349 -0.0605
  488MOL0     C65761  10.892   5.557   8.384 -0.7384 -0.8399  0.0467
  488MOL0     N65762  11.032   5.598   8.409  1.4116  0.2259 -0.9337
  488MOL0     C65763  11.115   5.516   8.488  0.4158  0.5326 -0.5823
  488MOL0     C65764  11.232   5.567   8.491  0.4455 -0.0436  0.1146
  488MOL0     C65765  11.354   5.511   8.556  0.4944  0.3361  0.0112
  488MOL0     C65766  11.405   5.589   8.675  0.2187  0.0894 -0.1793
  488MOL0     C65767  11.370   5.520   8.808 -0.2049 -0.5487  0.5077
  488MOL0     C65768  11.425   5.580   8.936 -0.0242 -0.3731  0.3827
  488MOL0     O65769  11.566   5.578   8.920 -0.1978  1.1800  0.7602
  488MOL0     C65770  11.637   5.610   9.032 -0.5905 -0.2332 -0.6292
  488MOL0     C65771  11.617   5.730   9.105 -0.4989  0.3541  0.8283
  488MOL0     C65772  11.704   5.758   9.216  0.0684 -0.0066  0.5898
  488MOL0     C65773  11.792   5.664   9.265 -0.4169  0.4025  0.5112
  488MOL0     C65774  11.867   5.694   9.393 -0.2311  0.2900  0.0227
  488MOL0     O65775  11.985   5.617   9.415 -0.0283 -0.8159 -0.0864
  488MOL0     C65776  12.049   5.621   9.536 -0.0165  0.0653  0.0746
  488MOL0     C65777  12.091   5.503   9.595  0.2209  0.1878  0.5558
  488MOL0     C65778  12.138   5.498   9.727 -0.3872  0.4699  1.0007
  488MOL0     C65779  12.179   5.613   9.793 -0.0261 -0.1146  0.6986
  488MOL0     O65780  12.248   5.601   9.908 -0.1727  0.1407 -0.0217
  488MOL0     C65781  12.243   5.703  10.004  0.3083  0.3693  0.0393
  488MOL0     C65782  12.281   5.649  10.141  0.8291  0.6577  0.0845
  488MOL0     C65783  12.431   5.676  10.166  0.1108  1.1327  0.7075
  488MOL0     C65784  12.480   5.550  10.222  0.5099  0.5561 -0.7197
  488MOL0     C65785  12.633   5.548  10.253  0.9078 -0.1948  0.2701
  488MOL0     C65786  12.674   5.410  10.310  0.6085  0.6984 -0.0624
  488MOL0     C65787  12.823   5.377  10.336  0.4321 -0.3585  0.4218
  488MOL0     C65788  12.905   5.369  10.200  0.9186 -0.4723  0.9532
  488MOL0    Cl65789  12.945   5.543  10.143  0.5832 -0.3218  0.0153
  488MOL0     C65790  12.119   5.730   9.739  0.7946 -0.4783  0.3754
  488MOL0     C65791  12.063   5.736   9.611  0.2082 -0.0179 -0.2336
  488MOL0     O65792  11.822   5.775   9.472  0.0466  0.1644  0.7583
  488MOL0     C65793  11.817   5.540   9.196  0.2937 -0.0434  0.0293
  488MOL0     C65794  11.741   5.519   9.083  0.5848 -0.0423 -0.2802
  488MOL0     N65795  11.223   5.687   8.418 -0.6414  0.3115 -0.1970
  488MOL0     N65796  11.101   5.704   8.381 -0.5756 -1.0569 -0.0755
  488MOL0     C65797  10.087   4.907   8.418  0.7587  0.3997  0.0410
  488MOL0     C65798  10.038   4.769   8.416 -1.6583 -1.2159  0.5406
  488MOL0     C65799  10.013   4.303   8.276  0.5740 -0.0094  0.5484
  488MOL0     C65800   9.940   4.230   8.177 -0.9373 -0.7796  0.4671
  488MOL0     C65801   9.908   4.096   8.186  0.0237 -0.1316 -0.2398
  488MOL0     C65802   9.942   4.038   8.304 -0.1615  0.3455 -0.5600
  488MOL0     O65803   9.895   3.906   8.310  0.0815  0.0678 -0.2952
  488MOL0     C65804   9.929   3.837   8.427 -0.0358  0.6932 -0.1363
  488MOL0     C65805   9.868   3.697   8.422 -0.4937 -0.5047 -0.2897
  488MOL0     C65806   9.725   3.682   8.375  0.2458 -0.3678  0.3209
  488MOL0     C65807   9.653   3.546   8.407 -0.0618 -1.0781  0.5088
  488MOL0     C65808   9.703   3.432   8.328 -0.3000 -0.3241  0.7951
  488MOL0     C65809   9.755   3.350   8.255  0.1425  0.4933 -0.6448
  488MOL0     C65810  10.005   4.101   8.417  0.1210 -0.2210 -0.0369
  488MOL0     C65811  10.041   4.236   8.395 -0.7590 -0.5076 -0.2851
  488MOL0     C65812  10.108   4.297   8.513 -0.6462 -0.4655 -0.1264
  488MOL0     H65813  10.251   4.643   8.190  1.5903 -0.2424  1.2235
  488MOL0     H65814  10.326   4.881   8.194 -0.9172  0.2145 -0.4788
  488MOL0     H65815  10.228   5.120   8.134 -1.0271 -3.7761  0.2999
  488MOL0     H65816  10.103   5.167   8.235 -0.0776 -1.4701 -2.2099
  488MOL0     H65817  10.238   5.330   8.356 -0.7097  1.1634 -0.7183
  488MOL0     H65818  10.256   5.360   8.188  0.0387  1.1934  1.0269
  488MOL0     H65819  10.478   5.227   8.186 -1.7642 -0.1962 -0.3420
  488MOL0     H65820  10.461   5.197   8.355  0.4344 -0.5357 -0.5337
  488MOL0     H65821  10.485   5.479   8.222  2.1292  0.8363  0.1090
  488MOL0     H65822  10.449   5.475   8.388 -0.3690 -0.0892 -0.4229
  488MOL0     H65823  10.674   5.429   8.441  1.6312  0.4528 -0.9671
  488MOL0     H65824  10.667   5.294   8.333 -1.3348 -0.4746 -1.4052
  488MOL0     H65825  10.706   5.410   8.138  1.0719 -2.7735  2.2948
  488MOL0     H65826  10.690   5.569   8.209  1.7645  1.2572  1.6572
  488MOL0     H65827  10.924   5.523   8.174  2.0475  3.4139  2.3517
  488MOL0     H65828  10.900   5.371   8.260 -2.1722 -0.6359  1.1375
  488MOL0     H65829  10.824   5.643   8.384 -1.3883 -1.3476 -0.1489
  488MOL0     H65830  10.861   5.496   8.469 -3.3255  0.7374  0.3651
  488MOL0     H65831  11.094   5.420   8.534 -1.5817  0.9152 -0.6184
  488MOL0     H65832  11.325   5.408   8.575 -1.5467  1.2595  2.5339
  488MOL0     H65833  11.430   5.495   8.479  1.7474 -2.1135  1.6417
  488MOL0     H65834  11.512   5.609   8.670  1.5200 -4.1410  3.8695
  488MOL0     H65835  11.356   5.686   8.663  0.1670  0.1590  0.5420
  488MOL0     H65836  11.397   5.414   8.801 -1.2025 -0.8477  1.0187
  488MOL0     H65837  11.261   5.515   8.818 -0.2763 -1.9462 -0.6298
  488MOL0     H65838  11.395   5.530   9.028 -2.0587  2.0311  1.1364
  488MOL0     H65839  11.387   5.682   8.952  0.0551  0.4466 -3.5962
  488MOL0     H65840  11.539   5.797   9.070 -0.5194 -1.3740 -2.8741
  488MOL0     H65841  11.706   5.857   9.261 -1.0670  1.3313 -2.0742
  488MOL0     H65842  12.076   5.405   9.551  1.7438  0.7246 -1.2592
  488MOL0     H65843  12.140   5.403   9.780 -2.1988 -0.8162 -1.0807
  488MOL0     H65844  12.301   5.793   9.981 -0.7654  0.7222 -1.4422
  488MOL0     H65845  12.145   5.752  10.008  0.0154 -0.0873 -1.1513
  488MOL0     H65846  12.219   5.700  10.216 -0.7455  0.8413 -1.2886
  488MOL0     H65847  12.267   5.541  10.147 -0.8821  0.9345  2.4219
  488MOL0     H65848  12.485   5.686  10.071 -2.6270  0.4044 -1.0465
  488MOL0     H65849  12.433   5.761  10.234 -0.2253  0.8119  1.1226
  488MOL0     H65850  12.462   5.470  10.150 -2.5605  1.1906 -0.7905
  488MOL0     H65851  12.419   5.517  10.306  0.8776  0.1595 -0.6100
  488MOL0     H65852  12.642   5.634  10.319 -0.4467  0.3747 -0.2351
  488MOL0     H65853  12.688   5.566  10.160 -1.8229 -0.2605 -1.4701
  488MOL0     H65854  12.609   5.408  10.398 -2.1590 -0.2925 -2.0322
  488MOL0     H65855  12.637   5.322  10.258  0.7805  0.3258  0.4281
  488MOL0     H65856  12.823   5.279  10.384  0.1089 -1.1841 -1.1875
  488MOL0     H65857  12.866   5.454  10.400 -1.4062  0.4696  0.7361
  488MOL0     H65858  12.996   5.310  10.212  0.9663 -0.2107  1.9648
  488MOL0     H65859  12.836   5.340  10.120 -1.1325  2.6592  1.3976
  488MOL0     H65860  12.147   5.827   9.779 -0.6401  0.3448 -0.5243
  488MOL0     H65861  12.031   5.836   9.580 -0.0512 -0.5365 -1.7047
  488MOL0     H65862  11.877   5.468   9.250 -0.3667 -0.1251  0.6521
  488MOL0     H65863  11.746   5.421   9.038  1.5907 -1.6543  3.0340
  488MOL0     H65864  10.043   4.991   8.471 -1.4421  0.4501 -1.6797
  488MOL0     H65865   9.953   4.751   8.482 -0.8310  2.4391  2.8848
  488MOL0     H65866   9.909   4.284   8.088 -1.0739 -0.9714  0.3952
  488MOL0     H65867   9.857   4.045   8.104 -2.3084 -0.3589  1.2440
  488MOL0     H65868   9.897   3.893   8.515 -0.0057  0.8278 -0.2104
  488MOL0     H65869  10.037   3.833   8.445  0.1850  3.8789 -0.2093
  488MOL0     H65870   9.880   3.645   8.517 -1.3155 -0.6730 -0.2666
  488MOL0     H65871   9.925   3.646   8.344 -0.9966  0.4250 -1.2968
  488MOL0     H65872   9.721   3.687   8.266  1.8100 -1.2487  0.1979
  488MOL0     H65873   9.665   3.762   8.421 -0.6818 -1.6158  1.3738
  488MOL0     H65874   9.662   3.529   8.515 -1.6752  0.0700  0.8576
  488MOL0     H65875   9.544   3.557   8.399  0.3458  4.2465 -1.2554
  488MOL0     H65876   9.797   3.269   8.199  0.2958  0.6121 -0.7028
  488MOL0     H65877  10.022   4.051   8.512  4.7603  2.2332  0.7485
  488MOL0     H65878  10.214   4.321   8.499 -0.7345  0.1686  0.2917
  488MOL0     H65879  10.058   4.390   8.540 -1.5471 -0.6250 -1.1760
  488MOL0     H65880  10.103   4.242   8.608  0.4303 -0.5496 -0.1055
  489MOL0     O65881   3.931   8.515   4.900  0.3555 -0.2721  0.0883
  489MOL0     C65882   3.970   8.430   4.980 -1.0447 -0.0557  0.6802
  489MOL0     O65883   4.092   8.362   4.967 -0.3862 -0.5126 -0.2712
  489MOL0     C65884   4.186   8.387   4.873 -0.1981 -0.1970  0.4418
  489MOL0     C65885   4.307   8.313   4.878  0.4533 -0.1380  0.2275
  489MOL0     C65886   4.407   8.306   4.782 -0.3331 -0.9898 -0.1407
  489MOL0     C65887   4.400   8.401   4.677 -0.4483  0.8206 -0.3524
  489MOL0     O65888   4.507   8.397   4.594  0.2264  0.4508  0.2561
  489MOL0     C65889   4.484   8.434   4.456 -0.5530 -0.0969  0.9394
  489MOL0     C65890   4.609   8.428   4.362  0.8891  0.1000 -0.7157
  489MOL0     C65891   4.733   8.471   4.424 -1.0721  1.0852  0.2582
  489MOL0     C65892   4.808   8.354   4.494 -0.8141  0.6304  0.3298
  489MOL0     C65893   4.956   8.375   4.542 -0.4026  0.4885 -0.0451
  489MOL0     C65894   5.057   8.403   4.426 -0.6968 -1.4080 -0.5483
  489MOL0     C65895   5.195   8.432   4.493 -0.8779  0.2957 -0.3925
  489MOL0     C65896   5.285   8.313   4.522 -0.9150  0.3370  0.4776
  489MOL0     N65897   5.392   8.335   4.621  0.4903 -0.0118 -0.0064
  489MOL0     C65898   5.373   8.370   4.750  0.3766  0.1046  0.4276
  489MOL0     C65899   5.492   8.353   4.816  0.7379  0.5902  1.3985
  489MOL0     C65900   5.518   8.352   4.969 -0.3256  1.0251  0.0639
  489MOL0     C65901   5.393   8.394   5.043  0.2253  0.9272 -0.3226
  489MOL0     C65902   5.414   8.357   5.190  0.0852  1.2006  1.1354
  489MOL0     C65903   5.299   8.406   5.273  0.4085  0.6582 -0.1075
  489MOL0     O65904   5.292   8.550   5.253 -0.7155 -0.3000 -0.0712
  489MOL0     C65905   5.185   8.631   5.286  0.3111 -0.2859 -0.4549
  489MOL0     C65906   5.190   8.771   5.263 -0.2963 -0.7603 -0.1191
  489MOL0     C65907   5.076   8.853   5.287 -0.5517 -0.6287 -0.3072
  489MOL0     C65908   4.968   8.791   5.347  0.2020 -0.2879  0.3301
  489MOL0     C65909   4.858   8.880   5.375 -0.4795  0.5676  0.1613
  489MOL0     O65910   4.847   8.991   5.295 -0.1793 -0.5115  0.5949
  489MOL0     C65911   4.730   9.050   5.295  0.3497  0.1536 -0.3763
  489MOL0     C65912   4.660   9.060   5.173 -0.3820  0.0093 -0.1382
  489MOL0     C65913   4.529   9.114   5.171 -0.7830 -0.6157 -0.5334
  489MOL0     C65914   4.481   9.185   5.282 -0.3928  0.2614 -0.3727
  489MOL0     O65915   4.373   9.265   5.287  0.4427 -0.8104 -0.2493
  489MOL0     C65916   4.308   9.309   5.174  0.4853 -1.0111 -1.4177
  489MOL0     C65917   4.240   9.444   5.192  0.8637  0.9479  0.3592
  489MOL0     C65918   4.110   9.430   5.269  0.5619 -0.4368  0.5583
  489MOL0     C65919   4.026   9.549   5.298  0.4250 -0.1962  0.5934
  489MOL0     C65920   3.965   9.602   5.166  0.2544  0.1573 -0.6375
  489MOL0     C65921   3.863   9.528   5.096 -0.4581 -0.3485  0.3072
  489MOL0     C65922   3.776   9.620   5.017  0.6656  0.1836  0.2579
  489MOL0     C65923   3.665   9.533   4.944 -0.0961 -0.1026  0.0064
  489MOL0    Cl65924   3.530   9.474   5.060  0.2505  0.0444 -0.2769
  489MOL0     C65925   4.556   9.187   5.403  0.0006  0.0744  1.2915
  489MOL0     C65926   4.687   9.128   5.401  0.0987  0.7679 -0.1289
  489MOL0     O65927   4.775   8.843   5.460  0.2287  0.7776  0.6712
  489MOL0     C65928   4.965   8.652   5.374  0.4670 -0.3031  0.6569
  489MOL0     C65929   5.065   8.566   5.336 -0.1139  0.5881  0.2981
  489MOL0     N65930   5.575   8.280   4.728  0.3485  0.7050  0.0854
  489MOL0     N65931   5.506   8.270   4.618 -0.9469  0.8770  0.6104
  489MOL0     C65932   4.280   8.475   4.658 -0.2321 -0.5956 -0.0950
  489MOL0     C65933   4.177   8.471   4.753  1.0188  0.7292 -0.9378
  489MOL0     C65934   3.888   8.390   5.097 -0.2166 -0.7173 -0.3356
  489MOL0     C65935   3.916   8.266   5.162 -0.5556  0.6592 -0.2185
  489MOL0     C65936   3.833   8.225   5.276  1.4021 -0.3833  0.6359
  489MOL0     C65937   3.724   8.309   5.313 -0.8108 -0.3850 -1.0132
  489MOL0     O65938   3.642   8.301   5.423  0.2602  0.3855  0.1286
  489MOL0     C65939   3.658   8.200   5.505  0.4905 -0.4039 -0.5885
  489MOL0     C65940   3.568   8.080   5.475  1.0741 -0.4434  0.9494
  489MOL0     C65941   3.624   7.946   5.520 -0.5163  0.6014  0.7775
  489MOL0     C65942   3.671   7.954   5.670 -0.3962 -0.1868  1.2595
  489MOL0     C65943   3.562   7.956   5.764  0.7487  0.3056  0.0158
  489MOL0     C65944   3.465   7.964   5.841  0.1310  0.0760 -1.0322
  489MOL0     C65945   3.702   8.433   5.250 -0.2440  0.2289  0.8318
  489MOL0     C65946   3.776   8.472   5.136  0.8827 -0.6039  0.7870
  489MOL0     C65947   3.734   8.606   5.075 -0.1576 -0.1200 -0.2626
  489MOL0     H65948   4.303   8.246   4.963  1.2472  0.2980  0.6223
  489MOL0     H65949   4.497   8.245   4.776 -0.8526 -1.8573  0.6503
  489MOL0     H65950   4.408   8.364   4.422  3.4107 -3.3571 -2.3379
  489MOL0     H65951   4.448   8.538   4.451  1.3449  0.5366 -2.9974
  489MOL0     H65952   4.588   8.495   4.278 -0.8370  0.2234 -0.2296
  489MOL0     H65953   4.617   8.327   4.320  2.3051  0.0783 -0.4483
  489MOL0     H65954   4.710   8.545   4.501  0.1524  1.6509  0.1038
  489MOL0     H65955   4.801   8.518   4.352  0.3103 -0.3268  0.5963
  489MOL0     H65956   4.744   8.323   4.577  0.4424  0.2326  1.1960
  489MOL0     H65957   4.820   8.281   4.413  4.0954  1.3267  0.0870
  489MOL0     H65958   4.953   8.454   4.617 -1.2139  1.1534 -0.7486
  489MOL0     H65959   4.985   8.285   4.597  0.4219 -0.6997 -2.2844
  489MOL0     H65960   5.072   8.327   4.349 -0.3536 -0.9656 -0.9273
  489MOL0     H65961   5.035   8.500   4.379  2.0097 -0.5609 -0.2936
  489MOL0     H65962   5.184   8.492   4.584  0.9991  2.7631 -1.6840
  489MOL0     H65963   5.250   8.496   4.424 -3.2164 -1.5788 -4.3206
  489MOL0     H65964   5.221   8.231   4.554 -0.1263  1.0839  4.4462
  489MOL0     H65965   5.329   8.271   4.431  0.4280 -3.0235  2.4637
  489MOL0     H65966   5.285   8.417   4.792  1.0328  1.3322  0.4892
  489MOL0     H65967   5.551   8.253   5.002  1.3171  0.6656 -2.4163
  489MOL0     H65968   5.602   8.415   4.998  1.6428 -1.0825 -0.7504
  489MOL0     H65969   5.380   8.501   5.026 -1.4657  0.7816 -0.1373
  489MOL0     H65970   5.311   8.343   4.991 -1.8818  2.2873  1.4506
  489MOL0     H65971   5.509   8.392   5.230  0.6301 -1.0746  1.9646
  489MOL0     H65972   5.420   8.248   5.193 -2.8568  0.9207 -0.0202
  489MOL0     H65973   5.309   8.376   5.377 -0.5160  0.3446 -0.1042
  489MOL0     H65974   5.204   8.371   5.232 -0.6816  2.8893  0.3883
  489MOL0     H65975   5.283   8.809   5.221  0.5169 -1.1801  1.2506
  489MOL0     H65976   5.077   8.956   5.254  3.1151 -0.4781 -0.1206
  489MOL0     H65977   4.703   9.023   5.081  0.4648  1.2613 -0.2664
  489MOL0     H65978   4.465   9.118   5.083 -2.7189  0.0804  0.8482
  489MOL0     H65979   4.370   9.323   5.085 -0.8321  2.2084 -1.9754
  489MOL0     H65980   4.227   9.241   5.144 -0.4449  1.0144 -3.9256
  489MOL0     H65981   4.311   9.519   5.228  1.6815 -0.7696  2.5275
  489MOL0     H65982   4.205   9.469   5.092  0.6176  1.2425  0.5179
  489MOL0     H65983   4.045   9.365   5.209  0.3892  1.4576 -1.4783
  489MOL0     H65984   4.135   9.381   5.363  1.1364 -1.6793 -0.2117
  489MOL0     H65985   4.084   9.633   5.337 -0.1197  0.8884 -0.8423
  489MOL0     H65986   3.952   9.535   5.377  0.9299  0.7628  1.2543
  489MOL0     H65987   4.041   9.626   5.091 -0.6458 -1.2553 -2.0496
  489MOL0     H65988   3.920   9.698   5.191 -0.2889 -0.6817  1.8793
  489MOL0     H65989   3.910   9.463   5.022 -0.9362  1.4848 -1.7099
  489MOL0     H65990   3.816   9.465   5.171 -1.4935 -1.0597 -0.9012
  489MOL0     H65991   3.821   9.672   4.932 -2.5043 -1.4174 -2.6487
  489MOL0     H65992   3.731   9.688   5.089  0.8389  0.7061 -0.1180
  489MOL0     H65993   3.613   9.588   4.865 -2.2194 -1.9893 -0.0259
  489MOL0     H65994   3.719   9.448   4.900 -1.3084 -1.4842  1.0916
  489MOL0     H65995   4.512   9.250   5.480 -1.3678 -1.4702  1.8329
  489MOL0     H65996   4.758   9.156   5.478 -0.2309  1.0421  0.0747
  489MOL0     H65997   4.874   8.620   5.424 -2.2510  3.6403 -1.2257
  489MOL0     H65998   5.051   8.461   5.357 -4.3072  0.9585  0.1852
  489MOL0     H65999   4.262   8.542   4.575 -2.7283 -1.5124 -0.3565
  489MOL0     H66000   4.082   8.520   4.735  1.9096  3.1155  0.4039
  489MOL0     H66001   3.993   8.192   5.143 -0.3794  1.0702 -1.1614
  489MOL0     H66002   3.849   8.125   5.313  1.2629 -0.7172 -0.1950
  489MOL0     H66003   3.631   8.229   5.607  1.4004 -0.6335 -0.2769
  489MOL0     H66004   3.759   8.160   5.501  0.5189 -0.4311  0.1713
  489MOL0     H66005   3.544   8.073   5.368  4.1362 -1.9361  0.2356
  489MOL0     H66006   3.468   8.089   5.520  2.3958  2.0313  3.6517
  489MOL0     H66007   3.708   7.920   5.455 -0.0080  2.3656  0.6842
  489MOL0     H66008   3.551   7.865   5.512  0.2568 -0.0590  0.1487
  489MOL0     H66009   3.725   7.860   5.685 -0.3232 -0.8003 -2.0758
  489MOL0     H66010   3.738   8.039   5.683  1.5816 -0.8235 -2.8950
  489MOL0     H66011   3.371   7.969   5.893 -0.2971  0.1694 -1.7902
  489MOL0     H66012   3.625   8.498   5.288 -2.7018 -0.4061 -2.5800
  489MOL0     H66013   3.695   8.592   4.973  0.2611  0.4144 -0.5022
  489MOL0     H66014   3.671   8.666   5.140  2.9985  3.8245 -0.4818
  489MOL0     H66015   3.830   8.658   5.070  1.6419 -2.5995  3.9304
  490MOL0     O66016  10.316   0.792   5.633 -0.3689 -0.0445 -0.4885
  490MOL0     C66017  10.330   0.730   5.525 -0.2821 -0.1345  0.5493
  490MOL0     O66018  10.251   0.620   5.483 -0.4627  0.1850  0.4169
  490MOL0     C66019  10.140   0.581   5.557  0.5304  0.0079  0.1949
  490MOL0     C66020  10.162   0.462   5.629 -1.2466 -0.3963  0.2743
  490MOL0     C66021  10.068   0.412   5.720 -0.2655 -0.3024 -0.2656
  490MOL0     C66022   9.937   0.459   5.704  0.5793  0.2770 -0.1725
  490MOL0     O66023   9.833   0.384   5.762 -0.0647  0.2273  0.3915
  490MOL0     C66024   9.767   0.459   5.858  0.0076 -0.5655 -1.2539
  490MOL0     C66025   9.857   0.483   5.980 -0.4598 -1.0705  0.3976
  490MOL0     C66026   9.928   0.617   5.987 -0.3943 -0.6858  0.0139
  490MOL0     C66027   9.835   0.742   6.009  0.6234 -0.3594 -0.1114
  490MOL0     C66028   9.899   0.882   6.020  0.2739 -0.1376  0.2724
  490MOL0     C66029   9.822   0.976   6.118 -0.3780  0.2570 -0.2947
  490MOL0     C66030   9.717   1.054   6.052 -0.3698 -0.2740 -0.8201
  490MOL0     C66031   9.569   1.018   6.087 -0.4694 -0.3423  0.3046
  490MOL0     N66032   9.520   0.883   6.073  0.1144 -0.6164 -0.3377
  490MOL0     C66033   9.499   0.800   6.184  0.9182  0.7000  0.3439
  490MOL0     C66034   9.461   0.684   6.127  0.7201  0.5427  0.1456
  490MOL0     C66035   9.419   0.556   6.205  0.2308 -0.1640  0.5901
  490MOL0     C66036   9.335   0.591   6.331  0.6528 -1.0855 -0.3871
  490MOL0     C66037   9.193   0.645   6.275  1.0546  0.8954  0.0807
  490MOL0     C66038   9.124   0.747   6.371  0.4013  0.0616 -0.6310
  490MOL0     O66039   9.070   0.682   6.484  0.5390 -0.3658 -0.0970
  490MOL0     C66040   8.940   0.639   6.475  0.7456 -1.3960 -0.1267
  490MOL0     C66041   8.826   0.712   6.452 -0.2912 -0.5432  0.0885
  490MOL0     C66042   8.702   0.645   6.446 -0.4358  0.1646  1.1673
  490MOL0     C66043   8.699   0.503   6.459 -0.2169  0.1432 -0.1371
  490MOL0     C66044   8.566   0.444   6.445  0.1670  0.3760 -0.2950
  490MOL0     O66045   8.456   0.532   6.435 -0.6282  0.5565 -0.1939
  490MOL0     C66046   8.327   0.488   6.412  0.1207 -0.0634 -0.6004
  490MOL0     C66047   8.241   0.533   6.306 -0.4910  0.2553 -0.1274
  490MOL0     C66048   8.110   0.482   6.293  0.4448  0.0794  0.1571
  490MOL0     C66049   8.058   0.388   6.393  0.4213  0.1893 -0.0877
  490MOL0     O66050   7.925   0.353   6.408  0.8584  0.4207  1.2343
  490MOL0     C66051   7.829   0.408   6.320 -0.3618  0.7516 -0.3641
  490MOL0     C66052   7.693   0.339   6.345 -0.2085  0.1252  0.1714
  490MOL0     C66053   7.604   0.355   6.216 -0.3015  0.4369 -0.0119
  490MOL0     C66054   7.470   0.280   6.216  0.7631  0.0039  0.1124
  490MOL0     C66055   7.465   0.180   6.097  0.1821 -0.5036 -0.0348
  490MOL0     C66056   7.316   0.144   6.072  0.9251  0.8261  0.0987
  490MOL0     C66057   7.305   0.025   5.983 -0.0215  0.4892  0.5748
  490MOL0     C66058   7.164  -0.003   5.935  0.2145  0.0633  0.8516
  490MOL0    Cl66059   7.147  -0.153   5.840  0.1420  0.1897  0.0497
  490MOL0     C66060   8.139   0.352   6.498  0.9672  0.5055  0.1819
  490MOL0     C66061   8.268   0.398   6.506  0.4697  1.0963  0.4871
  490MOL0     O66062   8.557   0.323   6.460  0.3314 -0.4986  0.3941
  490MOL0     C66063   8.819   0.434   6.495  0.3604  0.1461  0.1908
  490MOL0     C66064   8.940   0.501   6.497  0.3167  0.2203 -0.1861
  490MOL0     N66065   9.458   0.707   5.990 -0.4490  0.0052  0.0671
  490MOL0     N66066   9.489   0.828   5.957 -0.2184  0.8052 -0.6043
  490MOL0     C66067   9.910   0.571   5.620  0.9780  0.0819  0.4778
  490MOL0     C66068  10.008   0.633   5.547  0.9462  0.6734 -0.4387
  490MOL0     C66069  10.437   0.780   5.441  0.1159 -0.1092  0.1871
  490MOL0     C66070  10.561   0.790   5.501  0.1245 -0.0854  0.1711
  490MOL0     C66071  10.663   0.848   5.434 -1.7159 -0.5199 -0.2337
  490MOL0     C66072  10.651   0.905   5.309  0.4024  0.0488 -0.2777
  490MOL0     O66073  10.749   0.978   5.260  0.5580 -0.0578 -0.3679
  490MOL0     C66074  10.722   1.064   5.144  0.6098  0.5571  0.6941
  490MOL0     C66075  10.837   1.152   5.113 -0.9225  0.1639 -0.0559
  490MOL0     C66076  10.943   1.078   5.037 -0.4171  0.7691  0.7864
  490MOL0     C66077  11.080   1.152   5.032  0.9179 -0.1782  0.6130
  490MOL0     C66078  11.158   1.147   5.154  0.8703 -0.0656 -0.5858
  490MOL0     C66079  11.199   1.114   5.261 -1.2071 -0.0211  0.9398
  490MOL0     C66080  10.521   0.880   5.251 -0.1958 -0.2610  0.1389
  490MOL0     C66081  10.409   0.829   5.311 -0.2036  0.5179 -0.1623
  490MOL0     C66082  10.274   0.818   5.245 -0.4386  0.1170 -0.2341
  490MOL0     H66083  10.267   0.435   5.634  0.8398  6.1885  2.5042
  490MOL0     H66084  10.094   0.330   5.786 -1.4516 -0.3163  0.2097
  490MOL0     H66085   9.747   0.560   5.823  0.6436 -0.9943 -2.9576
  490MOL0     H66086   9.672   0.409   5.881  0.5919 -1.3210 -0.3627
  490MOL0     H66087   9.921   0.394   5.984 -3.9645 -4.1431 -3.4399
  490MOL0     H66088   9.795   0.478   6.070  1.5576  2.0316  2.1554
  490MOL0     H66089   9.988   0.642   5.899 -0.5689 -0.2013  0.0244
  490MOL0     H66090  10.001   0.612   6.068  2.6570  1.3404 -2.3525
  490MOL0     H66091   9.759   0.749   5.931  0.7300 -2.8001 -0.5051
  490MOL0     H66092   9.785   0.712   6.102  0.9867 -3.3641 -0.7724
  490MOL0     H66093  10.001   0.868   6.059  2.0397  0.4770 -3.6510
  490MOL0     H66094   9.900   0.931   5.922 -1.4775  2.0781  1.2659
  490MOL0     H66095   9.786   0.910   6.198 -0.6148 -0.5285 -1.0353
  490MOL0     H66096   9.899   1.039   6.165 -0.7593  0.5157 -0.0118
  490MOL0     H66097   9.717   1.050   5.943  0.8554  4.4871 -1.2258
  490MOL0     H66098   9.731   1.162   6.058 -1.0373 -0.1285 -1.6976
  490MOL0     H66099   9.557   1.037   6.194 -2.1918 -0.7713  0.2241
  490MOL0     H66100   9.504   1.086   6.032 -1.4586 -0.7136  0.9887
  490MOL0     H66101   9.497   0.837   6.286  0.4152  6.0386 -1.2838
  490MOL0     H66102   9.369   0.484   6.139 -1.8030  1.3254  0.4126
  490MOL0     H66103   9.510   0.508   6.242 -0.0341 -2.9788 -1.9891
  490MOL0     H66104   9.309   0.511   6.401 -0.1371  0.5948  1.3545
  490MOL0     H66105   9.386   0.671   6.386 -2.4256  0.5918  0.2733
  490MOL0     H66106   9.133   0.554   6.271 -0.0760  1.6182  0.3304
  490MOL0     H66107   9.207   0.684   6.173 -0.7495 -0.2109 -0.6378
  490MOL0     H66108   9.049   0.796   6.307  1.3663 -0.1490 -1.9590
  490MOL0     H66109   9.196   0.824   6.400 -0.2790  0.3314  0.4182
  490MOL0     H66110   8.826   0.819   6.431 -1.1572 -0.7018 -0.8310
  490MOL0     H66111   8.617   0.708   6.423 -2.5199 -2.6053  0.7131
  490MOL0     H66112   8.276   0.593   6.222 -2.3376 -1.9038 -2.6347
  490MOL0     H66113   8.061   0.522   6.205  2.3823 -0.6173 -1.3217
  490MOL0     H66114   7.836   0.517   6.317  3.4619  0.7336  1.1075
  490MOL0     H66115   7.860   0.371   6.221  0.3343 -0.1843  0.1805
  490MOL0     H66116   7.718   0.233   6.348  2.0985  0.6486  0.7790
  490MOL0     H66117   7.648   0.373   6.439  1.5091  1.6794  0.4920
  490MOL0     H66118   7.579   0.461   6.218  3.9859  1.6031  1.4091
  490MOL0     H66119   7.665   0.327   6.130 -1.6033 -0.1905 -0.7625
  490MOL0     H66120   7.387   0.351   6.220 -0.3346 -1.2766  1.5421
  490MOL0     H66121   7.463   0.235   6.316 -1.6588  2.1951  1.0476
  490MOL0     H66122   7.524   0.088   6.110  0.3218 -0.1134  2.7065
  490MOL0     H66123   7.497   0.235   6.008 -2.7089  1.4578  0.0041
  490MOL0     H66124   7.256   0.134   6.164  1.6531 -1.0796  0.4061
  490MOL0     H66125   7.264   0.232   6.032 -0.6007  0.3075  0.8252
  490MOL0     H66126   7.329  -0.054   6.055 -0.7781  0.1386  0.4505
  490MOL0     H66127   7.368   0.035   5.894 -1.7266 -0.7957 -0.8535
  490MOL0     H66128   7.090  -0.001   6.015 -0.9500 -2.1349 -0.0769
  490MOL0     H66129   7.141   0.078   5.865 -1.6543  1.2173  2.6835
  490MOL0     H66130   8.106   0.283   6.575  0.1823  0.0606 -0.5310
  490MOL0     H66131   8.326   0.361   6.590  0.4491  2.0308  0.9238
  490MOL0     H66132   8.802   0.329   6.518 -1.1027  0.5031  0.8777
  490MOL0     H66133   9.025   0.438   6.521 -0.5447 -0.9509 -0.1199
  490MOL0     H66134   9.810   0.608   5.600  1.0289  2.4584  3.8261
  490MOL0     H66135   9.997   0.717   5.480 -1.8452  1.8147  1.2718
  490MOL0     H66136  10.569   0.745   5.600 -0.2788  0.2497  0.3618
  490MOL0     H66137  10.760   0.848   5.483 -1.2815 -1.7723 -1.0501
  490MOL0     H66138  10.642   1.133   5.172  0.8135  0.5374  1.3536
  490MOL0     H66139  10.694   1.001   5.059  4.0139  3.6057 -3.1433
  490MOL0     H66140  10.881   1.180   5.209  0.6764  5.1705 -1.9484
  490MOL0     H66141  10.812   1.241   5.054  0.5338  0.8948  0.3983
  490MOL0     H66142  10.911   1.066   4.934  3.2548 -2.2127 -0.2536
  490MOL0     H66143  10.958   0.979   5.081  1.5542  0.2363 -0.9329
  490MOL0     H66144  11.144   1.107   4.955  3.2336  1.9325  1.1815
  490MOL0     H66145  11.083   1.259   5.010  4.0794 -0.3271 -0.2998
  490MOL0     H66146  11.244   1.091   5.356  0.1664 -1.7251 -0.0605
  490MOL0     H66147  10.502   0.928   5.156 -3.1876  3.1129  2.1724
  490MOL0     H66148  10.232   0.718   5.249 -0.7237  0.2630  2.7011
  490MOL0     H66149  10.215   0.894   5.297 -1.1245  0.0934 -0.9567
  490MOL0     H66150  10.280   0.833   5.137 -0.2041 -1.8260 -0.5262
  491MOL0     O66151   0.765   0.189   5.755 -0.5241 -0.2237  0.2040
  491MOL0     C66152   0.867   0.162   5.694 -0.1508 -0.3466 -0.2564
  491MOL0     O66153   0.881   0.088   5.573  0.6555 -0.1843  0.3306
  491MOL0     C66154   0.780   0.023   5.513 -0.4687  0.2329 -0.0274
  491MOL0     C66155   0.822  -0.015   5.391 -0.3658  0.1819 -0.3639
  491MOL0     C66156   0.734  -0.077   5.288  0.4507 -0.6894 -0.0115
  491MOL0     C66157   0.595  -0.098   5.330 -0.0888  0.4895 -0.1186
  491MOL0     O66158   0.497  -0.140   5.247 -0.5567 -0.7168  0.1118
  491MOL0     C66159   0.519  -0.117   5.113 -0.1514 -0.0239  0.4784
  491MOL0     C66160   0.387  -0.131   5.030  0.3048  0.2106  0.6012
  491MOL0     C66161   0.333  -0.280   5.042  0.3146  0.6800 -0.2692
  491MOL0     C66162   0.200  -0.272   4.962 -0.2647  0.0716  0.4339
  491MOL0     C66163   0.131  -0.408   4.958 -0.1053 -0.8657  0.4078
  491MOL0     C66164   0.208  -0.511   4.876 -0.8717  0.1032  0.0576
  491MOL0     C66165   0.125  -0.624   4.813 -0.0550  0.7427  0.3306
  491MOL0     C66166   0.064  -0.727   4.910 -0.1778  1.1727 -0.2690
  491MOL0     N66167  -0.058  -0.677   4.980  0.0548 -0.3399 -0.3653
  491MOL0     C66168  -0.063  -0.629   5.110 -0.4133  0.6081 -0.8616
  491MOL0     C66169  -0.177  -0.565   5.125  0.1692  0.1872 -0.3215
  491MOL0     C66170  -0.237  -0.516   5.253 -0.0349  0.6978 -0.1133
  491MOL0     C66171  -0.143  -0.455   5.360 -0.8780  0.0243  0.1073
  491MOL0     C66172  -0.068  -0.325   5.314  0.2197  0.2490  0.2927
  491MOL0     C66173   0.042  -0.283   5.412 -0.1835 -1.0174 -0.0566
  491MOL0     O66174  -0.003  -0.230   5.535 -0.6700  0.2202 -0.2248
  491MOL0     C66175   0.069  -0.147   5.615  0.4228 -0.0575 -0.4833
  491MOL0     C66176   0.029  -0.135   5.748  1.0012  1.2882 -0.3594
  491MOL0     C66177   0.096  -0.061   5.848 -0.0110 -0.1895  0.0237
  491MOL0     C66178   0.211   0.010   5.805  0.9889 -0.4214  0.4856
  491MOL0     C66179   0.295   0.090   5.896  0.5959 -0.1691 -1.0615
  491MOL0     O66180   0.412   0.131   5.845 -0.5187  0.0810  0.0598
  491MOL0     C66181   0.485   0.201   5.930 -0.7893 -0.2340  0.2132
  491MOL0     C66182   0.549   0.133   6.035 -0.3812 -1.4568 -0.2375
  491MOL0     C66183   0.637   0.201   6.122 -0.3562 -0.2030 -0.0505
  491MOL0     C66184   0.654   0.336   6.111 -0.9056 -0.7870 -0.5321
  491MOL0     O66185   0.750   0.411   6.188 -0.3177 -0.3237  0.6753
  491MOL0     C66186   0.763   0.357   6.318  0.2528 -0.1544  0.6532
  491MOL0     C66187   0.809   0.475   6.400 -0.4512  0.3666  0.0376
  491MOL0     C66188   0.943   0.541   6.353  0.6200 -1.3918  0.0769
  491MOL0     C66189   0.967   0.669   6.440 -0.1205  0.0261  0.6666
  491MOL0     C66190   1.108   0.729   6.428 -0.8919 -0.2116 -0.2035
  491MOL0     C66191   1.123   0.798   6.296 -0.3206  0.0231 -0.0459
  491MOL0     C66192   1.274   0.856   6.278 -0.2153  0.1340 -0.3554
  491MOL0     C66193   1.328   0.948   6.387 -0.3813 -0.0905 -0.2635
  491MOL0    Cl66194   1.216   1.092   6.379  0.4537  0.3932  0.1715
  491MOL0     C66195   0.581   0.405   6.008 -0.1621 -0.0235  0.8159
  491MOL0     C66196   0.505   0.338   5.910  0.3028  0.6400 -0.3791
  491MOL0     O66197   0.257   0.107   6.016  0.3659  0.3441  0.1392
  491MOL0     C66198   0.245   0.007   5.671  1.0263  0.4712  0.7503
  491MOL0     C66199   0.181  -0.077   5.577 -0.4872 -0.3382  0.7215
  491MOL0     N66200  -0.231  -0.562   4.999 -0.1214 -0.9375  0.1182
  491MOL0     N66201  -0.149  -0.610   4.913 -0.3400 -0.2528 -0.9469
  491MOL0     C66202   0.552  -0.061   5.461 -1.0429  0.4377 -0.2032
  491MOL0     C66203   0.644  -0.016   5.558 -0.4528 -0.0878  0.1273
  491MOL0     C66204   1.001   0.195   5.753 -0.2496  0.5242  0.0135
  491MOL0     C66205   1.108   0.099   5.733  0.7788 -0.8344  0.2986
  491MOL0     C66206   1.227   0.122   5.795  0.1771  0.0625 -0.0971
  491MOL0     C66207   1.261   0.240   5.866  1.0021 -0.2094 -0.0990
  491MOL0     O66208   1.386   0.245   5.924 -0.3499 -0.2384 -0.2286
  491MOL0     C66209   1.472   0.328   5.837  0.5645 -0.3556 -0.1083
  491MOL0     C66210   1.471   0.471   5.884  0.3527  0.0382  0.5735
  491MOL0     C66211   1.604   0.534   5.922 -0.2013  0.4134  0.8820
  491MOL0     C66212   1.602   0.639   6.033  0.2673  0.8434  0.0948
  491MOL0     C66213   1.553   0.577   6.156  0.2994  0.2202  0.0584
  491MOL0     C66214   1.520   0.531   6.261  0.1063  0.2498 -0.5743
  491MOL0     C66215   1.162   0.326   5.890  0.2894  0.0707  0.5043
  491MOL0     C66216   1.029   0.306   5.840  0.7058  1.0802  0.8393
  491MOL0     C66217   0.939   0.405   5.889  0.3264 -1.0143  0.0928
  491MOL0     H66218   0.921   0.016   5.360 -0.2930  0.4120  0.0997
  491MOL0     H66219   0.765  -0.086   5.185 -1.1374  1.3142 -0.7259
  491MOL0     H66220   0.542  -0.012   5.096  0.7033 -0.3930 -0.8870
  491MOL0     H66221   0.598  -0.183   5.075 -1.0956 -2.8553  3.0213
  491MOL0     H66222   0.397  -0.093   4.928 -3.9033 -0.8280 -0.3707
  491MOL0     H66223   0.316  -0.068   5.085  0.1760  0.8041 -0.2200
  491MOL0     H66224   0.304  -0.313   5.143 -1.6041  0.0775 -0.9746
  491MOL0     H66225   0.403  -0.346   4.989  2.2405  0.0306  2.8215
  491MOL0     H66226   0.129  -0.205   5.011  1.3948  2.3269 -0.0566
  491MOL0     H66227   0.224  -0.233   4.862  2.3252  0.6198  1.1951
  491MOL0     H66228   0.127  -0.453   5.058 -1.2505 -0.3082  0.6352
  491MOL0     H66229   0.030  -0.385   4.923 -1.3372 -3.6691  1.7665
  491MOL0     H66230   0.257  -0.454   4.796 -0.3896  0.9166  0.9211
  491MOL0     H66231   0.289  -0.552   4.936  0.1723  1.8170 -0.1149
  491MOL0     H66232   0.203  -0.678   4.757 -1.8013 -0.9241 -0.6107
  491MOL0     H66233   0.048  -0.597   4.741 -0.0994 -0.3847 -0.0702
  491MOL0     H66234   0.032  -0.807   4.842 -0.7142  1.0294  0.1455
  491MOL0     H66235   0.138  -0.766   4.980 -1.7873  1.6892  1.8291
  491MOL0     H66236   0.019  -0.634   5.180 -0.1901 -1.3232 -1.2104
  491MOL0     H66237  -0.315  -0.444   5.225  0.9481  1.2449 -1.5948
  491MOL0     H66238  -0.274  -0.600   5.312  1.5406 -0.7660 -1.1451
  491MOL0     H66239  -0.197  -0.432   5.452 -1.4398 -0.8069 -0.0001
  491MOL0     H66240  -0.067  -0.527   5.392 -1.7709 -1.1254 -0.2886
  491MOL0     H66241  -0.142  -0.245   5.305 -0.2749 -0.3313 -1.0725
  491MOL0     H66242  -0.017  -0.337   5.217  0.7542 -1.8875  0.7858
  491MOL0     H66243   0.103  -0.212   5.355 -3.2268  0.4374 -1.7359
  491MOL0     H66244   0.109  -0.364   5.444  0.7766 -0.7552 -1.2988
  491MOL0     H66245  -0.062  -0.186   5.776  1.0710  0.6361 -1.2558
  491MOL0     H66246   0.064  -0.079   5.950  0.6842 -0.0744  0.2681
  491MOL0     H66247   0.527   0.027   6.039 -2.0579 -1.1196  0.1321
  491MOL0     H66248   0.691   0.131   6.185 -2.7812  1.0277  3.7775
  491MOL0     H66249   0.668   0.319   6.357  0.2838  1.6808  2.6571
  491MOL0     H66250   0.842   0.281   6.314  1.2302  0.8624 -0.4579
  491MOL0     H66251   0.737   0.557   6.411 -0.8841 -0.0370  0.2618
  491MOL0     H66252   0.833   0.421   6.492  0.0443  1.1552  0.3841
  491MOL0     H66253   1.029   0.476   6.372 -0.1568 -2.3574  0.3947
  491MOL0     H66254   0.936   0.557   6.245 -0.0067 -4.7680 -0.4884
  491MOL0     H66255   0.940   0.643   6.543  2.1101 -2.6564  0.6999
  491MOL0     H66256   0.893   0.745   6.416 -3.8959 -3.6699 -0.5431
  491MOL0     H66257   1.181   0.648   6.438  0.6818  0.5056 -3.9595
  491MOL0     H66258   1.132   0.802   6.505 -0.4363 -0.0276 -0.5121
  491MOL0     H66259   1.104   0.734   6.210 -1.3058  0.1234  0.0859
  491MOL0     H66260   1.050   0.879   6.289  2.3069  2.5233 -0.5157
  491MOL0     H66261   1.290   0.900   6.179  1.9773 -1.0619 -0.5772
  491MOL0     H66262   1.347   0.775   6.274 -0.3003  0.0883 -1.5759
  491MOL0     H66263   1.330   0.910   6.490  0.4204  5.2768  2.0626
  491MOL0     H66264   1.433   0.975   6.373 -0.3043  0.8190  1.7161
  491MOL0     H66265   0.598   0.511   5.998 -1.9768  0.2574  0.3690
  491MOL0     H66266   0.463   0.391   5.826 -1.5958  2.4115  1.5627
  491MOL0     H66267   0.328   0.066   5.632  0.0199  2.3005  1.2967
  491MOL0     H66268   0.215  -0.075   5.474 -0.2166  0.5745  0.8144
  491MOL0     H66269   0.449  -0.086   5.481 -1.0661 -1.1429 -2.0308
  491MOL0     H66270   0.614   0.007   5.660  1.3292 -1.1897  0.9580
  491MOL0     H66271   1.087   0.001   5.690 -3.9307  0.3598 -0.6802
  491MOL0     H66272   1.300   0.044   5.774  1.4021  1.3652 -0.8364
  491MOL0     H66273   1.446   0.314   5.731  1.1503  1.4828 -0.5231
  491MOL0     H66274   1.576   0.294   5.845  1.7430  2.0553 -3.0883
  491MOL0     H66275   1.405   0.477   5.972  0.3471 -3.0171  0.8877
  491MOL0     H66276   1.421   0.524   5.803 -1.2893  0.0968  1.5720
  491MOL0     H66277   1.653   0.584   5.838  0.7660 -0.0470  1.1566
  491MOL0     H66278   1.671   0.454   5.957  0.6979  0.6094 -0.3200
  491MOL0     H66279   1.699   0.687   6.049  0.0230  1.2368  0.4222
  491MOL0     H66280   1.522   0.711   6.010 -1.6811 -1.3533 -0.4378
  491MOL0     H66281   1.500   0.481   6.353  0.9489  0.4935 -0.2442
  491MOL0     H66282   1.196   0.413   5.947 -3.0133  1.9984 -0.1634
  491MOL0     H66283   0.939   0.433   5.995  3.5220  1.6813 -0.4580
  491MOL0     H66284   0.973   0.497   5.840  0.4090  1.7993  4.8445
  491MOL0     H66285   0.837   0.395   5.851  0.9272  0.8157 -2.2784
  492MOL0     O66286   1.935   0.152   3.508  0.1428  0.4207 -0.0607
  492MOL0     C66287   1.900   0.083   3.603  0.2775 -0.1262 -0.6878
  492MOL0     O66288   1.849  -0.044   3.586 -0.0044  0.2672 -0.1032
  492MOL0     C66289   1.852  -0.100   3.455  0.4986 -0.0189 -0.4111
  492MOL0     C66290   1.971  -0.158   3.409 -0.7284 -0.3953 -1.8917
  492MOL0     C66291   1.977  -0.219   3.291 -1.0531  0.0894  0.4845
  492MOL0     C66292   1.868  -0.226   3.200 -0.1391  0.1324  0.3393
  492MOL0     O66293   1.909  -0.269   3.079 -0.2764  0.8197  0.1281
  492MOL0     C66294   1.822  -0.256   2.967  0.1233  0.1977  0.4496
  492MOL0     C66295   1.747  -0.384   2.929 -0.2741  0.8108 -0.5550
  492MOL0     C66296   1.682  -0.366   2.793  0.0123  0.3946  0.6995
  492MOL0     C66297   1.613  -0.499   2.757  0.3841 -0.6729  0.0978
  492MOL0     C66298   1.576  -0.509   2.610 -0.7670  0.9417  0.2354
  492MOL0     C66299   1.505  -0.636   2.572 -0.5995  0.4278  0.4023
  492MOL0     C66300   1.589  -0.769   2.586 -1.0925  0.7455  0.1217
  492MOL0     C66301   1.673  -0.767   2.466  0.1390  0.7653  0.2285
  492MOL0     N66302   1.754  -0.882   2.456 -0.3494  0.7749 -0.2558
  492MOL0     C66303   1.878  -0.887   2.394  0.0817 -1.3354 -0.4163
  492MOL0     C66304   1.910  -1.020   2.380 -0.3303 -1.1027 -0.7388
  492MOL0     C66305   2.037  -1.069   2.314  0.5043 -1.1650  0.3153
  492MOL0     C66306   2.047  -1.219   2.339  0.9125  1.3795  0.6703
  492MOL0     C66307   2.181  -1.281   2.288 -0.1275  1.1455  0.0235
  492MOL0     C66308   2.307  -1.203   2.310 -0.7693 -0.0112 -0.1266
  492MOL0     O66309   2.313  -1.168   2.448 -0.0556 -0.2077  0.5295
  492MOL0     C66310   2.413  -1.239   2.509  0.4620  0.0741  0.6295
  492MOL0     C66311   2.542  -1.198   2.529  0.3218  0.8857  1.0100
  492MOL0     C66312   2.645  -1.272   2.586  0.3376  0.1073 -0.5541
  492MOL0     C66313   2.614  -1.403   2.630  0.6995  0.2044 -0.3299
  492MOL0     C66314   2.716  -1.477   2.695 -0.6323 -0.5112 -0.2513
  492MOL0     O66315   2.678  -1.590   2.764 -0.7938 -0.4377  0.3483
  492MOL0     C66316   2.771  -1.680   2.801  0.0750 -0.0070 -0.4979
  492MOL0     C66317   2.866  -1.665   2.902 -0.3996  0.3046  0.5318
  492MOL0     C66318   2.948  -1.769   2.941  0.1375  0.9640 -0.4445
  492MOL0     C66319   2.930  -1.900   2.891 -0.9506 -0.8546 -0.6311
  492MOL0     O66320   2.993  -2.001   2.970 -0.8446 -0.0539  0.8107
  492MOL0     C66321   2.976  -2.133   2.915  0.0190  0.9554  0.7666
  492MOL0     C66322   3.068  -2.233   2.992  0.4453  0.2915  0.0647
  492MOL0     C66323   3.018  -2.229   3.137 -0.6146 -0.3622  0.8918
  492MOL0     C66324   3.113  -2.302   3.229 -0.2134  0.5141  0.6570
  492MOL0     C66325   3.082  -2.288   3.381 -0.3894  0.5100 -0.2502
  492MOL0     C66326   3.113  -2.152   3.441 -0.3255 -0.7803  0.5763
  492MOL0     C66327   3.109  -2.172   3.598 -0.1137 -0.3049  0.2254
  492MOL0     C66328   2.960  -2.178   3.643  1.0243 -0.4121  0.6299
  492MOL0    Cl66329   2.965  -2.168   3.827  0.0855  0.0445 -0.0497
  492MOL0     C66330   2.840  -1.915   2.789 -0.6878  1.5132  0.0499
  492MOL0     C66331   2.762  -1.806   2.750  1.0393  0.1758 -0.2919
  492MOL0     O66332   2.830  -1.421   2.708  1.1299 -0.8094  0.8714
  492MOL0     C66333   2.478  -1.445   2.628 -1.0044  0.0515  1.0156
  492MOL0     C66334   2.385  -1.365   2.564  0.2553 -1.0501 -0.3776
  492MOL0     N66335   1.803  -1.085   2.424 -0.0284 -0.4579 -0.5603
  492MOL0     N66336   1.723  -1.008   2.481  0.2476 -0.5609 -0.8816
  492MOL0     C66337   1.747  -0.172   3.243  0.4382  0.0249  0.0610
  492MOL0     C66338   1.749  -0.108   3.363 -0.4231  0.5351  0.4666
  492MOL0     C66339   1.868   0.146   3.731  0.3387  0.9424 -0.2876
  492MOL0     C66340   1.846   0.060   3.841  0.5955  0.6544  0.7617
  492MOL0     C66341   1.806   0.113   3.965  0.0486 -0.1190  1.1600
  492MOL0     C66342   1.790   0.244   3.989  0.3911 -0.0971 -0.0358
  492MOL0     O66343   1.756   0.278   4.118 -0.2234  0.0131  0.3248
  492MOL0     C66344   1.713   0.412   4.153 -1.0313 -0.5045  0.0265
  492MOL0     C66345   1.558   0.432   4.146  0.0578 -0.5117 -0.3992
  492MOL0     C66346   1.517   0.565   4.211  0.3085 -1.1224  0.1206
  492MOL0     C66347   1.357   0.574   4.232  0.2731  0.0588  0.1235
  492MOL0     C66348   1.344   0.663   4.356 -0.5872  0.3474 -0.0674
  492MOL0     C66349   1.317   0.742   4.452  0.0308  0.2956  0.4080
  492MOL0     C66350   1.797   0.329   3.878  0.0982  0.1995  0.8656
  492MOL0     C66351   1.832   0.281   3.749 -0.6208 -0.1244  0.8532
  492MOL0     C66352   1.839   0.389   3.644 -0.2566  0.7246  1.0638
  492MOL0     H66353   2.055  -0.164   3.477 -1.9761 -5.1360 -0.3385
  492MOL0     H66354   2.069  -0.264   3.255  1.7605  2.2140  4.2308
  492MOL0     H66355   1.754  -0.171   2.974 -0.2680  0.2197 -2.4660
  492MOL0     H66356   1.895  -0.227   2.892  3.5371 -1.6939  2.7464
  492MOL0     H66357   1.677  -0.404   3.011  1.5759 -0.8491  0.7295
  492MOL0     H66358   1.816  -0.469   2.924 -0.9056  0.2681 -0.1618
  492MOL0     H66359   1.752  -0.338   2.714  1.2495 -3.9421  0.0124
  492MOL0     H66360   1.610  -0.286   2.811 -1.0426 -0.5920  0.9659
  492MOL0     H66361   1.677  -0.586   2.775  2.8954  0.5819 -2.0299
  492MOL0     H66362   1.517  -0.506   2.808 -0.0651  1.9147 -0.2612
  492MOL0     H66363   1.506  -0.428   2.586 -1.7632 -0.7449 -3.0855
  492MOL0     H66364   1.659  -0.490   2.541  1.0281 -3.6226  0.8019
  492MOL0     H66365   1.420  -0.647   2.640 -0.5448  0.6545  0.5079
  492MOL0     H66366   1.465  -0.624   2.471 -0.0311 -1.4379 -0.0819
  492MOL0     H66367   1.537  -0.864   2.598  0.4600 -0.1146  0.2235
  492MOL0     H66368   1.654  -0.764   2.674 -1.7310  0.6011  0.6114
  492MOL0     H66369   1.611  -0.771   2.376  0.6408  0.5251 -0.1103
  492MOL0     H66370   1.730  -0.674   2.456  1.5913  0.0046  1.1182
  492MOL0     H66371   1.932  -0.799   2.360  0.0414 -1.5171 -0.9476
  492MOL0     H66372   2.023  -1.047   2.207  1.9394 -1.5057  0.0347
  492MOL0     H66373   2.112  -1.015   2.372  0.0166 -2.8907  2.6855
  492MOL0     H66374   2.032  -1.246   2.444  0.0142  1.6373  0.6191
  492MOL0     H66375   1.972  -1.265   2.275  2.4635 -0.2465 -0.0424
  492MOL0     H66376   2.162  -1.302   2.182  2.4337 -0.0242 -0.2762
  492MOL0     H66377   2.189  -1.380   2.334  1.1812  1.4329  0.4444
  492MOL0     H66378   2.296  -1.105   2.263 -1.5239  0.9613  1.9334
  492MOL0     H66379   2.399  -1.241   2.265 -2.3544 -2.2766 -1.6283
  492MOL0     H66380   2.563  -1.096   2.499 -0.0452  1.0390  1.2759
  492MOL0     H66381   2.746  -1.235   2.599  1.6588 -2.8343 -1.5096
  492MOL0     H66382   2.864  -1.568   2.950 -2.4232  0.5412  0.0632
  492MOL0     H66383   3.021  -1.750   3.019  1.9751 -2.7744 -0.9907
  492MOL0     H66384   2.871  -2.163   2.922 -1.0731  4.0496 -0.7559
  492MOL0     H66385   3.010  -2.125   2.811  1.5447 -0.7180  1.0845
  492MOL0     H66386   3.054  -2.336   2.960 -0.6333  1.6730 -4.6296
  492MOL0     H66387   3.172  -2.203   2.980  0.0605  0.7689 -2.7269
  492MOL0     H66388   3.022  -2.126   3.175 -1.4729 -0.4543  1.2423
  492MOL0     H66389   2.916  -2.267   3.146 -0.7110 -0.6304 -0.8297
  492MOL0     H66390   3.219  -2.293   3.203  0.1097 -0.9741  1.3892
  492MOL0     H66391   3.099  -2.408   3.208  2.8254  0.3441 -1.1161
  492MOL0     H66392   3.134  -2.370   3.432 -0.0337 -0.2589 -1.7940
  492MOL0     H66393   2.975  -2.311   3.388 -0.7396  1.3371 -2.3865
  492MOL0     H66394   3.215  -2.119   3.419 -0.5618  0.7892  1.6334
  492MOL0     H66395   3.041  -2.073   3.415  0.2708  0.4176  2.3411
  492MOL0     H66396   3.164  -2.090   3.644 -1.1067 -0.1665  1.1944
  492MOL0     H66397   3.155  -2.267   3.630 -1.8237 -2.4535 -3.0760
  492MOL0     H66398   2.911  -2.088   3.607  0.0634 -0.5012  1.6581
  492MOL0     H66399   2.904  -2.269   3.620 -1.3629  1.0886  0.1795
  492MOL0     H66400   2.817  -2.017   2.758  1.3221  1.5666 -1.8512
  492MOL0     H66401   2.691  -1.823   2.670 -0.2699  2.0776  0.3991
  492MOL0     H66402   2.446  -1.533   2.682 -0.7912 -0.9639 -0.4545
  492MOL0     H66403   2.284  -1.403   2.568  0.4572 -1.5063  2.0092
  492MOL0     H66404   1.655  -0.167   3.184 -2.1236  0.8092  3.7314
  492MOL0     H66405   1.668  -0.043   3.395 -1.6924 -0.4587 -0.6118
  492MOL0     H66406   1.866  -0.046   3.830  0.4677  0.8829 -3.5528
  492MOL0     H66407   1.781   0.038   4.039 -0.4410 -0.8356  0.2896
  492MOL0     H66408   1.771   0.481   4.090 -1.3869 -0.8345 -0.6809
  492MOL0     H66409   1.748   0.430   4.255 -0.4324  1.7631 -0.5073
  492MOL0     H66410   1.513   0.356   4.211 -1.1038  1.7587  1.6124
  492MOL0     H66411   1.525   0.427   4.041  1.3744  2.0708 -1.0190
  492MOL0     H66412   1.563   0.650   4.160 -0.0826 -1.9472 -1.6937
  492MOL0     H66413   1.560   0.574   4.312  0.7466  0.5258 -0.1797
  492MOL0     H66414   1.299   0.626   4.155 -2.7069  0.6966  2.5886
  492MOL0     H66415   1.317   0.473   4.240  3.9739 -1.5467  0.4747
  492MOL0     H66416   1.294   0.799   4.539 -4.4173  0.4298 -0.5864
  492MOL0     H66417   1.779   0.435   3.889 -0.6635  0.2261 -0.4495
  492MOL0     H66418   1.809   0.484   3.689 -1.1398  0.6316  0.6840
  492MOL0     H66419   1.941   0.402   3.607 -0.8582  1.4132 -0.4642
  492MOL0     H66420   1.769   0.369   3.563  1.3439  2.0163 -0.7473
  493MOL0     O66421   2.942   9.690   4.762 -0.4171  1.0731  0.3383
  493MOL0     C66422   2.993   9.742   4.664  1.0326  0.1213 -0.3991
  493MOL0     O66423   2.924   9.777   4.551  0.2087 -0.1162 -0.2208
  493MOL0     C66424   2.791   9.781   4.546 -0.6886  0.5962  1.0338
  493MOL0     C66425   2.714   9.663   4.546  0.0618 -0.1273  0.5632
  493MOL0     C66426   2.575   9.674   4.527 -0.3013  0.2322 -0.3346
  493MOL0     C66427   2.508   9.786   4.515 -0.8141  0.4496 -1.2100
  493MOL0     O66428   2.374   9.774   4.481 -0.5817 -0.7501  0.0289
  493MOL0     C66429   2.279   9.877   4.514  0.1495  0.0981 -0.3013
  493MOL0     C66430   2.145   9.828   4.453 -0.5147 -1.0371 -0.2185
  493MOL0     C66431   2.150   9.805   4.301 -1.1082  0.6112 -0.1164
  493MOL0     C66432   2.005   9.776   4.254 -0.2200 -0.2380  0.0714
  493MOL0     C66433   1.993   9.776   4.096 -0.5592 -0.0718  0.1241
  493MOL0     C66434   2.054   9.912   4.029 -0.2249  1.0709 -0.0472
  493MOL0     C66435   2.003  10.041   4.091  0.9264 -0.4326 -0.0046
  493MOL0     C66436   1.843  10.058   4.070 -0.6390 -0.1560 -0.6725
  493MOL0     N66437   1.799  10.196   4.093 -0.6329 -0.1240  0.3782
  493MOL0     C66438   1.793  10.288   3.989 -0.5743  0.8483 -0.1584
  493MOL0     C66439   1.801  10.405   4.060  0.1763  0.4537 -0.6116
  493MOL0     C66440   1.810  10.544   3.990  0.8054  0.4077  0.5344
  493MOL0     C66441   1.702  10.639   4.048 -0.8993 -0.7220 -0.2410
  493MOL0     C66442   1.568  10.600   4.028  0.2340  0.4236  0.5624
  493MOL0     C66443   1.469  10.724   4.047  0.5824 -0.2634  0.7577
  493MOL0     O66444   1.482  10.807   4.160 -0.5644  0.0676 -0.1839
  493MOL0     C66445   1.394  10.912   4.162  0.1686  0.6461 -0.1370
  493MOL0     C66446   1.402  10.997   4.269 -0.1202 -0.8891  0.3145
  493MOL0     C66447   1.336  11.113   4.275 -0.2121  0.1147  0.1372
  493MOL0     C66448   1.257  11.163   4.166 -1.0152  0.0885 -0.4718
  493MOL0     C66449   1.181  11.293   4.171  0.4227  0.5345 -0.7394
  493MOL0     O66450   1.147  11.344   4.285 -0.2926  0.0149  0.3093
  493MOL0     C66451   1.047  11.437   4.283  0.0562 -0.5689 -0.5139
  493MOL0     C66452   0.933  11.449   4.203 -0.6099 -0.1505  0.1037
  493MOL0     C66453   0.839  11.547   4.213 -0.0827  0.9100  0.5007
  493MOL0     C66454   0.821  11.631   4.326 -0.5223 -0.1385 -0.5215
  493MOL0     O66455   0.732  11.730   4.327 -0.1943  0.8985  0.4957
  493MOL0     C66456   0.709  11.805   4.446  0.7249  0.3365  0.0259
  493MOL0     C66457   0.584  11.903   4.451  0.5729  0.1307  0.6166
  493MOL0     C66458   0.448  11.863   4.390 -0.2529 -0.1213 -0.0020
  493MOL0     C66459   0.398  11.711   4.419  0.9176 -0.5969 -0.8590
  493MOL0     C66460   0.260  11.672   4.371  0.6286  0.0064  0.2185
  493MOL0     C66461   0.242  11.517   4.383  1.0840 -0.2622  0.2524
  493MOL0     C66462   0.179  11.483   4.520  1.1258 -0.0223  0.0722
  493MOL0     C66463   0.128  11.335   4.529  0.4383  0.2492 -0.6264
  493MOL0    Cl66464   0.251  11.214   4.542  0.2004 -0.7029 -0.1583
  493MOL0     C66465   0.932  11.617   4.415  0.0403 -0.2807 -0.1326
  493MOL0     C66466   1.043  11.536   4.386 -0.7022  0.6767  0.0653
  493MOL0     O66467   1.161  11.349   4.061  0.5541 -0.2768 -0.3122
  493MOL0     C66468   1.245  11.076   4.057 -1.6419  0.2882  0.8161
  493MOL0     C66469   1.308  10.952   4.058 -0.4943 -0.8419 -0.2216
  493MOL0     N66470   1.813  10.386   4.194 -0.3914 -0.2926  0.0624
  493MOL0     N66471   1.806  10.262   4.213 -0.6228  0.3672  0.0920
  493MOL0     C66472   2.581   9.899   4.521 -0.4915  0.3299  0.7357
  493MOL0     C66473   2.720   9.909   4.524 -0.5775  0.4538  0.4149
  493MOL0     C66474   3.132   9.792   4.690  0.3137  0.2619 -0.9332
  493MOL0     C66475   3.198   9.842   4.574 -0.5316  0.3400 -0.0092
  493MOL0     C66476   3.330   9.885   4.589  0.8639 -0.0365  1.3773
  493MOL0     C66477   3.404   9.880   4.709 -0.3786  0.3944  0.4385
  493MOL0     O66478   3.530   9.933   4.724 -0.2803 -0.1352  0.2550
  493MOL0     C66479   3.606  10.007   4.632 -1.1229 -0.3466 -0.3612
  493MOL0     C66480   3.709  10.097   4.696  0.4245 -0.0267 -0.2784
  493MOL0     C66481   3.797  10.027   4.794  0.6150  0.0191 -0.7319
  493MOL0     C66482   3.909   9.941   4.731  0.7377  0.1977  0.4720
  493MOL0     C66483   4.012   9.888   4.813 -0.1028  0.0240 -0.5661
  493MOL0     C66484   4.096   9.836   4.889  0.3095  0.1754 -0.7778
  493MOL0     C66485   3.342   9.821   4.822  0.6364 -0.2067  0.2779
  493MOL0     C66486   3.206   9.788   4.817  1.3874  0.7946 -0.1237
  493MOL0     C66487   3.148   9.724   4.942 -0.4154  0.5508  0.9111
  493MOL0     H66488   2.771   9.572   4.559 -1.0552 -0.7969  0.8773
  493MOL0     H66489   2.524   9.578   4.521  2.3334 -1.2625 -0.4776
  493MOL0     H66490   2.271   9.892   4.622  1.5853 -0.7129 -0.0586
  493MOL0     H66491   2.310   9.975   4.477 -0.3165  0.7718  1.0027
  493MOL0     H66492   2.086   9.921   4.457 -0.1550 -0.6122 -2.9787
  493MOL0     H66493   2.109   9.735   4.497 -1.0054 -1.3781 -1.3148
  493MOL0     H66494   2.221   9.722   4.287 -2.9765 -1.3032  1.1433
  493MOL0     H66495   2.189   9.892   4.248 -1.8518 -0.6417 -2.9593
  493MOL0     H66496   1.983   9.674   4.286 -0.4951 -0.4812 -0.8595
  493MOL0     H66497   1.940   9.852   4.297 -1.1319 -0.5440 -0.7431
  493MOL0     H66498   2.058   9.699   4.053 -1.6046 -1.7531  1.3798
  493MOL0     H66499   1.889   9.753   4.070  0.2108 -2.3288 -1.3185
  493MOL0     H66500   2.164   9.912   4.032 -0.2327  0.2319  1.1703
  493MOL0     H66501   2.024   9.911   3.924  1.3661 -2.5458 -0.6239
  493MOL0     H66502   2.044  10.128   4.039 -1.0017 -0.8991 -2.4792
  493MOL0     H66503   2.032  10.048   4.196  3.1390  0.0381 -0.6138
  493MOL0     H66504   1.809  10.021   3.973 -0.7029 -0.8044 -0.4090
  493MOL0     H66505   1.787  10.005   4.148  1.1756  0.2248  0.9779
  493MOL0     H66506   1.790  10.264   3.884  0.1073  1.9363 -0.4403
  493MOL0     H66507   1.908  10.590   4.008  0.6123  1.2442 -0.4995
  493MOL0     H66508   1.795  10.543   3.882 -1.0473 -1.5633  0.7412
  493MOL0     H66509   1.705  10.634   4.157 -0.6583  2.1122 -0.0546
  493MOL0     H66510   1.732  10.738   4.013  1.1590 -0.9448  0.7162
  493MOL0     H66511   1.534  10.522   4.097 -0.8698  1.3108  1.0355
  493MOL0     H66512   1.570  10.564   3.925  0.1380  1.5265  0.1615
  493MOL0     H66513   1.369  10.679   4.044  1.7251 -2.9837  0.4374
  493MOL0     H66514   1.495  10.786   3.961 -0.4310 -0.2481  0.4445
  493MOL0     H66515   1.466  10.966   4.351  0.5260 -1.0898 -0.2648
  493MOL0     H66516   1.340  11.171   4.366  4.4224  3.3793 -1.7258
  493MOL0     H66517   0.927  11.397   4.108  2.5575 -1.7796  0.6819
  493MOL0     H66518   0.769  11.558   4.131  0.2601 -1.1023 -0.1255
  493MOL0     H66519   0.699  11.730   4.526  1.4568 -2.1005 -2.0390
  493MOL0     H66520   0.797  11.866   4.469  2.0631 -1.1106 -1.0469
  493MOL0     H66521   0.569  11.928   4.557  1.5361  2.0124  0.3369
  493MOL0     H66522   0.615  12.001   4.414 -3.8977  1.7768  0.5800
  493MOL0     H66523   0.377  11.939   4.424  2.5426  2.3160  0.7951
  493MOL0     H66524   0.458  11.877   4.282  2.1066  2.6744  0.4431
  493MOL0     H66525   0.387  11.713   4.528 -0.6830 -0.4954 -1.0039
  493MOL0     H66526   0.481  11.640   4.409  0.5031 -1.1986 -0.0934
  493MOL0     H66527   0.255  11.706   4.267 -3.1772  3.4162  1.2614
  493MOL0     H66528   0.184  11.732   4.422 -0.6660 -2.6618  1.6088
  493MOL0     H66529   0.183  11.478   4.299  0.2211 -2.6015  1.8643
  493MOL0     H66530   0.341  11.470   4.376  1.1790  0.0294 -0.6237
  493MOL0     H66531   0.097  11.550   4.544  3.5605  2.7085  1.3860
  493MOL0     H66532   0.265  11.492   4.587  4.3201  0.6781 -3.7241
  493MOL0     H66533   0.076  11.340   4.625  1.7272 -1.3067  0.2026
  493MOL0     H66534   0.065  11.327   4.440  0.7240  0.6426 -0.8708
  493MOL0     H66535   0.934  11.679   4.504  0.4643 -0.3531 -0.0930
  493MOL0     H66536   1.123  11.527   4.460 -0.4654  0.8787 -0.1628
  493MOL0     H66537   1.175  11.101   3.978 -0.6578  1.2449  0.2132
  493MOL0     H66538   1.275  10.886   3.978 -2.6789  0.2111 -0.2684
  493MOL0     H66539   2.540   9.999   4.533  1.2904  1.3014 -0.9111
  493MOL0     H66540   2.769  10.003   4.503  2.0235 -1.2137 -1.6419
  493MOL0     H66541   3.147   9.858   4.479  0.2880  1.5952 -0.2747
  493MOL0     H66542   3.374   9.930   4.501 -1.0800 -0.8310 -0.0534
  493MOL0     H66543   3.543  10.067   4.566 -0.7080 -1.4415 -1.7975
  493MOL0     H66544   3.669   9.941   4.572 -1.9515 -1.4461 -0.0487
  493MOL0     H66545   3.650  10.180   4.737 -1.3569 -1.2165 -0.3270
  493MOL0     H66546   3.778  10.148   4.628  2.8336 -2.6869 -0.0124
  493MOL0     H66547   3.731   9.959   4.849 -1.4080  2.4491  0.0621
  493MOL0     H66548   3.836  10.102   4.863  1.9093 -1.3475  0.0639
  493MOL0     H66549   3.850   9.862   4.684  0.9279  1.0673 -1.3264
  493MOL0     H66550   3.942  10.015   4.657  1.3212  0.6997  1.2170
  493MOL0     H66551   4.162   9.773   4.945 -0.3729 -1.2639 -1.5520
  493MOL0     H66552   3.402   9.804   4.911  0.0564 -1.9810  0.3747
  493MOL0     H66553   3.070   9.779   4.996  0.4628  2.0696  0.6851
  493MOL0     H66554   3.120   9.620   4.925  0.7934  0.0909  1.6701
  493MOL0     H66555   3.225   9.722   5.018  1.7853  6.2136 -0.6588
  494MOL0     O66556   6.587   5.048   1.924  0.6890  0.1576 -0.3799
  494MOL0     C66557   6.648   4.946   1.941  0.8846  0.2249  0.0774
  494MOL0     O66558   6.780   4.937   1.927 -0.5258  0.5003 -0.9728
  494MOL0     C66559   6.857   5.049   1.911  1.1113  0.2208  0.2447
  494MOL0     C66560   6.980   5.040   1.840  0.1903  0.3498 -0.7881
  494MOL0     C66561   7.060   5.144   1.820  0.0951  0.0084 -0.5194
  494MOL0     C66562   7.029   5.276   1.867 -0.2444  0.3661 -0.2344
  494MOL0     O66563   7.107   5.390   1.865 -0.5121  0.0141 -0.7528
  494MOL0     C66564   7.231   5.383   1.791  0.1366 -0.5183 -0.0144
  494MOL0     C66565   7.278   5.527   1.760 -0.0287 -0.4738 -0.2277
  494MOL0     C66566   7.183   5.616   1.669  0.3726  0.1858  0.1146
  494MOL0     C66567   7.232   5.763   1.666 -0.6021  0.1222 -0.3967
  494MOL0     C66568   7.153   5.856   1.576  0.4979  0.1619  0.3775
  494MOL0     C66569   7.006   5.864   1.593 -0.0237 -0.2251 -0.0764
  494MOL0     C66570   6.945   5.977   1.497  0.4304  0.2682 -0.2852
  494MOL0     C66571   6.961   5.939   1.349 -0.1979 -0.3043  0.2140
  494MOL0     N66572   6.897   6.048   1.274  0.5020 -0.4516 -0.4432
  494MOL0     C66573   6.944   6.094   1.157 -0.1526  0.2098 -0.3217
  494MOL0     C66574   6.845   6.174   1.106  0.4317  0.1744  0.2821
  494MOL0     C66575   6.872   6.267   0.987  1.0150  0.4619 -0.2029
  494MOL0     C66576   6.812   6.201   0.862  0.4499 -0.2773  0.1856
  494MOL0     C66577   6.771   6.313   0.757  0.3744  0.0610 -1.1916
  494MOL0     C66578   6.687   6.259   0.650  0.0070  0.9095 -0.0934
  494MOL0     O66579   6.690   6.345   0.535  0.2682 -0.5218 -0.0426
  494MOL0     C66580   6.622   6.297   0.420 -0.4943 -0.5058 -1.0746
  494MOL0     C66581   6.554   6.179   0.412  0.1409 -0.2616 -0.1215
  494MOL0     C66582   6.495   6.137   0.296  0.7309  0.5718  0.0965
  494MOL0     C66583   6.494   6.218   0.179  0.2856 -0.8664 -0.9533
  494MOL0     C66584   6.436   6.167   0.057 -1.5761  0.4356 -0.0577
  494MOL0     O66585   6.462   6.238  -0.049 -0.2033 -0.2565  0.1888
  494MOL0     C66586   6.416   6.207  -0.172 -0.7527  0.3920  0.7325
  494MOL0     C66587   6.281   6.196  -0.196  0.6366 -0.4908 -0.3254
  494MOL0     C66588   6.239   6.154  -0.324  1.4228 -0.4223  0.3303
  494MOL0     C66589   6.317   6.120  -0.426  0.1703 -1.1937  0.1153
  494MOL0     O66590   6.267   6.083  -0.544 -0.4078  1.0502 -0.2477
  494MOL0     C66591   6.298   6.170  -0.652 -0.3511  0.2502 -0.2202
  494MOL0     C66592   6.222   6.121  -0.774 -0.2825  0.3584  0.5814
  494MOL0     C66593   6.245   6.212  -0.893  0.3149  0.2227  0.0319
  494MOL0     C66594   6.110   6.236  -0.964 -0.6741 -0.5883  0.3923
  494MOL0     C66595   6.106   6.319  -1.099  0.5016  0.3519  0.1481
  494MOL0     C66596   5.982   6.285  -1.187  0.6587 -0.0436 -0.4505
  494MOL0     C66597   5.840   6.267  -1.111 -0.3462  0.6435 -1.4110
  494MOL0     C66598   5.731   6.265  -1.216 -0.4070 -0.3597 -1.2257
  494MOL0    Cl66599   5.724   6.414  -1.318 -0.0675 -0.0929  0.0074
  494MOL0     C66600   6.453   6.134  -0.404  0.6766  0.4192  0.8137
  494MOL0     C66601   6.508   6.178  -0.275  0.1990 -0.8102 -0.3896
  494MOL0     O66602   6.401   6.047   0.058  0.5711  0.4921  0.8645
  494MOL0     C66603   6.559   6.346   0.187 -0.0136 -0.2634  1.3354
  494MOL0     C66604   6.619   6.384   0.306  0.1306 -1.1024  0.3495
  494MOL0     N66605   6.736   6.170   1.203 -0.0631 -0.8033 -0.0291
  494MOL0     N66606   6.774   6.089   1.298 -0.7993  0.0461 -0.4193
  494MOL0     C66607   6.909   5.285   1.945 -0.5933 -0.2007  0.3675
  494MOL0     C66608   6.816   5.182   1.963 -0.6116 -0.8739 -0.5203
  494MOL0     C66609   6.565   4.831   1.977  0.0650 -0.0164 -0.6906
  494MOL0     C66610   6.637   4.715   2.006  0.0100 -0.5209  0.3545
  494MOL0     C66611   6.567   4.594   2.016 -0.0206 -0.1054 -0.1781
  494MOL0     C66612   6.433   4.586   2.025  0.1290  0.5008  0.4019
  494MOL0     O66613   6.369   4.467   2.049 -0.1091  0.3906 -0.9177
  494MOL0     C66614   6.238   4.452   1.999 -0.5031  0.9266  0.6491
  494MOL0     C66615   6.226   4.316   1.926 -0.0561 -0.5743  0.6611
  494MOL0     C66616   6.250   4.195   2.019 -0.2448  0.2911  0.5008
  494MOL0     C66617   6.214   4.070   1.946 -0.3321 -0.3593  0.5787
  494MOL0     C66618   6.264   3.950   2.009 -0.4235  0.4928  0.4635
  494MOL0     C66619   6.307   3.862   2.081 -0.7078  0.0896 -0.5979
  494MOL0     C66620   6.355   4.706   2.019  0.2716 -0.2290  0.0261
  494MOL0     C66621   6.419   4.830   1.991 -0.7912  1.2371  0.2314
  494MOL0     C66622   6.328   4.949   1.952 -0.2817 -0.3072 -0.1389
  494MOL0     H66623   7.016   4.941   1.814  2.8710  0.2968  2.4709
  494MOL0     H66624   7.148   5.120   1.760  1.0846 -3.2247  1.9519
  494MOL0     H66625   7.309   5.329   1.846 -0.6384 -1.3842  0.2448
  494MOL0     H66626   7.213   5.326   1.699  2.5710  1.8689 -2.1627
  494MOL0     H66627   7.381   5.518   1.726 -0.9034 -0.4764 -3.0957
  494MOL0     H66628   7.281   5.580   1.856 -2.2388  1.3684 -1.0758
  494MOL0     H66629   7.085   5.616   1.718 -0.9932 -1.3105 -2.4080
  494MOL0     H66630   7.178   5.579   1.567  2.7289  0.2890 -0.0965
  494MOL0     H66631   7.233   5.805   1.767 -4.4186 -0.1868 -0.1013
  494MOL0     H66632   7.336   5.751   1.634 -0.2559  1.2248  0.2553
  494MOL0     H66633   7.200   5.955   1.577 -0.2008  0.5004  0.3489
  494MOL0     H66634   7.165   5.822   1.473 -0.0251  2.0742 -0.3566
  494MOL0     H66635   6.972   5.764   1.563  1.2821 -1.5038  2.3415
  494MOL0     H66636   6.966   5.878   1.694  0.6862 -0.2710  0.2208
  494MOL0     H66637   7.006   6.065   1.518  2.6399 -0.1277 -4.0583
  494MOL0     H66638   6.838   5.980   1.519 -0.1933 -0.3095 -2.8918
  494MOL0     H66639   7.066   5.937   1.319  0.0597  0.5607  0.9946
  494MOL0     H66640   6.914   5.842   1.329 -2.3105  0.7924 -0.4192
  494MOL0     H66641   7.047   6.080   1.125 -0.3209 -0.1497 -0.7202
  494MOL0     H66642   6.823   6.362   1.012  0.8034  0.2722  0.1107
  494MOL0     H66643   6.979   6.284   0.975  2.1623 -2.8502  3.2467
  494MOL0     H66644   6.893   6.154   0.806  1.0265  2.4940 -1.5195
  494MOL0     H66645   6.736   6.127   0.888 -0.9152  0.9767 -0.0485
  494MOL0     H66646   6.858   6.368   0.721  1.0063 -2.0179 -3.0962
  494MOL0     H66647   6.713   6.387   0.813 -0.0996 -0.6988 -0.6655
  494MOL0     H66648   6.584   6.247   0.685  0.7008 -1.2485  1.3508
  494MOL0     H66649   6.733   6.165   0.622 -0.5644 -0.0552  2.0074
  494MOL0     H66650   6.548   6.102   0.489  0.4377 -3.0083 -2.6578
  494MOL0     H66651   6.436   6.046   0.286 -2.1803  2.4960 -1.5703
  494MOL0     H66652   6.216   6.215  -0.111 -0.8566 -1.2586 -1.2307
  494MOL0     H66653   6.131   6.142  -0.322  1.6064 -2.1059  1.8012
  494MOL0     H66654   6.272   6.272  -0.621  4.9424  1.0348  2.9559
  494MOL0     H66655   6.405   6.174  -0.675 -0.5997  1.4333 -1.3443
  494MOL0     H66656   6.262   6.029  -0.816 -2.8163  0.9143 -3.5037
  494MOL0     H66657   6.120   6.100  -0.742 -0.4452 -1.9808 -1.2674
  494MOL0     H66658   6.275   6.309  -0.850 -1.6423  0.9522 -0.1415
  494MOL0     H66659   6.326   6.172  -0.954  1.7698 -2.4998  3.4077
  494MOL0     H66660   6.037   6.285  -0.899  0.0543 -1.0294  1.5677
  494MOL0     H66661   6.068   6.136  -0.981 -0.9897 -0.0167 -2.8647
  494MOL0     H66662   6.195   6.301  -1.161 -0.0097 -0.6294 -0.3193
  494MOL0     H66663   6.098   6.427  -1.081 -3.0473  0.3409 -0.6541
  494MOL0     H66664   5.979   6.353  -1.272 -0.1051  2.2444  1.3243
  494MOL0     H66665   6.004   6.187  -1.232 -0.0588 -0.6863  0.5545
  494MOL0     H66666   5.818   6.347  -1.039  4.0768  0.2943  0.6746
  494MOL0     H66667   5.837   6.168  -1.066 -0.8302  0.6696 -1.3858
  494MOL0     H66668   5.749   6.171  -1.270 -1.3596 -1.5837  0.4556
  494MOL0     H66669   5.636   6.266  -1.162 -0.8108  2.1124 -1.8628
  494MOL0     H66670   6.521   6.111  -0.485 -1.0969 -0.8831 -0.3881
  494MOL0     H66671   6.610   6.196  -0.243  0.3587 -0.4217 -1.1016
  494MOL0     H66672   6.565   6.410   0.099  0.9942 -2.8076 -0.5869
  494MOL0     H66673   6.661   6.480   0.331 -1.6299  0.6985 -2.9085
  494MOL0     H66674   6.886   5.384   1.983  1.4211  0.0952  0.9055
  494MOL0     H66675   6.734   5.207   2.029 -0.1269  2.4412 -1.0321
  494MOL0     H66676   6.742   4.721   1.979 -0.6282  1.4109 -1.9478
  494MOL0     H66677   6.620   4.503   1.990  2.5948  0.6700  2.0874
  494MOL0     H66678   6.208   4.533   1.932  0.6625 -0.7625 -2.1073
  494MOL0     H66679   6.174   4.452   2.087  0.9873  2.9834  1.8364
  494MOL0     H66680   6.278   4.316   1.830 -3.0851  0.9747 -1.1379
  494MOL0     H66681   6.121   4.302   1.898 -1.1701  4.2271  1.5464
  494MOL0     H66682   6.199   4.207   2.114  0.9584 -2.5742  1.6428
  494MOL0     H66683   6.352   4.184   2.058 -0.5484 -2.9104  0.7238
  494MOL0     H66684   6.108   4.075   1.920  0.4212  1.4308 -2.6405
  494MOL0     H66685   6.269   4.075   1.852 -0.5509  0.4468  0.4909
  494MOL0     H66686   6.337   3.780   2.143 -1.9792 -1.7448 -2.2964
  494MOL0     H66687   6.249   4.693   2.040  0.7333 -1.9215  1.5083
  494MOL0     H66688   6.333   4.965   1.844 -0.4091  0.7732  0.0031
  494MOL0     H66689   6.227   4.921   1.985  0.4612  1.0014  3.7934
  494MOL0     H66690   6.361   5.036   2.009 -0.2306  0.3460 -1.1288
  495MOL0     O66691   5.960   6.559   7.252  0.6485 -0.7109  0.4040
  495MOL0     C66692   6.014   6.473   7.318 -0.2094 -0.4594  0.2389
  495MOL0     O66693   6.029   6.481   7.456  0.6965  0.0677 -0.4673
  495MOL0     C66694   5.995   6.590   7.524 -0.1629 -0.5002 -0.3690
  495MOL0     C66695   5.948   6.561   7.648 -0.7440 -0.7194  0.8146
  495MOL0     C66696   5.928   6.660   7.752  0.1344 -0.3792 -0.2157
  495MOL0     C66697   5.954   6.797   7.721  0.3037 -0.4612  0.1269
  495MOL0     O66698   5.941   6.898   7.811  0.6930 -0.0722 -0.4808
  495MOL0     C66699   5.849   6.877   7.918 -0.1951  0.0096  0.3524
  495MOL0     C66700   5.833   6.991   8.019 -0.2512 -0.4192 -0.8937
  495MOL0     C66701   5.758   6.953   8.147 -0.0144  0.6667 -0.0506
  495MOL0     C66702   5.669   7.072   8.203  0.1100  0.0241  0.0184
  495MOL0     C66703   5.759   7.188   8.252 -0.7044  0.8124 -0.4363
  495MOL0     C66704   5.873   7.150   8.356  1.0109 -0.6807  0.0096
  495MOL0     C66705   5.936   7.276   8.406 -1.0377 -0.3586  0.2530
  495MOL0     C66706   6.041   7.254   8.509 -1.3305 -0.0405 -0.2448
  495MOL0     N66707   5.990   7.206   8.641 -1.1615  0.3949  0.1254
  495MOL0     C66708   5.907   7.272   8.730 -0.9220  1.0788 -0.0506
  495MOL0     C66709   5.875   7.179   8.818 -0.1913  0.2229 -1.2183
  495MOL0     C66710   5.787   7.184   8.946  1.3383  0.2085  1.3396
  495MOL0     C66711   5.851   7.136   9.073 -0.0576 -0.1219 -0.2219
  495MOL0     C66712   5.998   7.189   9.084 -0.4122 -0.4713 -0.2229
  495MOL0     C66713   6.067   7.174   9.223 -0.3833 -0.9627  0.5278
  495MOL0     O66714   6.066   7.031   9.244 -0.0446  0.2801  0.1536
  495MOL0     C66715   6.089   6.987   9.374 -0.0245  0.5814  0.0049
  495MOL0     C66716   6.105   6.845   9.381  0.3891 -0.0119 -0.5849
  495MOL0     C66717   6.129   6.781   9.501  0.5483 -0.0277  0.1274
  495MOL0     C66718   6.117   6.849   9.625 -0.2218 -0.0003  1.0248
  495MOL0     C66719   6.113   6.776   9.751  0.6398 -0.1852  0.5304
  495MOL0     O66720   6.050   6.654   9.741  0.3038 -0.5954  0.6492
  495MOL0     C66721   6.068   6.556   9.835 -0.1381 -0.7484 -0.9285
  495MOL0     C66722   6.105   6.426   9.795  0.9562  0.0099 -0.2697
  495MOL0     C66723   6.154   6.340   9.892 -0.0895 -0.3584 -0.7446
  495MOL0     C66724   6.190   6.383  10.020 -0.5654 -0.2461 -1.2825
  495MOL0     O66725   6.265   6.301  10.115  0.4708  0.2969  0.1765
  495MOL0     C66726   6.309   6.175  10.064 -0.1964 -0.4736  0.5720
  495MOL0     C66727   6.389   6.106  10.184  0.1067 -0.9964  0.6423
  495MOL0     C66728   6.451   5.963  10.171  0.0569  0.1988  0.2309
  495MOL0     C66729   6.496   5.936  10.313 -0.8600  0.0281  0.8401
  495MOL0     C66730   6.609   5.829  10.329  0.6007 -0.0151 -0.7835
  495MOL0     C66731   6.685   5.834  10.466  0.4000  0.3731 -0.2868
  495MOL0     C66732   6.585   5.822  10.590 -0.6690 -1.0415  1.6131
  495MOL0     C66733   6.658   5.770  10.712  0.4646 -0.7125 -0.1725
  495MOL0    Cl66734   6.773   5.876  10.791 -0.3301 -0.4326 -0.2837
  495MOL0     C66735   6.124   6.507  10.063  0.2800 -0.3264  0.6542
  495MOL0     C66736   6.071   6.592   9.968 -0.2018 -0.4217  0.5448
  495MOL0     O66737   6.185   6.816   9.840  0.4588  0.3837  1.0562
  495MOL0     C66738   6.112   6.993   9.613  0.1481  0.2066  1.3759
  495MOL0     C66739   6.084   7.058   9.493 -1.5791 -0.7139 -0.6672
  495MOL0     N66740   5.957   7.059   8.789 -0.6491  0.9726  1.1670
  495MOL0     N66741   6.028   7.078   8.682 -0.3363 -1.0501 -0.2045
  495MOL0     C66742   5.997   6.824   7.590 -0.3363 -0.5007 -0.0776
  495MOL0     C66743   6.014   6.722   7.490  0.1878 -0.4423  0.1147
  495MOL0     C66744   6.073   6.358   7.246 -0.2689  0.9793 -0.8886
  495MOL0     C66745   6.024   6.335   7.118  0.3394  0.2342  0.2270
  495MOL0     C66746   6.089   6.246   7.031 -0.3010  0.4095 -0.0100
  495MOL0     C66747   6.203   6.179   7.072 -0.1108  0.0151 -0.2473
  495MOL0     O66748   6.274   6.099   6.982  0.3929 -0.2182  0.2639
  495MOL0     C66749   6.410   6.054   7.014  0.1697 -0.5129  0.5544
  495MOL0     C66750   6.451   5.947   6.920  0.8689  0.0986 -0.8802
  495MOL0     C66751   6.415   5.974   6.772  0.2641  0.1629 -0.9572
  495MOL0     C66752   6.523   5.902   6.683  0.5658  0.3985 -0.9401
  495MOL0     C66753   6.515   5.762   6.703 -0.0256  0.0207  0.5906
  495MOL0     C66754   6.512   5.643   6.710  0.2527 -0.1193  0.4202
  495MOL0     C66755   6.252   6.200   7.199  0.7196 -0.3037 -0.9423
  495MOL0     C66756   6.190   6.289   7.290  0.4626 -0.4560  0.0090
  495MOL0     C66757   6.253   6.310   7.425 -0.4714  0.5354 -0.4356
  495MOL0     H66758   5.929   6.457   7.671  1.6650 -1.2912  0.3927
  495MOL0     H66759   5.886   6.614   7.841 -1.3280  1.4529  0.1062
  495MOL0     H66760   5.748   6.863   7.878 -0.5715 -1.8018  1.7971
  495MOL0     H66761   5.890   6.791   7.971  1.1852 -2.1791 -3.8258
  495MOL0     H66762   5.769   7.063   7.968  3.7497  3.1287 -1.4940
  495MOL0     H66763   5.929   7.039   8.042  1.1410 -2.7226 -1.5484
  495MOL0     H66764   5.812   6.921   8.237 -0.0103  2.4452  0.6077
  495MOL0     H66765   5.692   6.870   8.122  1.6724 -0.4848 -0.8781
  495MOL0     H66766   5.610   7.119   8.124  1.7020 -0.0935 -1.3007
  495MOL0     H66767   5.607   7.042   8.288  1.5560  3.7219  2.5929
  495MOL0     H66768   5.814   7.213   8.160  2.4275 -0.9992  0.7998
  495MOL0     H66769   5.700   7.273   8.286 -2.4127 -0.3498 -0.3813
  495MOL0     H66770   5.818   7.099   8.436  0.9073  1.4659  1.3620
  495MOL0     H66771   5.949   7.078   8.324  1.3285  0.5633 -2.1565
  495MOL0     H66772   5.857   7.342   8.444 -1.4631 -0.6757 -0.0719
  495MOL0     H66773   5.989   7.324   8.323 -1.0950  2.9791  1.9862
  495MOL0     H66774   6.113   7.180   8.475 -1.0560 -0.0307  0.2988
  495MOL0     H66775   6.103   7.343   8.524 -0.4186  0.2435 -4.5453
  495MOL0     H66776   5.864   7.371   8.738 -0.3226  1.6166 -2.7181
  495MOL0     H66777   5.736   7.281   8.943 -1.2243 -1.0538 -0.4118
  495MOL0     H66778   5.698   7.125   8.922 -0.2828  1.2950  4.2348
  495MOL0     H66779   5.795   7.165   9.162 -1.2015  0.2916 -1.0596
  495MOL0     H66780   5.864   7.027   9.071  1.5423  0.0339 -0.0721
  495MOL0     H66781   5.990   7.296   9.061  2.3587 -0.8462 -3.8477
  495MOL0     H66782   6.057   7.157   8.998  0.5105  2.4280 -0.7891
  495MOL0     H66783   6.017   7.227   9.305  0.8633  1.0077  0.0849
  495MOL0     H66784   6.173   7.200   9.213 -1.6538  4.8120 -2.6023
  495MOL0     H66785   6.114   6.788   9.289 -0.6656 -2.8288  0.9436
  495MOL0     H66786   6.132   6.673   9.498  0.6538  0.0022 -1.3839
  495MOL0     H66787   6.093   6.414   9.688 -2.4532  0.9295 -0.1270
  495MOL0     H66788   6.184   6.241   9.860 -0.6292 -2.1240  3.4691
  495MOL0     H66789   6.227   6.106  10.041  0.7297 -0.9756 -1.3543
  495MOL0     H66790   6.369   6.200   9.976 -4.5884  1.9859 -2.0862
  495MOL0     H66791   6.474   6.172  10.205 -1.7074  2.2209 -1.3511
  495MOL0     H66792   6.322   6.115  10.270  0.2159  2.5453  0.5063
  495MOL0     H66793   6.377   5.898  10.126  1.2478 -0.1234 -1.3707
  495MOL0     H66794   6.542   5.968  10.109 -2.1079 -0.4991 -3.3138
  495MOL0     H66795   6.410   5.908  10.374 -0.0666  0.7465  2.3644
  495MOL0     H66796   6.537   6.030  10.353 -2.6400 -0.1839  3.3886
  495MOL0     H66797   6.677   5.842  10.244 -0.7427 -1.3503 -2.1127
  495MOL0     H66798   6.574   5.726  10.329 -0.3984  0.2276  2.3140
  495MOL0     H66799   6.760   5.756  10.483 -0.5593 -0.6911 -0.7360
  495MOL0     H66800   6.740   5.928  10.467 -2.7799  2.3737  0.0435
  495MOL0     H66801   6.504   5.758  10.553 -1.0783  0.6024 -0.5282
  495MOL0     H66802   6.556   5.925  10.610 -0.0038 -0.9305  1.9978
  495MOL0     H66803   6.583   5.728  10.780 -1.3680 -0.3985 -1.9077
  495MOL0     H66804   6.717   5.687  10.671 -0.0759  0.7205 -4.3053
  495MOL0     H66805   6.148   6.540  10.164 -0.2636 -1.8937  1.3347
  495MOL0     H66806   6.061   6.691  10.012  0.6973 -0.8448  1.7418
  495MOL0     H66807   6.106   7.057   9.701  2.2563  2.5747 -0.0794
  495MOL0     H66808   6.055   7.163   9.491 -1.1437 -0.5947 -0.9625
  495MOL0     H66809   5.993   6.932   7.585  2.1521 -0.2174  2.0341
  495MOL0     H66810   6.066   6.746   7.398  2.6830 -1.9561  1.0123
  495MOL0     H66811   5.936   6.385   7.081 -0.7295  0.6876  3.1151
  495MOL0     H66812   6.044   6.239   6.933 -3.4762  1.9488  1.1875
  495MOL0     H66813   6.407   6.017   7.117 -4.5529  0.0738  0.8158
  495MOL0     H66814   6.478   6.139   7.009 -1.0291  0.4635  0.4774
  495MOL0     H66815   6.406   5.856   6.961  1.2115  0.6805  0.8937
  495MOL0     H66816   6.560   5.944   6.922  0.9944  1.4607  2.7651
  495MOL0     H66817   6.424   6.080   6.746  0.2835  0.2394 -0.6386
  495MOL0     H66818   6.316   5.932   6.749  0.5976 -0.4958 -1.2196
  495MOL0     H66819   6.523   5.939   6.580  1.7884  0.1703 -1.0370
  495MOL0     H66820   6.626   5.933   6.701 -0.1420  2.7482 -0.5134
  495MOL0     H66821   6.503   5.537   6.702  1.8163 -0.0934 -3.6469
  495MOL0     H66822   6.348   6.163   7.234  0.6992 -0.7407 -1.3463
  495MOL0     H66823   6.290   6.412   7.439  0.0398  0.1663  1.0936
  495MOL0     H66824   6.186   6.288   7.508  1.8843  2.6009  2.1948
  495MOL0     H66825   6.338   6.243   7.440  0.8684  2.3500  0.5035
  496MOL0     O66826   6.238   7.376   9.796 -0.0728  0.3778 -0.7911
  496MOL0     C66827   6.329   7.361   9.871 -1.2543  0.4124 -0.4282
  496MOL0     O66828   6.385   7.453   9.955  0.5793  0.0246 -0.4692
  496MOL0     C66829   6.356   7.586   9.937 -0.6990  0.0551 -0.7203
  496MOL0     C66830   6.227   7.630   9.956  0.5687  0.6030 -0.3692
  496MOL0     C66831   6.195   7.765   9.922 -0.4467 -0.0699  0.2776
  496MOL0     C66832   6.288   7.851   9.869 -0.2992 -0.6317  0.0610
  496MOL0     O66833   6.233   7.972   9.828 -0.0349 -0.8541  0.1324
  496MOL0     C66834   6.322   8.072   9.776  0.0224 -0.5496 -0.4582
  496MOL0     C66835   6.263   8.211   9.800  0.1623  0.0364 -0.5095
  496MOL0     C66836   6.224   8.231   9.950 -0.0829 -0.7526 -0.1058
  496MOL0     C66837   6.198   8.377   9.966  0.5210  0.0967  0.0966
  496MOL0     C66838   6.196   8.418  10.120 -0.4568  0.2919  0.2101
  496MOL0     C66839   6.263   8.557  10.141 -0.5870 -0.4788  0.5540
  496MOL0     C66840   6.230   8.626  10.270  0.2966 -0.5455 -0.9555
  496MOL0     C66841   6.318   8.582  10.382 -0.9487 -0.3672  0.6373
  496MOL0     N66842   6.246   8.560  10.502 -0.2433  0.0814  0.0899
  496MOL0     C66843   6.151   8.449  10.512 -0.3480  0.4910 -0.0442
  496MOL0     C66844   6.059   8.494  10.604 -0.0058  0.7518 -0.1782
  496MOL0     C66845   5.961   8.396  10.673 -0.7273 -0.0538 -0.7563
  496MOL0     C66846   5.827   8.388  10.604  0.8763 -0.5082 -0.6583
  496MOL0     C66847   5.833   8.385  10.448  0.9895 -0.8896 -0.6317
  496MOL0     C66848   5.704   8.390  10.374  0.2348 -0.1755 -0.2497
  496MOL0     O66849   5.597   8.443  10.453  0.3356 -0.0663 -0.3110
  496MOL0     C66850   5.466   8.425  10.417  0.1150 -0.8148 -0.1695
  496MOL0     C66851   5.363   8.438  10.516 -0.3865  0.1620 -0.6884
  496MOL0     C66852   5.235   8.416  10.490  0.1890 -0.0129  0.0549
  496MOL0     C66853   5.186   8.377  10.362  0.1957  0.7616  0.5075
  496MOL0     C66854   5.041   8.352  10.346  0.7015 -0.0203 -0.0428
  496MOL0     O66855   4.997   8.380  10.226 -1.1327 -0.4163 -0.7948
  496MOL0     C66856   4.866   8.355  10.201 -0.2030  0.0666 -0.5664
  496MOL0     C66857   4.821   8.400  10.075  0.2763  0.5840  0.1974
  496MOL0     C66858   4.690   8.378  10.020  0.6827  0.8494  0.1225
  496MOL0     C66859   4.595   8.309  10.102  0.8887 -0.4738 -0.2875
  496MOL0     O66860   4.471   8.295  10.042 -0.1181 -0.1691 -0.0065
  496MOL0     C66861   4.371   8.251  10.135  0.6734  0.1892 -0.4945
  496MOL0     C66862   4.232   8.256  10.072  0.7997  0.5537  0.1072
  496MOL0     C66863   4.213   8.141   9.962 -0.7612 -0.0183 -0.0838
  496MOL0     C66864   4.073   8.165   9.898  0.7929  0.0973 -0.3069
  496MOL0     C66865   4.022   8.050   9.805 -0.7476  0.3074 -0.4365
  496MOL0     C66866   4.108   8.030   9.678 -0.2716 -0.3085  0.0165
  496MOL0     C66867   4.056   7.945   9.565  0.1463  0.3311  1.1831
  496MOL0     C66868   3.958   8.014   9.478 -0.6641  0.5091  0.0059
  496MOL0    Cl66869   4.055   8.138   9.384 -0.3896  0.2715  0.3677
  496MOL0     C66870   4.638   8.265  10.234 -0.9632  0.1683 -0.3740
  496MOL0     C66871   4.770   8.280  10.274  0.4296 -0.4168  0.1549
  496MOL0     O66872   4.976   8.336  10.449 -0.0720 -0.5432  0.0908
  496MOL0     C66873   5.287   8.366  10.266  0.0942 -0.1314  0.5371
  496MOL0     C66874   5.423   8.386  10.293  0.1863  0.3195 -1.2399
  496MOL0     N66875   6.094   8.623  10.645  0.1208  0.5771  0.1357
  496MOL0     N66876   6.193   8.662  10.581 -0.0398  0.3567  0.1478
  496MOL0     C66877   6.421   7.813   9.849 -0.0932 -0.7087 -0.4455
  496MOL0     C66878   6.454   7.684   9.884  0.4552  0.3330  0.0426
  496MOL0     C66879   6.389   7.228   9.881  0.4240  0.3171 -0.5767
  496MOL0     C66880   6.317   7.127   9.953  0.0700 -0.6871 -0.2298
  496MOL0     C66881   6.385   7.011   9.985 -1.2584  0.8210  0.1049
  496MOL0     C66882   6.525   6.997   9.976 -0.7080 -0.2756  1.0164
  496MOL0     O66883   6.583   6.886  10.031 -0.6653 -0.0046 -0.3834
  496MOL0     C66884   6.735   6.868  10.022  0.3737  0.0713 -0.5315
  496MOL0     C66885   6.778   6.737  10.092 -0.0888 -0.2893 -0.2541
  496MOL0     C66886   6.933   6.724  10.109 -0.1115  0.1430 -0.1052
  496MOL0     C66887   6.973   6.806  10.234 -0.2266  0.2320  0.7877
  496MOL0     C66888   7.012   6.710  10.339 -0.2095  0.3693  0.5313
  496MOL0     C66889   7.043   6.640  10.427 -0.1845 -0.3640 -1.3141
  496MOL0     C66890   6.596   7.100   9.928 -0.2905  0.2564  0.1520
  496MOL0     C66891   6.531   7.215   9.875  1.4924  0.0034 -0.0643
  496MOL0     C66892   6.620   7.324   9.815 -0.6537  0.4648 -0.1065
  496MOL0     H66893   6.158   7.554   9.993  2.0748 -0.8590 -0.4414
  496MOL0     H66894   6.089   7.786   9.925 -0.5443 -0.5877  0.4922
  496MOL0     H66895   6.421   8.072   9.823 -0.6619  1.4100  1.1375
  496MOL0     H66896   6.329   8.056   9.668 -1.5400  1.5643 -0.9359
  496MOL0     H66897   6.167   8.207   9.748 -0.1013 -0.2930 -0.0061
  496MOL0     H66898   6.332   8.285   9.758  1.9373 -1.0148  0.4397
  496MOL0     H66899   6.302   8.188  10.013  0.7940 -0.7529 -1.1775
  496MOL0     H66900   6.132   8.176   9.974  0.7877 -2.8989 -1.4634
  496MOL0     H66901   6.289   8.427   9.933  1.5773 -0.6542  1.7324
  496MOL0     H66902   6.109   8.416   9.917 -0.3024 -1.2772  0.4486
  496MOL0     H66903   6.090   8.426  10.149 -1.3889 -1.2184 -2.4155
  496MOL0     H66904   6.238   8.339  10.183 -1.1409  0.0346  0.3551
  496MOL0     H66905   6.364   8.533  10.109 -1.2126 -0.8334 -1.3041
  496MOL0     H66906   6.219   8.610  10.057  2.4680 -0.7680 -1.3512
  496MOL0     H66907   6.126   8.614  10.298  0.0450  0.6819 -1.3015
  496MOL0     H66908   6.253   8.730  10.242  1.1908 -0.4857 -0.0424
  496MOL0     H66909   6.365   8.485  10.362 -3.1975 -1.1395 -1.3404
  496MOL0     H66910   6.401   8.651  10.398  0.7631 -2.5220  1.7420
  496MOL0     H66911   6.152   8.352  10.464  1.5628  1.5107 -2.2074
  496MOL0     H66912   6.018   8.304  10.683 -0.1759  0.3741  0.2045
  496MOL0     H66913   5.938   8.423  10.777 -0.1625  1.0132 -0.9002
  496MOL0     H66914   5.774   8.301  10.644 -0.7562 -0.3005 -2.2670
  496MOL0     H66915   5.766   8.470  10.644 -1.0930 -3.8412  4.0961
  496MOL0     H66916   5.894   8.299  10.421  0.6452 -1.2237 -0.3621
  496MOL0     H66917   5.874   8.477  10.406  1.4731 -0.7775  0.0573
  496MOL0     H66918   5.674   8.287  10.355 -0.9230 -0.1456  1.2377
  496MOL0     H66919   5.708   8.436  10.275 -0.2614 -0.0115 -0.1928
  496MOL0     H66920   5.393   8.478  10.612 -0.9741  1.2398 -0.9295
  496MOL0     H66921   5.168   8.439  10.572 -0.6681  2.4804 -1.2283
  496MOL0     H66922   4.910   8.429  10.019  0.2950  0.2048  0.0230
  496MOL0     H66923   4.658   8.419   9.925  0.8318 -0.7626 -0.6443
  496MOL0     H66924   4.392   8.147  10.164 -2.0618  0.0152  1.1627
  496MOL0     H66925   4.367   8.309  10.227 -2.7770  1.9928 -1.5917
  496MOL0     H66926   4.167   8.233  10.157  0.9876 -0.7585 -0.0784
  496MOL0     H66927   4.209   8.354  10.029 -1.0885  0.7680  1.4498
  496MOL0     H66928   4.299   8.149   9.896 -1.5846  2.6261 -0.9413
  496MOL0     H66929   4.218   8.045  10.015  0.2345  1.1602  2.0974
  496MOL0     H66930   4.068   8.257   9.838 -2.3603 -0.5840 -1.2385
  496MOL0     H66931   4.005   8.169   9.984  2.0493 -1.4711  0.8308
  496MOL0     H66932   3.921   8.076   9.770 -1.0458  0.2706  0.3881
  496MOL0     H66933   4.013   7.959   9.866 -0.1328  0.1487 -0.5790
  496MOL0     H66934   4.143   8.131   9.655  2.3253 -1.0768  0.2667
  496MOL0     H66935   4.204   7.988   9.710 -0.1207  0.8198  1.0949
  496MOL0     H66936   3.995   7.864   9.607  1.5699 -1.4446 -0.0417
  496MOL0     H66937   4.128   7.897   9.498 -2.4472 -0.9418 -0.8533
  496MOL0     H66938   3.915   7.949   9.402  0.6930  1.2247 -1.4161
  496MOL0     H66939   3.881   8.067   9.535  1.1622  2.1279  1.0797
  496MOL0     H66940   4.570   8.208  10.297 -1.6992 -2.6585 -3.4101
  496MOL0     H66941   4.791   8.238  10.372  1.3665  1.4810  0.8082
  496MOL0     H66942   5.262   8.348  10.161  3.2412  0.3205 -0.3861
  496MOL0     H66943   5.490   8.362  10.211 -1.8961  0.1604 -2.9757
  496MOL0     H66944   6.495   7.877   9.802  0.8668 -0.7929  0.8911
  496MOL0     H66945   6.559   7.671   9.860 -0.1306  0.0651 -2.8341
  496MOL0     H66946   6.213   7.128   9.985  0.2747  1.2632  0.5240
  496MOL0     H66947   6.335   6.927  10.032 -2.2799  2.1219  1.4311
  496MOL0     H66948   6.788   6.949  10.073 -1.1634  2.4675 -2.4746
  496MOL0     H66949   6.763   6.879   9.916  1.5663  2.2570 -0.0486
  496MOL0     H66950   6.741   6.655  10.029 -0.3298 -0.2391 -0.1768
  496MOL0     H66951   6.726   6.740  10.188  0.2554 -1.2852 -0.0228
  496MOL0     H66952   6.978   6.768  10.020  0.3747  4.0300  1.8439
  496MOL0     H66953   6.956   6.619  10.128 -1.5859 -0.4320 -1.3373
  496MOL0     H66954   7.049   6.879  10.205 -0.2886  0.3288  0.8682
  496MOL0     H66955   6.891   6.869  10.269  1.1113  1.3823  1.9734
  496MOL0     H66956   7.079   6.579  10.507  0.6575 -1.8056 -2.7601
  496MOL0     H66957   6.704   7.085   9.927 -0.2416  0.4625  1.1544
  496MOL0     H66958   6.667   7.373   9.901  1.0087 -2.3372  0.7307
  496MOL0     H66959   6.703   7.276   9.762 -2.8129 -1.1294 -2.3157
  496MOL0     H66960   6.571   7.390   9.743 -0.7440 -0.2487 -0.7112
  497MOL0     O66961   2.426  10.747   0.722 -0.9249  0.7733 -0.2396
  497MOL0     C66962   2.441  10.834   0.640 -0.0790  0.6736  0.4569
  497MOL0     O66963   2.562  10.868   0.586  0.8528  0.1077  0.0679
  497MOL0     C66964   2.656  10.775   0.573 -1.0871 -0.3041  0.2474
  497MOL0     C66965   2.719  10.751   0.451 -0.3164 -0.2413 -0.3012
  497MOL0     C66966   2.825  10.671   0.431  0.3336  0.0652  0.1540
  497MOL0     C66967   2.875  10.594   0.537 -1.1460 -0.4225  1.1667
  497MOL0     O66968   2.983  10.520   0.512 -0.8596  0.0907  0.7133
  497MOL0     C66969   2.965  10.376   0.459 -0.1827  0.2453 -0.1330
  497MOL0     C66970   2.960  10.266   0.569 -0.4720 -0.9734  0.0640
  497MOL0     C66971   2.929  10.129   0.499 -0.1825  0.9393  0.2690
  497MOL0     C66972   2.781  10.083   0.539 -0.2381  0.2764  0.1904
  497MOL0     C66973   2.741   9.952   0.463 -0.5206  0.0170 -0.9366
  497MOL0     C66974   2.609   9.900   0.543  0.1189  0.8631  0.1880
  497MOL0     C66975   2.537   9.791   0.464  0.5788 -0.5589  0.3425
  497MOL0     C66976   2.517   9.834   0.315  0.0330 -0.3610  0.3573
  497MOL0     N66977   2.424   9.734   0.241  0.5617 -0.7502 -0.2902
  497MOL0     C66978   2.353   9.630   0.291 -0.0844  0.2219 -0.4243
  497MOL0     C66979   2.305   9.560   0.185 -0.8822 -1.3993 -0.4322
  497MOL0     C66980   2.224   9.439   0.184 -0.7416  0.0114  0.6373
  497MOL0     C66981   2.305   9.327   0.248  0.3849 -0.4645 -0.0417
  497MOL0     C66982   2.447   9.302   0.197  0.2135 -0.0338 -0.2134
  497MOL0     C66983   2.520   9.180   0.256 -0.1376 -0.2509  0.9897
  497MOL0     O66984   2.543   9.197   0.391 -0.4136 -1.3361  0.1357
  497MOL0     C66985   2.634   9.295   0.430 -0.0367 -0.1711 -1.4799
  497MOL0     C66986   2.736   9.368   0.362  0.1313 -0.2347  0.4825
  497MOL0     C66987   2.810   9.469   0.424 -0.7008  0.5535 -0.4262
  497MOL0     C66988   2.798   9.490   0.567  0.9576 -0.6983  0.9039
  497MOL0     C66989   2.880   9.598   0.631  0.4610  0.4961  0.1485
  497MOL0     O66990   2.983   9.670   0.560  0.0780  0.0756 -0.5944
  497MOL0     C66991   3.061   9.782   0.611  1.1247  0.3050  0.3866
  497MOL0     C66992   3.157   9.832   0.531  0.1580 -1.8497  0.1853
  497MOL0     C66993   3.231   9.944   0.567 -0.6084 -1.1980 -0.8251
  497MOL0     C66994   3.207  10.006   0.691  0.2005 -0.0824  0.5012
  497MOL0     O66995   3.257  10.133   0.718 -0.1584 -0.2544  0.3585
  497MOL0     C66996   3.254  10.190   0.853  1.6526  0.6043  0.6494
  497MOL0     C66997   3.350  10.297   0.873 -0.5199  0.6293  0.5500
  497MOL0     C66998   3.305  10.419   0.775 -0.2547  1.0658  0.2336
  497MOL0     C66999   3.405  10.528   0.797 -0.3132 -0.0937 -0.1892
  497MOL0     C67000   3.356  10.666   0.741  0.5083  0.2946 -0.3185
  497MOL0     C67001   3.446  10.788   0.790  0.2003 -0.4400 -0.0810
  497MOL0     C67002   3.594  10.762   0.739 -0.0620 -0.8820 -0.0768
  497MOL0     C67003   3.672  10.900   0.729 -0.8740  0.6324  0.8888
  497MOL0    Cl67004   3.646  11.023   0.849  0.5279 -0.1807  0.1283
  497MOL0     C67005   3.110   9.945   0.775 -0.3336 -0.1177 -0.0787
  497MOL0     C67006   3.042   9.826   0.741  0.4472 -0.0322 -0.0755
  497MOL0     O67007   2.860   9.614   0.753 -0.3036  0.2495  0.0784
  497MOL0     C67008   2.703   9.415   0.638  0.3767  0.1875  0.7357
  497MOL0     C67009   2.630   9.319   0.567 -0.0585 -0.1105  0.3496
  497MOL0     N67010   2.348   9.634   0.069  0.1918  0.1092 -0.5108
  497MOL0     N67011   2.416   9.736   0.105  0.5710  0.4670 -0.2738
  497MOL0     C67012   2.831  10.617   0.665 -0.5609  0.5532 -0.1349
  497MOL0     C67013   2.717  10.708   0.686 -0.4018 -0.3136  0.5404
  497MOL0     C67014   2.327  10.919   0.596 -0.5207  0.0513 -0.1515
  497MOL0     C67015   2.342  11.053   0.548  0.2103 -0.4202  0.3876
  497MOL0     C67016   2.227  11.135   0.515  1.1308  0.7926  0.2511
  497MOL0     C67017   2.102  11.087   0.547  0.2511  0.5852  0.4107
  497MOL0     O67018   1.993  11.170   0.545 -1.3895  1.0828 -0.3444
  497MOL0     C67019   1.897  11.167   0.437 -0.0648  0.2242 -0.3831
  497MOL0     C67020   1.930  11.270   0.329 -0.0852  0.1461 -0.1740
  497MOL0     C67021   1.889  11.411   0.375  0.9443  0.3644 -0.0833
  497MOL0     C67022   1.952  11.519   0.289  0.3127  0.2623  0.5655
  497MOL0     C67023   1.919  11.502   0.147 -0.1122  0.1613 -0.4775
  497MOL0     C67024   1.908  11.488   0.030 -0.7972  0.5721  0.1301
  497MOL0     C67025   2.077  10.949   0.590 -0.0782  0.8750  1.0879
  497MOL0     C67026   2.199  10.865   0.608 -0.0365  0.5287  0.0279
  497MOL0     C67027   2.165  10.732   0.654 -0.4040  0.4121  0.0330
  497MOL0     H67028   2.674  10.804   0.368  0.0335  1.4678  0.5505
  497MOL0     H67029   2.867  10.664   0.331  0.9506 -2.3416  0.5179
  497MOL0     H67030   2.878  10.372   0.392 -1.5020  2.4746  1.2958
  497MOL0     H67031   3.043  10.360   0.384 -0.7382 -1.0766 -0.4566
  497MOL0     H67032   2.871  10.291   0.628 -1.4509  1.9896 -2.4181
  497MOL0     H67033   3.050  10.267   0.631  0.0785 -2.1277 -0.6820
  497MOL0     H67034   2.994  10.046   0.526  0.3788  1.7033  1.3538
  497MOL0     H67035   2.940  10.133   0.390 -1.4058 -1.4715 -0.0203
  497MOL0     H67036   2.780  10.066   0.647  3.3206 -1.7061  0.0664
  497MOL0     H67037   2.703  10.151   0.503 -1.6435 -0.0759  2.3631
  497MOL0     H67038   2.721   9.981   0.359 -1.0215  1.9849 -0.3360
  497MOL0     H67039   2.824   9.882   0.474 -0.9141 -0.5733 -1.6057
  497MOL0     H67040   2.634   9.882   0.648 -2.6435  1.9652  1.1119
  497MOL0     H67041   2.548   9.988   0.561  0.7395  1.1700  0.8200
  497MOL0     H67042   2.438   9.786   0.512 -0.5226  0.3948 -1.7001
  497MOL0     H67043   2.581   9.691   0.458 -2.9713 -2.2019 -2.0488
  497MOL0     H67044   2.476   9.935   0.312 -0.4728 -0.5497  0.7544
  497MOL0     H67045   2.608   9.845   0.256  0.2354 -0.6923  0.6036
  497MOL0     H67046   2.336   9.597   0.393 -2.6090  0.1721 -0.7931
  497MOL0     H67047   2.138   9.467   0.246 -3.3310  1.5093 -3.2303
  497MOL0     H67048   2.192   9.402   0.087  0.2087 -2.4451  1.1999
  497MOL0     H67049   2.313   9.352   0.354 -0.9785  0.7522 -0.1938
  497MOL0     H67050   2.248   9.234   0.236 -0.2351 -0.2333  1.0363
  497MOL0     H67051   2.503   9.388   0.232  1.1781 -1.6529  2.5846
  497MOL0     H67052   2.447   9.294   0.088  1.5447 -0.1015 -0.2270
  497MOL0     H67053   2.612   9.161   0.200 -1.4596  0.9877 -1.7997
  497MOL0     H67054   2.457   9.093   0.235 -0.6018  0.3765 -0.3109
  497MOL0     H67055   2.745   9.349   0.256  3.7262  3.3114 -0.1041
  497MOL0     H67056   2.880   9.520   0.357  0.3900  0.4590  0.6004
  497MOL0     H67057   3.168   9.785   0.434 -2.6340  3.7739 -3.3944
  497MOL0     H67058   3.318   9.986   0.516  2.4522 -1.9831  3.1868
  497MOL0     H67059   3.153  10.222   0.881  2.1894  1.2379  1.9256
  497MOL0     H67060   3.273  10.099   0.911 -2.5056 -0.9280 -0.0428
  497MOL0     H67061   3.353  10.332   0.977 -2.7379  0.0593  0.8467
  497MOL0     H67062   3.452  10.271   0.844 -0.6662  0.8622 -0.1891
  497MOL0     H67063   3.309  10.397   0.668 -0.1087 -0.5065  0.5391
  497MOL0     H67064   3.204  10.452   0.802  0.0328  0.8238  1.7101
  497MOL0     H67065   3.499  10.497   0.751  1.6325  1.2400  2.6363
  497MOL0     H67066   3.428  10.526   0.904 -0.6080 -3.1785 -0.0872
  497MOL0     H67067   3.256  10.678   0.784 -0.9589 -2.2351 -2.6656
  497MOL0     H67068   3.363  10.656   0.632  4.2589 -1.2225 -0.1003
  497MOL0     H67069   3.407  10.873   0.732  0.6130  0.6225  1.1657
  497MOL0     H67070   3.446  10.807   0.897  2.7409 -3.6379  0.6283
  497MOL0     H67071   3.583  10.720   0.638 -0.8614  0.0345 -0.3803
  497MOL0     H67072   3.661  10.707   0.806  1.5740  0.5781 -0.4302
  497MOL0     H67073   3.780  10.882   0.728 -1.4689 -4.6016  1.3656
  497MOL0     H67074   3.645  10.938   0.630  1.9891  0.9773  0.1541
  497MOL0     H67075   3.093   9.984   0.875 -1.9565  0.4255 -0.5432
  497MOL0     H67076   2.975   9.790   0.819  0.7224 -1.2156 -0.3702
  497MOL0     H67077   2.700   9.426   0.746  2.9714  3.8978  0.5963
  497MOL0     H67078   2.552   9.262   0.618  1.7760  0.1308  3.6856
  497MOL0     H67079   2.875  10.559   0.746  1.1134 -0.9629 -2.0191
  497MOL0     H67080   2.701  10.719   0.793  4.9910  2.6892  1.4299
  497MOL0     H67081   2.438  11.099   0.529 -1.2176  3.3660  1.3295
  497MOL0     H67082   2.245  11.234   0.475 -1.4684  1.2034 -0.0883
  497MOL0     H67083   1.806  11.192   0.492 -1.5421 -2.9861 -1.1359
  497MOL0     H67084   1.902  11.066   0.395 -2.8030 -0.6417  1.1706
  497MOL0     H67085   1.875  11.242   0.239 -2.7215  2.1365  0.6934
  497MOL0     H67086   2.036  11.253   0.309 -0.7872  0.5619 -5.8039
  497MOL0     H67087   1.903  11.424   0.483 -0.0360  1.0265 -0.0244
  497MOL0     H67088   1.783  11.427   0.353  0.2813  0.6314  2.8156
  497MOL0     H67089   1.918  11.620   0.315 -2.0523 -0.7482  1.7081
  497MOL0     H67090   2.061  11.511   0.303  0.0906 -0.7494  2.0298
  497MOL0     H67091   1.888  11.466  -0.073  2.5312 -3.1927  0.0617
  497MOL0     H67092   1.977  10.908   0.605  0.3577 -1.8726 -2.3764
  497MOL0     H67093   2.069  10.712   0.606 -0.6321  3.1836 -0.8446
  497MOL0     H67094   2.230  10.650   0.620 -2.5905 -1.4413  0.0735
  497MOL0     H67095   2.147  10.733   0.761 -1.1607 -3.2003  0.0602
  498MOL0     O67096   0.467   6.173   4.277 -0.0336 -0.1822 -0.1641
  498MOL0     C67097   0.483   6.112   4.176  0.0595  0.1933  0.3658
  498MOL0     O67098   0.603   6.081   4.122  0.0718  0.7194 -0.7897
  498MOL0     C67099   0.699   6.062   4.215  0.3077 -0.7973  0.5941
  498MOL0     C67100   0.745   5.930   4.236 -0.8594 -0.2161 -1.1911
  498MOL0     C67101   0.835   5.919   4.340  0.2334 -0.5844 -0.0232
  498MOL0     C67102   0.904   6.026   4.399  0.2344 -0.3037 -0.1525
  498MOL0     O67103   1.006   6.018   4.494  0.1441  0.1573 -0.3436
  498MOL0     C67104   1.127   5.966   4.434 -0.6009  0.0507 -0.4563
  498MOL0     C67105   1.254   5.946   4.522 -0.1348 -0.2373 -0.0518
  498MOL0     C67106   1.303   6.073   4.594  0.6921  0.0133  0.5252
  498MOL0     C67107   1.423   6.045   4.678 -0.9198  0.1711 -0.2414
  498MOL0     C67108   1.466   6.173   4.748 -0.3293  0.5597 -0.0742
  498MOL0     C67109   1.586   6.146   4.849 -0.2762  0.7949  0.6699
  498MOL0     C67110   1.725   6.123   4.781  0.3398 -0.9075  0.1122
  498MOL0     C67111   1.842   6.138   4.883  0.7227  0.7492 -0.3648
  498MOL0     N67112   1.979   6.149   4.829 -0.2778  0.7603 -0.1162
  498MOL0     C67113   2.043   6.250   4.771 -0.1837  0.0073  0.6497
  498MOL0     C67114   2.175   6.219   4.766  0.5131 -0.4285  0.2203
  498MOL0     C67115   2.273   6.293   4.687  0.4166 -0.1685 -0.2628
  498MOL0     C67116   2.409   6.315   4.760  0.3394  0.2119  0.2498
  498MOL0     C67117   2.493   6.409   4.671 -0.2705  0.1534 -0.1932
  498MOL0     C67118   2.575   6.494   4.751 -0.4693 -0.8977 -0.2959
  498MOL0     O67119   2.631   6.599   4.671  0.3215  0.2338  0.3648
  498MOL0     C67120   2.767   6.612   4.661  0.4644  0.0407  0.1419
  498MOL0     C67121   2.805   6.634   4.532 -0.7237 -1.2484 -0.0379
  498MOL0     C67122   2.949   6.641   4.510 -0.6809  1.1673  0.0383
  498MOL0     C67123   3.037   6.641   4.624 -0.1992  0.1819  0.0529
  498MOL0     C67124   3.184   6.655   4.602 -0.4426  0.5875  0.6618
  498MOL0     O67125   3.259   6.605   4.700 -0.1206 -0.1151 -1.2174
  498MOL0     C67126   3.393   6.592   4.690 -0.0982  0.1231  0.2600
  498MOL0     C67127   3.455   6.553   4.567 -0.1724 -0.7629  0.2094
  498MOL0     C67128   3.592   6.559   4.552  0.4815  0.4311 -0.1568
  498MOL0     C67129   3.673   6.604   4.653  0.7683 -0.2035 -0.6072
  498MOL0     O67130   3.807   6.586   4.651  0.4442 -0.3093 -0.5518
  498MOL0     C67131   3.890   6.586   4.529  0.2291 -0.0900 -0.1157
  498MOL0     C67132   4.036   6.545   4.552  0.7702  0.2345  0.3442
  498MOL0     C67133   4.116   6.649   4.637  0.1854  0.1896  0.3399
  498MOL0     C67134   4.259   6.592   4.658 -0.0892 -0.2369  0.4421
  498MOL0     C67135   4.352   6.686   4.735  0.0399  0.5962 -0.9104
  498MOL0     C67136   4.477   6.616   4.789 -0.9258  0.1015  0.7809
  498MOL0     C67137   4.567   6.709   4.868  0.3543  0.0605  0.4622
  498MOL0     C67138   4.669   6.640   4.943  0.2103  0.0892 -0.4178
  498MOL0    Cl67139   4.659   6.707   5.113 -0.4006  0.0338  0.4230
  498MOL0     C67140   3.617   6.644   4.774 -0.5363  0.3478  0.9522
  498MOL0     C67141   3.480   6.642   4.788 -0.1052  0.2836 -0.1382
  498MOL0     O67142   3.220   6.694   4.492  0.0012  0.9529  0.2456
  498MOL0     C67143   2.989   6.621   4.759 -0.7450 -0.2679 -0.8386
  498MOL0     C67144   2.851   6.608   4.775 -0.0614  1.1695 -0.7883
  498MOL0     N67145   2.179   6.094   4.820 -0.0211 -0.8382 -0.2084
  498MOL0     N67146   2.068   6.052   4.843 -0.3486 -0.9763 -0.0417
  498MOL0     C67147   0.856   6.151   4.381  0.9249  0.4492 -0.3056
  498MOL0     C67148   0.758   6.167   4.291  0.0923 -1.2434 -0.5904
  498MOL0     C67149   0.362   6.090   4.082 -0.2536 -0.0230 -0.1673
  498MOL0     C67150   0.390   6.046   3.952  0.7679  0.3327  0.1009
  498MOL0     C67151   0.289   6.031   3.868 -1.0557 -0.8515  0.9763
  498MOL0     C67152   0.148   6.049   3.896 -0.8753  0.3790 -0.0255
  498MOL0     O67153   0.077   6.012   3.792 -0.3408 -0.3713  0.7975
  498MOL0     C67154  -0.059   6.035   3.804 -0.2119 -0.1885 -0.0802
  498MOL0     C67155  -0.099   6.188   3.811 -0.5449  0.8535 -0.4941
  498MOL0     C67156  -0.223   6.211   3.891 -0.3967 -0.2267 -0.0673
  498MOL0     C67157  -0.348   6.168   3.803  0.3502  1.0052  0.4499
  498MOL0     C67158  -0.371   6.246   3.681 -0.0375  0.1165  0.1531
  498MOL0     C67159  -0.389   6.321   3.589  0.3052  1.0542  0.4440
  498MOL0     C67160   0.125   6.067   4.037  0.7620  0.6819 -0.5922
  498MOL0     C67161   0.231   6.089   4.129 -0.0099 -0.1966 -0.9199
  498MOL0     C67162   0.191   6.131   4.265  0.0185  0.3829 -0.2044
  498MOL0     H67163   0.707   5.842   4.185 -2.3608  0.3847 -1.1469
  498MOL0     H67164   0.865   5.818   4.365 -1.2967 -1.6677 -2.2075
  498MOL0     H67165   1.100   5.871   4.386  0.5214  0.8552 -2.8290
  498MOL0     H67166   1.147   6.041   4.358 -3.2189 -1.9669 -3.4227
  498MOL0     H67167   1.335   5.917   4.453 -1.0010 -0.0292 -1.1910
  498MOL0     H67168   1.245   5.867   4.596  0.4149  0.2045  0.5016
  498MOL0     H67169   1.221   6.121   4.648  0.4452  1.8526 -1.3578
  498MOL0     H67170   1.344   6.137   4.515  2.7945  1.3262  2.5613
  498MOL0     H67171   1.397   5.963   4.745 -3.8799 -0.0845 -1.5309
  498MOL0     H67172   1.505   6.004   4.619 -2.2946  0.1291 -2.2439
  498MOL0     H67173   1.487   6.244   4.668 -2.0764 -1.8036 -2.8129
  498MOL0     H67174   1.385   6.206   4.814  0.6383 -2.3335  2.8447
  498MOL0     H67175   1.587   6.224   4.926 -3.0089  1.1105  0.4902
  498MOL0     H67176   1.564   6.061   4.915  1.2805 -0.6504 -0.6139
  498MOL0     H67177   1.737   6.202   4.707  3.5619 -0.4307  0.9606
  498MOL0     H67178   1.734   6.034   4.719  2.5396  1.3341 -3.0937
  498MOL0     H67179   1.816   6.229   4.937 -5.1279 -1.1441  0.6560
  498MOL0     H67180   1.836   6.055   4.955 -4.6493 -0.1684 -1.5050
  498MOL0     H67181   1.985   6.339   4.747 -1.7522 -1.5808 -1.8998
  498MOL0     H67182   2.290   6.230   4.599 -0.2638  0.6616 -1.0097
  498MOL0     H67183   2.233   6.391   4.658  2.1218  1.8807  3.5094
  498MOL0     H67184   2.386   6.369   4.853 -2.4368 -0.3606 -0.0210
  498MOL0     H67185   2.459   6.220   4.779  0.3452  0.5946  2.4983
  498MOL0     H67186   2.439   6.462   4.592  1.1275 -2.7874 -3.4025
  498MOL0     H67187   2.564   6.342   4.622  1.0909  0.3896  1.3739
  498MOL0     H67188   2.644   6.440   4.816  2.9106  2.2724 -0.9382
  498MOL0     H67189   2.520   6.560   4.819 -0.8403  0.3666 -1.7804
  498MOL0     H67190   2.734   6.639   4.450 -2.6382  0.8527  1.6181
  498MOL0     H67191   2.982   6.659   4.408 -1.9990 -0.2835 -0.6856
  498MOL0     H67192   3.388   6.511   4.493 -0.3548 -0.6044  0.2833
  498MOL0     H67193   3.630   6.518   4.459 -2.5299  1.9050 -2.2179
  498MOL0     H67194   3.844   6.508   4.468 -1.2919  0.5002  0.2344
  498MOL0     H67195   3.889   6.691   4.497  0.0916  0.3138  1.1322
  498MOL0     H67196   4.031   6.454   4.613  3.0887 -0.2410 -0.0807
  498MOL0     H67197   4.075   6.530   4.451 -3.0297  4.7576 -2.1743
  498MOL0     H67198   4.121   6.740   4.577 -0.3781 -0.3184 -0.4848
  498MOL0     H67199   4.069   6.670   4.734  1.8337 -0.8554  1.4135
  498MOL0     H67200   4.300   6.585   4.557 -4.0111  0.9699 -1.4362
  498MOL0     H67201   4.248   6.491   4.699 -0.9533  0.3279  1.6567
  498MOL0     H67202   4.307   6.732   4.824  3.8181  1.6401  0.6594
  498MOL0     H67203   4.376   6.770   4.669  1.4791  1.5705  0.7609
  498MOL0     H67204   4.449   6.534   4.856 -1.3788  0.0731  0.5602
  498MOL0     H67205   4.526   6.582   4.696  1.1475  0.1892  1.7725
  498MOL0     H67206   4.512   6.782   4.927  1.4648  2.1237 -0.9299
  498MOL0     H67207   4.624   6.758   4.788 -0.5520 -0.4961 -0.5562
  498MOL0     H67208   4.662   6.531   4.938 -0.9608  0.1936 -1.5059
  498MOL0     H67209   4.766   6.661   4.898  0.8345  1.5929  1.4774
  498MOL0     H67210   3.688   6.679   4.849  1.2723 -0.2932 -0.3730
  498MOL0     H67211   3.419   6.677   4.871  0.0594 -1.5170  0.7809
  498MOL0     H67212   3.058   6.615   4.842 -0.5699 -1.5906 -1.0689
  498MOL0     H67213   2.807   6.590   4.873 -1.1830  0.7801 -1.3458
  498MOL0     H67214   0.908   6.234   4.427  2.3820 -0.9368  0.6541
  498MOL0     H67215   0.734   6.271   4.273  0.2015 -0.3547  3.5729
  498MOL0     H67216   0.489   6.021   3.915  0.7228 -0.8750  0.7437
  498MOL0     H67217   0.312   6.020   3.762  1.6360  2.9771  0.9707
  498MOL0     H67218  -0.100   5.991   3.896  1.9750 -2.6518 -0.1478
  498MOL0     H67219  -0.105   5.986   3.718  1.0237  0.1541 -0.9722
  498MOL0     H67220  -0.098   6.217   3.706  3.0379  1.3299 -0.4619
  498MOL0     H67221  -0.018   6.250   3.851  2.4128 -2.5157 -0.7331
  498MOL0     H67222  -0.224   6.318   3.916 -2.9931 -0.0312 -0.7220
  498MOL0     H67223  -0.231   6.154   3.985  1.8033 -0.5955 -0.0556
  498MOL0     H67224  -0.328   6.064   3.773  0.5707  1.2162 -0.1383
  498MOL0     H67225  -0.440   6.181   3.861 -0.0660 -1.8234  0.6052
  498MOL0     H67226  -0.423   6.364   3.498 -5.2975 -0.2916  1.5182
  498MOL0     H67227   0.023   6.077   4.075  0.5593  0.3435 -1.0457
  498MOL0     H67228   0.224   6.234   4.285  1.3492 -0.1383  0.3932
  498MOL0     H67229   0.085   6.114   4.283  0.7530 -1.0073  4.1944
  498MOL0     H67230   0.227   6.054   4.334  2.3117  1.1001 -0.5139
  499MOL0     O67231   9.228   5.175  10.425 -0.8923 -0.5248  0.6279
  499MOL0     C67232   9.319   5.182  10.334  1.0392  0.0720 -0.1563
  499MOL0     O67233   9.341   5.081  10.242 -0.2133 -0.2420  0.2114
  499MOL0     C67234   9.250   4.974  10.225  0.1334 -0.2391  0.4571
  499MOL0     C67235   9.300   4.848  10.221 -0.0605  0.2669 -0.2929
  499MOL0     C67236   9.206   4.742  10.197 -0.6855  0.1428 -0.8803
  499MOL0     C67237   9.077   4.761  10.184 -0.3664  0.2211 -0.1170
  499MOL0     O67238   8.999   4.645  10.164 -0.3355  0.1400 -0.2489
  499MOL0     C67239   8.868   4.659  10.221 -0.2664 -0.2108 -0.3087
  499MOL0     C67240   8.813   4.513  10.220  0.4598 -0.0698  0.8918
  499MOL0     C67241   8.807   4.450  10.093  0.9238 -0.7743 -1.1177
  499MOL0     C67242   8.785   4.295  10.108  0.6767 -0.4965  0.3508
  499MOL0     C67243   8.790   4.219   9.980 -0.0783  0.4613 -0.0581
  499MOL0     C67244   8.758   4.071   9.990 -0.2634 -0.3184  0.4442
  499MOL0     C67245   8.788   3.990   9.868 -0.8374  0.1874  0.1708
  499MOL0     C67246   8.721   3.856   9.863 -0.3756  0.0262 -0.7154
  499MOL0     N67247   8.778   3.774   9.972  0.3533  0.3379  0.2174
  499MOL0     C67248   8.912   3.730   9.970  0.6816 -0.1384 -0.0464
  499MOL0     C67249   8.936   3.653  10.076  0.1252  1.4450 -0.1117
  499MOL0     C67250   9.063   3.581  10.107  0.8763 -0.1667  0.5122
  499MOL0     C67251   9.158   3.649  10.196  0.5736 -0.0570  0.1631
  499MOL0     C67252   9.246   3.763  10.134  0.4807  0.3544 -0.0348
  499MOL0     C67253   9.358   3.804  10.235  0.0258  0.1475 -0.2451
  499MOL0     O67254   9.458   3.704  10.258 -0.3092 -0.1367  0.5299
  499MOL0     C67255   9.577   3.708  10.186  0.0304 -0.3604 -0.2805
  499MOL0     C67256   9.598   3.768  10.063  0.4662  0.1937 -0.0259
  499MOL0     C67257   9.723   3.772   9.992  0.6213 -0.4152 -0.0120
  499MOL0     C67258   9.832   3.716  10.062  0.3701 -0.4652 -0.3998
  499MOL0     C67259   9.967   3.710  10.001  0.6273  0.6535  0.2392
  499MOL0     O67260  10.071   3.649  10.075  0.6869  0.4845  0.0633
  499MOL0     C67261  10.185   3.618  10.013  0.3021  0.1932  0.4404
  499MOL0     C67262  10.207   3.489   9.967 -0.4456  0.4093  0.4305
  499MOL0     C67263  10.330   3.454   9.913 -0.2344  0.8777 -1.1969
  499MOL0     C67264  10.424   3.550   9.888 -0.2408 -0.4153  0.5334
  499MOL0     O67265  10.547   3.529   9.822  0.2846 -0.4477  0.3123
  499MOL0     C67266  10.581   3.405   9.764  0.8025 -0.4604 -0.5686
  499MOL0     C67267  10.655   3.303   9.847  0.4148 -0.5217  0.4392
  499MOL0     C67268  10.777   3.365   9.909 -0.6795  1.1672  0.2182
  499MOL0     C67269  10.855   3.247   9.976  0.4690  0.4936  0.2483
  499MOL0     C67270  10.995   3.264  10.022 -0.3351 -0.5637 -0.2379
  499MOL0     C67271  11.020   3.352  10.140 -0.7017  0.4982 -0.3977
  499MOL0     C67272  11.174   3.386  10.156  0.3943  0.7157 -0.3868
  499MOL0     C67273  11.224   3.357  10.291 -0.4029 -0.2291  0.0913
  499MOL0    Cl67274  11.124   3.444  10.413 -0.4335 -0.2817 -0.0658
  499MOL0     C67275  10.391   3.683   9.926 -0.5837  0.3331 -0.6985
  499MOL0     C67276  10.277   3.722   9.981 -0.2881 -0.0197  1.1957
  499MOL0     O67277   9.976   3.742   9.883 -0.0083  0.6170  0.6877
  499MOL0     C67278   9.816   3.663  10.190  0.3216 -0.9159 -0.4550
  499MOL0     C67279   9.691   3.662  10.256  0.6330  0.6822  0.3533
  499MOL0     N67280   8.816   3.638  10.140  0.1544 -0.7495  0.1584
  499MOL0     N67281   8.718   3.716  10.089 -0.3114  0.1693  0.8080
  499MOL0     C67282   9.027   4.892  10.191 -0.1224  0.2587  0.2364
  499MOL0     C67283   9.119   4.992  10.209 -0.5143 -0.0309 -0.2354
  499MOL0     C67284   9.399   5.308  10.330 -0.9535  0.2667 -0.3037
  499MOL0     C67285   9.537   5.303  10.298  0.3949  0.3352  0.2217
  499MOL0     C67286   9.625   5.412  10.323  0.9825 -0.0538  0.5243
  499MOL0     C67287   9.572   5.538  10.369 -0.9230 -0.3848 -0.0086
  499MOL0     O67288   9.649   5.656  10.394 -0.1993 -0.2186  0.2224
  499MOL0     C67289   9.790   5.657  10.373  0.1410  0.0734 -0.2965
  499MOL0     C67290   9.847   5.695  10.241 -0.4020 -0.5805  0.4972
  499MOL0     C67291   9.999   5.671  10.257 -0.2096 -0.2344  0.6395
  499MOL0     C67292  10.066   5.565  10.168 -0.1185  0.9773 -0.0268
  499MOL0     C67293   9.995   5.439  10.165 -0.4528  0.1187  0.5508
  499MOL0     C67294   9.929   5.340  10.151 -0.7592  0.1434 -0.4889
  499MOL0     C67295   9.435   5.543  10.389  0.3296  0.2511  0.3373
  499MOL0     C67296   9.346   5.427  10.371 -0.0005  0.3928 -0.7508
  499MOL0     C67297   9.204   5.450  10.382  0.8547 -0.5185 -0.2953
  499MOL0     H67298   9.406   4.830  10.227  0.5050  1.7045 -3.7839
  499MOL0     H67299   9.231   4.636  10.194  0.4107 -0.0212  4.2378
  499MOL0     H67300   8.865   4.705  10.321 -1.7289 -0.0997 -0.3784
  499MOL0     H67301   8.807   4.726  10.159 -1.4185 -1.3263 -0.4197
  499MOL0     H67302   8.715   4.528  10.267  0.2681  3.3651 -0.3654
  499MOL0     H67303   8.873   4.448  10.285  1.6291 -0.3262 -0.4038
  499MOL0     H67304   8.901   4.461  10.038  0.6308  0.9413 -1.3357
  499MOL0     H67305   8.728   4.497  10.033  0.8483 -0.3599 -0.6955
  499MOL0     H67306   8.875   4.268  10.163  2.2465  3.5159  0.0887
  499MOL0     H67307   8.694   4.281  10.167  0.9542  0.4972  1.0445
  499MOL0     H67308   8.717   4.274   9.920 -2.3632 -1.1115  1.1795
  499MOL0     H67309   8.886   4.225   9.928 -1.0636 -0.7467 -2.1072
  499MOL0     H67310   8.802   4.030  10.081  1.6102  0.9677  0.1704
  499MOL0     H67311   8.649   4.071   9.999 -0.5009 -0.6449 -1.8301
  499MOL0     H67312   8.897   3.992   9.869 -0.8150 -0.2015 -0.7684
  499MOL0     H67313   8.755   4.053   9.785 -2.8636  4.1239  3.5609
  499MOL0     H67314   8.612   3.864   9.873 -0.3192  1.1598 -0.9227
  499MOL0     H67315   8.734   3.805   9.767 -1.7444  1.2517 -1.5892
  499MOL0     H67316   8.982   3.746   9.889 -0.1171 -3.8738 -1.6962
  499MOL0     H67317   9.023   3.491  10.154 -0.3535 -1.0803 -2.0851
  499MOL0     H67318   9.101   3.536  10.014 -0.6867 -2.6397  0.9637
  499MOL0     H67319   9.090   3.695  10.268  3.0912  1.5068  1.6990
  499MOL0     H67320   9.221   3.579  10.252  0.5707 -0.2973 -0.1284
  499MOL0     H67321   9.193   3.857  10.117  1.0193  0.8314  0.8769
  499MOL0     H67322   9.293   3.717  10.046  1.0103 -0.8181  0.8401
  499MOL0     H67323   9.316   3.826  10.334 -1.9071  0.1356 -1.0302
  499MOL0     H67324   9.399   3.900  10.201 -0.3947 -0.1797 -1.7554
  499MOL0     H67325   9.517   3.820  10.013 -1.6171 -2.3791  0.5179
  499MOL0     H67326   9.717   3.810   9.891  0.4896 -2.7318 -0.9326
  499MOL0     H67327  10.131   3.411   9.966  0.6085 -0.6710  1.1198
  499MOL0     H67328  10.348   3.351   9.882  0.4284  1.0594 -1.4309
  499MOL0     H67329  10.499   3.348   9.719 -0.1437 -1.4826  2.2574
  499MOL0     H67330  10.653   3.435   9.687  2.2344 -0.5531  0.6953
  499MOL0     H67331  10.596   3.267   9.931 -0.0422 -0.4978  0.1340
  499MOL0     H67332  10.674   3.215   9.785  0.4381 -1.3305  1.5606
  499MOL0     H67333  10.826   3.412   9.823  2.7779  0.3693  1.5731
  499MOL0     H67334  10.760   3.443   9.983  1.5637  2.3805 -0.4594
  499MOL0     H67335  10.849   3.162   9.906 -0.8354  1.9099 -1.4344
  499MOL0     H67336  10.797   3.223  10.066  0.7209 -1.2404 -0.0124
  499MOL0     H67337  11.042   3.318   9.939 -2.0998  3.5558  1.1355
  499MOL0     H67338  11.028   3.161  10.032 -1.3233 -0.6505  3.5825
  499MOL0     H67339  10.964   3.446  10.135 -0.9529  0.7305  3.6499
  499MOL0     H67340  10.976   3.302  10.226  3.5973  1.0814  2.4591
  499MOL0     H67341  11.186   3.494  10.145 -2.8373  1.9511  4.7412
  499MOL0     H67342  11.237   3.340  10.080  2.2644  1.2773  0.7600
  499MOL0     H67343  11.224   3.248  10.304  1.9445 -0.0666  2.3136
  499MOL0     H67344  11.330   3.385  10.294 -0.8465  1.8575 -1.6657
  499MOL0     H67345  10.475   3.752   9.916 -2.1115  2.6793  1.4312
  499MOL0     H67346  10.257   3.827  10.000 -0.5832  0.7403 -2.6815
  499MOL0     H67347   9.903   3.623  10.241  0.5262 -0.3929 -0.3916
  499MOL0     H67348   9.678   3.606  10.348 -4.2298 -2.1612 -1.6867
  499MOL0     H67349   8.920   4.907  10.178 -0.6564 -2.4942  0.7949
  499MOL0     H67350   9.091   5.097  10.204 -3.2856 -0.7665 -2.0342
  499MOL0     H67351   9.581   5.211  10.260  0.9413  0.6496  0.0794
  499MOL0     H67352   9.732   5.395  10.328  1.1532  0.0584 -1.8737
  499MOL0     H67353   9.822   5.561  10.414 -1.8174 -0.5347 -0.0796
  499MOL0     H67354   9.839   5.726  10.442 -1.3319  0.5230  0.3419
  499MOL0     H67355   9.808   5.793  10.212  2.1447 -0.1143 -1.6420
  499MOL0     H67356   9.822   5.621  10.164  2.0679  0.0355 -1.0058
  499MOL0     H67357  10.028   5.650  10.360  0.8492 -0.0093  0.3950
  499MOL0     H67358  10.053   5.763  10.233  2.5224 -1.7627  0.5682
  499MOL0     H67359  10.071   5.599  10.064 -0.8438  2.1112  0.3028
  499MOL0     H67360  10.171   5.556  10.197 -0.5676  1.8705  2.0206
  499MOL0     H67361   9.868   5.254  10.135  0.2346 -0.2379 -2.5986
  499MOL0     H67362   9.399   5.645  10.393  0.1553  0.2286 -0.4712
  499MOL0     H67363   9.173   5.422  10.482  2.5538 -1.6620 -0.0417
  499MOL0     H67364   9.184   5.556  10.362  2.3257 -0.5928 -2.5701
  499MOL0     H67365   9.144   5.399  10.306  0.6719 -2.0478  0.8508
  500MOL0     O67366   5.484   5.550   2.198  0.3214 -0.6084  0.3776
  500MOL0     C67367   5.463   5.558   2.315 -0.4675  0.5829 -0.1326
  500MOL0     O67368   5.345   5.609   2.369  0.3527  0.2495 -0.6343
  500MOL0     C67369   5.240   5.660   2.294 -0.5929  0.4883  0.3330
  500MOL0     C67370   5.118   5.655   2.354 -0.0139  0.0608 -0.7078
  500MOL0     C67371   5.001   5.683   2.281  0.3649 -0.7688 -0.0914
  500MOL0     C67372   5.005   5.695   2.143 -1.1554  0.2352  0.5311
  500MOL0     O67373   4.896   5.690   2.069  0.0733 -0.4036 -0.2524
  500MOL0     C67374   4.911   5.605   1.952  0.1605 -0.2520 -0.7697
  500MOL0     C67375   4.785   5.536   1.915 -0.1486  1.3485  0.0054
  500MOL0     C67376   4.816   5.431   1.809 -0.9374 -1.4981 -0.3826
  500MOL0     C67377   4.835   5.485   1.666  0.2609 -0.5420  0.5388
  500MOL0     C67378   4.884   5.372   1.576 -0.3054 -0.2494  1.3145
  500MOL0     C67379   4.915   5.426   1.444  0.5383  0.6467 -0.5887
  500MOL0     C67380   4.937   5.311   1.348 -0.1136  0.3085  0.9871
  500MOL0     C67381   4.809   5.272   1.278  0.1491  0.1248 -0.4046
  500MOL0     N67382   4.825   5.167   1.167  0.9115 -0.0523 -0.6439
  500MOL0     C67383   4.752   5.049   1.168  0.3653  0.2748  0.2109
  500MOL0     C67384   4.805   4.987   1.057 -0.3376 -0.5130 -0.0274
  500MOL0     C67385   4.770   4.847   0.996  0.1171  0.3552  0.2172
  500MOL0     C67386   4.887   4.738   1.019  0.6520  0.0824  0.0089
  500MOL0     C67387   5.015   4.760   0.933  0.1112  0.0641 -0.4194
  500MOL0     C67388   5.124   4.653   0.960 -0.0451  0.0048 -0.6363
  500MOL0     O67389   5.178   4.665   1.092  0.4132 -1.1328  0.1926
  500MOL0     C67390   5.279   4.571   1.127  0.6488  0.0255  0.7035
  500MOL0     C67391   5.274   4.500   1.249  0.0818 -0.6064 -0.1647
  500MOL0     C67392   5.376   4.417   1.286 -0.5254  0.3577 -0.2972
  500MOL0     C67393   5.493   4.399   1.209 -0.1849  0.5534 -0.4724
  500MOL0     C67394   5.604   4.317   1.270 -0.3775  0.9163  0.8549
  500MOL0     O67395   5.588   4.277   1.403 -0.4408 -0.7155 -0.1929
  500MOL0     C67396   5.686   4.202   1.456 -0.3193  1.4329  0.1557
  500MOL0     C67397   5.821   4.248   1.488 -1.1839 -0.0603 -0.5113
  500MOL0     C67398   5.916   4.169   1.550 -0.2310 -0.5252 -0.5748
  500MOL0     C67399   5.884   4.034   1.570  0.6356  0.7010  0.0133
  500MOL0     O67400   5.984   3.961   1.636  0.0470  0.3285  0.4594
  500MOL0     C67401   5.998   3.817   1.619 -0.6682  0.0671  0.2124
  500MOL0     C67402   6.126   3.754   1.689  0.2787 -0.0656 -0.3419
  500MOL0     C67403   6.254   3.822   1.639 -0.4096  1.3084  0.6003
  500MOL0     C67404   6.374   3.723   1.626 -0.3605 -0.1959 -1.0889
  500MOL0     C67405   6.489   3.808   1.586 -0.2042  0.4321  0.0568
  500MOL0     C67406   6.619   3.730   1.611 -0.3585  0.9265 -0.8609
  500MOL0     C67407   6.731   3.783   1.534 -0.7196 -0.3687  0.3638
  500MOL0     C67408   6.860   3.703   1.535 -0.0436 -0.2063  0.7171
  500MOL0    Cl67409   6.965   3.780   1.412 -0.1240  0.1158  0.1607
  500MOL0     C67410   5.754   3.986   1.556  1.7701 -0.7369  0.4029
  500MOL0     C67411   5.657   4.062   1.490 -0.0261 -0.7538  0.3088
  500MOL0     O67412   5.709   4.294   1.204 -0.4176  0.8020  0.0822
  500MOL0     C67413   5.501   4.468   1.085  0.3093 -0.8044 -0.2569
  500MOL0     C67414   5.395   4.554   1.052  0.5224 -0.1844  0.3226
  500MOL0     N67415   4.907   5.065   1.006  0.3806  0.0236  0.5557
  500MOL0     N67416   4.896   5.186   1.055 -0.2175  0.0231 -0.7281
  500MOL0     C67417   5.139   5.706   2.077  0.2431  0.4656 -0.2787
  500MOL0     C67418   5.251   5.700   2.158  0.3650  0.8837 -0.6609
  500MOL0     C67419   5.588   5.530   2.397  0.7380 -0.8788 -0.1166
  500MOL0     C67420   5.703   5.485   2.329 -0.3929  0.6255  0.4370
  500MOL0     C67421   5.821   5.468   2.401 -0.1612 -1.0043 -0.0767
  500MOL0     C67422   5.839   5.504   2.535  0.3622  0.6852 -0.4545
  500MOL0     O67423   5.965   5.491   2.590 -0.3119  0.6949 -0.0667
  500MOL0     C67424   5.982   5.535   2.726  0.2685 -0.1805  0.0458
  500MOL0     C67425   6.115   5.499   2.788 -0.6190  0.1767  0.0956
  500MOL0     C67426   6.233   5.537   2.689  0.5922  0.5153  0.0360
  500MOL0     C67427   6.259   5.433   2.581 -0.4881  0.7634  0.0513
  500MOL0     C67428   6.327   5.310   2.615 -0.3573  0.4771 -0.2685
  500MOL0     C67429   6.378   5.197   2.634  0.6917  0.6402 -0.8533
  500MOL0     C67430   5.722   5.546   2.598 -0.6113 -0.1348 -0.0236
  500MOL0     C67431   5.595   5.551   2.536 -0.8010 -0.0505 -0.3460
  500MOL0     C67432   5.480   5.592   2.627  0.2218  0.8296 -0.2336
  500MOL0     H67433   5.077   5.624   2.450 -1.5940 -1.5688 -1.8403
  500MOL0     H67434   4.905   5.688   2.331  0.0887  2.2845 -0.7276
  500MOL0     H67435   4.946   5.665   1.867  0.5955 -0.5758 -0.8238
  500MOL0     H67436   4.996   5.537   1.966  1.1930  1.0549 -0.4344
  500MOL0     H67437   4.714   5.608   1.873  0.0487  1.8850  0.5841
  500MOL0     H67438   4.744   5.502   2.011  0.3779 -1.4116 -0.6520
  500MOL0     H67439   4.728   5.365   1.809 -0.6778 -1.8849  1.2860
  500MOL0     H67440   4.895   5.366   1.849 -1.3256 -1.9652 -0.3627
  500MOL0     H67441   4.736   5.515   1.628  1.8295  1.6416 -2.2621
  500MOL0     H67442   4.895   5.576   1.651  2.4268 -2.2946 -2.6852
  500MOL0     H67443   4.976   5.347   1.629  0.1166 -0.4020  0.5263
  500MOL0     H67444   4.826   5.280   1.560  0.7535 -0.4716 -2.0098
  500MOL0     H67445   4.841   5.494   1.399 -1.6283 -1.8596 -1.0446
  500MOL0     H67446   5.016   5.465   1.459  0.3165  1.2410 -0.5883
  500MOL0     H67447   4.967   5.221   1.404 -1.2568 -1.3450 -0.9246
  500MOL0     H67448   5.011   5.354   1.280 -2.5970  0.1039 -2.0296
  500MOL0     H67449   4.730   5.250   1.350 -0.5776  2.2437 -0.5024
  500MOL0     H67450   4.770   5.360   1.226 -0.3860  0.4092  0.4615
  500MOL0     H67451   4.661   5.027   1.223  0.3224  1.7479  0.7524
  500MOL0     H67452   4.682   4.807   1.047  1.5557 -0.0671  2.5551
  500MOL0     H67453   4.744   4.855   0.890  0.1617  0.8777  0.2437
  500MOL0     H67454   4.919   4.734   1.123 -2.4910  1.0835  1.1140
  500MOL0     H67455   4.851   4.643   0.978  0.7350  0.4603 -0.9852
  500MOL0     H67456   5.063   4.856   0.956  2.0046 -1.4876  2.8662
  500MOL0     H67457   4.981   4.765   0.830  0.3058  3.3119 -0.4386
  500MOL0     H67458   5.197   4.652   0.879  0.0606 -4.9882 -0.7705
  500MOL0     H67459   5.077   4.555   0.945  0.3091  0.0633 -2.3799
  500MOL0     H67460   5.197   4.518   1.324  1.3542  1.2824  0.7432
  500MOL0     H67461   5.371   4.363   1.380  1.6962  1.0050  0.2643
  500MOL0     H67462   5.854   4.345   1.452  1.4960 -0.2006  1.2919
  500MOL0     H67463   6.012   4.209   1.580 -0.5630  0.3997 -0.6999
  500MOL0     H67464   5.915   3.757   1.657  2.1258 -2.7938  2.1888
  500MOL0     H67465   6.003   3.809   1.510 -0.6806 -1.0857  0.2839
  500MOL0     H67466   6.112   3.769   1.797 -3.1620 -2.3973 -0.3026
  500MOL0     H67467   6.123   3.645   1.681 -0.9760 -0.4460  3.2701
  500MOL0     H67468   6.229   3.883   1.551 -1.7848 -1.1953 -0.8720
  500MOL0     H67469   6.287   3.896   1.712 -2.2219  2.9552 -0.1687
  500MOL0     H67470   6.364   3.645   1.551  1.1551 -1.1994 -0.3089
  500MOL0     H67471   6.393   3.682   1.726  2.8985  2.0075 -0.6375
  500MOL0     H67472   6.496   3.902   1.641 -0.0433 -0.1785  1.1012
  500MOL0     H67473   6.481   3.831   1.479 -0.6355 -1.1877 -0.2871
  500MOL0     H67474   6.641   3.726   1.718  1.0964 -1.5673 -1.1754
  500MOL0     H67475   6.600   3.623   1.593  1.7286  0.1116  1.2565
  500MOL0     H67476   6.750   3.886   1.568 -0.7012 -1.5868  4.6325
  500MOL0     H67477   6.703   3.781   1.428  0.2846 -0.7723  0.0942
  500MOL0     H67478   6.910   3.702   1.632  1.0453 -1.6471  0.1755
  500MOL0     H67479   6.835   3.599   1.510  1.2254  0.0550 -2.0339
  500MOL0     H67480   5.740   3.879   1.570  2.2819 -0.8611 -0.0016
  500MOL0     H67481   5.554   4.032   1.468  0.0954 -0.4908 -0.6381
  500MOL0     H67482   5.583   4.449   1.017  0.7742  1.0167 -0.2599
  500MOL0     H67483   5.406   4.607   0.958 -1.2333  1.4618  0.9749
  500MOL0     H67484   5.144   5.733   1.972 -2.2740  0.4456 -0.4588
  500MOL0     H67485   5.346   5.720   2.109  1.0724 -0.0032  0.2991
  500MOL0     H67486   5.694   5.463   2.223 -0.3288  0.2002  0.5192
  500MOL0     H67487   5.910   5.433   2.350  0.2892 -0.0566  0.0391
  500MOL0     H67488   5.913   5.483   2.793 -0.5554  0.1481 -0.5232
  500MOL0     H67489   5.975   5.643   2.744  4.8781  0.2510  0.4864
  500MOL0     H67490   6.117   5.390   2.795  1.2449  0.2645  1.9231
  500MOL0     H67491   6.121   5.543   2.888  2.3769 -0.6722  0.3925
  500MOL0     H67492   6.323   5.560   2.746  1.0009 -1.8944  0.4707
  500MOL0     H67493   6.193   5.623   2.635 -3.2215 -0.9083  0.2339
  500MOL0     H67494   6.185   5.414   2.502  0.3590 -0.3594 -0.4952
  500MOL0     H67495   6.338   5.492   2.534 -1.2403  1.0012 -0.9724
  500MOL0     H67496   6.407   5.095   2.645 -0.5205  0.5535  5.9600
  500MOL0     H67497   5.724   5.558   2.706  0.5585  2.1758 -0.2468
  500MOL0     H67498   5.507   5.607   2.732 -0.7251  2.6147 -0.2161
  500MOL0     H67499   5.445   5.693   2.608  1.1777  1.3478  0.6510
  500MOL0     H67500   5.406   5.512   2.625 -1.0425  1.8874  1.4443
  501MOL0     O67501   8.023   0.885   0.597 -0.1981 -0.3527 -0.2068
  501MOL0     C67502   8.121   0.842   0.666  0.4026  0.6578 -0.0046
  501MOL0     O67503   8.250   0.868   0.637 -0.0611 -0.1988 -0.2637
  501MOL0     C67504   8.280   0.967   0.548  0.6208 -0.5048 -0.4904
  501MOL0     C67505   8.360   0.941   0.438 -0.9651 -0.2435 -0.1822
  501MOL0     C67506   8.420   1.033   0.351  0.4556 -0.3448  0.1702
  501MOL0     C67507   8.405   1.163   0.388  0.1835 -0.1069 -1.1146
  501MOL0     O67508   8.470   1.253   0.322 -0.4943 -0.5557 -0.1829
  501MOL0     C67509   8.478   1.397   0.347 -0.3364  0.6660  0.1646
  501MOL0     C67510   8.529   1.450   0.212  0.0095  0.6422 -0.2845
  501MOL0     C67511   8.421   1.513   0.123  0.3225  0.2086 -0.5262
  501MOL0     C67512   8.483   1.563  -0.008  0.2653 -0.9330 -0.6581
  501MOL0     C67513   8.436   1.706  -0.036  0.8052 -0.0021  0.2384
  501MOL0     C67514   8.515   1.758  -0.143 -0.3898 -0.4844 -1.0775
  501MOL0     C67515   8.450   1.745  -0.279  0.4812 -0.6371 -0.5332
  501MOL0     C67516   8.548   1.796  -0.381  0.1835  0.1243 -0.3864
  501MOL0     N67517   8.467   1.811  -0.500 -0.0175 -0.3122  0.8024
  501MOL0     C67518   8.384   1.710  -0.557 -0.9410  0.7142  0.1544
  501MOL0     C67519   8.278   1.778  -0.598 -0.7327  0.1651 -0.1436
  501MOL0     C67520   8.143   1.716  -0.639 -0.6353 -0.3399  0.3593
  501MOL0     C67521   8.153   1.686  -0.790  0.8315  1.6821  0.2223
  501MOL0     C67522   8.156   1.821  -0.879 -0.6742  0.0349 -0.9572
  501MOL0     C67523   8.132   1.779  -1.021 -0.4548  0.4606 -1.2634
  501MOL0     O67524   8.142   1.885  -1.122  0.0532  0.5198  0.1025
  501MOL0     C67525   8.179   1.833  -1.241 -0.5000 -0.2782  0.8497
  501MOL0     C67526   8.078   1.816  -1.335 -0.1980 -0.0995  0.3218
  501MOL0     C67527   8.096   1.747  -1.458  0.2123 -0.3117  0.0160
  501MOL0     C67528   8.230   1.757  -1.514  0.4928  0.0723 -1.2934
  501MOL0     C67529   8.262   1.697  -1.648  0.6925 -0.3667 -0.0900
  501MOL0     O67530   8.378   1.744  -1.711 -0.0785  0.3009  0.3365
  501MOL0     C67531   8.425   1.673  -1.820 -0.3916  0.3126  0.6269
  501MOL0     C67532   8.432   1.533  -1.843 -0.5624  0.9047 -0.8923
  501MOL0     C67533   8.457   1.476  -1.969  0.5186  0.4209 -0.1291
  501MOL0     C67534   8.485   1.560  -2.077 -0.1756  1.0423 -0.6543
  501MOL0     O67535   8.523   1.523  -2.211  0.0970  0.1998 -1.1216
  501MOL0     C67536   8.481   1.391  -2.257  0.5885 -1.2901 -0.3097
  501MOL0     C67537   8.498   1.383  -2.408 -0.2160  0.8025  0.3283
  501MOL0     C67538   8.487   1.238  -2.468  0.8113 -0.9835  0.7351
  501MOL0     C67539   8.615   1.198  -2.539  0.0116 -0.1529 -0.3074
  501MOL0     C67540   8.633   1.282  -2.659 -0.6506  0.8631 -0.2520
  501MOL0     C67541   8.753   1.228  -2.737 -0.6249 -0.3925  0.0244
  501MOL0     C67542   8.791   1.327  -2.851  0.8285 -0.4497  0.1251
  501MOL0     C67543   8.929   1.281  -2.892 -0.5698  0.7243 -0.2438
  501MOL0    Cl67544   8.930   1.105  -2.942 -0.0378 -0.3996  0.2546
  501MOL0     C67545   8.489   1.695  -2.056 -0.4025 -0.1364 -0.5821
  501MOL0     C67546   8.465   1.747  -1.934 -0.3018 -0.8467 -0.9288
  501MOL0     O67547   8.175   1.624  -1.697 -0.1882  0.4763 -0.8342
  501MOL0     C67548   8.328   1.804  -1.425  0.8136 -1.3871  0.2103
  501MOL0     C67549   8.306   1.831  -1.290 -1.4138 -0.8958 -0.0784
  501MOL0     N67550   8.289   1.916  -0.577 -0.0806 -0.2282 -0.3566
  501MOL0     N67551   8.404   1.934  -0.523  0.7009 -0.5705  0.7625
  501MOL0     C67552   8.336   1.198   0.503  0.1540 -0.3565  1.1119
  501MOL0     C67553   8.275   1.103   0.576 -0.3351  0.8930 -0.0857
  501MOL0     C67554   8.091   0.739   0.769 -1.3282 -0.1156 -0.3008
  501MOL0     C67555   8.168   0.622   0.775 -0.3306  0.5703  0.0661
  501MOL0     C67556   8.152   0.521   0.871  0.1736  0.3460 -0.9464
  501MOL0     C67557   8.051   0.538   0.967  0.5451  0.3474  0.3651
  501MOL0     O67558   8.021   0.446   1.066 -0.6928 -0.8460  0.1853
  501MOL0     C67559   8.058   0.310   1.044  0.7590  0.5282 -0.4244
  501MOL0     C67560   7.961   0.241   0.961  0.0587 -0.1037  0.2497
  501MOL0     C67561   7.811   0.274   0.994 -0.3061 -1.4185  0.4458
  501MOL0     C67562   7.774   0.236   1.132 -0.2579 -0.1834  0.2290
  501MOL0     C67563   7.639   0.248   1.166 -0.2833  0.3236  0.1819
  501MOL0     C67564   7.519   0.252   1.209 -0.0954 -0.3827  0.1999
  501MOL0     C67565   7.968   0.654   0.960 -0.1668 -0.0412  0.3163
  501MOL0     C67566   7.986   0.752   0.862  0.3489 -0.0370 -0.2453
  501MOL0     C67567   7.911   0.880   0.884 -0.1060 -0.0537 -0.4342
  501MOL0     H67568   8.375   0.840   0.400  1.0559 -0.7272  1.7317
  501MOL0     H67569   8.472   1.008   0.259 -3.0262 -0.8782 -1.8060
  501MOL0     H67570   8.377   1.438   0.360 -0.2597  0.5494  1.2821
  501MOL0     H67571   8.547   1.419   0.429 -0.6581 -1.5065  1.0906
  501MOL0     H67572   8.570   1.365   0.156  0.6997  0.8090 -0.0486
  501MOL0     H67573   8.612   1.517   0.237  0.1472  1.3265 -2.4517
  501MOL0     H67574   8.382   1.594   0.186  2.4001  1.6072 -0.9402
  501MOL0     H67575   8.341   1.446   0.091  0.4905 -0.7523  0.9819
  501MOL0     H67576   8.592   1.556  -0.000  0.3862  1.5764  0.9128
  501MOL0     H67577   8.457   1.488  -0.083 -2.0375 -4.5416  3.2556
  501MOL0     H67578   8.329   1.725  -0.051  1.2712  1.6414 -1.4214
  501MOL0     H67579   8.456   1.758   0.058 -1.1470 -0.6751  1.0873
  501MOL0     H67580   8.529   1.865  -0.123 -0.4757 -0.8174  0.8724
  501MOL0     H67581   8.618   1.722  -0.144 -0.1714  0.1193 -1.9776
  501MOL0     H67582   8.359   1.806  -0.281  0.3066 -0.9168 -1.4854
  501MOL0     H67583   8.419   1.642  -0.300  0.5254 -0.8740  0.4795
  501MOL0     H67584   8.601   1.887  -0.351  1.9477 -0.4840 -1.4815
  501MOL0     H67585   8.628   1.723  -0.388  0.4112  0.5105 -3.0848
  501MOL0     H67586   8.402   1.603  -0.553 -0.4218  0.8044  0.4969
  501MOL0     H67587   8.128   1.617  -0.595 -3.1209 -0.9808 -1.6976
  501MOL0     H67588   8.057   1.780  -0.618 -0.5280  0.3246 -1.0667
  501MOL0     H67589   8.247   1.630  -0.800  1.3690  1.9360  3.0493
  501MOL0     H67590   8.072   1.626  -0.831  0.3245  2.6827 -0.2615
  501MOL0     H67591   8.246   1.880  -0.864 -1.3886  0.6444  1.3827
  501MOL0     H67592   8.087   1.898  -0.844 -2.4635 -1.8439 -0.1575
  501MOL0     H67593   8.033   1.732  -1.022 -0.3896 -0.0015  2.4077
  501MOL0     H67594   8.203   1.701  -1.048 -1.4522  0.0989 -3.0039
  501MOL0     H67595   7.979   1.842  -1.300  0.9140  1.6789  2.3383
  501MOL0     H67596   8.018   1.701  -1.518 -0.6909 -0.3169  1.1669
  501MOL0     H67597   8.422   1.463  -1.760  2.8297  0.4025 -0.7432
  501MOL0     H67598   8.455   1.373  -2.004  3.9651  0.7573 -1.7617
  501MOL0     H67599   8.539   1.313  -2.209 -1.9342 -1.8707  2.0132
  501MOL0     H67600   8.372   1.383  -2.244  0.3337  1.4166 -0.1748
  501MOL0     H67601   8.433   1.455  -2.459  1.8798  1.8872 -0.9587
  501MOL0     H67602   8.600   1.418  -2.427 -0.0352 -1.2479 -3.3944
  501MOL0     H67603   8.468   1.172  -2.382 -0.5464 -0.2506  1.0337
  501MOL0     H67604   8.403   1.231  -2.537  0.8615  1.0035  0.4256
  501MOL0     H67605   8.601   1.091  -2.559  0.6585 -0.8448  2.5737
  501MOL0     H67606   8.692   1.202  -2.461 -1.1090 -4.2825  1.2825
  501MOL0     H67607   8.661   1.383  -2.627 -0.1820 -0.1027  2.7671
  501MOL0     H67608   8.540   1.287  -2.716  0.0387  2.1643 -1.3178
  501MOL0     H67609   8.842   1.224  -2.673 -2.1461  0.6074  2.3333
  501MOL0     H67610   8.728   1.132  -2.782 -3.6684  0.4285 -0.2410
  501MOL0     H67611   8.800   1.426  -2.805 -2.0551 -1.0346  2.2387
  501MOL0     H67612   8.731   1.317  -2.942  0.3701 -0.0005  0.3760
  501MOL0     H67613   8.967   1.350  -2.968 -2.1195  2.3591  0.4046
  501MOL0     H67614   9.003   1.294  -2.812  0.2744  0.8383 -1.0225
  501MOL0     H67615   8.496   1.770  -2.135  0.8434  2.6460  1.9752
  501MOL0     H67616   8.453   1.854  -1.920  1.9442 -0.7355  0.7986
  501MOL0     H67617   8.430   1.806  -1.460  1.0220 -1.2905  0.8245
  501MOL0     H67618   8.371   1.861  -1.208 -0.5482  0.2107 -1.1395
  501MOL0     H67619   8.315   1.302   0.528 -0.2855  0.6701 -2.8751
  501MOL0     H67620   8.221   1.142   0.662  0.3780  0.2352  0.6717
  501MOL0     H67621   8.246   0.599   0.703 -1.4277 -1.5917 -0.5160
  501MOL0     H67622   8.217   0.435   0.866 -0.6280 -0.3158 -0.1928
  501MOL0     H67623   8.052   0.266   1.144 -3.1827 -0.4875 -0.9488
  501MOL0     H67624   8.162   0.293   1.014  1.4625 -1.7018  2.7641
  501MOL0     H67625   7.974   0.134   0.980 -2.4334 -0.8548 -1.6854
  501MOL0     H67626   7.981   0.254   0.854  0.7360  1.0666  0.5043
  501MOL0     H67627   7.748   0.233   0.915 -0.0847 -0.4686 -0.2510
  501MOL0     H67628   7.797   0.383   0.990 -0.8709 -1.3696  2.4479
  501MOL0     H67629   7.801   0.130   1.125  0.7661  0.0170  0.9073
  501MOL0     H67630   7.831   0.291   1.207  3.7029  0.4449 -2.8820
  501MOL0     H67631   7.418   0.227   1.234 -0.4589 -1.2482 -1.9106
  501MOL0     H67632   7.897   0.676   1.039  1.0386  3.9931  0.4895
  501MOL0     H67633   7.922   0.952   0.802  3.2865 -0.2930 -0.3396
  501MOL0     H67634   7.807   0.859   0.910  0.5584  1.3720  4.3074
  501MOL0     H67635   7.945   0.932   0.973 -0.4449  1.2016 -1.0133
  502MOL0     O67636   7.920   4.533   7.367 -0.4981 -0.1474  1.1645
  502MOL0     C67637   7.809   4.488   7.345 -0.0095 -0.4113  0.9319
  502MOL0     O67638   7.734   4.409   7.429  0.6097 -0.0176 -0.5106
  502MOL0     C67639   7.785   4.335   7.526 -1.4318 -0.1622 -0.5007
  502MOL0     C67640   7.700   4.290   7.625 -0.0671 -0.4628  0.4952
  502MOL0     C67641   7.742   4.191   7.712 -0.3775 -0.3922 -0.1318
  502MOL0     C67642   7.880   4.150   7.717 -0.3984  0.1158  0.5687
  502MOL0     O67643   7.940   4.058   7.798  0.6356  0.6480 -0.7832
  502MOL0     C67644   7.870   4.014   7.914 -0.4692 -0.0005  0.2902
  502MOL0     C67645   7.775   3.894   7.883  0.0214  0.6867 -0.4966
  502MOL0     C67646   7.706   3.834   8.013 -0.8509 -0.6280  0.5229
  502MOL0     C67647   7.584   3.754   7.994  0.3397  0.1278 -0.4435
  502MOL0     C67648   7.616   3.633   7.913  0.2200  0.0913  0.0981
  502MOL0     C67649   7.497   3.576   7.832  0.2432 -0.4382 -0.0324
  502MOL0     C67650   7.521   3.434   7.779 -0.2317  0.6084 -0.1014
  502MOL0     C67651   7.401   3.358   7.719 -0.4902 -0.5117  0.2594
  502MOL0     N67652   7.292   3.358   7.818  0.3742 -0.7400 -0.0282
  502MOL0     C67653   7.285   3.276   7.922  0.6674  0.7047 -0.5525
  502MOL0     C67654   7.162   3.300   7.984 -0.0590 -0.4982  0.3843
  502MOL0     C67655   7.101   3.253   8.106  0.2712  1.3547  0.9078
  502MOL0     C67656   7.031   3.113   8.076 -0.1903 -0.4103  0.1739
  502MOL0     C67657   6.956   3.049   8.196 -0.1974 -1.5491  0.0558
  502MOL0     C67658   6.807   3.063   8.189 -0.2651  0.8140  0.7407
  502MOL0     O67659   6.748   2.992   8.304 -0.1548  0.3246  0.0367
  502MOL0     C67660   6.618   2.955   8.310 -0.1932 -0.1904 -0.3026
  502MOL0     C67661   6.597   2.853   8.411 -0.2297  0.0980  0.1570
  502MOL0     C67662   6.479   2.778   8.420 -0.7553  0.4219 -0.5640
  502MOL0     C67663   6.379   2.810   8.323 -0.5029 -0.1548  1.4994
  502MOL0     C67664   6.260   2.734   8.312  0.1045 -0.4363  0.2507
  502MOL0     O67665   6.160   2.782   8.222  0.7350 -0.3643 -0.0743
  502MOL0     C67666   6.036   2.715   8.225  0.3146 -0.0257  1.5686
  502MOL0     C67667   5.962   2.699   8.109 -0.8290  0.2270  0.0077
  502MOL0     C67668   5.848   2.616   8.100  0.0603 -0.1439 -0.6058
  502MOL0     C67669   5.795   2.563   8.219 -0.5572 -0.5974  0.3331
  502MOL0     O67670   5.671   2.511   8.226 -0.2027  0.4744 -0.3819
  502MOL0     C67671   5.603   2.438   8.124 -0.0321 -0.0543 -0.3337
  502MOL0     C67672   5.456   2.407   8.172 -0.2684  0.0548  0.4400
  502MOL0     C67673   5.359   2.384   8.061  0.0358 -0.8484  0.2937
  502MOL0     C67674   5.332   2.506   7.976  0.4176 -0.2480 -0.3357
  502MOL0     C67675   5.236   2.484   7.859  0.0134 -0.3044 -0.1659
  502MOL0     C67676   5.197   2.620   7.799 -0.6220 -0.5578  0.0450
  502MOL0     C67677   5.116   2.585   7.672  0.7265  0.4818 -1.0293
  502MOL0     C67678   5.211   2.544   7.558 -0.4735 -0.8842 -0.0585
  502MOL0    Cl67679   5.114   2.425   7.464 -0.2850 -0.3106 -0.3973
  502MOL0     C67680   5.858   2.585   8.334 -0.0988  0.0903 -0.4098
  502MOL0     C67681   5.976   2.655   8.338 -0.7955 -0.0604 -0.4734
  502MOL0     O67682   6.248   2.635   8.381 -0.2057 -0.1558 -0.0507
  502MOL0     C67683   6.397   2.926   8.235  0.6272 -0.5778 -0.3060
  502MOL0     C67684   6.513   2.998   8.234 -0.0690  0.1106 -0.0543
  502MOL0     N67685   7.105   3.409   7.922  0.1249 -0.2043 -0.9355
  502MOL0     N67686   7.179   3.436   7.823  0.3371  0.4226 -1.4136
  502MOL0     C67687   7.958   4.196   7.619  0.1634  0.3932  0.2314
  502MOL0     C67688   7.917   4.284   7.523  1.1476 -0.0402  0.3980
  502MOL0     C67689   7.735   4.542   7.228 -0.5992 -0.0362 -0.1164
  502MOL0     C67690   7.745   4.676   7.184  0.0356 -0.6023 -0.4323
  502MOL0     C67691   7.671   4.733   7.082 -0.4124  0.0186 -0.3503
  502MOL0     C67692   7.567   4.653   7.019 -0.2242  0.6886  1.1485
  502MOL0     O67693   7.486   4.714   6.935  0.9029  0.7231  0.3078
  502MOL0     C67694   7.462   4.642   6.808  0.4726 -1.2080  0.2445
  502MOL0     C67695   7.418   4.733   6.694  0.3387 -0.0434  0.5414
  502MOL0     C67696   7.389   4.652   6.555 -0.7590 -0.3413 -0.4736
  502MOL0     C67697   7.298   4.723   6.472 -0.0857  0.0055  1.4130
  502MOL0     C67698   7.337   4.867   6.451 -1.1783  0.0532  0.6700
  502MOL0     C67699   7.362   4.982   6.445 -0.6401 -1.0406 -1.6166
  502MOL0     C67700   7.562   4.514   7.057 -0.3735 -0.2098  0.0098
  502MOL0     C67701   7.650   4.457   7.152  0.1606 -0.4289 -0.4884
  502MOL0     C67702   7.633   4.313   7.175  0.7255 -0.0525  0.5561
  502MOL0     H67703   7.604   4.339   7.639 -0.2829 -1.2201  1.8024
  502MOL0     H67704   7.665   4.153   7.779 -1.4330  1.0246 -0.4929
  502MOL0     H67705   7.945   3.980   7.987 -0.0989 -1.1503 -0.5882
  502MOL0     H67706   7.812   4.095   7.960 -1.1523  1.3269 -2.6814
  502MOL0     H67707   7.830   3.813   7.833 -0.8043 -0.9078  1.0539
  502MOL0     H67708   7.703   3.927   7.807  0.1689  2.0516 -0.0726
  502MOL0     H67709   7.685   3.908   8.091 -1.4171  1.1750 -1.2652
  502MOL0     H67710   7.782   3.768   8.057  0.3408  1.1431  1.2225
  502MOL0     H67711   7.550   3.726   8.094  0.6419 -0.6896 -0.5683
  502MOL0     H67712   7.504   3.815   7.949  0.1282 -1.0244 -1.6994
  502MOL0     H67713   7.696   3.661   7.844 -1.2052  1.2636 -1.1340
  502MOL0     H67714   7.657   3.556   7.980  1.4431 -2.0374 -2.8741
  502MOL0     H67715   7.413   3.585   7.903 -1.5832 -0.1126 -2.1192
  502MOL0     H67716   7.472   3.657   7.763  0.7550  2.2723  2.7049
  502MOL0     H67717   7.573   3.374   7.853 -0.6436 -1.9976 -1.7967
  502MOL0     H67718   7.592   3.435   7.696  0.9818  0.8801  0.9147
  502MOL0     H67719   7.375   3.423   7.635  4.5330  2.3653  0.5603
  502MOL0     H67720   7.419   3.256   7.686  2.1023 -0.5930  1.6672
  502MOL0     H67721   7.339   3.187   7.953  0.6294  1.2920  1.3028
  502MOL0     H67722   7.176   3.234   8.183  0.3067 -1.5970  0.2469
  502MOL0     H67723   7.026   3.325   8.139 -0.7848  0.1302  1.2518
  502MOL0     H67724   6.957   3.118   7.996  0.8803  0.7925 -0.7696
  502MOL0     H67725   7.113   3.041   8.061 -0.4482 -0.2711 -2.1967
  502MOL0     H67726   6.999   3.105   8.279  0.3996  0.3565 -1.4466
  502MOL0     H67727   6.964   2.940   8.192  0.1439 -1.4986 -0.9242
  502MOL0     H67728   6.769   3.016   8.097  2.9359 -1.0354  0.1881
  502MOL0     H67729   6.788   3.170   8.193 -0.8236  0.7371  0.2584
  502MOL0     H67730   6.676   2.834   8.483 -0.0916  2.6260  0.7467
  502MOL0     H67731   6.457   2.690   8.480 -0.1623 -1.6809 -3.2684
  502MOL0     H67732   5.987   2.748   8.016 -2.9107 -0.6614 -1.0883
  502MOL0     H67733   5.795   2.600   8.006 -1.9052 -1.1171  0.6084
  502MOL0     H67734   5.617   2.482   8.025  0.7778 -4.3541 -2.3427
  502MOL0     H67735   5.655   2.343   8.116 -1.0622 -0.5778 -1.0021
  502MOL0     H67736   5.465   2.319   8.236  0.7963 -0.5157 -0.4663
  502MOL0     H67737   5.421   2.487   8.238 -0.7143  0.8540 -0.7367
  502MOL0     H67738   5.387   2.301   7.995 -0.4718  0.3723 -1.5414
  502MOL0     H67739   5.260   2.351   8.095 -1.5681  2.4343 -0.7169
  502MOL0     H67740   5.428   2.543   7.937  1.8823 -0.0789  3.0598
  502MOL0     H67741   5.294   2.586   8.040 -0.7182 -0.4987 -0.6812
  502MOL0     H67742   5.146   2.432   7.894 -0.8373  0.2943 -1.3981
  502MOL0     H67743   5.288   2.417   7.790  1.2848 -0.3343  0.7853
  502MOL0     H67744   5.125   2.667   7.867 -2.4677 -3.9442  0.6210
  502MOL0     H67745   5.284   2.677   7.766 -2.2423  1.8564 -0.3488
  502MOL0     H67746   5.063   2.677   7.645  0.6916  0.3683 -1.3599
  502MOL0     H67747   5.046   2.510   7.708  0.8531 -0.4458 -2.5941
  502MOL0     H67748   5.230   2.630   7.494  2.0194 -0.9641  0.4715
  502MOL0     H67749   5.310   2.507   7.589 -0.2978 -0.8185 -0.5328
  502MOL0     H67750   5.823   2.558   8.433  0.9591  0.2230  0.0142
  502MOL0     H67751   6.028   2.663   8.433 -1.6003 -1.2960  0.1030
  502MOL0     H67752   6.309   2.953   8.179  0.4325 -2.2320 -0.8422
  502MOL0     H67753   6.519   3.075   8.157 -1.0157  0.9933  0.7401
  502MOL0     H67754   8.059   4.161   7.602  0.0641  0.1135  0.2066
  502MOL0     H67755   7.996   4.291   7.449  1.3167 -4.9063 -0.2067
  502MOL0     H67756   7.810   4.746   7.236  0.1417 -1.2612  0.3372
  502MOL0     H67757   7.673   4.841   7.065  0.7804  0.5853  2.7516
  502MOL0     H67758   7.390   4.568   6.842 -1.0743  0.9301  1.9110
  502MOL0     H67759   7.550   4.586   6.773 -1.3846 -2.8843 -2.0022
  502MOL0     H67760   7.498   4.804   6.670 -2.1409  2.6798 -0.1484
  502MOL0     H67761   7.324   4.781   6.721 -0.8108 -1.0373 -1.4502
  502MOL0     H67762   7.346   4.556   6.585 -0.6977 -0.1574  0.2140
  502MOL0     H67763   7.478   4.641   6.493 -1.3890 -2.9368 -1.0409
  502MOL0     H67764   7.308   4.685   6.370  2.3135 -1.2850  2.0621
  502MOL0     H67765   7.194   4.723   6.504  0.1781  1.3429  2.3811
  502MOL0     H67766   7.391   5.085   6.430  0.1999 -0.6837  1.7613
  502MOL0     H67767   7.490   4.451   7.005  0.9504 -1.1448 -0.7396
  502MOL0     H67768   7.731   4.273   7.203 -0.4957 -2.1059  2.2365
  502MOL0     H67769   7.552   4.293   7.247 -2.3286 -0.3135 -2.6875
  502MOL0     H67770   7.601   4.273   7.079  2.7713  0.4742 -0.3947
  503MOL0     O67771   4.485  10.627   0.854  0.4956  0.1880 -0.3684
  503MOL0     C67772   4.454  10.723   0.783  0.4522  0.0127  0.4267
  503MOL0     O67773   4.450  10.855   0.817 -0.1687 -0.3579 -0.1884
  503MOL0     C67774   4.517  10.891   0.930 -0.6992 -0.7313 -0.2479
  503MOL0     C67775   4.601  10.825   1.018  0.8823 -0.2841  0.0329
  503MOL0     C67776   4.655  10.891   1.130  0.1807  0.3872 -0.2092
  503MOL0     C67777   4.634  11.028   1.151  0.2281  0.4987 -0.7073
  503MOL0     O67778   4.676  11.087   1.272 -0.3876  0.2457 -0.1705
  503MOL0     C67779   4.800  11.032   1.336 -0.4141  0.7980  1.1819
  503MOL0     C67780   4.804  11.093   1.475 -0.2908 -0.2765 -0.4623
  503MOL0     C67781   4.817  11.249   1.457 -0.0589  0.3826 -0.0827
  503MOL0     C67782   4.793  11.341   1.580 -0.3776 -0.1053 -0.0396
  503MOL0     C67783   4.764  11.485   1.546 -0.4989  0.1474 -0.4537
  503MOL0     C67784   4.768  11.581   1.667  0.2914  0.0603 -0.6129
  503MOL0     C67785   4.902  11.586   1.747  1.4001 -0.8982  0.3065
  503MOL0     C67786   4.910  11.725   1.832 -0.0856 -0.5524 -0.8709
  503MOL0     N67787   4.790  11.755   1.909  0.1283  0.2895 -0.4599
  503MOL0     C67788   4.693  11.847   1.875  1.2127 -1.0737 -0.7276
  503MOL0     C67789   4.615  11.859   1.980  0.3175  0.1230  0.6030
  503MOL0     C67790   4.511  11.972   1.987 -0.5344  0.5053 -0.3726
  503MOL0     C67791   4.557  12.091   2.075 -0.1028 -0.0845  0.2724
  503MOL0     C67792   4.691  12.149   2.051 -0.3198 -0.4174 -0.0824
  503MOL0     C67793   4.716  12.195   1.908 -0.3958 -0.3191  0.6056
  503MOL0     O67794   4.810  12.297   1.899 -0.7010  0.3640 -0.9618
  503MOL0     C67795   4.950  12.287   1.890  1.2577 -0.4679 -0.8964
  503MOL0     C67796   5.017  12.172   1.942  0.9344 -0.3184  0.9992
  503MOL0     C67797   5.155  12.158   1.940  0.3217  0.9798 -0.9942
  503MOL0     C67798   5.230  12.273   1.898  0.5610 -0.4210 -0.0850
  503MOL0     C67799   5.379  12.275   1.927  0.2814  0.2437  0.1583
  503MOL0     O67800   5.435  12.150   1.955  0.0311 -0.4081 -0.5819
  503MOL0     C67801   5.565  12.151   2.000 -0.0119  1.4457 -0.5537
  503MOL0     C67802   5.596  12.193   2.126 -0.5219 -0.5211 -0.1643
  503MOL0     C67803   5.728  12.179   2.164 -1.4101 -1.6128 -0.3477
  503MOL0     C67804   5.833  12.127   2.090  0.0461  0.5923 -0.1775
  503MOL0     O67805   5.965  12.129   2.136  0.0004  0.5394 -0.7382
  503MOL0     C67806   5.997  12.189   2.257 -1.0998 -1.1377  1.3044
  503MOL0     C67807   6.145  12.179   2.278 -0.7934 -0.4445 -0.5334
  503MOL0     C67808   6.198  12.026   2.275 -0.0987 -0.3728 -0.6261
  503MOL0     C67809   6.269  11.987   2.402  0.3166  0.0303 -0.4724
  503MOL0     C67810   6.314  11.840   2.402 -0.7367 -0.7360 -0.3896
  503MOL0     C67811   6.416  11.781   2.311  0.0144  0.0149  0.2164
  503MOL0     C67812   6.472  11.641   2.353  0.2993 -0.2881 -0.5132
  503MOL0     C67813   6.459  11.556   2.236 -0.9413 -0.3648 -0.0425
  503MOL0    Cl67814   6.300  11.513   2.188  0.4297 -0.1874  0.2445
  503MOL0     C67815   5.792  12.081   1.961 -0.1833 -0.6015  0.5358
  503MOL0     C67816   5.661  12.092   1.916 -0.1432 -0.6173  0.1052
  503MOL0     O67817   5.440  12.384   1.911 -0.0872  0.7341  0.3186
  503MOL0     C67818   5.162  12.387   1.844  0.5201  0.5497 -0.0442
  503MOL0     C67819   5.022  12.393   1.837  0.1673 -0.4823  0.6858
  503MOL0     N67820   4.655  11.767   2.078  0.7223  0.3731  0.6519
  503MOL0     N67821   4.757  11.710   2.033 -0.9086  0.4105 -0.2179
  503MOL0     C67822   4.556  11.097   1.057 -0.0015 -0.2652 -0.0009
  503MOL0     C67823   4.498  11.029   0.952  0.8830  0.4727  0.3722
  503MOL0     C67824   4.394  10.688   0.639 -0.8102  0.0848  0.3662
  503MOL0     C67825   4.449  10.743   0.528 -0.2556 -0.8301 -0.4573
  503MOL0     C67826   4.394  10.732   0.399  0.3563 -0.1042 -0.6204
  503MOL0     C67827   4.283  10.656   0.393  0.4482 -0.0466 -0.4129
  503MOL0     O67828   4.227  10.662   0.270  0.3470 -0.0430  0.5113
  503MOL0     C67829   4.086  10.682   0.250  0.9194 -0.0117  0.7696
  503MOL0     C67830   4.036  10.795   0.341 -0.6054 -0.3274  0.9020
  503MOL0     C67831   4.110  10.920   0.300 -0.4760  0.0735  0.2663
  503MOL0     C67832   4.143  11.000   0.427 -0.6475  0.1624 -0.1613
  503MOL0     C67833   4.048  11.020   0.535  0.5189 -0.2156  0.1015
  503MOL0     C67834   3.980  11.064   0.625  0.2275  0.1069  1.3350
  503MOL0     C67835   4.232  10.587   0.501 -0.4531  0.1135  0.3204
  503MOL0     C67836   4.280  10.602   0.624 -0.7730  0.6596  0.1670
  503MOL0     C67837   4.222  10.534   0.737 -1.3656  0.2737 -0.2809
  503MOL0     H67838   4.621  10.720   0.997 -2.9862 -0.9380 -1.1805
  503MOL0     H67839   4.698  10.821   1.201  0.1224 -0.2715 -0.8164
  503MOL0     H67840   4.807  10.923   1.346  1.1572  0.9437  2.0018
  503MOL0     H67841   4.884  11.060   1.273 -1.3500 -0.3893 -0.6947
  503MOL0     H67842   4.895  11.067   1.529  1.4674 -1.6193 -3.7600
  503MOL0     H67843   4.718  11.063   1.536  0.7028  2.9169  2.8586
  503MOL0     H67844   4.745  11.286   1.383  0.5667  0.6503 -0.5657
  503MOL0     H67845   4.920  11.264   1.424  0.1679  2.5379  1.3521
  503MOL0     H67846   4.720  11.309   1.655  0.3328  2.4226  1.8773
  503MOL0     H67847   4.887  11.343   1.636 -1.3077 -0.5718  1.6088
  503MOL0     H67848   4.836  11.523   1.473  0.5702  2.0202  1.4719
  503MOL0     H67849   4.667  11.495   1.496 -1.1604  4.1310  1.2271
  503MOL0     H67850   4.742  11.685   1.644 -1.5890  0.3437  2.1908
  503MOL0     H67851   4.705  11.538   1.746  0.1289  1.5068  0.0922
  503MOL0     H67852   4.983  11.583   1.673  2.1564 -2.0410  1.1565
  503MOL0     H67853   4.916  11.504   1.818  1.7775 -0.0476  1.2212
  503MOL0     H67854   4.985  11.720   1.912 -1.7752 -3.1969  0.6984
  503MOL0     H67855   4.938  11.805   1.763 -2.2399 -0.5331 -1.7693
  503MOL0     H67856   4.692  11.903   1.782  0.4989 -0.5107 -0.3889
  503MOL0     H67857   4.493  12.012   1.887 -0.8399 -0.7597 -0.8360
  503MOL0     H67858   4.423  11.946   2.046  0.7497 -1.1789  0.8805
  503MOL0     H67859   4.479  12.168   2.074 -0.3759 -0.3644 -0.3164
  503MOL0     H67860   4.572  12.052   2.176 -0.9159  0.7590  0.7305
  503MOL0     H67861   4.765  12.071   2.072  1.8270  1.6985  0.6015
  503MOL0     H67862   4.702  12.233   2.120 -0.0338  0.7311 -1.4948
  503MOL0     H67863   4.618  12.240   1.887 -0.7208 -1.3534 -0.1735
  503MOL0     H67864   4.744  12.112   1.843 -3.3119 -0.3487 -0.7734
  503MOL0     H67865   4.951  12.093   1.975  0.8450  0.3292  2.4242
  503MOL0     H67866   5.194  12.062   1.972 -1.2389  0.6931  0.1799
  503MOL0     H67867   5.524  12.237   2.194 -0.0304 -0.2043  0.1570
  503MOL0     H67868   5.747  12.206   2.267 -3.2934 -1.4951 -0.0050
  503MOL0     H67869   5.968  12.294   2.259 -0.1168 -0.6377 -2.5345
  503MOL0     H67870   5.943  12.138   2.338 -2.1683  1.7911  2.5739
  503MOL0     H67871   6.191  12.239   2.199 -1.5474 -2.0799 -2.3027
  503MOL0     H67872   6.175  12.218   2.376 -2.9633 -1.4139  0.5945
  503MOL0     H67873   6.119  11.950   2.276  0.5727 -1.0859  0.7214
  503MOL0     H67874   6.267  12.010   2.191 -2.0494 -2.3535 -1.9609
  503MOL0     H67875   6.212  12.008   2.494  0.8262 -2.8049  0.5838
  503MOL0     H67876   6.362  12.045   2.409  0.1311  0.5664 -2.0910
  503MOL0     H67877   6.222  11.782   2.407 -0.0328 -1.9193 -0.7907
  503MOL0     H67878   6.367  11.825   2.497 -0.1651 -1.4224 -0.8013
  503MOL0     H67879   6.377  11.767   2.210 -1.2140 -2.8367  0.9799
  503MOL0     H67880   6.501  11.849   2.309 -1.2278  1.7174  1.9576
  503MOL0     H67881   6.436  11.584   2.439 -0.1181 -0.3699 -0.7377
  503MOL0     H67882   6.576  11.671   2.372 -0.6730  2.2455  1.4437
  503MOL0     H67883   6.518  11.609   2.160  1.0255 -0.1762  1.5211
  503MOL0     H67884   6.518  11.465   2.251 -1.3785 -0.3399  2.0014
  503MOL0     H67885   5.872  12.041   1.900 -0.3921 -2.5817  1.4718
  503MOL0     H67886   5.631  12.049   1.821 -2.5488 -0.0628  0.5432
  503MOL0     H67887   5.219  12.472   1.808  0.7082  1.8271  3.0115
  503MOL0     H67888   4.974  12.471   1.779 -1.8694 -3.0576 -1.3617
  503MOL0     H67889   4.556  11.204   1.076 -3.0384 -0.8412  4.6844
  503MOL0     H67890   4.439  11.091   0.885  0.1391  1.2406  1.6871
  503MOL0     H67891   4.541  10.801   0.536 -1.3836  1.4349 -2.5392
  503MOL0     H67892   4.430  10.809   0.332 -0.1103  2.3864  1.7953
  503MOL0     H67893   4.041  10.586   0.279 -0.7325  0.1178 -1.1920
  503MOL0     H67894   4.077  10.695   0.142  2.6334  3.5294  0.9313
  503MOL0     H67895   4.037  10.765   0.446  1.7356 -0.8740  0.7753
  503MOL0     H67896   3.930  10.813   0.320 -0.0328  1.9017 -0.4681
  503MOL0     H67897   4.043  10.974   0.232 -0.3434 -1.8403 -1.4892
  503MOL0     H67898   4.208  10.904   0.254 -0.8752 -0.6385 -0.3636
  503MOL0     H67899   4.230  10.948   0.468 -2.0988 -2.5352 -0.2844
  503MOL0     H67900   4.177  11.098   0.391 -0.2184 -1.0891 -3.5644
  503MOL0     H67901   3.905  11.091   0.695  0.0806 -2.7216  2.3768
  503MOL0     H67902   4.148  10.522   0.478 -0.0802  0.3789 -1.9670
  503MOL0     H67903   4.300  10.459   0.759  0.5815  2.5388  1.0074
  503MOL0     H67904   4.212  10.594   0.828  2.0933 -0.8036  0.9726
  503MOL0     H67905   4.125  10.488   0.716 -0.7936 -1.3000  0.3513
  504MOL0     O67906   7.602   6.252   6.913 -0.6401  0.1024  0.4950
  504MOL0     C67907   7.587   6.372   6.904  0.3725 -1.4076  0.6658
  504MOL0     O67908   7.675   6.470   6.932 -0.3646 -0.1499  0.3735
  504MOL0     C67909   7.810   6.441   6.935 -0.7560 -0.7267  0.1996
  504MOL0     C67910   7.879   6.463   6.810  0.0348 -0.0708  0.1790
  504MOL0     C67911   8.010   6.435   6.801  0.2519 -0.6528  0.3447
  504MOL0     C67912   8.080   6.364   6.902 -0.2902  0.2807 -0.9906
  504MOL0     O67913   8.217   6.327   6.892  0.6349 -0.9202  0.3377
  504MOL0     C67914   8.276   6.355   6.767  0.3954  0.1936 -0.6380
  504MOL0     C67915   8.399   6.266   6.749  0.4499  0.2138 -0.0097
  504MOL0     C67916   8.451   6.267   6.605 -0.6944  0.0722  0.0774
  504MOL0     C67917   8.573   6.175   6.586 -0.4676 -0.2804 -0.9657
  504MOL0     C67918   8.606   6.188   6.435  0.2629  0.0827  0.6506
  504MOL0     C67919   8.763   6.194   6.408  0.2603 -0.1365 -0.2004
  504MOL0     C67920   8.809   6.177   6.263  0.0254  0.5618 -0.2722
  504MOL0     C67921   8.958   6.169   6.255 -0.6140  0.1300  0.4082
  504MOL0     N67922   9.041   6.289   6.281 -0.1015 -0.9748 -0.0844
  504MOL0     C67923   9.077   6.384   6.184  0.4582  0.7035 -0.3180
  504MOL0     C67924   9.160   6.469   6.249  0.7918 -1.1610 -0.6845
  504MOL0     C67925   9.221   6.596   6.182 -0.4479  0.2517 -0.0385
  504MOL0     C67926   9.369   6.613   6.231  0.3222 -0.3102  0.1188
  504MOL0     C67927   9.451   6.486   6.203  0.0588 -0.6863  0.1853
  504MOL0     C67928   9.599   6.497   6.240  0.7390 -0.7044  0.5462
  504MOL0     O67929   9.612   6.522   6.381 -0.0716 -0.0831  1.0826
  504MOL0     C67930   9.618   6.409   6.463 -1.0265 -0.2963  0.3597
  504MOL0     C67931   9.677   6.445   6.593  0.3010 -0.0565 -0.2011
  504MOL0     C67932   9.721   6.341   6.681  0.1205  0.4943  0.7555
  504MOL0     C67933   9.701   6.202   6.644 -0.2160  0.6215  0.3977
  504MOL0     C67934   9.749   6.080   6.718 -0.1029  0.3976 -0.1982
  504MOL0     O67935   9.753   5.960   6.662 -0.2604 -0.1806 -0.7840
  504MOL0     C67936   9.774   5.844   6.738  0.1235 -0.6540  0.5863
  504MOL0     C67937   9.688   5.811   6.851  0.1732 -0.3018 -0.5952
  504MOL0     C67938   9.715   5.699   6.934 -0.1276 -0.5162 -0.1359
  504MOL0     C67939   9.821   5.613   6.894 -0.7470  0.2169  0.3911
  504MOL0     O67940   9.850   5.501   6.966  0.2235  0.4716  0.5666
  504MOL0     C67941   9.930   5.529   7.087 -0.3054 -0.3350 -0.4273
  504MOL0     C67942   9.934   5.423   7.197 -1.1153  0.3279  0.9935
  504MOL0     C67943   9.791   5.419   7.238  0.2636  0.5683  0.1836
  504MOL0     C67944   9.770   5.294   7.322 -0.7375 -0.7954 -0.4139
  504MOL0     C67945   9.824   5.325   7.460  0.0566  0.6903 -0.0881
  504MOL0     C67946   9.800   5.210   7.557 -0.3566  0.5395 -0.2547
  504MOL0     C67947   9.870   5.076   7.507  0.4605 -0.3104 -0.6440
  504MOL0     C67948   9.895   4.962   7.607 -0.9049  0.0469 -0.1297
  504MOL0    Cl67949   9.976   4.821   7.530 -0.1159  0.4165 -0.2507
  504MOL0     C67950   9.897   5.647   6.785  0.1274  0.2511 -0.7140
  504MOL0     C67951   9.877   5.755   6.707  0.0792 -1.3695  0.4395
  504MOL0     O67952   9.768   6.109   6.835  0.1670  0.8620  0.0812
  504MOL0     C67953   9.642   6.172   6.517  0.8964  0.0342  0.4584
  504MOL0     C67954   9.597   6.277   6.434 -0.4941 -0.7002 -1.4758
  504MOL0     N67955   9.156   6.443   6.379 -0.0678 -0.0099  0.7995
  504MOL0     N67956   9.093   6.337   6.397  0.3553  0.5177  0.0106
  504MOL0     C67957   8.017   6.341   7.023  0.3660 -0.1857  0.9125
  504MOL0     C67958   7.880   6.381   7.038  0.0031  0.5750 -0.4757
  504MOL0     C67959   7.450   6.416   6.859  0.7554  0.6055 -1.0472
  504MOL0     C67960   7.442   6.528   6.779 -0.8816  0.8641  0.8333
  504MOL0     C67961   7.318   6.563   6.717 -0.6578  0.2165  0.3644
  504MOL0     C67962   7.210   6.479   6.733  0.4392  0.4866  0.2599
  504MOL0     O67963   7.101   6.510   6.662  0.0052  0.2590  0.2994
  504MOL0     C67964   6.990   6.434   6.642 -0.5751  0.5599 -0.5208
  504MOL0     C67965   6.875   6.518   6.594  0.4856 -0.6613 -0.9785
  504MOL0     C67966   6.811   6.607   6.705 -0.4067 -0.2880  0.0268
  504MOL0     C67967   6.853   6.759   6.702 -0.8730  0.4090 -0.7743
  504MOL0     C67968   6.795   6.827   6.593  0.1352 -0.1268 -0.0836
  504MOL0     C67969   6.734   6.861   6.490  0.0708  0.3284  0.5788
  504MOL0     C67970   7.214   6.370   6.811  0.4091 -0.6004  0.1900
  504MOL0     C67971   7.330   6.341   6.887  0.2733 -0.9714 -0.1838
  504MOL0     C67972   7.325   6.231   6.981  0.6539 -0.9655 -0.4150
  504MOL0     H67973   7.825   6.507   6.726 -1.5920  1.9344  2.1304
  504MOL0     H67974   8.061   6.466   6.710  0.8249  0.0288  0.8930
  504MOL0     H67975   8.216   6.332   6.678 -2.2891 -0.1762  1.1231
  504MOL0     H67976   8.303   6.461   6.777 -0.0527  0.8228 -4.5867
  504MOL0     H67977   8.371   6.165   6.778 -1.6563  0.6932 -0.2378
  504MOL0     H67978   8.471   6.309   6.819 -2.5412  2.5360  1.8763
  504MOL0     H67979   8.475   6.367   6.568 -1.1544 -0.2957 -1.3023
  504MOL0     H67980   8.370   6.240   6.537 -0.4515  0.8218 -0.5316
  504MOL0     H67981   8.654   6.199   6.655 -0.8827 -1.0227 -0.1982
  504MOL0     H67982   8.544   6.073   6.614 -3.2289  1.4243  3.3950
  504MOL0     H67983   8.570   6.095   6.391  1.1133 -0.5126  1.1791
  504MOL0     H67984   8.550   6.260   6.374  0.8333 -0.1059 -0.1140
  504MOL0     H67985   8.814   6.285   6.440  1.9485 -0.6466 -1.2940
  504MOL0     H67986   8.794   6.100   6.455 -2.6064 -0.3252  1.5306
  504MOL0     H67987   8.778   6.261   6.201 -0.8570  0.6192  0.2366
  504MOL0     H67988   8.777   6.082   6.221 -0.0561  0.8066 -0.7765
  504MOL0     H67989   8.989   6.089   6.323 -2.3790 -2.2529 -1.4061
  504MOL0     H67990   8.990   6.136   6.156  4.2128 -1.5650  2.2614
  504MOL0     H67991   9.043   6.394   6.082 -4.0305  0.1632  0.9259
  504MOL0     H67992   9.227   6.575   6.075 -0.2266  1.0654 -0.1947
  504MOL0     H67993   9.154   6.683   6.195 -2.2024 -1.1793  0.9627
  504MOL0     H67994   9.409   6.695   6.170 -1.5974 -0.2465 -1.1352
  504MOL0     H67995   9.354   6.632   6.338  0.0254 -1.5348  0.3129
  504MOL0     H67996   9.451   6.470   6.095  2.5804  0.8312 -0.1180
  504MOL0     H67997   9.407   6.401   6.256 -2.8036  2.0109  2.5292
  504MOL0     H67998   9.648   6.570   6.174  1.1574 -1.1827  0.3218
  504MOL0     H67999   9.639   6.399   6.211  1.2221 -0.4877  0.4693
  504MOL0     H68000   9.708   6.545   6.622 -1.4691  0.5876 -0.3932
  504MOL0     H68001   9.780   6.355   6.771  0.6167  2.0891  0.2167
  504MOL0     H68002   9.608   5.883   6.867  0.7722  0.9340 -2.6841
  504MOL0     H68003   9.656   5.685   7.024 -1.4097  0.5637 -0.7674
  504MOL0     H68004  10.029   5.558   7.050 -0.9051  0.6015 -1.3612
  504MOL0     H68005   9.893   5.625   7.127  1.6406  0.0716  0.5496
  504MOL0     H68006   9.965   5.328   7.153 -1.8679  0.7878 -0.5953
  504MOL0     H68007  10.003   5.464   7.272 -0.7037 -2.1431  2.0517
  504MOL0     H68008   9.769   5.516   7.283  2.5141  1.1312  0.1672
  504MOL0     H68009   9.725   5.397   7.153 -0.8467  0.9669  0.9214
  504MOL0     H68010   9.817   5.201   7.289 -1.2392 -1.4921  0.7509
  504MOL0     H68011   9.667   5.261   7.342 -0.1984 -2.3213  0.0049
  504MOL0     H68012   9.775   5.409   7.510  0.0693 -0.4103  1.8646
  504MOL0     H68013   9.931   5.348   7.453 -0.1018  2.6241  2.3281
  504MOL0     H68014   9.845   5.226   7.655  1.7235  0.3246 -1.1206
  504MOL0     H68015   9.694   5.186   7.570 -0.0067 -1.5375 -0.7760
  504MOL0     H68016   9.968   5.100   7.465  1.8352 -3.2953  0.5650
  504MOL0     H68017   9.808   5.028   7.431 -1.0981  0.4400  0.1147
  504MOL0     H68018   9.958   5.012   7.682 -0.1845  4.1031 -3.0584
  504MOL0     H68019   9.797   4.941   7.652  0.2861 -1.0861  2.1112
  504MOL0     H68020   9.975   5.582   6.748 -0.2107  0.3077 -1.5466
  504MOL0     H68021   9.947   5.791   6.632 -0.0709 -0.7159  0.6059
  504MOL0     H68022   9.634   6.066   6.496  5.4637 -0.3234 -0.4767
  504MOL0     H68023   9.547   6.263   6.339  1.9946 -2.2248 -2.6702
  504MOL0     H68024   8.078   6.287   7.095 -2.5057 -1.4475  2.5681
  504MOL0     H68025   7.822   6.372   7.129 -0.9722 -1.9553 -1.2376
  504MOL0     H68026   7.538   6.577   6.769  0.8836 -2.6668 -2.7838
  504MOL0     H68027   7.314   6.660   6.667  0.6534  0.6813  1.1008
  504MOL0     H68028   6.962   6.385   6.736  1.2874  0.2067 -0.1149
  504MOL0     H68029   7.007   6.362   6.561  0.7385  1.6203 -1.2136
  504MOL0     H68030   6.801   6.448   6.556  0.5704 -0.8950 -0.7173
  504MOL0     H68031   6.889   6.590   6.513 -0.1936  3.1015  1.8990
  504MOL0     H68032   6.829   6.564   6.804 -2.7800 -4.1669 -1.0319
  504MOL0     H68033   6.707   6.604   6.674 -1.0907  0.8075  2.0449
  504MOL0     H68034   6.832   6.808   6.798  0.0897 -1.2610  0.3401
  504MOL0     H68035   6.962   6.760   6.697 -0.7344 -0.0459  1.2426
  504MOL0     H68036   6.681   6.905   6.407  2.4773 -1.4530 -2.0680
  504MOL0     H68037   7.127   6.309   6.837  0.6590 -1.4732 -0.9000
  504MOL0     H68038   7.223   6.198   7.002 -0.4423  1.5991 -1.4012
  504MOL0     H68039   7.373   6.145   6.932  2.2756 -0.4457  0.1977
  504MOL0     H68040   7.388   6.260   7.065  0.4039  0.7470 -0.7896
  505MOL0     O68041   8.039   1.514   2.437  0.4140  0.3547  0.2872
  505MOL0     C68042   8.009   1.409   2.485 -0.5945  0.3238 -0.8581
  505MOL0     O68043   8.098   1.317   2.529 -0.2861 -0.2320  0.7305
  505MOL0     C68044   8.225   1.356   2.555 -0.4851 -0.1618 -0.1911
  505MOL0     C68045   8.236   1.449   2.655 -0.0363 -0.1030 -0.1486
  505MOL0     C68046   8.371   1.481   2.687 -0.5264  0.3571  0.4183
  505MOL0     C68047   8.487   1.432   2.631  0.1345  0.6323 -0.0155
  505MOL0     O68048   8.612   1.465   2.676  0.1391  0.1647  0.4084
  505MOL0     C68049   8.705   1.478   2.575 -0.1194 -0.1374 -0.0619
  505MOL0     C68050   8.811   1.581   2.609 -1.0657  0.3232  0.0946
  505MOL0     C68051   8.912   1.580   2.485  0.8459 -0.0211  0.1206
  505MOL0     C68052   9.032   1.674   2.529  1.1604 -0.6248  0.1183
  505MOL0     C68053   9.152   1.671   2.431  1.1448 -0.5535 -0.2851
  505MOL0     C68054   9.124   1.743   2.296 -1.3903  0.2617 -0.3601
  505MOL0     C68055   9.252   1.761   2.222  0.6749 -0.1736  0.5973
  505MOL0     C68056   9.240   1.847   2.100 -0.4987 -0.0137 -0.0033
  505MOL0     N68057   9.168   1.773   1.991 -0.3984 -0.2875 -0.0532
  505MOL0     C68058   9.242   1.685   1.914  0.1831  0.3003 -0.7256
  505MOL0     C68059   9.147   1.611   1.859  0.9395 -0.6168  0.4360
  505MOL0     C68060   9.155   1.488   1.767 -0.2690 -0.1431 -0.0029
  505MOL0     C68061   9.199   1.540   1.635 -0.0690 -0.5304  1.0768
  505MOL0     C68062   9.221   1.427   1.533  0.0779  0.3342 -0.5036
  505MOL0     C68063   9.325   1.319   1.565  0.3742 -0.7372 -0.4788
  505MOL0     O68064   9.338   1.226   1.453 -0.4779 -0.6126 -0.4986
  505MOL0     C68065   9.406   1.112   1.482 -0.3520 -0.4768 -0.5112
  505MOL0     C68066   9.479   1.079   1.600 -0.3502 -0.8971 -0.4587
  505MOL0     C68067   9.535   0.950   1.620 -1.5276 -0.5832 -0.8142
  505MOL0     C68068   9.521   0.848   1.522 -0.3937 -0.1017 -0.5211
  505MOL0     C68069   9.574   0.712   1.540 -1.6249 -0.1495  0.1969
  505MOL0     O68070   9.522   0.618   1.461  0.3493 -0.8127  0.1247
  505MOL0     C68071   9.600   0.527   1.400 -0.1376 -0.2185  0.1367
  505MOL0     C68072   9.523   0.451   1.308 -0.4559  0.3656 -0.0541
  505MOL0     C68073   9.580   0.351   1.224  0.6670 -0.5600  0.9617
  505MOL0     C68074   9.717   0.324   1.230 -0.4702 -0.6821  0.5106
  505MOL0     O68075   9.774   0.227   1.152 -0.2278  0.6405  1.4674
  505MOL0     C68076   9.737   0.092   1.195 -0.0813 -1.0655 -1.0555
  505MOL0     C68077   9.789  -0.006   1.097  0.3993  0.2239  0.0144
  505MOL0     C68078   9.748  -0.151   1.104  0.1767 -0.8106 -0.5007
  505MOL0     C68079   9.612  -0.183   1.182  1.2753 -0.1677 -0.4418
  505MOL0     C68080   9.555  -0.324   1.149 -0.4227 -0.3290 -0.7652
  505MOL0     C68081   9.397  -0.316   1.142  0.0300 -1.0281 -0.0977
  505MOL0     C68082   9.329  -0.459   1.168 -0.2705  1.1757 -0.6350
  505MOL0     C68083   9.182  -0.467   1.120  0.4628 -0.2690 -0.0722
  505MOL0    Cl68084   9.152  -0.446   0.952 -0.1669  0.1761  0.2105
  505MOL0     C68085   9.795   0.411   1.306 -0.2084  0.4599 -0.4648
  505MOL0     C68086   9.740   0.512   1.392  0.7180  0.6831 -0.7652
  505MOL0     O68087   9.657   0.693   1.629 -0.3514 -0.7868  0.1552
  505MOL0     C68088   9.440   0.883   1.405 -0.4118 -0.1126  0.9500
  505MOL0     C68089   9.398   1.012   1.386  0.1710  0.0411 -0.0798
  505MOL0     N68090   9.023   1.672   1.884 -0.7181 -0.5570  0.2399
  505MOL0     N68091   9.030   1.764   1.968  0.2853 -0.0086 -0.6035
  505MOL0     C68092   8.467   1.324   2.546 -0.3946 -0.7667  0.2899
  505MOL0     C68093   8.338   1.298   2.501 -0.2139 -0.2855 -0.0490
  505MOL0     C68094   7.862   1.376   2.491 -0.6133 -0.0387  0.6569
  505MOL0     C68095   7.781   1.437   2.394 -0.4359  0.5863 -0.3806
  505MOL0     C68096   7.641   1.430   2.407  0.5075 -0.5065  0.2431
  505MOL0     C68097   7.583   1.357   2.507  0.4508  0.1856  0.0771
  505MOL0     O68098   7.447   1.365   2.506  0.2837 -0.6832 -0.1089
  505MOL0     C68099   7.364   1.342   2.622 -0.4983 -1.4442  0.4688
  505MOL0     C68100   7.223   1.401   2.584 -0.1800 -0.0397  0.0086
  505MOL0     C68101   7.112   1.359   2.671  0.6894 -0.8171 -0.0970
  505MOL0     C68102   7.138   1.401   2.821  0.1777  0.2028  0.5465
  505MOL0     C68103   7.014   1.384   2.897 -0.1770  0.9888 -0.0355
  505MOL0     C68104   6.912   1.390   2.965 -0.2231  1.5784  0.6624
  505MOL0     C68105   7.658   1.293   2.599 -0.2084 -0.6076 -0.2623
  505MOL0     C68106   7.802   1.301   2.586  1.0012 -0.2677 -0.2561
  505MOL0     C68107   7.865   1.239   2.702  0.1880  1.1109  0.1506
  505MOL0     H68108   8.151   1.503   2.696 -1.2916 -0.7842 -1.7308
  505MOL0     H68109   8.383   1.567   2.753 -0.5233  0.8539 -0.2147
  505MOL0     H68110   8.756   1.382   2.566 -1.1012 -0.8641  1.6691
  505MOL0     H68111   8.660   1.507   2.479 -0.3598  1.3617  0.4802
  505MOL0     H68112   8.862   1.563   2.705 -0.2977  0.7617 -0.2218
  505MOL0     H68113   8.762   1.679   2.602 -2.9568 -0.6718 -1.4949
  505MOL0     H68114   8.869   1.620   2.393  0.2888 -1.0674 -0.0857
  505MOL0     H68115   8.948   1.478   2.465  1.2048  0.6986 -3.7276
  505MOL0     H68116   8.992   1.775   2.540  1.8574 -0.3498  0.1768
  505MOL0     H68117   9.063   1.643   2.630 -0.0068 -2.4962 -0.0361
  505MOL0     H68118   9.240   1.722   2.472 -1.4245  2.3015  2.1596
  505MOL0     H68119   9.169   1.565   2.410 -0.8638 -0.7827 -0.9856
  505MOL0     H68120   9.056   1.681   2.237  0.8440 -2.0832 -0.6253
  505MOL0     H68121   9.079   1.840   2.323 -2.6059 -0.2539 -0.4423
  505MOL0     H68122   9.296   1.665   2.191  0.3315  0.2940 -1.4719
  505MOL0     H68123   9.330   1.797   2.291  1.5573 -1.0589  0.0981
  505MOL0     H68124   9.194   1.943   2.124 -0.2155  0.2144 -0.3638
  505MOL0     H68125   9.340   1.871   2.064  0.1248 -2.3613  0.0037
  505MOL0     H68126   9.349   1.668   1.920  0.2066  0.1254 -1.5442
  505MOL0     H68127   9.237   1.426   1.802  1.2175 -0.8036 -4.0625
  505MOL0     H68128   9.058   1.437   1.757  0.4132 -1.8159  1.4169
  505MOL0     H68129   9.125   1.612   1.598  1.5714  0.8529  0.3601
  505MOL0     H68130   9.297   1.589   1.639  0.6351 -1.5698 -1.6312
  505MOL0     H68131   9.254   1.465   1.436  1.1071 -3.6847 -1.9222
  505MOL0     H68132   9.125   1.375   1.526  0.2026  0.2348 -1.6605
  505MOL0     H68133   9.300   1.278   1.663  4.2021 -0.1679  0.9186
  505MOL0     H68134   9.419   1.369   1.590 -1.5562  2.5042  0.8451
  505MOL0     H68135   9.493   1.150   1.680 -0.4940 -0.3561 -0.9116
  505MOL0     H68136   9.589   0.929   1.711 -0.1978  4.0312 -0.3305
  505MOL0     H68137   9.415   0.454   1.297 -0.3213 -2.1295 -3.6340
  505MOL0     H68138   9.511   0.295   1.162  1.1661 -0.5769  0.4180
  505MOL0     H68139   9.775   0.077   1.296  0.5408 -0.0193 -1.1215
  505MOL0     H68140   9.628   0.086   1.190 -0.1882 -0.6271  0.3893
  505MOL0     H68141   9.756   0.022   0.997  0.2947 -2.3444 -0.7420
  505MOL0     H68142   9.898  -0.006   1.097  0.4127 -0.4549  0.6993
  505MOL0     H68143   9.737  -0.190   1.003  0.7203  0.8345 -1.2336
  505MOL0     H68144   9.821  -0.202   1.167  0.8010 -1.7070 -1.9088
  505MOL0     H68145   9.540  -0.108   1.148 -0.4782 -0.6687  1.8517
  505MOL0     H68146   9.619  -0.169   1.290  2.0637 -2.8542 -0.0754
  505MOL0     H68147   9.599  -0.397   1.218  2.0094  2.2240  0.5649
  505MOL0     H68148   9.588  -0.363   1.052 -0.3098 -1.4134 -0.3038
  505MOL0     H68149   9.367  -0.247   1.221  3.4071  1.3025 -0.6460
  505MOL0     H68150   9.374  -0.275   1.044 -1.1372  1.8654  1.2773
  505MOL0     H68151   9.342  -0.477   1.275  4.2779 -0.6204 -1.2655
  505MOL0     H68152   9.383  -0.539   1.117  0.6531  3.0052 -2.6934
  505MOL0     H68153   9.135  -0.565   1.136  1.0386 -0.7075 -0.9540
  505MOL0     H68154   9.130  -0.389   1.175  3.1223  3.3717 -2.3172
  505MOL0     H68155   9.902   0.397   1.295 -0.4730 -2.2592 -0.2911
  505MOL0     H68156   9.792   0.573   1.465 -0.0555 -0.2794  0.6404
  505MOL0     H68157   9.433   0.801   1.334  1.8798  0.8591 -0.5156
  505MOL0     H68158   9.339   1.031   1.296  0.3102 -3.1180 -0.9551
  505MOL0     H68159   8.557   1.280   2.504  2.0165  5.6923 -2.7029
  505MOL0     H68160   8.325   1.220   2.427 -1.0816 -0.1604 -0.0474
  505MOL0     H68161   7.826   1.496   2.315  1.1674  4.0147  2.8241
  505MOL0     H68162   7.574   1.474   2.334  0.7194 -1.3369 -0.4766
  505MOL0     H68163   7.399   1.399   2.709 -2.0618  0.4889 -0.1086
  505MOL0     H68164   7.354   1.236   2.648 -0.7853 -1.2136  1.3476
  505MOL0     H68165   7.204   1.369   2.481  0.3240 -0.7462  0.1314
  505MOL0     H68166   7.235   1.510   2.587 -2.1270  0.2617 -0.9777
  505MOL0     H68167   7.091   1.252   2.657 -0.2065 -0.7243  0.4559
  505MOL0     H68168   7.022   1.411   2.637 -0.6935 -2.7521  0.3985
  505MOL0     H68169   7.222   1.341   2.859  1.8203  0.1781 -2.8011
  505MOL0     H68170   7.175   1.503   2.832  1.1659 -0.3180  2.5005
  505MOL0     H68171   6.819   1.384   3.018 -0.1350  0.5463  0.7215
  505MOL0     H68172   7.611   1.249   2.686 -3.1991 -0.6293 -1.7546
  505MOL0     H68173   7.796   1.224   2.785 -1.8093  0.3303 -1.5677
  505MOL0     H68174   7.902   1.139   2.677 -0.2016  0.9674  0.1395
  505MOL0     H68175   7.950   1.295   2.742  3.9794 -2.5756 -1.9336
  506MOL0     O68176   7.036   6.787   7.908  0.0715  0.3601  0.2160
  506MOL0     C68177   6.961   6.880   7.878 -0.8388  0.1259 -1.4568
  506MOL0     O68178   6.999   7.007   7.836 -0.1814  0.3177 -0.1847
  506MOL0     C68179   7.122   7.055   7.865 -0.5970  0.2341  0.6311
  506MOL0     C68180   7.144   7.173   7.937  0.8057  0.5226  0.3767
  506MOL0     C68181   7.269   7.236   7.961  0.8633 -0.0126  0.1886
  506MOL0     C68182   7.381   7.169   7.913 -1.0150  0.9546 -0.5157
  506MOL0     O68183   7.503   7.224   7.953  0.2090 -0.5537 -0.3555
  506MOL0     C68184   7.627   7.192   7.897  0.3820  0.0937  0.5112
  506MOL0     C68185   7.630   7.241   7.757  0.2535 -0.2461 -0.5275
  506MOL0     C68186   7.774   7.253   7.698  0.2977 -0.3567 -0.6095
  506MOL0     C68187   7.852   7.133   7.673 -0.5671  0.4807 -0.4007
  506MOL0     C68188   7.972   7.165   7.583  0.8725 -0.1448  0.4835
  506MOL0     C68189   8.088   7.067   7.575  0.3444  0.3900  0.0876
  506MOL0     C68190   8.146   7.028   7.718  0.2704 -0.6374  0.1300
  506MOL0     C68191   8.232   7.147   7.773 -0.5438 -1.2733  0.1317
  506MOL0     N68192   8.372   7.124   7.739 -0.2589 -0.4605  0.4871
  506MOL0     C68193   8.470   7.045   7.793  1.2391 -0.7747 -0.1703
  506MOL0     C68194   8.578   7.048   7.713 -0.1384 -0.7085  0.1849
  506MOL0     C68195   8.705   6.973   7.736 -0.7907 -0.0173  1.4663
  506MOL0     C68196   8.693   6.870   7.859  0.4275  0.2055  0.2764
  506MOL0     C68197   8.799   6.761   7.850 -0.5668 -0.9543  0.5957
  506MOL0     C68198   8.797   6.663   7.729 -0.2800 -0.2418  0.5563
  506MOL0     O68199   8.672   6.588   7.716 -0.7264  0.4314 -0.3207
  506MOL0     C68200   8.657   6.474   7.658 -0.1177  0.1072 -0.0864
  506MOL0     C68201   8.766   6.374   7.640  0.4032 -0.8174  0.1731
  506MOL0     C68202   8.728   6.245   7.584 -0.4339  0.3716 -0.3217
  506MOL0     C68203   8.596   6.214   7.558  0.4540 -0.8782  0.7594
  506MOL0     C68204   8.566   6.084   7.501  0.2548 -0.4983 -0.6557
  506MOL0     O68205   8.667   5.992   7.511  0.9876 -1.0714  0.2855
  506MOL0     C68206   8.675   5.890   7.424  0.3647  0.3884 -0.0634
  506MOL0     C68207   8.581   5.796   7.389  0.1751  0.1930 -0.2162
  506MOL0     C68208   8.603   5.707   7.285  0.1690 -0.4351 -0.4313
  506MOL0     C68209   8.733   5.701   7.233  0.5376  0.6395  1.1770
  506MOL0     O68210   8.774   5.613   7.141  0.0113  0.3689  0.4677
  506MOL0     C68211   8.680   5.513   7.100  0.6995 -0.7101 -0.4624
  506MOL0     C68212   8.766   5.446   6.994  0.3779 -0.5444 -0.2088
  506MOL0     C68213   8.861   5.350   7.072 -0.0431 -0.2983  0.4649
  506MOL0     C68214   8.943   5.264   6.969  0.4227 -0.0646 -0.8154
  506MOL0     C68215   9.087   5.304   6.964 -0.7805  0.7111  0.4192
  506MOL0     C68216   9.186   5.215   6.873  0.0630 -0.7380  0.2073
  506MOL0     C68217   9.183   5.064   6.929  0.3887  0.0456  0.4217
  506MOL0     C68218   9.287   4.975   6.866 -0.5719 -0.3690  0.4301
  506MOL0    Cl68219   9.256   4.809   6.917 -0.3267 -0.6892 -0.2521
  506MOL0     C68220   8.825   5.803   7.268 -0.4234  0.4445 -0.2800
  506MOL0     C68221   8.798   5.903   7.364  0.3012 -0.4334  0.8425
  506MOL0     O68222   8.466   6.072   7.436  0.3398  0.4096 -0.1704
  506MOL0     C68223   8.497   6.318   7.561 -0.2714  0.0537 -0.2579
  506MOL0     C68224   8.530   6.438   7.616 -0.3382  0.6659  0.0969
  506MOL0     N68225   8.545   7.145   7.611 -0.6499  0.2230  0.4315
  506MOL0     N68226   8.426   7.178   7.630  0.4355  0.4744  0.1978
  506MOL0     C68227   7.362   7.045   7.847 -0.5628  0.0583 -0.5905
  506MOL0     C68228   7.241   6.987   7.822  0.4801  0.4260  0.3253
  506MOL0     C68229   6.815   6.861   7.879  1.2533  0.6757  0.2844
  506MOL0     C68230   6.744   6.790   7.976  0.3454 -0.3433 -0.6204
  506MOL0     C68231   6.610   6.767   7.978 -0.4982 -0.6168 -0.4035
  506MOL0     C68232   6.537   6.795   7.863  0.4407  0.4095 -0.1978
  506MOL0     O68233   6.409   6.736   7.854  0.3569  0.3100 -0.9870
  506MOL0     C68234   6.335   6.731   7.736 -0.4756  0.1742  0.5750
  506MOL0     C68235   6.381   6.607   7.655 -0.0763 -0.1613 -0.0337
  506MOL0     C68236   6.513   6.618   7.590 -0.7281  0.7863  0.4273
  506MOL0     C68237   6.564   6.513   7.491  0.0146  0.3547 -0.1258
  506MOL0     C68238   6.712   6.530   7.467  0.5353 -0.1014  0.0899
  506MOL0     C68239   6.826   6.566   7.468  0.2888  0.3804  0.5040
  506MOL0     C68240   6.601   6.853   7.760  0.1213  0.2728  1.1811
  506MOL0     C68241   6.734   6.890   7.760 -0.0203  0.1962 -0.1837
  506MOL0     C68242   6.787   6.968   7.638 -0.3211 -0.1671  0.4786
  506MOL0     H68243   7.048   7.211   7.971  0.1454 -1.5447  0.9858
  506MOL0     H68244   7.283   7.323   8.024  3.2614 -0.1888 -0.0046
  506MOL0     H68245   7.700   7.238   7.964  0.0361 -1.9576  2.4382
  506MOL0     H68246   7.641   7.084   7.887 -1.6807 -0.4674  2.6916
  506MOL0     H68247   7.574   7.335   7.749 -1.2203 -0.6765  3.0080
  506MOL0     H68248   7.583   7.167   7.691  0.2942 -0.5639 -0.2043
  506MOL0     H68249   7.822   7.321   7.769 -0.4723  2.8721 -2.9451
  506MOL0     H68250   7.768   7.304   7.602  0.1026 -1.3666 -1.1442
  506MOL0     H68251   7.897   7.121   7.772  2.1075  0.5876 -1.5262
  506MOL0     H68252   7.784   7.054   7.639 -1.2293  0.7343  0.3157
  506MOL0     H68253   7.937   7.180   7.480  3.5535 -2.3799 -0.8698
  506MOL0     H68254   8.018   7.263   7.599  1.7874 -0.1157 -1.8593
  506MOL0     H68255   8.051   6.976   7.527 -1.2505  1.4404 -0.7907
  506MOL0     H68256   8.174   7.107   7.520  2.3984 -1.0295  2.0606
  506MOL0     H68257   8.202   6.935   7.709 -0.7837 -1.0814 -3.6369
  506MOL0     H68258   8.066   7.011   7.791  1.4784  1.0331  1.9485
  506MOL0     H68259   8.192   7.242   7.737  0.1343 -0.0582  2.3590
  506MOL0     H68260   8.224   7.151   7.882  2.3263  0.6358  0.3741
  506MOL0     H68261   8.455   7.006   7.893 -2.0854 -0.3830 -0.4031
  506MOL0     H68262   8.739   6.920   7.647 -2.1410  2.5600 -0.6914
  506MOL0     H68263   8.784   7.046   7.756 -1.4995  0.8092  1.3192
  506MOL0     H68264   8.702   6.915   7.959 -3.4858 -0.3057  1.0183
  506MOL0     H68265   8.592   6.828   7.862  0.8973 -0.9344  1.1135
  506MOL0     H68266   8.801   6.705   7.944  2.4818  1.8161  2.4002
  506MOL0     H68267   8.892   6.818   7.848 -2.1655  1.8278  0.1152
  506MOL0     H68268   8.890   6.605   7.732  0.4750  0.4698 -3.3961
  506MOL0     H68269   8.810   6.721   7.637 -0.8184 -1.6710 -0.4525
  506MOL0     H68270   8.870   6.400   7.656  0.6038 -0.7168 -1.1490
  506MOL0     H68271   8.808   6.172   7.579 -1.3964 -0.5986 -2.0806
  506MOL0     H68272   8.478   5.810   7.420 -0.9385 -0.4401 -3.2500
  506MOL0     H68273   8.514   5.656   7.250 -2.4633  3.4456 -0.0969
  506MOL0     H68274   8.645   5.442   7.176 -1.6848 -0.6894 -1.4637
  506MOL0     H68275   8.590   5.558   7.058 -0.4230 -1.4209  1.0923
  506MOL0     H68276   8.703   5.387   6.927 -0.0220 -2.5426  1.8102
  506MOL0     H68277   8.827   5.514   6.933  0.2776 -0.7924 -0.5863
  506MOL0     H68278   8.934   5.408   7.130  0.7288 -0.0567 -0.7059
  506MOL0     H68279   8.798   5.292   7.140 -0.0867 -1.3259 -0.4336
  506MOL0     H68280   8.916   5.283   6.865 -1.4052  2.2223 -0.0052
  506MOL0     H68281   8.927   5.160   6.999 -2.0794 -0.0013 -1.7395
  506MOL0     H68282   9.129   5.294   7.064 -1.7712 -1.6459  0.6784
  506MOL0     H68283   9.109   5.406   6.931  2.3310 -1.4352 -5.8265
  506MOL0     H68284   9.141   5.213   6.774  0.1744 -2.8343  0.1467
  506MOL0     H68285   9.284   5.261   6.862 -0.9800  1.1754 -2.1157
  506MOL0     H68286   9.080   5.042   6.900  0.2529  1.5714 -0.3744
  506MOL0     H68287   9.170   5.052   7.037 -3.6002 -1.0413 -0.0180
  506MOL0     H68288   9.298   4.976   6.757  0.3696  0.6754  0.5164
  506MOL0     H68289   9.382   4.994   6.916 -0.1585 -0.3709 -0.3372
  506MOL0     H68290   8.921   5.808   7.218  2.1697 -0.8391  3.9688
  506MOL0     H68291   8.871   5.981   7.386  0.3732 -0.4508  0.6712
  506MOL0     H68292   8.401   6.293   7.517 -0.2813 -0.1180 -0.1409
  506MOL0     H68293   8.447   6.508   7.626 -1.1999 -0.6407  2.9433
  506MOL0     H68294   7.456   7.005   7.809  0.1349  0.4121  0.6993
  506MOL0     H68295   7.230   6.892   7.770  1.7507  1.8382 -2.7551
  506MOL0     H68296   6.802   6.765   8.064 -2.9214  2.1306  2.5260
  506MOL0     H68297   6.560   6.720   8.062  0.2260 -2.1057 -0.7705
  506MOL0     H68298   6.345   6.815   7.667  0.9825 -0.4543 -0.0231
  506MOL0     H68299   6.229   6.718   7.761 -1.3606 -0.3983 -2.8639
  506MOL0     H68300   6.311   6.592   7.572 -1.0528  0.8737  0.5775
  506MOL0     H68301   6.379   6.525   7.727  0.9618 -0.7898 -0.6931
  506MOL0     H68302   6.586   6.625   7.672 -0.5033 -0.1767  0.3182
  506MOL0     H68303   6.513   6.703   7.521  2.8148  0.8597  0.3197
  506MOL0     H68304   6.549   6.416   7.538  2.9696 -0.4327 -0.6618
  506MOL0     H68305   6.509   6.521   7.397 -4.8196 -1.1519  2.2504
  506MOL0     H68306   6.932   6.580   7.471  1.1486 -3.3013 -2.9256
  506MOL0     H68307   6.547   6.875   7.669  3.2945 -0.7007 -1.1391
  506MOL0     H68308   6.700   6.992   7.577  0.6963  2.8856  0.0797
  506MOL0     H68309   6.845   7.053   7.674  2.2254 -2.6747  2.7862
  506MOL0     H68310   6.853   6.903   7.579 -1.7191  0.2858 -1.6970
  507MOL0     O68311   5.083   5.088   8.018 -0.8809 -0.5284  0.1440
  507MOL0     C68312   5.173   5.097   8.098  0.0220 -0.0268 -0.2891
  507MOL0     O68313   5.236   4.991   8.164 -0.5996 -0.3971 -0.1420
  507MOL0     C68314   5.215   4.861   8.125  0.3349  0.8800 -0.1426
  507MOL0     C68315   5.198   4.825   7.986 -0.4516 -0.4836 -0.3271
  507MOL0     C68316   5.166   4.698   7.955  0.6663 -0.0069 -0.4546
  507MOL0     C68317   5.158   4.594   8.054  0.2474  0.5370  0.3861
  507MOL0     O68318   5.112   4.468   8.002 -0.5807 -0.6750  0.2696
  507MOL0     C68319   5.111   4.341   8.082 -0.1530  0.0001  0.3675
  507MOL0     C68320   5.252   4.276   8.105  0.4014  0.3662  0.3748
  507MOL0     C68321   5.320   4.233   7.974 -0.4590  0.4265 -0.3494
  507MOL0     C68322   5.468   4.182   8.002 -0.3354 -0.4835  1.0560
  507MOL0     C68323   5.502   4.086   7.887  0.8148 -0.2383  0.4703
  507MOL0     C68324   5.498   4.165   7.755  0.8967  0.2723 -0.4397
  507MOL0     C68325   5.573   4.116   7.635  0.2478  0.0706  0.0606
  507MOL0     C68326   5.581   4.217   7.527  0.1023 -0.2164  0.3530
  507MOL0     N68327   5.445   4.227   7.460 -0.2100  0.4935 -0.5690
  507MOL0     C68328   5.349   4.326   7.460 -0.6247  0.7069  0.4032
  507MOL0     C68329   5.263   4.309   7.361 -0.3714 -0.6424 -0.3723
  507MOL0     C68330   5.130   4.392   7.345 -0.2843  1.0136  0.0238
  507MOL0     C68331   5.124   4.468   7.214  0.9150  0.3721  0.2066
  507MOL0     C68332   5.246   4.554   7.191  0.3691 -0.7862 -0.5849
  507MOL0     C68333   5.218   4.638   7.059  0.2022 -0.5404  0.1098
  507MOL0     O68334   5.130   4.757   7.071  0.4930 -1.1908  0.4907
  507MOL0     C68335   5.118   4.831   6.958 -0.3930  0.1489 -0.1783
  507MOL0     C68336   5.090   4.963   6.985  0.7096 -0.3959  0.2359
  507MOL0     C68337   5.117   5.059   6.890  0.9786 -1.2259 -0.5440
  507MOL0     C68338   5.137   5.020   6.758 -1.2727  0.5831 -0.5124
  507MOL0     C68339   5.170   5.117   6.655  0.4264  0.3154 -0.4510
  507MOL0     O68340   5.205   5.237   6.703 -0.1685  0.0431 -0.3152
  507MOL0     C68341   5.272   5.329   6.623  1.1944 -0.4731  0.5556
  507MOL0     C68342   5.403   5.364   6.651 -0.5606 -0.1104 -0.1420
  507MOL0     C68343   5.461   5.471   6.580 -0.4252  0.5205  0.8437
  507MOL0     C68344   5.393   5.535   6.470  0.0797 -0.3240  0.4739
  507MOL0     O68345   5.437   5.643   6.401  0.0817 -0.2446  0.3256
  507MOL0     C68346   5.544   5.611   6.317 -1.1980 -0.6623 -0.2385
  507MOL0     C68347   5.567   5.732   6.239 -0.2766  0.3842 -0.0428
  507MOL0     C68348   5.654   5.846   6.289  0.5911 -0.0074 -0.5111
  507MOL0     C68349   5.681   5.964   6.196  0.2888 -0.1496  0.1088
  507MOL0     C68350   5.775   6.064   6.270  0.8330  0.7244 -0.2881
  507MOL0     C68351   5.785   6.202   6.199  0.3766 -0.7372 -0.3164
  507MOL0     C68352   5.860   6.188   6.070 -0.0373  0.4487  0.2240
  507MOL0     C68353   5.865   6.315   5.996  0.3305  0.7803  1.1533
  507MOL0    Cl68354   5.714   6.326   5.905 -0.3981 -0.0947  0.0171
  507MOL0     C68355   5.261   5.511   6.458  0.3717 -0.6710 -0.4178
  507MOL0     C68356   5.198   5.410   6.536 -0.2822  0.6744  0.5888
  507MOL0     O68357   5.167   5.083   6.538  0.5405  0.4859 -0.4750
  507MOL0     C68358   5.154   4.886   6.728  0.2079 -0.4764  0.2045
  507MOL0     C68359   5.137   4.790   6.825 -0.1238  0.3222 -1.5569
  507MOL0     N68360   5.319   4.215   7.276 -0.2676  0.3147 -0.2258
  507MOL0     N68361   5.427   4.165   7.339 -0.0154  0.0976 -0.0438
  507MOL0     C68362   5.183   4.625   8.191 -0.4378  0.2762 -0.2202
  507MOL0     C68363   5.206   4.758   8.220  0.8011  0.1248  0.4109
  507MOL0     C68364   5.233   5.231   8.117  0.4190  0.9758 -0.3367
  507MOL0     C68365   5.313   5.246   8.233 -0.8603 -0.1355 -0.2809
  507MOL0     C68366   5.376   5.370   8.253 -0.2925  0.3578 -0.4907
  507MOL0     C68367   5.359   5.476   8.176  0.6541  0.4757 -0.2568
  507MOL0     O68368   5.423   5.587   8.217  0.2645 -0.6133  0.0736
  507MOL0     C68369   5.430   5.723   8.159  0.6232  0.9969 -0.9500
  507MOL0     C68370   5.489   5.829   8.261  0.5822  0.9236  0.7366
  507MOL0     C68371   5.467   5.975   8.213  1.4332 -0.6739 -0.1144
  507MOL0     C68372   5.551   6.071   8.301 -0.2531 -0.4301  0.7171
  507MOL0     C68373   5.543   6.041   8.447  0.8350 -0.0035  0.1317
  507MOL0     C68374   5.532   6.009   8.562  0.0400 -0.2933  0.2343
  507MOL0     C68375   5.271   5.471   8.067  1.1737 -0.8712 -0.8401
  507MOL0     C68376   5.208   5.344   8.036 -0.6832  0.1419  0.3507
  507MOL0     C68377   5.107   5.338   7.917 -0.5984  0.5805 -0.6422
  507MOL0     H68378   5.220   4.901   7.911 -0.4991 -1.4171 -1.3041
  507MOL0     H68379   5.166   4.688   7.847  0.7264  0.6812 -0.5267
  507MOL0     H68380   5.052   4.355   8.174 -2.0212 -1.2004 -0.5915
  507MOL0     H68381   5.064   4.259   8.027  1.2848 -2.0313  2.0043
  507MOL0     H68382   5.248   4.187   8.168 -2.0813 -0.2938 -0.5526
  507MOL0     H68383   5.313   4.359   8.142 -0.8806  2.0212 -1.0515
  507MOL0     H68384   5.332   4.320   7.909  3.0239  0.9930  0.8405
  507MOL0     H68385   5.251   4.158   7.933 -1.4331  1.5297 -0.8100
  507MOL0     H68386   5.537   4.266   7.997 -1.2419  0.2094 -1.6471
  507MOL0     H68387   5.476   4.124   8.095  0.4664 -1.5168  0.3624
  507MOL0     H68388   5.597   4.035   7.910  2.0303  1.3423 -0.8271
  507MOL0     H68389   5.414   4.022   7.899 -1.8490  2.6380 -2.0333
  507MOL0     H68390   5.396   4.187   7.723 -0.5605  0.3882  3.6286
  507MOL0     H68391   5.519   4.269   7.780  0.3524  0.0918  0.8707
  507MOL0     H68392   5.511   4.034   7.598 -2.3023  2.7806 -2.2134
  507MOL0     H68393   5.673   4.080   7.661 -0.1417 -3.0160 -2.0478
  507MOL0     H68394   5.601   4.311   7.579  1.3316 -0.3545  0.1559
  507MOL0     H68395   5.665   4.202   7.458  0.2621  0.8500  0.2976
  507MOL0     H68396   5.325   4.391   7.544 -1.9094 -1.2351  1.6001
  507MOL0     H68397   5.054   4.313   7.350  1.9101 -1.2035  0.1356
  507MOL0     H68398   5.116   4.447   7.438 -0.2457 -0.6330  1.0384
  507MOL0     H68399   5.100   4.402   7.131 -4.4247  1.9207  0.1469
  507MOL0     H68400   5.032   4.528   7.209 -0.5107 -1.7632 -1.3642
  507MOL0     H68401   5.336   4.494   7.184  1.6217  1.1172 -1.6927
  507MOL0     H68402   5.242   4.625   7.275 -1.7821 -0.4591 -0.8911
  507MOL0     H68403   5.192   4.575   6.973 -0.3857  2.9735 -2.5177
  507MOL0     H68404   5.312   4.680   7.020  1.4019 -2.9015  0.2348
  507MOL0     H68405   5.051   4.986   7.084 -1.7892  2.2980 -1.2112
  507MOL0     H68406   5.133   5.155   6.937  0.5207 -1.3416 -0.1430
  507MOL0     H68407   5.464   5.306   6.719 -0.0602 -3.1077 -2.9425
  507MOL0     H68408   5.553   5.518   6.615  0.8788 -0.3426 -1.2594
  507MOL0     H68409   5.639   5.590   6.368  0.4149 -0.6623 -3.0729
  507MOL0     H68410   5.522   5.522   6.258  1.5899 -1.3232 -0.4426
  507MOL0     H68411   5.616   5.699   6.147  1.6411  0.9566  0.7197
  507MOL0     H68412   5.472   5.775   6.207  1.1046  2.3894 -1.6925
  507MOL0     H68413   5.603   5.883   6.378  1.9886 -2.3242  1.3749
  507MOL0     H68414   5.754   5.823   6.326  2.0106 -0.6158 -4.2382
  507MOL0     H68415   5.587   6.018   6.183  0.3726  0.6098  2.2589
  507MOL0     H68416   5.716   5.924   6.101 -0.2999  1.0959 -0.6510
  507MOL0     H68417   5.869   6.008   6.265 -0.2892 -1.5226  1.6735
  507MOL0     H68418   5.748   6.069   6.376  1.4407 -3.9752  0.2966
  507MOL0     H68419   5.683   6.238   6.182  1.3840  2.1094 -0.8969
  507MOL0     H68420   5.834   6.266   6.273  0.5143 -1.3764  0.1487
  507MOL0     H68421   5.814   6.110   6.008 -0.2819 -0.5929  1.6749
  507MOL0     H68422   5.962   6.163   6.101 -1.6155 -1.9734  4.1699
  507MOL0     H68423   5.868   6.405   6.058 -1.5953  2.1145 -0.5475
  507MOL0     H68424   5.952   6.323   5.931  1.9986 -1.4553  2.9240
  507MOL0     H68425   5.197   5.563   6.387  0.3404 -1.5094 -1.0175
  507MOL0     H68426   5.096   5.379   6.518  0.3196  0.2310 -2.7657
  507MOL0     H68427   5.176   4.867   6.624  0.6891 -3.0990  0.7136
  507MOL0     H68428   5.155   4.683   6.814 -1.5447 -0.7388  3.7503
  507MOL0     H68429   5.184   4.549   8.269 -0.9875  0.7514  0.2662
  507MOL0     H68430   5.210   4.781   8.326 -1.4223  2.4253  0.0876
  507MOL0     H68431   5.338   5.171   8.307 -3.4777  0.3257  1.2088
  507MOL0     H68432   5.451   5.381   8.332 -3.2527  1.1981  2.4281
  507MOL0     H68433   5.325   5.751   8.147  0.1480 -0.0755  0.3513
  507MOL0     H68434   5.491   5.718   8.068 -1.0557 -1.2233 -2.0464
  507MOL0     H68435   5.595   5.811   8.281  0.4230  0.6503  1.3582
  507MOL0     H68436   5.438   5.815   8.357 -0.2506 -1.5828  0.0211
  507MOL0     H68437   5.361   5.990   8.237  1.0306  0.3561 -2.2967
  507MOL0     H68438   5.505   5.987   8.111  1.1849 -2.4432 -0.4544
  507MOL0     H68439   5.657   6.075   8.274 -0.7647 -2.6853 -2.1768
  507MOL0     H68440   5.519   6.175   8.293 -0.0839 -0.2189  2.4550
  507MOL0     H68441   5.517   5.981   8.665 -1.7900 -0.4067 -0.0286
  507MOL0     H68442   5.250   5.560   8.008 -0.9750 -1.4145 -0.9675
  507MOL0     H68443   5.010   5.305   7.955 -0.1757  1.1081  1.0005
  507MOL0     H68444   5.100   5.443   7.887 -0.1086  0.9433  0.4554
  507MOL0     H68445   5.144   5.278   7.834 -2.8260 -0.6558 -0.8324
  508MOL0     O68446   0.219   3.748   8.307 -0.6394  0.3157 -0.3164
  508MOL0     C68447   0.179   3.752   8.194  0.4430  0.1641  0.4941
  508MOL0     O68448   0.186   3.857   8.110 -0.0962  0.3699  0.7469
  508MOL0     C68449   0.192   3.979   8.175 -0.3385  0.8408  0.0743
  508MOL0     C68450   0.307   4.050   8.180  0.6476  0.1494 -0.0856
  508MOL0     C68451   0.313   4.172   8.238 -0.5693  0.3548 -0.0441
  508MOL0     C68452   0.197   4.217   8.303  0.0389 -0.4920  0.2421
  508MOL0     O68453   0.185   4.344   8.359 -0.3645 -0.5817 -0.1350
  508MOL0     C68454   0.284   4.366   8.458 -0.1855  0.7753 -0.2561
  508MOL0     C68455   0.239   4.464   8.563  0.3225  0.1181  0.3487
  508MOL0     C68456   0.141   4.580   8.519 -0.1190  0.0798 -0.0615
  508MOL0     C68457   0.104   4.672   8.639  0.5799  0.0669 -0.5538
  508MOL0     C68458  -0.005   4.772   8.588  0.0246  0.1500  0.0633
  508MOL0     C68459   0.063   4.878   8.507  0.0871 -0.1158  0.3335
  508MOL0     C68460  -0.024   4.995   8.488  0.3934 -0.0931 -0.4116
  508MOL0     C68461  -0.140   4.959   8.390  0.2963  0.7971  0.5802
  508MOL0     N68462  -0.204   5.084   8.357  0.5662 -1.1638  1.3230
  508MOL0     C68463  -0.153   5.157   8.250 -0.4257 -0.3497  0.5242
  508MOL0     C68464  -0.243   5.257   8.224  0.5467 -0.4907  0.2697
  508MOL0     C68465  -0.247   5.347   8.099  0.0426  0.2123 -0.3454
  508MOL0     C68466  -0.244   5.495   8.138  0.9098 -0.0654 -0.4081
  508MOL0     C68467  -0.233   5.604   8.034  0.2898  0.9375  0.5542
  508MOL0     C68468  -0.340   5.613   7.915 -0.4247  0.3716  0.0677
  508MOL0     O68469  -0.348   5.481   7.855 -0.1536  0.5934 -0.1164
  508MOL0     C68470  -0.278   5.453   7.742 -0.1244  0.9259  0.1489
  508MOL0     C68471  -0.157   5.380   7.755  0.8874  0.4481  0.3193
  508MOL0     C68472  -0.105   5.325   7.641 -0.2621 -0.6658 -0.4008
  508MOL0     C68473  -0.152   5.345   7.516 -0.6154 -0.0805  0.9693
  508MOL0     C68474  -0.081   5.288   7.392  0.3922 -0.7835 -0.5132
  508MOL0     O68475   0.047   5.273   7.398 -0.0498 -0.2506 -0.4925
  508MOL0     C68476   0.107   5.181   7.306 -0.5428 -0.0130 -0.2551
  508MOL0     C68477   0.144   5.060   7.359 -0.0262  0.7310 -0.5047
  508MOL0     C68478   0.203   4.972   7.264 -0.6638  0.3407 -0.1457
  508MOL0     C68479   0.244   5.008   7.132  0.0316 -0.6088 -0.6240
  508MOL0     O68480   0.300   4.929   7.047  0.6146  0.0925 -0.5712
  508MOL0     C68481   0.393   4.836   7.097  0.0455 -0.4078 -0.0167
  508MOL0     C68482   0.465   4.757   6.980  0.5021 -0.5138 -0.2516
  508MOL0     C68483   0.383   4.668   6.883 -0.3492 -0.2760  0.7727
  508MOL0     C68484   0.335   4.735   6.760 -0.3330 -1.0635  0.1871
  508MOL0     C68485   0.269   4.618   6.670 -0.3538 -0.6221 -0.2102
  508MOL0     C68486   0.221   4.656   6.531 -0.3925  0.0433  0.4250
  508MOL0     C68487   0.140   4.546   6.465  0.0618 -0.2419 -0.8198
  508MOL0     C68488   0.088   4.591   6.327 -0.0308  0.1291  0.2890
  508MOL0    Cl68489  -0.046   4.484   6.271 -0.6600  0.1245  0.0299
  508MOL0     C68490   0.218   5.136   7.086 -0.4564 -0.2728  0.0611
  508MOL0     C68491   0.141   5.222   7.169  0.5759  0.4358 -0.3369
  508MOL0     O68492  -0.150   5.250   7.290  0.6744 -0.5864  0.7974
  508MOL0     C68493  -0.272   5.411   7.509  0.4397  0.1996  1.2529
  508MOL0     C68494  -0.339   5.465   7.612 -0.3910  0.5828 -0.9239
  508MOL0     N68495  -0.347   5.240   8.310 -0.2775  0.3868  0.4120
  508MOL0     N68496  -0.324   5.138   8.385  0.3472  0.6039 -0.2921
  508MOL0     C68497   0.079   4.147   8.296  0.8878  0.0404  0.9543
  508MOL0     C68498   0.074   4.019   8.234 -0.5023 -0.3006 -0.0993
  508MOL0     C68499   0.126   3.630   8.135  0.0944  0.3717 -0.3824
  508MOL0     C68500   0.103   3.630   7.994  0.5379  0.4858  1.0223
  508MOL0     C68501   0.065   3.518   7.921  0.3015  0.0740  0.0607
  508MOL0     C68502   0.020   3.404   7.987  0.7864  0.4789 -0.1756
  508MOL0     O68503  -0.025   3.293   7.909 -0.5719 -0.8436 -0.5224
  508MOL0     C68504  -0.083   3.173   7.976 -0.1069  0.5294  0.3833
  508MOL0     C68505  -0.134   3.065   7.864 -0.2973  0.4181  0.6870
  508MOL0     C68506  -0.024   2.992   7.784 -0.1208  0.5344 -0.0502
  508MOL0     C68507   0.098   2.934   7.860 -0.2377 -0.0511 -0.0845
  508MOL0     C68508   0.036   2.817   7.919  0.6684  0.0015  0.9156
  508MOL0     C68509  -0.041   2.729   7.959  0.6264  0.0083 -0.3385
  508MOL0     C68510   0.022   3.401   8.134  0.5615  0.2163  0.5266
  508MOL0     C68511   0.080   3.511   8.205  0.0720  0.6773 -1.3669
  508MOL0     C68512   0.064   3.509   8.360 -0.6106 -0.1408 -0.5171
  508MOL0     H68513   0.396   4.002   8.141 -0.4122 -1.4922 -0.5832
  508MOL0     H68514   0.410   4.220   8.241 -1.4209  2.1296  0.7384
  508MOL0     H68515   0.331   4.272   8.491 -1.4189  0.2114 -0.0557
  508MOL0     H68516   0.369   4.419   8.413 -0.1573  0.7282 -0.2586
  508MOL0     H68517   0.331   4.511   8.598  0.2578  1.7488 -1.4963
  508MOL0     H68518   0.187   4.418   8.647 -2.5767  4.3762  1.1688
  508MOL0     H68519   0.049   4.525   8.498 -0.0539  0.9265 -2.8505
  508MOL0     H68520   0.187   4.623   8.430  5.0468 -2.1412  1.1286
  508MOL0     H68521   0.069   4.628   8.733  1.0683  5.0455  2.3726
  508MOL0     H68522   0.197   4.724   8.665 -0.1608  1.2109 -0.0682
  508MOL0     H68523  -0.083   4.722   8.529  0.6651 -0.3227 -0.3987
  508MOL0     H68524  -0.053   4.810   8.678 -0.9287 -0.1451 -0.3084
  508MOL0     H68525   0.153   4.918   8.554 -0.0956  0.4602  0.1990
  508MOL0     H68526   0.089   4.835   8.410  1.2437  0.4830  0.3693
  508MOL0     H68527   0.023   5.080   8.440  0.6157 -1.7208 -3.2850
  508MOL0     H68528  -0.046   5.032   8.589 -2.0331 -1.8405 -0.1880
  508MOL0     H68529  -0.102   4.910   8.299 -1.4346  4.8844 -2.6864
  508MOL0     H68530  -0.214   4.889   8.428  0.6425 -1.1001 -1.9605
  508MOL0     H68531  -0.060   5.145   8.195 -1.1467  0.1906 -0.8751
  508MOL0     H68532  -0.159   5.320   8.040  0.5126 -0.6763  0.7338
  508MOL0     H68533  -0.343   5.319   8.054 -0.5767 -2.4133  2.2833
  508MOL0     H68534  -0.334   5.524   8.193  3.1583  4.8570  1.3073
  508MOL0     H68535  -0.164   5.503   8.212 -0.8129 -0.1500  1.5638
  508MOL0     H68536  -0.131   5.592   7.998 -0.8058 -1.7975 -2.0933
  508MOL0     H68537  -0.251   5.701   8.083 -0.1542  0.6464  0.9787
  508MOL0     H68538  -0.324   5.692   7.841  2.7446 -0.5018 -0.3300
  508MOL0     H68539  -0.439   5.619   7.961 -1.2845 -2.0683 -1.2516
  508MOL0     H68540  -0.108   5.360   7.850  2.0196  0.2456 -0.2977
  508MOL0     H68541  -0.010   5.276   7.661 -0.9721 -1.8250  0.2425
  508MOL0     H68542   0.097   5.032   7.453  2.9362 -0.3689  0.7768
  508MOL0     H68543   0.221   4.869   7.293 -2.4407  0.2533  0.8116
  508MOL0     H68544   0.465   4.893   7.155  0.5845  1.6110 -2.4718
  508MOL0     H68545   0.346   4.760   7.160  1.0837  0.4864  1.9269
  508MOL0     H68546   0.505   4.838   6.919  0.4692 -0.8649 -0.7399
  508MOL0     H68547   0.553   4.705   7.020  1.9875  1.0226 -1.4096
  508MOL0     H68548   0.459   4.595   6.855  3.2584  3.8840 -1.4583
  508MOL0     H68549   0.295   4.624   6.930 -0.9198  0.6537  0.6038
  508MOL0     H68550   0.414   4.796   6.716 -1.3054 -0.1537 -0.3423
  508MOL0     H68551   0.269   4.817   6.789 -0.2821 -0.7052 -0.6833
  508MOL0     H68552   0.198   4.563   6.732 -0.2563 -0.0794  0.3919
  508MOL0     H68553   0.351   4.548   6.652 -1.4122 -1.9681  0.0061
  508MOL0     H68554   0.172   4.752   6.548  2.9439  1.4476  3.4863
  508MOL0     H68555   0.305   4.662   6.462 -0.8864 -1.5053 -0.3551
  508MOL0     H68556   0.058   4.523   6.533 -0.0731  0.6913 -0.6477
  508MOL0     H68557   0.183   4.447   6.452 -2.5787 -1.6262  0.2852
  508MOL0     H68558   0.054   4.694   6.341 -2.4380 -0.7266  1.1686
  508MOL0     H68559   0.170   4.595   6.255 -1.9098 -0.9593 -2.0254
  508MOL0     H68560   0.239   5.161   6.983  0.4517  0.4868  0.4174
  508MOL0     H68561   0.108   5.325   7.153 -0.0777  0.0623 -1.5921
  508MOL0     H68562  -0.320   5.413   7.412 -2.3049 -1.8440  2.4114
  508MOL0     H68563  -0.441   5.500   7.605 -0.4306  0.1280 -3.4849
  508MOL0     H68564  -0.007   4.191   8.345  0.5385 -0.9507  1.2562
  508MOL0     H68565  -0.013   3.957   8.213 -1.0103  0.6892 -1.0418
  508MOL0     H68566   0.132   3.719   7.940  2.7388  0.8765  2.6763
  508MOL0     H68567   0.063   3.528   7.813  0.1336  2.9018  0.2563
  508MOL0     H68568  -0.183   3.195   8.013 -1.9215 -2.8301 -1.9650
  508MOL0     H68569  -0.008   3.135   8.045 -0.3544 -1.4633 -0.3697
  508MOL0     H68570  -0.191   3.123   7.791 -0.4676 -1.1940 -0.5148
  508MOL0     H68571  -0.203   2.993   7.911 -1.9141  1.7121  0.3761
  508MOL0     H68572   0.010   3.076   7.722 -0.3519  1.2753  0.8154
  508MOL0     H68573  -0.078   2.921   7.721  1.3176 -0.2057 -0.4836
  508MOL0     H68574   0.170   2.890   7.790  0.8917  0.3541  0.7951
  508MOL0     H68575   0.138   3.007   7.931 -4.2438  1.3900  0.9395
  508MOL0     H68576  -0.114   2.665   8.004 -1.8168  1.1318 -2.4354
  508MOL0     H68577  -0.014   3.320   8.196  3.2159 -0.1513  1.7278
  508MOL0     H68578  -0.013   3.443   8.399 -2.5421  0.9515 -2.2873
  508MOL0     H68579   0.154   3.485   8.417 -1.9629 -2.1074  0.9024
  508MOL0     H68580   0.029   3.603   8.404  2.1208 -0.4703  2.7847
  509MOL0     O68581   8.084   8.526   8.763  0.4500 -0.6083  0.2966
  509MOL0     C68582   8.001   8.575   8.689  0.4537  0.2047 -0.1357
  509MOL0     O68583   7.891   8.644   8.729 -0.1711  0.1060 -0.2123
  509MOL0     C68584   7.845   8.641   8.857  0.4580 -0.1886 -0.7736
  509MOL0     C68585   7.906   8.726   8.961  0.4580 -0.0699  0.6198
  509MOL0     C68586   7.844   8.730   9.086  0.2978  1.6705  0.0793
  509MOL0     C68587   7.725   8.665   9.116  0.6238  0.4409  0.7567
  509MOL0     O68588   7.649   8.686   9.227 -0.0037 -0.0501 -0.9888
  509MOL0     C68589   7.734   8.703   9.347  0.0087  0.3222  0.2748
  509MOL0     C68590   7.654   8.699   9.470  0.6280 -0.3344 -0.6086
  509MOL0     C68591   7.533   8.801   9.458  0.1544  0.1689 -0.1652
  509MOL0     C68592   7.476   8.832   9.598 -0.3815  0.0065 -0.4723
  509MOL0     C68593   7.370   8.947   9.596  0.1211 -0.6956  0.1320
  509MOL0     C68594   7.301   8.960   9.738 -0.2854  0.2021 -0.5290
  509MOL0     C68595   7.210   9.087   9.749  0.0227  0.0579 -0.3726
  509MOL0     C68596   7.297   9.209   9.792  0.1725  0.8843 -0.9131
  509MOL0     N68597   7.220   9.332   9.798  0.1914 -0.1013  0.2940
  509MOL0     C68598   7.102   9.357   9.852  0.1851  0.3337 -0.3644
  509MOL0     C68599   7.090   9.491   9.834  0.9968 -0.5745  0.2512
  509MOL0     C68600   6.966   9.580   9.867  0.8187 -0.6439 -0.5860
  509MOL0     C68601   6.936   9.606  10.011 -0.1461 -0.3725  0.0501
  509MOL0     C68602   6.790   9.563  10.048 -0.5042  0.4058 -0.1159
  509MOL0     C68603   6.767   9.558  10.206  0.1211  0.4456 -0.6193
  509MOL0     O68604   6.856   9.467  10.269 -0.9525 -0.0654 -0.0953
  509MOL0     C68605   6.934   9.530  10.366  0.2607  0.0982  0.0725
  509MOL0     C68606   7.070   9.504  10.359 -0.5145  0.3078 -0.2003
  509MOL0     C68607   7.160   9.577  10.433 -0.1880  0.8629  0.3599
  509MOL0     C68608   7.105   9.662  10.536 -0.8979  0.3804 -0.9917
  509MOL0     C68609   7.200   9.734  10.623 -0.1708 -0.5857 -0.6114
  509MOL0     O68610   7.156   9.844  10.691 -0.2656 -0.5022 -0.4879
  509MOL0     C68611   7.219   9.880  10.807  0.3465  0.4146 -0.6337
  509MOL0     C68612   7.158   9.838  10.926 -1.5203 -0.2555  0.4408
  509MOL0     C68613   7.220   9.864  11.041 -0.4977  0.8549 -0.8024
  509MOL0     C68614   7.326   9.947  11.064  0.6422  0.4406 -0.3203
  509MOL0     O68615   7.345   9.980  11.193  0.6739 -0.1745 -0.3335
  509MOL0     C68616   7.450  10.076  11.227  0.0841 -0.7153  0.7801
  509MOL0     C68617   7.496  10.064  11.373 -0.6692  0.4682 -0.7247
  509MOL0     C68618   7.402  10.138  11.462  0.1417  0.1499 -0.0356
  509MOL0     C68619   7.441  10.120  11.618 -0.3409 -0.0239  1.1966
  509MOL0     C68620   7.329  10.156  11.717 -0.6662 -0.2605  0.0970
  509MOL0     C68621   7.211  10.054  11.710  0.6388 -0.9430 -0.3835
  509MOL0     C68622   7.088  10.087  11.785 -0.0546 -0.6104 -0.4388
  509MOL0     C68623   7.107  10.085  11.942 -0.3193  0.2950  0.3288
  509MOL0    Cl68624   7.171   9.924  11.981  0.5104  0.4484 -0.3391
  509MOL0     C68625   7.384   9.992  10.952 -0.6438 -1.1357 -0.2118
  509MOL0     C68626   7.341   9.954  10.821 -0.3415 -0.1679 -0.7311
  509MOL0     O68627   7.307   9.679  10.637 -0.1918  0.3480 -0.5064
  509MOL0     C68628   6.968   9.688  10.563  0.2695  1.4594  1.1228
  509MOL0     C68629   6.884   9.611  10.477 -0.2621 -0.8369 -0.9156
  509MOL0     N68630   7.208   9.552   9.779  0.7501  0.2707  0.2001
  509MOL0     N68631   7.277   9.446   9.763 -1.1217 -0.4186 -0.1183
  509MOL0     C68632   7.667   8.583   9.011 -0.2073  0.0706  0.4806
  509MOL0     C68633   7.730   8.569   8.890 -0.5105 -0.2762 -0.1235
  509MOL0     C68634   8.013   8.540   8.542 -0.0846  0.3462  0.7307
  509MOL0     C68635   7.893   8.507   8.469 -0.6383 -0.0194  0.0286
  509MOL0     C68636   7.907   8.480   8.331  0.1371 -0.2504 -0.2563
  509MOL0     C68637   8.028   8.487   8.264 -0.4944 -0.0538  1.1191
  509MOL0     O68638   8.050   8.462   8.132 -0.3495 -0.3708  0.3942
  509MOL0     C68639   7.942   8.456   8.042 -0.2383 -0.1556 -0.1876
  509MOL0     C68640   7.910   8.586   7.969  0.9618  0.7774  0.1176
  509MOL0     C68641   8.029   8.663   7.915 -0.3945 -0.5468  0.7523
  509MOL0     C68642   8.104   8.608   7.804  0.4697 -0.3415  0.0818
  509MOL0     C68643   8.204   8.703   7.759 -0.1963  0.3255  0.0557
  509MOL0     C68644   8.276   8.782   7.714 -0.2557 -0.7960 -0.7306
  509MOL0     C68645   8.143   8.526   8.327  0.0218  0.1059 -0.0273
  509MOL0     C68646   8.135   8.556   8.467 -0.4806 -0.0248 -0.8135
  509MOL0     C68647   8.264   8.586   8.532 -0.7948 -0.2991  0.3720
  509MOL0     H68648   7.995   8.786   8.942  0.8203 -0.4915  0.9480
  509MOL0     H68649   7.881   8.792   9.167  3.0719  0.3541 -0.0537
  509MOL0     H68650   7.804   8.619   9.354  0.3007  0.1543 -3.0501
  509MOL0     H68651   7.788   8.798   9.356 -1.2112  1.1173 -0.4636
  509MOL0     H68652   7.714   8.728   9.557 -0.2593 -2.6621  0.8779
  509MOL0     H68653   7.620   8.599   9.500 -0.9170  1.2182  3.5891
  509MOL0     H68654   7.445   8.762   9.407 -1.5078  0.6245  2.1917
  509MOL0     H68655   7.563   8.896   9.411  3.4730  0.0273  1.3695
  509MOL0     H68656   7.424   8.746   9.640 -2.6630  1.6906  0.4102
  509MOL0     H68657   7.567   8.846   9.657 -0.2862  0.5503 -0.7407
  509MOL0     H68658   7.422   9.042   9.579  4.8071 -3.0047 -0.0254
  509MOL0     H68659   7.294   8.937   9.518  2.1152  1.0729 -2.2059
  509MOL0     H68660   7.244   8.869   9.759  1.4562 -0.7749  0.2246
  509MOL0     H68661   7.378   8.975   9.814 -0.9650  0.6480  0.0890
  509MOL0     H68662   7.132   9.080   9.825 -0.4731  0.3554 -0.8515
  509MOL0     H68663   7.167   9.105   9.650 -2.8659  5.8010  1.4923
  509MOL0     H68664   7.319   9.186   9.897 -2.1262 -1.6303 -0.8939
  509MOL0     H68665   7.383   9.231   9.729  2.0314 -2.9277 -0.0286
  509MOL0     H68666   7.036   9.289   9.905 -1.0003  2.0799  0.4986
  509MOL0     H68667   6.972   9.677   9.816 -1.3283 -1.3393 -2.3255
  509MOL0     H68668   6.882   9.527   9.821  0.9581  1.4647 -3.5571
  509MOL0     H68669   7.013   9.568  10.079 -0.2987  1.4198  1.2797
  509MOL0     H68670   6.946   9.712  10.036  2.6110 -0.4613 -0.4064
  509MOL0     H68671   6.774   9.468   9.996 -2.5484  2.2786 -3.1987
  509MOL0     H68672   6.722   9.642  10.016 -0.6501  0.0267 -0.7449
  509MOL0     H68673   6.663   9.529  10.219  0.9852 -2.6103  0.4123
  509MOL0     H68674   6.775   9.659  10.248 -2.1647 -0.3834  2.0877
  509MOL0     H68675   7.116   9.448  10.278  0.0557  2.2717 -1.3011
  509MOL0     H68676   7.264   9.565  10.404  0.4413  3.4078  1.2525
  509MOL0     H68677   7.067   9.780  10.916  1.3711 -5.1599 -0.5833
  509MOL0     H68678   7.169   9.834  11.132  4.2360  1.3420  2.4071
  509MOL0     H68679   7.535  10.047  11.164  1.4191 -1.3564  2.7918
  509MOL0     H68680   7.421  10.179  11.205  2.4826  0.1492  1.3987
  509MOL0     H68681   7.488   9.961  11.409 -1.9830  0.2530 -1.5647
  509MOL0     H68682   7.603  10.087  11.375 -0.2556 -1.2103 -1.6098
  509MOL0     H68683   7.412  10.245  11.441  0.1335  0.5125  1.6474
  509MOL0     H68684   7.298  10.109  11.443  0.5481 -0.8393 -0.8302
  509MOL0     H68685   7.530  10.180  11.638  0.1997  0.0762 -1.1200
  509MOL0     H68686   7.471  10.018  11.646  0.7964  0.6242  2.4097
  509MOL0     H68687   7.297  10.258  11.697  3.1461  0.8342 -1.3343
  509MOL0     H68688   7.376  10.153  11.816  2.5514 -1.6978 -1.3089
  509MOL0     H68689   7.183  10.044  11.604  1.2797 -0.2625 -0.6308
  509MOL0     H68690   7.244   9.953  11.732 -1.2164 -1.4665  0.1425
  509MOL0     H68691   7.000  10.023  11.770  0.5222 -2.2822  2.5227
  509MOL0     H68692   7.051  10.188  11.764 -3.4128 -0.8986  2.9173
  509MOL0     H68693   7.181  10.164  11.963  0.7109 -0.1601 -1.3920
  509MOL0     H68694   7.009  10.103  11.987  0.1331 -3.1376  3.1065
  509MOL0     H68695   7.465  10.064  10.951 -2.6450  1.2291 -1.1785
  509MOL0     H68696   7.395   9.984  10.732 -1.9124 -1.4054 -2.1789
  509MOL0     H68697   6.930   9.746  10.647 -0.0230 -0.1656  2.1558
  509MOL0     H68698   6.776   9.617  10.490 -0.2442 -2.8149  0.7233
  509MOL0     H68699   7.570   8.539   9.031 -0.9927  0.4422 -2.1551
  509MOL0     H68700   7.683   8.521   8.805 -1.4448  0.5911 -0.1154
  509MOL0     H68701   7.793   8.500   8.510 -0.8257 -0.3541 -0.4830
  509MOL0     H68702   7.819   8.462   8.271 -0.3847 -0.8363  0.6791
  509MOL0     H68703   7.848   8.411   8.073  1.1565 -3.1961 -0.0091
  509MOL0     H68704   7.984   8.380   7.975  0.0003  0.0169 -0.2347
  509MOL0     H68705   7.859   8.651   8.040 -0.8525  0.6185 -0.9847
  509MOL0     H68706   7.842   8.557   7.888 -0.6778 -0.6103  1.8886
  509MOL0     H68707   8.088   8.681   8.006 -0.3380  1.7683  0.3282
  509MOL0     H68708   8.001   8.768   7.899 -0.8112 -0.7822 -0.0861
  509MOL0     H68709   8.158   8.515   7.823  0.6766 -0.4973 -1.1785
  509MOL0     H68710   8.027   8.581   7.732  0.0761  1.5270 -0.2463
  509MOL0     H68711   8.343   8.850   7.666  1.2205 -0.5951  1.4941
  509MOL0     H68712   8.229   8.515   8.262 -1.3520 -2.3145 -1.5595
  509MOL0     H68713   8.342   8.622   8.465 -1.5897  0.2847 -0.2582
  509MOL0     H68714   8.246   8.658   8.612  2.0318 -1.8202  2.5592
  509MOL0     H68715   8.297   8.485   8.560 -2.0905 -1.3629 -1.6836
  510MOL0     O68716  10.652   9.169   2.721  0.1984 -0.1103  0.2110
  510MOL0     C68717  10.751   9.135   2.789  0.4614 -0.0673 -0.7056
  510MOL0     O68718  10.848   9.047   2.746  0.4910  0.1591  0.0764
  510MOL0     C68719  10.828   8.974   2.626  0.4445  0.5107 -0.8633
  510MOL0     C68720  10.849   9.023   2.500  0.1921 -0.4304 -0.1733
  510MOL0     C68721  10.811   8.961   2.373 -0.4707 -0.5348  0.1539
  510MOL0     C68722  10.771   8.827   2.385  0.4319 -0.0302 -0.1570
  510MOL0     O68723  10.728   8.758   2.285  0.2745 -0.4013  0.6363
  510MOL0     C68724  10.600   8.804   2.233  0.3005 -0.3929  1.0098
  510MOL0     C68725  10.549   8.699   2.136 -0.5829 -1.1889 -0.1184
  510MOL0     C68726  10.420   8.748   2.090  0.4242  0.8804  0.2837
  510MOL0     C68727  10.322   8.628   2.083  0.4584  0.0403  0.3852
  510MOL0     C68728  10.187   8.660   2.035 -0.9031 -0.6880 -0.1457
  510MOL0     C68729  10.189   8.724   1.897  0.1648 -0.1381  1.2461
  510MOL0     C68730  10.050   8.722   1.822  0.2758 -0.1091 -0.0579
  510MOL0     C68731  10.034   8.589   1.762 -0.1697  0.1768  0.3752
  510MOL0     N68732   9.935   8.602   1.661 -0.0428  0.6752 -0.9420
  510MOL0     C68733   9.797   8.616   1.682 -0.4079 -1.5274 -0.8074
  510MOL0     C68734   9.751   8.641   1.559 -0.2870 -0.1422  0.0048
  510MOL0     C68735   9.612   8.678   1.523 -0.2680 -1.6914 -0.2724
  510MOL0     C68736   9.540   8.784   1.611 -1.0533  0.4997  0.9100
  510MOL0     C68737   9.590   8.930   1.601 -0.4760  0.3552  0.0221
  510MOL0     C68738   9.474   9.027   1.641  0.3765  0.0291 -0.7834
  510MOL0     O68739   9.503   9.173   1.615  0.1682  0.0074  0.0252
  510MOL0     C68740   9.403   9.259   1.654  0.4231  1.2482  0.5441
  510MOL0     C68741   9.388   9.375   1.584  0.5389 -0.8994 -0.0678
  510MOL0     C68742   9.293   9.473   1.612  0.3422  0.4097 -0.1965
  510MOL0     C68743   9.188   9.452   1.710 -0.6658  0.1847  0.3592
  510MOL0     C68744   9.073   9.545   1.733  0.9091  0.1644 -0.4964
  510MOL0     O68745   8.985   9.519   1.838 -0.5148 -1.0106 -0.9900
  510MOL0     C68746   8.876   9.601   1.853  0.5857 -0.2045 -0.3561
  510MOL0     C68747   8.805   9.663   1.744 -0.5097 -0.4230  0.2846
  510MOL0     C68748   8.693   9.743   1.763 -0.7097 -0.4054 -0.4290
  510MOL0     C68749   8.645   9.774   1.888 -0.6104  0.8060  0.2408
  510MOL0     O68750   8.526   9.837   1.887  0.0680 -0.0738 -0.0080
  510MOL0     C68751   8.460   9.897   2.003  1.1737 -0.4674 -0.3052
  510MOL0     C68752   8.507  10.039   2.026  0.1410  0.9531 -0.5719
  510MOL0     C68753   8.647  10.049   2.105  1.0123 -0.1652  0.1711
  510MOL0     C68754   8.665  10.181   2.183  1.2824 -0.3773  0.7064
  510MOL0     C68755   8.809  10.209   2.216 -0.8621 -1.1751 -1.3462
  510MOL0     C68756   8.840  10.357   2.262  0.5174 -0.3357  0.7254
  510MOL0     C68757   8.983  10.389   2.267 -0.1014  0.5578 -0.2133
  510MOL0     C68758   9.018  10.532   2.312 -0.6995  0.1766  0.5330
  510MOL0    Cl68759   9.198  10.520   2.331 -0.2132 -0.2459  0.0817
  510MOL0     C68760   8.701   9.701   2.000 -0.9603  0.2251 -0.1627
  510MOL0     C68761   8.816   9.620   1.980  0.0937  1.2041 -0.2779
  510MOL0     O68762   9.078   9.648   1.666 -0.1657 -0.8330 -0.5621
  510MOL0     C68763   9.202   9.329   1.780 -0.1193 -0.2310  0.4876
  510MOL0     C68764   9.311   9.239   1.759 -0.6177  0.3253  0.5552
  510MOL0     N68765   9.848   8.628   1.469 -0.2548  1.2074  0.3155
  510MOL0     N68766   9.966   8.607   1.527  0.0300 -0.5775 -0.7823
  510MOL0     C68767  10.744   8.777   2.507 -0.1540 -0.1711 -0.8442
  510MOL0     C68768  10.782   8.846   2.634  1.3709 -0.4494 -0.6683
  510MOL0     C68769  10.766   9.199   2.916  0.4290  1.1390  0.4290
  510MOL0     C68770  10.772   9.119   3.020  0.7327  0.4817 -0.9650
  510MOL0     C68771  10.788   9.167   3.146 -0.3130  0.4686  0.3121
  510MOL0     C68772  10.779   9.304   3.178 -0.3674 -0.2639 -0.4790
  510MOL0     O68773  10.786   9.353   3.312 -0.0697  0.5277  0.5170
  510MOL0     C68774  10.741   9.491   3.330  0.2295 -1.3564  0.8694
  510MOL0     C68775  10.734   9.536   3.479  0.4442 -0.1702 -0.3773
  510MOL0     C68776  10.873   9.514   3.540  0.5357 -0.6947 -0.8095
  510MOL0     C68777  10.886   9.595   3.668  0.1634  0.6948  0.2941
  510MOL0     C68778  10.880   9.745   3.644 -0.0324  0.7525  0.3789
  510MOL0     C68779  10.886   9.866   3.632 -0.9872  0.9725  0.0592
  510MOL0     C68780  10.768   9.389   3.064 -0.1849  0.0614 -0.1254
  510MOL0     C68781  10.767   9.337   2.928  0.8124 -0.4336  0.3518
  510MOL0     C68782  10.755   9.436   2.807 -0.5762  0.3739  1.0348
  510MOL0     H68783  10.864   9.131   2.504 -1.1157 -0.2880  2.0552
  510MOL0     H68784  10.817   9.021   2.284  0.1125  0.0280  0.5650
  510MOL0     H68785  10.532   8.806   2.319 -0.3555 -1.8228  0.5550
  510MOL0     H68786  10.606   8.908   2.200  0.6669 -0.0923  1.9883
  510MOL0     H68787  10.543   8.609   2.197  1.7970  0.4813  2.9029
  510MOL0     H68788  10.613   8.688   2.048  1.3120 -1.6330  1.2482
  510MOL0     H68789  10.428   8.793   1.991  1.0651 -0.7921 -0.4581
  510MOL0     H68790  10.373   8.813   2.165 -1.4339 -2.2556  2.0654
  510MOL0     H68791  10.350   8.553   2.008 -0.1238  0.0968  0.1048
  510MOL0     H68792  10.308   8.579   2.180 -0.7751 -0.4671 -0.0352
  510MOL0     H68793  10.134   8.565   2.033 -0.4477 -0.9622  0.5143
  510MOL0     H68794  10.140   8.727   2.108  1.7291  2.0138 -0.7120
  510MOL0     H68795  10.212   8.830   1.907  0.1654 -0.1500  1.3745
  510MOL0     H68796  10.269   8.692   1.830  0.1366  2.0316  0.0865
  510MOL0     H68797  10.048   8.802   1.747 -1.1065 -0.0867 -0.0206
  510MOL0     H68798   9.962   8.744   1.884 -1.7677 -1.0288 -2.4538
  510MOL0     H68799  10.127   8.554   1.717  0.8011  4.7242 -1.6500
  510MOL0     H68800  10.002   8.515   1.836 -1.5927  0.9451  0.5627
  510MOL0     H68801   9.765   8.598   1.783  2.4177 -3.3849 -0.1375
  510MOL0     H68802   9.595   8.686   1.415 -0.0902 -3.6591 -0.4999
  510MOL0     H68803   9.569   8.581   1.551  1.0040 -2.6679 -1.5521
  510MOL0     H68804   9.436   8.791   1.577 -1.4683  2.1377  2.3390
  510MOL0     H68805   9.544   8.755   1.717  1.8072  0.7840  0.9674
  510MOL0     H68806   9.603   8.948   1.494  2.7292  0.7731  0.3926
  510MOL0     H68807   9.683   8.942   1.658  0.8922  0.0331 -2.0254
  510MOL0     H68808   9.454   8.996   1.744  0.6762  1.4223 -0.2812
  510MOL0     H68809   9.387   9.002   1.580  0.2042 -1.6312  0.0668
  510MOL0     H68810   9.463   9.394   1.508  1.3870  2.2549  1.3814
  510MOL0     H68811   9.302   9.559   1.547  0.5756  1.5581  1.2934
  510MOL0     H68812   8.844   9.645   1.644 -1.4122  0.1491 -0.1853
  510MOL0     H68813   8.637   9.786   1.681 -0.0647  2.9342  0.7197
  510MOL0     H68814   8.354   9.894   1.977  1.0547  1.2187 -0.1215
  510MOL0     H68815   8.471   9.842   2.097  0.8708  1.3954  0.8777
  510MOL0     H68816   8.501  10.097   1.934  0.9579  2.8431  0.5007
  510MOL0     H68817   8.426  10.076   2.089 -0.0913  0.0302 -0.3080
  510MOL0     H68818   8.647   9.965   2.174  0.3031 -2.3735 -2.3821
  510MOL0     H68819   8.740  10.039   2.049  0.3793 -3.3968 -0.4991
  510MOL0     H68820   8.606  10.180   2.275  0.1973 -1.0105  0.0163
  510MOL0     H68821   8.624  10.254   2.113 -0.2898 -2.1898 -0.3427
  510MOL0     H68822   8.874  10.198   2.129  3.1315  3.3657  0.5816
  510MOL0     H68823   8.850  10.145   2.295  1.1606 -1.1676 -2.3472
  510MOL0     H68824   8.787  10.427   2.196  2.1041  2.0999  1.8779
  510MOL0     H68825   8.800  10.365   2.363  2.8425  3.2592  1.5701
  510MOL0     H68826   9.028  10.377   2.168 -0.4585  0.0012 -0.3111
  510MOL0     H68827   9.034  10.313   2.326  1.6168  0.9111 -1.1783
  510MOL0     H68828   8.997  10.610   2.237  0.5834  0.7792  0.7764
  510MOL0     H68829   8.968  10.561   2.405 -0.0688  3.5618 -0.0403
  510MOL0     H68830   8.664   9.730   2.098 -0.3219  1.6463 -0.3136
  510MOL0     H68831   8.866   9.572   2.063 -0.0510  1.2817 -0.1461
  510MOL0     H68832   9.128   9.305   1.856 -0.3201 -1.5503 -0.0963
  510MOL0     H68833   9.302   9.146   1.813  0.3688  1.4622  2.8200
  510MOL0     H68834  10.692   8.682   2.500 -1.5357  0.6352 -2.1227
  510MOL0     H68835  10.765   8.790   2.726 -1.8653 -0.4997 -1.1687
  510MOL0     H68836  10.755   9.013   3.003 -3.0194  0.3963  1.9980
  510MOL0     H68837  10.796   9.098   3.230 -0.8742 -0.3731 -0.3065
  510MOL0     H68838  10.638   9.493   3.293  0.2983  1.9621  0.5761
  510MOL0     H68839  10.804   9.558   3.272  0.1891 -3.2029 -1.4471
  510MOL0     H68840  10.658   9.491   3.543  0.9202  0.8291  0.9431
  510MOL0     H68841  10.703   9.641   3.478  0.7583 -0.0448 -2.5813
  510MOL0     H68842  10.949   9.552   3.471  0.9776  1.5193  0.7730
  510MOL0     H68843  10.888   9.410   3.570  0.8765 -0.6986 -0.9904
  510MOL0     H68844  10.830   9.567   3.757 -0.5939  3.9214  0.9515
  510MOL0     H68845  10.990   9.575   3.696  0.5150  2.8973  0.7068
  510MOL0     H68846  10.896   9.970   3.610  1.3916  0.3475 -2.3881
  510MOL0     H68847  10.774   9.498   3.065  2.6020  0.0135  2.2897
  510MOL0     H68848  10.665   9.497   2.821 -1.1294 -0.0376 -0.5164
  510MOL0     H68849  10.839   9.504   2.794  1.0905 -1.7899 -0.1647
  510MOL0     H68850  10.735   9.390   2.710 -0.9323 -1.4706  1.9266
  511MOL0     O68851   9.188   5.230   8.034 -1.1188  0.2547  0.4021
  511MOL0     C68852   9.240   5.140   7.973  0.4434 -0.2550 -0.3785
  511MOL0     O68853   9.363   5.139   7.920  0.1799 -0.3102 -0.6549
  511MOL0     C68854   9.443   5.252   7.913 -0.1757  0.0586 -0.9304
  511MOL0     C68855   9.583   5.224   7.915 -0.6766 -0.0550  1.2040
  511MOL0     C68856   9.684   5.317   7.879 -0.8655  1.0238  0.0642
  511MOL0     C68857   9.658   5.449   7.853  0.4658 -0.2392  0.1423
  511MOL0     O68858   9.767   5.527   7.841 -0.4733  0.0610  0.1781
  511MOL0     C68859   9.757   5.671   7.821 -0.1547 -0.5903 -0.9704
  511MOL0     C68860   9.723   5.715   7.683  0.1179 -0.5111  0.6217
  511MOL0     C68861   9.762   5.858   7.647 -0.5162 -0.3175 -0.4150
  511MOL0     C68862   9.664   5.962   7.690 -0.3097 -0.3099 -0.2884
  511MOL0     C68863   9.691   6.099   7.615 -0.2568 -0.3871 -0.4723
  511MOL0     C68864   9.626   6.212   7.695  0.0756  0.0845  0.1537
  511MOL0     C68865   9.466   6.205   7.695 -0.6482 -0.0391 -0.5586
  511MOL0     C68866   9.404   6.350   7.684  0.1274 -0.9841  0.0181
  511MOL0     N68867   9.282   6.361   7.758  0.1147  0.0773  0.7551
  511MOL0     C68868   9.269   6.342   7.889  0.6526  0.5030  0.3652
  511MOL0     C68869   9.140   6.355   7.922  0.2836  0.0011  0.8088
  511MOL0     C68870   9.079   6.355   8.061  0.5560 -0.3130 -0.2260
  511MOL0     C68871   9.162   6.398   8.182  0.2811 -0.4435 -0.1077
  511MOL0     C68872   9.187   6.554   8.173 -0.5103  0.0770 -0.1102
  511MOL0     C68873   9.252   6.609   8.301  1.0574  1.0083  0.8039
  511MOL0     O68874   9.331   6.728   8.275  0.0256  0.1542 -0.5620
  511MOL0     C68875   9.465   6.723   8.256  0.0795  0.4673  0.4334
  511MOL0     C68876   9.550   6.837   8.259  0.1337 -0.0731  0.4996
  511MOL0     C68877   9.695   6.828   8.277  0.2244 -0.4257 -0.9618
  511MOL0     C68878   9.760   6.704   8.252  0.7466  0.0556  0.6960
  511MOL0     C68879   9.901   6.698   8.251 -0.9835  0.1156  0.0101
  511MOL0     O68880   9.956   6.594   8.188 -0.3334  0.0577  0.3436
  511MOL0     C68881  10.093   6.570   8.198 -0.1913 -0.1351 -0.2455
  511MOL0     C68882  10.143   6.498   8.304  0.7312 -0.1458  0.1701
  511MOL0     C68883  10.283   6.480   8.318 -1.0641  0.2282 -0.2848
  511MOL0     C68884  10.370   6.534   8.218  0.9341  0.1943 -0.1014
  511MOL0     O68885  10.504   6.542   8.240  0.1955 -0.2900  0.0581
  511MOL0     C68886  10.578   6.469   8.140 -0.0903  0.0841  0.0013
  511MOL0     C68887  10.701   6.404   8.207  1.0882  1.0481  0.9634
  511MOL0     C68888  10.813   6.483   8.269 -0.3774 -0.4309  1.1899
  511MOL0     C68889  10.768   6.547   8.402  1.0816  0.4813 -0.4296
  511MOL0     C68890  10.892   6.603   8.475  0.4169 -0.5910  0.2284
  511MOL0     C68891  10.850   6.640   8.614 -0.3410  0.1371  0.5605
  511MOL0     C68892  10.966   6.714   8.695 -0.0949  0.5875  0.2940
  511MOL0     C68893  11.043   6.609   8.786  0.6655  0.2372  0.9133
  511MOL0    Cl68894  11.162   6.681   8.899 -0.6621  0.2658 -0.0709
  511MOL0     C68895  10.317   6.597   8.103 -0.3830 -0.3652  0.2929
  511MOL0     C68896  10.179   6.611   8.093 -0.3624 -1.2436 -0.9004
  511MOL0     O68897   9.960   6.785   8.317  0.8908 -0.5845 -0.1175
  511MOL0     C68898   9.676   6.595   8.232 -0.5899  1.0310  0.7331
  511MOL0     C68899   9.534   6.602   8.235  0.6359 -0.0515 -1.0093
  511MOL0     N68900   9.073   6.368   7.803 -0.8906  0.6360  0.2009
  511MOL0     N68901   9.159   6.369   7.703 -0.0236 -0.0778 -0.6432
  511MOL0     C68902   9.520   5.484   7.862 -0.0057  0.9101 -0.0559
  511MOL0     C68903   9.414   5.388   7.893  0.0646 -0.1987  0.6950
  511MOL0     C68904   9.161   5.019   7.948 -0.5970  0.5200 -0.6992
  511MOL0     C68905   9.227   4.902   7.906  0.0818  0.7168  0.1577
  511MOL0     C68906   9.158   4.790   7.873  0.5499 -0.2127  0.2501
  511MOL0     C68907   9.015   4.789   7.871 -0.4056  0.3351 -0.5941
  511MOL0     O68908   8.949   4.674   7.830  0.8091  0.0469  0.6186
  511MOL0     C68909   9.021   4.579   7.743 -0.1707  0.0202  0.2212
  511MOL0     C68910   8.913   4.509   7.657  0.3539 -0.9120  0.4257
  511MOL0     C68911   8.840   4.595   7.554  0.1028  0.3658  0.0918
  511MOL0     C68912   8.941   4.665   7.460 -1.4266 -0.4357 -0.6125
  511MOL0     C68913   9.047   4.579   7.406  1.0904 -0.1015 -0.1176
  511MOL0     C68914   9.133   4.526   7.342 -0.9496 -0.4271 -0.6954
  511MOL0     C68915   8.948   4.893   7.918  0.1845 -0.9804 -0.8891
  511MOL0     C68916   9.017   5.005   7.964 -0.0368  0.5413 -0.0624
  511MOL0     C68917   8.938   5.111   8.029  0.4520 -0.2139  0.1769
  511MOL0     H68918   9.612   5.120   7.925 -1.8827 -0.4067  1.1469
  511MOL0     H68919   9.790   5.299   7.861 -0.5223  3.4877 -0.7750
  511MOL0     H68920   9.687   5.724   7.887  1.1421  1.2759 -1.0301
  511MOL0     H68921   9.848   5.710   7.867 -0.9329 -1.5517  1.6000
  511MOL0     H68922   9.616   5.695   7.667 -0.5124  3.3534 -1.1782
  511MOL0     H68923   9.790   5.653   7.622  0.2324  0.5517 -0.3576
  511MOL0     H68924   9.789   5.862   7.541  5.3380  0.0190  0.7273
  511MOL0     H68925   9.859   5.879   7.694 -1.3458  1.3009  0.6282
  511MOL0     H68926   9.565   5.920   7.669 -0.6273 -0.7340  1.7855
  511MOL0     H68927   9.670   5.983   7.797  0.7271 -1.8910  0.0032
  511MOL0     H68928   9.800   6.107   7.608 -0.3406  2.2333  0.1561
  511MOL0     H68929   9.646   6.105   7.516 -2.0305  0.2847  0.3321
  511MOL0     H68930   9.664   6.206   7.798  0.0495  0.6652  0.2013
  511MOL0     H68931   9.674   6.308   7.672  0.1069 -0.3783 -1.8115
  511MOL0     H68932   9.428   6.159   7.787 -0.2448  0.5037 -0.1134
  511MOL0     H68933   9.410   6.152   7.617 -1.1309 -2.6237  1.3750
  511MOL0     H68934   9.471   6.432   7.710  1.1136 -1.6029 -0.4696
  511MOL0     H68935   9.367   6.368   7.582 -1.5591 -0.5021  0.6825
  511MOL0     H68936   9.349   6.319   7.959  0.7526  1.0817  0.4444
  511MOL0     H68937   8.984   6.409   8.061  0.1341 -0.9559  1.6231
  511MOL0     H68938   9.043   6.253   8.077  0.0707 -0.0686  0.2739
  511MOL0     H68939   9.124   6.365   8.279  2.7530 -1.5020  0.5846
  511MOL0     H68940   9.258   6.346   8.181  0.2921 -0.4865  1.3013
  511MOL0     H68941   9.092   6.602   8.150 -0.7758  0.0976  0.9562
  511MOL0     H68942   9.247   6.575   8.084 -0.9877  0.5402 -0.3274
  511MOL0     H68943   9.318   6.536   8.348 -0.1897 -1.2892 -0.8589
  511MOL0     H68944   9.178   6.642   8.374  0.9886  1.5723  0.4909
  511MOL0     H68945   9.498   6.932   8.264 -4.3734 -2.2748 -0.2855
  511MOL0     H68946   9.748   6.914   8.317  0.8200 -0.2564 -2.0709
  511MOL0     H68947  10.071   6.455   8.373  0.2463 -0.0466 -0.2709
  511MOL0     H68948  10.343   6.443   8.401  2.1332  1.1988 -2.0132
  511MOL0     H68949  10.518   6.389   8.096  1.0041 -0.7205 -0.0694
  511MOL0     H68950  10.608   6.535   8.058  0.9980 -3.3292 -2.5647
  511MOL0     H68951  10.664   6.326   8.275  1.4468 -0.7527 -0.7983
  511MOL0     H68952  10.741   6.334   8.132 -1.8019  0.7852 -0.4825
  511MOL0     H68953  10.903   6.422   8.282  0.3613  0.0199 -1.2753
  511MOL0     H68954  10.843   6.559   8.196  0.3764 -0.8544  1.0442
  511MOL0     H68955  10.727   6.464   8.461  0.1089 -0.2896 -2.1302
  511MOL0     H68956  10.689   6.622   8.393  1.1724  0.9457  1.9178
  511MOL0     H68957  10.911   6.698   8.424  0.0732 -1.0503 -0.7814
  511MOL0     H68958  10.981   6.540   8.470 -0.4934 -1.9254  0.1127
  511MOL0     H68959  10.761   6.702   8.599  0.8896  1.6638 -0.8907
  511MOL0     H68960  10.814   6.548   8.660 -4.5745  1.1778 -0.3012
  511MOL0     H68961  10.917   6.788   8.760  0.4665  0.7539  0.5285
  511MOL0     H68962  11.036   6.761   8.626 -1.1307  1.1552 -0.3907
  511MOL0     H68963  10.971   6.549   8.841 -1.5731  2.1427  0.2365
  511MOL0     H68964  11.088   6.529   8.728  2.6473  2.1089 -0.2926
  511MOL0     H68965  10.385   6.622   8.022 -0.6496 -1.3513 -0.2484
  511MOL0     H68966  10.132   6.648   8.003  2.3085 -0.0974 -1.9577
  511MOL0     H68967   9.722   6.497   8.219 -0.9305  0.9709 -0.0845
  511MOL0     H68968   9.470   6.515   8.222  2.3856 -1.4068 -0.7759
  511MOL0     H68969   9.494   5.582   7.823 -1.1969  0.0045 -1.6822
  511MOL0     H68970   9.311   5.421   7.902  0.1172 -0.2290  1.4517
  511MOL0     H68971   9.333   4.895   7.884 -0.4701  1.5116 -3.3677
  511MOL0     H68972   9.207   4.694   7.856 -0.8447 -0.6403 -1.6959
  511MOL0     H68973   9.077   4.502   7.797  0.9278 -1.0123 -2.2023
  511MOL0     H68974   9.097   4.628   7.682 -1.0112  0.4931 -0.4765
  511MOL0     H68975   8.844   4.459   7.726  1.0952 -4.0494 -0.9062
  511MOL0     H68976   8.972   4.430   7.609  0.8925 -0.5698  0.5184
  511MOL0     H68977   8.784   4.674   7.604 -0.8649  2.3524 -3.7336
  511MOL0     H68978   8.771   4.539   7.490  0.1485 -1.4244  1.5257
  511MOL0     H68979   8.887   4.709   7.377  0.4720 -1.0328 -2.2434
  511MOL0     H68980   8.987   4.742   7.522 -2.6318 -0.4938  0.3828
  511MOL0     H68981   9.213   4.468   7.300  1.0945 -0.7831  3.2505
  511MOL0     H68982   8.841   4.882   7.908 -0.2253 -0.9755  2.3522
  511MOL0     H68983   8.937   5.205   7.973  0.4847 -0.5679 -0.4260
  511MOL0     H68984   8.836   5.076   8.042 -0.7913  2.0433 -2.6028
  511MOL0     H68985   8.976   5.140   8.128  2.3956 -1.6376 -0.0833
  512MOL0     O68986   8.795   5.931   9.568 -0.4991  0.5006  0.4586
  512MOL0     C68987   8.683   5.982   9.556 -0.2511 -1.0500  0.1030
  512MOL0     O68988   8.564   5.921   9.587  1.0117  0.0388  0.8219
  512MOL0     C68989   8.559   5.794   9.634  0.4898  0.6785 -0.3563
  512MOL0     C68990   8.663   5.721   9.692  0.3807 -0.1735 -0.3324
  512MOL0     C68991   8.643   5.596   9.736  0.4328 -0.3238 -0.0341
  512MOL0     C68992   8.523   5.527   9.732 -0.3476  0.6916  0.1719
  512MOL0     O68993   8.511   5.395   9.779 -0.7801 -0.0194 -0.8729
  512MOL0     C68994   8.476   5.300   9.684 -0.5427  1.4128  0.6911
  512MOL0     C68995   8.328   5.248   9.693 -0.1119 -0.4075 -0.2623
  512MOL0     C68996   8.324   5.166   9.813 -0.4911  0.4599  0.7385
  512MOL0     C68997   8.203   5.072   9.825  1.0936  0.0246 -0.0184
  512MOL0     C68998   8.078   5.147   9.873  0.4282  0.4525 -0.0594
  512MOL0     C68999   7.965   5.055   9.918  1.1237  0.8572 -0.6605
  512MOL0     C69000   7.848   5.031   9.811  0.2543  0.7150 -0.8743
  512MOL0     C69001   7.890   4.996   9.677  0.3994  0.0035  1.3240
  512MOL0     N69002   7.902   4.849   9.656 -0.1991 -0.2411 -0.5703
  512MOL0     C69003   7.821   4.753   9.708  0.3210  0.3010 -0.7727
  512MOL0     C69004   7.905   4.644   9.698  1.6284 -0.2669 -1.2556
  512MOL0     C69005   7.865   4.510   9.758  0.0647  0.7274 -0.1660
  512MOL0     C69006   7.720   4.460   9.722 -1.2534 -0.4573  0.2097
  512MOL0     C69007   7.689   4.334   9.794  0.0924 -0.5124  0.2279
  512MOL0     C69008   7.577   4.253   9.738 -0.4835  0.8422  0.5641
  512MOL0     O69009   7.460   4.321   9.762  0.4134 -0.0885  0.5647
  512MOL0     C69010   7.356   4.273   9.690  0.3598  0.1199  0.0115
  512MOL0     C69011   7.258   4.358   9.652  0.1169  0.3045  0.6018
  512MOL0     C69012   7.141   4.317   9.602 -0.1005  0.2798 -0.7169
  512MOL0     C69013   7.121   4.172   9.571 -0.2024  0.5205 -0.0955
  512MOL0     C69014   6.991   4.119   9.510 -0.8545 -0.9111 -0.0396
  512MOL0     O69015   6.899   4.210   9.452 -0.2803  0.0135  0.4746
  512MOL0     C69016   6.776   4.174   9.407 -0.3236 -0.4384 -0.8993
  512MOL0     C69017   6.679   4.272   9.404 -0.3918  0.4216 -0.6175
  512MOL0     C69018   6.545   4.257   9.353  0.2695 -0.3471  0.4338
  512MOL0     C69019   6.520   4.125   9.315  0.4359 -0.3426 -0.3492
  512MOL0     O69020   6.391   4.077   9.310 -0.0859 -0.3484 -0.1225
  512MOL0     C69021   6.289   4.163   9.352 -0.4082 -0.5275 -0.0842
  512MOL0     C69022   6.165   4.078   9.357 -0.5815  0.0106 -0.1622
  512MOL0     C69023   6.177   3.989   9.482  0.6518 -0.8536  0.3923
  512MOL0     C69024   6.044   3.905   9.490  0.8208 -0.4044  0.4562
  512MOL0     C69025   6.058   3.779   9.584 -0.0282  0.3707  0.6345
  512MOL0     C69026   6.126   3.649   9.526 -0.2127  0.0778  1.4312
  512MOL0     C69027   6.217   3.571   9.619 -0.7649 -0.0982  0.1533
  512MOL0     C69028   6.292   3.461   9.530 -0.2836  0.0438  0.0307
  512MOL0    Cl69029   6.185   3.384   9.418  0.0608  0.1887  0.5742
  512MOL0     C69030   6.616   4.024   9.317 -0.3672 -0.2421  0.7786
  512MOL0     C69031   6.750   4.051   9.347  0.5784 -0.0285 -0.5234
  512MOL0     O69032   6.967   4.000   9.540  0.1237 -0.0221  0.5470
  512MOL0     C69033   7.222   4.085   9.612 -0.5929 -0.1237 -0.0294
  512MOL0     C69034   7.338   4.136   9.667 -0.8142  0.0963  0.0100
  512MOL0     N69035   8.023   4.679   9.647 -1.2278  0.8553  0.3255
  512MOL0     N69036   8.026   4.801   9.637  0.2219 -0.8351  0.4781
  512MOL0     C69037   8.413   5.598   9.677 -0.9153 -0.8776  0.3660
  512MOL0     C69038   8.432   5.735   9.637  0.0636  0.4755 -1.0303
  512MOL0     C69039   8.682   6.125   9.513 -0.3444  0.4294 -0.8384
  512MOL0     C69040   8.778   6.209   9.567 -0.5159  0.8458 -1.6117
  512MOL0     C69041   8.775   6.342   9.538  0.2038 -0.2606  0.0563
  512MOL0     C69042   8.684   6.391   9.446  0.1671 -0.1416  1.0599
  512MOL0     O69043   8.707   6.524   9.412  0.6844 -0.5256 -0.2125
  512MOL0     C69044   8.626   6.592   9.313 -0.5724 -0.0524  0.1467
  512MOL0     C69045   8.694   6.708   9.243  0.4791  0.2839 -0.3187
  512MOL0     C69046   8.851   6.688   9.210 -0.2789 -0.2116  1.1366
  512MOL0     C69047   8.894   6.624   9.076 -0.2753 -0.2572  0.2766
  512MOL0     C69048   9.030   6.647   9.043 -0.1114 -0.4843  0.9246
  512MOL0     C69049   9.149   6.670   9.012 -0.5108 -0.5197 -0.5345
  512MOL0     C69050   8.575   6.314   9.392 -0.0344 -0.2077  0.0505
  512MOL0     C69051   8.574   6.182   9.428  0.7699  0.2736 -0.0087
  512MOL0     C69052   8.441   6.105   9.402 -0.2976 -0.7258  0.6553
  512MOL0     H69053   8.764   5.749   9.721  0.1791  0.3412 -0.1098
  512MOL0     H69054   8.719   5.535   9.783 -1.1496 -0.2797  2.7675
  512MOL0     H69055   8.508   5.332   9.584 -0.0498  2.1444  1.0791
  512MOL0     H69056   8.533   5.209   9.705 -3.5081 -1.3205 -1.9213
  512MOL0     H69057   8.305   5.188   9.604  0.0377 -2.6426  1.1165
  512MOL0     H69058   8.258   5.332   9.698  1.7940  1.3192 -1.2119
  512MOL0     H69059   8.315   5.247   9.886 -1.8601  0.5742  0.4723
  512MOL0     H69060   8.414   5.106   9.826  0.0514  0.8309 -1.0779
  512MOL0     H69061   8.185   5.014   9.735 -1.5635 -0.0185  0.4698
  512MOL0     H69062   8.220   4.993   9.899 -2.3645  1.0311  2.1021
  512MOL0     H69063   8.116   5.202   9.959 -2.7581 -0.1187  1.8763
  512MOL0     H69064   8.034   5.211   9.796 -3.0210  0.7407  1.9023
  512MOL0     H69065   8.007   4.955   9.936  2.6547  1.0459 -2.7980
  512MOL0     H69066   7.933   5.081  10.019 -0.3491 -1.6810 -0.4036
  512MOL0     H69067   7.790   5.122   9.800  1.7497  2.2809  2.4947
  512MOL0     H69068   7.773   4.962   9.851 -0.5238  0.4217 -2.7737
  512MOL0     H69069   7.808   5.035   9.617 -1.3659 -1.7359  2.4849
  512MOL0     H69070   7.978   5.054   9.648 -0.9748  2.0359  1.0116
  512MOL0     H69071   7.718   4.761   9.743  1.1949 -0.1434  2.0727
  512MOL0     H69072   7.931   4.425   9.737 -0.1024 -0.4434  3.4022
  512MOL0     H69073   7.867   4.525   9.866  1.5844  1.9017 -0.3195
  512MOL0     H69074   7.645   4.532   9.756 -2.7063 -1.1841 -1.3008
  512MOL0     H69075   7.721   4.445   9.614  1.7935 -0.1020  0.1103
  512MOL0     H69076   7.644   4.362   9.889  1.4313  2.7424  0.0295
  512MOL0     H69077   7.770   4.260   9.800  0.7369  0.2745  1.6384
  512MOL0     H69078   7.565   4.162   9.798 -3.6489  0.7535 -0.0663
  512MOL0     H69079   7.601   4.233   9.633  0.5850  0.9673  0.7682
  512MOL0     H69080   7.266   4.463   9.680  0.4912  0.4735 -0.1028
  512MOL0     H69081   7.060   4.389   9.589 -1.2965 -0.2894  2.4967
  512MOL0     H69082   6.698   4.373   9.438  1.1964 -0.1650  0.3296
  512MOL0     H69083   6.477   4.341   9.350  3.6134  2.5462 -0.4393
  512MOL0     H69084   6.301   4.219   9.445  2.5027  0.3101 -0.8864
  512MOL0     H69085   6.277   4.226   9.264  1.6364  1.0046  0.6717
  512MOL0     H69086   6.067   4.126   9.349 -0.9901 -0.6570  0.7034
  512MOL0     H69087   6.156   4.016   9.267 -4.1073  0.8053 -0.5140
  512MOL0     H69088   6.263   3.925   9.464  2.7600  2.1969 -1.4273
  512MOL0     H69089   6.201   4.058   9.564  2.7471 -0.9666 -0.0796
  512MOL0     H69090   6.011   3.878   9.389  0.1403 -1.3809  0.9239
  512MOL0     H69091   5.979   3.977   9.542  3.6282  3.7469 -1.2083
  512MOL0     H69092   5.958   3.749   9.616 -1.7387  0.6080 -3.8339
  512MOL0     H69093   6.095   3.824   9.677  0.2746  3.0045 -0.6755
  512MOL0     H69094   6.051   3.578   9.488 -0.0078 -0.0765  1.3138
  512MOL0     H69095   6.184   3.681   9.439 -1.4797 -2.5330 -0.5136
  512MOL0     H69096   6.165   3.513   9.696  0.0025 -1.5007 -0.3356
  512MOL0     H69097   6.296   3.629   9.667 -0.8106  3.0029 -3.1046
  512MOL0     H69098   6.380   3.503   9.479  1.0521  1.6670  3.3699
  512MOL0     H69099   6.318   3.381   9.599  4.1717 -0.8087 -2.2843
  512MOL0     H69100   6.584   3.923   9.292 -1.4491  0.2929 -0.0669
  512MOL0     H69101   6.832   3.980   9.341  1.9979  1.4331  0.5121
  512MOL0     H69102   7.219   3.979   9.587  0.2363 -0.7202  2.1753
  512MOL0     H69103   7.417   4.067   9.696 -1.1107 -0.0737  0.4294
  512MOL0     H69104   8.315   5.552   9.665 -0.6491 -1.3129 -0.2426
  512MOL0     H69105   8.355   5.800   9.597 -2.3270 -0.5611  1.5696
  512MOL0     H69106   8.849   6.165   9.636 -3.9438 -3.6159 -0.4476
  512MOL0     H69107   8.837   6.414   9.591 -0.1384 -2.2449  3.4273
  512MOL0     H69108   8.522   6.614   9.339  0.0835  2.7743  0.6392
  512MOL0     H69109   8.621   6.514   9.236  1.1044 -1.9846  1.8808
  512MOL0     H69110   8.687   6.795   9.309  2.0042 -1.5070  2.4098
  512MOL0     H69111   8.631   6.727   9.155 -1.5620 -0.6355  0.8656
  512MOL0     H69112   8.897   6.628   9.289  0.7277 -1.2954 -0.2329
  512MOL0     H69113   8.914   6.776   9.222 -0.2687  0.3139 -1.9243
  512MOL0     H69114   8.881   6.516   9.094  0.7554 -0.2586  1.1346
  512MOL0     H69115   8.833   6.645   8.988  0.0815  2.0323  0.5309
  512MOL0     H69116   9.249   6.684   8.978 -0.8981 -3.6150 -3.5082
  512MOL0     H69117   8.499   6.351   9.323  0.2266  0.6419  0.2113
  512MOL0     H69118   8.465   6.012   9.350 -1.0177 -1.7395  2.0687
  512MOL0     H69119   8.389   6.070   9.491 -0.5514 -0.8377  0.4655
  512MOL0     H69120   8.374   6.163   9.338  0.2883 -0.0903  0.6131
  513MOL0     O69121   1.653   4.903   6.383 -0.4014 -0.3384  0.8380
  513MOL0     C69122   1.770   4.909   6.338  0.4646 -0.5511 -0.8083
  513MOL0     O69123   1.813   4.881   6.220  1.1984  0.2594  0.0139
  513MOL0     C69124   1.736   4.821   6.120  0.0798 -0.3653  0.4192
  513MOL0     C69125   1.788   4.802   5.991  0.3890  0.4575 -0.1032
  513MOL0     C69126   1.717   4.749   5.880  0.3071 -0.8527  0.0868
  513MOL0     C69127   1.579   4.718   5.887 -0.0993 -0.3429  0.3749
  513MOL0     O69128   1.502   4.671   5.783  0.1142 -0.4048 -0.1559
  513MOL0     C69129   1.525   4.744   5.664 -0.2755 -0.2645 -0.2447
  513MOL0     C69130   1.422   4.694   5.558 -0.5248 -0.9193 -0.4398
  513MOL0     C69131   1.283   4.767   5.569 -0.6478  1.0288  0.0355
  513MOL0     C69132   1.206   4.715   5.685 -0.2687 -0.1621 -0.5167
  513MOL0     C69133   1.200   4.823   5.800 -0.9907  0.5042 -0.4246
  513MOL0     C69134   1.145   4.750   5.933  1.2056  0.9119  0.1508
  513MOL0     C69135   1.145   4.845   6.055 -0.0536 -0.2314 -0.2489
  513MOL0     C69136   1.089   4.780   6.186  0.1427  0.0456 -0.6840
  513MOL0     N69137   1.197   4.692   6.236  0.2128  0.5181 -0.7021
  513MOL0     C69138   1.273   4.727   6.344  0.2662 -0.2345  0.4584
  513MOL0     C69139   1.344   4.613   6.367 -0.7026 -0.1065  0.3797
  513MOL0     C69140   1.456   4.610   6.462 -0.0348 -0.0140  0.0488
  513MOL0     C69141   1.454   4.686   6.594 -0.1619 -1.1314 -0.6026
  513MOL0     C69142   1.586   4.692   6.665  0.4226  0.6204  0.0615
  513MOL0     C69143   1.641   4.563   6.723 -0.1845  0.6525  0.0266
  513MOL0     O69144   1.742   4.576   6.823  0.2762  0.6036  0.3882
  513MOL0     C69145   1.750   4.459   6.900 -0.2910 -0.6017  1.1575
  513MOL0     C69146   1.654   4.448   7.002  0.4040  0.0058 -0.2226
  513MOL0     C69147   1.651   4.337   7.083  0.5818  0.9710  0.4310
  513MOL0     C69148   1.761   4.245   7.078 -0.1017 -0.0249  0.4900
  513MOL0     C69149   1.776   4.118   7.163 -1.5288 -0.6098  0.5012
  513MOL0     O69150   1.877   4.029   7.128  0.5091  0.3487 -0.3594
  513MOL0     C69151   1.906   3.930   7.223 -0.3211 -0.1988 -0.1827
  513MOL0     C69152   2.023   3.939   7.301 -0.2052  0.3631 -0.3096
  513MOL0     C69153   2.061   3.831   7.375 -0.0103 -0.0352  0.5762
  513MOL0     C69154   1.982   3.724   7.392  0.1751 -0.3681  0.5722
  513MOL0     O69155   2.029   3.638   7.481 -0.3196 -0.5974 -0.5200
  513MOL0     C69156   1.945   3.573   7.567  0.2999  0.0779  0.0157
  513MOL0     C69157   1.918   3.432   7.535 -0.0629 -0.0574  0.6151
  513MOL0     C69158   1.799   3.379   7.617 -1.0244  0.2576 -0.7782
  513MOL0     C69159   1.654   3.398   7.566  0.5071  0.1184  0.3870
  513MOL0     C69160   1.630   3.328   7.425  0.4717 -0.4908 -0.5002
  513MOL0     C69161   1.490   3.333   7.373  0.2096 -0.6052 -0.5731
  513MOL0     C69162   1.437   3.475   7.350 -0.1054  0.1110 -1.1487
  513MOL0     C69163   1.290   3.462   7.310  0.1148 -0.0219  0.2861
  513MOL0    Cl69164   1.262   3.381   7.152 -0.1031  0.0284  0.2328
  513MOL0     C69165   1.863   3.709   7.319  0.6325  0.6095  1.4662
  513MOL0     C69166   1.826   3.820   7.239 -0.3360 -0.2442 -0.6324
  513MOL0     O69167   1.705   4.116   7.260  0.4960  0.1669  0.6336
  513MOL0     C69168   1.853   4.252   6.979 -0.7650  0.2489 -0.5977
  513MOL0     C69169   1.847   4.355   6.882  0.5441 -0.2762  0.9366
  513MOL0     N69170   1.292   4.507   6.288 -0.0610  0.5790 -0.4322
  513MOL0     N69171   1.205   4.560   6.203 -0.4973 -0.4681 -0.2725
  513MOL0     C69172   1.534   4.728   6.012  1.0863  0.7573  0.1319
  513MOL0     C69173   1.604   4.773   6.123  0.3033  0.1088 -0.2359
  513MOL0     C69174   1.876   4.969   6.419 -0.4440  0.0387 -0.4115
  513MOL0     C69175   2.009   4.962   6.383 -0.8881  0.0081 -0.1722
  513MOL0     C69176   2.108   5.016   6.465 -0.8004  0.2220  0.9383
  513MOL0     C69177   2.093   5.052   6.585  0.6555  0.8283  0.4673
  513MOL0     O69178   2.201   5.096   6.663 -0.0435 -0.1094 -0.5910
  513MOL0     C69179   2.172   5.192   6.771  0.0769  0.3840 -0.3296
  513MOL0     C69180   2.308   5.218   6.839 -0.1178 -0.5654  0.3133
  513MOL0     C69181   2.289   5.301   6.969 -0.5777 -0.3468 -0.0101
  513MOL0     C69182   2.364   5.434   6.958  0.3473  0.8475  0.2955
  513MOL0     C69183   2.303   5.524   6.862  1.2562  0.0188 -0.8038
  513MOL0     C69184   2.272   5.595   6.762  0.1662  0.5846 -1.1943
  513MOL0     C69185   1.958   5.064   6.619 -1.5775 -0.2564 -0.5453
  513MOL0     C69186   1.851   5.035   6.548 -0.2206  0.4747  0.1433
  513MOL0     C69187   1.715   5.059   6.611 -0.0756  0.5552  0.8172
  513MOL0     H69188   1.888   4.842   5.986  0.1825  1.2413  1.5003
  513MOL0     H69189   1.775   4.735   5.789  1.7366 -5.6734  1.4290
  513MOL0     H69190   1.515   4.853   5.668  2.1513  0.2721 -3.8121
  513MOL0     H69191   1.627   4.723   5.631  0.0556  0.0486  0.5530
  513MOL0     H69192   1.430   4.588   5.586  0.7609 -0.6854  0.1763
  513MOL0     H69193   1.461   4.707   5.457 -1.4204 -0.6841 -0.7605
  513MOL0     H69194   1.241   4.714   5.483  2.5378  0.4272 -1.2883
  513MOL0     H69195   1.293   4.876   5.567  0.2979  1.0296  2.3533
  513MOL0     H69196   1.102   4.699   5.656 -0.0988 -0.8999 -0.7450
  513MOL0     H69197   1.250   4.621   5.721 -0.3795  0.3878  1.1577
  513MOL0     H69198   1.295   4.869   5.829 -2.8610  3.1405  2.1155
  513MOL0     H69199   1.133   4.907   5.777 -3.1215 -0.5779  1.4871
  513MOL0     H69200   1.042   4.718   5.917  1.7788 -0.2467 -1.3705
  513MOL0     H69201   1.213   4.665   5.940 -0.7864 -1.1680 -3.3818
  513MOL0     H69202   1.080   4.930   6.033 -1.0296 -1.1266 -0.8720
  513MOL0     H69203   1.243   4.893   6.070 -0.0646 -0.8549  2.2221
  513MOL0     H69204   1.069   4.864   6.253  1.6443 -0.8203  0.9201
  513MOL0     H69205   0.994   4.727   6.176 -0.6715  1.5323 -1.1830
  513MOL0     H69206   1.298   4.826   6.381  2.3963 -0.0254 -1.3437
  513MOL0     H69207   1.495   4.510   6.480  1.0429  0.0434 -1.7239
  513MOL0     H69208   1.544   4.652   6.410 -0.0274 -0.2752 -0.1511
  513MOL0     H69209   1.416   4.787   6.578 -1.8870 -1.9297 -1.8637
  513MOL0     H69210   1.369   4.650   6.652 -0.2638  0.7386  0.5021
  513MOL0     H69211   1.572   4.761   6.749 -1.1916  2.1106 -1.3471
  513MOL0     H69212   1.658   4.731   6.592  1.3789  5.2370  3.0703
  513MOL0     H69213   1.684   4.515   6.635 -1.0842  1.3546 -0.8276
  513MOL0     H69214   1.560   4.490   6.736 -0.4983  0.2730 -3.2246
  513MOL0     H69215   1.572   4.519   7.008 -0.6587 -1.2272  0.4135
  513MOL0     H69216   1.577   4.320   7.161 -0.9256 -3.9366 -1.6643
  513MOL0     H69217   2.082   4.030   7.294 -0.2382  0.5271  1.2070
  513MOL0     H69218   2.159   3.828   7.423  0.6954 -2.2576 -0.8665
  513MOL0     H69219   1.982   3.568   7.670 -3.1906 -0.2694  1.3946
  513MOL0     H69220   1.856   3.635   7.582  0.9542  0.4909  2.8288
  513MOL0     H69221   1.891   3.423   7.429 -0.8279 -0.0775  0.8031
  513MOL0     H69222   2.011   3.377   7.551  0.2751  0.4408  0.3909
  513MOL0     H69223   1.819   3.271   7.624 -0.3390  0.0224 -4.2158
  513MOL0     H69224   1.801   3.418   7.718 -2.6978 -4.4636  1.3756
  513MOL0     H69225   1.641   3.506   7.562 -2.8716 -0.2174 -2.5492
  513MOL0     H69226   1.583   3.359   7.639 -0.7279  0.6837 -0.4788
  513MOL0     H69227   1.666   3.224   7.426  0.2679 -0.5593 -0.2498
  513MOL0     H69228   1.691   3.383   7.353  1.7308 -0.8307  0.2775
  513MOL0     H69229   1.500   3.278   7.279  0.0206 -1.9629  0.1674
  513MOL0     H69230   1.425   3.280   7.444 -4.5460  0.7781 -3.4583
  513MOL0     H69231   1.503   3.529   7.282  4.9733 -2.2721  1.3192
  513MOL0     H69232   1.433   3.537   7.440 -0.9720  1.0175 -1.7896
  513MOL0     H69233   1.229   3.406   7.381 -0.4670 -2.2649 -1.8293
  513MOL0     H69234   1.240   3.559   7.323 -1.5724 -0.9651  1.3015
  513MOL0     H69235   1.806   3.617   7.325  0.5721  0.3196 -1.9009
  513MOL0     H69236   1.730   3.831   7.189 -0.4424  2.8413  0.0757
  513MOL0     H69237   1.946   4.195   6.975 -0.7254  0.3746 -2.5080
  513MOL0     H69238   1.938   4.351   6.824 -0.4917 -0.8925 -0.7020
  513MOL0     H69239   1.433   4.694   6.030  0.8333  0.5578 -1.5204
  513MOL0     H69240   1.539   4.769   6.209  1.8587 -2.0591  0.9246
  513MOL0     H69241   2.045   4.915   6.293  0.2803  3.4986 -1.7059
  513MOL0     H69242   2.210   5.009   6.428 -2.0380  0.0605 -2.8818
  513MOL0     H69243   2.088   5.154   6.831 -1.7141  1.7079 -1.8467
  513MOL0     H69244   2.135   5.284   6.724 -0.8058  1.0711  1.5929
  513MOL0     H69245   2.368   5.283   6.775 -2.0584 -0.2644 -1.2730
  513MOL0     H69246   2.358   5.121   6.851  2.9890  0.8992  0.2308
  513MOL0     H69247   2.336   5.237   7.045  1.0981  1.6162  0.6815
  513MOL0     H69248   2.183   5.305   6.998 -0.7085 -1.3263 -0.2959
  513MOL0     H69249   2.355   5.476   7.058 -1.3095 -2.0598  1.5219
  513MOL0     H69250   2.468   5.403   6.950 -0.7790 -3.5699 -0.2626
  513MOL0     H69251   2.253   5.662   6.681  3.4688  1.9955 -0.9647
  513MOL0     H69252   1.929   5.102   6.716 -1.2229 -3.8499  1.1166
  513MOL0     H69253   1.681   4.975   6.672  0.1727  0.7750  1.2655
  513MOL0     H69254   1.721   5.153   6.668  4.7831  1.0004 -0.0209
  513MOL0     H69255   1.642   5.076   6.532  1.0732 -0.2966 -0.4699
  514MOL0     O69256   7.122   4.066  10.971 -0.0276  0.5368 -0.6072
  514MOL0     C69257   7.076   4.137  10.886  1.2003  0.3727  0.7306
  514MOL0     O69258   7.088   4.276  10.876  0.0721 -0.2537 -0.0832
  514MOL0     C69259   7.114   4.356  10.980 -0.6845 -0.6822 -0.2157
  514MOL0     C69260   7.197   4.333  11.085  0.5004 -0.0319 -0.6376
  514MOL0     C69261   7.217   4.430  11.184 -0.2096  0.2595 -1.4210
  514MOL0     C69262   7.148   4.553  11.190  0.7614  0.0822 -0.5562
  514MOL0     O69263   7.154   4.647  11.292 -0.2554  0.8342 -0.4538
  514MOL0     C69264   7.291   4.659  11.348  0.0874  0.6564 -0.5359
  514MOL0     C69265   7.306   4.807  11.407  0.1622  0.5216  0.4371
  514MOL0     C69266   7.180   4.829  11.482  0.6060  0.0598  0.0579
  514MOL0     C69267   7.172   4.970  11.561 -0.8490  0.1622  0.0851
  514MOL0     C69268   7.038   5.024  11.512  0.0204  0.3341 -0.2028
  514MOL0     C69269   7.014   5.162  11.589  0.1605  0.6522  0.0592
  514MOL0     C69270   6.938   5.284  11.519 -0.1540  0.7422 -0.2549
  514MOL0     C69271   6.953   5.409  11.598 -0.6957  0.0824 -0.6010
  514MOL0     N69272   7.081   5.479  11.574  0.0012  0.3506  0.5246
  514MOL0     C69273   7.144   5.489  11.450  0.5998 -0.7440 -0.2094
  514MOL0     C69274   7.251   5.571  11.482  0.3157 -0.1619 -0.3865
  514MOL0     C69275   7.365   5.607  11.376 -0.4706  1.2986 -1.0576
  514MOL0     C69276   7.445   5.734  11.397 -0.7428  1.0438  0.4294
  514MOL0     C69277   7.367   5.862  11.427 -0.5389  0.3342  0.3421
  514MOL0     C69278   7.257   5.895  11.318 -0.6898  0.7598 -0.0196
  514MOL0     O69279   7.319   5.920  11.188 -0.0842 -0.1359 -0.3487
  514MOL0     C69280   7.250   5.981  11.089  0.9750 -0.2332 -0.0130
  514MOL0     C69281   7.127   6.047  11.095 -0.2242  0.4746  0.6874
  514MOL0     C69282   7.053   6.102  10.987 -0.0943  0.3089 -0.0852
  514MOL0     C69283   7.121   6.099  10.864  0.5395  0.9341  0.0128
  514MOL0     C69284   7.040   6.160  10.753 -0.3939  0.0937  0.1335
  514MOL0     O69285   6.911   6.181  10.768  0.5922  0.7626  0.3879
  514MOL0     C69286   6.828   6.244  10.676 -0.7670 -0.0935 -0.0892
  514MOL0     C69287   6.866   6.309  10.563 -0.6129 -0.7291  0.6008
  514MOL0     C69288   6.777   6.377  10.480 -0.6227  0.1954  0.7172
  514MOL0     C69289   6.646   6.377  10.504 -0.0269  0.2094  0.1626
  514MOL0     O69290   6.550   6.439  10.426 -0.3411 -0.7505  0.2151
  514MOL0     C69291   6.599   6.538  10.327  0.2550  0.8236  0.4063
  514MOL0     C69292   6.478   6.607  10.259 -0.7389  0.3038 -0.9960
  514MOL0     C69293   6.429   6.711  10.359  0.6750  0.0535  0.8531
  514MOL0     C69294   6.286   6.759  10.339  0.1509 -0.1833 -0.0265
  514MOL0     C69295   6.261   6.893  10.406 -0.9686 -0.4617  0.0756
  514MOL0     C69296   6.122   6.961  10.395  0.4821 -0.2633  0.5635
  514MOL0     C69297   6.097   7.028  10.255  1.8266 -0.0569  0.4530
  514MOL0     C69298   6.012   6.950  10.155  0.0969  0.3640 -0.0525
  514MOL0    Cl69299   5.836   6.949  10.200  0.3293 -0.1904  0.0999
  514MOL0     C69300   6.610   6.315  10.619  0.8515  0.8980  0.4292
  514MOL0     C69301   6.696   6.252  10.706 -0.4653 -0.0360  0.3883
  514MOL0     O69302   7.110   6.176  10.652 -0.4160 -0.1366 -0.4074
  514MOL0     C69303   7.254   6.040  10.847 -1.0326  0.3612  0.5399
  514MOL0     C69304   7.310   5.982  10.960 -0.7097 -0.5178  0.4662
  514MOL0     N69305   7.250   5.604  11.619 -0.3377 -0.1001 -0.0203
  514MOL0     N69306   7.136   5.562  11.665 -0.1933  0.3950  0.5281
  514MOL0     C69307   7.061   4.573  11.084  0.0379 -0.4017  0.0356
  514MOL0     C69308   7.048   4.476  10.980  1.0489  0.0595  0.2010
  514MOL0     C69309   7.011   4.072  10.764 -0.7572 -0.7980 -1.4263
  514MOL0     C69310   7.021   4.125  10.635 -0.6406 -0.6020  0.1543
  514MOL0     C69311   6.947   4.075  10.531 -0.4243  1.0822  0.1858
  514MOL0     C69312   6.877   3.953  10.543 -0.5774  0.1067 -0.3541
  514MOL0     O69313   6.831   3.881  10.441  0.1146 -0.7837  0.1193
  514MOL0     C69314   6.762   3.954  10.340  0.5793 -0.0195 -0.6546
  514MOL0     C69315   6.653   3.875  10.284  0.7514 -0.4754 -0.0116
  514MOL0     C69316   6.704   3.736  10.251 -0.2258 -0.5208  0.2639
  514MOL0     C69317   6.613   3.659  10.147 -0.1738 -0.1637 -0.7627
  514MOL0     C69318   6.487   3.621  10.216 -0.3270 -0.2076  0.2699
  514MOL0     C69319   6.378   3.570  10.243 -0.8063  0.4931 -1.5109
  514MOL0     C69320   6.866   3.894  10.666  0.2503  0.4517  0.0599
  514MOL0     C69321   6.928   3.951  10.781  1.0085  0.0010 -0.0230
  514MOL0     C69322   6.892   3.896  10.928 -0.4424 -0.1861  0.3302
  514MOL0     H69323   7.244   4.236  11.083 -1.7657 -1.1916 -0.9393
  514MOL0     H69324   7.294   4.407  11.257 -0.5800 -1.7163 -1.5880
  514MOL0     H69325   7.306   4.584  11.427  2.9900 -2.7881 -3.9437
  514MOL0     H69326   7.377   4.642  11.283  2.5913 -1.3944  2.9532
  514MOL0     H69327   7.319   4.887  11.334  4.4880  0.1282  0.4740
  514MOL0     H69328   7.396   4.814  11.470  1.4590 -0.8392 -1.1768
  514MOL0     H69329   7.178   4.753  11.561  2.9783  1.8974  2.0533
  514MOL0     H69330   7.095   4.828  11.413 -0.3265  0.5584  1.1681
  514MOL0     H69331   7.167   4.945  11.668 -0.2144 -3.0756 -0.5194
  514MOL0     H69332   7.254   5.040  11.543 -1.3286  0.7679  0.2427
  514MOL0     H69333   7.057   5.046  11.406  0.8965 -3.1536 -0.9032
  514MOL0     H69334   6.952   4.959  11.530  0.6193 -0.7851 -1.1991
  514MOL0     H69335   6.962   5.129  11.679 -0.6171 -1.2788 -1.0486
  514MOL0     H69336   7.107   5.212  11.618 -0.6098  3.0137 -1.2271
  514MOL0     H69337   6.835   5.246  11.519  0.5793 -1.3692  0.1694
  514MOL0     H69338   6.975   5.287  11.416  0.6330 -0.8219 -0.0510
  514MOL0     H69339   6.876   5.481  11.569 -0.6282  0.9277  1.2205
  514MOL0     H69340   6.955   5.389  11.705  1.9031 -0.2119 -0.6474
  514MOL0     H69341   7.112   5.445  11.357 -1.8035 -0.6853  0.5340
  514MOL0     H69342   7.426   5.516  11.378 -3.2248 -0.6892 -0.7527
  514MOL0     H69343   7.316   5.609  11.278  3.2080  0.7516 -3.1132
  514MOL0     H69344   7.520   5.725  11.476  0.7476  0.9727 -0.9527
  514MOL0     H69345   7.503   5.744  11.305 -0.1802 -0.9220  0.5246
  514MOL0     H69346   7.441   5.943  11.433 -1.6762  1.9256 -3.6474
  514MOL0     H69347   7.323   5.852  11.526  0.2584  0.1938  0.6866
  514MOL0     H69348   7.188   5.972  11.354 -1.8875 -0.7477  1.0736
  514MOL0     H69349   7.195   5.804  11.317 -1.0122  0.9805 -0.5704
  514MOL0     H69350   7.092   6.053  11.198 -0.2255 -0.8612  0.7841
  514MOL0     H69351   6.957   6.151  10.999 -1.3417 -1.3300 -2.4448
  514MOL0     H69352   6.970   6.339  10.549 -1.3833  1.2203 -1.7202
  514MOL0     H69353   6.805   6.428  10.389 -3.2008 -1.0805 -0.9079
  514MOL0     H69354   6.671   6.607  10.373  0.4809  0.5059  0.5365
  514MOL0     H69355   6.656   6.483  10.251  1.0750  1.2780  0.6708
  514MOL0     H69356   6.503   6.665  10.170 -3.5928  4.7956  0.7726
  514MOL0     H69357   6.399   6.533  10.243  0.1582 -1.6886  2.6383
  514MOL0     H69358   6.422   6.656  10.453  0.0523 -1.7502 -0.2137
  514MOL0     H69359   6.506   6.789  10.363  0.7978 -0.0486  0.4995
  514MOL0     H69360   6.210   6.688  10.372  0.8840 -1.2839 -0.6251
  514MOL0     H69361   6.269   6.773  10.232 -0.9876 -3.2907 -0.3398
  514MOL0     H69362   6.337   6.958  10.362  0.2178 -0.7406  1.6506
  514MOL0     H69363   6.290   6.890  10.511  0.7007 -1.3810 -0.3684
  514MOL0     H69364   6.048   6.886  10.423  1.6420 -0.3671  3.8328
  514MOL0     H69365   6.119   7.044  10.467 -0.1087 -0.5798  0.9161
  514MOL0     H69366   6.199   7.046  10.220  0.6320  3.5866 -1.6524
  514MOL0     H69367   6.046   7.123  10.272  1.8352  0.3217 -1.4430
  514MOL0     H69368   6.026   6.980  10.051 -2.2253  0.8550 -0.2836
  514MOL0     H69369   6.053   6.849  10.162  2.9022  0.9702 -4.1269
  514MOL0     H69370   6.504   6.313  10.642  0.4227 -0.4972 -1.3937
  514MOL0     H69371   6.662   6.214  10.801 -3.6869 -3.1304 -1.7357
  514MOL0     H69372   7.298   6.052  10.748  0.4299 -0.7542  1.0216
  514MOL0     H69373   7.411   5.942  10.956  0.9730  3.4036 -0.9229
  514MOL0     H69374   6.993   4.658  11.084  1.2113  0.5686  0.5100
  514MOL0     H69375   6.978   4.492  10.898 -2.5049 -2.3062  2.5233
  514MOL0     H69376   7.076   4.219  10.632  1.3516 -1.7251 -0.8192
  514MOL0     H69377   6.950   4.122  10.434  0.8037 -1.2605 -1.0082
  514MOL0     H69378   6.841   3.980  10.268  0.2432 -0.6716 -1.2714
  514MOL0     H69379   6.723   4.050  10.376 -1.8463 -1.5893  1.1466
  514MOL0     H69380   6.600   3.919  10.199  1.0086  2.4816  1.2769
  514MOL0     H69381   6.578   3.862  10.362 -0.8228  1.0327 -1.2037
  514MOL0     H69382   6.720   3.671  10.338 -2.2723  0.3866  1.3971
  514MOL0     H69383   6.807   3.746  10.217  0.2751  3.4182  2.3070
  514MOL0     H69384   6.574   3.716  10.062 -0.4063 -1.9422 -1.9160
  514MOL0     H69385   6.665   3.577  10.097  1.7194  0.3272  0.3264
  514MOL0     H69386   6.282   3.529  10.267 -1.5196  1.5832 -2.3563
  514MOL0     H69387   6.804   3.805  10.658  0.6438  0.3007 -1.6688
  514MOL0     H69388   6.855   3.986  10.979  0.6138  0.1576  0.5036
  514MOL0     H69389   6.815   3.819  10.936 -0.6445 -0.2947 -1.9352
  514MOL0     H69390   6.981   3.854  10.974 -1.8678 -2.4172  1.1926
  515MOL0     O69391   0.246   7.407   7.337 -0.1012 -0.1717 -0.2139
  515MOL0     C69392   0.311   7.392   7.232  0.1097 -1.1834  0.7121
  515MOL0     O69393   0.432   7.321   7.218  0.0483  0.1877  0.4867
  515MOL0     C69394   0.473   7.246   7.323 -0.3580 -0.3374  0.6616
  515MOL0     C69395   0.410   7.132   7.353  0.5026  1.7694 -0.8227
  515MOL0     C69396   0.439   7.046   7.457  0.3040 -0.2191 -0.7742
  515MOL0     C69397   0.541   7.088   7.544 -0.2719  0.5395 -0.4630
  515MOL0     O69398   0.570   7.011   7.656 -0.0193 -0.6928  0.0247
  515MOL0     C69399   0.549   7.066   7.788 -0.2900 -0.1746 -0.6898
  515MOL0     C69400   0.563   6.957   7.893  0.5031  0.1190 -0.6116
  515MOL0     C69401   0.694   6.889   7.923  0.6159  0.1812  0.0032
  515MOL0     C69402   0.693   6.770   8.021 -0.2030 -0.0517  0.8271
  515MOL0     C69403   0.629   6.638   7.972 -0.1968 -0.1660  0.3494
  515MOL0     C69404   0.739   6.560   7.900  0.0732  0.2731 -0.0546
  515MOL0     C69405   0.710   6.419   7.858  0.3178 -0.2035  0.9740
  515MOL0     C69406   0.614   6.409   7.741  0.7582 -0.3603  0.2002
  515MOL0     N69407   0.486   6.340   7.763 -0.3010  0.4559 -0.0551
  515MOL0     C69408   0.361   6.374   7.705  0.0405  0.7693 -0.6982
  515MOL0     C69409   0.272   6.304   7.762 -0.0857  0.7611 -1.2007
  515MOL0     C69410   0.121   6.313   7.738  0.2140  0.1638 -0.5773
  515MOL0     C69411   0.041   6.432   7.791  0.4726 -0.0291 -0.8063
  515MOL0     C69412   0.063   6.572   7.726 -0.6299  0.1002 -0.1578
  515MOL0     C69413  -0.059   6.648   7.686 -0.8642 -0.5474 -0.4674
  515MOL0     O69414  -0.136   6.562   7.613  1.1866  0.0084 -0.4452
  515MOL0     C69415  -0.241   6.598   7.533  0.6496  0.7110 -0.3314
  515MOL0     C69416  -0.291   6.729   7.525 -0.2587  0.0056 -0.4944
  515MOL0     C69417  -0.404   6.751   7.451 -0.2582 -0.5361 -0.6597
  515MOL0     C69418  -0.462   6.644   7.379 -0.2023  0.1600 -0.7931
  515MOL0     C69419  -0.597   6.666   7.317 -0.0237 -0.3757 -0.8883
  515MOL0     O69420  -0.652   6.794   7.326 -0.5389  0.4817 -0.1061
  515MOL0     C69421  -0.762   6.829   7.250  0.4679 -0.2085  0.0431
  515MOL0     C69422  -0.804   6.778   7.124  0.6286  0.1763 -0.0607
  515MOL0     C69423  -0.935   6.818   7.075  0.4072  1.1311 -0.6123
  515MOL0     C69424  -0.999   6.927   7.141 -0.2417 -0.3026 -0.4422
  515MOL0     O69425  -1.122   6.981   7.092  0.6140  0.5930  0.1136
  515MOL0     C69426  -1.233   6.892   7.079  0.7972 -0.5555  0.4073
  515MOL0     C69427  -1.356   6.958   7.022  0.8868 -0.4770  0.1542
  515MOL0     C69428  -1.335   7.003   6.874  0.6951  0.2699  0.2362
  515MOL0     C69429  -1.474   7.043   6.810 -0.3620  0.7438 -0.1337
  515MOL0     C69430  -1.474   7.033   6.659 -0.0974  0.5009  0.2792
  515MOL0     C69431  -1.371   7.131   6.601  0.2207  0.5147  0.1772
  515MOL0     C69432  -1.365   7.107   6.447  1.1840 -0.3058  0.0736
  515MOL0     C69433  -1.251   7.195   6.403 -0.1196 -0.1053  1.1639
  515MOL0    Cl69434  -1.205   7.142   6.239  0.1407  0.0429 -0.0420
  515MOL0     C69435  -0.934   7.005   7.236 -0.0683  1.3897 -0.6983
  515MOL0     C69436  -0.825   6.949   7.299  0.1067  0.1088  0.0352
  515MOL0     O69437  -0.647   6.567   7.264  0.0392 -0.0462  0.2447
  515MOL0     C69438  -0.406   6.511   7.389 -0.1978 -0.2980 -0.4462
  515MOL0     C69439  -0.294   6.490   7.472  0.3884  0.4473  0.2602
  515MOL0     N69440   0.336   6.209   7.843 -0.0434  0.0502 -0.2010
  515MOL0     N69441   0.461   6.227   7.838  0.6510  0.3641 -0.6930
  515MOL0     C69442   0.619   7.200   7.521 -0.5445 -0.3112 -0.5893
  515MOL0     C69443   0.588   7.279   7.405 -0.9866 -0.3210  0.0832
  515MOL0     C69444   0.275   7.495   7.120  0.9397  0.8132  0.6326
  515MOL0     C69445   0.166   7.576   7.148  0.4769 -0.2498  0.3934
  515MOL0     C69446   0.126   7.673   7.055  0.0635  0.0788 -0.3769
  515MOL0     C69447   0.191   7.688   6.928 -0.9593 -0.2727 -0.1310
  515MOL0     O69448   0.133   7.783   6.841  0.1862 -0.0769  0.7274
  515MOL0     C69449  -0.001   7.739   6.801  0.4507 -0.0058  0.2505
  515MOL0     C69450  -0.022   7.703   6.653  0.1645 -0.2000  1.4448
  515MOL0     C69451   0.044   7.564   6.631 -0.6464 -0.2441  0.3220
  515MOL0     C69452   0.047   7.529   6.483 -0.6757  0.8999 -0.2835
  515MOL0     C69453   0.076   7.386   6.473 -0.3564  0.6241 -0.8047
  515MOL0     C69454   0.098   7.268   6.473 -0.3894  0.6486 -0.8084
  515MOL0     C69455   0.311   7.623   6.913 -0.9465  0.2648 -1.1219
  515MOL0     C69456   0.350   7.526   7.006 -0.5548 -0.4250 -0.3600
  515MOL0     C69457   0.471   7.443   6.973  1.5032  1.3623 -0.3778
  515MOL0     H69458   0.315   7.115   7.303 -0.3640 -0.5987  1.3659
  515MOL0     H69459   0.392   6.950   7.476  1.0303 -0.0682  2.1691
  515MOL0     H69460   0.628   7.141   7.798 -1.4026  0.9180  0.1017
  515MOL0     H69461   0.448   7.107   7.797  0.1787  0.9101 -0.0976
  515MOL0     H69462   0.490   6.882   7.860  0.1532  0.0681  0.2697
  515MOL0     H69463   0.537   6.995   7.992  1.2175 -2.6928  0.7588
  515MOL0     H69464   0.761   6.959   7.973 -0.1672 -0.2657  1.7654
  515MOL0     H69465   0.727   6.855   7.825 -1.7674  0.3046 -0.8953
  515MOL0     H69466   0.793   6.753   8.061  0.0235 -2.4492 -0.5691
  515MOL0     H69467   0.634   6.817   8.100  0.6760  0.6602  1.0666
  515MOL0     H69468   0.595   6.581   8.059 -0.3563  2.2831  2.0045
  515MOL0     H69469   0.548   6.663   7.903  0.4834  1.7159  0.1684
  515MOL0     H69470   0.767   6.619   7.812 -1.3108 -1.0944 -1.4673
  515MOL0     H69471   0.821   6.553   7.972  0.1093 -1.2022 -0.2137
  515MOL0     H69472   0.657   6.375   7.942 -2.7029  2.9240  0.9354
  515MOL0     H69473   0.793   6.353   7.830 -1.0878 -1.3108 -0.7681
  515MOL0     H69474   0.578   6.500   7.691 -0.9392 -1.7004 -1.1599
  515MOL0     H69475   0.670   6.348   7.669 -1.8245 -1.1466 -1.2685
  515MOL0     H69476   0.345   6.454   7.633 -0.8438  0.1424 -1.2105
  515MOL0     H69477   0.108   6.303   7.630 -1.5993  1.0756 -0.4808
  515MOL0     H69478   0.080   6.222   7.783  0.6061  0.7821  1.1047
  515MOL0     H69479  -0.067   6.414   7.786 -0.5084  4.4086  0.4212
  515MOL0     H69480   0.052   6.447   7.899 -0.4620 -0.7762 -0.5859
  515MOL0     H69481   0.113   6.545   7.633  1.1863  1.0973  0.4917
  515MOL0     H69482   0.141   6.621   7.785 -0.3761 -0.7795  0.2649
  515MOL0     H69483  -0.035   6.734   7.623 -1.4247  0.4481  0.6303
  515MOL0     H69484  -0.109   6.692   7.773  1.7996 -1.3647  1.6183
  515MOL0     H69485  -0.242   6.803   7.587 -0.6414 -1.3283  1.4921
  515MOL0     H69486  -0.429   6.857   7.446 -0.6014 -0.6742 -2.7496
  515MOL0     H69487  -0.765   6.688   7.077 -0.5534  0.1287 -0.9845
  515MOL0     H69488  -0.989   6.778   6.990  0.8431  1.2875 -0.9623
  515MOL0     H69489  -1.214   6.806   7.014  0.8585 -0.0672 -0.2289
  515MOL0     H69490  -1.265   6.846   7.174 -2.9375 -2.6639 -1.6186
  515MOL0     H69491  -1.436   6.884   7.018  1.6986 -1.4698  1.3736
  515MOL0     H69492  -1.389   7.044   7.082 -0.8648 -0.4911 -0.7406
  515MOL0     H69493  -1.267   7.089   6.878  0.8481  0.1754 -0.3043
  515MOL0     H69494  -1.296   6.914   6.824  0.1449  0.2401 -0.1432
  515MOL0     H69495  -1.515   7.135   6.852 -1.7598  0.4906 -0.8653
  515MOL0     H69496  -1.546   6.967   6.841 -0.9367  1.5002  0.4349
  515MOL0     H69497  -1.573   7.059   6.622  0.2130  1.9061  0.3651
  515MOL0     H69498  -1.444   6.932   6.630  0.1371  0.3189  1.1175
  515MOL0     H69499  -1.404   7.235   6.605  1.1756  0.8192  0.4348
  515MOL0     H69500  -1.276   7.110   6.651 -0.0134 -1.4559 -0.1263
  515MOL0     H69501  -1.460   7.136   6.401  1.1351  3.8134  2.2832
  515MOL0     H69502  -1.352   7.004   6.412 -3.8104 -0.5113 -1.9968
  515MOL0     H69503  -1.283   7.299   6.401  1.1089  0.2878  1.4474
  515MOL0     H69504  -1.159   7.195   6.463  0.6742  0.6649 -0.0243
  515MOL0     H69505  -0.990   7.087   7.278 -1.4688  0.3446 -0.4641
  515MOL0     H69506  -0.784   6.992   7.390 -1.2528  2.1698 -0.2580
  515MOL0     H69507  -0.452   6.430   7.334 -2.3559 -1.9167  3.3756
  515MOL0     H69508  -0.260   6.386   7.469 -0.2025  0.0987  3.2094
  515MOL0     H69509   0.705   7.231   7.580 -1.2372 -1.6117  1.1821
  515MOL0     H69510   0.649   7.364   7.375 -1.7254 -0.0081 -0.5690
  515MOL0     H69511   0.117   7.565   7.245 -0.3343 -3.8249 -0.2601
  515MOL0     H69512   0.051   7.747   7.081 -0.8442 -0.8277 -0.3775
  515MOL0     H69513  -0.060   7.828   6.823  2.4810  1.4926 -0.1071
  515MOL0     H69514  -0.047   7.655   6.854 -3.0426  1.0146 -0.8893
  515MOL0     H69515   0.007   7.788   6.591 -1.6944 -0.3144  0.3192
  515MOL0     H69516  -0.132   7.698   6.648  0.0561  0.7707  2.4410
  515MOL0     H69517  -0.016   7.493   6.689  0.9058 -0.1199  2.2076
  515MOL0     H69518   0.147   7.562   6.668 -0.8025  1.1523  0.8800
  515MOL0     H69519  -0.043   7.549   6.423 -0.3554 -1.6702 -1.7447
  515MOL0     H69520   0.125   7.586   6.430  1.4171 -1.7886 -0.2971
  515MOL0     H69521   0.122   7.166   6.491 -0.1362  1.0329  1.1881
  515MOL0     H69522   0.383   7.641   6.834  0.6810 -0.5550  0.1380
  515MOL0     H69523   0.437   7.340   6.961  2.2660  1.3716 -3.4485
  515MOL0     H69524   0.514   7.475   6.878 -0.1638  2.1326 -0.9275
  515MOL0     H69525   0.545   7.452   7.053  0.9677 -2.9646  0.8109
  516MOL0     O69526   0.144   9.323   3.927  0.3745 -0.8110  0.5550
  516MOL0     C69527   0.219   9.249   3.990  0.5086  0.1151 -1.0767
  516MOL0     O69528   0.347   9.277   4.016 -0.5349 -0.1243  0.4832
  516MOL0     C69529   0.407   9.356   3.917  0.5016  0.2726  0.6043
  516MOL0     C69530   0.508   9.442   3.970  0.7226  1.2449 -0.4822
  516MOL0     C69531   0.589   9.512   3.876 -0.1513  0.0931 -0.9184
  516MOL0     C69532   0.575   9.506   3.742  0.0028 -0.5109  0.0111
  516MOL0     O69533   0.646   9.582   3.653 -0.4742 -0.2849 -0.6051
  516MOL0     C69534   0.782   9.629   3.693  0.5524  0.2351 -0.4285
  516MOL0     C69535   0.848   9.695   3.573  0.1334  0.7439 -0.3845
  516MOL0     C69536   0.828   9.607   3.451  0.7491  0.3147  0.5638
  516MOL0     C69537   0.927   9.648   3.335  0.9025  0.3234 -0.1062
  516MOL0     C69538   0.938   9.812   3.316  0.1973  1.1400  0.5109
  516MOL0     C69539   1.015   9.847   3.196 -0.3348 -0.6716 -0.2014
  516MOL0     C69540   1.125   9.943   3.228 -0.1130 -0.7921 -0.1060
  516MOL0     C69541   1.084  10.085   3.261  0.1811  0.7917  0.3231
  516MOL0     N69542   1.193  10.187   3.246  1.1192  0.7354 -0.2345
  516MOL0     C69543   1.161  10.319   3.226 -0.2339  0.4215 -1.0419
  516MOL0     C69544   1.292  10.364   3.224  0.5965 -0.1640  1.0015
  516MOL0     C69545   1.318  10.504   3.193 -0.6223 -1.2112 -0.3562
  516MOL0     C69546   1.461  10.529   3.142  0.0619  0.4452 -0.6629
  516MOL0     C69547   1.493  10.429   3.025 -0.1568  0.3842 -0.1225
  516MOL0     C69548   1.555  10.508   2.907  0.0910 -0.2141  0.7715
  516MOL0     O69549   1.480  10.635   2.870  0.1023  1.0742 -0.0561
  516MOL0     C69550   1.348  10.627   2.820 -0.0137 -0.1753  1.0362
  516MOL0     C69551   1.277  10.511   2.774 -0.4026  0.5481 -0.2363
  516MOL0     C69552   1.158  10.521   2.709 -0.1409  0.0882  1.1421
  516MOL0     C69553   1.086  10.635   2.700  0.0756  0.0012 -0.3434
  516MOL0     C69554   0.947  10.632   2.636  0.6843  0.1128 -0.0941
  516MOL0     O69555   0.895  10.498   2.619 -0.0363  0.6591  0.0795
  516MOL0     C69556   0.768  10.496   2.554  1.0375  0.1173 -0.6534
  516MOL0     C69557   0.649  10.529   2.624  0.1346 -0.3475  0.5626
  516MOL0     C69558   0.524  10.531   2.560 -0.1664 -0.0604  0.5199
  516MOL0     C69559   0.514  10.489   2.426 -0.4185  0.2061 -1.2516
  516MOL0     O69560   0.379  10.477   2.390  0.3514  0.3310  0.8602
  516MOL0     C69561   0.360  10.440   2.251  0.8179  0.1272 -0.3402
  516MOL0     C69562   0.369  10.564   2.172 -0.9962  0.4447 -0.1327
  516MOL0     C69563   0.442  10.539   2.035 -0.3598  0.3297  0.4109
  516MOL0     C69564   0.372  10.447   1.939  0.3165  0.3755  0.1887
  516MOL0     C69565   0.457  10.350   1.848 -0.0237  0.0181  0.2011
  516MOL0     C69566   0.378  10.294   1.721 -0.2731 -0.0413  0.1469
  516MOL0     C69567   0.417  10.153   1.682 -0.7003 -0.8152 -0.9145
  516MOL0     C69568   0.565  10.141   1.635 -0.8734  0.6529  0.6520
  516MOL0    Cl69569   0.582  10.203   1.471  0.0124  0.1937  0.2991
  516MOL0     C69570   0.634  10.457   2.356 -0.4647 -0.5592 -0.1001
  516MOL0     C69571   0.761  10.467   2.418 -0.1877  0.8691  0.0011
  516MOL0     O69572   0.884  10.735   2.620 -0.0954  0.1851 -0.4987
  516MOL0     C69573   1.150  10.748   2.746  0.3010 -0.2688 -0.5700
  516MOL0     C69574   1.275  10.744   2.807  0.7993 -0.8528  0.4135
  516MOL0     N69575   1.382  10.264   3.261 -0.3404  0.4154 -1.1388
  516MOL0     N69576   1.316  10.159   3.264 -0.4306  0.7385  0.0845
  516MOL0     C69577   0.480   9.416   3.693  0.2462  1.0689 -0.3009
  516MOL0     C69578   0.398   9.339   3.779  0.3213  1.1997 -1.0598
  516MOL0     C69579   0.147   9.139   4.064 -0.2742  0.2263 -0.2677
  516MOL0     C69580   0.020   9.167   4.117  0.6816 -0.1747  0.3761
  516MOL0     C69581  -0.052   9.068   4.184  0.7291 -0.0466 -0.3946
  516MOL0     C69582  -0.001   8.932   4.195 -0.0488 -0.5453  1.4877
  516MOL0     O69583  -0.079   8.829   4.233  0.6648  0.4315  1.0951
  516MOL0     C69584  -0.222   8.832   4.236 -0.4756 -0.1190  0.1808
  516MOL0     C69585  -0.284   8.698   4.251  0.1084 -0.4025  0.1003
  516MOL0     C69586  -0.312   8.610   4.130  0.5581  0.4806  0.2286
  516MOL0     C69587  -0.183   8.558   4.050 -0.5182 -0.0279 -0.5360
  516MOL0     C69588  -0.236   8.497   3.933  0.6770 -0.0086  0.3044
  516MOL0     C69589  -0.279   8.455   3.825  0.2707  0.4320 -0.0094
  516MOL0     C69590   0.129   8.907   4.152 -0.2680 -0.0576  0.6823
  516MOL0     C69591   0.201   9.009   4.079  0.0985  0.5963 -0.3390
  516MOL0     C69592   0.344   8.990   4.042 -0.3062  0.6539  0.5473
  516MOL0     H69593   0.534   9.459   4.074  3.8947  0.8317 -1.1156
  516MOL0     H69594   0.655   9.587   3.918 -0.8362  0.0779  0.2125
  516MOL0     H69595   0.788   9.699   3.776  5.4400 -0.8362  0.4408
  516MOL0     H69596   0.849   9.546   3.721 -0.3619 -0.4722 -0.2885
  516MOL0     H69597   0.952   9.705   3.603  0.1178 -0.9692  0.3103
  516MOL0     H69598   0.795   9.790   3.556  1.8014  1.3747 -2.5092
  516MOL0     H69599   0.727   9.622   3.413  1.1449  1.4052 -0.1113
  516MOL0     H69600   0.839   9.503   3.484  0.2191 -0.2582 -0.9677
  516MOL0     H69601   1.021   9.603   3.367  1.0060  0.8006  0.2694
  516MOL0     H69602   0.896   9.605   3.239  1.8248 -0.1471 -0.2053
  516MOL0     H69603   0.833   9.834   3.290  0.6660 -0.0442 -2.9788
  516MOL0     H69604   0.972   9.852   3.411  1.8947 -3.2238  1.9763
  516MOL0     H69605   1.059   9.754   3.159  1.9519 -0.3529  1.4518
  516MOL0     H69606   0.945   9.898   3.130  0.3480  3.4143  1.9114
  516MOL0     H69607   1.179   9.937   3.133 -0.9605 -5.2988 -0.5121
  516MOL0     H69608   1.192   9.915   3.310  1.0153  1.0254 -0.3442
  516MOL0     H69609   1.010  10.117   3.187  0.5176 -3.2185 -1.9745
  516MOL0     H69610   1.035  10.087   3.359  0.5981 -0.2996  0.5579
  516MOL0     H69611   1.069  10.375   3.214 -3.1042 -2.9446  2.4788
  516MOL0     H69612   1.253  10.530   3.109 -2.5793 -0.2954  1.3691
  516MOL0     H69613   1.304  10.573   3.276  3.1314 -0.9507  0.2658
  516MOL0     H69614   1.483  10.627   3.098 -0.5750  1.7422  1.7755
  516MOL0     H69615   1.525  10.510   3.228  0.1062  2.5324 -0.1766
  516MOL0     H69616   1.409  10.366   2.993  0.5185  0.3238 -1.9461
  516MOL0     H69617   1.562  10.354   3.064 -2.1643 -2.1414 -1.0888
  516MOL0     H69618   1.565  10.439   2.823  1.0148 -1.6227  1.9798
  516MOL0     H69619   1.659  10.532   2.932 -0.4169 -0.5285  3.5497
  516MOL0     H69620   1.314  10.409   2.780 -3.0448 -0.5076 -0.7085
  516MOL0     H69621   1.126  10.425   2.669 -2.9171  1.2879  0.3022
  516MOL0     H69622   0.653  10.559   2.728 -1.2169 -1.3029  0.9087
  516MOL0     H69623   0.440  10.571   2.616 -1.0351 -0.8997 -0.1475
  516MOL0     H69624   0.430  10.364   2.217  2.0487  1.0211  0.1365
  516MOL0     H69625   0.259  10.405   2.227  0.0790  1.0359  1.2631
  516MOL0     H69626   0.269  10.604   2.152 -1.0366  1.6056  2.0723
  516MOL0     H69627   0.423  10.650   2.213  0.2168  0.4948 -1.7295
  516MOL0     H69628   0.466  10.631   1.981  0.8197  0.1478  0.5999
  516MOL0     H69629   0.540  10.495   2.056  0.1375  1.0043 -0.4175
  516MOL0     H69630   0.321  10.518   1.874  0.6880  2.7146  2.2988
  516MOL0     H69631   0.305  10.380   1.994 -0.1025 -0.0177 -0.7842
  516MOL0     H69632   0.501  10.270   1.908  0.9069  0.4541  0.1048
  516MOL0     H69633   0.525  10.414   1.792 -1.0199 -0.5224 -1.7080
  516MOL0     H69634   0.269  10.305   1.728 -0.0194  1.4755  3.4391
  516MOL0     H69635   0.400  10.358   1.634 -0.5469  0.0968  0.1794
  516MOL0     H69636   0.347  10.110   1.610  0.9915 -3.6837 -0.9730
  516MOL0     H69637   0.418  10.082   1.765  0.0723  0.1404 -0.0810
  516MOL0     H69638   0.625  10.201   1.704  1.3901 -3.8653  2.9840
  516MOL0     H69639   0.600  10.038   1.644  1.8860  1.1489 -2.4854
  516MOL0     H69640   0.634  10.421   2.254 -1.3342  3.5907 -1.7310
  516MOL0     H69641   0.847  10.435   2.359 -2.2344 -1.1479 -2.1327
  516MOL0     H69642   1.088  10.835   2.731  0.1970 -0.4220 -1.0534
  516MOL0     H69643   1.321  10.833   2.848  0.6461 -0.2724 -0.6514
  516MOL0     H69644   0.470   9.418   3.585 -1.7567  4.4960 -0.1706
  516MOL0     H69645   0.335   9.255   3.751  1.9435 -1.3539  2.1922
  516MOL0     H69646  -0.042   9.253   4.094  0.0751 -0.0952  2.2064
  516MOL0     H69647  -0.155   9.092   4.212  0.6585  0.3447 -0.9661
  516MOL0     H69648  -0.269   8.863   4.143 -2.0814  1.0169  1.3064
  516MOL0     H69649  -0.251   8.909   4.308  1.6914  1.3178 -0.3820
  516MOL0     H69650  -0.384   8.706   4.293 -0.0442 -2.4048  0.2232
  516MOL0     H69651  -0.231   8.633   4.322 -1.5524  0.8026  2.5697
  516MOL0     H69652  -0.379   8.672   4.069  1.5423  2.7338  1.3127
  516MOL0     H69653  -0.353   8.519   4.173  3.8397 -0.5208  1.5341
  516MOL0     H69654  -0.119   8.646   4.035 -1.2271  0.1768 -2.5685
  516MOL0     H69655  -0.124   8.483   4.105 -1.1869 -1.3067 -1.5234
  516MOL0     H69656  -0.317   8.419   3.732  1.6949  1.9787 -1.2561
  516MOL0     H69657   0.159   8.804   4.170  1.2230  0.4611  1.4125
  516MOL0     H69658   0.358   8.881   4.041 -0.4209  0.6389  0.5312
  516MOL0     H69659   0.360   9.031   3.942  0.0382  0.6917  0.6189
  516MOL0     H69660   0.415   9.035   4.112 -1.8589 -1.4245  3.7175
  517MOL0     O69661   7.565   8.275   9.911  0.1325  0.1617  0.7974
  517MOL0     C69662   7.465   8.204   9.914  0.3014 -0.1572 -0.4324
  517MOL0     O69663   7.468   8.075   9.952  0.6149  0.3401 -0.4533
  517MOL0     C69664   7.589   8.012   9.996  0.1367  0.2231  0.2398
  517MOL0     C69665   7.718   8.049   9.950 -0.7645  0.6539  0.8410
  517MOL0     C69666   7.833   7.996  10.007  0.3252 -0.1942  0.2055
  517MOL0     C69667   7.817   7.886  10.089 -0.1001  0.1157  0.1301
  517MOL0     O69668   7.939   7.824  10.116  0.1961  0.1745  1.0724
  517MOL0     C69669   7.934   7.716  10.210 -1.4966 -0.3834  0.4430
  517MOL0     C69670   8.079   7.687  10.270 -0.4438 -0.0010 -0.2262
  517MOL0     C69671   8.098   7.566  10.355  0.4096  0.7686  0.1659
  517MOL0     C69672   8.253   7.554  10.399  0.6010  0.2471 -0.3782
  517MOL0     C69673   8.298   7.637  10.509  0.6117 -0.3490 -1.0466
  517MOL0     C69674   8.438   7.610  10.543 -0.1904  0.5512  0.3688
  517MOL0     C69675   8.486   7.692  10.665  0.1336  0.5175 -1.4145
  517MOL0     C69676   8.413   7.827  10.705  0.3108  0.4300  0.1454
  517MOL0     N69677   8.491   7.925  10.782 -0.5353 -0.9985 -0.4257
  517MOL0     C69678   8.569   8.027  10.728  0.2645  0.4990  0.0800
  517MOL0     C69679   8.620   8.093  10.841  0.7481 -0.1704 -1.1127
  517MOL0     C69680   8.731   8.193  10.849  0.9109  0.7527  0.6086
  517MOL0     C69681   8.728   8.288  10.730 -0.6231  0.2767 -0.2799
  517MOL0     C69682   8.816   8.407  10.755 -0.2211 -0.1254 -0.2640
  517MOL0     C69683   8.816   8.517  10.634 -0.4944  0.6633 -1.3677
  517MOL0     O69684   8.882   8.459  10.515 -0.1019 -0.8494 -0.7991
  517MOL0     C69685   8.897   8.530  10.397  0.5894  0.1164  0.3986
  517MOL0     C69686   8.952   8.466  10.285  0.0950 -0.1604  0.0833
  517MOL0     C69687   8.957   8.533  10.161  0.2743  0.4204 -0.5029
  517MOL0     C69688   8.922   8.665  10.144  0.5692 -0.3267 -0.1397
  517MOL0     C69689   8.947   8.739  10.015  0.6523  0.2399  0.8292
  517MOL0     O69690   8.931   8.669   9.901  1.2578 -0.1480  0.2225
  517MOL0     C69691   8.950   8.728   9.781 -0.0203  0.4432  0.0963
  517MOL0     C69692   8.894   8.847   9.742 -0.2218  0.3261 -0.2706
  517MOL0     C69693   8.930   8.891   9.613 -0.7483 -0.3755 -0.0842
  517MOL0     C69694   9.017   8.840   9.528 -0.0266  0.1300  0.2224
  517MOL0     O69695   9.026   8.888   9.399 -0.8074  0.9608  1.3007
  517MOL0     C69696   9.124   8.826   9.306  0.3463  0.5170 -0.6448
  517MOL0     C69697   9.053   8.699   9.246  0.3943 -0.5499  0.0118
  517MOL0     C69698   9.140   8.616   9.156  0.4185 -0.2017 -0.3148
  517MOL0     C69699   9.060   8.505   9.081  0.0854 -0.1761 -0.4593
  517MOL0     C69700   9.151   8.429   8.989 -0.2989  0.9910 -0.0097
  517MOL0     C69701   9.072   8.298   8.955  0.1403 -0.1991 -0.3017
  517MOL0     C69702   9.171   8.195   8.906  0.3187  0.3136 -0.6613
  517MOL0     C69703   9.078   8.078   8.856 -1.0667 -0.0693 -0.3791
  517MOL0    Cl69704   9.193   7.949   8.809  0.4611  0.1501 -0.3034
  517MOL0     C69705   9.066   8.722   9.577  0.0103 -0.3315  0.2094
  517MOL0     C69706   9.038   8.667   9.700  0.8432  0.2945 -0.6020
  517MOL0     O69707   8.965   8.857  10.026 -0.0539  0.0435  0.2442
  517MOL0     C69708   8.883   8.740  10.266 -0.7201 -0.0453 -0.0496
  517MOL0     C69709   8.885   8.673  10.388  0.4831  0.8225  0.2567
  517MOL0     N69710   8.567   8.035  10.951  0.5325  0.3984 -0.3391
  517MOL0     N69711   8.492   7.931  10.919 -0.3130  0.3567 -0.0206
  517MOL0     C69712   7.693   7.839  10.132  0.6841  0.2961  0.2029
  517MOL0     C69713   7.583   7.904  10.087  0.6645  0.3569 -0.1993
  517MOL0     C69714   7.334   8.275   9.874  0.1741  0.5289  1.2472
  517MOL0     C69715   7.210   8.246   9.949 -1.5433 -0.2602  0.5307
  517MOL0     C69716   7.093   8.334   9.932 -0.3183 -0.4369  1.1640
  517MOL0     C69717   7.101   8.443   9.852 -0.4968  0.3021  0.0578
  517MOL0     O69718   6.998   8.534   9.834  0.0855  0.3003 -0.4114
  517MOL0     C69719   7.010   8.671   9.858  0.0984  0.2475 -0.4738
  517MOL0     C69720   6.919   8.714   9.970 -0.1989  0.4084 -0.3293
  517MOL0     C69721   6.912   8.620  10.091 -0.9031 -0.0449 -0.1468
  517MOL0     C69722   6.851   8.688  10.212  0.8131  0.8056  0.5013
  517MOL0     C69723   6.704   8.702  10.194 -0.5764 -1.5307 -0.0328
  517MOL0     C69724   6.585   8.725  10.180 -0.1338  0.6981 -0.0686
  517MOL0     C69725   7.218   8.463   9.784 -0.3280 -0.2171 -0.4716
  517MOL0     C69726   7.330   8.386   9.785 -0.2178 -0.9088  0.5826
  517MOL0     C69727   7.445   8.415   9.683  0.4349 -0.5494 -0.8509
  517MOL0     H69728   7.727   8.136   9.885 -2.0355  1.8155  2.1510
  517MOL0     H69729   7.929   8.042   9.983 -0.0398 -0.8401 -3.0140
  517MOL0     H69730   7.860   7.724  10.290 -2.4147  3.6612 -0.6119
  517MOL0     H69731   7.893   7.638  10.145  1.6720 -1.8010 -0.0563
  517MOL0     H69732   8.113   7.777  10.322 -0.0568 -0.3575  0.1400
  517MOL0     H69733   8.146   7.680  10.183  0.2288  0.4960  0.2415
  517MOL0     H69734   8.069   7.489  10.283  1.0619  2.1849 -1.6796
  517MOL0     H69735   8.040   7.551  10.447 -0.3896 -1.1366 -0.5967
  517MOL0     H69736   8.278   7.448  10.416 -3.5129 -0.7536  0.5811
  517MOL0     H69737   8.317   7.576  10.312  2.5461 -2.4393  0.2307
  517MOL0     H69738   8.273   7.739  10.480  0.7695  0.8825  2.6470
  517MOL0     H69739   8.240   7.619  10.599 -0.3080 -0.9735 -1.7440
  517MOL0     H69740   8.457   7.503  10.550  0.1180  0.5030 -0.8553
  517MOL0     H69741   8.495   7.644  10.455  0.7762 -0.3332  0.6364
  517MOL0     H69742   8.592   7.704  10.641  0.9992 -0.1385  1.6522
  517MOL0     H69743   8.477   7.630  10.754 -2.7036 -1.7738 -3.1307
  517MOL0     H69744   8.408   7.871  10.605 -0.8090 -2.6413 -1.2619
  517MOL0     H69745   8.314   7.803  10.745 -0.3569  1.0102 -1.1077
  517MOL0     H69746   8.585   8.040  10.622 -1.8789 -3.0199 -0.8485
  517MOL0     H69747   8.726   8.242  10.946  0.5194  1.1884  0.3713
  517MOL0     H69748   8.831   8.148  10.848  1.2625  1.5213  0.6370
  517MOL0     H69749   8.761   8.239  10.638 -1.8482  0.9571 -1.1102
  517MOL0     H69750   8.624   8.319  10.716 -1.5893 -1.8419  1.5654
  517MOL0     H69751   8.918   8.378  10.784 -0.3744  1.6185  2.3965
  517MOL0     H69752   8.784   8.470  10.838 -1.1471  0.9053 -1.3617
  517MOL0     H69753   8.873   8.608  10.654 -2.4091  1.9921 -1.6746
  517MOL0     H69754   8.712   8.538  10.607 -1.8241 -0.2753  2.4363
  517MOL0     H69755   8.957   8.358  10.279 -0.4316 -0.1794 -0.0765
  517MOL0     H69756   9.001   8.474  10.082 -1.9271  0.0209 -1.5146
  517MOL0     H69757   8.817   8.899   9.797 -0.4724 -1.4373  1.1095
  517MOL0     H69758   8.881   8.986   9.593 -0.5515  1.3308  5.8208
  517MOL0     H69759   9.148   8.891   9.221  2.3024  0.8929  0.1434
  517MOL0     H69760   9.219   8.805   9.356 -0.3866 -0.3988  0.4196
  517MOL0     H69761   9.024   8.640   9.333 -4.2940  0.1727 -0.7803
  517MOL0     H69762   8.963   8.727   9.190  1.4582  2.4466 -0.3631
  517MOL0     H69763   9.193   8.683   9.088  2.1482 -0.8129  0.3933
  517MOL0     H69764   9.217   8.557   9.205 -1.6550 -0.7926  2.4834
  517MOL0     H69765   8.988   8.552   9.013  3.4192  0.9915 -3.5346
  517MOL0     H69766   9.013   8.442   9.157 -0.7643  1.3841  0.3484
  517MOL0     H69767   9.250   8.402   9.026  0.2567 -2.5099 -3.3606
  517MOL0     H69768   9.172   8.490   8.901  0.7323 -1.4774 -1.5839
  517MOL0     H69769   9.026   8.248   9.041 -0.4135 -0.8910 -0.9865
  517MOL0     H69770   8.989   8.313   8.886 -1.5938  2.2996  2.1154
  517MOL0     H69771   9.242   8.161   8.982 -1.0905 -0.1942  0.4811
  517MOL0     H69772   9.226   8.241   8.824 -1.7888  2.0858 -1.1766
  517MOL0     H69773   9.005   8.036   8.927 -0.8683 -2.8235 -1.6788
  517MOL0     H69774   9.021   8.120   8.772 -1.4562  0.7231  0.2573
  517MOL0     H69775   9.127   8.659   9.513  0.0865 -2.9803  2.7188
  517MOL0     H69776   9.069   8.568   9.733 -3.8559 -0.6962  1.6401
  517MOL0     H69777   8.889   8.848  10.256  4.2822 -0.2571 -3.7029
  517MOL0     H69778   8.871   8.738  10.474 -0.3898  1.2321 -0.1804
  517MOL0     H69779   7.686   7.748  10.189 -1.2376 -1.8572 -3.0761
  517MOL0     H69780   7.482   7.880  10.119  0.3097  0.2846 -1.3326
  517MOL0     H69781   7.203   8.175  10.031  4.4458  0.7303  2.3562
  517MOL0     H69782   7.009   8.322  10.001 -2.5782  2.0911 -0.9384
  517MOL0     H69783   6.982   8.742   9.780  0.3839  2.1738  1.0692
  517MOL0     H69784   7.108   8.698   9.900 -1.7379  3.9415  2.1026
  517MOL0     H69785   6.822   8.719   9.919  0.9336 -1.0338 -2.7876
  517MOL0     H69786   6.948   8.807  10.019 -1.0294  0.4281  0.1477
  517MOL0     H69787   7.018   8.616  10.115 -0.4209  2.3295 -1.6472
  517MOL0     H69788   6.871   8.519  10.074 -1.2692 -0.0160  0.5046
  517MOL0     H69789   6.866   8.627  10.301 -0.4515  3.8065  2.9788
  517MOL0     H69790   6.913   8.776  10.237  0.6501  0.4747  2.1763
  517MOL0     H69791   6.485   8.755  10.158 -1.4586 -2.5688  0.8961
  517MOL0     H69792   7.248   8.550   9.727  0.3854 -0.3821 -0.3516
  517MOL0     H69793   7.480   8.316   9.651 -1.7484 -2.4964  2.2126
  517MOL0     H69794   7.401   8.473   9.601 -1.7507 -0.0257  0.5885
  517MOL0     H69795   7.527   8.474   9.724 -2.8639  3.3028  0.8609
  518MOL0     O69796   5.843   0.585  11.072 -0.2463 -0.5727  0.3255
  518MOL0     C69797   5.867   0.703  11.047 -0.4965  0.0739 -0.0089
  518MOL0     O69798   5.776   0.799  11.038  1.1775  0.2481  0.4766
  518MOL0     C69799   5.666   0.795  11.113  0.0898  0.2228  1.2242
  518MOL0     C69800   5.659   0.748  11.240  0.3002 -0.9788  0.2181
  518MOL0     C69801   5.544   0.756  11.315 -0.0017 -0.0711  0.3403
  518MOL0     C69802   5.430   0.827  11.257  0.6395  0.6736  0.6594
  518MOL0     O69803   5.329   0.853  11.348  0.2588  0.3974  0.5653
  518MOL0     C69804   5.265   0.977  11.329  1.2430 -0.2304 -0.3273
  518MOL0     C69805   5.168   0.997  11.466 -0.8332  0.1381  0.2171
  518MOL0     C69806   5.098   1.138  11.457 -0.2767 -0.1847 -0.6620
  518MOL0     C69807   5.072   1.205  11.594  0.2318 -0.8396 -0.3360
  518MOL0     C69808   5.002   1.113  11.694  0.5540  0.1369 -0.0019
  518MOL0     C69809   4.920   1.198  11.791 -0.0957 -1.1955  0.1633
  518MOL0     C69810   4.798   1.129  11.841 -0.2656 -0.8105 -0.1452
  518MOL0     C69811   4.729   1.215  11.952  1.2256 -0.0713  0.4586
  518MOL0     N69812   4.597   1.163  11.986  0.5158  0.0504 -1.3580
  518MOL0     C69813   4.477   1.231  11.965 -0.1533 -0.1301  0.6095
  518MOL0     C69814   4.377   1.135  11.980  0.1106  0.0060  0.2167
  518MOL0     C69815   4.224   1.164  11.980  0.4507  0.1971  0.6094
  518MOL0     C69816   4.162   1.129  12.111 -0.1716 -0.1367  0.6349
  518MOL0     C69817   4.028   1.190  12.118  0.4466 -0.8108  1.6888
  518MOL0     C69818   3.936   1.132  12.225  0.2779 -0.1740  0.0947
  518MOL0     O69819   3.802   1.192  12.234  0.2020  0.0142 -0.2380
  518MOL0     C69820   3.694   1.123  12.289 -0.5115 -0.1387  0.3364
  518MOL0     C69821   3.574   1.171  12.261  0.5781 -0.5770 -0.0378
  518MOL0     C69822   3.454   1.117  12.301 -0.3447 -0.0802  0.8481
  518MOL0     C69823   3.462   1.002  12.382 -0.0513  0.3218 -0.1279
  518MOL0     C69824   3.334   0.925  12.418 -1.6590  0.2827 -0.4732
  518MOL0     O69825   3.215   0.983  12.389 -0.1173  0.8771 -0.3092
  518MOL0     C69826   3.093   0.948  12.433 -0.3829  1.1922  0.3579
  518MOL0     C69827   2.990   0.981  12.338 -0.2138 -1.2893 -1.2527
  518MOL0     C69828   2.861   0.953  12.369  0.1701  0.3804 -1.0648
  518MOL0     C69829   2.829   0.885  12.484  0.0204 -0.2850  0.3465
  518MOL0     O69830   2.699   0.846  12.518  0.2526 -0.7479 -0.8571
  518MOL0     C69831   2.590   0.879  12.433 -1.0444  0.3145  0.6221
  518MOL0     C69832   2.471   0.816  12.500  0.5158 -0.0219 -0.6076
  518MOL0     C69833   2.330   0.863  12.457  0.3319  0.1310  0.2102
  518MOL0     C69834   2.310   0.834  12.310 -0.1761  0.1598  0.2656
  518MOL0     C69835   2.289   0.684  12.278 -0.3890  0.6256  0.5307
  518MOL0     C69836   2.213   0.668  12.153  0.5171  0.8478 -0.3269
  518MOL0     C69837   2.183   0.517  12.116  0.6896  0.7401 -0.0474
  518MOL0     C69838   2.104   0.499  11.988  0.6241  0.1969 -1.0422
  518MOL0    Cl69839   2.097   0.330  11.957 -0.6022 -0.0885  0.4218
  518MOL0     C69840   2.929   0.845  12.579  0.7381  0.0971 -0.1739
  518MOL0     C69841   3.062   0.883  12.553  0.0865 -1.7116 -0.3856
  518MOL0     O69842   3.352   0.824  12.487  0.7502  0.3685 -0.0413
  518MOL0     C69843   3.584   0.945  12.416  0.6140  1.4573  0.1540
  518MOL0     C69844   3.696   1.005  12.374 -1.3219 -0.3715 -0.5813
  518MOL0     N69845   4.441   1.017  12.024 -0.8423  0.2817  0.5566
  518MOL0     N69846   4.563   1.034  12.021  0.2948 -0.4701 -0.6573
  518MOL0     C69847   5.440   0.870  11.123  0.0736  0.0332  0.4929
  518MOL0     C69848   5.547   0.846  11.051 -0.7184  0.7591  0.4971
  518MOL0     C69849   6.009   0.763  11.002  0.6516  0.0016  0.7523
  518MOL0     C69850   6.020   0.905  10.966  0.5611  0.2488 -0.5941
  518MOL0     C69851   6.139   0.960  10.929  0.3395 -0.6440  0.3934
  518MOL0     C69852   6.259   0.879  10.905 -0.7864 -0.5550 -0.1063
  518MOL0     O69853   6.375   0.942  10.880  0.2467 -0.5243 -0.6333
  518MOL0     C69854   6.456   0.895  10.761  1.2152  0.8234 -0.3715
  518MOL0     C69855   6.428   0.976  10.629  0.0417  0.9038  0.2667
  518MOL0     C69856   6.448   1.127  10.655  0.0138 -0.4160  0.2567
  518MOL0     C69857   6.389   1.211  10.538 -0.2248 -0.2249 -0.4127
  518MOL0     C69858   6.429   1.168  10.407 -0.5778  0.0486 -0.0213
  518MOL0     C69859   6.476   1.137  10.299 -0.3239  0.3726  0.5042
  518MOL0     C69860   6.246   0.740  10.932  0.0658  0.1244 -0.7285
  518MOL0     C69861   6.128   0.684  10.983 -0.0213 -1.7001 -0.0054
  518MOL0     C69862   6.137   0.534  11.015 -0.5615 -0.0135 -0.6189
  518MOL0     H69863   5.739   0.701  11.295  0.3678 -0.3302  0.6821
  518MOL0     H69864   5.549   0.716  11.415 -3.0830  0.0776  0.6583
  518MOL0     H69865   5.347   1.049  11.320 -1.3734  2.7706 -2.9779
  518MOL0     H69866   5.200   0.977  11.242 -1.4819  1.6455  1.5206
  518MOL0     H69867   5.240   1.003  11.548  1.2416  0.2218 -1.5105
  518MOL0     H69868   5.104   0.908  11.473  0.4672 -1.0452 -1.7971
  518MOL0     H69869   5.004   1.134  11.401 -0.9811  0.7920  0.3820
  518MOL0     H69870   5.161   1.211  11.405 -3.9932  1.7248 -2.9532
  518MOL0     H69871   5.172   1.220  11.636 -0.3938 -1.2653  1.3747
  518MOL0     H69872   5.015   1.297  11.577  2.4584  0.5662 -0.5069
  518MOL0     H69873   4.927   1.054  11.639  1.7404  0.2930 -1.8597
  518MOL0     H69874   5.076   1.049  11.743  0.4434 -1.9700 -2.3570
  518MOL0     H69875   4.975   1.239  11.876  0.1413 -1.8585  0.3319
  518MOL0     H69876   4.879   1.272  11.721  1.6412 -3.3457 -3.4482
  518MOL0     H69877   4.816   1.028  11.879  2.2005 -0.5806 -0.5376
  518MOL0     H69878   4.732   1.120  11.754 -0.2769 -0.1394 -0.2125
  518MOL0     H69879   4.800   1.214  12.035  1.4626 -0.0550  0.2589
  518MOL0     H69880   4.713   1.322  11.934 -0.6050  0.3432  3.6457
  518MOL0     H69881   4.464   1.333  11.932  0.8788 -0.6982 -1.7740
  518MOL0     H69882   4.195   1.263  11.941 -0.7999 -0.7682 -1.0885
  518MOL0     H69883   4.176   1.094  11.910 -0.7375  3.6336 -2.3662
  518MOL0     H69884   4.145   1.022  12.120  1.7639 -0.7219 -1.4862
  518MOL0     H69885   4.221   1.159  12.198  2.8764 -5.6517  0.9302
  518MOL0     H69886   3.981   1.166  12.022 -0.6813 -3.2515  2.7582
  518MOL0     H69887   4.040   1.298  12.105 -0.4749 -0.7907  0.8370
  518MOL0     H69888   3.997   1.165  12.309 -0.0673  0.0385  0.2647
  518MOL0     H69889   3.929   1.024  12.213  1.1824  0.0660 -4.8965
  518MOL0     H69890   3.563   1.269  12.214  1.1985 -2.2591 -4.0869
  518MOL0     H69891   3.364   1.171  12.273 -2.0749 -1.7142  2.9236
  518MOL0     H69892   3.020   1.036  12.249 -0.6655  0.6043 -0.2876
  518MOL0     H69893   2.789   0.977  12.292 -3.3653 -2.7547  0.8937
  518MOL0     H69894   2.579   0.987  12.440  1.7128  0.5820  2.5343
  518MOL0     H69895   2.618   0.835  12.337  1.5150  2.8378  0.0707
  518MOL0     H69896   2.482   0.709  12.485 -1.3477 -0.0229 -2.4020
  518MOL0     H69897   2.482   0.827  12.608 -0.3183 -2.1062 -0.2618
  518MOL0     H69898   2.250   0.819  12.516 -0.2956  0.2264 -0.5519
  518MOL0     H69899   2.323   0.971  12.471 -1.3896  0.1102 -0.2415
  518MOL0     H69900   2.395   0.874  12.255 -1.6616  1.9682 -0.8447
  518MOL0     H69901   2.226   0.895  12.275 -0.7863 -1.7316 -1.7354
  518MOL0     H69902   2.237   0.642  12.364  0.6593 -0.7534  0.5173
  518MOL0     H69903   2.380   0.625  12.266  0.3554  2.0860 -1.6621
  518MOL0     H69904   2.124   0.729  12.173  0.5331  0.5248  0.7927
  518MOL0     H69905   2.259   0.711  12.064 -1.1490 -0.3905 -1.8885
  518MOL0     H69906   2.126   0.463  12.192  2.3791 -2.3064 -0.7574
  518MOL0     H69907   2.279   0.469  12.093  0.9581  0.9331  0.6618
  518MOL0     H69908   2.004   0.542  11.996 -0.8299 -3.2139  1.4468
  518MOL0     H69909   2.154   0.547  11.903  0.5205 -0.2342 -1.3479
  518MOL0     H69910   2.898   0.808  12.676 -1.4557  1.4506 -0.2744
  518MOL0     H69911   3.135   0.884  12.634  1.1754  2.6641 -1.1426
  518MOL0     H69912   3.591   0.855  12.477  0.6184  1.4418  0.1305
  518MOL0     H69913   3.787   0.956  12.407 -1.0649  0.1751 -0.4643
  518MOL0     H69914   5.353   0.910  11.073 -1.0714  0.7181  2.8670
  518MOL0     H69915   5.548   0.880  10.948 -1.3127  0.1720  0.2901
  518MOL0     H69916   5.929   0.964  10.959 -2.0253 -3.0478  1.8201
  518MOL0     H69917   6.138   1.064  10.895 -0.9882 -0.7525  0.0505
  518MOL0     H69918   6.443   0.787  10.744 -0.3658  0.9389 -0.0237
  518MOL0     H69919   6.559   0.912  10.794  0.9360  0.0898  0.9550
  518MOL0     H69920   6.329   0.961  10.586  2.6453 -2.7704 -5.9658
  518MOL0     H69921   6.490   0.927  10.553  2.4694 -0.3211  2.8494
  518MOL0     H69922   6.555   1.141  10.638  0.0983  0.4517  1.3718
  518MOL0     H69923   6.435   1.160  10.759  1.8418  0.0014  0.3800
  518MOL0     H69924   6.282   1.189  10.535  0.0547 -1.5324 -1.6277
  518MOL0     H69925   6.393   1.319  10.557 -1.2817  0.1795 -2.2792
  518MOL0     H69926   6.512   1.122  10.199  0.0387 -0.9870  0.8180
  518MOL0     H69927   6.326   0.674  10.899 -0.2211 -1.4259  1.4718
  518MOL0     H69928   6.138   0.517  11.123  1.6765  0.9899 -0.4098
  518MOL0     H69929   6.060   0.473  10.967 -1.2324  1.0421 -0.9171
  518MOL0     H69930   6.240   0.504  10.991 -1.5446 -3.1975 -1.2661
  519MOL0     O69931   4.340  11.293   2.935  1.0908  0.1082 -0.3324
  519MOL0     C69932   4.329  11.220   2.846 -0.7304  0.4761 -0.8126
  519MOL0     O69933   4.309  11.089   2.866 -0.1896  0.5895  0.5510
  519MOL0     C69934   4.305  11.025   2.982 -0.5682  0.9577 -0.4661
  519MOL0     C69935   4.214  11.058   3.088 -0.0179 -0.4146 -0.7005
  519MOL0     C69936   4.199  10.974   3.202 -0.0178  0.2362  0.0572
  519MOL0     C69937   4.268  10.856   3.214 -0.6333  0.5224  0.0196
  519MOL0     O69938   4.253  10.770   3.323 -0.2245 -0.2591  0.0458
  519MOL0     C69939   4.311  10.641   3.325 -0.0213 -0.4428  0.1896
  519MOL0     C69940   4.285  10.585   3.467  0.0123  0.4752  0.2083
  519MOL0     C69941   4.389  10.626   3.570 -0.3283 -0.1457 -0.0166
  519MOL0     C69942   4.344  10.585   3.713  0.0923 -0.3949 -0.3303
  519MOL0     C69943   4.466  10.575   3.795  0.4235  0.5842  1.2358
  519MOL0     C69944   4.431  10.549   3.938  0.7956 -1.1164 -0.7042
  519MOL0     C69945   4.416  10.685   4.020  0.5645  0.8928  0.6326
  519MOL0     C69946   4.350  10.653   4.151  0.7112 -0.2626  0.0039
  519MOL0     N69947   4.434  10.566   4.235  0.4233 -0.4244  0.0240
  519MOL0     C69948   4.565  10.584   4.268 -0.1583  0.0153 -0.4286
  519MOL0     C69949   4.601  10.474   4.334  0.1513 -0.3410 -0.1468
  519MOL0     C69950   4.746  10.426   4.378  0.2853 -0.2570  0.5446
  519MOL0     C69951   4.852  10.432   4.273 -0.1589 -0.2791 -0.1499
  519MOL0     C69952   4.814  10.359   4.148 -0.2394  0.0177  0.5081
  519MOL0     C69953   4.925  10.374   4.043 -0.2306  0.8786  1.2532
  519MOL0     O69954   4.893  10.288   3.931 -0.7015 -0.2190 -0.4433
  519MOL0     C69955   4.937  10.344   3.802 -0.5309 -0.4935  0.0554
  519MOL0     C69956   5.052  10.301   3.741 -0.2613  0.1132 -0.0184
  519MOL0     C69957   5.088  10.338   3.608  0.0038  0.6621  0.5603
  519MOL0     C69958   5.006  10.434   3.546 -0.5361 -0.2816  0.3917
  519MOL0     C69959   5.039  10.478   3.402 -0.0674 -0.6615 -0.6092
  519MOL0     O69960   5.149  10.419   3.333  0.1302 -0.2117 -0.1085
  519MOL0     C69961   5.200  10.453   3.213  0.4739 -1.2286  0.6214
  519MOL0     C69962   5.146  10.539   3.118  0.0408 -0.0666  0.8160
  519MOL0     C69963   5.192  10.546   2.984  0.1852 -0.0044 -0.1060
  519MOL0     C69964   5.299  10.470   2.946 -0.2723 -0.2036 -0.2435
  519MOL0     O69965   5.345  10.473   2.818  0.1969  0.3713 -0.0782
  519MOL0     C69966   5.469  10.414   2.781 -0.5858 -0.6160  0.0782
  519MOL0     C69967   5.493  10.424   2.630 -0.1327  0.8041  0.2716
  519MOL0     C69968   5.428  10.560   2.576 -0.3919  0.7873  1.0795
  519MOL0     C69969   5.495  10.696   2.623  0.4426  0.8336 -0.6747
  519MOL0     C69970   5.640  10.707   2.560  0.5696 -0.5168 -0.3874
  519MOL0     C69971   5.722  10.816   2.628 -0.4296 -0.2505 -0.9946
  519MOL0     C69972   5.673  10.958   2.595 -0.0049 -0.1520 -0.1591
  519MOL0     C69973   5.780  11.054   2.608 -0.8131 -0.7841  0.7625
  519MOL0    Cl69974   5.701  11.210   2.600  0.2473  0.2451 -0.5411
  519MOL0     C69975   5.361  10.398   3.045  0.2871  0.5023  0.2483
  519MOL0     C69976   5.313  10.385   3.173 -0.0509 -0.0679 -0.2856
  519MOL0     O69977   4.961  10.551   3.353 -0.0446 -0.1542 -0.6309
  519MOL0     C69978   4.904  10.485   3.616  0.1083 -0.1802  0.5185
  519MOL0     C69979   4.879  10.453   3.748  1.0795 -0.8020 -0.4140
  519MOL0     N69980   4.493  10.389   4.332 -0.0993 -0.5378 -0.2008
  519MOL0     N69981   4.390  10.445   4.275  0.3581 -0.0288  0.0827
  519MOL0     C69982   4.357  10.825   3.105 -0.4345 -0.6257 -0.6033
  519MOL0     C69983   4.374  10.904   2.993  0.8990  0.0821 -0.1679
  519MOL0     C69984   4.338  11.280   2.713 -0.2878  0.1371 -1.1917
  519MOL0     C69985   4.224  11.267   2.635  0.8230  0.0806 -0.5175
  519MOL0     C69986   4.232  11.310   2.500  0.4966  0.4032 -1.3292
  519MOL0     C69987   4.343  11.374   2.447  0.7128 -0.9443 -1.0324
  519MOL0     O69988   4.333  11.415   2.308 -0.4721  0.1741  0.0701
  519MOL0     C69989   4.450  11.468   2.230 -0.0419 -0.1965  0.5116
  519MOL0     C69990   4.426  11.492   2.078  0.0551  0.2657  0.5321
  519MOL0     C69991   4.308  11.581   2.041 -0.0992 -0.0703  0.5149
  519MOL0     C69992   4.290  11.570   1.882 -0.1929  0.1635 -0.2490
  519MOL0     C69993   4.214  11.445   1.853 -0.0129 -1.9229  0.6170
  519MOL0     C69994   4.147  11.349   1.834  0.5118 -0.8076 -0.4488
  519MOL0     C69995   4.445  11.408   2.540 -0.7524  0.0831  0.4418
  519MOL0     C69996   4.452  11.359   2.667 -0.0825 -0.2692  0.3319
  519MOL0     C69997   4.581  11.378   2.748 -0.1121 -0.6340 -0.3196
  519MOL0     H69998   4.159  11.150   3.073 -1.2043 -0.6195  1.7877
  519MOL0     H69999   4.123  10.998   3.275 -1.2696  0.2210 -1.2104
  519MOL0     H70000   4.256  10.572   3.261  4.3072 -3.1723 -0.9860
  519MOL0     H70001   4.414  10.637   3.288 -0.0921 -4.4886 -0.0051
  519MOL0     H70002   4.281  10.476   3.460 -4.9359  0.5001 -1.3479
  519MOL0     H70003   4.182  10.616   3.487 -0.9057 -1.4788 -1.1453
  519MOL0     H70004   4.405  10.733   3.585  0.3013 -0.3967  1.2373
  519MOL0     H70005   4.485  10.584   3.539 -1.1804 -0.5177 -2.3873
  519MOL0     H70006   4.268  10.654   3.751 -0.8590 -0.2286 -2.3808
  519MOL0     H70007   4.292  10.490   3.698  1.3613 -0.7055 -3.3202
  519MOL0     H70008   4.523  10.486   3.763 -1.2646  0.9260 -3.5072
  519MOL0     H70009   4.529  10.662   3.777  0.4372  1.1261  3.5854
  519MOL0     H70010   4.335  10.498   3.953  0.8093 -0.2420  3.8101
  519MOL0     H70011   4.515  10.493   3.980  4.2037  3.5927 -0.4351
  519MOL0     H70012   4.349  10.752   3.967 -1.4889 -0.3791  1.5182
  519MOL0     H70013   4.516  10.729   4.027  0.5139  1.3367 -1.0212
  519MOL0     H70014   4.329  10.749   4.199 -1.4160  0.5301 -2.3093
  519MOL0     H70015   4.248  10.616   4.141 -0.5271  2.6696  0.5137
  519MOL0     H70016   4.632  10.664   4.237  1.0702 -0.8060 -0.0063
  519MOL0     H70017   4.774  10.499   4.454  0.2020  2.2882 -1.7559
  519MOL0     H70018   4.739  10.329   4.428  2.8537 -1.1333 -0.6197
  519MOL0     H70019   4.885  10.535   4.263  3.1845 -0.9584  2.4424
  519MOL0     H70020   4.942  10.383   4.312 -1.1896 -2.0963  0.0801
  519MOL0     H70021   4.714  10.386   4.112  0.4473  3.0040  0.5626
  519MOL0     H70022   4.793  10.254   4.169  0.5708  0.0367  1.5014
  519MOL0     H70023   5.019  10.341   4.090  0.6510  0.8529 -0.4343
  519MOL0     H70024   4.933  10.479   4.013  2.2705  0.3707 -0.1580
  519MOL0     H70025   5.116  10.222   3.779  0.5959  0.6430 -0.3278
  519MOL0     H70026   5.177  10.297   3.561 -1.6950 -0.2128 -2.0914
  519MOL0     H70027   5.065  10.605   3.146  0.0495  0.6768 -0.7910
  519MOL0     H70028   5.152  10.623   2.918 -0.6577  2.8826  3.3908
  519MOL0     H70029   5.545  10.472   2.834  1.4499 -3.8302  0.9457
  519MOL0     H70030   5.467  10.311   2.817 -1.3175  0.1746  2.5364
  519MOL0     H70031   5.591  10.402   2.586 -1.0720  0.1067 -1.6063
  519MOL0     H70032   5.420  10.358   2.582  1.0002  1.6466 -2.8961
  519MOL0     H70033   5.435  10.550   2.468 -1.7938  1.5950  0.8921
  519MOL0     H70034   5.321  10.574   2.593 -0.7857 -1.1486  0.5195
  519MOL0     H70035   5.506  10.691   2.732  1.2523 -0.2033 -0.7826
  519MOL0     H70036   5.440  10.783   2.588 -1.1075 -0.4485 -1.5293
  519MOL0     H70037   5.637  10.730   2.453 -2.3423 -0.1558 -0.3042
  519MOL0     H70038   5.692  10.612   2.578 -1.4644 -1.3398  1.7699
  519MOL0     H70039   5.722  10.799   2.736  1.2499 -4.8283 -1.4999
  519MOL0     H70040   5.824  10.801   2.592  1.1709  3.2681  1.5418
  519MOL0     H70041   5.602  10.965   2.678 -0.2955  0.6388 -0.4674
  519MOL0     H70042   5.616  10.969   2.502 -0.2999  0.2898  0.0745
  519MOL0     H70043   5.829  11.049   2.706  0.5264 -1.1118  0.0979
  519MOL0     H70044   5.852  11.039   2.527 -1.1666 -2.1293  0.6659
  519MOL0     H70045   5.450  10.340   3.029  0.2347  0.9710 -2.0362
  519MOL0     H70046   5.366  10.329   3.249 -3.0566  1.4204  3.1975
  519MOL0     H70047   4.851  10.575   3.584  0.1714 -0.6406 -0.9640
  519MOL0     H70048   4.791  10.505   3.784  0.2690 -1.2304 -1.7065
  519MOL0     H70049   4.399  10.726   3.095 -1.0711 -0.6618 -6.7995
  519MOL0     H70050   4.442  10.865   2.918  1.6761  0.3301  0.3850
  519MOL0     H70051   4.141  11.212   2.676  0.0798  1.6572  0.2036
  519MOL0     H70052   4.152  11.292   2.429 -0.3597  2.8552 -1.1035
  519MOL0     H70053   4.533  11.397   2.224 -0.0156 -0.0213 -2.4037
  519MOL0     H70054   4.491  11.564   2.262  0.0709  0.5064 -1.5971
  519MOL0     H70055   4.399  11.394   2.035 -1.5260  1.4795 -1.4484
  519MOL0     H70056   4.518  11.533   2.037 -0.0378 -0.0141  0.0353
  519MOL0     H70057   4.332  11.682   2.075  1.4787 -0.3164  0.2150
  519MOL0     H70058   4.231  11.537   2.104 -1.7621  1.9162 -0.0019
  519MOL0     H70059   4.240  11.658   1.841 -3.0320 -1.8894 -1.4557
  519MOL0     H70060   4.385  11.575   1.827  0.0380  1.2577  0.2183
  519MOL0     H70061   4.083  11.265   1.817 -0.3526 -1.0663  3.1899
  519MOL0     H70062   4.537  11.462   2.519  0.9285 -2.8433 -0.1795
  519MOL0     H70063   4.659  11.438   2.701 -0.1810  0.0164  0.3819
  519MOL0     H70064   4.564  11.423   2.846  1.5908 -2.7307  1.0547
  519MOL0     H70065   4.623  11.276   2.752  1.2642 -0.1339 -1.2806
  520MOL0     O70066  11.246   5.583   4.359 -0.0570  0.3714 -0.1288
  520MOL0     C70067  11.368   5.577   4.390  0.0768 -1.0945  0.2986
  520MOL0     O70068  11.462   5.648   4.309  0.0328  0.5575 -0.0120
  520MOL0     C70069  11.596   5.628   4.323 -0.1860  0.1837 -0.8200
  520MOL0     C70070  11.671   5.749   4.323  1.8387  0.3681 -0.7405
  520MOL0     C70071  11.811   5.747   4.325 -0.3997  0.0690  0.3024
  520MOL0     C70072  11.877   5.627   4.316  0.2752  0.6646  0.6011
  520MOL0     O70073  12.010   5.646   4.298  0.2530  0.0864 -0.2720
  520MOL0     C70074  12.090   5.526   4.325  1.2656 -0.2053 -0.0501
  520MOL0     C70075  12.236   5.547   4.320 -0.3651  0.0985  0.1149
  520MOL0     C70076  12.317   5.421   4.354  0.3635 -0.2944 -1.1445
  520MOL0     C70077  12.378   5.393   4.490 -0.9325 -0.6398 -0.3860
  520MOL0     C70078  12.430   5.525   4.565  1.5602 -0.4485 -1.2218
  520MOL0     C70079  12.507   5.481   4.694  0.3297  0.2576  0.3239
  520MOL0     C70080  12.517   5.595   4.797  0.9094  0.6848 -0.0257
  520MOL0     C70081  12.571   5.733   4.742 -0.7782  0.5719  0.0479
  520MOL0     N70082  12.554   5.839   4.845 -0.5538  0.4901 -0.2144
  520MOL0     C70083  12.666   5.903   4.908  0.6608  0.2192  0.5926
  520MOL0     C70084  12.604   5.990   4.989 -0.0187 -1.2697  0.0688
  520MOL0     C70085  12.661   6.102   5.064 -0.7891 -0.2301 -0.3271
  520MOL0     C70086  12.703   6.048   5.196  0.0780 -0.1989  0.3239
  520MOL0     C70087  12.576   6.015   5.283 -0.3496 -0.2363 -0.0088
  520MOL0     C70088  12.611   5.976   5.421 -0.4738 -1.5248 -0.6163
  520MOL0     O70089  12.672   6.098   5.490 -0.4396  0.3119 -0.3875
  520MOL0     C70090  12.599   6.191   5.551  0.0232  0.0233 -0.8365
  520MOL0     C70091  12.670   6.299   5.579 -0.0385  0.3034 -1.0587
  520MOL0     C70092  12.615   6.414   5.637  0.0697  0.9205  0.1991
  520MOL0     C70093  12.479   6.422   5.676 -0.2021 -0.5741  0.8832
  520MOL0     C70094  12.417   6.539   5.740 -0.2032 -0.1742 -0.1193
  520MOL0     O70095  12.490   6.658   5.747  0.5678 -0.8631  0.4920
  520MOL0     C70096  12.434   6.764   5.810  0.0298 -0.5920 -0.8122
  520MOL0     C70097  12.322   6.830   5.756 -0.5762 -0.5727 -0.3536
  520MOL0     C70098  12.273   6.940   5.828 -0.4181  0.7116 -0.4020
  520MOL0     C70099  12.350   7.006   5.926 -0.5468 -0.3934  0.4495
  520MOL0     O70100  12.304   7.127   5.973 -0.0968 -0.4975  0.3376
  520MOL0     C70101  12.362   7.197   6.083  0.1403 -0.7691  0.6960
  520MOL0     C70102  12.262   7.313   6.138  0.3788 -0.3340  0.3714
  520MOL0     C70103  12.323   7.344   6.275  0.3843  0.4626 -1.0516
  520MOL0     C70104  12.236   7.433   6.372 -0.3849 -1.3776  0.6820
  520MOL0     C70105  12.122   7.364   6.432 -0.3288 -0.1517 -0.1722
  520MOL0     C70106  12.071   7.438   6.561 -0.5267  0.7789 -0.6586
  520MOL0     C70107  11.944   7.384   6.625 -0.8619  0.1209 -0.5415
  520MOL0     C70108  11.942   7.232   6.663  0.7471 -0.5051 -0.4333
  520MOL0    Cl70109  12.080   7.159   6.744  0.2017 -0.4161 -0.1758
  520MOL0     C70110  12.462   6.939   5.984 -0.1113 -0.7371  0.8549
  520MOL0     C70111  12.494   6.822   5.929  0.5692 -0.5851  0.6954
  520MOL0     O70112  12.300   6.530   5.791 -0.3698  0.6933 -0.3772
  520MOL0     C70113  12.404   6.307   5.645 -0.2671  0.6529  0.0158
  520MOL0     C70114  12.461   6.194   5.589 -0.8206  0.5207  0.1128
  520MOL0     N70115  12.467   5.995   4.969 -0.4347  0.4379  0.3371
  520MOL0     N70116  12.444   5.904   4.883 -0.3846 -0.2108  0.7299
  520MOL0     C70117  11.806   5.507   4.324 -0.2628 -0.1000 -0.4033
  520MOL0     C70118  11.666   5.515   4.326  0.8261 -0.2538  0.4786
  520MOL0     C70119  11.411   5.497   4.503 -0.0612  0.6920  0.1669
  520MOL0     C70120  11.430   5.362   4.492  0.7821  1.0972 -0.0682
  520MOL0     C70121  11.457   5.281   4.608  0.3566 -0.6516 -0.4040
  520MOL0     C70122  11.459   5.331   4.739 -0.4480  0.0804 -0.4571
  520MOL0     O70123  11.474   5.236   4.841 -0.2843  0.2843 -0.4223
  520MOL0     C70124  11.440   5.279   4.979  0.3468 -0.3133  0.0512
  520MOL0     C70125  11.456   5.163   5.072 -0.4148 -0.0119 -0.1864
  520MOL0     C70126  11.606   5.126   5.104  0.0311  0.0202  0.3948
  520MOL0     C70127  11.633   4.976   5.110  0.0155 -0.2689 -0.9773
  520MOL0     C70128  11.567   4.912   5.225  0.0702 -1.2890  0.6030
  520MOL0     C70129  11.489   4.884   5.316 -0.4389  0.9852  0.3311
  520MOL0     C70130  11.458   5.474   4.740  1.4821 -0.2411  0.8011
  520MOL0     C70131  11.444   5.554   4.628  1.1129 -0.3080  0.5506
  520MOL0     C70132  11.458   5.699   4.644  0.7767 -0.6846  0.2999
  520MOL0     H70133  11.604   5.834   4.328  1.8102  0.5567 -3.2098
  520MOL0     H70134  11.858   5.844   4.335 -1.7846  0.6800  1.1589
  520MOL0     H70135  12.060   5.510   4.429  0.0401  2.9179  0.2029
  520MOL0     H70136  12.052   5.447   4.260 -3.0489  3.4548 -2.6623
  520MOL0     H70137  12.270   5.628   4.386  0.1936  1.3167 -1.6023
  520MOL0     H70138  12.260   5.579   4.218 -0.0937  1.3999  0.5646
  520MOL0     H70139  12.400   5.430   4.283 -0.1680 -2.4629 -2.1232
  520MOL0     H70140  12.273   5.326   4.325  2.1716 -1.2892 -0.7610
  520MOL0     H70141  12.305   5.334   4.548  1.6736 -2.2615  1.4480
  520MOL0     H70142  12.459   5.321   4.475 -0.5902 -0.7491  1.6065
  520MOL0     H70143  12.500   5.578   4.500  1.3250  1.1294 -0.2486
  520MOL0     H70144  12.354   5.601   4.583  3.6338  1.9548 -1.9523
  520MOL0     H70145  12.446   5.399   4.734  2.6842 -2.8684 -2.0522
  520MOL0     H70146  12.607   5.443   4.672  0.5190  0.4454  0.8567
  520MOL0     H70147  12.587   5.555   4.870 -0.9295  1.2315  2.1709
  520MOL0     H70148  12.419   5.607   4.845  1.4885 -1.4492  1.8200
  520MOL0     H70149  12.676   5.720   4.717 -0.7278  0.2226  0.4213
  520MOL0     H70150  12.505   5.755   4.657  0.6045 -2.4240 -1.9548
  520MOL0     H70151  12.772   5.887   4.893  0.7007 -0.3601  1.4363
  520MOL0     H70152  12.756   6.128   5.015 -0.7820 -2.2412 -1.4975
  520MOL0     H70153  12.594   6.188   5.063 -0.6182  0.0202  2.3918
  520MOL0     H70154  12.762   5.956   5.197 -0.1607 -0.3599 -0.0800
  520MOL0     H70155  12.754   6.127   5.252  0.6656 -0.3260 -0.0289
  520MOL0     H70156  12.523   5.933   5.233 -1.5840  1.9857 -2.5660
  520MOL0     H70157  12.501   6.094   5.284 -1.4697 -1.2743  0.7469
  520MOL0     H70158  12.686   5.897   5.409 -1.7992 -2.6993 -1.4947
  520MOL0     H70159  12.526   5.939   5.479 -1.2858 -1.1761 -1.5560
  520MOL0     H70160  12.776   6.288   5.555 -0.3350  0.7414 -2.7133
  520MOL0     H70161  12.678   6.497   5.667  0.9221  0.6561 -0.8273
  520MOL0     H70162  12.286   6.800   5.658 -2.9253 -0.0013  0.2802
  520MOL0     H70163  12.184   6.992   5.792 -0.3160  1.7714  0.8027
  520MOL0     H70164  12.380   7.118   6.157  1.7001 -1.1861 -0.0810
  520MOL0     H70165  12.459   7.241   6.059 -0.4548 -1.2274 -3.2550
  520MOL0     H70166  12.264   7.390   6.060 -1.0862  0.6134  1.2228
  520MOL0     H70167  12.154   7.295   6.145 -0.3015  3.1107  0.4621
  520MOL0     H70168  12.339   7.244   6.317 -2.4817  0.0397 -0.7528
  520MOL0     H70169  12.419   7.394   6.263 -0.0029  1.6966  0.6736
  520MOL0     H70170  12.205   7.517   6.308 -2.4738 -0.3033  2.9346
  520MOL0     H70171  12.299   7.478   6.448 -0.4977 -0.0126  0.0012
  520MOL0     H70172  12.141   7.258   6.451 -3.0320 -0.4100  1.7718
  520MOL0     H70173  12.037   7.354   6.364 -1.4109  0.1995  1.0720
  520MOL0     H70174  12.148   7.438   6.639  0.1826  2.6537 -1.3126
  520MOL0     H70175  12.063   7.545   6.541 -1.8346  0.3971 -2.5100
  520MOL0     H70176  11.871   7.395   6.544  1.1469  0.6244 -2.3600
  520MOL0     H70177  11.918   7.444   6.713  1.4054 -0.5257  0.6415
  520MOL0     H70178  11.859   7.229   6.735  0.6065  0.6367 -0.5352
  520MOL0     H70179  11.920   7.172   6.575  2.3096 -0.7676 -0.6732
  520MOL0     H70180  12.523   6.978   6.065  1.8779 -1.9354  0.0260
  520MOL0     H70181  12.571   6.773   5.987 -2.1107 -3.6759  1.9441
  520MOL0     H70182  12.301   6.301   5.677  0.0641 -0.7222  0.9183
  520MOL0     H70183  12.394   6.111   5.570 -0.8805  0.1295  1.8551
  520MOL0     H70184  11.864   5.416   4.329 -0.7067 -0.3338  3.1120
  520MOL0     H70185  11.620   5.417   4.315 -0.4924  0.3700  0.2511
  520MOL0     H70186  11.410   5.317   4.396  4.7291  0.2709 -0.6676
  520MOL0     H70187  11.468   5.175   4.586  0.1112 -0.4025 -1.8013
  520MOL0     H70188  11.334   5.306   4.978  0.7601  1.6063  1.6045
  520MOL0     H70189  11.487   5.372   5.013  0.2249 -0.5170  0.7852
  520MOL0     H70190  11.412   5.071   5.033  1.6374 -0.5852 -1.3123
  520MOL0     H70191  11.408   5.197   5.164 -3.8991  2.3563 -2.6504
  520MOL0     H70192  11.634   5.184   5.192 -1.3643  1.3401  0.0159
  520MOL0     H70193  11.675   5.157   5.025  1.1252 -0.2750  1.2105
  520MOL0     H70194  11.591   4.938   5.017  0.8143 -2.8473 -0.3658
  520MOL0     H70195  11.742   4.962   5.107 -0.0189 -0.4870 -1.2337
  520MOL0     H70196  11.429   4.873   5.404 -2.6701 -0.7401 -1.2846
  520MOL0     H70197  11.479   5.524   4.834  2.6302 -0.1346  0.5015
  520MOL0     H70198  11.484   5.749   4.550 -2.2804  3.7202  1.5102
  520MOL0     H70199  11.363   5.742   4.675  0.8152  1.6712 -2.4338
  520MOL0     H70200  11.519   5.719   4.732 -1.0042  1.5907  1.1123
  521MOL0     O70201   2.927   0.514   6.859 -0.0474 -0.6822 -0.0374
  521MOL0     C70202   2.818   0.576   6.883 -0.1786 -0.4796  0.6432
  521MOL0     O70203   2.748   0.570   7.003  0.6106  0.6095  0.1430
  521MOL0     C70204   2.814   0.509   7.109  0.1717  0.0683  0.0736
  521MOL0     C70205   2.809   0.570   7.235 -0.0985 -0.2755  0.2021
  521MOL0     C70206   2.861   0.504   7.341 -0.2746 -0.2639  0.0985
  521MOL0     C70207   2.923   0.379   7.333  0.4158 -0.1367 -0.4991
  521MOL0     O70208   2.974   0.321   7.444  0.6218  0.5972 -0.5253
  521MOL0     C70209   2.943   0.182   7.454 -0.6556  1.2481 -0.1792
  521MOL0     C70210   2.892   0.141   7.596 -0.0999 -1.3424 -0.6661
  521MOL0     C70211   3.005   0.174   7.695 -0.7785  0.9881 -0.3718
  521MOL0     C70212   2.939   0.148   7.831  0.0493 -0.4375  0.0574
  521MOL0     C70213   3.040   0.156   7.945 -0.1273  0.2557 -0.3936
  521MOL0     C70214   3.137   0.046   7.949 -0.5949 -0.1860  0.0185
  521MOL0     C70215   3.219   0.057   8.084  0.7940 -0.6309 -0.6503
  521MOL0     C70216   3.148  -0.013   8.203  0.7550 -0.4273  0.1211
  521MOL0     N70217   3.233  -0.026   8.322 -0.4504  0.0483  0.3243
  521MOL0     C70218   3.212   0.016   8.448 -0.9375 -0.1131  0.1805
  521MOL0     C70219   3.325  -0.020   8.520 -0.1750 -0.3560 -0.2043
  521MOL0     C70220   3.346  -0.004   8.671  0.2300 -0.7482 -0.4296
  521MOL0     C70221   3.311  -0.128   8.757  0.0171  0.1561 -0.1940
  521MOL0     C70222   3.203  -0.219   8.699  0.2918 -0.4091 -0.4229
  521MOL0     C70223   3.148  -0.322   8.805 -0.6499 -0.0758  0.1090
  521MOL0     O70224   3.036  -0.403   8.771  0.1647  0.2250  0.2774
  521MOL0     C70225   2.902  -0.358   8.783  0.1952 -0.0232  0.5762
  521MOL0     C70226   2.855  -0.249   8.855  0.0854  0.3293 -0.5643
  521MOL0     C70227   2.724  -0.235   8.891  0.1840  0.5655  0.1412
  521MOL0     C70228   2.636  -0.334   8.853  0.5916 -0.4779 -0.2953
  521MOL0     C70229   2.489  -0.323   8.867  0.3181  1.9841 -0.8297
  521MOL0     O70230   2.409  -0.372   8.760  0.7316 -0.1587  0.2505
  521MOL0     C70231   2.272  -0.375   8.773 -0.5016 -0.3051  0.5718
  521MOL0     C70232   2.215  -0.487   8.721  0.1433  0.4269 -0.6188
  521MOL0     C70233   2.077  -0.485   8.706 -0.7462 -0.1123 -0.1047
  521MOL0     C70234   1.997  -0.381   8.746  0.0976 -1.0992 -0.0541
  521MOL0     O70235   1.857  -0.404   8.734 -0.1758 -0.0481  0.4887
  521MOL0     C70236   1.762  -0.308   8.772 -0.5585 -0.8079  0.4900
  521MOL0     C70237   1.690  -0.251   8.655 -0.0004  0.2458 -0.4343
  521MOL0     C70238   1.586  -0.146   8.702 -0.0926  0.1227  0.7086
  521MOL0     C70239   1.514  -0.073   8.592 -0.5429 -0.1219 -0.4052
  521MOL0     C70240   1.429   0.032   8.665  0.3848  1.2683  0.1985
  521MOL0     C70241   1.342   0.126   8.564 -0.7466  0.1795 -0.1487
  521MOL0     C70242   1.353   0.273   8.615  0.2624 -0.6716 -0.8351
  521MOL0     C70243   1.250   0.368   8.554 -0.0008 -0.1116  0.1340
  521MOL0    Cl70244   1.303   0.441   8.401  0.3093  0.0323  0.2614
  521MOL0     C70245   2.057  -0.263   8.791  0.7731  0.8787  0.1749
  521MOL0     C70246   2.199  -0.259   8.805 -0.4068  0.3937 -0.8416
  521MOL0     O70247   2.442  -0.283   8.968  0.1652 -1.5273 -0.5429
  521MOL0     C70248   2.673  -0.451   8.791 -1.6320  0.2866 -0.5516
  521MOL0     C70249   2.817  -0.464   8.772  0.0951 -0.3581 -0.3183
  521MOL0     N70250   3.401  -0.098   8.438  0.4899 -0.0173 -0.0823
  521MOL0     N70251   3.351  -0.093   8.318  0.1974 -0.5621 -0.2209
  521MOL0     C70252   2.918   0.319   7.203  0.1046  0.3366  0.4610
  521MOL0     C70253   2.861   0.382   7.094  0.6265  0.2484 -1.1569
  521MOL0     C70254   2.786   0.675   6.785 -0.0085 -0.1627 -0.4601
  521MOL0     C70255   2.715   0.790   6.839 -0.8120  0.1310  0.1196
  521MOL0     C70256   2.676   0.894   6.762 -0.6807  0.4040 -0.7696
  521MOL0     C70257   2.708   0.890   6.627  0.7012 -0.0380  0.1976
  521MOL0     O70258   2.683   1.013   6.572 -0.7094 -0.0621  1.2242
  521MOL0     C70259   2.770   1.054   6.458  0.5465  0.7766 -0.5905
  521MOL0     C70260   2.905   1.105   6.505  1.1948  0.4201  0.6445
  521MOL0     C70261   3.003   1.113   6.387 -0.0821  0.6576  0.2322
  521MOL0     C70262   3.147   1.165   6.437 -0.2468  0.1287  0.2078
  521MOL0     C70263   3.250   1.062   6.453  0.2894  0.2325  0.4661
  521MOL0     C70264   3.323   0.968   6.477  0.2450  0.2185  0.1832
  521MOL0     C70265   2.783   0.787   6.570  0.7055  0.0649 -0.1339
  521MOL0     C70266   2.825   0.677   6.653  0.7710 -1.4410  0.0919
  521MOL0     C70267   2.908   0.570   6.585 -0.3246 -0.0120  0.1222
  521MOL0     H70268   2.767   0.669   7.248 -0.1748 -0.3284  0.3588
  521MOL0     H70269   2.864   0.543   7.442  0.3306 -1.2535  0.4842
  521MOL0     H70270   2.864   0.147   7.387 -0.0097 -0.6142 -0.0470
  521MOL0     H70271   3.028   0.118   7.427 -3.2678 -1.4107 -2.7541
  521MOL0     H70272   2.863   0.036   7.609  1.1980 -1.5694  0.8550
  521MOL0     H70273   2.803   0.199   7.621  0.5428 -0.3531 -0.6373
  521MOL0     H70274   3.039   0.277   7.683  3.0473 -0.0744  0.1270
  521MOL0     H70275   3.091   0.107   7.689 -1.7481 -0.5829  1.8912
  521MOL0     H70276   2.860   0.223   7.841 -0.3237 -0.9210  0.8642
  521MOL0     H70277   2.895   0.048   7.827 -2.9592  0.7001  1.5084
  521MOL0     H70278   3.105   0.244   7.949  1.1140 -0.5702 -1.5544
  521MOL0     H70279   2.990   0.152   8.042  1.0057  1.6984  0.2992
  521MOL0     H70280   3.078  -0.045   7.932 -1.2947  0.3185 -0.2625
  521MOL0     H70281   3.209   0.057   7.867 -1.9833 -0.6224 -1.3008
  521MOL0     H70282   3.247   0.160   8.107  2.4831 -1.7100  2.8315
  521MOL0     H70283   3.317   0.008   8.081  1.0715 -0.0707 -0.7669
  521MOL0     H70284   3.061   0.042   8.239 -0.3902 -0.8080 -1.8902
  521MOL0     H70285   3.115  -0.111   8.168 -0.3759 -0.8353  2.1697
  521MOL0     H70286   3.127   0.071   8.487  0.3856  1.6182  0.7718
  521MOL0     H70287   3.450   0.025   8.684  0.3670 -0.4968 -1.8619
  521MOL0     H70288   3.289   0.081   8.707 -0.0855 -0.7006 -1.0217
  521MOL0     H70289   3.396  -0.194   8.778 -0.8621 -3.4042 -5.6175
  521MOL0     H70290   3.288  -0.080   8.852  2.1544  0.8112  0.0420
  521MOL0     H70291   3.238  -0.271   8.610 -1.3145  1.3027 -2.1283
  521MOL0     H70292   3.127  -0.153   8.657  4.0401  2.4263 -3.5040
  521MOL0     H70293   3.139  -0.254   8.890  1.6642 -1.1334  1.2790
  521MOL0     H70294   3.234  -0.383   8.832  1.4312  2.6056 -0.0647
  521MOL0     H70295   2.928  -0.173   8.881  1.4807 -0.4280 -2.0641
  521MOL0     H70296   2.695  -0.145   8.945  1.4802  0.0440  1.7683
  521MOL0     H70297   2.278  -0.575   8.712  0.0945  0.3572 -0.3005
  521MOL0     H70298   2.023  -0.570   8.668  1.8648 -1.7989 -0.2806
  521MOL0     H70299   1.697  -0.345   8.851  1.7994  0.8781  3.4060
  521MOL0     H70300   1.822  -0.226   8.813  1.3477 -0.9205 -1.8542
  521MOL0     H70301   1.764  -0.207   8.588  3.7223 -2.5320  1.4628
  521MOL0     H70302   1.643  -0.338   8.608  0.8944 -1.2762  1.3568
  521MOL0     H70303   1.513  -0.208   8.754  0.5188  0.8327  2.5127
  521MOL0     H70304   1.638  -0.073   8.764  1.3175 -1.2547  1.2309
  521MOL0     H70305   1.451  -0.148   8.542 -0.9625  1.1924 -1.9180
  521MOL0     H70306   1.585  -0.027   8.523  0.7223 -0.4407  0.6490
  521MOL0     H70307   1.491   0.088   8.735  1.0065  0.6444  0.1487
  521MOL0     H70308   1.353  -0.022   8.724  1.0762 -1.0088 -0.8695
  521MOL0     H70309   1.373   0.111   8.460  0.5561  0.5762  0.1519
  521MOL0     H70310   1.239   0.093   8.576 -0.0639 -1.4715  1.7186
  521MOL0     H70311   1.451   0.307   8.582  0.9549 -2.6785 -1.0059
  521MOL0     H70312   1.352   0.282   8.724  1.9370  1.3285 -0.9165
  521MOL0     H70313   1.152   0.321   8.547 -0.9560  1.8371 -0.3563
  521MOL0     H70314   1.241   0.454   8.620  0.3921  0.3475 -0.3936
  521MOL0     H70315   2.012  -0.166   8.812 -0.3431  1.2899 -3.4010
  521MOL0     H70316   2.246  -0.173   8.851 -2.0809  2.5415 -2.9033
  521MOL0     H70317   2.602  -0.530   8.768 -0.5623 -0.9420  0.2079
  521MOL0     H70318   2.859  -0.561   8.747 -2.6607 -1.8675  0.5958
  521MOL0     H70319   2.965   0.223   7.183 -1.3318 -0.3620  0.3782
  521MOL0     H70320   2.863   0.328   7.000  0.6882 -1.5800 -0.1435
  521MOL0     H70321   2.705   0.793   6.947  0.3607 -0.0653  0.2470
  521MOL0     H70322   2.633   0.986   6.802  1.0314  0.0972  2.0865
  521MOL0     H70323   2.717   1.132   6.403 -0.4850 -0.7598 -1.8678
  521MOL0     H70324   2.770   0.977   6.380 -1.9200  0.7746 -0.6494
  521MOL0     H70325   2.926   1.035   6.586 -2.5058 -3.9060 -1.6530
  521MOL0     H70326   2.905   1.207   6.545 -0.9409  0.4727  0.6097
  521MOL0     H70327   2.974   1.170   6.298  0.7013 -0.9346 -1.0878
  521MOL0     H70328   3.013   1.011   6.349 -0.3536  1.3234 -1.7568
  521MOL0     H70329   3.184   1.223   6.352 -0.0510  1.0364  0.8859
  521MOL0     H70330   3.130   1.223   6.529 -1.4834 -0.1270  0.1497
  521MOL0     H70331   3.378   0.883   6.511  2.4733  2.0893  1.5728
  521MOL0     H70332   2.824   0.780   6.470  2.4581 -0.7244  0.5868
  521MOL0     H70333   2.878   0.472   6.625  2.8540 -0.5541  1.4641
  521MOL0     H70334   2.903   0.566   6.476  0.2556 -3.2020  0.1066
  521MOL0     H70335   3.012   0.582   6.617 -0.1127  0.2284 -0.6403
  522MOL0     O70336   4.437   1.961  10.560 -0.6592 -0.7460 -0.4803
  522MOL0     C70337   4.521   1.868  10.590  0.1651  0.5394  0.2603
  522MOL0     O70338   4.603   1.803  10.506  0.1436 -0.0743  0.2612
  522MOL0     C70339   4.613   1.859  10.383  0.0552  0.1856 -0.2457
  522MOL0     C70340   4.714   1.960  10.360  0.5531  0.5682  0.2037
  522MOL0     C70341   4.705   2.043  10.253  0.0910 -0.4565  0.0401
  522MOL0     C70342   4.599   2.029  10.165 -0.9165  0.6583  0.6833
  522MOL0     O70343   4.598   2.098  10.042  0.1315 -0.8247  0.4719
  522MOL0     C70344   4.680   2.207  10.023 -0.4145 -0.6913 -0.1430
  522MOL0     C70345   4.815   2.162   9.966  0.4802 -0.4668 -0.9336
  522MOL0     C70346   4.923   2.261   9.997 -0.1234  0.3957 -1.1851
  522MOL0     C70347   5.050   2.193   9.938 -0.0775 -0.5810 -0.9957
  522MOL0     C70348   5.172   2.276   9.964 -0.0005  0.4980 -0.9531
  522MOL0     C70349   5.201   2.397   9.882 -0.0509 -0.1986 -0.1077
  522MOL0     C70350   5.324   2.469   9.937  0.6051  0.1303  0.2987
  522MOL0     C70351   5.335   2.606   9.865 -0.6787 -0.1738 -1.1567
  522MOL0     N70352   5.377   2.709   9.965 -0.3045 -0.2669 -0.1605
  522MOL0     C70353   5.509   2.753   9.972 -0.5276 -0.0379 -0.4668
  522MOL0     C70354   5.508   2.873  10.033 -0.1919 -0.5335  0.2468
  522MOL0     C70355   5.615   2.969  10.049 -0.3487 -0.4263  0.2169
  522MOL0     C70356   5.677   2.929  10.188  0.2374 -0.3411  0.0940
  522MOL0     C70357   5.785   3.035  10.229  0.9548  0.2686  0.2939
  522MOL0     C70358   5.824   3.008  10.375 -0.6980  0.6606  0.2284
  522MOL0     O70359   5.730   3.077  10.452 -0.2968 -1.1149  0.3004
  522MOL0     C70360   5.779   3.155  10.553  0.0564 -0.8306 -0.4392
  522MOL0     C70361   5.696   3.154  10.666 -0.3959  0.2012 -0.2618
  522MOL0     C70362   5.721   3.239  10.776 -0.1044  1.1876  0.1801
  522MOL0     C70363   5.833   3.320  10.776 -0.0540 -0.1594  0.2930
  522MOL0     C70364   5.853   3.430  10.878 -0.0308 -0.3195  0.3127
  522MOL0     O70365   5.945   3.528  10.850 -0.1512  0.2910  0.2449
  522MOL0     C70366   5.982   3.612  10.947  0.4282  0.2917  0.4932
  522MOL0     C70367   6.002   3.594  11.089  0.3514  0.3558  0.6017
  522MOL0     C70368   6.044   3.696  11.180  0.6957  0.7994  0.2327
  522MOL0     C70369   6.086   3.821  11.141 -0.1983  0.0047 -1.0656
  522MOL0     O70370   6.144   3.922  11.214 -0.0481  0.6639 -0.2395
  522MOL0     C70371   6.114   3.910  11.352  0.4544 -0.3535 -0.1526
  522MOL0     C70372   6.145   4.031  11.424  0.1948  0.1331 -0.8593
  522MOL0     C70373   6.059   4.157  11.395 -0.4524 -0.0928  0.4688
  522MOL0     C70374   6.064   4.268  11.494  0.0224 -0.6848 -0.0821
  522MOL0     C70375   5.970   4.221  11.615 -0.5301 -0.5444  0.2821
  522MOL0     C70376   5.987   4.306  11.738  0.3888  0.2428 -0.8114
  522MOL0     C70377   5.885   4.255  11.850  0.4255 -0.1848  0.4111
  522MOL0     C70378   5.876   4.342  11.974  0.0769 -0.1949  0.0508
  522MOL0    Cl70379   5.880   4.513  11.928  0.2824 -0.1016  0.0681
  522MOL0     C70380   6.089   3.836  10.999 -1.0317  0.3232 -0.2330
  522MOL0     C70381   6.035   3.739  10.910  0.7105 -0.9033 -0.1396
  522MOL0     O70382   5.783   3.423  10.975  0.4025 -0.6879 -0.2828
  522MOL0     C70383   5.919   3.318  10.666 -0.3053 -0.5566  1.4395
  522MOL0     C70384   5.895   3.236  10.558  0.5399 -0.4746  0.6790
  522MOL0     N70385   5.379   2.906  10.069  0.0833 -0.1968 -0.0423
  522MOL0     N70386   5.304   2.810  10.020 -0.0844 -0.2469  0.1922
  522MOL0     C70387   4.512   1.927  10.178  0.9115  0.6086  0.1962
  522MOL0     C70388   4.517   1.836  10.291  0.1966 -0.3171 -0.9561
  522MOL0     C70389   4.509   1.813  10.730  0.2830  0.0666  0.3841
  522MOL0     C70390   4.383   1.830  10.801  0.3372 -0.1231  0.6663
  522MOL0     C70391   4.344   1.765  10.912  0.4588 -0.1476  1.0116
  522MOL0     C70392   4.438   1.681  10.968  1.2384 -0.1617 -0.4109
  522MOL0     O70393   4.386   1.619  11.079 -0.4298  0.1862  0.0123
  522MOL0     C70394   4.450   1.496  11.121 -0.2882 -0.3630  0.2831
  522MOL0     C70395   4.381   1.425  11.240  0.4600 -0.3518 -0.5755
  522MOL0     C70396   4.482   1.343  11.318 -0.0445  0.5482 -0.2430
  522MOL0     C70397   4.479   1.382  11.466 -0.3414  0.5160  0.1006
  522MOL0     C70398   4.469   1.267  11.559  0.9155 -0.4465  0.0198
  522MOL0     C70399   4.488   1.179  11.639 -1.4124  0.3081 -0.1184
  522MOL0     C70400   4.569   1.675  10.906  0.5570 -0.4493 -0.4609
  522MOL0     C70401   4.604   1.729  10.786 -0.1014 -0.6737 -0.8186
  522MOL0     C70402   4.758   1.702  10.743  1.1048 -0.8663 -0.2190
  522MOL0     H70403   4.793   1.976  10.433  0.3984  1.2271  0.2312
  522MOL0     H70404   4.782   2.119  10.242 -1.2553  0.9914  0.1261
  522MOL0     H70405   4.638   2.278   9.951  2.5863  1.3278 -0.0665
  522MOL0     H70406   4.700   2.263  10.115 -1.1037  1.5291 -1.2970
  522MOL0     H70407   4.799   2.141   9.860 -2.9835 -5.3443  0.2284
  522MOL0     H70408   4.828   2.063  10.009 -0.4554 -1.2252 -2.3025
  522MOL0     H70409   4.921   2.259  10.106 -0.1453  3.4606 -1.0593
  522MOL0     H70410   4.901   2.363   9.965  1.7874  1.0140 -0.6314
  522MOL0     H70411   5.080   2.091   9.965  3.0791  0.3732 -0.3827
  522MOL0     H70412   5.040   2.201   9.829 -0.2229  0.5820 -0.9124
  522MOL0     H70413   5.162   2.312  10.066 -0.4511 -1.8411 -0.1000
  522MOL0     H70414   5.261   2.214   9.957 -0.0597  0.5441 -2.7116
  522MOL0     H70415   5.225   2.376   9.777 -0.7552  0.8801 -0.5083
  522MOL0     H70416   5.116   2.467   9.886 -0.8733 -1.2414  2.5950
  522MOL0     H70417   5.413   2.407   9.924 -0.3746 -1.1223 -0.5974
  522MOL0     H70418   5.307   2.501  10.040 -0.9137  3.0463 -0.7390
  522MOL0     H70419   5.394   2.600   9.773  1.6274 -2.7744  0.3417
  522MOL0     H70420   5.232   2.636   9.842 -1.4337 -0.7926  1.2137
  522MOL0     H70421   5.595   2.702   9.931 -1.4610 -0.9696 -1.3319
  522MOL0     H70422   5.684   2.959   9.964  0.9297  1.7799  0.8922
  522MOL0     H70423   5.585   3.074  10.052  2.1283  0.3996 -0.7242
  522MOL0     H70424   5.602   2.926  10.267  0.6555 -2.4081  0.4558
  522MOL0     H70425   5.726   2.831  10.184 -1.0702 -0.9945 -3.3757
  522MOL0     H70426   5.746   3.137  10.221  2.3930  0.9001  1.0449
  522MOL0     H70427   5.873   3.007  10.170 -0.6892 -3.8457 -0.5354
  522MOL0     H70428   5.929   3.033  10.395 -1.2849  2.6016  1.0080
  522MOL0     H70429   5.822   2.899  10.390  3.9357  0.5167  1.3711
  522MOL0     H70430   5.609   3.088  10.661  1.9950 -3.4363  1.5596
  522MOL0     H70431   5.649   3.255  10.856 -0.9986  3.6668 -1.0223
  522MOL0     H70432   5.980   3.494  11.124 -0.0191  0.4836  0.7357
  522MOL0     H70433   6.050   3.670  11.286  0.3714  0.6485  0.2159
  522MOL0     H70434   6.008   3.888  11.368 -0.4135  1.5018 -2.7320
  522MOL0     H70435   6.172   3.829  11.397  2.2270  3.1096  4.7429
  522MOL0     H70436   6.129   4.007  11.530  0.1500 -0.7942 -1.0655
  522MOL0     H70437   6.250   4.059  11.410  1.0024  1.3797  5.1091
  522MOL0     H70438   6.081   4.178  11.290  0.4983  0.3572  0.7542
  522MOL0     H70439   5.951   4.139  11.389 -0.7228  0.3972  2.8509
  522MOL0     H70440   6.030   4.359  11.444 -2.2220 -1.9198 -0.9273
  522MOL0     H70441   6.167   4.291  11.523 -0.3363  0.1170  0.6064
  522MOL0     H70442   5.982   4.116  11.642  0.6342 -0.1823  1.2600
  522MOL0     H70443   5.864   4.239  11.595 -0.7651 -1.2718  0.8072
  522MOL0     H70444   6.093   4.301  11.764  0.5319 -1.6104 -1.5800
  522MOL0     H70445   5.974   4.411  11.711 -1.5455 -0.7630 -4.4714
  522MOL0     H70446   5.909   4.156  11.891 -1.2881 -0.8213 -0.0469
  522MOL0     H70447   5.783   4.245  11.813 -0.3020 -3.3745  2.8085
  522MOL0     H70448   5.784   4.314  12.027 -2.1388  1.3099 -2.6851
  522MOL0     H70449   5.973   4.332  12.023  0.3828  1.6837 -0.0944
  522MOL0     H70450   6.117   3.928  10.949 -0.3556 -1.3846 -3.2540
  522MOL0     H70451   6.031   3.759  10.803  1.0765 -2.2264 -0.4135
  522MOL0     H70452   6.002   3.388  10.658  1.4030 -2.5604  0.5915
  522MOL0     H70453   5.960   3.229  10.472  0.9359  0.7160  0.8613
  522MOL0     H70454   4.430   1.912  10.108 -0.7523  0.2837  2.1177
  522MOL0     H70455   4.428   1.777  10.310  0.3752 -1.2363 -2.7544
  522MOL0     H70456   4.310   1.889  10.746  2.5041  0.9083 -1.2443
  522MOL0     H70457   4.246   1.786  10.952 -0.0290  0.2348 -0.3427
  522MOL0     H70458   4.549   1.519  11.162 -1.1269  3.5784  0.4428
  522MOL0     H70459   4.469   1.432  11.033  1.2708 -0.7231  0.8415
  522MOL0     H70460   4.301   1.359  11.206  2.6011 -2.0013 -2.6537
  522MOL0     H70461   4.337   1.505  11.302  1.3591  2.2248 -3.0603
  522MOL0     H70462   4.584   1.359  11.280  0.1770  3.7014  1.3392
  522MOL0     H70463   4.460   1.236  11.313  0.4550  0.4333 -0.1051
  522MOL0     H70464   4.567   1.433  11.507 -0.0240 -1.2702  1.7366
  522MOL0     H70465   4.393   1.446  11.487 -1.2963 -0.3446 -1.0312
  522MOL0     H70466   4.504   1.102  11.711 -4.2350  0.4872  0.8315
  522MOL0     H70467   4.643   1.612  10.955 -1.9199 -2.6333  0.7694
  522MOL0     H70468   4.829   1.736  10.820 -0.7023  2.9913 -0.0116
  522MOL0     H70469   4.778   1.597  10.718 -1.2028 -1.2059 -0.8970
  522MOL0     H70470   4.787   1.770  10.662 -0.6782  1.3297  0.8687
  523MOL0     O70471   3.373   3.428   4.078  0.7534 -0.7218 -0.4312
  523MOL0     C70472   3.286   3.517   4.060  0.3588 -0.9918 -0.0215
  523MOL0     O70473   3.174   3.524   4.141  0.7577  0.0572  0.7205
  523MOL0     C70474   3.183   3.503   4.274  0.1958 -0.6700 -1.7979
  523MOL0     C70475   3.294   3.496   4.361 -0.2791  0.0655  0.1771
  523MOL0     C70476   3.287   3.476   4.499  0.8810  0.6265 -0.9611
  523MOL0     C70477   3.157   3.467   4.556 -0.2115  0.1392 -0.4863
  523MOL0     O70478   3.157   3.428   4.689  0.0691  0.4397 -1.1899
  523MOL0     C70479   3.040   3.415   4.769 -0.3410 -0.6323 -0.0469
  523MOL0     C70480   3.103   3.397   4.910 -0.4803 -0.4965 -0.1690
  523MOL0     C70481   3.170   3.263   4.936  0.0492 -1.1148 -0.2896
  523MOL0     C70482   3.091   3.149   4.882 -0.3013  0.5216  0.7100
  523MOL0     C70483   3.111   3.034   4.972 -0.3195  0.4515  0.0661
  523MOL0     C70484   3.079   2.913   4.890  0.6112  0.5702 -0.8501
  523MOL0     C70485   3.193   2.868   4.805 -0.7822  0.9875 -0.3238
  523MOL0     C70486   3.175   2.732   4.739 -0.2373  0.0397  0.4062
  523MOL0     N70487   3.269   2.630   4.796 -0.3202  0.4203  0.3256
  523MOL0     C70488   3.265   2.594   4.932 -0.9871  0.7889 -0.2660
  523MOL0     C70489   3.370   2.502   4.939 -0.2471  0.6563  0.4276
  523MOL0     C70490   3.415   2.429   5.069  0.1369 -0.2878  0.0697
  523MOL0     C70491   3.470   2.511   5.181  0.5056 -0.0843  0.4384
  523MOL0     C70492   3.512   2.432   5.299 -0.4561  0.1437  0.3663
  523MOL0     C70493   3.584   2.515   5.406  0.6937  0.7087  0.4024
  523MOL0     O70494   3.485   2.578   5.482  0.2786 -0.2187 -0.6077
  523MOL0     C70495   3.530   2.701   5.525 -0.6860 -0.1496 -0.5539
  523MOL0     C70496   3.558   2.708   5.661  0.3338  1.0062 -0.6413
  523MOL0     C70497   3.593   2.821   5.720 -0.8479  0.0058 -0.2667
  523MOL0     C70498   3.596   2.941   5.638 -0.0116  0.2941 -0.2529
  523MOL0     C70499   3.631   3.068   5.701 -0.8937  0.4522 -0.1067
  523MOL0     O70500   3.651   3.173   5.614  0.2288 -0.1948  0.0332
  523MOL0     C70501   3.701   3.281   5.672 -1.2490  0.1797 -0.4875
  523MOL0     C70502   3.840   3.305   5.694  0.0875  1.2871 -0.5781
  523MOL0     C70503   3.889   3.421   5.760 -0.3865 -0.1367  0.7695
  523MOL0     C70504   3.799   3.514   5.805 -0.8403 -0.0131 -0.8708
  523MOL0     O70505   3.827   3.626   5.880 -0.6773 -0.5022  0.4517
  523MOL0     C70506   3.953   3.695   5.854 -0.7972  0.3290  0.2801
  523MOL0     C70507   3.955   3.812   5.947 -0.4964 -0.3237  1.5918
  523MOL0     C70508   4.087   3.894   5.914 -0.4937  1.1815 -1.1207
  523MOL0     C70509   4.063   4.040   5.948 -0.0502  0.3244 -0.0051
  523MOL0     C70510   4.178   4.135   5.909  1.4516  0.9340 -0.2108
  523MOL0     C70511   4.310   4.134   5.988  0.4713 -0.1761 -0.2547
  523MOL0     C70512   4.393   4.260   5.955 -0.6482 -0.7331  0.0066
  523MOL0     C70513   4.338   4.394   6.004  0.2150  0.5580  0.1458
  523MOL0    Cl70514   4.346   4.416   6.180 -0.3153  0.3184 -0.1002
  523MOL0     C70515   3.664   3.502   5.764  0.4411 -0.9388 -0.1529
  523MOL0     C70516   3.618   3.390   5.692  0.0381 -0.5269 -0.4806
  523MOL0     O70517   3.633   3.074   5.829 -0.6187  0.4026  0.1503
  523MOL0     C70518   3.573   2.929   5.502 -0.2640 -0.1968  0.0498
  523MOL0     C70519   3.531   2.812   5.438 -0.1342 -0.8583 -0.4092
  523MOL0     N70520   3.433   2.503   4.818  0.1898 -0.1951 -0.6239
  523MOL0     N70521   3.378   2.581   4.737 -0.2193 -0.7269  0.1957
  523MOL0     C70522   3.049   3.503   4.485 -0.8634 -0.1917  0.6458
  523MOL0     C70523   3.055   3.507   4.343  0.2214  0.0270  0.0883
  523MOL0     C70524   3.285   3.610   3.940  0.6958 -0.3032  0.1310
  523MOL0     C70525   3.176   3.701   3.932 -0.1121 -0.2094  1.4258
  523MOL0     C70526   3.174   3.798   3.829 -0.0981 -0.3694 -0.7532
  523MOL0     C70527   3.264   3.801   3.726  0.1760 -0.0191 -0.3403
  523MOL0     O70528   3.247   3.889   3.622  0.6409  0.0951  0.4345
  523MOL0     C70529   3.121   3.902   3.554 -0.0989 -1.0365 -0.1671
  523MOL0     C70530   3.078   3.769   3.488 -0.4646  0.0797 -0.1434
  523MOL0     C70531   2.984   3.797   3.370 -1.8471  1.0170  0.3620
  523MOL0     C70532   2.917   3.660   3.330 -0.8835 -0.5819 -1.0436
  523MOL0     C70533   3.001   3.605   3.217  0.2041  0.5457  0.2059
  523MOL0     C70534   3.069   3.582   3.122 -0.1020  0.7082 -0.4214
  523MOL0     C70535   3.357   3.695   3.726 -0.4899 -0.2732 -0.1548
  523MOL0     C70536   3.383   3.610   3.839 -0.5072 -0.3255 -0.1045
  523MOL0     C70537   3.495   3.512   3.843  0.1696 -0.0043 -0.7094
  523MOL0     H70538   3.390   3.515   4.314 -0.9861  0.1509 -1.2940
  523MOL0     H70539   3.369   3.444   4.563 -0.7916 -1.4285  0.2839
  523MOL0     H70540   2.974   3.502   4.774 -1.1860 -1.2270 -0.4864
  523MOL0     H70541   2.976   3.336   4.728 -1.0993 -0.5925  1.0120
  523MOL0     H70542   3.019   3.403   4.980  0.5844  0.6844  1.0671
  523MOL0     H70543   3.171   3.477   4.940 -0.9333 -1.1095  2.8335
  523MOL0     H70544   3.172   3.252   5.045 -0.2022  0.8072 -0.0563
  523MOL0     H70545   3.270   3.261   4.891 -0.2865 -0.3114 -1.0968
  523MOL0     H70546   2.982   3.157   4.881 -0.2114  2.3388 -0.7275
  523MOL0     H70547   3.125   3.136   4.778 -0.7282 -0.5045  0.6869
  523MOL0     H70548   3.215   3.019   5.001 -0.2242 -1.1439 -0.9656
  523MOL0     H70549   3.053   3.040   5.064 -1.8878  0.2251 -0.8801
  523MOL0     H70550   3.041   2.830   4.949  1.7817 -1.8365 -3.2425
  523MOL0     H70551   2.993   2.949   4.832 -0.5744  2.3183  1.8349
  523MOL0     H70552   3.294   2.876   4.846 -1.0899  1.4429  0.3513
  523MOL0     H70553   3.209   2.934   4.719  0.8482  2.2045  0.8530
  523MOL0     H70554   3.071   2.696   4.742 -0.0494 -0.4957  0.6349
  523MOL0     H70555   3.206   2.743   4.635  2.3103 -2.1194  0.8374
  523MOL0     H70556   3.210   2.643   5.012 -0.8927  1.7160 -0.7474
  523MOL0     H70557   3.316   2.387   5.089 -1.3429  1.9563 -1.9077
  523MOL0     H70558   3.477   2.342   5.045 -1.5571 -1.5657  0.1762
  523MOL0     H70559   3.551   2.573   5.143 -0.8376  1.2354 -0.3775
  523MOL0     H70560   3.389   2.577   5.212  0.4517 -0.6688  1.5896
  523MOL0     H70561   3.573   2.346   5.272  1.8446 -0.2184  5.6322
  523MOL0     H70562   3.418   2.393   5.340 -0.3309  0.7964  1.2860
  523MOL0     H70563   3.654   2.590   5.365  1.1690  3.1178  4.9874
  523MOL0     H70564   3.641   2.445   5.468  0.6423  0.4730  0.1888
  523MOL0     H70565   3.544   2.621   5.725  1.4522 -0.1527 -1.8890
  523MOL0     H70566   3.611   2.824   5.827  0.9695  3.1277 -0.5383
  523MOL0     H70567   3.915   3.234   5.660  0.0674 -0.1139  2.0743
  523MOL0     H70568   3.994   3.426   5.787 -0.4368 -0.5169  1.0402
  523MOL0     H70569   4.034   3.629   5.885 -0.1512  1.3335  0.8098
  523MOL0     H70570   3.965   3.712   5.747 -1.4569 -0.3784  0.0844
  523MOL0     H70571   3.871   3.880   5.931 -1.3867 -1.6896  0.1090
  523MOL0     H70572   3.961   3.787   6.054  3.7138 -2.2639  1.1175
  523MOL0     H70573   4.164   3.845   5.974 -3.6619 -1.0543  1.5126
  523MOL0     H70574   4.112   3.873   5.809 -2.9054 -0.8966 -1.3942
  523MOL0     H70575   4.051   4.049   6.056 -0.9494  0.3180 -0.0939
  523MOL0     H70576   3.974   4.061   5.888 -0.5590 -1.9583 -0.1132
  523MOL0     H70577   4.133   4.231   5.936  1.2636  0.5285  0.9906
  523MOL0     H70578   4.205   4.134   5.803 -3.5736 -0.1725 -1.7833
  523MOL0     H70579   4.297   4.126   6.097 -1.5244  0.4674 -0.3945
  523MOL0     H70580   4.368   4.045   5.965 -2.6670 -2.2384 -0.8297
  523MOL0     H70581   4.401   4.255   5.846 -2.2684 -2.4032 -0.0900
  523MOL0     H70582   4.488   4.245   6.006 -1.6811 -2.3245  1.6138
  523MOL0     H70583   4.396   4.481   5.970  0.6023  0.7927  1.3509
  523MOL0     H70584   4.234   4.422   5.984 -0.5720  1.8115  4.7143
  523MOL0     H70585   3.591   3.581   5.780 -3.3796 -4.4173  1.4679
  523MOL0     H70586   3.521   3.372   5.648 -0.4281 -3.1687  1.4270
  523MOL0     H70587   3.590   3.017   5.441  0.9829  0.1918  0.9092
  523MOL0     H70588   3.529   2.813   5.329  0.7418 -3.6571 -0.5498
  523MOL0     H70589   2.957   3.501   4.543 -1.5980  0.1861 -0.4671
  523MOL0     H70590   2.961   3.512   4.289  0.8186  3.3805 -0.9126
  523MOL0     H70591   3.109   3.705   4.018 -1.9661  0.8860  0.0062
  523MOL0     H70592   3.084   3.859   3.827  0.2634  0.1603 -1.1089
  523MOL0     H70593   3.131   3.974   3.473 -1.1022 -1.3409 -0.5687
  523MOL0     H70594   3.040   3.933   3.620 -0.2491 -1.8072  0.0197
  523MOL0     H70595   3.032   3.709   3.567  2.0347  0.3868  1.6705
  523MOL0     H70596   3.169   3.713   3.464  1.8795  2.3592  2.6304
  523MOL0     H70597   3.047   3.834   3.289 -1.6349 -0.3618 -0.1315
  523MOL0     H70598   2.920   3.884   3.390 -0.6731  2.4373 -1.6297
  523MOL0     H70599   2.900   3.584   3.407 -0.3385  1.0659  0.7923
  523MOL0     H70600   2.822   3.693   3.287 -1.8697  0.4098  1.7008
  523MOL0     H70601   3.134   3.567   3.039  1.2704  1.2216  0.5230
  523MOL0     H70602   3.428   3.704   3.645  0.0653  2.0171  0.5302
  523MOL0     H70603   3.471   3.405   3.846  0.9837 -0.1793  0.8985
  523MOL0     H70604   3.565   3.528   3.761  1.0807 -2.8257 -0.5808
  523MOL0     H70605   3.535   3.545   3.940 -2.1590 -0.9014  0.6511
  524MOL0     O70606   2.616   4.284   3.815 -0.2682 -0.2021 -0.1794
  524MOL0     C70607   2.579   4.279   3.935  0.9898 -0.9332  1.4961
  524MOL0     O70608   2.448   4.233   3.963  0.3086 -0.1648  0.2253
  524MOL0     C70609   2.379   4.153   3.873 -0.2470 -1.1132 -1.3614
  524MOL0     C70610   2.249   4.189   3.835 -1.8359 -0.2614 -0.6950
  524MOL0     C70611   2.172   4.111   3.743  0.1047  0.9171 -0.3300
  524MOL0     C70612   2.220   3.989   3.700  0.1070  0.9364  0.6836
  524MOL0     O70613   2.155   3.909   3.611 -0.3424 -0.0835  0.8320
  524MOL0     C70614   2.020   3.875   3.644  0.1657 -0.6614 -0.4184
  524MOL0     C70615   1.962   3.766   3.553 -0.1024  0.7311  0.0333
  524MOL0     C70616   2.031   3.626   3.573 -0.7943 -0.3569  0.2568
  524MOL0     C70617   1.964   3.529   3.481  0.3586  1.3965  0.1104
  524MOL0     C70618   2.049   3.415   3.447 -0.5303  0.3054 -1.2342
  524MOL0     C70619   2.177   3.436   3.361  0.7118  0.9927 -0.2491
  524MOL0     C70620   2.148   3.488   3.214 -1.1512  0.0322  0.4604
  524MOL0     C70621   2.276   3.473   3.135 -0.6257 -0.2576  0.3621
  524MOL0     N70622   2.236   3.467   2.991 -0.4485  0.4869  0.0772
  524MOL0     C70623   2.199   3.576   2.916  0.8209  0.5694  0.4677
  524MOL0     C70624   2.172   3.518   2.794  0.7535  0.3141  0.7723
  524MOL0     C70625   2.166   3.605   2.673  1.1301  0.1808  0.5328
  524MOL0     C70626   2.096   3.524   2.556  0.0021 -0.6029  0.4021
  524MOL0     C70627   2.192   3.448   2.464  1.4165 -0.6660 -0.4147
  524MOL0     C70628   2.174   3.298   2.464 -0.7027 -0.4482 -0.0953
  524MOL0     O70629   2.276   3.232   2.387  0.5000  0.2434  0.1565
  524MOL0     C70630   2.395   3.201   2.458 -0.5335  0.2234 -0.5939
  524MOL0     C70631   2.412   3.194   2.596  0.1128 -0.3254  0.2642
  524MOL0     C70632   2.539   3.154   2.642  0.1260  0.3419  0.6542
  524MOL0     C70633   2.642   3.114   2.555 -0.4577  0.4341 -0.0278
  524MOL0     C70634   2.759   3.041   2.600  0.4783  0.1287  0.0133
  524MOL0     O70635   2.766   3.009   2.735  0.2829 -0.4112  0.2749
  524MOL0     C70636   2.865   2.925   2.771  0.1252  0.0260 -0.5331
  524MOL0     C70637   2.929   2.952   2.900  0.1797  0.5601  0.6855
  524MOL0     C70638   3.037   2.876   2.956  0.2533 -0.7650  0.3131
  524MOL0     C70639   3.078   2.768   2.880  0.2980 -0.4787 -0.3428
  524MOL0     O70640   3.173   2.688   2.941 -0.7028 -0.2951 -0.1848
  524MOL0     C70641   3.269   2.615   2.852  0.5894 -0.2475 -0.5998
  524MOL0     C70642   3.390   2.545   2.919 -0.9466 -0.0638  0.4831
  524MOL0     C70643   3.509   2.629   2.967 -0.1194 -0.7228  0.6306
  524MOL0     C70644   3.618   2.547   3.035 -0.3009  0.0478  1.0208
  524MOL0     C70645   3.754   2.618   3.062  0.5085 -0.6617 -0.2491
  524MOL0     C70646   3.733   2.734   3.165 -0.3670 -0.0133 -0.0415
  524MOL0     C70647   3.655   2.693   3.294 -0.3441  0.2164  0.1387
  524MOL0     C70648   3.729   2.572   3.357  0.9219 -0.3636 -0.0581
  524MOL0    Cl70649   3.899   2.616   3.392 -0.1184  0.1467 -0.1796
  524MOL0     C70650   3.012   2.726   2.767  0.4956  0.5784  0.1448
  524MOL0     C70651   2.912   2.809   2.708  0.8442  0.4292 -1.2119
  524MOL0     O70652   2.836   3.007   2.513 -0.2736  0.2066 -0.6444
  524MOL0     C70653   2.625   3.156   2.420  0.3162  0.3367 -0.0234
  524MOL0     C70654   2.498   3.191   2.371  0.3944  0.8221 -0.1594
  524MOL0     N70655   2.179   3.379   2.804 -0.2368 -0.5865  0.8666
  524MOL0     N70656   2.202   3.352   2.926 -0.6256  0.0388  0.2153
  524MOL0     C70657   2.356   3.960   3.726  0.7073 -0.3937  0.4248
  524MOL0     C70658   2.437   4.045   3.808 -0.6151  0.1180  0.0706
  524MOL0     C70659   2.651   4.344   4.045  0.1283 -0.1049 -0.5065
  524MOL0     C70660   2.580   4.378   4.157  0.6630  0.1873  0.2669
  524MOL0     C70661   2.628   4.456   4.268  0.2769  0.0029  0.2989
  524MOL0     C70662   2.759   4.501   4.268 -0.6231  0.3445  0.3244
  524MOL0     O70663   2.821   4.559   4.379 -0.5229  0.4616  0.0257
  524MOL0     C70664   2.758   4.571   4.501  0.7205 -0.1045 -0.0997
  524MOL0     C70665   2.870   4.608   4.602  0.1313 -0.7658  0.7163
  524MOL0     C70666   2.801   4.680   4.723  0.3923 -0.3112 -0.2038
  524MOL0     C70667   2.907   4.718   4.837  0.6869  0.5720 -0.5308
  524MOL0     C70668   2.865   4.799   4.949  0.7164  0.5631 -0.2183
  524MOL0     C70669   2.857   4.881   5.039  0.0166  0.7125  0.8572
  524MOL0     C70670   2.838   4.476   4.153  0.6102  0.1652 -0.6589
  524MOL0     C70671   2.780   4.409   4.043  0.1150  0.4037 -0.0864
  524MOL0     C70672   2.861   4.391   3.912 -0.4324 -0.6572 -0.2739
  524MOL0     H70673   2.211   4.282   3.874  1.6563  1.4382 -1.0027
  524MOL0     H70674   2.077   4.147   3.706  0.6097  0.6676 -1.9513
  524MOL0     H70675   2.019   3.827   3.742 -4.8084  0.7790  0.5235
  524MOL0     H70676   1.965   3.969   3.642  0.6059 -0.0688  4.3813
  524MOL0     H70677   1.967   3.795   3.448  2.2138  3.4930  0.7832
  524MOL0     H70678   1.855   3.760   3.575 -0.4022  4.2803  0.0237
  524MOL0     H70679   2.028   3.600   3.679 -3.8464 -0.1329  0.2941
  524MOL0     H70680   2.137   3.627   3.544 -0.8599 -0.9598 -0.0330
  524MOL0     H70681   1.873   3.486   3.523  1.9087 -0.2964  1.9528
  524MOL0     H70682   1.920   3.570   3.389 -1.5116 -1.0080 -0.1678
  524MOL0     H70683   2.082   3.368   3.540  0.0284 -0.4350 -1.7879
  524MOL0     H70684   1.974   3.350   3.401 -4.1151  1.6609  2.1185
  524MOL0     H70685   2.247   3.505   3.409  0.4095  0.0246  1.7062
  524MOL0     H70686   2.214   3.334   3.348 -0.3385  0.3667  1.2912
  524MOL0     H70687   2.124   3.595   3.221  1.5915  0.6491  1.8172
  524MOL0     H70688   2.074   3.428   3.160 -1.9874  1.2328  0.2320
  524MOL0     H70689   2.335   3.565   3.144 -2.1432  1.2111 -3.0341
  524MOL0     H70690   2.337   3.384   3.156 -0.7347 -0.4885 -0.2886
  524MOL0     H70691   2.206   3.683   2.929  2.1124  0.8777 -2.0145
  524MOL0     H70692   2.106   3.690   2.705 -0.4586 -1.5874  2.4781
  524MOL0     H70693   2.263   3.645   2.640  1.8062 -0.5542  1.5385
  524MOL0     H70694   2.010   3.466   2.591 -1.1475 -0.9395 -2.6814
  524MOL0     H70695   2.053   3.604   2.496  0.4283  1.8279  3.0946
  524MOL0     H70696   2.294   3.458   2.501  1.2632 -1.8493  0.3981
  524MOL0     H70697   2.183   3.482   2.361  1.1123  0.3263 -0.0746
  524MOL0     H70698   2.084   3.289   2.402  0.4742  1.5664 -2.2589
  524MOL0     H70699   2.150   3.249   2.559  0.7131  0.2567  0.6654
  524MOL0     H70700   2.329   3.199   2.665  1.8860  0.1376  2.4928
  524MOL0     H70701   2.553   3.126   2.745 -3.0174  0.2740  1.1721
  524MOL0     H70702   2.888   3.032   2.961  0.7336  2.2866 -1.1314
  524MOL0     H70703   3.075   2.896   3.055  1.7979 -0.2384 -0.3503
  524MOL0     H70704   3.211   2.537   2.802  1.2834 -0.3737 -1.2165
  524MOL0     H70705   3.299   2.683   2.772 -0.1233  0.3139 -0.3986
  524MOL0     H70706   3.356   2.498   3.012 -0.3404 -1.3343  0.0892
  524MOL0     H70707   3.423   2.465   2.853 -3.0959 -0.7067  0.1061
  524MOL0     H70708   3.544   2.688   2.882  2.9022 -2.1827  0.7277
  524MOL0     H70709   3.472   2.694   3.047 -2.9491 -0.4624 -0.8107
  524MOL0     H70710   3.630   2.457   2.973 -0.4781  1.9127 -1.9373
  524MOL0     H70711   3.581   2.506   3.129 -2.0660 -0.3140  0.2253
  524MOL0     H70712   3.800   2.661   2.972  2.7545 -1.1948  0.5936
  524MOL0     H70713   3.831   2.545   3.087  0.7315 -0.7737 -1.2104
  524MOL0     H70714   3.831   2.779   3.187  0.9114 -2.6048 -0.0286
  524MOL0     H70715   3.681   2.813   3.110 -1.6651 -0.2842  0.7795
  524MOL0     H70716   3.553   2.668   3.262 -0.6002 -0.7336  1.6275
  524MOL0     H70717   3.639   2.777   3.362 -0.5595 -0.6120  1.1253
  524MOL0     H70718   3.686   2.534   3.450  2.4255 -0.7603  0.4893
  524MOL0     H70719   3.706   2.490   3.289 -0.4507 -1.0475  1.1552
  524MOL0     H70720   3.032   2.639   2.704 -1.5140 -0.0243  0.2520
  524MOL0     H70721   2.858   2.792   2.615 -1.1678  1.3064 -0.2788
  524MOL0     H70722   2.699   3.136   2.343  0.6406 -0.2086  0.4276
  524MOL0     H70723   2.481   3.207   2.265  2.1009  0.9341 -0.4378
  524MOL0     H70724   2.408   3.872   3.688 -0.1842 -0.0617 -1.6742
  524MOL0     H70725   2.545   4.037   3.817 -0.5770  0.4031 -0.1402
  524MOL0     H70726   2.477   4.343   4.164  1.6509 -3.0815  0.1724
  524MOL0     H70727   2.558   4.487   4.344 -1.6627  1.0656 -1.7900
  524MOL0     H70728   2.719   4.474   4.531 -0.5883  0.8637  1.5092
  524MOL0     H70729   2.670   4.636   4.502  1.0896  0.5101  2.9039
  524MOL0     H70730   2.930   4.674   4.539 -2.2539 -0.1590 -1.0994
  524MOL0     H70731   2.929   4.524   4.639  0.3753 -0.1088  1.8803
  524MOL0     H70732   2.739   4.594   4.752  3.2187 -2.3584  0.2292
  524MOL0     H70733   2.743   4.769   4.696 -0.8483 -1.1558 -0.4124
  524MOL0     H70734   2.955   4.622   4.857  1.7916  0.7831 -1.9546
  524MOL0     H70735   2.988   4.774   4.790 -0.3148  1.1606 -1.6295
  524MOL0     H70736   2.836   4.948   5.120 -0.2109  0.2386  1.1937
  524MOL0     H70737   2.932   4.529   4.152 -0.7700  2.7630 -0.5543
  524MOL0     H70738   2.868   4.286   3.882  2.7819 -0.6084  0.0279
  524MOL0     H70739   2.813   4.448   3.832 -0.2885 -3.1456 -2.2648
  524MOL0     H70740   2.959   4.437   3.925 -0.8419  1.1191 -2.7121
  525MOL0     O70741  11.165   3.713  10.985  0.1339 -0.5493 -1.1122
  525MOL0     C70742  11.177   3.734  10.864  0.2351  0.0345  0.8840
  525MOL0     O70743  11.275   3.669  10.790 -0.4248 -0.5503 -0.1610
  525MOL0     C70744  11.304   3.534  10.822  0.0077  0.0397 -0.0699
  525MOL0     C70745  11.283   3.432  10.730  0.5060  0.5942 -0.9017
  525MOL0     C70746  11.280   3.303  10.762 -0.4628  0.4056  0.5656
  525MOL0     C70747  11.316   3.264  10.898  0.9048  0.4923 -0.3316
  525MOL0     O70748  11.314   3.133  10.927  0.0119  0.5401  0.1783
  525MOL0     C70749  11.340   3.090  11.056 -0.0621  0.1948  0.1259
  525MOL0     C70750  11.307   2.939  11.074 -0.2618 -0.7461  0.7628
  525MOL0     C70751  11.305   2.900  11.224  0.4329  0.2067  0.1502
  525MOL0     C70752  11.446   2.907  11.289  0.5833 -0.3306 -0.7499
  525MOL0     C70753  11.469   2.791  11.385  0.5801  0.2637 -0.0467
  525MOL0     C70754  11.361   2.765  11.494 -0.3980 -0.6131  0.4706
  525MOL0     C70755  11.289   2.879  11.570  0.7755 -0.3430 -0.6814
  525MOL0     C70756  11.162   2.828  11.648  0.6067  0.7963  0.7297
  525MOL0     N70757  11.192   2.757  11.777  0.4138 -0.6383 -0.5375
  525MOL0     C70758  11.208   2.620  11.766 -0.3643 -0.4830 -0.5567
  525MOL0     C70759  11.199   2.585  11.899 -0.3457 -0.1424  0.3719
  525MOL0     C70760  11.218   2.439  11.942 -0.7280  0.3771 -0.2033
  525MOL0     C70761  11.217   2.328  11.829  0.6366  0.8153  0.6502
  525MOL0     C70762  11.090   2.325  11.740  0.3501  0.1553 -0.0873
  525MOL0     C70763  10.957   2.331  11.826  1.0254 -0.9304 -0.7019
  525MOL0     O70764  10.937   2.224  11.926  0.0037  0.1218 -0.3597
  525MOL0     C70765  10.813   2.186  11.962 -0.2073 -0.2085  0.5062
  525MOL0     C70766  10.794   2.064  12.020  1.2931 -0.0858 -1.2284
  525MOL0     C70767  10.673   2.033  12.076  0.0820  0.1883 -0.8778
  525MOL0     C70768  10.568   2.122  12.069  0.1713 -0.3289  0.1847
  525MOL0     C70769  10.442   2.077  12.110 -0.1519  0.0658 -0.0693
  525MOL0     O70770  10.421   1.948  12.130 -0.2704 -0.0463  0.1141
  525MOL0     C70771  10.297   1.900  12.156  0.6567  0.4120 -0.0880
  525MOL0     C70772  10.281   1.815  12.265  0.0940 -0.4955 -0.1577
  525MOL0     C70773  10.161   1.764  12.306  0.2198 -0.6412 -0.2817
  525MOL0     C70774  10.041   1.780  12.234  0.5889  0.3666  0.1067
  525MOL0     O70775   9.919   1.735  12.269  0.0100 -0.3583  0.0690
  525MOL0     C70776   9.896   1.668  12.389 -0.1987 -0.1666 -0.5343
  525MOL0     C70777   9.748   1.638  12.401 -0.1500 -0.3883 -0.6479
  525MOL0     C70778   9.726   1.510  12.492 -0.7594  0.5487 -0.2420
  525MOL0     C70779   9.573   1.504  12.519  0.0643 -0.3446 -0.2885
  525MOL0     C70780   9.527   1.367  12.562  0.3938  0.3062  0.9013
  525MOL0     C70781   9.394   1.368  12.640 -0.3630 -0.2556  0.8642
  525MOL0     C70782   9.262   1.398  12.552 -0.7871  0.9217 -0.5271
  525MOL0     C70783   9.211   1.276  12.462  0.2526 -0.6561 -0.5400
  525MOL0    Cl70784   9.044   1.278  12.393 -0.7139 -0.3599  0.3058
  525MOL0     C70785  10.062   1.866  12.125 -0.5326  0.2135 -0.4151
  525MOL0     C70786  10.179   1.930  12.079 -0.8664 -0.0471 -0.1466
  525MOL0     O70787  10.357   2.169  12.114 -0.4263  0.0786 -0.7941
  525MOL0     C70788  10.587   2.246  12.014 -1.3289  0.4924 -0.5494
  525MOL0     C70789  10.711   2.277  11.962  0.3911 -0.3444 -0.3018
  525MOL0     N70790  11.165   2.693  11.978  0.1227 -0.6312  0.4430
  525MOL0     N70791  11.168   2.794  11.905  0.5478 -0.8176  0.2903
  525MOL0     C70792  11.371   3.358  10.978 -1.1321 -0.3061 -0.0919
  525MOL0     C70793  11.368   3.491  10.940  0.1358  0.1857  0.3383
  525MOL0     C70794  11.098   3.837  10.790 -0.5202  1.5928 -0.4580
  525MOL0     C70795  11.071   3.801  10.657 -0.3731  1.5782  0.5260
  525MOL0     C70796  10.977   3.882  10.591  0.2163 -0.7670 -0.1562
  525MOL0     C70797  10.929   4.005  10.638  0.7209  1.1714 -0.2027
  525MOL0     O70798  10.854   4.084  10.554  0.4817  0.4705 -1.1986
  525MOL0     C70799  10.795   4.203  10.595 -0.1641  0.0903 -0.0351
  525MOL0     C70800  10.666   4.188  10.677  0.0207  0.5499 -0.3194
  525MOL0     C70801  10.536   4.132  10.597 -0.2300 -0.7855  0.0059
  525MOL0     C70802  10.410   4.195  10.662  0.0818  0.2215  0.9130
  525MOL0     C70803  10.295   4.109  10.680 -0.2388 -0.5216 -0.0954
  525MOL0     C70804  10.219   4.012  10.694 -0.3186 -0.0552 -0.7939
  525MOL0     C70805  10.949   4.039  10.771 -0.3688  0.1637 -0.2073
  525MOL0     C70806  11.027   3.951  10.846 -0.4838  0.2807 -0.6454
  525MOL0     C70807  11.053   3.984  10.993 -1.1367  0.1934 -0.6830
  525MOL0     H70808  11.254   3.461  10.629 -2.8144 -0.7420 -0.4296
  525MOL0     H70809  11.243   3.232  10.688  0.2447  0.8917 -0.2874
  525MOL0     H70810  11.448   3.104  11.069  0.0389  1.1863 -1.4668
  525MOL0     H70811  11.284   3.146  11.132 -1.4717 -2.8217  1.4897
  525MOL0     H70812  11.366   2.872  11.011 -2.1832 -1.2901 -0.5550
  525MOL0     H70813  11.204   2.932  11.038  0.5830 -1.1078 -1.7818
  525MOL0     H70814  11.275   2.796  11.234 -0.2270  0.5722  2.7341
  525MOL0     H70815  11.231   2.954  11.285 -0.9155 -1.8527  0.4532
  525MOL0     H70816  11.527   2.906  11.215  1.8130 -0.7154  0.5590
  525MOL0     H70817  11.452   3.005  11.336  1.7466 -0.5429 -0.4246
  525MOL0     H70818  11.489   2.706  11.321 -1.7867 -0.1579 -0.2892
  525MOL0     H70819  11.565   2.799  11.438 -0.1347  1.0400  1.2134
  525MOL0     H70820  11.281   2.712  11.443  0.1641 -0.2489 -0.8421
  525MOL0     H70821  11.410   2.698  11.565 -0.8061  1.9533  3.4030
  525MOL0     H70822  11.257   2.954  11.498 -0.1294 -2.7404 -2.9523
  525MOL0     H70823  11.344   2.932  11.648 -3.2702 -1.4232  3.2966
  525MOL0     H70824  11.107   2.921  11.665 -1.6512  0.1366 -2.2184
  525MOL0     H70825  11.100   2.767  11.582  3.4218 -0.5118 -0.8395
  525MOL0     H70826  11.231   2.557  11.681  1.0690 -2.9020  1.4570
  525MOL0     H70827  11.314   2.426  11.994 -0.0573 -0.8082 -1.6538
  525MOL0     H70828  11.137   2.423  12.013 -0.6173  2.8799  0.5662
  525MOL0     H70829  11.304   2.354  11.768 -0.4267 -0.2278 -1.3784
  525MOL0     H70830  11.235   2.229  11.871 -1.5133  0.8893  1.8875
  525MOL0     H70831  11.093   2.235  11.678  1.3461 -1.2123  1.8247
  525MOL0     H70832  11.091   2.409  11.670 -5.1240  0.6925  0.1078
  525MOL0     H70833  10.884   2.336  11.745  2.5618 -2.4669 -2.2722
  525MOL0     H70834  10.938   2.420  11.886 -0.5904 -1.5331 -0.2382
  525MOL0     H70835  10.865   1.982  12.026 -1.3056 -2.3737  1.0698
  525MOL0     H70836  10.663   1.937  12.126 -0.1971  2.0774  3.0218
  525MOL0     H70837  10.378   1.789  12.305  0.9099 -2.3189 -2.9812
  525MOL0     H70838  10.168   1.681  12.376  4.0139  0.5793  1.0034
  525MOL0     H70839   9.937   1.566  12.389 -1.4729 -0.7128  0.1572
  525MOL0     H70840   9.928   1.718  12.480 -4.4576  1.1936  0.4736
  525MOL0     H70841   9.699   1.725  12.445 -0.4991 -0.8497 -0.1007
  525MOL0     H70842   9.717   1.621  12.298  1.9663 -0.4810 -1.3080
  525MOL0     H70843   9.753   1.421  12.434 -3.3471 -1.4275  1.3510
  525MOL0     H70844   9.788   1.522  12.581  1.4196  0.9518 -1.7457
  525MOL0     H70845   9.516   1.528  12.429 -1.1483 -2.4947 -0.1708
  525MOL0     H70846   9.552   1.583  12.592  0.1340  0.7499 -1.4236
  525MOL0     H70847   9.599   1.330  12.635  0.6142  1.2056  1.1515
  525MOL0     H70848   9.529   1.295  12.479  2.6922 -0.3310  1.4576
  525MOL0     H70849   9.364   1.276  12.690 -0.6727  0.6727  2.4733
  525MOL0     H70850   9.411   1.444  12.718  3.4842  0.7205 -0.7370
  525MOL0     H70851   9.282   1.488  12.492  1.6530  2.9026  2.8811
  525MOL0     H70852   9.184   1.426  12.622 -0.2120  1.1707  0.0252
  525MOL0     H70853   9.287   1.260  12.385  1.4570  0.2251  0.4306
  525MOL0     H70854   9.218   1.182  12.519 -0.0939 -0.9180 -0.9221
  525MOL0     H70855   9.971   1.892  12.072 -0.4477  0.8961 -0.2359
  525MOL0     H70856  10.173   1.995  11.992 -1.7592 -0.0964 -0.1338
  525MOL0     H70857  10.516   2.326  11.997 -0.4163  1.3740 -0.3289
  525MOL0     H70858  10.726   2.384  11.949  2.0246 -0.3690  1.1128
  525MOL0     H70859  11.414   3.332  11.074  2.5326  2.9544 -0.5787
  525MOL0     H70860  11.409   3.558  11.014  1.5646  2.8539 -2.6369
  525MOL0     H70861  11.091   3.709  10.605  0.4004  0.1583  3.1700
  525MOL0     H70862  10.962   3.854  10.487  1.0399  3.2505 -1.5439
  525MOL0     H70863  10.774   4.264  10.507 -1.1731  0.6958  0.6070
  525MOL0     H70864  10.872   4.266  10.639 -0.2728  1.3616 -1.5886
  525MOL0     H70865  10.632   4.280  10.724 -0.0798  1.1241 -1.4926
  525MOL0     H70866  10.678   4.122  10.764  1.5589 -0.6791 -1.4157
  525MOL0     H70867  10.542   4.024  10.610  4.9027 -0.4387  2.9092
  525MOL0     H70868  10.542   4.159  10.491  0.3533  5.4523  1.2478
  525MOL0     H70869  10.426   4.239  10.761  1.1546  2.3486 -0.1345
  525MOL0     H70870  10.383   4.282  10.603 -0.5225 -0.4510  0.1834
  525MOL0     H70871  10.146   3.934  10.688 -0.1578 -0.2782  0.0291
  525MOL0     H70872  10.927   4.141  10.801 -0.3105  0.4160 -1.0002
  525MOL0     H70873  10.983   4.064  11.015  0.2039  2.2511 -3.3310
  525MOL0     H70874  11.032   3.898  11.058  2.3557 -1.8879 -2.0105
  525MOL0     H70875  11.155   4.020  11.006 -0.2380 -2.2854 -0.1695
  526MOL0     O70876   3.087   4.613  10.245  0.6824  0.9463  0.1137
  526MOL0     C70877   3.047   4.728  10.255 -0.8378  0.1801 -0.5427
  526MOL0     O70878   3.133   4.836  10.250 -0.0211 -0.2928 -0.0742
  526MOL0     C70879   3.246   4.841  10.161  1.0185  0.7527  0.5188
  526MOL0     C70880   3.265   4.748  10.047  0.5862  0.8942  0.6728
  526MOL0     C70881   3.369   4.762   9.951  0.9448 -0.3397 -1.2789
  526MOL0     C70882   3.449   4.877   9.951 -0.4480 -0.2522  0.7760
  526MOL0     O70883   3.551   4.902   9.860  0.1225  0.0750 -0.4022
  526MOL0     C70884   3.584   4.819   9.748 -0.6442  0.5443 -1.3063
  526MOL0     C70885   3.712   4.856   9.688  0.5866  0.4709 -0.0846
  526MOL0     C70886   3.779   4.734   9.616  0.4682  0.4571 -0.4877
  526MOL0     C70887   3.928   4.750   9.617 -0.0218 -0.3876 -1.3279
  526MOL0     C70888   3.988   4.880   9.556 -0.6050  0.2489 -1.0439
  526MOL0     C70889   4.005   4.889   9.416 -0.3729 -0.6665  0.3293
  526MOL0     C70890   4.077   4.780   9.337  0.1156  0.8128  0.3401
  526MOL0     C70891   4.230   4.798   9.348  0.4096  0.2048  0.1158
  526MOL0     N70892   4.299   4.685   9.299  0.1985  0.7282  0.3164
  526MOL0     C70893   4.401   4.695   9.199 -0.4415 -0.6202 -1.0513
  526MOL0     C70894   4.454   4.574   9.197  0.2863 -0.2568  0.6092
  526MOL0     C70895   4.557   4.534   9.093  1.0349 -0.3738 -0.7125
  526MOL0     C70896   4.648   4.643   9.038 -0.2306  1.0355 -0.0076
  526MOL0     C70897   4.728   4.587   8.915  0.6318  0.3753 -0.9498
  526MOL0     C70898   4.803   4.708   8.843 -0.2746  0.1013 -0.5069
  526MOL0     O70899   4.906   4.667   8.746  0.3298 -0.3873  0.8290
  526MOL0     C70900   4.995   4.754   8.698  0.6334 -0.4933  0.0602
  526MOL0     C70901   5.129   4.718   8.661  0.1008 -0.3049 -0.4729
  526MOL0     C70902   5.215   4.820   8.624 -0.6549  0.1939  1.1945
  526MOL0     C70903   5.185   4.956   8.621 -0.7581 -0.6132 -0.5286
  526MOL0     C70904   5.278   5.065   8.607 -0.1499 -0.5951 -1.4948
  526MOL0     O70905   5.256   5.179   8.681 -0.5013  0.3886 -0.5754
  526MOL0     C70906   5.338   5.285   8.668 -0.1337  0.7967  0.8319
  526MOL0     C70907   5.476   5.284   8.703  0.5275  0.9440  0.1481
  526MOL0     C70908   5.561   5.387   8.664 -0.8231  0.3901  0.5454
  526MOL0     C70909   5.511   5.503   8.595  0.2635  0.0251  0.1753
  526MOL0     O70910   5.590   5.607   8.543  0.0027 -0.0469  0.2316
  526MOL0     C70911   5.715   5.575   8.478 -0.4573 -0.1224 -0.1103
  526MOL0     C70912   5.805   5.696   8.455 -0.9549  1.4451  0.7784
  526MOL0     C70913   5.835   5.759   8.584 -0.2510 -0.9513 -0.3164
  526MOL0     C70914   5.920   5.888   8.570 -0.2326 -0.4978 -0.1972
  526MOL0     C70915   6.062   5.850   8.537 -0.3829 -1.0870 -0.3625
  526MOL0     C70916   6.153   5.974   8.540 -1.0445  0.4561  0.1445
  526MOL0     C70917   6.290   5.935   8.492  0.4860  0.2204  0.6235
  526MOL0     C70918   6.397   6.043   8.497  0.3519  0.6299  0.4316
  526MOL0    Cl70919   6.423   6.114   8.658  0.4355  0.2034  0.4142
  526MOL0     C70920   5.374   5.503   8.560 -0.7063 -0.1082 -1.1674
  526MOL0     C70921   5.297   5.393   8.604 -0.2135  0.5592 -0.2161
  526MOL0     O70922   5.362   5.054   8.526 -0.4181 -0.0418  0.6151
  526MOL0     C70923   5.060   4.983   8.660  0.6684 -0.0479  0.7735
  526MOL0     C70924   4.963   4.890   8.701 -0.4579  0.1399  0.4129
  526MOL0     N70925   4.368   4.486   9.266 -0.4541 -0.0872 -0.0203
  526MOL0     N70926   4.282   4.551   9.334 -0.1193 -0.4052 -0.1031
  526MOL0     C70927   3.429   4.969  10.055 -0.1975 -0.5251  0.0435
  526MOL0     C70928   3.337   4.944  10.162  0.7260 -0.1486 -0.1283
  526MOL0     C70929   2.897   4.751  10.263 -0.1214 -0.0316  0.0698
  526MOL0     C70930   2.845   4.881  10.239 -0.8377 -0.8221 -0.3251
  526MOL0     C70931   2.711   4.913  10.243 -0.9110 -0.4126  0.5582
  526MOL0     C70932   2.614   4.812  10.258 -0.3742  0.4984  0.9983
  526MOL0     O70933   2.479   4.836  10.250  0.1090 -0.1692  0.0005
  526MOL0     C70934   2.378   4.734  10.248  0.0270 -0.0004 -1.4773
  526MOL0     C70935   2.248   4.790  10.203  0.8834  0.5188  0.1607
  526MOL0     C70936   2.199   4.909  10.288  0.9360  0.2945 -0.4478
  526MOL0     C70937   2.079   4.976  10.238  0.0572  1.1048 -0.0689
  526MOL0     C70938   1.962   4.902  10.271  0.6494 -0.5242  0.0192
  526MOL0     C70939   1.862   4.840  10.301  0.1561 -0.2070 -0.0864
  526MOL0     C70940   2.667   4.685  10.292  0.2842 -0.2710  0.5746
  526MOL0     C70941   2.802   4.655  10.295 -0.1378  0.6391  0.5384
  526MOL0     C70942   2.832   4.513  10.349 -0.6202 -0.3474 -0.1848
  526MOL0     H70943   3.197   4.666  10.021  0.7807  0.3112  1.9217
  526MOL0     H70944   3.374   4.679   9.881 -3.0354  0.0924 -2.3378
  526MOL0     H70945   3.592   4.716   9.786 -0.9174 -0.3177 -3.4787
  526MOL0     H70946   3.512   4.819   9.666 -0.8758  0.7784 -1.1033
  526MOL0     H70947   3.790   4.882   9.760  1.4396 -0.5537 -0.6096
  526MOL0     H70948   3.699   4.944   9.625  1.3206  2.5444  2.4855
  526MOL0     H70949   3.748   4.744   9.512  0.6488 -0.9519 -0.6971
  526MOL0     H70950   3.745   4.636   9.652  0.5028  0.8096  0.5344
  526MOL0     H70951   3.964   4.755   9.720  2.0027  1.1008 -2.0185
  526MOL0     H70952   3.975   4.659   9.579 -0.6439 -1.0441 -0.5380
  526MOL0     H70953   3.934   4.962   9.604  1.1041  0.1529  1.2537
  526MOL0     H70954   4.085   4.885   9.607 -1.3699  1.1020  0.4072
  526MOL0     H70955   3.903   4.887   9.377  0.3296  0.4383 -1.6942
  526MOL0     H70956   4.050   4.988   9.401 -0.1604 -0.6411  1.0621
  526MOL0     H70957   4.068   4.811   9.232  1.1838  1.5736  0.4590
  526MOL0     H70958   4.041   4.677   9.349 -1.8422  1.2844 -0.9862
  526MOL0     H70959   4.266   4.885   9.293  1.4517 -1.3229 -1.7662
  526MOL0     H70960   4.258   4.808   9.454 -0.1368 -1.0414  0.4001
  526MOL0     H70961   4.437   4.784   9.148 -1.2978 -0.4948 -1.4549
  526MOL0     H70962   4.616   4.466   9.154  3.4950  2.7609  0.6779
  526MOL0     H70963   4.498   4.491   9.011 -0.0896 -1.3302  0.5415
  526MOL0     H70964   4.599   4.737   9.014 -0.7291  1.1011  1.2036
  526MOL0     H70965   4.710   4.681   9.120  0.5959 -1.8175  0.8086
  526MOL0     H70966   4.675   4.519   8.847  1.0342  0.3514 -1.2476
  526MOL0     H70967   4.809   4.522   8.949 -1.0677 -0.7072  1.2611
  526MOL0     H70968   4.862   4.761   8.918 -1.4097 -0.2027  0.6257
  526MOL0     H70969   4.736   4.780   8.795 -1.6757  0.1327  1.4056
  526MOL0     H70970   5.169   4.617   8.666  1.2804 -0.0314 -2.9664
  526MOL0     H70971   5.316   4.790   8.599 -2.4907 -3.8932 -2.4831
  526MOL0     H70972   5.512   5.198   8.758  0.9395  2.4110  2.2754
  526MOL0     H70973   5.668   5.377   8.679 -0.1159  4.4927 -0.7420
  526MOL0     H70974   5.767   5.503   8.541 -2.2025 -0.5224  0.9560
  526MOL0     H70975   5.689   5.524   8.386 -1.9616 -1.8909  1.2120
  526MOL0     H70976   5.902   5.651   8.431 -0.7676  1.0090  2.2382
  526MOL0     H70977   5.783   5.762   8.371  1.1634  1.9407  0.5465
  526MOL0     H70978   5.732   5.785   8.609 -0.4194 -1.6942 -0.2169
  526MOL0     H70979   5.867   5.700   8.671 -3.8796  0.7299  2.3903
  526MOL0     H70980   5.913   5.951   8.660  0.3511 -0.9696  0.1836
  526MOL0     H70981   5.877   5.937   8.482 -1.3067 -3.6706 -1.5718
  526MOL0     H70982   6.075   5.805   8.438  1.0832  2.3488 -1.8826
  526MOL0     H70983   6.104   5.783   8.613  2.3055 -0.2083 -0.9699
  526MOL0     H70984   6.129   6.053   8.467  3.4375  0.6989 -1.3833
  526MOL0     H70985   6.168   6.011   8.642  1.9736 -0.7984  0.2512
  526MOL0     H70986   6.286   5.922   8.383 -1.8062  1.5616  0.4744
  526MOL0     H70987   6.326   5.851   8.552  0.3537  0.3044  0.8218
  526MOL0     H70988   6.491   5.999   8.464  0.6899 -0.0333  2.2092
  526MOL0     H70989   6.381   6.120   8.421  1.8569  0.2393 -0.3236
  526MOL0     H70990   5.335   5.579   8.493 -3.2376 -0.3467 -0.0659
  526MOL0     H70991   5.188   5.398   8.602 -0.1853  1.5511 -0.0029
  526MOL0     H70992   5.031   5.087   8.674 -1.6326 -0.5106 -0.0569
  526MOL0     H70993   4.869   4.940   8.719  0.0331  0.9797  0.7241
  526MOL0     H70994   3.504   5.048  10.061 -1.1223  0.3875 -0.1415
  526MOL0     H70995   3.327   5.024  10.235  0.6916  0.6714 -1.0134
  526MOL0     H70996   2.904   4.972  10.229 -0.6846 -0.6556  1.6272
  526MOL0     H70997   2.674   5.011  10.218 -2.6375 -0.6892  1.8383
  526MOL0     H70998   2.368   4.685  10.345  1.2104  1.1256 -0.7571
  526MOL0     H70999   2.405   4.648  10.186 -0.7151 -1.3857  0.0417
  526MOL0     H71000   2.176   4.708  10.201  1.1315  0.3087 -0.2308
  526MOL0     H71001   2.266   4.826  10.102 -0.7609  2.5894  0.5316
  526MOL0     H71002   2.285   4.976  10.303  0.4867  0.8754 -0.4357
  526MOL0     H71003   2.179   4.865  10.386  3.6291 -4.1736 -1.6046
  526MOL0     H71004   2.065   5.078  10.276 -0.4722  0.5992  1.1342
  526MOL0     H71005   2.101   4.986  10.131  1.0948  0.9528  0.1186
  526MOL0     H71006   1.777   4.807  10.357  0.6098  0.3170  0.9526
  526MOL0     H71007   2.608   4.602  10.330 -2.2072  1.9108  1.7723
  526MOL0     H71008   2.855   4.519  10.456 -2.6532  0.5419  0.2584
  526MOL0     H71009   2.747   4.446  10.332 -1.5315  0.2232  1.8696
  526MOL0     H71010   2.916   4.462  10.300  1.5771  2.0666  0.8395
  527MOL0     O71011  10.984  10.709   1.613 -0.3696  0.0122 -0.0751
  527MOL0     C71012  11.059  10.673   1.705  0.1805 -0.7201  0.5210
  527MOL0     O71013  11.199  10.702   1.709  1.5015  0.4525 -0.5531
  527MOL0     C71014  11.264  10.732   1.595 -0.4225  0.0833 -0.2173
  527MOL0     C71015  11.355  10.831   1.594  0.5567  0.2134 -0.6711
  527MOL0     C71016  11.409  10.879   1.480 -0.3574 -0.4675  0.6099
  527MOL0     C71017  11.371  10.837   1.352 -0.4944  0.3945  0.1658
  527MOL0     O71018  11.432  10.903   1.250 -0.4531 -0.0301  0.0766
  527MOL0     C71019  11.420  10.843   1.124 -0.6933 -0.3329 -0.3315
  527MOL0     C71020  11.504  10.920   1.029 -0.1914 -0.1664  0.4971
  527MOL0     C71021  11.480  10.884   0.883 -0.1901 -1.0505 -0.1149
  527MOL0     C71022  11.538  10.747   0.852 -0.1712 -0.2331 -0.3739
  527MOL0     C71023  11.512  10.710   0.710  0.4907 -0.3994 -0.4390
  527MOL0     C71024  11.580  10.580   0.670  0.2291  0.3447  0.6352
  527MOL0     C71025  11.509  10.447   0.722  0.3195  0.1429  0.3167
  527MOL0     C71026  11.431  10.367   0.616  0.0638 -0.3692 -1.1649
  527MOL0     N71027  11.508  10.265   0.549  0.1123 -0.0166 -0.4906
  527MOL0     C71028  11.537  10.149   0.610 -0.5280  0.0095 -0.1047
  527MOL0     C71029  11.611  10.086   0.515  0.7274 -0.4129  0.0306
  527MOL0     C71030  11.675   9.955   0.517  0.1408 -0.0555  0.6032
  527MOL0     C71031  11.798   9.939   0.427  0.5082 -0.6645  0.2063
  527MOL0     C71032  11.905  10.035   0.477 -0.4800 -0.8507  0.1902
  527MOL0     C71033  12.003   9.987   0.584  0.4408  0.6800 -1.0110
  527MOL0     O71034  12.087   9.880   0.539 -0.1675 -0.4060 -0.1986
  527MOL0     C71035  12.209   9.881   0.594 -0.3303 -0.7197 -0.2132
  527MOL0     C71036  12.315   9.885   0.509 -0.5309 -0.2785  0.4873
  527MOL0     C71037  12.456   9.889   0.547  0.0326  0.1925 -0.2595
  527MOL0     C71038  12.483   9.893   0.688 -0.6395 -0.3664 -0.3656
  527MOL0     C71039  12.622   9.887   0.743 -0.0474 -0.6031 -0.1902
  527MOL0     O71040  12.726   9.839   0.665 -0.3992 -0.4821 -0.4983
  527MOL0     C71041  12.858   9.836   0.718  0.1693 -0.4699 -0.8675
  527MOL0     C71042  12.902   9.834   0.850 -0.3333 -0.6580  0.0827
  527MOL0     C71043  13.034   9.821   0.883  0.0481  0.4187  0.1806
  527MOL0     C71044  13.140   9.837   0.792 -0.9776  0.5097  0.8079
  527MOL0     O71045  13.276   9.827   0.815 -0.4220 -0.3050  0.8741
  527MOL0     C71046  13.307   9.887   0.945 -0.7286 -1.1633 -0.4678
  527MOL0     C71047  13.456   9.906   0.953 -0.4963  0.3809  0.5249
  527MOL0     C71048  13.507  10.016   0.855 -0.4783  0.2402  0.8671
  527MOL0     C71049  13.651  10.053   0.890  0.8880 -0.2770 -0.0420
  527MOL0     C71050  13.702  10.154   0.790 -0.0084  0.0527  0.5275
  527MOL0     C71051  13.821  10.226   0.844 -0.8193  0.4456 -0.4860
  527MOL0     C71052  13.877  10.327   0.736  0.6049 -0.0843  0.1707
  527MOL0     C71053  14.014  10.394   0.774  0.3675  0.3998 -0.1788
  527MOL0    Cl71054  14.135  10.258   0.789 -0.2013 -0.1729  0.0608
  527MOL0     C71055  13.092   9.837   0.659 -0.5052  0.4492 -0.3567
  527MOL0     C71056  12.958   9.844   0.624  0.2464  1.1198 -0.7265
  527MOL0     O71057  12.635   9.921   0.859 -0.0757  0.5176  0.3553
  527MOL0     C71058  12.379   9.885   0.783  1.3605  0.2466  0.3484
  527MOL0     C71059  12.244   9.880   0.737  0.4765  0.1432 -0.1398
  527MOL0     N71060  11.602  10.160   0.399  0.1554  0.0982  0.4463
  527MOL0     N71061  11.544  10.271   0.419  0.4792 -0.7515 -1.0211
  527MOL0     C71062  11.287  10.728   1.353  0.9462  0.0487  0.1684
  527MOL0     C71063  11.224  10.676   1.468 -0.6773 -0.5509 -0.5594
  527MOL0     C71064  10.993  10.627   1.830 -0.6793  0.2404  0.6966
  527MOL0     C71065  10.874  10.553   1.829  0.5927 -0.6417 -0.0563
  527MOL0     C71066  10.809  10.513   1.945  0.0873  0.2376 -0.9481
  527MOL0     C71067  10.868  10.537   2.067  0.5679  0.0106  0.3122
  527MOL0     O71068  10.792  10.507   2.172  0.4787  0.8253  0.2448
  527MOL0     C71069  10.789  10.362   2.198 -0.4419  0.4979  0.3477
  527MOL0     C71070  10.648  10.304   2.163  0.4619  0.3630 -0.6077
  527MOL0     C71071  10.530  10.364   2.245 -0.5164 -0.0777 -0.1156
  527MOL0     C71072  10.386  10.339   2.194 -0.2917 -0.5655 -0.8418
  527MOL0     C71073  10.375  10.205   2.131 -1.3285 -0.2813 -0.2202
  527MOL0     C71074  10.379  10.100   2.065 -0.3690 -0.3603 -0.0249
  527MOL0     C71075  10.981  10.613   2.070  0.0226  0.4074  0.8085
  527MOL0     C71076  11.041  10.671   1.956 -0.6107 -0.6774  0.0669
  527MOL0     C71077  11.154  10.765   1.985 -0.2758  0.1641 -0.2624
  527MOL0     H71078  11.398  10.872   1.685  0.6710  1.4562 -1.2799
  527MOL0     H71079  11.485  10.956   1.493  1.8038 -2.1996 -1.0543
  527MOL0     H71080  11.439  10.736   1.128 -1.7548 -0.6359  5.2013
  527MOL0     H71081  11.315  10.850   1.092 -0.8707 -2.0076 -0.1948
  527MOL0     H71082  11.612  10.915   1.047  0.0797 -0.2649 -1.0268
  527MOL0     H71083  11.479  11.025   1.048 -1.3301 -0.3691  0.1779
  527MOL0     H71084  11.534  10.958   0.822  1.2885 -1.2991  0.8412
  527MOL0     H71085  11.375  10.888   0.853 -0.0681  3.2904 -0.7105
  527MOL0     H71086  11.646  10.761   0.865 -0.3526  4.2286 -1.7952
  527MOL0     H71087  11.506  10.664   0.916 -0.2096  1.6789  2.2774
  527MOL0     H71088  11.405  10.706   0.693  0.4812  1.8028 -1.1866
  527MOL0     H71089  11.556  10.790   0.650  2.7222  0.2306  1.8414
  527MOL0     H71090  11.583  10.583   0.560 -0.8680  0.8668  0.6033
  527MOL0     H71091  11.681  10.580   0.711  0.5674  1.3120 -0.1369
  527MOL0     H71092  11.446  10.474   0.808  1.9025 -0.6039  1.7624
  527MOL0     H71093  11.590  10.387   0.763  0.3129 -0.2577 -0.2454
  527MOL0     H71094  11.338  10.328   0.660 -0.8213 -0.4993 -3.0663
  527MOL0     H71095  11.405  10.433   0.533  1.0315 -0.7705 -1.8060
  527MOL0     H71096  11.521  10.125   0.714  1.5694  2.8841  1.0126
  527MOL0     H71097  11.706   9.926   0.618 -2.6722  0.2492  1.6460
  527MOL0     H71098  11.600   9.881   0.489  0.9647 -0.3406 -0.9799
  527MOL0     H71099  11.844   9.839   0.429  0.2960 -0.7639  0.1182
  527MOL0     H71100  11.764   9.964   0.326 -0.4756  2.2094  1.1509
  527MOL0     H71101  11.863  10.132   0.508 -2.8264 -1.0559 -1.9924
  527MOL0     H71102  11.959  10.070   0.389 -0.9452  0.7521  0.4995
  527MOL0     H71103  11.942   9.959   0.670 -1.7087 -1.5156 -3.0970
  527MOL0     H71104  12.064  10.070   0.620 -0.6125  0.4491  1.5368
  527MOL0     H71105  12.299   9.882   0.402  0.1166 -0.4990  0.3916
  527MOL0     H71106  12.535   9.884   0.473  0.0229  1.1225 -0.3441
  527MOL0     H71107  12.830   9.844   0.931 -2.4204  1.4370 -1.8502
  527MOL0     H71108  13.049   9.795   0.987 -3.3474 -5.1877 -0.3059
  527MOL0     H71109  13.250   9.980   0.955 -4.4031 -3.3984  1.8427
  527MOL0     H71110  13.276   9.826   1.030 -0.0015  0.9981  1.4657
  527MOL0     H71111  13.487   9.932   1.055 -0.5989  1.3501  0.3199
  527MOL0     H71112  13.504   9.813   0.922  1.4885  0.6485  2.5599
  527MOL0     H71113  13.498   9.991   0.749  0.7776 -0.1045  0.8233
  527MOL0     H71114  13.457  10.113   0.858 -1.8285 -0.2577 -2.1552
  527MOL0     H71115  13.715   9.965   0.887  0.9926 -0.2483  0.9308
  527MOL0     H71116  13.648  10.104   0.987  0.2985  2.3386 -1.3378
  527MOL0     H71117  13.627  10.232   0.771  0.6858  0.8960  1.1539
  527MOL0     H71118  13.716  10.123   0.686  2.6411  1.1780  0.4671
  527MOL0     H71119  13.800  10.283   0.935 -0.0412 -0.7129  0.4485
  527MOL0     H71120  13.896  10.154   0.878 -1.0391  0.3137 -0.2809
  527MOL0     H71121  13.800  10.405   0.730 -0.4610 -1.2244 -2.5108
  527MOL0     H71122  13.869  10.280   0.638 -2.5703 -1.1298  0.8179
  527MOL0     H71123  14.032  10.463   0.691 -0.9586 -2.1247 -2.7529
  527MOL0     H71124  14.016  10.444   0.871 -1.4669  3.6677 -1.6656
  527MOL0     H71125  13.162   9.859   0.579  0.0335  2.7292  0.6638
  527MOL0     H71126  12.916   9.862   0.525 -1.6032 -0.6043 -0.3251
  527MOL0     H71127  12.403   9.870   0.887 -0.4712  0.2873  0.8145
  527MOL0     H71128  12.157   9.868   0.800 -0.2086  1.5371 -0.7625
  527MOL0     H71129  11.264  10.679   1.260  3.0571 -2.5319  0.8851
  527MOL0     H71130  11.158  10.591   1.483 -1.7171  0.7133  3.1647
  527MOL0     H71131  10.820  10.533   1.737  0.2659 -0.5045  0.1027
  527MOL0     H71132  10.707  10.477   1.946 -0.7057  2.1558 -2.9313
  527MOL0     H71133  10.821  10.335   2.299  1.3259 -1.4805 -0.6615
  527MOL0     H71134  10.867  10.321   2.133 -0.8678 -0.4686  0.4385
  527MOL0     H71135  10.656  10.197   2.183  2.0650  1.1427  4.4098
  527MOL0     H71136  10.620  10.312   2.058  0.6197 -2.5674 -0.9625
  527MOL0     H71137  10.547  10.472   2.238  0.0596 -0.1195  0.6015
  527MOL0     H71138  10.535  10.333   2.349  3.6503 -1.4241 -0.5132
  527MOL0     H71139  10.316  10.343   2.278 -1.1824 -1.1945 -1.5373
  527MOL0     H71140  10.358  10.407   2.112 -2.0592 -1.5148 -1.0713
  527MOL0     H71141  10.387  10.005   2.015 -0.5229 -0.6683  0.5210
  527MOL0     H71142  11.038  10.644   2.158  2.6712  2.1996 -1.3397
  527MOL0     H71143  11.137  10.796   2.088  1.1473 -0.2574  0.1251
  527MOL0     H71144  11.250  10.712   1.980 -0.5077 -0.3734  0.6667
  527MOL0     H71145  11.168  10.850   1.918 -0.2907 -0.1671 -0.6917
  528MOL0     O71146   4.517   3.955  10.639 -1.0349 -1.4086  0.0223
  528MOL0     C71147   4.426   3.875  10.644  0.5447  0.3885 -0.3100
  528MOL0     O71148   4.303   3.892  10.714 -0.4755 -0.2733  0.4527
  528MOL0     C71149   4.280   4.011  10.779  0.1868 -0.3809 -0.0580
  528MOL0     C71150   4.143   4.067  10.782 -0.3653 -0.2285 -0.1072
  528MOL0     C71151   4.104   4.160  10.876 -0.3745 -0.5866  0.2503
  528MOL0     C71152   4.192   4.215  10.968  0.5593 -0.8898 -0.2464
  528MOL0     O71153   4.157   4.310  11.061 -0.0929  0.0521 -0.5059
  528MOL0     C71154   4.022   4.322  11.100 -0.0533 -0.3421 -0.3033
  528MOL0     C71155   4.018   4.436  11.215 -0.9694 -1.1243 -0.0364
  528MOL0     C71156   4.034   4.375  11.350 -0.0070 -0.5100 -1.0174
  528MOL0     C71157   4.093   4.480  11.451 -0.6183 -0.3538  0.1611
  528MOL0     C71158   4.141   4.408  11.576 -0.2735  0.5794  0.3560
  528MOL0     C71159   4.026   4.348  11.662 -0.2169 -0.5201  0.2937
  528MOL0     C71160   4.079   4.274  11.785 -0.0218  0.3990  0.7493
  528MOL0     C71161   4.108   4.363  11.906 -1.2510  0.3117 -0.1257
  528MOL0     N71162   4.005   4.457  11.934 -0.0422  0.6298  0.2455
  528MOL0     C71163   3.871   4.428  11.971  0.2176 -0.6869 -0.5003
  528MOL0     C71164   3.801   4.548  11.967 -0.2222  0.2976  0.1862
  528MOL0     C71165   3.647   4.562  11.993 -0.0648  0.0463 -0.5586
  528MOL0     C71166   3.599   4.519  12.139  0.7301  0.1642  0.7825
  528MOL0     C71167   3.459   4.579  12.177  0.0947 -0.0859 -0.1866
  528MOL0     C71168   3.333   4.543  12.102 -0.3928  0.2469  0.2286
  528MOL0     O71169   3.350   4.464  11.978  0.5634 -0.0051  1.3218
  528MOL0     C71170   3.346   4.326  11.983  0.0437  0.1314  0.9411
  528MOL0     C71171   3.324   4.266  11.866 -0.1951  0.8403 -0.0035
  528MOL0     C71172   3.332   4.131  11.843 -0.6200 -0.0930 -0.8861
  528MOL0     C71173   3.337   4.045  11.957 -0.1535  0.2985  0.1362
  528MOL0     C71174   3.351   3.899  11.949 -0.7645  1.0600  0.0660
  528MOL0     O71175   3.430   3.839  12.037  0.4367 -0.1951  0.2074
  528MOL0     C71176   3.453   3.704  12.022  0.2110  0.3562 -0.0946
  528MOL0     C71177   3.348   3.612  12.037  0.1943 -0.7339 -0.2589
  528MOL0     C71178   3.372   3.477  12.044 -1.1881  0.4288  0.7613
  528MOL0     C71179   3.498   3.428  12.024 -0.0169 -0.1242  0.8015
  528MOL0     O71180   3.518   3.286  12.020 -0.0052  0.9471 -0.4771
  528MOL0     C71181   3.618   3.220  11.930 -0.8853  0.3960 -0.4691
  528MOL0     C71182   3.609   3.068  11.939  0.5028  0.2001  0.4234
  528MOL0     C71183   3.638   3.013  12.075  0.0108 -0.1361 -0.4020
  528MOL0     C71184   3.623   2.864  12.074  0.7120  0.3981  0.2704
  528MOL0     C71185   3.639   2.807  12.211 -0.3458 -0.0656 -0.4376
  528MOL0     C71186   3.606   2.655  12.216  0.3727 -0.6088  0.2951
  528MOL0     C71187   3.705   2.556  12.160 -0.3849  0.7033 -0.1540
  528MOL0     C71188   3.638   2.419  12.163  0.8518  0.1410 -0.5098
  528MOL0    Cl71189   3.547   2.368  12.317  0.4590  0.0897 -0.1179
  528MOL0     C71190   3.603   3.518  12.005 -0.8462 -0.4216 -0.0680
  528MOL0     C71191   3.586   3.657  12.004 -0.4373  0.0090 -0.0756
  528MOL0     O71192   3.299   3.833  11.856  0.2074 -0.7825 -0.0405
  528MOL0     C71193   3.346   4.101  12.084 -0.2767 -0.1078  0.3630
  528MOL0     C71194   3.344   4.242  12.100 -0.0679 -0.5774 -0.0505
  528MOL0     N71195   3.890   4.654  11.921 -0.5870  0.2197  0.0781
  528MOL0     N71196   4.013   4.594  11.908 -0.2177 -0.2942 -0.4317
  528MOL0     C71197   4.323   4.165  10.975 -0.2911 -0.7804  0.5589
  528MOL0     C71198   4.368   4.062  10.877 -0.3832 -0.1552 -0.4388
  528MOL0     C71199   4.448   3.752  10.549  0.0337 -0.3837  0.3485
  528MOL0     C71200   4.549   3.754  10.449 -0.0573 -0.6662 -0.3572
  528MOL0     C71201   4.552   3.664  10.348  0.6533 -0.0045 -0.1785
  528MOL0     C71202   4.467   3.554  10.347  0.2090 -0.6731 -0.2616
  528MOL0     O71203   4.466   3.463  10.252  0.0385 -0.1479  0.1635
  528MOL0     C71204   4.345   3.474  10.175 -0.0817 -0.0029  0.9200
  528MOL0     C71205   4.357   3.381  10.058 -0.0570  0.7418  0.3194
  528MOL0     C71206   4.216   3.331  10.001 -0.1335  0.4927  0.5637
  528MOL0     C71207   4.217   3.264   9.868 -0.0784  0.2437  0.7229
  528MOL0     C71208   4.087   3.254   9.812 -0.1440  0.0548  0.3970
  528MOL0     C71209   3.970   3.252   9.777 -0.4606  0.6583 -0.0947
  528MOL0     C71210   4.371   3.544  10.439  0.9011 -0.3350  0.2580
  528MOL0     C71211   4.359   3.637  10.548 -0.1991 -0.5508  0.3533
  528MOL0     C71212   4.262   3.604  10.650 -1.1059 -0.0666 -0.0025
  528MOL0     H71213   4.069   4.022  10.717  0.4005  2.8453 -3.5068
  528MOL0     H71214   4.002   4.193  10.893  0.1756  1.2449  0.2113
  528MOL0     H71215   3.960   4.346  11.013 -1.4344 -0.1402  0.7023
  528MOL0     H71216   3.975   4.230  11.137 -0.1982  1.0451  3.4570
  528MOL0     H71217   3.923   4.490  11.207 -0.2101  0.0465 -2.1709
  528MOL0     H71218   4.099   4.508  11.195 -1.0312 -1.0622 -0.0652
  528MOL0     H71219   4.096   4.287  11.330  0.7941  0.2863 -2.1671
  528MOL0     H71220   3.942   4.329  11.387  1.7076 -3.6663 -0.3987
  528MOL0     H71221   4.178   4.541  11.422 -0.4546 -1.0192 -0.8051
  528MOL0     H71222   4.015   4.551  11.482  0.2296  1.9968 -2.6547
  528MOL0     H71223   4.206   4.324  11.549 -1.0813  0.1827 -0.3955
  528MOL0     H71224   4.199   4.479  11.636 -2.2241 -0.1788  3.3814
  528MOL0     H71225   3.974   4.439  11.691 -0.1984  0.3466 -2.1112
  528MOL0     H71226   3.955   4.283  11.610 -0.9003  2.0082 -2.1162
  528MOL0     H71227   4.168   4.214  11.763 -0.5000 -1.9450  4.3861
  528MOL0     H71228   3.998   4.208  11.818 -1.0501  0.9271 -0.6102
  528MOL0     H71229   4.119   4.296  11.992  4.3430  1.9338  0.8891
  528MOL0     H71230   4.202   4.420  11.902 -1.8241  1.5138  1.9135
  528MOL0     H71231   3.830   4.332  11.999 -0.6370 -0.0544  0.4531
  528MOL0     H71232   3.619   4.666  11.979 -2.6238 -0.0331  2.7533
  528MOL0     H71233   3.593   4.511  11.912 -1.9763  5.7444 -3.3549
  528MOL0     H71234   3.593   4.412  12.160 -4.2019 -0.0910 -0.6703
  528MOL0     H71235   3.671   4.560  12.209  1.8319 -1.1107  0.4309
  528MOL0     H71236   3.465   4.688  12.183  0.7618 -0.0470 -1.3631
  528MOL0     H71237   3.439   4.546  12.280  0.6841 -1.9891 -0.6503
  528MOL0     H71238   3.274   4.631  12.072 -2.0611 -0.4592  1.2998
  528MOL0     H71239   3.262   4.495  12.170  0.3071 -0.2638  0.6111
  528MOL0     H71240   3.308   4.327  11.778  1.4131  0.2640 -0.7358
  528MOL0     H71241   3.334   4.096  11.741  0.9639  0.1098 -0.9445
  528MOL0     H71242   3.243   3.641  12.042  1.2444  3.7977  0.4809
  528MOL0     H71243   3.294   3.403  12.064  0.6525 -1.3154  1.8430
  528MOL0     H71244   3.605   3.260  11.829  3.7768  0.3158 -1.3069
  528MOL0     H71245   3.711   3.243  11.983 -1.4371  2.9309 -0.4881
  528MOL0     H71246   3.512   3.028  11.909 -0.8832  1.1795  3.2532
  528MOL0     H71247   3.674   3.035  11.857 -0.9070  1.2120 -1.1536
  528MOL0     H71248   3.736   3.040  12.115 -1.1078  5.0684 -0.5068
  528MOL0     H71249   3.569   3.062  12.144 -0.9270  0.5901 -1.7887
  528MOL0     H71250   3.692   2.814  12.005 -0.0089 -0.6352  0.2792
  528MOL0     H71251   3.519   2.846  12.046  0.6034  1.7220 -0.2315
  528MOL0     H71252   3.562   2.853  12.274  1.1854 -0.4965  1.8674
  528MOL0     H71253   3.733   2.836  12.257 -2.0108  0.1657  3.2041
  528MOL0     H71254   3.596   2.632  12.323  1.0726 -0.4693  0.3922
  528MOL0     H71255   3.511   2.646  12.163  0.3802 -1.3841  0.3995
  528MOL0     H71256   3.795   2.541  12.221 -0.3488 -3.9966 -0.9492
  528MOL0     H71257   3.749   2.572  12.061  3.9333 -2.1523  1.0111
  528MOL0     H71258   3.571   2.404  12.078 -0.9316 -0.3203  0.9170
  528MOL0     H71259   3.716   2.343  12.153  3.7739  2.6661  1.2277
  528MOL0     H71260   3.703   3.481  11.986  0.1576 -0.3145  3.9863
  528MOL0     H71261   3.659   3.734  11.981 -1.3687  0.1161 -3.2266
  528MOL0     H71262   3.351   4.032  12.168 -0.0497 -0.4037  0.1123
  528MOL0     H71263   3.378   4.296  12.188  1.4785  0.1800 -1.0557
  528MOL0     H71264   4.390   4.196  11.055 -1.5211  1.0620  0.9458
  528MOL0     H71265   4.465   4.023  10.904  0.4203  2.2915  0.4572
  528MOL0     H71266   4.623   3.832  10.434  0.3069 -0.8059  0.6484
  528MOL0     H71267   4.627   3.690  10.274 -0.6956  1.5216 -1.0937
  528MOL0     H71268   4.325   3.576  10.142 -1.4009 -0.7398 -0.7122
  528MOL0     H71269   4.254   3.445  10.228  0.3037  1.2942  2.3567
  528MOL0     H71270   4.412   3.291  10.087  0.0618  1.4748  2.5727
  528MOL0     H71271   4.401   3.430   9.971 -2.2083  1.2332 -0.5609
  528MOL0     H71272   4.161   3.425   9.985  0.7725  0.8749 -0.3861
  528MOL0     H71273   4.155   3.284  10.079  0.5344 -1.2279  0.0780
  528MOL0     H71274   4.270   3.318   9.790 -0.6144 -1.8064 -1.1731
  528MOL0     H71275   4.265   3.165   9.870  2.9852  1.6191  2.0626
  528MOL0     H71276   3.865   3.256   9.757 -0.2619 -0.3894 -1.5053
  528MOL0     H71277   4.301   3.461  10.433  2.3650 -1.6481  0.7467
  528MOL0     H71278   4.309   3.618  10.748 -2.4303 -0.7895  0.7630
  528MOL0     H71279   4.170   3.662  10.641 -1.8764 -0.5472  3.3478
  528MOL0     H71280   4.224   3.502  10.649 -0.2830 -0.3893 -1.7662
  529MOL0     O71281  10.708   3.789   1.388  0.4657 -0.2210  0.5318
  529MOL0     C71282  10.709   3.915   1.365  0.1241  0.4621 -0.2708
  529MOL0     O71283  10.782   3.978   1.269 -0.3419 -0.6181 -0.6266
  529MOL0     C71284  10.877   3.896   1.212  0.0561  0.1720  0.4532
  529MOL0     C71285  11.009   3.938   1.197  0.5742  0.0819 -1.1841
  529MOL0     C71286  11.108   3.861   1.123  0.7694  0.0022 -0.1221
  529MOL0     C71287  11.062   3.750   1.047 -0.2257  0.7330  0.0136
  529MOL0     O71288  11.139   3.699   0.952 -0.2993 -0.0945 -0.4440
  529MOL0     C71289  11.124   3.561   0.919  0.4518 -0.5703  0.1710
  529MOL0     C71290  11.261   3.511   0.852 -0.5312 -0.3072 -0.4587
  529MOL0     C71291  11.361   3.512   0.974  0.4926 -0.0621  0.6924
  529MOL0     C71292  11.496   3.455   0.943  0.4977 -0.1183  0.2003
  529MOL0     C71293  11.598   3.527   1.038 -0.3876 -0.3555 -0.0167
  529MOL0     C71294  11.606   3.469   1.183  0.3801  0.0747 -1.6783
  529MOL0     C71295  11.691   3.558   1.267 -0.2938  1.1414  0.4677
  529MOL0     C71296  11.617   3.676   1.333  0.4925 -0.6999 -0.1971
  529MOL0     N71297  11.706   3.769   1.412  0.0220 -0.7269  0.8221
  529MOL0     C71298  11.645   3.866   1.482 -0.1198 -0.4121 -0.0106
  529MOL0     C71299  11.736   3.966   1.509  0.2514 -1.1410 -0.6150
  529MOL0     C71300  11.720   4.080   1.601  1.0610 -0.6920 -0.3443
  529MOL0     C71301  11.663   4.202   1.531  0.4392  1.1549 -0.2589
  529MOL0     C71302  11.604   4.313   1.630 -0.3955 -0.1647  0.1870
  529MOL0     C71303  11.689   4.375   1.745  0.1471  0.6587 -0.5675
  529MOL0     O71304  11.809   4.446   1.697 -0.1249 -0.2912 -0.7192
  529MOL0     C71305  11.820   4.575   1.746  0.4518 -0.4547  0.4405
  529MOL0     C71306  11.879   4.603   1.865 -0.5704  0.1551 -0.9951
  529MOL0     C71307  11.866   4.729   1.930 -0.1665 -0.2624 -0.9432
  529MOL0     C71308  11.812   4.839   1.861  0.0801 -1.0738  0.2737
  529MOL0     C71309  11.813   4.979   1.922  0.5361  0.4822  0.1052
  529MOL0     O71310  11.826   4.995   2.066 -0.5555  0.6405 -0.6574
  529MOL0     C71311  11.854   5.125   2.106  0.6159  0.0188  0.0441
  529MOL0     C71312  11.752   5.212   2.097  0.4847  0.6767  0.4997
  529MOL0     C71313  11.775   5.350   2.117 -0.5473  0.1487 -0.0639
  529MOL0     C71314  11.901   5.389   2.156 -0.6997 -0.2647  0.5110
  529MOL0     O71315  11.929   5.526   2.178  0.2718 -0.2741 -0.2632
  529MOL0     C71316  11.976   5.568   2.306 -0.7260 -0.1149 -0.2096
  529MOL0     C71317  11.918   5.706   2.341  0.2298 -0.1758  0.4224
  529MOL0     C71318  11.993   5.817   2.263 -0.1169 -0.3700  0.2301
  529MOL0     C71319  12.004   5.953   2.345 -0.2385  0.4053  0.6233
  529MOL0     C71320  11.982   6.078   2.253 -0.0325  0.9992 -0.3490
  529MOL0     C71321  11.838   6.102   2.207 -0.1230  1.0417  0.2361
  529MOL0     C71322  11.834   6.234   2.140  0.7097 -0.1015 -0.9199
  529MOL0     C71323  11.686   6.285   2.129  0.1357  1.0776  0.6388
  529MOL0    Cl71324  11.633   6.252   1.953  0.3115 -0.4943  0.5351
  529MOL0     C71325  12.011   5.298   2.181  0.2412  0.0300 -0.5964
  529MOL0     C71326  11.982   5.162   2.159  0.4290  0.0302 -0.4534
  529MOL0     O71327  11.814   5.069   1.833  0.5886 -0.4387 -0.7631
  529MOL0     C71328  11.749   4.814   1.741 -0.2797 -0.9852 -0.9359
  529MOL0     C71329  11.767   4.686   1.685 -0.1651 -0.2419  0.2549
  529MOL0     N71330  11.854   3.928   1.441  0.1886 -0.1053  0.3057
  529MOL0     N71331  11.834   3.811   1.385  0.8975 -0.9705 -0.2295
  529MOL0     C71332  10.929   3.701   1.055  0.5377  0.3531 -0.2606
  529MOL0     C71333  10.843   3.779   1.138 -0.5586  0.0505 -0.2505
  529MOL0     C71334  10.621   3.993   1.459 -0.4466 -0.7207  0.1712
  529MOL0     C71335  10.524   3.931   1.546  0.2935  0.2666 -0.2834
  529MOL0     C71336  10.437   4.010   1.624  0.1504  1.0992  0.3099
  529MOL0     C71337  10.449   4.144   1.641 -0.3178 -0.6693 -0.9014
  529MOL0     O71338  10.352   4.220   1.709  0.4866 -0.1862  0.0506
  529MOL0     C71339  10.296   4.168   1.834  0.1003  0.2265 -0.1038
  529MOL0     C71340  10.322   4.273   1.953 -0.4752  0.8035  0.2893
  529MOL0     C71341  10.469   4.321   1.960  0.2132  0.6521 -0.9196
  529MOL0     C71342  10.479   4.454   1.899 -0.2823 -0.6779 -0.6312
  529MOL0     C71343  10.611   4.504   1.920  0.2144  0.3607  0.7304
  529MOL0     C71344  10.717   4.560   1.944  0.4038 -0.4520 -0.9039
  529MOL0     C71345  10.538   4.213   1.556 -0.0809 -0.2527  0.5261
  529MOL0     C71346  10.632   4.139   1.471  0.2161  0.7214  0.4193
  529MOL0     C71347  10.742   4.228   1.413 -0.0232  0.4292 -0.3318
  529MOL0     H71348  11.054   4.026   1.243 -0.2464  0.7561 -1.6406
  529MOL0     H71349  11.207   3.906   1.125 -0.8550  4.0557 -0.8285
  529MOL0     H71350  11.102   3.492   1.000 -3.2344 -1.5231 -1.4418
  529MOL0     H71351  11.037   3.553   0.853 -0.5872 -1.7205  1.6122
  529MOL0     H71352  11.302   3.574   0.772  1.0476  0.4653  0.9145
  529MOL0     H71353  11.249   3.415   0.800  0.7042  0.1340 -1.6181
  529MOL0     H71354  11.327   3.449   1.057 -0.7270 -0.6886 -0.2671
  529MOL0     H71355  11.372   3.612   1.017 -0.4887 -0.9190  3.1151
  529MOL0     H71356  11.511   3.350   0.969 -1.2972  0.0493  2.0889
  529MOL0     H71357  11.528   3.469   0.839  2.9118 -0.8259  0.7721
  529MOL0     H71358  11.701   3.517   1.002 -0.3077  1.5054 -0.3901
  529MOL0     H71359  11.581   3.635   1.043 -0.6346 -0.4617  2.3122
  529MOL0     H71360  11.507   3.459   1.229  0.8875 -1.2746 -0.8248
  529MOL0     H71361  11.657   3.373   1.183 -1.4961 -0.9917 -0.2638
  529MOL0     H71362  11.771   3.598   1.205 -1.0936  0.1406 -1.2683
  529MOL0     H71363  11.746   3.502   1.343  1.5075  3.2053  0.7987
  529MOL0     H71364  11.580   3.735   1.249  3.7681  1.7533 -0.1161
  529MOL0     H71365  11.538   3.627   1.391 -0.0131  0.6519  0.2991
  529MOL0     H71366  11.538   3.881   1.491 -0.4018 -0.6989 -2.2808
  529MOL0     H71367  11.653   4.039   1.677  2.3869 -1.1321  0.6246
  529MOL0     H71368  11.803   4.118   1.661 -0.7019  1.1744  1.0396
  529MOL0     H71369  11.733   4.248   1.462  1.4153  0.2083  0.0701
  529MOL0     H71370  11.585   4.172   1.461 -0.1927  1.5782  0.2532
  529MOL0     H71371  11.509   4.279   1.672 -0.6005 -3.6282 -2.6670
  529MOL0     H71372  11.570   4.397   1.568  0.2717  0.0768  0.1380
  529MOL0     H71373  11.735   4.295   1.805  1.9854 -0.4947 -3.3395
  529MOL0     H71374  11.626   4.431   1.815 -2.0674 -1.3951 -0.8192
  529MOL0     H71375  11.909   4.522   1.931 -4.1913  0.2682  1.0558
  529MOL0     H71376  11.902   4.735   2.032 -0.6563  0.1195 -0.7857
  529MOL0     H71377  11.658   5.180   2.053  2.2282 -2.4137 -1.3577
  529MOL0     H71378  11.703   5.427   2.091 -0.2873  0.3314 -0.2395
  529MOL0     H71379  11.951   5.493   2.382 -0.5736 -2.4842 -2.3531
  529MOL0     H71380  12.085   5.573   2.303 -0.7770  1.7232 -0.1383
  529MOL0     H71381  11.812   5.720   2.317  0.6065  2.7092  0.0615
  529MOL0     H71382  11.929   5.725   2.448 -0.0154  0.1904  0.3836
  529MOL0     H71383  12.095   5.784   2.242 -0.3362 -0.4058 -0.8207
  529MOL0     H71384  11.938   5.821   2.168 -0.8969 -1.6085  0.6056
  529MOL0     H71385  12.104   5.948   2.388 -1.2956 -0.3400  3.1544
  529MOL0     H71386  11.931   5.941   2.426 -0.9699  0.7968  0.0363
  529MOL0     H71387  12.049   6.066   2.167  1.2681  0.4952  0.6932
  529MOL0     H71388  12.024   6.161   2.311  1.4279  1.4478 -1.9611
  529MOL0     H71389  11.809   6.027   2.133 -0.8903  2.0567 -0.5233
  529MOL0     H71390  11.767   6.086   2.288 -1.6864 -0.9763 -1.4175
  529MOL0     H71391  11.879   6.236   2.041 -1.8557  3.0463 -2.2204
  529MOL0     H71392  11.872   6.307   2.212 -2.8715 -0.5985  1.7799
  529MOL0     H71393  11.630   6.223   2.199  0.3062  0.2772  0.0690
  529MOL0     H71394  11.682   6.394   2.145  0.5161  1.1320  0.3886
  529MOL0     H71395  12.115   5.330   2.189  0.5077 -1.0763  0.7251
  529MOL0     H71396  12.058   5.083   2.164  0.2491 -0.1510 -0.5791
  529MOL0     H71397  11.708   4.902   1.692  0.2239 -0.6828 -0.8163
  529MOL0     H71398  11.715   4.662   1.592  1.0689 -0.5157 -0.3822
  529MOL0     H71399  10.890   3.624   0.989  0.3099 -0.8382  1.2011
  529MOL0     H71400  10.738   3.751   1.129 -1.2324  2.6613 -1.2004
  529MOL0     H71401  10.525   3.823   1.549  0.5005  0.2943  1.6784
  529MOL0     H71402  10.362   3.941   1.660  1.0666 -0.5443 -0.7877
  529MOL0     H71403  10.332   4.067   1.856 -1.9023 -0.3078  0.9993
  529MOL0     H71404  10.187   4.164   1.821  0.0541  3.3169 -1.5572
  529MOL0     H71405  10.292   4.219   2.044  1.2937  2.2540  1.8060
  529MOL0     H71406  10.255   4.359   1.956 -0.7582  0.5683  1.4210
  529MOL0     H71407  10.531   4.269   1.886 -0.8098 -1.3011 -0.4673
  529MOL0     H71408  10.504   4.308   2.062 -2.8080 -1.3886 -0.0164
  529MOL0     H71409  10.452   4.461   1.794  0.4995 -2.4562 -0.9976
  529MOL0     H71410  10.407   4.523   1.943 -0.7105 -0.8417 -1.0666
  529MOL0     H71411  10.810   4.604   1.971  0.4994  0.2889 -2.3236
  529MOL0     H71412  10.555   4.320   1.558 -0.6916 -0.1492  0.3099
  529MOL0     H71413  10.836   4.175   1.399  1.1075  1.6407  2.1451
  529MOL0     H71414  10.699   4.262   1.318 -0.7735  0.0870 -0.1239
  529MOL0     H71415  10.763   4.317   1.474 -1.0058  2.5604 -2.8681
  530MOL0     O71416   8.079   8.244   1.076 -0.1712  0.4689 -0.3815
  530MOL0     C71417   8.012   8.341   1.109  0.5339 -0.5496 -0.1326
  530MOL0     O71418   8.023   8.407   1.232 -1.1007 -0.2731  0.4724
  530MOL0     C71419   8.134   8.349   1.301 -0.3144  0.2128 -0.2914
  530MOL0     C71420   8.253   8.423   1.305 -0.6924  0.9451 -0.2265
  530MOL0     C71421   8.345   8.383   1.412 -0.3339 -0.7697  0.0031
  530MOL0     C71422   8.326   8.268   1.496  1.1585  0.3779 -0.3526
  530MOL0     O71423   8.413   8.216   1.588  0.4103 -0.2149  0.4091
  530MOL0     C71424   8.552   8.280   1.595 -0.0970  0.0445 -0.0684
  530MOL0     C71425   8.631   8.222   1.712 -0.1921  0.2035  0.0524
  530MOL0     C71426   8.659   8.065   1.706  0.6599  0.0066  1.2188
  530MOL0     C71427   8.726   8.011   1.835 -0.0537 -0.5201 -1.2116
  530MOL0     C71428   8.766   7.871   1.825 -0.0857  0.6035 -0.0962
  530MOL0     C71429   8.872   7.857   1.720  0.1453 -0.6146 -0.6790
  530MOL0     C71430   8.956   7.732   1.759 -0.6643 -0.0575  0.2765
  530MOL0     C71431   8.888   7.598   1.720 -0.5432  0.0426 -0.4262
  530MOL0     N71432   8.973   7.483   1.757  0.4029 -0.0010 -0.7356
  530MOL0     C71433   9.088   7.445   1.695 -0.5866 -0.4592 -0.5578
  530MOL0     C71434   9.105   7.319   1.747  0.6856 -0.2317  0.4583
  530MOL0     C71435   9.221   7.229   1.716  0.1468  0.3778  0.1483
  530MOL0     C71436   9.329   7.235   1.828  0.3498 -0.1314  0.1178
  530MOL0     C71437   9.458   7.162   1.778  0.3985  0.0877 -0.8002
  530MOL0     C71438   9.546   7.131   1.893  0.6901  0.2223 -0.2332
  530MOL0     O71439   9.661   7.050   1.853  0.0939 -0.4058 -0.1347
  530MOL0     C71440   9.780   7.045   1.929  0.0810  0.2071 -0.3579
  530MOL0     C71441   9.894   7.010   1.868 -0.2264 -0.5124 -0.9225
  530MOL0     C71442  10.021   7.017   1.926  0.2277  0.7636  0.5981
  530MOL0     C71443  10.035   7.062   2.063  0.7991  0.8409 -0.3968
  530MOL0     C71444  10.160   7.073   2.124 -0.1020  0.0093  0.1727
  530MOL0     O71445  10.268   7.037   2.050  1.1476 -1.3846  0.1038
  530MOL0     C71446  10.384   7.068   2.111 -0.7176  0.5886 -0.1373
  530MOL0     C71447  10.451   6.991   2.214 -0.4120 -0.9047  0.5413
  530MOL0     C71448  10.570   7.042   2.281 -0.1296 -0.5599  0.0007
  530MOL0     C71449  10.625   7.176   2.242  0.8011  0.2720  0.3645
  530MOL0     O71450  10.733   7.235   2.302 -0.1797 -0.2669 -1.1292
  530MOL0     C71451  10.832   7.156   2.372 -0.1639 -0.4023  0.6823
  530MOL0     C71452  10.899   7.059   2.274 -0.2560 -0.8679  0.7000
  530MOL0     C71453  10.974   7.140   2.160  0.7036  0.1402 -0.7914
  530MOL0     C71454  11.011   7.049   2.047 -0.7556  1.1405 -0.4706
  530MOL0     C71455  11.148   6.976   2.072  0.7692 -1.1123 -0.8412
  530MOL0     C71456  11.125   6.828   2.132  1.1650  0.1823  0.5227
  530MOL0     C71457  11.236   6.733   2.109  0.2127  0.1382  0.4080
  530MOL0     C71458  11.367   6.762   2.174  0.0591  0.5482 -0.4502
  530MOL0    Cl71459  11.467   6.619   2.224  0.4390 -0.0219  0.4968
  530MOL0     C71460  10.555   7.240   2.141 -0.5178 -1.2854 -0.8855
  530MOL0     C71461  10.445   7.188   2.081  0.2236  0.6711 -0.4662
  530MOL0     O71462  10.161   7.101   2.244 -0.0041  0.2759 -0.2305
  530MOL0     C71463   9.916   7.095   2.132 -0.1167  0.0303 -0.6550
  530MOL0     C71464   9.797   7.088   2.065  0.3348  0.1821 -0.6627
  530MOL0     N71465   8.994   7.274   1.818 -0.4636 -0.3128  0.6800
  530MOL0     N71466   8.917   7.372   1.821  0.3614 -0.1667 -0.2904
  530MOL0     C71467   8.209   8.190   1.472  0.1169 -0.9232 -0.2372
  530MOL0     C71468   8.115   8.241   1.386  0.1072 -1.4897  0.6058
  530MOL0     C71469   7.898   8.394   1.025  0.1964  0.1561  0.1785
  530MOL0     C71470   7.865   8.532   1.039 -0.3658  0.2090 -1.3909
  530MOL0     C71471   7.772   8.590   0.949  0.2109  0.2310 -0.1398
  530MOL0     C71472   7.714   8.512   0.850  0.1401 -0.4182  0.9054
  530MOL0     O71473   7.615   8.553   0.767  0.2151  0.9002 -0.3097
  530MOL0     C71474   7.590   8.694   0.755 -0.0776 -0.4090  0.3551
  530MOL0     C71475   7.450   8.696   0.690  0.1161 -0.8052 -0.2655
  530MOL0     C71476   7.391   8.836   0.695  0.0881  0.1183  0.0050
  530MOL0     C71477   7.238   8.839   0.670  1.0386 -0.5186  0.6603
  530MOL0     C71478   7.210   8.847   0.522 -0.2278  0.7060 -1.1906
  530MOL0     C71479   7.192   8.856   0.406  0.4583  0.2118 -0.4937
  530MOL0     C71480   7.736   8.381   0.852  0.2717  0.3027  1.0993
  530MOL0     C71481   7.825   8.315   0.939  0.9996 -0.3508  0.4200
  530MOL0     C71482   7.839   8.159   0.943 -1.4632 -0.3086  0.6009
  530MOL0     H71483   8.255   8.522   1.261 -0.0999  0.1582 -2.0726
  530MOL0     H71484   8.419   8.453   1.449  1.3345 -3.2206  1.6505
  530MOL0     H71485   8.605   8.250   1.504  1.2796  1.2034  0.3145
  530MOL0     H71486   8.547   8.389   1.599  0.6914  0.3054 -3.4004
  530MOL0     H71487   8.573   8.221   1.804  1.0638 -1.4511  0.8838
  530MOL0     H71488   8.720   8.285   1.720 -1.5450  2.4055 -1.2399
  530MOL0     H71489   8.727   8.051   1.621 -1.6161 -0.4619 -0.6080
  530MOL0     H71490   8.566   8.014   1.682  2.0430 -0.9982 -2.7570
  530MOL0     H71491   8.814   8.071   1.861 -1.9048  2.6654 -1.6700
  530MOL0     H71492   8.647   8.036   1.907 -1.2203  0.1642 -2.6599
  530MOL0     H71493   8.809   7.841   1.921 -1.3419  1.3145  0.7238
  530MOL0     H71494   8.683   7.808   1.791  0.6505  0.4364 -1.6750
  530MOL0     H71495   8.836   7.835   1.620 -0.4466 -1.8137 -0.2148
  530MOL0     H71496   8.928   7.950   1.708 -1.6802  0.5318 -0.6726
  530MOL0     H71497   8.985   7.718   1.864 -0.4248  2.0327  0.5297
  530MOL0     H71498   9.049   7.739   1.702 -1.1855  0.7470 -0.4953
  530MOL0     H71499   8.791   7.589   1.771 -0.0856  1.9909  0.8959
  530MOL0     H71500   8.868   7.596   1.613  3.5416  1.3514 -1.4044
  530MOL0     H71501   9.152   7.497   1.625 -1.5101  0.6599 -0.5860
  530MOL0     H71502   9.199   7.123   1.734  1.4947  0.6722  4.8643
  530MOL0     H71503   9.264   7.236   1.616 -2.6214 -1.3226 -1.3071
  530MOL0     H71504   9.352   7.340   1.845 -2.8392  0.6108  0.4447
  530MOL0     H71505   9.283   7.197   1.920 -0.0747 -0.2040 -0.1218
  530MOL0     H71506   9.512   7.224   1.706  0.2102 -1.8999 -2.7489
  530MOL0     H71507   9.440   7.065   1.732 -0.3281 -1.3508  2.2266
  530MOL0     H71508   9.482   7.076   1.963 -4.0077  3.8176 -1.1774
  530MOL0     H71509   9.578   7.221   1.947 -1.7281  1.3427 -0.5566
  530MOL0     H71510   9.891   6.993   1.761  1.6290 -0.9976 -0.9413
  530MOL0     H71511  10.103   6.991   1.860 -0.9981 -2.4582  0.1843
  530MOL0     H71512  10.419   6.891   2.240 -2.6550 -0.2905  0.3649
  530MOL0     H71513  10.621   6.978   2.352 -0.5751 -0.8822  0.0296
  530MOL0     H71514  10.924   7.204   2.406  1.3501 -2.4987 -0.1910
  530MOL0     H71515  10.789   7.111   2.462 -1.2357  5.4238  3.4874
  530MOL0     H71516  10.981   7.009   2.328  4.2202  5.1618  0.5333
  530MOL0     H71517  10.826   6.990   2.231 -0.6210  0.1644 -0.4056
  530MOL0     H71518  10.901   7.209   2.117 -0.2340 -0.4456 -0.1631
  530MOL0     H71519  11.070   7.182   2.191  1.1889 -0.8444 -0.8993
  530MOL0     H71520  10.995   7.104   1.954 -3.9439 -1.1485 -1.4626
  530MOL0     H71521  10.930   6.976   2.047 -4.3766  4.7359  0.9985
  530MOL0     H71522  11.214   7.036   2.135  1.4341 -2.2306 -0.4399
  530MOL0     H71523  11.209   6.976   1.981  5.4214  0.9092  1.9155
  530MOL0     H71524  11.099   6.833   2.238 -2.7818 -1.1413 -0.2167
  530MOL0     H71525  11.039   6.782   2.083  1.8989 -0.4364 -0.2241
  530MOL0     H71526  11.246   6.712   2.002 -0.6972  2.5935 -0.2240
  530MOL0     H71527  11.208   6.646   2.170  0.2074 -0.2786 -0.1808
  530MOL0     H71528  11.427   6.818   2.101  2.3105  1.4593  1.9378
  530MOL0     H71529  11.350   6.827   2.260 -0.6385  2.2420 -1.8069
  530MOL0     H71530  10.600   7.334   2.112  1.3613 -1.4110  1.2777
  530MOL0     H71531  10.390   7.240   2.003 -1.2304 -2.5660 -1.8122
  530MOL0     H71532   9.929   7.138   2.231 -0.7026 -0.8181 -0.1941
  530MOL0     H71533   9.703   7.107   2.114 -0.2499 -0.1307 -1.6209
  530MOL0     H71534   8.200   8.100   1.532  1.1643  0.2871  1.8067
  530MOL0     H71535   8.013   8.205   1.381 -0.7941  0.9446 -0.4451
  530MOL0     H71536   7.917   8.587   1.117 -2.2814 -0.4557  0.4409
  530MOL0     H71537   7.767   8.698   0.950  2.2501  0.3655  1.4224
  530MOL0     H71538   7.662   8.750   0.694  1.2275 -1.2148  1.0998
  530MOL0     H71539   7.583   8.734   0.857 -0.6950  2.3186 -0.6632
  530MOL0     H71540   7.381   8.622   0.733  2.4716 -3.0324 -0.0506
  530MOL0     H71541   7.471   8.669   0.586  3.8860 -0.7454  0.3530
  530MOL0     H71542   7.439   8.907   0.627 -0.6563  1.1017  0.4858
  530MOL0     H71543   7.415   8.879   0.793  0.3042  0.1603 -0.0656
  530MOL0     H71544   7.188   8.749   0.708 -0.1646 -0.0232  0.3166
  530MOL0     H71545   7.183   8.919   0.720 -1.7842 -1.9239  0.0345
  530MOL0     H71546   7.172   8.854   0.301 -1.7774  0.0318 -0.0981
  530MOL0     H71547   7.672   8.330   0.781 -2.5888  3.0289  1.5027
  530MOL0     H71548   7.768   8.112   0.875 -2.2166  1.1558  0.3396
  530MOL0     H71549   7.941   8.135   0.913 -1.0875  2.1736 -0.3373
  530MOL0     H71550   7.832   8.114   1.043 -1.9895  1.2889  1.3105
  531MOL0     O71551   8.160   6.221  10.589 -0.2225 -0.0426  0.6274
  531MOL0     C71552   8.243   6.203  10.675  0.0055 -0.1202  0.1219
  531MOL0     O71553   8.270   6.080  10.740  0.5567  0.2222 -0.1498
  531MOL0     C71554   8.188   5.971  10.707 -0.1725 -0.3624  0.5615
  531MOL0     C71555   8.253   5.854  10.686 -0.0072  0.0565 -0.3854
  531MOL0     C71556   8.172   5.738  10.671 -0.1614 -0.7637  0.8863
  531MOL0     C71557   8.035   5.731  10.661  0.4278  0.3773  0.5255
  531MOL0     O71558   7.979   5.607  10.634  0.4174 -0.5455  0.6597
  531MOL0     C71559   7.837   5.592  10.661  0.8560  0.1643 -0.7376
  531MOL0     C71560   7.819   5.615  10.810 -0.0384 -0.3741  0.8231
  531MOL0     C71561   7.697   5.536  10.871 -0.8985 -0.1495  0.2984
  531MOL0     C71562   7.635   5.599  10.999 -0.7895 -0.7128  0.2877
  531MOL0     C71563   7.523   5.508  11.058 -0.9768  0.5390  0.8279
  531MOL0     C71564   7.389   5.502  10.973 -0.7941 -0.4881 -0.4448
  531MOL0     C71565   7.327   5.644  10.975  0.4196 -0.2888 -0.3920
  531MOL0     C71566   7.188   5.640  10.902  0.3470 -0.9826 -1.0193
  531MOL0     N71567   7.073   5.613  10.987  0.9865  0.1843  0.4878
  531MOL0     C71568   6.977   5.699  11.027  0.1512  0.0092 -0.4070
  531MOL0     C71569   6.895   5.622  11.102 -0.1489  0.8953 -1.2225
  531MOL0     C71570   6.774   5.678  11.167 -0.1307  0.4295  0.8385
  531MOL0     C71571   6.823   5.727  11.311  0.7308 -0.4958 -0.4615
  531MOL0     C71572   6.703   5.799  11.379 -0.8168  0.4474  0.5952
  531MOL0     C71573   6.746   5.890  11.502 -0.4476 -0.1640 -0.0359
  531MOL0     O71574   6.843   5.999  11.468  0.4884 -0.0978 -0.8678
  531MOL0     C71575   6.899   6.069  11.570 -0.4953 -0.4228 -0.6673
  531MOL0     C71576   6.828   6.092  11.694  0.4682 -0.0955 -0.3672
  531MOL0     C71577   6.896   6.150  11.796  0.4975 -0.1206  0.0722
  531MOL0     C71578   7.026   6.196  11.781  0.7266  0.5963 -0.6115
  531MOL0     C71579   7.098   6.245  11.901  0.2011  0.0651 -0.5675
  531MOL0     O71580   7.047   6.212  12.023  0.2449 -0.0399  0.0524
  531MOL0     C71581   7.116   6.249  12.132  0.9998 -0.9952  0.5128
  531MOL0     C71582   7.107   6.378  12.188 -0.8847 -0.4977  0.4254
  531MOL0     C71583   7.161   6.409  12.319  0.8577  1.0991 -0.0839
  531MOL0     C71584   7.233   6.311  12.393  0.5706  0.1799  0.3296
  531MOL0     O71585   7.287   6.351  12.510 -0.4803  0.4947 -0.0061
  531MOL0     C71586   7.356   6.246  12.592  0.1578  0.5617  0.1935
  531MOL0     C71587   7.396   6.301  12.726 -0.8201  0.4824 -0.0753
  531MOL0     C71588   7.288   6.261  12.837 -0.4723 -0.0130  0.4336
  531MOL0     C71589   7.333   6.320  12.975 -1.1973 -0.5487 -0.9371
  531MOL0     C71590   7.226   6.286  13.086 -0.0375  0.5555 -0.0271
  531MOL0     C71591   7.272   6.330  13.228  0.3775  0.0197 -0.7383
  531MOL0     C71592   7.195   6.259  13.334 -0.4906 -0.5473  0.3647
  531MOL0     C71593   7.244   6.289  13.475 -0.1862  0.3596 -0.1236
  531MOL0    Cl71594   7.202   6.466  13.546  0.2490  0.6638 -0.1696
  531MOL0     C71595   7.229   6.180  12.343  0.2307 -0.2142 -0.2805
  531MOL0     C71596   7.166   6.156  12.214  0.2005 -0.1309 -0.3713
  531MOL0     O71597   7.191   6.321  11.876 -0.0649  0.1064 -0.1694
  531MOL0     C71598   7.098   6.186  11.657 -0.0581 -0.5397  0.2415
  531MOL0     C71599   7.027   6.115  11.556  0.7192 -1.3369 -0.1795
  531MOL0     N71600   6.935   5.492  11.108  0.0722  0.4502 -0.2569
  531MOL0     N71601   7.046   5.482  11.035 -0.1631  0.6450 -0.4866
  531MOL0     C71602   7.972   5.860  10.670 -0.0160 -0.1892 -0.4752
  531MOL0     C71603   8.045   5.975  10.710 -0.3752 -0.2728  0.2216
  531MOL0     C71604   8.327   6.313  10.712 -0.7506  0.5515  0.0800
  531MOL0     C71605   8.396   6.380  10.605  0.7893 -1.1143 -0.6528
  531MOL0     C71606   8.478   6.482  10.652  0.3725  0.1963  0.4661
  531MOL0     C71607   8.515   6.519  10.777 -0.5078  0.4071 -0.3493
  531MOL0     O71608   8.622   6.609  10.790  0.4435 -0.1995 -0.2450
  531MOL0     C71609   8.657   6.653  10.920 -0.0546  0.1934  0.0455
  531MOL0     C71610   8.722   6.797  10.881 -0.1284 -0.2081 -0.3505
  531MOL0     C71611   8.817   6.868  10.987 -0.1877 -0.7612  0.4678
  531MOL0     C71612   8.898   6.761  11.060  0.2847  0.3148  0.4667
  531MOL0     C71613   9.012   6.834  11.111  1.2849 -0.7877  0.4686
  531MOL0     C71614   9.111   6.900  11.141  0.0269  0.0308 -0.3401
  531MOL0     C71615   8.450   6.455  10.879 -0.1106  0.1437  0.1685
  531MOL0     C71616   8.359   6.346  10.849 -0.2361 -1.1021  0.0325
  531MOL0     C71617   8.276   6.274  10.962 -0.9687  0.5017 -0.1530
  531MOL0     H71618   8.360   5.851  10.667  0.6056  0.5470  2.6141
  531MOL0     H71619   8.236   5.655  10.644  4.2323  2.5412  0.0087
  531MOL0     H71620   7.772   5.647  10.593  1.2889  0.5555 -0.8419
  531MOL0     H71621   7.824   5.485  10.645 -0.3322 -0.1851  1.9428
  531MOL0     H71622   7.801   5.719  10.839  3.2804  0.2550  1.0866
  531MOL0     H71623   7.917   5.591  10.852  0.2288 -1.2202 -0.2157
  531MOL0     H71624   7.729   5.439  10.909 -0.5617  0.1130  0.7004
  531MOL0     H71625   7.624   5.512  10.794  0.0306  0.3499 -0.7807
  531MOL0     H71626   7.710   5.599  11.078  0.3506  2.4293 -0.6364
  531MOL0     H71627   7.610   5.705  10.987  1.5782 -0.2655 -1.3664
  531MOL0     H71628   7.563   5.410  11.084 -1.5916 -0.2549 -1.0767
  531MOL0     H71629   7.500   5.549  11.157  1.6444  1.5286  1.1161
  531MOL0     H71630   7.397   5.469  10.869 -1.2510 -0.4379 -0.5003
  531MOL0     H71631   7.323   5.433  11.026 -1.6107  1.0067  0.5547
  531MOL0     H71632   7.400   5.697  10.913  2.8118 -1.4955  1.2290
  531MOL0     H71633   7.313   5.690  11.074  0.5990 -1.2333  0.0843
  531MOL0     H71634   7.167   5.739  10.860 -3.2665 -0.6377  1.1981
  531MOL0     H71635   7.205   5.564  10.825  3.0158 -0.1160 -1.3984
  531MOL0     H71636   6.961   5.803  11.004 -0.8114 -0.5781 -2.7225
  531MOL0     H71637   6.737   5.770  11.121  1.7599  1.1482  0.6770
  531MOL0     H71638   6.703   5.595  11.168  1.1716 -0.7776 -1.2105
  531MOL0     H71639   6.869   5.652  11.376  1.9332  0.3447 -0.3062
  531MOL0     H71640   6.893   5.809  11.292 -1.1817  1.1035 -0.8804
  531MOL0     H71641   6.641   5.723  11.426  0.4362 -1.7843 -1.1720
  531MOL0     H71642   6.646   5.857  11.305 -0.5623 -2.5475 -2.1837
  531MOL0     H71643   6.796   5.815  11.564  2.7019  0.0508 -2.0663
  531MOL0     H71644   6.662   5.926  11.562  0.5031  0.5893  0.8736
  531MOL0     H71645   6.727   6.061  11.719  1.0122 -2.2780 -0.6958
  531MOL0     H71646   6.855   6.161  11.896  0.0865  0.9776 -0.2090
  531MOL0     H71647   7.051   6.450  12.130 -0.7643 -0.0012  0.9169
  531MOL0     H71648   7.138   6.502  12.370  1.9705  0.8069  0.9859
  531MOL0     H71649   7.305   6.149  12.598 -1.7652  1.4939 -0.3562
  531MOL0     H71650   7.447   6.222  12.536  0.3441 -0.4759  0.9037
  531MOL0     H71651   7.498   6.272  12.751 -1.0399 -0.0299  0.2185
  531MOL0     H71652   7.398   6.411  12.730 -2.4101  0.4802  2.0767
  531MOL0     H71653   7.195   6.306  12.801  0.0647  0.1645 -0.7879
  531MOL0     H71654   7.275   6.152  12.837 -0.0044 -0.0770  1.2702
  531MOL0     H71655   7.347   6.427  12.955 -1.5542 -0.4349 -0.5768
  531MOL0     H71656   7.435   6.291  13.003  0.3963  4.2472 -0.8736
  531MOL0     H71657   7.218   6.178  13.073 -0.6095  0.8785 -2.8978
  531MOL0     H71658   7.133   6.338  13.064 -0.7660 -0.9148 -0.5364
  531MOL0     H71659   7.378   6.304  13.234  0.0927 -1.3694 -1.3351
  531MOL0     H71660   7.257   6.438  13.232 -0.4280 -0.1320  1.3770
  531MOL0     H71661   7.205   6.151  13.322  0.3707 -0.6236  1.5254
  531MOL0     H71662   7.088   6.279  13.322 -0.8813 -1.7062  1.6633
  531MOL0     H71663   7.214   6.206  13.540 -0.2866  2.0191  2.0543
  531MOL0     H71664   7.353   6.281  13.472 -0.1811 -0.5248  1.3360
  531MOL0     H71665   7.273   6.094  12.394 -3.3714 -2.4173 -0.5207
  531MOL0     H71666   7.164   6.054  12.177 -0.2829 -0.5270  0.6911
  531MOL0     H71667   7.205   6.204  11.646  0.2116 -0.3298  2.5243
  531MOL0     H71668   7.084   6.092  11.466 -1.1048 -0.8275 -1.5288
  531MOL0     H71669   7.864   5.876  10.673 -0.2951 -1.5680 -1.9611
  531MOL0     H71670   7.993   6.070  10.714  1.3110  0.7179 -0.2180
  531MOL0     H71671   8.383   6.359  10.500 -1.1198  0.5741 -0.8179
  531MOL0     H71672   8.531   6.533  10.572  0.7402  0.0008  0.5822
  531MOL0     H71673   8.711   6.578  10.979 -0.9034 -2.8193 -2.7154
  531MOL0     H71674   8.578   6.701  10.979 -1.5058  0.6517 -2.1510
  531MOL0     H71675   8.650   6.866  10.836 -0.9183 -0.6310  0.2371
  531MOL0     H71676   8.795   6.773  10.803 -0.1927  1.4363 -0.9449
  531MOL0     H71677   8.753   6.924  11.056 -0.8076 -0.3710 -0.4024
  531MOL0     H71678   8.881   6.938  10.933  1.5159 -3.1088 -0.7120
  531MOL0     H71679   8.836   6.724  11.142  0.2926 -1.9290 -0.4890
  531MOL0     H71680   8.924   6.679  10.992 -0.8881  0.4789 -0.2036
  531MOL0     H71681   9.207   6.944  11.160 -0.7216  1.4768  0.2580
  531MOL0     H71682   8.470   6.471  10.984  4.0162 -2.3357 -0.0506
  531MOL0     H71683   8.343   6.197  11.001 -1.7041 -0.3918 -0.6357
  531MOL0     H71684   8.256   6.336  11.051  1.9143 -0.5525  1.3486
  531MOL0     H71685   8.189   6.219  10.925 -0.7867  1.7947 -2.6788
  532MOL0     O71686   9.695   2.848   5.766 -0.4507  0.4025 -0.3588
  532MOL0     C71687   9.777   2.756   5.768 -0.7583  0.6725 -0.8703
  532MOL0     O71688   9.839   2.707   5.653  0.2532 -0.0312 -0.6087
  532MOL0     C71689   9.796   2.739   5.534 -0.2147  0.9435  0.9501
  532MOL0     C71690   9.661   2.750   5.490 -0.6218  0.9841 -0.0032
  532MOL0     C71691   9.617   2.792   5.367  0.0127 -0.6014 -0.4942
  532MOL0     C71692   9.715   2.838   5.273 -0.8679 -0.6964  0.5916
  532MOL0     O71693   9.678   2.893   5.154 -0.2866 -0.9948 -0.1332
  532MOL0     C71694   9.689   2.796   5.052 -1.3477 -0.3445 -0.5594
  532MOL0     C71695   9.564   2.715   5.051 -0.3158  0.2128  0.5711
  532MOL0     C71696   9.440   2.798   5.006 -0.2229  0.1116  0.1566
  532MOL0     C71697   9.306   2.729   5.033  0.5593  0.1039  0.6079
  532MOL0     C71698   9.181   2.799   4.974 -0.0234 -0.0076 -0.0649
  532MOL0     C71699   9.172   2.786   4.817  0.5035 -0.7657 -0.4130
  532MOL0     C71700   9.030   2.821   4.757 -0.0347  0.8989 -0.7323
  532MOL0     C71701   9.032   2.818   4.605 -0.0625  0.8650  0.2594
  532MOL0     N71702   8.901   2.862   4.546  0.1273  0.3221  0.8991
  532MOL0     C71703   8.865   2.988   4.526  0.6351 -0.1394  0.1072
  532MOL0     C71704   8.737   2.980   4.484  0.1530  0.2609 -0.8405
  532MOL0     C71705   8.637   3.094   4.472  0.3850 -0.1027 -0.4484
  532MOL0     C71706   8.495   3.048   4.441  0.1668  1.0414  0.1696
  532MOL0     C71707   8.383   3.150   4.456  0.6642 -0.6363 -0.0062
  532MOL0     C71708   8.417   3.264   4.360  0.0697  0.2518 -0.0417
  532MOL0     O71709   8.504   3.359   4.430  0.2057  0.9441 -0.7706
  532MOL0     C71710   8.503   3.487   4.375  0.1092  0.2768 -1.4064
  532MOL0     C71711   8.443   3.515   4.256 -0.2132 -0.0834 -0.6414
  532MOL0     C71712   8.430   3.659   4.223 -0.0772  0.6969  1.3302
  532MOL0     C71713   8.499   3.759   4.291  0.1530 -0.5580 -1.3613
  532MOL0     C71714   8.520   3.904   4.247  0.3028 -0.8709  0.0812
  532MOL0     O71715   8.567   3.986   4.352 -0.4108 -0.3783 -0.3282
  532MOL0     C71716   8.588   4.120   4.337  0.3995 -0.0337 -0.2901
  532MOL0     C71717   8.709   4.178   4.383  0.0548  0.2142  0.3299
  532MOL0     C71718   8.733   4.317   4.382  0.0761  0.0444 -0.2856
  532MOL0     C71719   8.649   4.405   4.318 -0.5025  0.4221 -0.0367
  532MOL0     O71720   8.672   4.539   4.324  0.5657  0.1947 -0.2126
  532MOL0     C71721   8.572   4.638   4.271 -0.7072  0.9737 -0.6145
  532MOL0     C71722   8.615   4.781   4.289  0.5819  0.3256 -0.1631
  532MOL0     C71723   8.541   4.881   4.190 -0.3645 -0.4927 -0.3113
  532MOL0     C71724   8.397   4.914   4.241 -0.4562 -0.0963 -0.5356
  532MOL0     C71725   8.345   5.044   4.186 -0.3812 -0.5780  0.1046
  532MOL0     C71726   8.286   5.034   4.048 -0.3082 -0.5506 -0.1637
  532MOL0     C71727   8.216   5.171   4.023  0.4673  0.2185  0.1193
  532MOL0     C71728   8.148   5.203   3.897  0.0125 -0.5728  0.2378
  532MOL0    Cl71729   8.273   5.220   3.767 -0.0858  0.0930  0.1422
  532MOL0     C71730   8.536   4.341   4.252 -0.3737  0.1051  0.0593
  532MOL0     C71731   8.511   4.205   4.254  0.1639 -0.6862  0.9096
  532MOL0     O71732   8.506   3.936   4.128  0.5354 -0.1664 -0.1585
  532MOL0     C71733   8.573   3.713   4.409  0.5413 -0.1498  0.1938
  532MOL0     C71734   8.573   3.577   4.447 -0.7796  0.7747  0.3569
  532MOL0     N71735   8.715   2.847   4.447  0.5812 -0.5788  0.3078
  532MOL0     N71736   8.811   2.775   4.493  0.1863 -0.0122 -0.3128
  532MOL0     C71737   9.851   2.828   5.312 -1.1723  0.9545  1.0412
  532MOL0     C71738   9.885   2.776   5.435 -0.7255  0.3289  0.3003
  532MOL0     C71739   9.806   2.695   5.901  0.8672  0.3484 -0.2717
  532MOL0     C71740   9.707   2.707   6.005 -0.1358  0.0390 -0.4514
  532MOL0     C71741   9.726   2.640   6.128  0.9472  0.5693 -0.1266
  532MOL0     C71742   9.850   2.572   6.153  0.2163 -0.1929 -0.5112
  532MOL0     O71743   9.857   2.522   6.275  0.2361 -0.2303 -0.1898
  532MOL0     C71744   9.982   2.476   6.330 -0.5143  0.0995  0.5444
  532MOL0     C71745   9.990   2.323   6.309 -0.2394 -0.5740  0.1668
  532MOL0     C71746  10.121   2.259   6.370  0.0350  0.0838  0.1282
  532MOL0     C71747  10.170   2.150   6.262  0.3245  0.0855 -0.0610
  532MOL0     C71748  10.227   2.205   6.138 -1.5481 -0.2230 -0.3599
  532MOL0     C71749  10.277   2.255   6.037 -0.4391 -0.7841  0.6276
  532MOL0     C71750   9.946   2.563   6.059  0.6215 -0.6120  0.2778
  532MOL0     C71751   9.929   2.623   5.933  1.1062  0.3905 -0.1614
  532MOL0     C71752  10.058   2.616   5.844  1.0304  0.2254 -0.1049
  532MOL0     H71753   9.590   2.704   5.559  2.1610 -3.1080  0.4793
  532MOL0     H71754   9.509   2.793   5.356  0.0638  3.5252 -2.7896
  532MOL0     H71755   9.689   2.855   4.961 -2.6215 -1.6401 -1.4473
  532MOL0     H71756   9.776   2.734   5.073 -1.2143 -0.1669 -0.5863
  532MOL0     H71757   9.542   2.660   5.143 -1.3575 -0.1035  0.1445
  532MOL0     H71758   9.580   2.635   4.978 -0.6546  2.5270 -2.2034
  532MOL0     H71759   9.453   2.830   4.902  1.8764 -2.0870 -0.3312
  532MOL0     H71760   9.430   2.894   5.057 -2.5623  1.1477 -2.0044
  532MOL0     H71761   9.295   2.633   4.983  1.7153  0.2297  0.0850
  532MOL0     H71762   9.303   2.705   5.140 -0.5857 -2.5761  0.0477
  532MOL0     H71763   9.101   2.743   5.023 -1.2581  2.0890  0.4060
  532MOL0     H71764   9.161   2.904   4.995  2.2999  0.5607 -0.3823
  532MOL0     H71765   9.247   2.859   4.784  0.2885 -1.2712 -2.1101
  532MOL0     H71766   9.204   2.685   4.789 -2.3228 -1.9929  0.4969
  532MOL0     H71767   8.996   2.920   4.790  0.9343  1.0421 -0.1177
  532MOL0     H71768   8.954   2.758   4.804  0.4843  1.9999  1.7426
  532MOL0     H71769   9.112   2.873   4.555  0.7105  1.4074  1.9890
  532MOL0     H71770   9.054   2.713   4.581  0.8865  0.8810  0.9867
  532MOL0     H71771   8.909   3.079   4.566 -2.8661  0.1102  4.0769
  532MOL0     H71772   8.640   3.149   4.566  1.1409  0.7702 -0.9726
  532MOL0     H71773   8.674   3.167   4.399 -0.7314  2.5949  1.5186
  532MOL0     H71774   8.499   3.006   4.340  2.1148  3.5775 -0.9256
  532MOL0     H71775   8.480   2.965   4.511 -0.7935 -0.2557 -1.5076
  532MOL0     H71776   8.382   3.199   4.554 -2.1473 -2.1607  0.8349
  532MOL0     H71777   8.281   3.112   4.450 -0.2684  0.2973  5.1461
  532MOL0     H71778   8.322   3.317   4.344  1.2129  2.3433 -0.2874
  532MOL0     H71779   8.452   3.222   4.265 -0.4888 -1.7315  0.5777
  532MOL0     H71780   8.413   3.439   4.185  2.0628  0.1906 -2.0231
  532MOL0     H71781   8.399   3.683   4.122 -1.5559 -0.4271  1.4890
  532MOL0     H71782   8.778   4.110   4.432 -2.2502 -1.2368  1.6736
  532MOL0     H71783   8.819   4.359   4.433  0.1122 -1.7277  1.2002
  532MOL0     H71784   8.585   4.619   4.164  2.0526 -0.0432 -0.1672
  532MOL0     H71785   8.474   4.611   4.311 -0.2932  0.9094  0.3796
  532MOL0     H71786   8.613   4.806   4.396 -1.2039 -0.6696  0.0745
  532MOL0     H71787   8.719   4.775   4.256  0.8804  0.7391  0.6668
  532MOL0     H71788   8.601   4.973   4.192 -0.3695 -0.4879  1.1804
  532MOL0     H71789   8.532   4.840   4.089  2.2269  0.9078 -1.2257
  532MOL0     H71790   8.409   4.932   4.348 -1.0372  1.4359 -0.7070
  532MOL0     H71791   8.319   4.842   4.212 -0.1418 -0.4384 -0.5393
  532MOL0     H71792   8.427   5.117   4.191 -3.3058  2.9733  0.7056
  532MOL0     H71793   8.269   5.063   4.263 -0.0125  1.4800  0.0384
  532MOL0     H71794   8.363   5.010   3.974  1.1554 -1.8254  1.6491
  532MOL0     H71795   8.209   4.957   4.034 -2.7599  1.3741  1.9105
  532MOL0     H71796   8.284   5.254   4.042 -2.4136  1.7460  6.1522
  532MOL0     H71797   8.141   5.174   4.102  2.1733 -0.7696  1.8781
  532MOL0     H71798   8.095   5.110   3.878  0.1644 -1.7057  4.3753
  532MOL0     H71799   8.081   5.289   3.910  0.6076  0.0077 -0.4383
  532MOL0     H71800   8.464   4.399   4.195 -1.5440 -2.3351 -1.0801
  532MOL0     H71801   8.438   4.160   4.188  0.2326 -0.8518  0.9449
  532MOL0     H71802   8.637   3.779   4.467 -2.0531 -0.1677  3.3944
  532MOL0     H71803   8.630   3.548   4.535  1.3488  2.5781 -0.3331
  532MOL0     H71804   9.922   2.855   5.235 -0.9886 -0.3276  0.7316
  532MOL0     H71805   9.987   2.750   5.464 -1.1892  1.3231  3.1224
  532MOL0     H71806   9.625   2.778   6.012  1.1026  1.4272  0.5320
  532MOL0     H71807   9.648   2.645   6.203 -2.0020  0.9014 -2.9859
  532MOL0     H71808   9.983   2.499   6.437  1.6929 -1.8983  1.0316
  532MOL0     H71809  10.075   2.522   6.295  0.5883 -3.6560 -2.0806
  532MOL0     H71810   9.972   2.304   6.203 -1.1663 -0.0137  0.2129
  532MOL0     H71811   9.898   2.294   6.359 -2.0624 -2.7563 -4.0167
  532MOL0     H71812  10.099   2.205   6.462 -2.5876 -0.2318 -0.5912
  532MOL0     H71813  10.192   2.338   6.395 -0.2762 -0.2230  2.1341
  532MOL0     H71814  10.245   2.086   6.310  3.5317  4.0121  0.7260
  532MOL0     H71815  10.085   2.086   6.238  1.2050 -1.4842  0.8448
  532MOL0     H71816  10.320   2.300   5.949  1.9962 -0.0148  2.1204
  532MOL0     H71817  10.038   2.508   6.075  0.2335 -1.5062 -0.4798
  532MOL0     H71818  10.141   2.615   5.915  0.3145  5.6806  1.2349
  532MOL0     H71819  10.063   2.531   5.775  0.4571  2.9783 -3.8358
  532MOL0     H71820  10.070   2.704   5.780  0.2641  0.3361 -0.1067
  533MOL0     O71821  11.488   1.848   3.710  0.1898 -0.6014 -0.2627
  533MOL0     C71822  11.523   1.899   3.814  0.3911 -0.2509 -0.0813
  533MOL0     O71823  11.457   2.000   3.880  0.5817  0.1664  0.3050
  533MOL0     C71824  11.361   2.060   3.808 -0.7795 -0.4982 -0.5344
  533MOL0     C71825  11.222   2.021   3.781 -1.4288  0.2173  0.2326
  533MOL0     C71826  11.140   2.102   3.702 -0.0622 -0.2594  0.3733
  533MOL0     C71827  11.192   2.213   3.633  0.5249 -0.1784  0.0636
  533MOL0     O71828  11.094   2.282   3.563 -0.0596 -0.5774 -0.2651
  533MOL0     C71829  11.146   2.374   3.462 -0.4522  0.1705 -0.8290
  533MOL0     C71830  11.213   2.307   3.350 -0.8817  0.1572  1.0307
  533MOL0     C71831  11.139   2.173   3.317 -0.2943 -0.4617  0.1409
  533MOL0     C71832  10.991   2.176   3.298  0.1019 -0.3532 -0.2079
  533MOL0     C71833  10.920   2.038   3.277 -0.5953 -0.0774  0.6048
  533MOL0     C71834  10.913   1.946   3.399 -0.1569 -0.0090  0.2233
  533MOL0     C71835  10.865   1.806   3.359 -0.6372 -0.1726 -0.9308
  533MOL0     C71836  10.898   1.697   3.455  1.2569 -0.2822 -0.4349
  533MOL0     N71837  10.823   1.721   3.586  0.3465 -0.5692 -0.6522
  533MOL0     C71838  10.691   1.734   3.594  0.2070  0.7905 -0.3296
  533MOL0     C71839  10.666   1.783   3.713 -0.4412 -0.3461  0.3034
  533MOL0     C71840  10.539   1.820   3.776 -0.0579  0.1305 -0.7121
  533MOL0     C71841  10.491   1.729   3.897  1.0902 -0.1316  0.5408
  533MOL0     C71842  10.366   1.787   3.965 -0.8042 -0.5446 -0.0670
  533MOL0     C71843  10.341   1.720   4.094 -0.6761 -0.3056  0.4305
  533MOL0     O71844  10.274   1.803   4.192  0.5538  0.0427 -0.2266
  533MOL0     C71845  10.220   1.749   4.310 -0.4182 -0.5001 -0.1248
  533MOL0     C71846  10.101   1.807   4.367 -1.0063 -0.1015  0.9794
  533MOL0     C71847  10.051   1.747   4.485 -0.0716 -1.1550 -0.4224
  533MOL0     C71848  10.119   1.636   4.540  0.1746 -1.0059  0.6341
  533MOL0     C71849  10.057   1.571   4.656  1.0107  0.0509 -0.1645
  533MOL0     O71850   9.931   1.605   4.688 -0.1245 -0.2950  0.7966
  533MOL0     C71851   9.857   1.511   4.761  0.7815  0.4947  0.4073
  533MOL0     C71852   9.869   1.369   4.783  1.6858  0.5818  0.0455
  533MOL0     C71853   9.771   1.312   4.861  0.2174 -0.4476 -0.7253
  533MOL0     C71854   9.671   1.382   4.928 -0.0906  0.2071 -0.4441
  533MOL0     O71855   9.595   1.310   5.013  0.4286  0.4895  0.3066
  533MOL0     C71856   9.470   1.365   5.068 -0.2840 -1.0757  0.2836
  533MOL0     C71857   9.354   1.347   4.967 -0.1795 -0.2749  0.7234
  533MOL0     C71858   9.221   1.406   5.012  0.6273 -0.7926 -0.1439
  533MOL0     C71859   9.198   1.551   4.970 -0.1721 -0.4587  0.6022
  533MOL0     C71860   9.058   1.603   4.993  0.4654  0.8803  0.6636
  533MOL0     C71861   9.041   1.739   4.931 -1.1477 -0.3168  0.2513
  533MOL0     C71862   8.914   1.795   4.974  1.3302  0.0748 -0.5029
  533MOL0     C71863   8.895   1.941   4.927 -0.0013 -0.1841 -0.5432
  533MOL0    Cl71864   8.745   2.004   5.004 -0.0854 -0.0858  0.4130
  533MOL0     C71865   9.657   1.509   4.891 -0.2227 -0.5367  0.4699
  533MOL0     C71866   9.747   1.578   4.807 -1.0328 -0.0003 -1.2996
  533MOL0     O71867  10.130   1.497   4.720  0.2904  0.8993 -0.1804
  533MOL0     C71868  10.238   1.581   4.487  0.3710 -0.4822 -0.1451
  533MOL0     C71869  10.292   1.648   4.374  0.3385  0.0341  0.0138
  533MOL0     N71870  10.782   1.787   3.785 -0.1518 -0.3204 -0.2825
  533MOL0     N71871  10.884   1.763   3.702  0.2552 -0.1178 -0.4477
  533MOL0     C71872  11.319   2.250   3.665 -1.1136 -0.2299  0.4296
  533MOL0     C71873  11.404   2.179   3.747 -0.0048  0.3858  0.5468
  533MOL0     C71874  11.649   1.865   3.869  0.9510  1.1251  0.6374
  533MOL0     C71875  11.652   1.830   4.004 -0.1605 -0.6338 -0.1324
  533MOL0     C71876  11.770   1.801   4.072 -1.0258 -0.4019  0.6921
  533MOL0     C71877  11.893   1.779   3.993 -0.2569  0.5001  0.4076
  533MOL0     O71878  12.013   1.738   4.033 -0.1051  0.1420 -0.4775
  533MOL0     C71879  12.020   1.644   4.140  0.0200 -0.4910 -0.2464
  533MOL0     C71880  12.114   1.711   4.245  0.4124 -0.8900 -0.0565
  533MOL0     C71881  12.067   1.850   4.302  0.2669  0.4783  0.4396
  533MOL0     C71882  12.110   1.972   4.220 -0.3780 -1.3272  0.0354
  533MOL0     C71883  12.256   1.991   4.223 -0.3132  0.3649  0.8622
  533MOL0     C71884  12.383   1.995   4.232  0.7862 -0.1441 -0.7474
  533MOL0     C71885  11.883   1.792   3.855  0.4328 -0.4086  0.4253
  533MOL0     C71886  11.769   1.845   3.789 -0.5100 -0.1033 -0.1337
  533MOL0     C71887  11.790   1.866   3.639  0.2606  0.6979 -0.7733
  533MOL0     H71888  11.178   1.930   3.822 -1.2838 -0.0478 -0.1819
  533MOL0     H71889  11.033   2.083   3.692 -1.0380  4.3180 -0.0337
  533MOL0     H71890  11.066   2.428   3.411  2.5117  1.8409 -4.1143
  533MOL0     H71891  11.204   2.454   3.511 -2.6891  2.7287 -2.0954
  533MOL0     H71892  11.318   2.283   3.369 -0.7932 -0.0178  0.3779
  533MOL0     H71893  11.212   2.366   3.258 -0.5034 -2.9117 -1.0971
  533MOL0     H71894  11.163   2.105   3.400  3.8032  0.6442  0.1177
  533MOL0     H71895  11.193   2.126   3.234 -0.9490 -2.3513  0.7399
  533MOL0     H71896  10.933   2.226   3.376  1.3391  2.1445 -0.7909
  533MOL0     H71897  10.984   2.237   3.207  0.6469 -0.5377 -0.3778
  533MOL0     H71898  10.821   2.067   3.243 -0.4964 -0.7412 -0.2957
  533MOL0     H71899  10.984   1.992   3.202  2.9859  2.4009  1.8474
  533MOL0     H71900  11.012   1.940   3.445 -0.3042  1.5829  0.8154
  533MOL0     H71901  10.839   1.987   3.469 -3.7131 -1.2162 -2.4799
  533MOL0     H71902  10.918   1.784   3.266  3.2033 -1.0844  1.2409
  533MOL0     H71903  10.756   1.811   3.352 -0.4950  1.1841 -3.0119
  533MOL0     H71904  10.862   1.601   3.417  1.2800 -1.1495  1.5728
  533MOL0     H71905  11.006   1.694   3.470  1.2685 -0.3679 -0.5353
  533MOL0     H71906  10.612   1.701   3.528  1.6514  0.8430 -2.1471
  533MOL0     H71907  10.552   1.918   3.824  1.1820 -0.5296  0.3934
  533MOL0     H71908  10.456   1.834   3.708  0.1317 -1.3234 -1.2800
  533MOL0     H71909  10.467   1.630   3.856 -1.2032  0.0089  1.3684
  533MOL0     H71910  10.569   1.723   3.973  1.1928 -2.3590  0.3094
  533MOL0     H71911  10.279   1.788   3.899 -1.4616  0.1558  0.7821
  533MOL0     H71912  10.389   1.892   3.985 -1.0211 -0.5486  0.2130
  533MOL0     H71913  10.440   1.692   4.133  1.0674 -1.8723 -4.3578
  533MOL0     H71914  10.279   1.631   4.094  0.0037 -0.8035  1.4133
  533MOL0     H71915  10.036   1.888   4.335  1.0475  0.2047 -2.9330
  533MOL0     H71916   9.960   1.795   4.521  1.7604  2.2502  0.0713
  533MOL0     H71917   9.947   1.305   4.742  0.5607 -2.1986  1.8994
  533MOL0     H71918   9.778   1.205   4.873  0.8616 -0.5003 -1.5133
  533MOL0     H71919   9.447   1.304   5.156  1.4848  0.5839  1.9984
  533MOL0     H71920   9.483   1.467   5.105 -0.0206 -1.3736  1.0237
  533MOL0     H71921   9.374   1.388   4.867 -2.2823  0.8825  0.7158
  533MOL0     H71922   9.346   1.239   4.950  4.8998 -0.7017 -0.6794
  533MOL0     H71923   9.143   1.339   4.973  1.0304 -1.7657  0.6810
  533MOL0     H71924   9.204   1.416   5.120 -4.2885  5.5501 -0.8989
  533MOL0     H71925   9.224   1.566   4.865 -1.2870 -3.8924 -0.2902
  533MOL0     H71926   9.260   1.618   5.031 -0.5254  0.2724  0.1717
  533MOL0     H71927   9.031   1.600   5.099 -0.1873  0.6435  0.4947
  533MOL0     H71928   8.982   1.532   4.958 -0.4703  1.2816  1.8086
  533MOL0     H71929   9.127   1.798   4.965  0.4443 -2.6016  0.4529
  533MOL0     H71930   9.043   1.730   4.822  0.0964 -1.5592  0.3454
  533MOL0     H71931   8.898   1.788   5.082 -1.1416 -3.4132 -0.9161
  533MOL0     H71932   8.832   1.737   4.931  0.9101  0.0973  0.2577
  533MOL0     H71933   8.980   2.005   4.953  0.9145 -2.2135  1.7973
  533MOL0     H71934   8.876   1.954   4.820  0.9078  1.7887 -0.5132
  533MOL0     H71935   9.574   1.567   4.931  0.0209 -0.2800  0.6036
  533MOL0     H71936   9.731   1.683   4.784 -1.7656  1.0783  3.2008
  533MOL0     H71937  10.278   1.489   4.527 -0.6671 -1.1269 -0.5279
  533MOL0     H71938  10.386   1.612   4.331  0.9350  1.2322  0.2709
  533MOL0     H71939  11.371   2.330   3.613  0.0911 -0.5860  1.0529
  533MOL0     H71940  11.492   2.229   3.787 -1.5631  2.1371  2.0052
  533MOL0     H71941  11.562   1.839   4.064  0.4102  1.5455  0.4931
  533MOL0     H71942  11.783   1.791   4.180  1.0457  1.9945  0.7579
  533MOL0     H71943  12.062   1.550   4.103  2.4581 -0.1781  1.4822
  533MOL0     H71944  11.927   1.615   4.190 -0.7324  0.1706 -1.2185
  533MOL0     H71945  12.214   1.714   4.200  1.2106 -0.9441  1.6310
  533MOL0     H71946  12.129   1.640   4.326  1.4863 -1.1409 -0.4492
  533MOL0     H71947  12.114   1.866   4.400  0.7237 -0.2510  0.3419
  533MOL0     H71948  11.958   1.855   4.307 -0.0729  1.1212 -3.8518
  533MOL0     H71949  12.081   1.951   4.117 -0.7762 -2.7654  0.4174
  533MOL0     H71950  12.059   2.054   4.271 -2.2832 -3.9975  2.7567
  533MOL0     H71951  12.480   2.022   4.267 -0.7142  1.1321  2.9208
  533MOL0     H71952  11.978   1.777   3.805  0.2360  0.0940 -0.1062
  533MOL0     H71953  11.707   1.807   3.599  1.5396  0.6094 -3.5271
  533MOL0     H71954  11.787   1.973   3.620 -0.6419  0.4009 -2.4384
  533MOL0     H71955  11.891   1.830   3.616  0.8517  0.4465  1.8192
  534MOL0     O71956  11.434   2.859   4.960 -0.5253 -0.3517 -0.5338
  534MOL0     C71957  11.555   2.853   4.965  0.7447  0.1784 -0.3637
  534MOL0     O71958  11.614   2.823   5.082 -0.2999  0.0805  0.9159
  534MOL0     C71959  11.542   2.833   5.201 -0.6114  0.1101  0.5687
  534MOL0     C71960  11.471   2.725   5.260 -0.4203 -0.4890  0.5111
  534MOL0     C71961  11.416   2.734   5.386  0.6626  0.9308 -0.2293
  534MOL0     C71962  11.411   2.853   5.451 -0.9316  0.7177  0.5821
  534MOL0     O71963  11.344   2.867   5.570 -0.5631  0.3971  0.1899
  534MOL0     C71964  11.220   2.928   5.547  0.7365 -0.2320  0.6079
  534MOL0     C71965  11.151   2.973   5.681  0.4360 -0.3528 -0.2942
  534MOL0     C71966  11.101   2.844   5.742  0.3297 -1.0562  0.1760
  534MOL0     C71967  11.012   2.870   5.871 -0.1590 -0.7150 -0.2180
  534MOL0     C71968  11.095   2.919   5.996  0.2394  0.2670 -0.4310
  534MOL0     C71969  11.006   2.976   6.103  0.2282  0.0341  0.4619
  534MOL0     C71970  11.083   3.063   6.197 -0.7092  0.2682 -0.3656
  534MOL0     C71971  11.135   3.200   6.151  0.5628 -0.1937  0.6975
  534MOL0     N71972  11.050   3.320   6.180  0.6140  0.2010  0.2963
  534MOL0     C71973  10.941   3.329   6.261  1.0254  0.2194  0.1496
  534MOL0     C71974  10.879   3.444   6.241 -0.0619  0.3167 -0.2946
  534MOL0     C71975  10.744   3.490   6.289 -0.4997  0.4397  0.9165
  534MOL0     C71976  10.646   3.501   6.174  0.3818  0.2428 -0.2220
  534MOL0     C71977  10.503   3.518   6.218  0.8463  0.0786 -0.6775
  534MOL0     C71978  10.393   3.544   6.116 -0.7647  0.6632  0.2660
  534MOL0     O71979  10.420   3.667   6.040  0.0605  0.4240 -0.7843
  534MOL0     C71980  10.459   3.661   5.905 -0.7974  0.0155  0.8772
  534MOL0     C71981  10.385   3.576   5.816 -0.6181 -0.1513 -1.0250
  534MOL0     C71982  10.427   3.590   5.685 -0.6321 -0.1050  0.4067
  534MOL0     C71983  10.522   3.682   5.633 -0.2001  0.2367 -0.5965
  534MOL0     C71984  10.547   3.690   5.488 -0.3504 -1.0511 -0.4364
  534MOL0     O71985  10.620   3.808   5.451 -0.0145 -0.4123  0.2468
  534MOL0     C71986  10.673   3.808   5.320  0.8872 -0.4866 -0.7074
  534MOL0     C71987  10.662   3.914   5.219 -0.1359  0.1835 -0.3293
  534MOL0     C71988  10.724   3.900   5.103 -0.1621 -0.0866  0.7136
  534MOL0     C71989  10.804   3.797   5.066  0.5576 -0.0911 -0.1241
  534MOL0     O71990  10.872   3.788   4.947 -0.4136  0.0940  0.0682
  534MOL0     C71991  10.801   3.825   4.827 -0.4652 -0.2434 -0.2070
  534MOL0     C71992  10.868   3.750   4.706  0.1089 -0.6819  0.3453
  534MOL0     C71993  10.782   3.628   4.669  0.2175  0.6122 -0.3351
  534MOL0     C71994  10.837   3.561   4.528  0.4842 -0.3828 -0.9459
  534MOL0     C71995  10.915   3.430   4.577  0.3684  0.5866 -0.2527
  534MOL0     C71996  10.950   3.338   4.463  0.3118  0.0048  0.2396
  534MOL0     C71997  10.984   3.196   4.498 -0.2859  0.3368  0.2152
  534MOL0     C71998  11.112   3.173   4.577 -0.6531 -0.3782 -0.1167
  534MOL0    Cl71999  11.258   3.238   4.493  0.4205 -0.1800  0.3984
  534MOL0     C72000  10.829   3.699   5.158  0.5068  0.2050 -0.3762
  534MOL0     C72001  10.759   3.701   5.285 -0.2882  0.1263 -0.7269
  534MOL0     O72002  10.503   3.610   5.410  0.4608  0.2046  0.4629
  534MOL0     C72003  10.579   3.769   5.725  0.1600  0.8368  0.7808
  534MOL0     C72004  10.547   3.762   5.860 -0.3062  0.9441  1.0103
  534MOL0     N72005  10.961   3.526   6.164  0.1112  1.1359 -0.9815
  534MOL0     N72006  11.068   3.449   6.138  0.4467  0.9218  0.5704
  534MOL0     C72007  11.486   2.959   5.390 -0.1161  0.6937  0.1391
  534MOL0     C72008  11.550   2.948   5.267  0.6151  0.3820 -1.0329
  534MOL0     C72009  11.647   2.901   4.855  0.0478  0.2153  1.2249
  534MOL0     C72010  11.781   2.915   4.889 -0.0029 -0.2367  0.0323
  534MOL0     C72011  11.878   2.941   4.804  0.1223 -0.1510  0.0592
  534MOL0     C72012  11.850   2.966   4.669  0.1369 -0.6165  0.6467
  534MOL0     O72013  11.959   2.988   4.585 -0.1477 -0.4647  0.0951
  534MOL0     C72014  11.927   3.028   4.452  0.1055 -0.1178 -0.1566
  534MOL0     C72015  12.059   3.079   4.389  0.9250 -0.3271 -0.7322
  534MOL0     C72016  12.041   3.143   4.254 -0.2287  0.4684 -0.0853
  534MOL0     C72017  12.067   3.048   4.142 -0.3987  0.6028 -0.4348
  534MOL0     C72018  12.045   3.109   4.008 -0.0311  0.2605 -0.0417
  534MOL0     C72019  12.033   3.160   3.896  1.0378 -0.8437 -0.4412
  534MOL0     C72020  11.716   2.966   4.621  0.2680  0.4756 -0.8088
  534MOL0     C72021  11.613   2.943   4.718  0.4280 -0.4345 -0.6053
  534MOL0     C72022  11.472   2.969   4.673  0.1444 -0.4746 -0.2177
  534MOL0     H72023  11.463   2.633   5.203 -0.1539  0.6844 -1.5496
  534MOL0     H72024  11.339   2.661   5.411  2.9528 -0.5718  3.1545
  534MOL0     H72025  11.222   3.013   5.477  1.6462 -0.1072  0.7701
  534MOL0     H72026  11.155   2.857   5.495  1.8360  1.1169 -2.9447
  534MOL0     H72027  11.063   3.034   5.658  1.3517  1.6054  1.1120
  534MOL0     H72028  11.227   3.038   5.727  0.1523  1.8749 -2.7485
  534MOL0     H72029  11.194   2.795   5.774  1.7501  0.4972 -1.3724
  534MOL0     H72030  11.033   2.780   5.685  0.5589 -3.8989  2.7846
  534MOL0     H72031  10.934   2.942   5.843 -0.3664 -1.6711 -2.2263
  534MOL0     H72032  10.963   2.775   5.894 -1.0883  0.1070  1.4329
  534MOL0     H72033  11.154   2.838   6.040  0.0435  0.0927 -0.4873
  534MOL0     H72034  11.169   2.995   5.968  1.7927 -0.5339  1.2634
  534MOL0     H72035  10.919   3.021   6.054 -0.3545 -2.0473 -0.5319
  534MOL0     H72036  10.957   2.894   6.156 -0.2667  1.5129  2.4115
  534MOL0     H72037  11.163   2.992   6.221 -0.5752  0.8547  0.9813
  534MOL0     H72038  11.038   3.088   6.293 -1.3938  2.6643 -1.2324
  534MOL0     H72039  11.240   3.208   6.182  1.3264 -2.0322 -1.1392
  534MOL0     H72040  11.140   3.194   6.041 -1.3201  1.2662  0.4847
  534MOL0     H72041  10.909   3.245   6.322  1.3472  0.7791  1.1070
  534MOL0     H72042  10.708   3.422   6.368  0.5775 -2.9612 -1.2931
  534MOL0     H72043  10.758   3.591   6.328  4.7181  0.0595  0.6833
  534MOL0     H72044  10.669   3.586   6.108 -0.5251 -0.3211 -1.3079
  534MOL0     H72045  10.642   3.413   6.109 -3.1335 -1.4720  1.9741
  534MOL0     H72046  10.497   3.603   6.287 -0.9532  0.3097 -1.0702
  534MOL0     H72047  10.476   3.437   6.286  1.0622 -0.5256 -1.2958
  534MOL0     H72048  10.289   3.541   6.148 -1.0053 -1.3325 -0.5577
  534MOL0     H72049  10.400   3.452   6.057 -0.8146  0.3997  0.6648
  534MOL0     H72050  10.312   3.512   5.864  0.5981  1.4930  3.5674
  534MOL0     H72051  10.396   3.507   5.622  1.2498 -0.6418  0.1447
  534MOL0     H72052  10.608   4.006   5.239  2.3513  1.9254 -1.1299
  534MOL0     H72053  10.720   3.967   5.018  0.0911  1.4151  1.8469
  534MOL0     H72054  10.699   3.786   4.842 -0.4830  1.0050  4.7829
  534MOL0     H72055  10.805   3.934   4.818 -2.2426 -0.1075  0.2092
  534MOL0     H72056  10.877   3.831   4.632 -0.2429  0.1470  1.1902
  534MOL0     H72057  10.970   3.715   4.721  0.3531 -0.5054 -0.7735
  534MOL0     H72058  10.768   3.558   4.751 -1.5145  0.1254 -1.0030
  534MOL0     H72059  10.676   3.649   4.651  0.6288  3.0570 -0.1976
  534MOL0     H72060  10.892   3.628   4.462  2.4851 -0.8740  0.1490
  534MOL0     H72061  10.743   3.537   4.477 -0.1151 -1.0518  0.4015
  534MOL0     H72062  10.875   3.356   4.647  1.3071 -0.7501 -1.0704
  534MOL0     H72063  11.002   3.475   4.625  2.9982 -1.0062 -3.1661
  534MOL0     H72064  10.851   3.325   4.418  0.7225  0.3375 -0.8005
  534MOL0     H72065  11.026   3.385   4.400 -0.1860 -0.9102 -1.0869
  534MOL0     H72066  10.990   3.128   4.413 -1.9005 -0.3866  0.6425
  534MOL0     H72067  10.899   3.154   4.553  0.0826  1.6349  1.8809
  534MOL0     H72068  11.109   3.227   4.672  0.7731 -1.9358  0.8707
  534MOL0     H72069  11.119   3.067   4.599  4.3554 -1.1117 -3.4253
  534MOL0     H72070  10.894   3.617   5.129 -0.7343 -1.1440  0.5605
  534MOL0     H72071  10.772   3.617   5.353 -2.1091 -0.5752 -1.1940
  534MOL0     H72072  10.640   3.854   5.696 -0.9528  1.6405  0.7077
  534MOL0     H72073  10.589   3.831   5.933 -0.4794  1.2413  0.8302
  534MOL0     H72074  11.512   3.057   5.429  2.6311  1.4002 -2.9380
  534MOL0     H72075  11.615   3.027   5.230 -0.6163  1.8168 -0.2319
  534MOL0     H72076  11.805   2.904   4.994 -1.6185 -3.0738  0.2134
  534MOL0     H72077  11.981   2.942   4.838  0.4311  0.5298 -0.8464
  534MOL0     H72078  11.857   3.113   4.450  0.0163 -0.1849 -2.2578
  534MOL0     H72079  11.881   2.949   4.392 -0.6836  0.8734 -0.8948
  534MOL0     H72080  12.141   3.006   4.390 -0.4840 -1.9691 -0.7630
  534MOL0     H72081  12.097   3.154   4.459 -2.3541 -1.3710  2.4602
  534MOL0     H72082  12.111   3.227   4.257 -0.7847  1.2137  6.6784
  534MOL0     H72083  11.938   3.168   4.226  0.2976 -0.6978 -3.5020
  534MOL0     H72084  12.170   3.012   4.132  0.1220  1.9088 -0.0762
  534MOL0     H72085  12.005   2.960   4.160  0.2543  0.6445  2.5791
  534MOL0     H72086  12.010   3.199   3.799 -2.0637  0.8230  0.8111
  534MOL0     H72087  11.676   2.976   4.520 -1.5260  3.6349  0.0835
  534MOL0     H72088  11.422   3.034   4.745  2.5354  0.2052  0.9394
  534MOL0     H72089  11.465   3.019   4.576  1.1592 -0.1931 -0.1554
  534MOL0     H72090  11.411   2.878   4.681  0.7929 -1.1042 -1.9079
  535MOL0     O72091  11.361   8.216   1.184  0.1464  0.3880  0.5024
  535MOL0     C72092  11.393   8.326   1.171 -0.1090  0.6060  1.0549
  535MOL0     O72093  11.318   8.435   1.146  0.0404 -0.2361 -0.8979
  535MOL0     C72094  11.179   8.413   1.137  0.0323 -0.5148 -0.8754
  535MOL0     C72095  11.126   8.429   1.016  0.4864 -0.7924  0.7637
  535MOL0     C72096  10.992   8.433   1.000  0.2447  0.2645 -0.3137
  535MOL0     C72097  10.908   8.395   1.107  1.0479 -0.7656  0.9617
  535MOL0     O72098  10.770   8.379   1.100  0.3985  0.1050  0.4206
  535MOL0     C72099  10.691   8.426   0.984 -0.5289  0.8657 -0.6570
  535MOL0     C72100  10.674   8.318   0.876  0.2583  0.4161 -0.3254
  535MOL0     C72101  10.659   8.170   0.947  0.5724 -0.6374  0.1510
  535MOL0     C72102  10.541   8.087   0.891  0.9105 -0.8367  0.1133
  535MOL0     C72103  10.519   7.961   0.961  0.5278  1.1837  0.2123
  535MOL0     C72104  10.433   7.867   0.875  1.1966  0.0228  0.5016
  535MOL0     C72105  10.387   7.745   0.953  0.7177 -0.1111 -0.0170
  535MOL0     C72106  10.315   7.647   0.863  0.5547 -0.9027 -0.4544
  535MOL0     N72107  10.217   7.557   0.935 -0.9655  0.2940  0.3620
  535MOL0     C72108  10.148   7.453   0.878 -0.9943 -0.8015 -0.5012
  535MOL0     C72109  10.089   7.392   0.983 -0.5602  0.3985 -1.5319
  535MOL0     C72110   9.995   7.274   0.962 -0.4761 -1.0358 -0.4491
  535MOL0     C72111  10.056   7.150   1.020 -0.1918  0.1089 -0.9717
  535MOL0     C72112   9.966   7.026   1.003 -0.9086 -0.2002  0.2923
  535MOL0     C72113   9.851   7.042   1.105 -0.3915  0.1291  0.2806
  535MOL0     O72114   9.764   6.920   1.115 -0.1520  0.3990 -0.0914
  535MOL0     C72115   9.642   6.938   1.177 -0.9604 -0.5573  0.3748
  535MOL0     C72116   9.577   7.060   1.215 -0.0394  0.6747 -0.0912
  535MOL0     C72117   9.440   7.055   1.258 -0.1409  0.5328  0.6053
  535MOL0     C72118   9.365   6.936   1.261 -0.1993  0.3613 -0.1076
  535MOL0     C72119   9.224   6.934   1.318 -0.5148  0.9296  0.0011
  535MOL0     O72120   9.161   7.057   1.328 -0.0595  0.3813 -0.3034
  535MOL0     C72121   9.032   7.057   1.367 -0.2907  0.4315 -0.0672
  535MOL0     C72122   8.998   7.031   1.501  0.1807  0.4655  0.3450
  535MOL0     C72123   8.870   7.051   1.544 -0.2860 -0.2592 -0.6856
  535MOL0     C72124   8.764   7.103   1.456 -0.4919 -0.1486  0.9337
  535MOL0     O72125   8.633   7.114   1.490 -0.5243  0.6794 -0.4488
  535MOL0     C72126   8.605   7.249   1.527  0.3818  0.5854 -0.8198
  535MOL0     C72127   8.457   7.278   1.518  0.1780 -1.1455 -0.2184
  535MOL0     C72128   8.354   7.212   1.604 -0.4611  0.0437 -0.2241
  535MOL0     C72129   8.316   7.070   1.563 -0.8418 -0.2976  0.8690
  535MOL0     C72130   8.192   7.013   1.634  0.4173 -0.2041  0.2693
  535MOL0     C72131   8.158   6.864   1.618  0.6930 -0.5138  0.6481
  535MOL0     C72132   8.019   6.826   1.660 -0.2806 -0.1244  0.0985
  535MOL0     C72133   7.909   6.918   1.588  0.5239 -0.2755  0.7929
  535MOL0    Cl72134   7.935   6.926   1.413  0.0337  0.5102  0.2475
  535MOL0     C72135   8.802   7.133   1.320 -0.2761  0.0824 -0.4644
  535MOL0     C72136   8.932   7.112   1.284 -0.1100 -0.0762  0.2263
  535MOL0     O72137   9.177   6.817   1.342  0.8122 -0.5673  0.0109
  535MOL0     C72138   9.434   6.816   1.232  0.7335 -0.4561  0.6380
  535MOL0     C72139   9.570   6.817   1.176 -0.7782 -0.2774  0.7986
  535MOL0     N72140  10.117   7.457   1.106  0.8586  0.2109  0.0152
  535MOL0     N72141  10.198   7.552   1.067 -0.5606 -0.8636  0.1978
  535MOL0     C72142  10.965   8.366   1.239 -0.4229  0.0869 -0.5206
  535MOL0     C72143  11.104   8.378   1.251  0.0671  0.3624  0.6072
  535MOL0     C72144  11.532   8.356   1.184 -1.4910 -0.1464 -0.9097
  535MOL0     C72145  11.625   8.308   1.087 -0.4304 -0.4598 -0.0659
  535MOL0     C72146  11.759   8.315   1.117  0.3539 -0.2479 -0.1514
  535MOL0     C72147  11.806   8.376   1.230  0.0402 -0.0422 -0.5090
  535MOL0     O72148  11.932   8.385   1.266 -0.5248 -0.1929  0.8530
  535MOL0     C72149  12.029   8.320   1.185 -0.6599 -0.1481  0.7070
  535MOL0     C72150  12.172   8.341   1.250  0.8330  0.2339 -1.1003
  535MOL0     C72151  12.178   8.323   1.399  0.4735  0.5715 -0.7329
  535MOL0     C72152  12.174   8.172   1.432  0.4428 -0.1084 -0.0912
  535MOL0     C72153  12.054   8.097   1.395  0.2181 -0.5111  0.2623
  535MOL0     C72154  11.956   8.032   1.367 -0.5437  1.0620 -0.0937
  535MOL0     C72155  11.710   8.442   1.306 -0.7009  0.3638 -0.3095
  535MOL0     C72156  11.575   8.429   1.301 -0.0669  0.3861  0.0972
  535MOL0     C72157  11.491   8.497   1.401 -0.0800 -0.4386 -0.7901
  535MOL0     H72158  11.193   8.453   0.934  1.0926  2.6983  2.1140
  535MOL0     H72159  10.952   8.453   0.901 -1.6012 -1.1215  0.0858
  535MOL0     H72160  10.590   8.448   1.020  0.1723  1.0474  1.3476
  535MOL0     H72161  10.735   8.516   0.942 -0.2935  0.4975 -1.2125
  535MOL0     H72162  10.772   8.306   0.829  0.9319  1.0815  0.8650
  535MOL0     H72163  10.594   8.348   0.808  1.7228  0.5141 -2.0692
  535MOL0     H72164  10.624   8.179   1.050  1.1655 -0.8902  0.3781
  535MOL0     H72165  10.759   8.126   0.949  1.5366  1.4401  0.8257
  535MOL0     H72166  10.453   8.152   0.885  1.7108  0.4568  1.5732
  535MOL0     H72167  10.564   8.069   0.786  1.3637  1.8238 -0.2977
  535MOL0     H72168  10.618   7.917   0.972  0.3187  0.6251 -0.0650
  535MOL0     H72169  10.474   7.979   1.059 -0.7489 -1.8958  0.3278
  535MOL0     H72170  10.354   7.941   0.861  0.9675 -0.0375  1.4531
  535MOL0     H72171  10.475   7.850   0.775  2.3298 -0.6707  1.0697
  535MOL0     H72172  10.331   7.787   1.037  0.6070  1.6988 -0.9455
  535MOL0     H72173  10.475   7.692   0.990 -0.9365 -2.6629  0.4958
  535MOL0     H72174  10.255   7.713   0.799 -0.0080  1.1297  2.0286
  535MOL0     H72175  10.389   7.591   0.805  1.5682  0.4964 -0.5688
  535MOL0     H72176  10.152   7.437   0.770 -6.0361 -2.7191 -0.6697
  535MOL0     H72177   9.892   7.289   0.995 -0.4281  0.3818 -0.8679
  535MOL0     H72178   9.991   7.273   0.852  0.6193  2.1722 -0.6408
  535MOL0     H72179  10.151   7.133   0.968 -0.1632  0.8188 -1.1686
  535MOL0     H72180  10.078   7.168   1.126 -0.7112  0.8737 -0.9853
  535MOL0     H72181  10.023   6.940   1.038  2.1767  2.0258  1.1418
  535MOL0     H72182   9.928   7.025   0.900  0.7588  0.5038 -0.3582
  535MOL0     H72183   9.791   7.131   1.084 -1.7601 -0.5514  1.1138
  535MOL0     H72184   9.889   7.051   1.208 -1.4973 -1.7232  0.8927
  535MOL0     H72185   9.636   7.150   1.208  0.1313  0.5089 -0.9591
  535MOL0     H72186   9.381   7.144   1.273  0.3605  0.6605  1.9619
  535MOL0     H72187   9.069   6.981   1.567  0.3421 -2.4641 -1.8292
  535MOL0     H72188   8.840   7.022   1.644  0.8031 -0.5666 -0.4395
  535MOL0     H72189   8.655   7.267   1.623 -0.7920  0.1339 -0.0970
  535MOL0     H72190   8.656   7.321   1.462  1.8161  2.5850  2.2350
  535MOL0     H72191   8.442   7.385   1.528 -0.8825 -1.3627  0.6883
  535MOL0     H72192   8.443   7.250   1.414  2.5145  0.7501 -1.1489
  535MOL0     H72193   8.383   7.212   1.709  1.1892 -0.7975 -0.6371
  535MOL0     H72194   8.265   7.274   1.594 -0.8403 -0.4185  0.2369
  535MOL0     H72195   8.398   6.997   1.565 -0.5107 -0.1048 -1.9236
  535MOL0     H72196   8.298   7.075   1.455 -2.4881  1.9171  1.1858
  535MOL0     H72197   8.114   7.075   1.588  0.1815 -0.2404  0.6094
  535MOL0     H72198   8.183   7.030   1.742 -0.1932  1.8554 -0.0588
  535MOL0     H72199   8.178   6.832   1.515 -0.7911 -1.4032  0.5977
  535MOL0     H72200   8.234   6.800   1.663  1.3864 -1.9819 -2.3418
  535MOL0     H72201   8.012   6.820   1.769 -0.5980 -5.2204  0.0188
  535MOL0     H72202   8.016   6.725   1.620  2.0846  0.2823 -1.2686
  535MOL0     H72203   7.809   6.881   1.613 -0.6963  2.5551  0.5607
  535MOL0     H72204   7.913   7.023   1.619  0.3659  0.7804 -2.3653
  535MOL0     H72205   8.721   7.165   1.254 -1.8527  0.2308  1.4627
  535MOL0     H72206   8.962   7.134   1.182  1.6981  1.0057  0.9586
  535MOL0     H72207   9.395   6.717   1.252  1.5218 -1.4748 -2.2353
  535MOL0     H72208   9.629   6.731   1.146  0.8624  1.4001 -1.1847
  535MOL0     H72209  10.906   8.340   1.327 -1.0918  1.7519 -0.4439
  535MOL0     H72210  11.152   8.361   1.347  3.3939 -1.1752 -1.1499
  535MOL0     H72211  11.592   8.273   0.990  0.7885 -1.4114 -0.1683
  535MOL0     H72212  11.821   8.259   1.047 -1.3698 -0.2389 -1.7325
  535MOL0     H72213  12.021   8.341   1.078 -0.6896 -0.7964  0.5777
  535MOL0     H72214  12.000   8.214   1.188 -2.5109  0.2823 -0.5133
  535MOL0     H72215  12.200   8.445   1.231 -1.7173  0.9945 -1.1626
  535MOL0     H72216  12.234   8.271   1.194 -1.2232 -1.4057 -1.4546
  535MOL0     H72217  12.100   8.372   1.457 -0.6880 -1.1290 -0.7840
  535MOL0     H72218  12.268   8.375   1.434  0.5362  0.0484 -0.0885
  535MOL0     H72219  12.269   8.126   1.402  0.6554  0.3844 -0.1882
  535MOL0     H72220  12.169   8.148   1.539  2.1000 -2.0615 -0.3959
  535MOL0     H72221  11.872   7.985   1.320  0.5945 -1.1107 -0.0466
  535MOL0     H72222  11.746   8.506   1.386  0.9567 -2.1237  1.0271
  535MOL0     H72223  11.532   8.487   1.502 -2.1049 -0.6979  0.0724
  535MOL0     H72224  11.503   8.602   1.372 -0.0576 -0.4164 -0.7014
  535MOL0     H72225  11.384   8.473   1.396  0.0061 -1.1963  0.4638
  536MOL0     O72226   9.911  10.035   2.576 -0.3115  0.3499  0.3547
  536MOL0     C72227   9.793  10.037   2.616  0.1145  0.1160 -0.1903
  536MOL0     O72228   9.744  10.109   2.722  1.2579 -0.5531 -0.0588
  536MOL0     C72229   9.818  10.209   2.786 -0.4162  0.3393 -0.7681
  536MOL0     C72230   9.948  10.266   2.747 -0.3734  0.5356  0.3251
  536MOL0     C72231  10.008  10.364   2.829 -0.3781  0.1279  0.9249
  536MOL0     C72232   9.938  10.417   2.943 -0.1266 -0.6897 -0.5025
  536MOL0     O72233   9.975  10.518   3.030 -0.2315  0.2379  0.6248
  536MOL0     C72234  10.030  10.631   2.955  0.4090 -0.4960 -0.0576
  536MOL0     C72235   9.911  10.729   2.932 -0.8871  0.1426 -0.5441
  536MOL0     C72236   9.882  10.808   3.067 -0.0659  1.1343 -0.3501
  536MOL0     C72237   9.728  10.819   3.089  0.1126  0.5116  0.0063
  536MOL0     C72238   9.697  10.921   3.195 -0.4925  0.1894 -0.5239
  536MOL0     C72239   9.555  10.907   3.239  1.6094  0.4353 -0.3723
  536MOL0     C72240   9.506  11.037   3.329  0.2555  0.5415  1.0083
  536MOL0     C72241   9.353  11.018   3.376 -0.6601 -0.1431  0.5667
  536MOL0     N72242   9.327  10.962   3.508  0.6820 -0.0519 -0.0288
  536MOL0     C72243   9.382  10.853   3.574 -0.4592 -0.4794  0.3313
  536MOL0     C72244   9.340  10.865   3.704 -0.7111 -0.3643  0.4389
  536MOL0     C72245   9.366  10.758   3.813 -0.0927  0.7534  0.7578
  536MOL0     C72246   9.246  10.730   3.907 -0.0286  0.0031 -0.2258
  536MOL0     C72247   9.292  10.649   4.030 -0.1015  0.7276  1.0049
  536MOL0     C72248   9.195  10.619   4.144 -0.0815 -0.1108 -0.1899
  536MOL0     O72249   9.139  10.739   4.182  0.0318  0.6761  0.6400
  536MOL0     C72250   9.042  10.731   4.283 -0.5893 -0.0453  0.9855
  536MOL0     C72251   8.909  10.703   4.239 -0.6630 -0.6399  0.4155
  536MOL0     C72252   8.810  10.686   4.343 -0.2333 -0.0003  0.2490
  536MOL0     C72253   8.847  10.701   4.478 -0.0734  0.2415  0.0450
  536MOL0     C72254   8.744  10.677   4.581 -0.3834 -0.0604 -0.0717
  536MOL0     O72255   8.790  10.678   4.713 -0.2779  0.6254  0.5989
  536MOL0     C72256   8.709  10.680   4.815  0.1552 -0.8348 -0.4340
  536MOL0     C72257   8.583  10.740   4.817  0.0363 -1.0249  0.2582
  536MOL0     C72258   8.509  10.753   4.932  0.1093 -0.0545  0.4492
  536MOL0     C72259   8.543  10.683   5.052  0.2805  0.1772  0.5804
  536MOL0     O72260   8.473  10.687   5.160  0.2510 -0.0493 -0.8325
  536MOL0     C72261   8.333  10.696   5.164  0.1470 -0.4227 -0.2643
  536MOL0     C72262   8.294  10.838   5.218 -0.4928 -0.2770  0.1330
  536MOL0     C72263   8.336  10.848   5.370 -0.7862  0.8445  0.0070
  536MOL0     C72264   8.321  10.986   5.441 -0.0546 -0.1588  0.4306
  536MOL0     C72265   8.434  11.090   5.417  0.1132 -0.7057  0.0020
  536MOL0     C72266   8.461  11.113   5.269 -0.2205 -1.3059 -0.2037
  536MOL0     C72267   8.565  11.215   5.246 -0.3462  0.5441  0.0272
  536MOL0     C72268   8.546  11.278   5.103  0.2750  0.5058  0.3088
  536MOL0    Cl72269   8.565  11.162   4.975  0.3369  0.3224 -0.6449
  536MOL0     C72270   8.663  10.623   5.054  0.0331 -0.0117  1.4186
  536MOL0     C72271   8.750  10.633   4.937 -0.9822  0.1933 -1.4057
  536MOL0     O72272   8.627  10.659   4.547  0.4081  0.0451 -0.6740
  536MOL0     C72273   8.975  10.736   4.512 -0.5025 -0.0868  0.8894
  536MOL0     C72274   9.072  10.759   4.417  0.7427  0.4926 -0.6764
  536MOL0     N72275   9.266  10.983   3.725  0.1972 -0.4585  0.5916
  536MOL0     N72276   9.250  11.031   3.598  0.2087  0.2576  0.2859
  536MOL0     C72277   9.812  10.365   2.976  0.3932  0.7074 -0.1603
  536MOL0     C72278   9.756  10.261   2.897  0.1190  1.0713 -0.3270
  536MOL0     C72279   9.674   9.974   2.549  0.1608  0.2682  0.4673
  536MOL0     C72280   9.551   9.949   2.622 -0.7241  0.4539 -0.1130
  536MOL0     C72281   9.446   9.879   2.561 -0.7433  0.4199 -1.5668
  536MOL0     C72282   9.447   9.843   2.426 -0.9138  0.4371 -0.6441
  536MOL0     O72283   9.338   9.776   2.379  0.0074  0.0431  0.2072
  536MOL0     C72284   9.351   9.680   2.272 -0.8711  0.5159  0.4462
  536MOL0     C72285   9.413   9.557   2.336 -0.5284 -0.1784  0.0016
  536MOL0     C72286   9.427   9.446   2.233  0.6077 -0.4152  0.0651
  536MOL0     C72287   9.553   9.452   2.151  0.6236  0.3949  0.4867
  536MOL0     C72288   9.549   9.340   2.056 -0.3512  0.6827  1.5866
  536MOL0     C72289   9.538   9.234   1.992 -0.5967 -0.6807  0.3213
  536MOL0     C72290   9.565   9.859   2.358 -0.8847  0.2855  0.4689
  536MOL0     C72291   9.679   9.926   2.417  0.8145 -0.6892  0.0017
  536MOL0     C72292   9.801   9.932   2.330 -0.4023 -0.0926  0.3843
  536MOL0     H72293  10.006  10.236   2.661 -0.9087  0.7706 -0.1255
  536MOL0     H72294  10.106  10.395   2.793 -1.9297  0.5564 -3.6172
  536MOL0     H72295  10.115  10.664   3.016 -0.8430 -2.0385  2.7401
  536MOL0     H72296  10.068  10.615   2.854 -1.6801 -0.3922 -0.9044
  536MOL0     H72297   9.823  10.676   2.894  1.0214 -2.7716 -1.1619
  536MOL0     H72298   9.941  10.803   2.857 -3.2343 -0.0954 -1.8433
  536MOL0     H72299   9.924  10.910   3.065 -2.4249  2.1657 -1.0606
  536MOL0     H72300   9.938  10.766   3.150 -0.1838  0.7438 -0.4694
  536MOL0     H72301   9.674  10.859   3.002 -0.9010  2.0047  1.2670
  536MOL0     H72302   9.686  10.719   3.101  2.1925 -0.4043  0.1392
  536MOL0     H72303   9.749  10.885   3.285 -1.5506 -1.4070 -0.5020
  536MOL0     H72304   9.722  11.024   3.168 -2.4930  1.1272  0.9566
  536MOL0     H72305   9.491  10.892   3.151 -0.2597  0.9201  0.8462
  536MOL0     H72306   9.538  10.816   3.298  0.6632 -1.1961 -2.9656
  536MOL0     H72307   9.508  11.131   3.273  1.6571  0.4223  0.8316
  536MOL0     H72308   9.566  11.037   3.421 -0.8300  0.4155  1.7448
  536MOL0     H72309   9.326  11.124   3.377 -1.3055 -0.3063  0.8269
  536MOL0     H72310   9.286  10.973   3.303 -0.7031  3.0881 -1.5345
  536MOL0     H72311   9.460  10.790   3.532  0.9430  1.4091 -0.0188
  536MOL0     H72312   9.393  10.662   3.769  0.1257  0.6730  1.0640
  536MOL0     H72313   9.456  10.793   3.864  1.0252  1.4329 -1.5509
  536MOL0     H72314   9.210  10.828   3.940 -0.5177  0.4252 -1.9303
  536MOL0     H72315   9.163  10.680   3.856 -3.7485  0.1480  4.8553
  536MOL0     H72316   9.374  10.705   4.077  1.6030 -3.1027  3.0987
  536MOL0     H72317   9.343  10.561   3.989  3.7073  2.9046  0.5734
  536MOL0     H72318   9.235  10.569   4.233  1.5943  1.1534 -0.1817
  536MOL0     H72319   9.125  10.547   4.099 -0.2541 -0.8060  1.1502
  536MOL0     H72320   8.877  10.679   4.138 -3.0330  1.5188  0.5456
  536MOL0     H72321   8.710  10.655   4.314  0.4752  0.0893 -2.5057
  536MOL0     H72322   8.551  10.794   4.729 -0.2500  0.4092  1.2105
  536MOL0     H72323   8.418  10.805   4.903  1.4423 -0.0946 -4.6311
  536MOL0     H72324   8.271  10.687   5.075 -4.7165  0.5024  2.6751
  536MOL0     H72325   8.299  10.616   5.230  0.3884  0.2219  0.6670
  536MOL0     H72326   8.329  10.917   5.151 -1.2065  0.6605  0.8434
  536MOL0     H72327   8.185  10.828   5.218 -0.3032 -3.2696 -1.5742
  536MOL0     H72328   8.268  10.776   5.417  3.1012 -2.1726  1.5973
  536MOL0     H72329   8.436  10.804   5.384 -0.7547 -0.4561 -3.4708
  536MOL0     H72330   8.323  10.969   5.549 -2.0762  1.0321  0.7021
  536MOL0     H72331   8.226  11.031   5.410  0.7977  0.2893 -1.6807
  536MOL0     H72332   8.523  11.056   5.469  2.7228  2.3540 -2.0699
  536MOL0     H72333   8.401  11.187   5.455 -0.6176 -0.8105 -0.3484
  536MOL0     H72334   8.488  11.018   5.222 -1.7482 -1.6244 -0.5214
  536MOL0     H72335   8.366  11.145   5.225 -1.5583 -2.5911  1.6114
  536MOL0     H72336   8.665  11.176   5.270 -1.0023  0.3339  2.7405
  536MOL0     H72337   8.567  11.306   5.308  4.6726  0.6337  0.1438
  536MOL0     H72338   8.448  11.327   5.104  0.5224  0.9992  0.8969
  536MOL0     H72339   8.624  11.353   5.107  1.9318 -1.1968  2.7516
  536MOL0     H72340   8.702  10.568   5.139  0.8542 -2.2956 -0.3181
  536MOL0     H72341   8.847  10.583   4.943 -2.3278 -2.6426 -1.6957
  536MOL0     H72342   9.003  10.739   4.617  2.0633 -0.4024  0.2694
  536MOL0     H72343   9.168  10.806   4.432  0.0516  3.3143 -3.9126
  536MOL0     H72344   9.762  10.406   3.063 -1.3802 -0.7880 -0.4253
  536MOL0     H72345   9.659  10.215   2.915  0.9914 -0.4409  0.6977
  536MOL0     H72346   9.543   9.991   2.722  1.8855 -0.3346  0.5062
  536MOL0     H72347   9.355   9.883   2.620 -2.1192 -1.9784 -3.3491
  536MOL0     H72348   9.404   9.716   2.184 -1.0969 -2.1028 -0.8671
  536MOL0     H72349   9.255   9.654   2.225 -1.1815 -3.1830  2.7272
  536MOL0     H72350   9.341   9.525   2.412 -1.1668  0.3650 -0.3677
  536MOL0     H72351   9.516   9.574   2.367 -0.5644 -1.7581  1.1362
  536MOL0     H72352   9.339   9.448   2.168  1.3424  0.0689 -0.9497
  536MOL0     H72353   9.431   9.359   2.299 -3.2474  0.5519  1.8217
  536MOL0     H72354   9.572   9.545   2.096  0.6475 -0.2543 -0.6466
  536MOL0     H72355   9.639   9.441   2.218  1.6150  2.9264 -0.2637
  536MOL0     H72356   9.546   9.138   1.945  2.6366 -0.9479  1.1218
  536MOL0     H72357   9.587   9.831   2.255 -2.5125  4.6062 -1.2732
  536MOL0     H72358   9.854  10.027   2.338 -0.5250  0.0757 -0.7309
  536MOL0     H72359   9.873   9.857   2.365 -1.8985 -1.8072 -0.0719
  536MOL0     H72360   9.783   9.908   2.225 -0.0562 -1.9974  0.7216
  537MOL0     O72361   7.645   8.705   0.197  0.2019 -0.0921 -0.8868
  537MOL0     C72362   7.649   8.749   0.308 -0.3585 -0.9321  0.1457
  537MOL0     O72363   7.680   8.677   0.419  0.7156  0.1078  0.4004
  537MOL0     C72364   7.757   8.559   0.408 -0.1946  1.1556 -0.8269
  537MOL0     C72365   7.829   8.522   0.526  0.3037 -0.2339 -0.7252
  537MOL0     C72366   7.890   8.399   0.540 -0.4401  0.1799  1.2375
  537MOL0     C72367   7.908   8.307   0.441  0.6271 -0.1897 -0.1346
  537MOL0     O72368   7.973   8.185   0.471 -0.1986 -0.4515  0.0067
  537MOL0     C72369   7.990   8.098   0.352  0.5107  0.0447  0.3223
  537MOL0     C72370   8.027   7.958   0.387 -0.4704  0.4195  0.0572
  537MOL0     C72371   8.180   7.932   0.414  0.3994  0.0986  0.3283
  537MOL0     C72372   8.224   7.990   0.546  0.4263  1.3854 -0.1813
  537MOL0     C72373   8.367   7.981   0.569 -0.0347 -0.7343  0.5315
  537MOL0     C72374   8.397   8.053   0.695  0.3157 -0.1380 -0.4136
  537MOL0     C72375   8.516   7.995   0.760 -0.2356  0.0865 -0.2204
  537MOL0     C72376   8.577   8.079   0.864  0.0717  0.0766 -0.7754
  537MOL0     N72377   8.665   7.993   0.948 -0.5643  0.0742  0.0237
  537MOL0     C72378   8.633   7.958   1.078  1.0345  0.0649 -0.5496
  537MOL0     C72379   8.740   7.887   1.129 -0.0027  0.1754 -0.1483
  537MOL0     C72380   8.749   7.818   1.264 -0.1200  1.2152  0.2847
  537MOL0     C72381   8.684   7.680   1.251 -0.0053 -0.4380  0.2785
  537MOL0     C72382   8.734   7.585   1.143 -0.5170 -0.2709 -0.5622
  537MOL0     C72383   8.856   7.508   1.184 -0.5299  0.5453  0.2441
  537MOL0     O72384   8.968   7.593   1.208 -0.5070 -0.4603  0.2349
  537MOL0     C72385   9.091   7.532   1.221  0.4140  0.6518  1.1917
  537MOL0     C72386   9.122   7.429   1.310  1.7893 -0.2167  0.7946
  537MOL0     C72387   9.248   7.405   1.354  1.2895 -0.6150 -0.2787
  537MOL0     C72388   9.350   7.487   1.308 -0.6500  0.0162  0.1767
  537MOL0     C72389   9.483   7.466   1.365 -1.2387 -0.9330 -0.0062
  537MOL0     O72390   9.510   7.353   1.437 -0.1523 -0.5850 -0.3303
  537MOL0     C72391   9.642   7.313   1.458  0.8485  0.0041 -0.2228
  537MOL0     C72392   9.643   7.178   1.492  0.5284 -0.0714  0.3055
  537MOL0     C72393   9.764   7.115   1.509  0.3417 -0.5480  0.6309
  537MOL0     C72394   9.880   7.178   1.489  0.8092 -0.1560 -1.5367
  537MOL0     O72395   9.990   7.092   1.490 -0.2950  0.7073  0.4723
  537MOL0     C72396  10.119   7.170   1.517 -0.3458 -0.6029  1.3940
  537MOL0     C72397  10.242   7.068   1.521 -0.1981  0.9737 -0.3794
  537MOL0     C72398  10.316   7.062   1.655  0.1389 -0.1045  0.4414
  537MOL0     C72399  10.350   6.922   1.704 -0.4699  0.2240  0.8063
  537MOL0     C72400  10.471   6.851   1.634 -0.4326 -0.1990 -0.1911
  537MOL0     C72401  10.605   6.924   1.628  1.0298 -1.1342 -0.3240
  537MOL0     C72402  10.639   6.980   1.767  0.7338 -0.0036  0.8780
  537MOL0     C72403  10.783   7.001   1.777 -0.2471  0.1788 -0.7420
  537MOL0    Cl72404  10.863   6.849   1.820 -0.4180  0.0989 -0.3371
  537MOL0     C72405   9.881   7.316   1.453  0.2198 -0.3122  0.0033
  537MOL0     C72406   9.759   7.383   1.431  0.3248 -0.1655  0.2618
  537MOL0     O72407   9.557   7.562   1.360 -0.1298 -0.5270 -0.0383
  537MOL0     C72408   9.319   7.585   1.209 -1.3837  0.2336  0.6497
  537MOL0     C72409   9.191   7.609   1.174  0.6453  0.6857 -0.2938
  537MOL0     N72410   8.836   7.893   1.034  0.1080  0.0511 -0.6865
  537MOL0     N72411   8.798   7.965   0.924 -0.2057 -0.4820 -0.6593
  537MOL0     C72412   7.844   8.348   0.314 -0.8829 -0.1161 -0.1643
  537MOL0     C72413   7.771   8.466   0.295 -0.4146 -1.1565  1.0610
  537MOL0     C72414   7.598   8.886   0.339  0.0962  1.1794 -1.0593
  537MOL0     C72415   7.656   8.945   0.453  0.0828  0.0099  1.0210
  537MOL0     C72416   7.630   9.081   0.479  0.1260 -1.1434  0.5414
  537MOL0     C72417   7.554   9.160   0.390  0.1438  0.5917  1.0789
  537MOL0     O72418   7.526   9.289   0.418 -0.9503  0.1611  0.2266
  537MOL0     C72419   7.462   9.376   0.321 -0.4949 -0.0945 -1.0844
  537MOL0     C72420   7.437   9.522   0.366 -0.4449  0.3540 -0.2378
  537MOL0     C72421   7.422   9.627   0.250 -0.7275 -0.0788  0.5410
  537MOL0     C72422   7.282   9.638   0.199  1.3852  0.1542  0.2985
  537MOL0     C72423   7.254   9.510   0.131 -0.1392 -0.3853 -0.1218
  537MOL0     C72424   7.217   9.413   0.064  0.3841  0.3653 -0.9561
  537MOL0     C72425   7.497   9.100   0.280  0.5805  0.6804 -0.6545
  537MOL0     C72426   7.514   8.956   0.256 -0.5254 -0.2384  0.4769
  537MOL0     C72427   7.431   8.894   0.141  0.3533 -0.3594 -0.1189
  537MOL0     H72428   7.833   8.582   0.616  2.9481 -2.4332  0.8061
  537MOL0     H72429   7.925   8.368   0.638  2.6359  2.5213  1.0498
  537MOL0     H72430   7.891   8.090   0.307  0.3039 -4.1484  1.0756
  537MOL0     H72431   8.071   8.137   0.290  0.9804 -2.1196 -0.5188
  537MOL0     H72432   7.993   7.904   0.297  1.9628  0.7775 -1.1706
  537MOL0     H72433   7.977   7.920   0.476  0.0758 -0.1584  0.1213
  537MOL0     H72434   8.246   7.972   0.336  0.6237 -3.0498 -1.2378
  537MOL0     H72435   8.186   7.823   0.418 -1.6890 -0.2172 -2.4334
  537MOL0     H72436   8.205   8.097   0.533  1.2079  1.3370 -2.1213
  537MOL0     H72437   8.159   7.954   0.626  1.2393 -0.8628 -0.4521
  537MOL0     H72438   8.382   7.873   0.562  0.7118 -0.7751  2.1459
  537MOL0     H72439   8.414   8.029   0.483 -1.7650  0.1029  0.0060
  537MOL0     H72440   8.420   8.156   0.664  1.4291 -0.4079 -0.5171
  537MOL0     H72441   8.314   8.036   0.765 -0.1521  0.2149 -0.8688
  537MOL0     H72442   8.596   7.976   0.688  0.4998 -1.8412  1.0210
  537MOL0     H72443   8.493   7.897   0.802  0.6787 -0.1165 -0.1675
  537MOL0     H72444   8.640   8.158   0.821 -0.5834  0.8459 -0.3270
  537MOL0     H72445   8.496   8.129   0.918  0.3218  3.0177 -2.9023
  537MOL0     H72446   8.532   7.976   1.114  1.0016  0.2287 -0.7233
  537MOL0     H72447   8.852   7.795   1.290 -0.3011 -1.4608 -1.0712
  537MOL0     H72448   8.707   7.883   1.342 -0.9337  0.1247  0.7997
  537MOL0     H72449   8.687   7.628   1.347  2.0859 -2.4762 -0.8109
  537MOL0     H72450   8.575   7.691   1.242 -0.3497 -1.9873  1.9960
  537MOL0     H72451   8.764   7.634   1.050  1.8518 -0.3009  0.1240
  537MOL0     H72452   8.655   7.511   1.131  0.2684 -1.8234  2.8076
  537MOL0     H72453   8.884   7.438   1.105 -1.1896  0.3925  0.1349
  537MOL0     H72454   8.827   7.446   1.270  2.7041  0.2989  1.2801
  537MOL0     H72455   9.038   7.365   1.336 -0.0823  2.2344  1.0377
  537MOL0     H72456   9.268   7.330   1.430  2.2749  1.1586  1.2912
  537MOL0     H72457   9.548   7.130   1.512  1.4447 -1.2236  2.1859
  537MOL0     H72458   9.754   7.018   1.556 -1.0272  1.0912  4.0810
  537MOL0     H72459  10.133   7.243   1.437 -0.5879  0.2512  2.1265
  537MOL0     H72460  10.120   7.222   1.613  3.0412  0.3733  0.9596
  537MOL0     H72461  10.198   6.968   1.512 -2.5372  1.9229 -0.4408
  537MOL0     H72462  10.317   7.093   1.446  0.1392  0.3454 -0.2627
  537MOL0     H72463  10.408   7.121   1.649 -0.8007  1.2235 -2.9049
  537MOL0     H72464  10.261   7.103   1.740  3.4734  2.7245  1.4598
  537MOL0     H72465  10.271   6.849   1.686  0.0992 -0.0822 -0.6208
  537MOL0     H72466  10.372   6.933   1.810  1.6711  2.8879  0.2071
  537MOL0     H72467  10.442   6.842   1.529 -0.2548 -3.0327 -0.0881
  537MOL0     H72468  10.480   6.748   1.671 -0.3548 -0.1051  0.0532
  537MOL0     H72469  10.675   6.852   1.583  1.9948 -0.3177 -0.1502
  537MOL0     H72470  10.599   7.003   1.552  0.0117 -0.5419  0.3466
  537MOL0     H72471  10.607   6.907   1.842 -0.8225  0.9205  1.1644
  537MOL0     H72472  10.582   7.073   1.776  0.2853 -0.3398  1.6911
  537MOL0     H72473  10.833   7.037   1.686 -1.2090  3.6542 -0.0664
  537MOL0     H72474  10.801   7.077   1.854  2.6107  0.2517 -1.3462
  537MOL0     H72475   9.969   7.376   1.430  0.1787  0.2350  1.2128
  537MOL0     H72476   9.761   7.489   1.411 -0.2227  0.6210  3.7551
  537MOL0     H72477   9.403   7.640   1.168 -0.1158 -2.7219 -1.0718
  537MOL0     H72478   9.160   7.695   1.115  1.5501  2.9713  2.3266
  537MOL0     H72479   7.836   8.292   0.221  0.2253  1.7063 -1.4270
  537MOL0     H72480   7.712   8.477   0.205  2.3550 -3.5587 -1.2499
  537MOL0     H72481   7.711   8.885   0.525  1.4801 -2.2956 -1.7699
  537MOL0     H72482   7.668   9.117   0.574 -1.0257 -0.1441  0.6576
  537MOL0     H72483   7.363   9.332   0.305 -1.3396  0.5278  1.7240
  537MOL0     H72484   7.523   9.380   0.231  0.7505 -0.0791 -0.2712
  537MOL0     H72485   7.521   9.543   0.434  0.1737 -4.2094  0.7898
  537MOL0     H72486   7.348   9.535   0.428  0.7952 -1.8673  2.2565
  537MOL0     H72487   7.499   9.623   0.172 -1.7380 -0.2774 -0.4643
  537MOL0     H72488   7.446   9.723   0.296  0.0517  0.4184 -0.8415
  537MOL0     H72489   7.203   9.662   0.270  0.5127 -3.9707  1.0059
  537MOL0     H72490   7.271   9.715   0.122  0.3255  0.3380  0.6308
  537MOL0     H72491   7.170   9.330   0.016 -1.4729  0.6541  0.2769
  537MOL0     H72492   7.427   9.151   0.215 -1.9510 -4.0806 -2.1808
  537MOL0     H72493   7.347   8.840   0.186 -0.3972  1.5326  0.8885
  537MOL0     H72494   7.387   8.980   0.089  0.8300  3.2163  4.6715
  537MOL0     H72495   7.488   8.846   0.062  0.0869  2.2544 -2.0406
  538MOL0     O72496   7.282   3.136   9.620  0.4853 -0.0229 -0.4737
  538MOL0     C72497   7.175   3.106   9.579  1.0734 -0.1797  0.8899
  538MOL0     O72498   7.149   3.041   9.463 -0.0015  0.4546  0.6866
  538MOL0     C72499   7.235   3.044   9.354 -0.5715  0.4871  1.1518
  538MOL0     C72500   7.211   2.943   9.259  0.1699 -0.1430 -0.3438
  538MOL0     C72501   7.295   2.928   9.144  0.4505  0.4170  0.4023
  538MOL0     C72502   7.415   2.999   9.131 -0.4648 -0.7978  0.1500
  538MOL0     O72503   7.494   2.991   9.019 -0.1469  0.4145 -0.4822
  538MOL0     C72504   7.636   2.992   9.028  0.2157 -0.8903 -0.1356
  538MOL0     C72505   7.707   2.872   8.955 -0.3875 -0.1433 -0.1507
  538MOL0     C72506   7.719   2.879   8.798 -0.3608 -0.0810  0.2153
  538MOL0     C72507   7.791   3.006   8.756 -0.2534 -0.5994  0.6819
  538MOL0     C72508   7.831   3.002   8.607 -0.1760  0.1559  0.6144
  538MOL0     C72509   7.905   3.139   8.561  0.4025  0.3999 -1.0143
  538MOL0     C72510   7.947   3.113   8.420 -0.1083  0.4608  0.3767
  538MOL0     C72511   8.013   3.235   8.358 -1.4196  0.3319  0.7695
  538MOL0     N72512   8.036   3.191   8.218 -0.0723  0.4313 -0.2682
  538MOL0     C72513   8.143   3.107   8.181 -0.3901 -1.0077  0.3925
  538MOL0     C72514   8.129   3.072   8.051 -0.0379 -0.3183 -0.2095
  538MOL0     C72515   8.227   2.997   7.966  0.3883  0.9975  0.6454
  538MOL0     C72516   8.287   2.861   8.019  0.0051 -0.8172 -0.0021
  538MOL0     C72517   8.166   2.769   8.048 -0.9078  1.3869 -0.6693
  538MOL0     C72518   8.195   2.672   8.174  0.3936  0.0002  0.7259
  538MOL0     O72519   8.089   2.568   8.174  0.2905 -0.0765  0.3812
  538MOL0     C72520   8.093   2.449   8.102  0.4146  0.5603 -0.4974
  538MOL0     C72521   8.207   2.388   8.074  0.0969 -0.1539 -0.1538
  538MOL0     C72522   8.213   2.276   8.002  1.1504  0.9087  0.3465
  538MOL0     C72523   8.102   2.200   7.975  0.3265  0.8065  0.8561
  538MOL0     C72524   8.097   2.077   7.900 -0.8972 -0.0748  0.0129
  538MOL0     O72525   7.977   2.003   7.903  0.0756 -1.1219 -0.5984
  538MOL0     C72526   7.975   1.891   7.826  1.4825  0.6456 -0.4874
  538MOL0     C72527   7.992   1.911   7.685 -0.9450  0.5892 -0.4699
  538MOL0     C72528   7.972   1.804   7.596  0.5251 -0.1996 -0.1086
  538MOL0     C72529   7.949   1.674   7.655  0.0166 -0.0249 -0.4379
  538MOL0     O72530   7.921   1.579   7.566  0.3524 -0.6602  0.5257
  538MOL0     C72531   7.933   1.447   7.619  0.2749  0.7412 -0.4361
  538MOL0     C72532   7.929   1.345   7.501 -0.0955  0.1485 -1.1356
  538MOL0     C72533   7.972   1.209   7.550  0.1297  0.4063  0.2560
  538MOL0     C72534   7.966   1.115   7.425 -1.2567 -0.4407  0.0101
  538MOL0     C72535   8.043   0.986   7.442  0.0523  0.8031  0.3191
  538MOL0     C72536   8.037   0.904   7.574  0.7845  0.9519  0.3818
  538MOL0     C72537   7.903   0.832   7.603  0.3709 -0.3849 -0.7663
  538MOL0     C72538   7.850   0.711   7.521  0.4589  0.1285  0.4314
  538MOL0    Cl72539   7.951   0.561   7.508  0.0769  0.3437  0.4011
  538MOL0     C72540   7.923   1.667   7.794  0.7714  0.1535 -0.3232
  538MOL0     C72541   7.939   1.769   7.886  0.0287 -0.5889  0.7047
  538MOL0     O72542   8.208   2.035   7.862 -0.0381 -0.4948 -0.4862
  538MOL0     C72543   7.982   2.261   8.010  0.6164  0.7874  0.4687
  538MOL0     C72544   7.976   2.385   8.085 -0.4127  0.2517 -0.6031
  538MOL0     N72545   8.019   3.140   8.008  0.1386 -0.6167 -0.0006
  538MOL0     N72546   7.963   3.207   8.109  0.4281 -0.2688  0.2677
  538MOL0     C72547   7.434   3.106   9.223  0.2961  0.0606  0.4898
  538MOL0     C72548   7.349   3.124   9.331 -0.7657  0.6872  0.1898
  538MOL0     C72549   7.060   3.135   9.670 -0.2881  1.2802 -0.9920
  538MOL0     C72550   7.041   3.259   9.733 -0.3635  0.3565 -0.1204
  538MOL0     C72551   6.927   3.279   9.818 -0.3660  0.3075  0.4632
  538MOL0     C72552   6.842   3.173   9.846  0.1465  0.1333 -0.5388
  538MOL0     O72553   6.736   3.196   9.935  0.0428  0.6231 -0.0723
  538MOL0     C72554   6.741   3.118  10.052 -0.3508 -0.1749 -0.6699
  538MOL0     C72555   6.764   3.200  10.175 -0.5911  0.3878  0.0369
  538MOL0     C72556   6.876   3.314  10.155  0.0706  0.0773 -0.9411
  538MOL0     C72557   6.877   3.388  10.286 -0.3992 -0.7534 -0.6841
  538MOL0     C72558   6.973   3.498  10.269 -0.6973 -1.0879 -1.0158
  538MOL0     C72559   7.061   3.575  10.242 -0.2225  0.0682  0.2488
  538MOL0     C72560   6.855   3.051   9.784 -0.3261 -0.9309  0.5812
  538MOL0     C72561   6.959   3.031   9.694  0.2720  0.0746  0.2757
  538MOL0     C72562   6.959   2.885   9.640  0.0254  0.6841  0.3014
  538MOL0     H72563   7.116   2.891   9.269  0.6618 -0.9204  0.5134
  538MOL0     H72564   7.266   2.851   9.073  0.6878 -0.0588  0.8146
  538MOL0     H72565   7.663   3.090   8.987  0.0674 -0.0624  1.6673
  538MOL0     H72566   7.675   3.006   9.129  1.6401 -0.1019 -0.7623
  538MOL0     H72567   7.650   2.780   8.972 -0.7437  0.0885 -0.0831
  538MOL0     H72568   7.806   2.850   8.995 -0.7431 -0.7422  0.4067
  538MOL0     H72569   7.614   2.885   8.768  0.0754  0.6848 -1.2748
  538MOL0     H72570   7.769   2.788   8.766 -2.3561 -2.3969  3.0705
  538MOL0     H72571   7.727   3.094   8.767  1.2051  0.4261  1.2566
  538MOL0     H72572   7.871   3.020   8.829 -0.9333  1.2451  1.1280
  538MOL0     H72573   7.899   2.916   8.601 -2.4467 -1.6374 -1.8130
  538MOL0     H72574   7.746   2.999   8.538  0.2419 -0.5049  0.1107
  538MOL0     H72575   7.837   3.224   8.570 -0.5189 -0.2238 -1.8468
  538MOL0     H72576   7.986   3.158   8.631 -1.1503  1.6368  0.5476
  538MOL0     H72577   7.861   3.084   8.358 -0.0104  2.7805 -0.9768
  538MOL0     H72578   8.015   3.027   8.418  1.2339  1.5072 -0.6657
  538MOL0     H72579   7.960   3.331   8.357 -0.7193  0.7352  1.4868
  538MOL0     H72580   8.109   3.261   8.405 -0.5251 -0.0662 -0.7458
  538MOL0     H72581   8.224   3.086   8.250  0.5174  1.3992  0.1441
  538MOL0     H72582   8.168   2.957   7.882  0.6752  0.0174  0.8990
  538MOL0     H72583   8.310   3.060   7.933  2.1238 -1.6300 -0.3625
  538MOL0     H72584   8.363   2.820   7.952  1.6808  2.3221 -0.2363
  538MOL0     H72585   8.336   2.883   8.115 -3.5609  0.5137  1.6810
  538MOL0     H72586   8.128   2.709   7.965 -1.0785  1.6831 -0.8077
  538MOL0     H72587   8.086   2.830   8.091  1.1274  0.6422  5.0525
  538MOL0     H72588   8.187   2.733   8.264 -0.7100  1.0276 -0.0295
  538MOL0     H72589   8.298   2.637   8.169  0.6810  0.9694 -1.5795
  538MOL0     H72590   8.301   2.441   8.086  0.3537 -0.5415 -0.4349
  538MOL0     H72591   8.303   2.238   7.954  0.5677 -1.1045  0.7618
  538MOL0     H72592   8.006   2.010   7.643  0.9887  1.6494  2.3732
  538MOL0     H72593   7.970   1.808   7.488 -0.4868  2.9537 -0.0649
  538MOL0     H72594   8.026   1.439   7.676  1.4073  1.0505 -2.1381
  538MOL0     H72595   7.849   1.426   7.685  0.9045  0.9011  0.4267
  538MOL0     H72596   7.826   1.341   7.463  0.4609 -1.2141 -2.6348
  538MOL0     H72597   8.003   1.368   7.424  6.0386 -0.8850  3.6657
  538MOL0     H72598   8.073   1.226   7.589 -0.3619  4.4973  0.1390
  538MOL0     H72599   7.911   1.179   7.636  2.6732 -1.1347  1.6508
  538MOL0     H72600   8.016   1.176   7.349  0.5889  2.5698  3.3371
  538MOL0     H72601   7.865   1.089   7.393 -1.6661  0.3308  0.6374
  538MOL0     H72602   8.150   1.004   7.423  0.4895  0.1912  2.0122
  538MOL0     H72603   8.015   0.915   7.363  0.7418 -0.1641  0.9198
  538MOL0     H72604   8.105   0.818   7.571 -0.9951 -0.5508  1.0309
  538MOL0     H72605   8.072   0.971   7.654  1.2922  0.6442  0.4263
  538MOL0     H72606   7.830   0.914   7.605  1.3956  0.5955  2.1332
  538MOL0     H72607   7.915   0.796   7.706  0.8112 -0.6215 -0.8977
  538MOL0     H72608   7.764   0.677   7.578  2.3103 -1.8726  2.2316
  538MOL0     H72609   7.819   0.742   7.421  1.4546 -1.9357 -0.5644
  538MOL0     H72610   7.891   1.572   7.837  0.4706  0.8172  0.9653
  538MOL0     H72611   7.923   1.766   7.993 -1.8314  0.1943  0.4789
  538MOL0     H72612   7.882   2.224   7.989  1.5512 -2.2369  0.8301
  538MOL0     H72613   7.884   2.433   8.118 -1.1956 -1.2504 -0.5374
  538MOL0     H72614   7.505   3.185   9.202 -0.8037  0.6448 -1.2576
  538MOL0     H72615   7.375   3.197   9.406 -4.4745  0.5404  1.8356
  538MOL0     H72616   7.116   3.336   9.719 -0.6508  0.1231 -4.4352
  538MOL0     H72617   6.910   3.380   9.856  1.3637  0.7969  0.0324
  538MOL0     H72618   6.821   3.043  10.053  1.3174  1.3585 -3.3640
  538MOL0     H72619   6.642   3.073  10.063 -1.4372  2.2383  0.1707
  538MOL0     H72620   6.800   3.130  10.251 -0.9664  0.7960  0.5992
  538MOL0     H72621   6.674   3.253  10.208  0.7343  1.4807  2.0818
  538MOL0     H72622   6.855   3.380  10.070 -0.3535  0.4955 -0.5181
  538MOL0     H72623   6.977   3.274  10.138 -0.3642 -0.1904 -3.3192
  538MOL0     H72624   6.785   3.440  10.314 -1.3045 -2.1378 -1.0165
  538MOL0     H72625   6.884   3.319  10.371 -0.8985  0.2271  0.1756
  538MOL0     H72626   7.133   3.653  10.224  0.3910 -0.4027  0.6217
  538MOL0     H72627   6.771   2.984   9.798 -1.0369 -1.2283 -3.7474
  538MOL0     H72628   7.040   2.841   9.700 -0.1073  2.8199  2.1940
  538MOL0     H72629   6.878   2.824   9.680 -0.1324  1.1655  0.7207
  538MOL0     H72630   6.968   2.880   9.531 -1.2638  4.3362 -0.1153
  539MOL0     O72631   5.993   9.809   2.113 -0.1105 -0.7961 -0.5848
  539MOL0     C72632   6.003   9.907   2.182 -0.0614 -0.5995 -0.3059
  539MOL0     O72633   6.110   9.986   2.192 -0.1997  0.0376  0.6542
  539MOL0     C72634   6.237   9.960   2.133  0.2736 -0.2735  0.1639
  539MOL0     C72635   6.358   9.952   2.208 -1.6932 -0.2614  0.1625
  539MOL0     C72636   6.481   9.950   2.141  0.0731 -0.1882  0.7153
  539MOL0     C72637   6.487   9.926   2.003 -0.7538 -0.7046 -0.7238
  539MOL0     O72638   6.620   9.907   1.957  0.3441 -0.1605  0.2118
  539MOL0     C72639   6.633   9.787   1.872 -0.2995  0.0155 -0.2363
  539MOL0     C72640   6.774   9.745   1.854  0.0438 -0.0013 -0.4117
  539MOL0     C72641   6.793   9.632   1.758 -0.3241 -0.0985 -1.0936
  539MOL0     C72642   6.769   9.491   1.815 -0.1057  0.0879 -0.2593
  539MOL0     C72643   6.761   9.372   1.714 -0.3036  0.2709 -1.4786
  539MOL0     C72644   6.888   9.344   1.622  0.0726 -0.6331  1.8295
  539MOL0     C72645   7.017   9.301   1.689 -0.4039  0.1205 -0.2065
  539MOL0     C72646   7.114   9.285   1.579 -0.1821  0.0416  0.5535
  539MOL0     N72647   7.104   9.156   1.509  1.0130  0.7960 -0.0806
  539MOL0     C72648   7.162   9.041   1.548  0.2256  0.1332  1.1524
  539MOL0     C72649   7.122   8.951   1.450 -0.6799 -0.4320  0.3677
  539MOL0     C72650   7.154   8.810   1.464  0.1215  0.6247 -0.3692
  539MOL0     C72651   7.121   8.762   1.607 -0.7075  0.5654 -0.3036
  539MOL0     C72652   7.253   8.741   1.697  0.4638 -0.5869  0.8196
  539MOL0     C72653   7.209   8.665   1.826 -0.9441 -0.2334  0.0530
  539MOL0     O72654   7.323   8.594   1.892  0.1488  0.3833 -0.0993
  539MOL0     C72655   7.337   8.460   1.884  0.0831  0.5508 -0.6399
  539MOL0     C72656   7.424   8.403   1.793 -0.4671  0.1291  0.0909
  539MOL0     C72657   7.440   8.258   1.786  0.5389 -0.0171 -0.3495
  539MOL0     C72658   7.393   8.176   1.881 -0.5490 -0.4453  0.3068
  539MOL0     C72659   7.425   8.031   1.883 -0.9984  0.7994  0.5227
  539MOL0     O72660   7.481   7.972   1.995 -0.5274 -0.0936  0.8360
  539MOL0     C72661   7.478   7.837   2.022  0.0442  0.5318  0.5685
  539MOL0     C72662   7.406   7.737   1.950  0.5172 -0.5579 -0.2329
  539MOL0     C72663   7.407   7.606   1.995  0.0544  0.4228  0.1975
  539MOL0     C72664   7.490   7.573   2.111 -0.6135  1.0808 -0.5652
  539MOL0     O72665   7.479   7.448   2.165  0.2703  0.0380  0.0316
  539MOL0     C72666   7.595   7.370   2.165 -0.0490  0.1085 -0.4397
  539MOL0     C72667   7.547   7.228   2.155  0.0553 -0.7700 -0.3016
  539MOL0     C72668   7.453   7.211   2.034 -0.8406 -0.3400  1.4903
  539MOL0     C72669   7.375   7.080   2.051 -0.4275 -0.5720  0.2357
  539MOL0     C72670   7.453   6.944   2.024 -0.0312  0.0159 -0.5452
  539MOL0     C72671   7.350   6.816   2.013 -0.9059  0.5212 -0.3333
  539MOL0     C72672   7.260   6.828   1.891 -0.8765  0.0605  0.5453
  539MOL0     C72673   7.331   6.788   1.762 -0.1678 -0.1475  0.1896
  539MOL0    Cl72674   7.417   6.914   1.672  0.2710 -0.0737 -0.3856
  539MOL0     C72675   7.571   7.669   2.168 -0.4791  0.2419 -1.2535
  539MOL0     C72676   7.575   7.798   2.120 -0.5338 -0.1152  0.6479
  539MOL0     O72677   7.425   7.975   1.775 -0.4660 -0.5798 -0.4467
  539MOL0     C72678   7.316   8.227   1.977 -0.0224 -0.1891 -0.0253
  539MOL0     C72679   7.286   8.369   1.980 -0.3817  0.8012 -0.2397
  539MOL0     N72680   7.029   9.003   1.363  0.6170  0.2573 -0.1094
  539MOL0     N72681   7.031   9.130   1.392 -0.0141 -1.1675  0.0738
  539MOL0     C72682   6.375   9.928   1.925 -0.2508  0.3844  0.1611
  539MOL0     C72683   6.249   9.953   1.993 -0.7455  0.0632 -0.0989
  539MOL0     C72684   5.895   9.936   2.284 -0.4166  0.0237 -0.0232
  539MOL0     C72685   5.922  10.017   2.393 -0.7041  0.2311  1.0728
  539MOL0     C72686   5.833  10.060   2.491 -0.3901  0.9968 -0.4431
  539MOL0     C72687   5.700  10.010   2.478  0.1742 -0.5425 -0.7847
  539MOL0     O72688   5.607  10.070   2.566  0.3572  0.0668 -0.2804
  539MOL0     C72689   5.522   9.989   2.656 -0.2095 -1.4689 -0.7938
  539MOL0     C72690   5.613   9.939   2.771 -0.1713  0.8510  0.3763
  539MOL0     C72691   5.683   9.804   2.744  0.0544 -0.4627  1.4000
  539MOL0     C72692   5.655   9.691   2.841  0.2694 -0.4965 -0.0248
  539MOL0     C72693   5.722   9.565   2.807  0.0232 -0.0952  0.3247
  539MOL0     C72694   5.775   9.454   2.800  0.6817  0.1978  0.4826
  539MOL0     C72695   5.674   9.907   2.386 -0.4318 -0.9350  0.4970
  539MOL0     C72696   5.769   9.873   2.291 -1.4322  0.3461  0.4370
  539MOL0     C72697   5.746   9.744   2.211 -0.1913  0.0120 -0.5102
  539MOL0     H72698   6.360   9.951   2.317  0.5475  2.1480  0.2632
  539MOL0     H72699   6.568   9.948   2.206 -0.2396  3.0934  1.4151
  539MOL0     H72700   6.583   9.700   1.915  2.3793 -0.9885  1.1061
  539MOL0     H72701   6.597   9.800   1.770  1.6407 -0.8730 -1.0740
  539MOL0     H72702   6.818   9.714   1.950 -0.4312  1.2730  0.2440
  539MOL0     H72703   6.836   9.830   1.823 -0.8106  0.4499 -0.8969
  539MOL0     H72704   6.894   9.636   1.717 -1.2647 -0.0673 -3.6272
  539MOL0     H72705   6.723   9.650   1.675 -0.8369  1.7762 -0.3019
  539MOL0     H72706   6.834   9.469   1.901 -0.9596 -2.4629 -0.1802
  539MOL0     H72707   6.674   9.494   1.869  1.9885 -0.8304  3.9149
  539MOL0     H72708   6.730   9.283   1.768 -1.1580  1.7504  0.6115
  539MOL0     H72709   6.675   9.383   1.648  1.0820 -0.9262 -3.5998
  539MOL0     H72710   6.865   9.264   1.551  0.0180  0.5856  0.4237
  539MOL0     H72711   6.915   9.434   1.567 -0.8743  1.4259  4.4936
  539MOL0     H72712   6.999   9.203   1.733  1.9982 -0.0658  0.5075
  539MOL0     H72713   7.054   9.370   1.765  0.0600 -3.3174  2.9516
  539MOL0     H72714   7.104   9.363   1.502 -4.0539 -0.9767 -0.2236
  539MOL0     H72715   7.214   9.311   1.613 -1.3394  4.0293  1.4079
  539MOL0     H72716   7.214   9.023   1.641  0.8202 -3.3418  0.3043
  539MOL0     H72717   7.086   8.762   1.393  1.9311 -1.2575 -0.9253
  539MOL0     H72718   7.253   8.785   1.423 -0.6018 -3.2194 -0.1399
  539MOL0     H72719   7.042   8.818   1.657  0.7655 -0.9305  4.1662
  539MOL0     H72720   7.078   8.664   1.584  1.4626 -1.4894  3.5116
  539MOL0     H72721   7.295   8.841   1.712  0.2711  0.0559 -2.2442
  539MOL0     H72722   7.322   8.674   1.643 -0.9295 -2.5000  1.3007
  539MOL0     H72723   7.126   8.602   1.792 -1.2891  1.8972 -3.6069
  539MOL0     H72724   7.178   8.734   1.905 -0.7222 -0.3206  0.2169
  539MOL0     H72725   7.485   8.459   1.723  3.1737 -1.8635  1.4296
  539MOL0     H72726   7.501   8.210   1.711  0.2656 -1.0469  0.0795
  539MOL0     H72727   7.344   7.751   1.862 -0.0228  1.2182  0.3946
  539MOL0     H72728   7.341   7.528   1.957  1.6148 -0.2619 -1.2679
  539MOL0     H72729   7.652   7.401   2.077 -1.0671 -0.8992 -1.4832
  539MOL0     H72730   7.644   7.372   2.263  1.3615 -0.3488 -1.0976
  539MOL0     H72731   7.629   7.155   2.150 -0.8271 -1.7774 -0.3899
  539MOL0     H72732   7.501   7.207   2.251  1.3179  0.3822  0.5947
  539MOL0     H72733   7.380   7.292   2.030 -0.7549 -0.1058  3.5129
  539MOL0     H72734   7.510   7.199   1.941 -2.0409  0.4543  0.6325
  539MOL0     H72735   7.296   7.095   1.978  1.7285 -1.8475 -2.5407
  539MOL0     H72736   7.330   7.064   2.149 -0.3417  0.4625  0.4534
  539MOL0     H72737   7.528   6.926   2.102  1.2650  0.7703 -1.5904
  539MOL0     H72738   7.503   6.944   1.927 -1.4940 -2.5731 -1.3894
  539MOL0     H72739   7.418   6.732   1.994 -0.8623  0.6834 -0.9340
  539MOL0     H72740   7.297   6.810   2.108  0.6813 -2.8044  0.4654
  539MOL0     H72741   7.222   6.931   1.888 -0.5950  0.2024  1.4850
  539MOL0     H72742   7.177   6.761   1.912 -1.6807  1.0804  0.7220
  539MOL0     H72743   7.417   6.721   1.778 -1.4748 -1.4852  2.0369
  539MOL0     H72744   7.268   6.728   1.696  0.8764 -0.1972 -0.8063
  539MOL0     H72745   7.638   7.634   2.246 -2.3439  1.3200  0.9652
  539MOL0     H72746   7.650   7.859   2.170  2.3599 -2.6428 -0.2460
  539MOL0     H72747   7.281   8.165   2.059  1.7093 -0.4159  0.5861
  539MOL0     H72748   7.217   8.407   2.055 -1.4164  2.4387 -1.9590
  539MOL0     H72749   6.366   9.930   1.817 -0.2800 -0.7593  0.1298
  539MOL0     H72750   6.158   9.964   1.934  0.2653  1.3577 -1.5034
  539MOL0     H72751   6.025  10.046   2.409 -0.6165  0.5599 -0.0127
  539MOL0     H72752   5.851  10.120   2.579  1.0807 -2.2728  1.6918
  539MOL0     H72753   5.447   9.927   2.606 -0.0962  0.7809 -4.0852
  539MOL0     H72754   5.467  10.068   2.708  3.7442  1.5707 -0.8101
  539MOL0     H72755   5.569   9.944   2.871  0.8176  1.5428  0.7954
  539MOL0     H72756   5.693  10.013   2.782  0.0963  0.3158  2.4170
  539MOL0     H72757   5.790   9.820   2.724 -0.2529  0.3975  0.3557
  539MOL0     H72758   5.653   9.777   2.642  0.9853 -0.8545  1.2143
  539MOL0     H72759   5.686   9.735   2.937  0.0789 -1.1683  0.3485
  539MOL0     H72760   5.547   9.673   2.842  0.2286 -0.3301 -0.9052
  539MOL0     H72761   5.810   9.353   2.792 -0.9293 -0.3668  0.1617
  539MOL0     H72762   5.588   9.843   2.396 -0.4204 -0.8070  1.6067
  539MOL0     H72763   5.755   9.779   2.108 -1.2538 -1.6127 -1.1944
  539MOL0     H72764   5.816   9.664   2.234 -1.4390 -0.9291  0.1604
  539MOL0     H72765   5.642   9.715   2.230 -0.9196  2.6306 -0.0435
  540MOL0     O72766   7.158   0.900   0.588 -0.1415 -0.0165 -0.3811
  540MOL0     C72767   7.148   0.933   0.470 -0.9337  0.2973 -0.4080
  540MOL0     O72768   7.036   0.958   0.401  0.4832  0.4538  0.0191
  540MOL0     C72769   6.915   0.931   0.453 -0.3143 -0.0227  0.0748
  540MOL0     C72770   6.872   0.816   0.517  0.2001  0.8551  0.0125
  540MOL0     C72771   6.749   0.806   0.592  0.3549 -0.8604 -0.1267
  540MOL0     C72772   6.658   0.918   0.597  0.5297 -0.0494 -0.9106
  540MOL0     O72773   6.533   0.899   0.661 -0.4898 -0.2397 -0.3895
  540MOL0     C72774   6.449   1.008   0.676  0.3886 -0.1971 -0.4609
  540MOL0     C72775   6.331   0.974   0.756  0.5266 -0.4357 -0.1202
  540MOL0     C72776   6.247   1.087   0.822  1.4434  0.1361 -0.0500
  540MOL0     C72777   6.159   1.036   0.942 -0.0593  0.9719 -0.2116
  540MOL0     C72778   6.063   1.135   1.006  0.6272 -0.4247  0.0477
  540MOL0     C72779   6.014   1.078   1.141 -0.4568  0.4074 -0.2929
  540MOL0     C72780   5.915   1.180   1.202  0.4411 -0.1510  0.3189
  540MOL0     C72781   5.896   1.163   1.345  0.0895 -0.6692 -0.8441
  540MOL0     N72782   5.841   1.276   1.415  0.2643  0.8287  0.7723
  540MOL0     C72783   5.697   1.308   1.411 -0.1189 -0.4336 -0.1833
  540MOL0     C72784   5.692   1.425   1.478 -0.1852 -0.1595  0.0645
  540MOL0     C72785   5.556   1.494   1.504 -0.0264  0.4508  0.2656
  540MOL0     C72786   5.536   1.644   1.461  0.6746  0.3221 -0.2004
  540MOL0     C72787   5.583   1.666   1.320 -0.0612  0.5065  0.5049
  540MOL0     C72788   5.495   1.587   1.219  0.5826  0.4912 -0.2671
  540MOL0     O72789   5.533   1.629   1.082  0.6389 -1.0528 -0.1521
  540MOL0     C72790   5.652   1.611   1.025 -0.1109 -0.4988  0.3133
  540MOL0     C72791   5.775   1.569   1.079  0.4295  0.6581  0.4092
  540MOL0     C72792   5.890   1.556   1.002 -0.9655 -0.0640 -0.3187
  540MOL0     C72793   5.899   1.588   0.871  0.2232 -0.3400  1.0111
  540MOL0     C72794   6.018   1.571   0.780 -0.4873  0.1829 -0.3242
  540MOL0     O72795   6.130   1.549   0.853  0.1005 -0.0531  0.8559
  540MOL0     C72796   6.238   1.542   0.771 -0.3092 -0.8707 -0.0748
  540MOL0     C72797   6.343   1.634   0.775  0.5780 -0.4511  1.3585
  540MOL0     C72798   6.461   1.614   0.697  0.1421  0.4517  0.1433
  540MOL0     C72799   6.465   1.499   0.619 -0.0175 -0.2575 -0.0524
  540MOL0     O72800   6.572   1.468   0.532 -0.1110 -0.0488  0.1392
  540MOL0     C72801   6.701   1.522   0.570 -0.1170  0.1068  0.6043
  540MOL0     C72802   6.808   1.423   0.508 -0.9869  0.0203  0.8455
  540MOL0     C72803   6.932   1.500   0.462 -0.0832 -0.3998 -0.4818
  540MOL0     C72804   7.043   1.408   0.410  0.2280  0.1215 -0.1784
  540MOL0     C72805   7.177   1.472   0.408 -0.1696 -0.5575 -0.9121
  540MOL0     C72806   7.303   1.403   0.334 -0.0976 -0.8672 -0.1251
  540MOL0     C72807   7.436   1.485   0.315  0.3337  0.1730  0.2519
  540MOL0     C72808   7.528   1.514   0.433  0.1058  0.0617  0.9454
  540MOL0    Cl72809   7.470   1.649   0.535  0.1797 -0.1906 -0.2080
  540MOL0     C72810   6.366   1.407   0.620  0.7406 -0.3356 -0.3888
  540MOL0     C72811   6.252   1.423   0.697 -0.8012  1.6759  0.6469
  540MOL0     O72812   6.019   1.602   0.662 -0.0896  0.1207  0.3756
  540MOL0     C72813   5.782   1.638   0.808  0.7738  0.4725  1.1066
  540MOL0     C72814   5.660   1.642   0.885  0.2429 -0.3107 -0.3210
  540MOL0     N72815   5.821   1.469   1.510 -0.2770  0.0788  0.0457
  540MOL0     N72816   5.904   1.381   1.473  0.3627  0.1735 -0.0246
  540MOL0     C72817   6.700   1.033   0.527  0.2952  0.6231  0.3238
  540MOL0     C72818   6.827   1.039   0.463 -0.5892  0.0411 -0.4848
  540MOL0     C72819   7.281   0.947   0.393 -0.4774  0.1960 -0.5248
  540MOL0     C72820   7.296   1.050   0.310 -0.8540 -0.8319  0.5932
  540MOL0     C72821   7.413   1.071   0.243  1.0689  0.2718 -0.6893
  540MOL0     C72822   7.517   0.986   0.259 -0.6357  1.5163 -0.2357
  540MOL0     O72823   7.628   1.019   0.181 -0.4832 -0.6826  0.0741
  540MOL0     C72824   7.706   0.909   0.123  0.6644 -1.1598  0.2093
  540MOL0     C72825   7.652   0.886  -0.021  0.1423  0.4162  0.0116
  540MOL0     C72826   7.682   0.743  -0.046  0.0681  0.5188  0.6871
  540MOL0     C72827   7.618   0.706  -0.188  0.0878  0.9952  0.0235
  540MOL0     C72828   7.664   0.570  -0.231  0.2250  0.8197 -0.5233
  540MOL0     C72829   7.713   0.466  -0.278 -0.3024 -0.0731 -0.4135
  540MOL0     C72830   7.510   0.877   0.348 -0.0620 -0.1345  0.2758
  540MOL0     C72831   7.390   0.858   0.418  1.4446 -0.3100 -0.7735
  540MOL0     C72832   7.380   0.731   0.511 -0.6534  0.1361  0.3553
  540MOL0     H72833   6.944   0.735   0.525 -1.4650 -0.5438  1.9953
  540MOL0     H72834   6.715   0.713   0.635  0.4281 -0.3383  1.1014
  540MOL0     H72835   6.503   1.082   0.735 -0.0527 -0.6217  0.5010
  540MOL0     H72836   6.416   1.056   0.583  1.9513  1.1652 -0.3504
  540MOL0     H72837   6.367   0.901   0.829  3.9032 -0.4160 -1.5885
  540MOL0     H72838   6.260   0.919   0.694  1.5119 -1.0791 -0.7033
  540MOL0     H72839   6.179   1.123   0.744  1.5888 -0.0538 -0.2688
  540MOL0     H72840   6.304   1.170   0.866  1.4916  0.6698 -1.0806
  540MOL0     H72841   6.105   0.945   0.911  0.6679  1.0260 -1.7421
  540MOL0     H72842   6.233   1.005   1.016 -1.2681 -1.6474  0.0432
  540MOL0     H72843   6.117   1.229   1.022 -0.7169 -0.0965  3.3760
  540MOL0     H72844   5.970   1.159   0.953 -1.2528 -1.0098  2.8460
  540MOL0     H72845   5.959   0.986   1.119 -1.5893  0.7385  0.9997
  540MOL0     H72846   6.100   1.055   1.205 -3.1441 -3.3375  2.4587
  540MOL0     H72847   5.816   1.157   1.163 -0.5081 -0.2800  2.6555
  540MOL0     H72848   5.946   1.282   1.178  1.1857 -0.7662 -1.4887
  540MOL0     H72849   5.848   1.066   1.355  2.0248 -1.6292 -0.3770
  540MOL0     H72850   6.001   1.160   1.377  0.6846 -1.2854 -2.7532
  540MOL0     H72851   5.612   1.266   1.359 -1.0486  2.6051 -1.3138
  540MOL0     H72852   5.479   1.432   1.457 -0.5858  1.2413  0.1192
  540MOL0     H72853   5.549   1.477   1.612  2.4922 -0.6743  0.3304
  540MOL0     H72854   5.430   1.670   1.468  1.1926  2.3788  0.6733
  540MOL0     H72855   5.593   1.707   1.530  2.1322 -0.3533 -0.7657
  540MOL0     H72856   5.687   1.636   1.314 -0.7296 -1.5773 -2.3013
  540MOL0     H72857   5.575   1.772   1.293  0.0798  0.4201  0.1239
  540MOL0     H72858   5.390   1.609   1.241  0.9480  2.2440 -0.0992
  540MOL0     H72859   5.502   1.479   1.234 -0.1503  0.7051  2.1172
  540MOL0     H72860   5.791   1.519   1.174  0.8304 -6.8170 -2.8803
  540MOL0     H72861   5.978   1.528   1.059 -2.2991 -4.6316 -0.0578
  540MOL0     H72862   6.331   1.730   0.825  0.9734  0.0956  0.4313
  540MOL0     H72863   6.536   1.692   0.704  0.2735  0.3824 -0.4539
  540MOL0     H72864   6.732   1.618   0.526 -2.9522  0.0592 -1.8284
  540MOL0     H72865   6.713   1.540   0.677 -1.0736 -2.1933  1.1487
  540MOL0     H72866   6.830   1.357   0.592 -0.2362 -2.0155 -0.8564
  540MOL0     H72867   6.771   1.365   0.423 -1.5249 -1.1617  1.8555
  540MOL0     H72868   6.902   1.573   0.386  0.1242  3.3117  2.7363
  540MOL0     H72869   6.973   1.569   0.536  1.2912 -2.5315  0.8484
  540MOL0     H72870   7.028   1.387   0.304  1.4337 -0.0155 -0.3318
  540MOL0     H72871   7.049   1.313   0.465 -2.5187  0.3624  0.6849
  540MOL0     H72872   7.207   1.493   0.510  1.0158  0.6820 -1.4879
  540MOL0     H72873   7.155   1.567   0.358 -0.8639 -0.1021  0.2117
  540MOL0     H72874   7.331   1.316   0.394  1.6100 -0.8040 -0.7886
  540MOL0     H72875   7.267   1.365   0.238 -1.0525 -0.2113 -0.0513
  540MOL0     H72876   7.412   1.580   0.266 -5.3782 -0.2061  1.5959
  540MOL0     H72877   7.500   1.432   0.244 -1.4673  0.9966 -2.1118
  540MOL0     H72878   7.533   1.429   0.502  1.0236  0.8963  1.9478
  540MOL0     H72879   7.630   1.536   0.402 -0.1293  0.9084  0.7463
  540MOL0     H72880   6.386   1.310   0.575 -0.0461 -1.0876  0.8236
  540MOL0     H72881   6.189   1.340   0.726  1.0682  0.8606  2.6278
  540MOL0     H72882   5.773   1.658   0.702  0.8367  0.2309  1.0570
  540MOL0     H72883   5.565   1.672   0.841 -0.6616 -2.4924  0.0492
  540MOL0     H72884   6.627   1.113   0.523  1.4109  1.6752  0.1038
  540MOL0     H72885   6.840   1.136   0.414  2.4193  0.3233  0.6114
  540MOL0     H72886   7.208   1.113   0.309 -0.5369 -0.3722  1.0327
  540MOL0     H72887   7.430   1.158   0.182 -0.3667  0.5640 -0.7141
  540MOL0     H72888   7.693   0.818   0.182 -1.9653 -1.9048 -1.3385
  540MOL0     H72889   7.814   0.930   0.124  0.6851 -1.2315 -0.2132
  540MOL0     H72890   7.703   0.958  -0.086 -1.4798 -0.4686 -2.3636
  540MOL0     H72891   7.546   0.911  -0.014 -0.3032 -0.8831 -1.5364
  540MOL0     H72892   7.643   0.677   0.032 -2.0679 -0.9519 -1.4740
  540MOL0     H72893   7.788   0.726  -0.067 -0.0913  0.2016  0.1226
  540MOL0     H72894   7.510   0.707  -0.171  0.0078  2.5991 -0.4267
  540MOL0     H72895   7.650   0.777  -0.264  1.2071 -0.8327 -1.2875
  540MOL0     H72896   7.759   0.371  -0.297  3.1073  1.2142  0.5388
  540MOL0     H72897   7.594   0.808   0.356  0.0246 -0.1370 -0.5808
  540MOL0     H72898   7.314   0.655   0.468  0.2059  0.6995 -2.1675
  540MOL0     H72899   7.475   0.680   0.530 -1.0004 -1.2390 -1.3246
  540MOL0     H72900   7.355   0.758   0.614 -1.2834 -1.2481  0.5790
  541MOL0     O72901   0.120   9.496   7.240  0.2036  0.3163 -0.1629
  541MOL0     C72902   0.079   9.469   7.128 -0.4039  0.9647  1.1541
  541MOL0     O72903   0.123   9.367   7.051 -0.4424  0.0728 -0.5744
  541MOL0     C72904   0.237   9.283   7.076 -0.1850 -1.6221  0.5319
  541MOL0     C72905   0.234   9.145   7.049 -0.0357 -0.4173  0.0196
  541MOL0     C72906   0.352   9.070   7.054  0.1383  0.4159 -0.6991
  541MOL0     C72907   0.472   9.123   7.103  0.3471  0.3658  0.0135
  541MOL0     O72908   0.584   9.041   7.123  0.3949  0.1327 -0.1169
  541MOL0     C72909   0.576   8.962   7.247  0.0404  0.5599  0.0990
  541MOL0     C72910   0.713   8.949   7.309 -0.0924  0.4350 -1.0257
  541MOL0     C72911   0.692   8.856   7.433 -0.8192  0.2245 -0.7416
  541MOL0     C72912   0.629   8.918   7.556  0.0302  0.0079 -0.0926
  541MOL0     C72913   0.630   8.826   7.677 -0.3549 -0.7577  0.0300
  541MOL0     C72914   0.565   8.688   7.655 -0.6238 -0.1320 -0.4617
  541MOL0     C72915   0.577   8.600   7.782  0.4342  0.0064 -1.0525
  541MOL0     C72916   0.640   8.469   7.769  0.5391  0.2002  0.0857
  541MOL0     N72917   0.788   8.456   7.737 -0.1225 -0.7240  0.3129
  541MOL0     C72918   0.847   8.465   7.613 -0.4348 -0.1652 -0.2798
  541MOL0     C72919   0.974   8.450   7.650 -0.2849 -0.1282  0.7968
  541MOL0     C72920   1.091   8.485   7.557  0.1706 -0.6775 -0.1010
  541MOL0     C72921   1.101   8.375   7.431 -0.6032  0.0423  0.5700
  541MOL0     C72922   1.166   8.429   7.299  0.3140  0.2104 -0.0091
  541MOL0     C72923   1.105   8.537   7.212  0.1339 -0.9517  0.0412
  541MOL0     O72924   1.107   8.660   7.293 -0.4940  1.2438 -0.1512
  541MOL0     C72925   1.084   8.779   7.226 -0.0708  0.1591  0.6322
  541MOL0     C72926   1.103   8.874   7.313  0.0219 -0.3326  0.1275
  541MOL0     C72927   1.072   9.006   7.259  0.2356  0.1614 -0.1361
  541MOL0     C72928   1.019   9.031   7.127  0.2012 -0.2302 -0.7045
  541MOL0     C72929   0.977   9.156   7.065 -1.3117  0.1520 -0.9624
  541MOL0     O72930   0.955   9.253   7.154  0.0456  0.0553 -0.3529
  541MOL0     C72931   0.882   9.364   7.118  0.8762  0.5723  0.2893
  541MOL0     C72932   0.770   9.357   7.023 -1.3393  0.3045  0.7253
  541MOL0     C72933   0.706   9.478   6.983  0.9024  0.1920 -0.1203
  541MOL0     C72934   0.737   9.600   7.048  1.1281  0.4704 -1.2736
  541MOL0     O72935   0.681   9.706   6.987 -0.1010 -0.5911  0.1142
  541MOL0     C72936   0.674   9.833   7.058 -0.2500 -0.1160  0.5119
  541MOL0     C72937   0.524   9.855   7.074 -0.2503 -0.2584  0.0358
  541MOL0     C72938   0.474   9.945   7.180  0.5186 -0.4019  0.2454
  541MOL0     C72939   0.470   9.879   7.318  0.2571  0.3975 -0.3598
  541MOL0     C72940   0.448   9.980   7.427  0.0902 -0.8157 -0.0355
  541MOL0     C72941   0.442   9.917   7.567 -0.7444 -0.4412 -0.1507
  541MOL0     C72942   0.458  10.019   7.682  0.2272  0.6812  0.1133
  541MOL0     C72943   0.465   9.947   7.817  0.5669 -0.5932  1.3963
  541MOL0    Cl72944   0.459  10.061   7.955  0.4749 -0.1450  0.2543
  541MOL0     C72945   0.842   9.603   7.142  0.1378  0.5276  0.0500
  541MOL0     C72946   0.908   9.485   7.180  0.3732 -0.2964  0.5641
  541MOL0     O72947   0.982   9.172   6.944 -0.2132  0.4604 -0.5092
  541MOL0     C72948   1.009   8.912   7.047 -0.1400 -0.2958  0.2783
  541MOL0     C72949   1.040   8.789   7.103  0.3975  0.1502  0.4972
  541MOL0     N72950   0.988   8.419   7.787 -0.4135 -0.3998  0.3883
  541MOL0     N72951   0.874   8.425   7.835 -0.0276  0.2923 -0.1419
  541MOL0     C72952   0.472   9.253   7.155  0.5868 -1.0385 -0.3956
  541MOL0     C72953   0.358   9.337   7.123 -0.8117  0.2256 -0.0166
  541MOL0     C72954  -0.020   9.559   7.073 -0.3272 -0.5322  0.0621
  541MOL0     C72955  -0.142   9.498   7.029 -0.2771 -0.8660  0.7067
  541MOL0     C72956  -0.235   9.578   6.966  0.1758  0.9218  0.7323
  541MOL0     C72957  -0.223   9.715   6.952  0.1894  0.4564  0.4178
  541MOL0     O72958  -0.317   9.791   6.880 -0.3687  0.8991 -0.0353
  541MOL0     C72959  -0.289   9.905   6.800 -1.0963  0.1230  0.7953
  541MOL0     C72960  -0.308   9.877   6.648 -0.5215  0.2304 -0.6676
  541MOL0     C72961  -0.460   9.865   6.613  0.8982  0.3125 -0.3359
  541MOL0     C72962  -0.509   9.722   6.616 -0.4683  0.4522 -0.7679
  541MOL0     C72963  -0.651   9.717   6.607 -0.2725 -0.0713  1.2720
  541MOL0     C72964  -0.765   9.681   6.577 -0.0000  0.8019 -0.5879
  541MOL0     C72965  -0.111   9.775   7.017 -1.6549  0.1636  0.6592
  541MOL0     C72966  -0.005   9.698   7.068  0.9632 -0.3638 -0.1331
  541MOL0     C72967   0.107   9.768   7.132  0.8590 -1.0678  0.2077
  541MOL0     H72968   0.142   9.096   7.021 -0.0133 -0.3931 -0.0962
  541MOL0     H72969   0.332   8.966   7.031  0.9401 -0.0027  0.4281
  541MOL0     H72970   0.508   9.005   7.321  0.3717  0.0573  0.7004
  541MOL0     H72971   0.547   8.862   7.213  3.2538  0.0723 -1.5813
  541MOL0     H72972   0.751   9.045   7.345 -0.6777  1.0775 -2.0649
  541MOL0     H72973   0.784   8.896   7.246  1.4449  0.1458  0.8574
  541MOL0     H72974   0.790   8.818   7.463 -1.1674  0.8944  1.4206
  541MOL0     H72975   0.646   8.764   7.397  1.9990 -1.3781 -0.5428
  541MOL0     H72976   0.695   8.998   7.591 -0.7035 -0.1021  1.6599
  541MOL0     H72977   0.529   8.953   7.532 -0.1209 -0.7230 -0.5724
  541MOL0     H72978   0.730   8.798   7.710 -1.7916 -2.7593  3.2420
  541MOL0     H72979   0.580   8.884   7.756  0.5323 -0.2493  0.2364
  541MOL0     H72980   0.467   8.703   7.609 -0.0067  1.0164 -1.4758
  541MOL0     H72981   0.614   8.631   7.576  3.3872  0.8583  1.0585
  541MOL0     H72982   0.476   8.592   7.823  0.7692 -1.4430 -0.4327
  541MOL0     H72983   0.640   8.660   7.848 -0.9228 -0.3950  0.6628
  541MOL0     H72984   0.623   8.421   7.866  4.1895 -1.9585 -0.1433
  541MOL0     H72985   0.578   8.417   7.695  0.2771  3.2232 -1.9829
  541MOL0     H72986   0.802   8.487   7.517  1.6069  1.2128 -0.9978
  541MOL0     H72987   1.070   8.586   7.522  1.3294  0.5778  2.5516
  541MOL0     H72988   1.185   8.496   7.612 -0.2875  0.8420  0.4288
  541MOL0     H72989   1.172   8.296   7.457  2.7337  1.8052 -2.3005
  541MOL0     H72990   1.003   8.326   7.421 -0.6593  0.4093 -0.9209
  541MOL0     H72991   1.184   8.336   7.245  1.4951  0.7466 -0.5688
  541MOL0     H72992   1.268   8.462   7.316  0.0302  0.6099  1.0358
  541MOL0     H72993   1.008   8.507   7.172  0.1387  1.0329 -1.6135
  541MOL0     H72994   1.162   8.558   7.121 -0.5317 -1.8176 -0.5954
  541MOL0     H72995   1.128   8.848   7.415  2.5868  0.1105 -0.3258
  541MOL0     H72996   1.092   9.093   7.320  0.1497  3.1103 -3.9658
  541MOL0     H72997   0.749   9.263   6.973 -1.5551  0.3076  0.8067
  541MOL0     H72998   0.622   9.478   6.914  1.4239 -1.2069 -0.8014
  541MOL0     H72999   0.721   9.844   7.157 -2.0358  0.6874  1.3188
  541MOL0     H73000   0.725   9.901   6.990 -2.0808 -0.5463 -1.3940
  541MOL0     H73001   0.481   9.898   6.983 -1.3875 -0.5038  0.4344
  541MOL0     H73002   0.481   9.756   7.095  3.0975 -0.9763  5.5570
  541MOL0     H73003   0.534  10.036   7.176 -0.9620  0.7625  2.1690
  541MOL0     H73004   0.373   9.978   7.153  1.1335  5.7240  3.7314
  541MOL0     H73005   0.567   9.832   7.335  0.1117 -2.0038 -4.6845
  541MOL0     H73006   0.392   9.802   7.325  2.0036 -1.5955 -1.7951
  541MOL0     H73007   0.359  10.042   7.410  3.2108  4.8594  1.5783
  541MOL0     H73008   0.526  10.056   7.416 -0.1971  0.0798  3.1892
  541MOL0     H73009   0.350   9.859   7.568 -3.0538  2.9308 -1.4280
  541MOL0     H73010   0.533   9.856   7.567  1.2851  2.3703 -2.0869
  541MOL0     H73011   0.377  10.091   7.690  0.1265  0.8171 -1.7316
  541MOL0     H73012   0.558  10.063   7.674  1.1780 -0.2382  4.3071
  541MOL0     H73013   0.380   9.879   7.819  0.3286 -0.3735 -0.1478
  541MOL0     H73014   0.565   9.903   7.817  0.2419 -1.6125 -2.1257
  541MOL0     H73015   0.863   9.703   7.180 -0.5458  0.5357  0.4231
  541MOL0     H73016   0.985   9.487   7.257 -0.2776  0.9029  1.2165
  541MOL0     H73017   0.965   8.918   6.948  2.1475 -1.4381 -0.8834
  541MOL0     H73018   1.025   8.697   7.047  0.6652  0.6755 -0.4631
  541MOL0     H73019   0.557   9.288   7.212 -1.1296  0.3223  1.5097
  541MOL0     H73020   0.363   9.445   7.133 -0.8475  0.2519 -0.2884
  541MOL0     H73021  -0.149   9.392   7.052  3.5804 -1.9313 -2.0215
  541MOL0     H73022  -0.325   9.532   6.929  0.4233  0.2380  0.9587
  541MOL0     H73023  -0.189   9.949   6.803 -0.8690 -0.2849 -0.2575
  541MOL0     H73024  -0.344   9.989   6.844  2.3627  2.8108  0.4547
  541MOL0     H73025  -0.244   9.791   6.626  1.4513  1.3212  0.5386
  541MOL0     H73026  -0.264   9.955   6.585 -1.4247  1.4161  0.1177
  541MOL0     H73027  -0.483   9.915   6.518  2.4419 -1.1172 -1.5279
  541MOL0     H73028  -0.521   9.923   6.683 -1.0292 -3.2390  1.2011
  541MOL0     H73029  -0.474   9.679   6.522  1.0683 -1.4850  0.5900
  541MOL0     H73030  -0.474   9.664   6.703 -0.7671 -1.6754 -1.9819
  541MOL0     H73031  -0.865   9.648   6.554  0.9175 -1.4448 -1.6579
  541MOL0     H73032  -0.120   9.882   7.035  0.2318  0.9631 -2.4327
  541MOL0     H73033   0.120   9.871   7.097 -0.2297 -1.1000 -0.3282
  541MOL0     H73034   0.094   9.771   7.240 -1.0212 -0.2246  0.0024
  541MOL0     H73035   0.198   9.713   7.105  1.8580  0.2023  0.9101
  542MOL0     O73036   9.902   1.732  10.822  0.0194  0.0322  0.2179
  542MOL0     C73037  10.007   1.795  10.810 -0.6405  0.8267 -0.1448
  542MOL0     O73038  10.012   1.931  10.807 -0.2434 -0.2673  0.5500
  542MOL0     C73039   9.970   2.011  10.907 -0.7265  0.0328  0.0473
  542MOL0     C73040   9.933   2.143  10.877 -0.3376 -0.5066  0.6340
  542MOL0     C73041   9.882   2.231  10.973 -0.9453 -0.6353 -0.7392
  542MOL0     C73042   9.881   2.191  11.108  0.8178  0.4687  0.3851
  542MOL0     O73043   9.843   2.288  11.206  0.3157  0.8807  0.1195
  542MOL0     C73044   9.711   2.277  11.258 -0.6491 -0.3303 -0.3710
  542MOL0     C73045   9.719   2.310  11.410 -0.1160 -0.8138 -0.4112
  542MOL0     C73046   9.782   2.194  11.490 -0.2320  0.0308  0.1233
  542MOL0     C73047   9.783   2.213  11.642  0.1695 -0.6848  0.2934
  542MOL0     C73048   9.798   2.082  11.712 -0.0211  0.4473 -0.6029
  542MOL0     C73049   9.669   1.990  11.693  0.2704 -0.4418 -0.0775
  542MOL0     C73050   9.645   1.922  11.823  0.4238  0.7630 -0.2527
  542MOL0     C73051   9.520   1.848  11.808  0.4386  0.6091 -0.5197
  542MOL0     N73052   9.500   1.748  11.914  0.0932 -0.0722 -0.0645
  542MOL0     C73053   9.518   1.617  11.915  0.4076  0.6241  0.0479
  542MOL0     C73054   9.468   1.568  12.028  0.0448 -1.3982  0.2048
  542MOL0     C73055   9.477   1.431  12.077  0.6692 -0.4840  0.1485
  542MOL0     C73056   9.486   1.321  11.965  0.0899 -0.4890  0.2930
  542MOL0     C73057   9.443   1.179  12.027 -1.0521 -0.0456 -0.1422
  542MOL0     C73058   9.440   1.066  11.925  0.3084  0.3120  0.1433
  542MOL0     O73059   9.379   1.098  11.807 -0.3307  0.9231 -0.0457
  542MOL0     C73060   9.249   1.059  11.779 -0.0591 -0.2443  0.0211
  542MOL0     C73061   9.209   1.040  11.648 -0.7505  0.0953 -0.8216
  542MOL0     C73062   9.081   0.998  11.618  0.1221 -0.9024 -0.5641
  542MOL0     C73063   8.980   0.992  11.721  0.3233 -0.0149 -0.1337
  542MOL0     C73064   8.839   0.982  11.680 -0.4464  0.3373  0.4149
  542MOL0     O73065   8.808   0.999  11.540  0.3883  0.5430 -0.9105
  542MOL0     C73066   8.673   1.020  11.509  0.6351 -0.7684 -0.6855
  542MOL0     C73067   8.596   0.913  11.467  0.6821 -0.9516  0.1799
  542MOL0     C73068   8.456   0.932  11.436 -0.3499  0.2751 -0.0335
  542MOL0     C73069   8.389   1.053  11.471  0.7677 -0.0909  0.8709
  542MOL0     O73070   8.256   1.054  11.443  0.2994 -0.0267 -0.0738
  542MOL0     C73071   8.187   1.020  11.562  0.5561  0.1258  0.0947
  542MOL0     C73072   8.177   0.863  11.576 -0.2688 -0.1825 -0.1766
  542MOL0     C73073   8.109   0.825  11.703  0.9272 -0.7155  0.5128
  542MOL0     C73074   8.091   0.671  11.698 -0.3838  0.5827  0.2827
  542MOL0     C73075   8.086   0.593  11.840  0.7372 -0.3726 -0.1633
  542MOL0     C73076   7.946   0.617  11.902  0.0440 -1.3693 -0.0309
  542MOL0     C73077   7.923   0.547  12.034 -0.5619  0.4031 -1.5633
  542MOL0     C73078   7.799   0.585  12.111 -0.6399  0.1118 -0.6366
  542MOL0    Cl73079   7.745   0.455  12.232  0.4349 -0.0006 -0.2575
  542MOL0     C73080   8.466   1.154  11.531 -0.7563  0.1076  0.8103
  542MOL0     C73081   8.608   1.138  11.543  0.2969 -0.1290  0.7119
  542MOL0     O73082   8.756   0.962  11.765 -0.1559  0.0621 -0.2294
  542MOL0     C73083   9.019   1.028  11.852 -0.5112  0.0353  0.1670
  542MOL0     C73084   9.155   1.046  11.880  1.4617  0.5297 -0.5029
  542MOL0     N73085   9.404   1.673  12.081  0.2819 -0.2571 -0.4670
  542MOL0     N73086   9.419   1.780  12.018  1.2443  0.0047 -0.7321
  542MOL0     C73087   9.900   2.062  11.140 -0.1751  0.0509 -0.1418
  542MOL0     C73088   9.948   1.966  11.037  0.7724  0.1852  0.9214
  542MOL0     C73089  10.138   1.719  10.791  0.3121  0.1257 -0.1420
  542MOL0     C73090  10.251   1.786  10.747 -0.5227  0.2042  0.1233
  542MOL0     C73091  10.365   1.722  10.705 -0.4909  1.0608 -0.5182
  542MOL0     C73092  10.377   1.582  10.730 -0.0740  0.1152  0.7759
  542MOL0     O73093  10.502   1.549  10.693  0.9984 -0.2833  0.4376
  542MOL0     C73094  10.566   1.473  10.789 -0.5391 -0.1648  0.0634
  542MOL0     C73095  10.706   1.532  10.815  1.1933  0.0961 -0.2998
  542MOL0     C73096  10.781   1.439  10.910 -0.4337 -0.4520 -0.3750
  542MOL0     C73097  10.921   1.500  10.954 -0.5134  0.1833  0.7632
  542MOL0     C73098  10.993   1.395  11.035 -0.3865  0.3816 -0.5618
  542MOL0     C73099  11.044   1.297  11.092  0.3241 -0.2896  0.4163
  542MOL0     C73100  10.274   1.507  10.781  1.0138 -1.0228 -1.2224
  542MOL0     C73101  10.147   1.575  10.813 -0.2815  0.5997 -0.1014
  542MOL0     C73102  10.042   1.487  10.883 -0.1044  0.2710  0.2821
  542MOL0     H73103   9.948   2.160  10.771 -1.1536  1.2396  0.7595
  542MOL0     H73104   9.854   2.334  10.954 -2.9342 -0.2853  3.0555
  542MOL0     H73105   9.656   2.364  11.220  1.5556  1.6087  0.6648
  542MOL0     H73106   9.658   2.181  11.248 -0.4382 -0.7125  1.7535
  542MOL0     H73107   9.622   2.340  11.450 -0.3716 -1.0059 -0.8896
  542MOL0     H73108   9.775   2.404  11.424  1.2799 -1.7241  0.3811
  542MOL0     H73109   9.884   2.178  11.454 -0.0219  0.8887  0.3165
  542MOL0     H73110   9.723   2.104  11.466 -0.5823  0.2464  0.1704
  542MOL0     H73111   9.876   2.266  11.664  0.9111 -1.3534 -1.0632
  542MOL0     H73112   9.690   2.265  11.669 -0.6573 -2.0994  0.3026
  542MOL0     H73113   9.889   2.027  11.686  2.8398  4.2092  0.5899
  542MOL0     H73114   9.808   2.102  11.818  0.3335 -0.9002 -0.3615
  542MOL0     H73115   9.583   2.041  11.649 -0.6118 -1.6097  0.2379
  542MOL0     H73116   9.700   1.921  11.613  6.2225  1.9807 -0.3662
  542MOL0     H73117   9.642   1.983  11.913 -1.6422  0.4243 -0.0371
  542MOL0     H73118   9.730   1.854  11.831  2.1886  2.9303  0.3789
  542MOL0     H73119   9.445   1.926  11.822 -0.7097 -0.5904  0.1730
  542MOL0     H73120   9.497   1.800  11.713  4.4874 -2.2955 -0.3285
  542MOL0     H73121   9.569   1.560  11.838 -1.0877 -0.9633  0.1832
  542MOL0     H73122   9.561   1.443  12.146  0.9359  1.1960 -0.4393
  542MOL0     H73123   9.387   1.411  12.135 -2.5422  0.2290 -4.1030
  542MOL0     H73124   9.416   1.342  11.883 -2.1023  0.7268  2.3724
  542MOL0     H73125   9.593   1.323  11.939  0.3993  1.4636  1.5079
  542MOL0     H73126   9.342   1.189  12.069  0.2713  1.6178  3.0128
  542MOL0     H73127   9.514   1.165  12.110 -2.6394 -0.2412  1.2379
  542MOL0     H73128   9.379   0.992  11.978 -0.8394  1.3845  0.3741
  542MOL0     H73129   9.537   1.026  11.894 -1.0148 -4.4492  1.3312
  542MOL0     H73130   9.288   1.042  11.574  1.3899 -1.7531  1.2596
  542MOL0     H73131   9.052   0.985  11.514 -2.0832 -1.8570  0.1147
  542MOL0     H73132   8.636   0.814  11.450  2.6986 -0.0083 -0.9825
  542MOL0     H73133   8.410   0.848  11.385 -0.9110  1.2745 -1.2373
  542MOL0     H73134   8.239   1.045  11.655  0.1941 -4.7148  1.9078
  542MOL0     H73135   8.088   1.065  11.563  0.2927 -0.3725 -1.2627
  542MOL0     H73136   8.123   0.820  11.492  0.9418 -1.7730 -0.1849
  542MOL0     H73137   8.273   0.811  11.587  0.0155  0.6957  2.0602
  542MOL0     H73138   8.167   0.873  11.782  0.6641  0.6366 -0.0775
  542MOL0     H73139   8.012   0.876  11.699  1.1795 -0.2046 -3.2099
  542MOL0     H73140   8.169   0.622  11.639  0.9701  1.8926  0.9202
  542MOL0     H73141   7.991   0.666  11.655 -0.0391 -2.0132 -0.3514
  542MOL0     H73142   8.171   0.607  11.907 -2.1157 -2.8989  4.4948
  542MOL0     H73143   8.078   0.485  11.824 -1.8641 -0.0128 -1.8896
  542MOL0     H73144   7.943   0.726  11.914  0.8628 -1.3669  0.2780
  542MOL0     H73145   7.875   0.572  11.832 -1.1651 -0.1715  0.3763
  542MOL0     H73146   8.014   0.558  12.093  1.3111 -1.4185 -3.9076
  542MOL0     H73147   7.929   0.438  12.022  2.5568  0.3141 -0.1052
  542MOL0     H73148   7.811   0.684  12.157  1.1559 -0.3042 -0.1520
  542MOL0     H73149   7.728   0.602  12.029  1.9342  0.7956 -2.8581
  542MOL0     H73150   8.406   1.228  11.583  1.0566 -0.1516  3.4719
  542MOL0     H73151   8.681   1.203  11.590  3.6450 -0.6427 -3.2025
  542MOL0     H73152   8.941   1.025  11.927 -0.1341 -0.5391  0.5413
  542MOL0     H73153   9.176   1.082  11.981  0.1784 -2.4188  0.9500
  542MOL0     H73154   9.895   2.037  11.246  2.2278  0.4526  0.1180
  542MOL0     H73155   9.989   1.875  11.079  1.1478 -1.1751 -2.0955
  542MOL0     H73156  10.250   1.893  10.726  3.1768  0.3385  0.1032
  542MOL0     H73157  10.438   1.780  10.650 -0.5120  1.6237  0.0254
  542MOL0     H73158  10.572   1.368  10.756 -2.5755 -0.7631  1.4146
  542MOL0     H73159  10.511   1.471  10.883 -4.5576 -2.9036 -2.0570
  542MOL0     H73160  10.700   1.635  10.850 -0.1931  1.3622 -3.7801
  542MOL0     H73161  10.756   1.542  10.718 -2.7026  0.0252 -2.5447
  542MOL0     H73162  10.795   1.343  10.861 -0.1561 -0.5618 -0.0865
  542MOL0     H73163  10.721   1.425  11.001 -3.2665  0.1217 -2.0530
  542MOL0     H73164  10.969   1.529  10.860 -0.2731 -4.8348 -0.9388
  542MOL0     H73165  10.908   1.596  11.006 -0.5398  0.5021  0.1698
  542MOL0     H73166  11.073   1.213  11.151 -2.1519  0.1431  2.4554
  542MOL0     H73167  10.298   1.408  10.819  1.0535  0.2451  2.3999
  542MOL0     H73168  10.007   1.546  10.969 -2.1237 -1.4638  0.7547
  542MOL0     H73169   9.962   1.466  10.812 -0.4120 -0.4523  0.8294
  542MOL0     H73170  10.077   1.391  10.922  0.0704 -0.3144 -1.2743
  543MOL0     O73171   0.827   3.403   5.782 -0.1800  0.2832 -0.3415
  543MOL0     C73172   0.842   3.491   5.699 -0.0722 -0.0537 -0.0361
  543MOL0     O73173   0.933   3.588   5.717  0.7317 -0.3573 -0.0796
  543MOL0     C73174   1.026   3.564   5.821 -0.3417  0.4858 -0.0410
  543MOL0     C73175   1.138   3.475   5.799 -0.7905 -0.4746  0.7037
  543MOL0     C73176   1.231   3.445   5.894 -0.5446  0.7577 -1.0584
  543MOL0     C73177   1.237   3.512   6.013  0.8193 -0.6055  0.7381
  543MOL0     O73178   1.321   3.477   6.112 -0.1839 -0.3171 -0.3658
  543MOL0     C73179   1.458   3.518   6.083  0.6879 -0.4639 -0.1691
  543MOL0     C73180   1.552   3.451   6.193  0.7066  0.4844 -0.1094
  543MOL0     C73181   1.588   3.308   6.156 -0.4821  0.0939  0.3236
  543MOL0     C73182   1.709   3.298   6.056 -0.5120  0.6057 -0.0068
  543MOL0     C73183   1.850   3.309   6.116  0.1603 -0.7662  0.0700
  543MOL0     C73184   1.876   3.197   6.216 -0.2471  0.6996  0.5063
  543MOL0     C73185   2.018   3.190   6.261 -0.7574 -0.2252  0.0676
  543MOL0     C73186   2.035   3.066   6.349 -0.2229  0.1518 -0.0097
  543MOL0     N73187   2.170   3.001   6.314 -0.0114  0.7361 -0.2912
  543MOL0     C73188   2.182   2.887   6.231  0.3575  0.0062 -0.8815
  543MOL0     C73189   2.316   2.862   6.231 -0.6893 -0.4645 -0.4209
  543MOL0     C73190   2.371   2.733   6.173  0.8632 -0.5287 -0.4120
  543MOL0     C73191   2.436   2.643   6.276  0.2236 -0.7258  0.1861
  543MOL0     C73192   2.483   2.519   6.202 -0.1688  0.2529 -0.2161
  543MOL0     C73193   2.619   2.479   6.265 -0.9172 -0.2773 -0.4753
  543MOL0     O73194   2.657   2.344   6.223 -0.0905  0.3865  0.5810
  543MOL0     C73195   2.685   2.300   6.098 -0.8066  0.1908  0.2625
  543MOL0     C73196   2.690   2.168   6.086 -0.0637  0.2372  0.6559
  543MOL0     C73197   2.730   2.111   5.962  0.3747 -0.3051  0.0709
  543MOL0     C73198   2.777   2.194   5.861  0.4406 -0.1195  0.2144
  543MOL0     C73199   2.812   2.129   5.734  0.2314  0.3244 -1.1307
  543MOL0     O73200   2.857   1.990   5.734  0.1949  0.5636  0.4161
  543MOL0     C73201   2.925   1.926   5.631 -0.3958 -0.2040  1.0206
  543MOL0     C73202   3.010   1.813   5.656  0.1591 -0.2950 -0.2742
  543MOL0     C73203   3.072   1.747   5.550  1.1515 -0.6679 -0.1588
  543MOL0     C73204   3.037   1.777   5.410  0.1855  0.7278 -0.0067
  543MOL0     O73205   3.079   1.690   5.313 -0.2869 -0.6733 -0.2137
  543MOL0     C73206   3.029   1.686   5.184 -0.3128 -0.7850 -0.5119
  543MOL0     C73207   3.100   1.595   5.091 -0.1539  1.1768  0.0628
  543MOL0     C73208   3.073   1.455   5.142 -0.5485 -0.5856  0.4026
  543MOL0     C73209   3.127   1.338   5.050 -0.1161 -0.8434  0.0218
  543MOL0     C73210   3.087   1.208   5.108 -0.2887  0.6329  0.2222
  543MOL0     C73211   3.144   1.168   5.247  0.0553 -0.3038  1.3063
  543MOL0     C73212   3.164   1.015   5.259 -0.7527  0.4097  0.7380
  543MOL0     C73213   3.037   0.936   5.255  0.0510  0.1384 -0.1462
  543MOL0    Cl73214   3.085   0.764   5.282  0.3003  0.5088  0.1563
  543MOL0     C73215   2.949   1.879   5.392  0.7019 -0.3595  0.1812
  543MOL0     C73216   2.882   1.945   5.499  0.4821  1.2416 -0.2240
  543MOL0     O73217   2.813   2.204   5.641  0.3579  0.4649  0.2708
  543MOL0     C73218   2.785   2.337   5.884  0.4121  0.3460  0.5914
  543MOL0     C73219   2.742   2.380   6.009  0.0811 -0.2021  0.4062
  543MOL0     N73220   2.376   2.947   6.325 -0.3126  0.0730 -0.7113
  543MOL0     N73221   2.289   3.029   6.366 -0.3965  0.1426 -0.4096
  543MOL0     C73222   1.123   3.599   6.043 -0.4793  0.2249 -0.5138
  543MOL0     C73223   1.024   3.623   5.946 -0.1734  0.6828 -0.2061
  543MOL0     C73224   0.733   3.509   5.599  0.3471  1.2464  0.3629
  543MOL0     C73225   0.666   3.390   5.565 -0.5948  0.2412 -0.5210
  543MOL0     C73226   0.566   3.403   5.473 -0.5913  0.4631  1.2225
  543MOL0     C73227   0.537   3.515   5.402 -0.3014 -0.3069  0.4742
  543MOL0     O73228   0.454   3.509   5.294  0.1467  0.5781  0.0634
  543MOL0     C73229   0.507   3.491   5.160  0.3293  0.8620 -0.5614
  543MOL0     C73230   0.441   3.375   5.091  0.4628  0.4193 -0.5664
  543MOL0     C73231   0.529   3.246   5.125  0.4213  0.7101 -0.5210
  543MOL0     C73232   0.445   3.124   5.090 -0.7429 -1.0205 -0.2449
  543MOL0     C73233   0.387   3.079   5.214 -0.3675  0.2083 -0.6395
  543MOL0     C73234   0.349   3.027   5.317  0.6207  0.3919 -0.7323
  543MOL0     C73235   0.596   3.633   5.440  0.4512 -0.3269 -0.7525
  543MOL0     C73236   0.686   3.629   5.542  0.1167 -0.2488 -0.4472
  543MOL0     C73237   0.729   3.774   5.600 -0.7911  0.1722 -0.3299
  543MOL0     H73238   1.142   3.401   5.719  4.1736  1.2083 -1.0151
  543MOL0     H73239   1.304   3.370   5.867 -2.1544 -0.7096 -1.4531
  543MOL0     H73240   1.482   3.483   5.983 -1.7072 -0.5325 -0.7600
  543MOL0     H73241   1.471   3.624   6.106 -2.0521 -0.7698  3.7925
  543MOL0     H73242   1.489   3.447   6.282 -1.4615 -0.8298 -1.6113
  543MOL0     H73243   1.650   3.492   6.221  0.7097 -0.9237  2.2014
  543MOL0     H73244   1.501   3.259   6.112 -0.4626 -0.7073  1.1576
  543MOL0     H73245   1.616   3.259   6.249  0.8793  1.5300  0.7277
  543MOL0     H73246   1.701   3.201   6.005 -1.2025  1.4737 -1.6168
  543MOL0     H73247   1.689   3.368   5.975  0.5363  2.5659  1.3331
  543MOL0     H73248   1.916   3.296   6.030  0.3187 -1.7969  0.3330
  543MOL0     H73249   1.869   3.401   6.173  3.0161 -0.7251 -0.8135
  543MOL0     H73250   1.803   3.187   6.297 -1.6451 -0.9737 -0.8778
  543MOL0     H73251   1.853   3.107   6.158 -3.1548 -0.0401  2.5607
  543MOL0     H73252   2.047   3.284   6.308 -0.8557  0.2507 -0.8107
  543MOL0     H73253   2.090   3.179   6.179 -0.9679 -2.7441  0.1186
  543MOL0     H73254   2.037   3.085   6.456  0.0351 -0.7711  0.1669
  543MOL0     H73255   1.949   3.000   6.336 -2.5089  2.5126  2.0219
  543MOL0     H73256   2.106   2.815   6.203 -0.2184  0.2339  0.0364
  543MOL0     H73257   2.290   2.675   6.128 -0.8568  0.5887  1.0798
  543MOL0     H73258   2.448   2.750   6.098 -1.7432  1.3346 -2.9214
  543MOL0     H73259   2.522   2.700   6.313 -1.5826  2.1218  0.3151
  543MOL0     H73260   2.370   2.607   6.355 -0.1702 -1.2683 -0.3796
  543MOL0     H73261   2.501   2.531   6.095  1.6839 -2.1646 -0.2687
  543MOL0     H73262   2.407   2.443   6.221  1.7285 -0.8208  4.0961
  543MOL0     H73263   2.599   2.481   6.372  0.1106 -1.1174 -0.2589
  543MOL0     H73264   2.689   2.560   6.243 -3.5553  2.6691  1.1227
  543MOL0     H73265   2.667   2.098   6.167  0.8052  0.9171  1.5144
  543MOL0     H73266   2.739   2.004   5.946  1.6536 -0.3618  1.0875
  543MOL0     H73267   3.030   1.800   5.762 -2.7007 -1.2793  0.2183
  543MOL0     H73268   3.135   1.659   5.563 -1.8342 -3.3204 -1.9340
  543MOL0     H73269   2.922   1.664   5.188 -0.9254  1.9592  1.4305
  543MOL0     H73270   3.023   1.792   5.156  0.6474 -0.9661 -1.4360
  543MOL0     H73271   3.057   1.608   4.991 -1.4821  0.6542  0.5431
  543MOL0     H73272   3.208   1.615   5.090  0.0081  1.1861  3.8072
  543MOL0     H73273   3.132   1.460   5.234  0.1188  3.5338 -0.0285
  543MOL0     H73274   2.967   1.436   5.163 -0.3697 -3.7853 -1.1017
  543MOL0     H73275   3.233   1.348   5.030 -0.9593  2.2305 -4.1276
  543MOL0     H73276   3.073   1.340   4.955  1.5519 -1.0362 -0.9554
  543MOL0     H73277   3.116   1.132   5.036 -0.1834  2.3858 -1.6891
  543MOL0     H73278   2.978   1.212   5.111 -0.2290  3.3952  1.7403
  543MOL0     H73279   3.243   1.214   5.252  0.2613 -0.5905  0.2196
  543MOL0     H73280   3.093   1.222   5.327  1.0934  3.1150 -0.1321
  543MOL0     H73281   3.211   1.005   5.358  3.6201 -0.5004 -1.1975
  543MOL0     H73282   3.241   0.975   5.193 -2.4134 -4.1473  1.2441
  543MOL0     H73283   2.975   0.972   5.337 -2.3176 -0.1651 -1.6884
  543MOL0     H73284   2.990   0.949   5.157  0.3654 -0.3336 -0.3626
  543MOL0     H73285   2.900   1.896   5.296 -2.9529  1.5717  2.1741
  543MOL0     H73286   2.801   2.012   5.471 -0.1844  0.5081 -0.0762
  543MOL0     H73287   2.830   2.400   5.808 -2.1630 -0.7562 -2.0312
  543MOL0     H73288   2.748   2.488   6.023  0.3687  0.4570 -3.6098
  543MOL0     H73289   1.130   3.651   6.138  0.0992 -2.1991  0.8541
  543MOL0     H73290   0.959   3.704   5.977  1.2556  1.4153  1.0166
  543MOL0     H73291   0.675   3.291   5.608 -0.6212 -0.4870 -2.1390
  543MOL0     H73292   0.522   3.308   5.446 -2.1569  1.3235  0.6580
  543MOL0     H73293   0.614   3.468   5.161  0.4603  1.4240 -1.1446
  543MOL0     H73294   0.487   3.572   5.090  0.8962 -0.3126 -2.1645
  543MOL0     H73295   0.443   3.393   4.983 -1.9479  2.0795 -0.4346
  543MOL0     H73296   0.340   3.379   5.135  0.8025  1.6319  0.1646
  543MOL0     H73297   0.562   3.241   5.229 -0.9780  0.3812 -0.0816
  543MOL0     H73298   0.619   3.254   5.062 -0.7307 -0.7782 -2.4573
  543MOL0     H73299   0.359   3.134   5.024  0.5448  0.4798 -1.7642
  543MOL0     H73300   0.515   3.050   5.049 -1.1972  0.0027 -3.0765
  543MOL0     H73301   0.316   2.990   5.412  0.7756  1.8308 -0.0839
  543MOL0     H73302   0.575   3.726   5.388 -0.7623  0.4766  1.0789
  543MOL0     H73303   0.835   3.790   5.576  0.4672 -2.2131  2.8027
  543MOL0     H73304   0.681   3.859   5.552 -0.0628 -0.4533 -2.2522
  543MOL0     H73305   0.727   3.779   5.710 -1.1889 -2.5384 -0.1350
  544MOL0     O73306   9.545   3.626   5.344  0.5791  0.2325  0.0951
  544MOL0     C73307   9.525   3.531   5.271  0.4768 -0.2123 -0.7455
  544MOL0     O73308   9.584   3.506   5.154 -0.5457 -0.8718  0.8438
  544MOL0     C73309   9.591   3.623   5.073  0.0277  0.2271  0.2910
  544MOL0     C73310   9.480   3.708   5.059  0.3589 -0.4834 -1.1414
  544MOL0     C73311   9.488   3.816   4.968  0.7527  0.6767 -0.2614
  544MOL0     C73312   9.593   3.820   4.872 -0.0021 -0.3573  0.1864
  544MOL0     O73313   9.585   3.918   4.773  0.2277 -0.1365  0.2578
  544MOL0     C73314   9.695   3.943   4.687 -0.0151 -0.5558  0.1727
  544MOL0     C73315   9.675   4.067   4.600 -0.0515  0.5799 -0.2677
  544MOL0     C73316   9.791   4.101   4.509  0.1286 -0.9660 -0.2971
  544MOL0     C73317   9.865   4.227   4.550  0.1274  0.8096  0.5669
  544MOL0     C73318   9.979   4.250   4.456 -0.3668  0.6475  0.3714
  544MOL0     C73319  10.041   4.392   4.489  0.5525  0.2565  0.2571
  544MOL0     C73320  10.174   4.409   4.409  0.8376 -1.2732 -0.4567
  544MOL0     C73321  10.268   4.522   4.457 -1.1698  0.1409  0.0019
  544MOL0     N73322  10.298   4.522   4.598  0.5884 -0.6412  0.1923
  544MOL0     C73323  10.405   4.447   4.641  0.5590  0.8259 -0.5572
  544MOL0     C73324  10.446   4.511   4.747 -0.6753  0.5405  0.3722
  544MOL0     C73325  10.559   4.455   4.831 -0.5430  0.2156  0.5774
  544MOL0     C73326  10.501   4.355   4.934  0.3986 -0.0737  0.7096
  544MOL0     C73327  10.412   4.436   5.037 -0.2840  0.8828 -0.3705
  544MOL0     C73328  10.354   4.353   5.156 -0.5498 -0.1564 -0.6735
  544MOL0     O73329  10.297   4.436   5.257 -0.6048  0.1062 -0.1810
  544MOL0     C73330  10.282   4.383   5.383 -1.0855  0.0895  0.1970
  544MOL0     C73331  10.333   4.255   5.420 -0.0226  0.9075  0.0728
  544MOL0     C73332  10.335   4.228   5.552  0.5369 -0.8240 -0.7589
  544MOL0     C73333  10.288   4.312   5.662 -0.0873  0.8927  1.6060
  544MOL0     C73334  10.303   4.278   5.797 -0.8246  0.2478  0.0045
  544MOL0     O73335  10.378   4.162   5.824 -0.2033 -0.7568 -0.5354
  544MOL0     C73336  10.387   4.112   5.955 -0.1405 -0.1871 -0.2986
  544MOL0     C73337  10.290   4.022   5.993  0.4691  0.3298 -1.1041
  544MOL0     C73338  10.311   3.950   6.119  0.5468 -0.1333  0.8071
  544MOL0     C73339  10.420   3.979   6.198 -0.7918  0.5804 -0.4648
  544MOL0     O73340  10.451   3.906   6.312  0.3522  0.7848 -0.6820
  544MOL0     C73341  10.566   3.921   6.390  0.2039  0.2625 -0.3381
  544MOL0     C73342  10.557   3.838   6.505 -0.1244  0.0454 -0.9108
  544MOL0     C73343  10.437   3.874   6.591  0.3387 -0.0534  0.3204
  544MOL0     C73344  10.422   4.022   6.619 -0.8532 -0.2536  0.3376
  544MOL0     C73345  10.323   4.035   6.737 -0.4785  0.4555  0.1399
  544MOL0     C73346  10.174   3.996   6.733 -0.4629 -0.5289  0.0878
  544MOL0     C73347  10.117   4.023   6.874 -0.1825 -0.1695 -0.0619
  544MOL0     C73348   9.969   3.991   6.883 -0.2697  0.1726  0.7841
  544MOL0    Cl73349   9.919   3.975   7.059  0.2453  0.2161  0.1544
  544MOL0     C73350  10.499   4.092   6.163 -0.1065  1.0007  0.0290
  544MOL0     C73351  10.481   4.159   6.046 -0.1290 -0.2772  0.3316
  544MOL0     O73352  10.257   4.350   5.885  0.0199 -0.0586  0.2787
  544MOL0     C73353  10.225   4.426   5.610  0.0257  0.8899 -0.4234
  544MOL0     C73354  10.235   4.468   5.481  0.3648 -0.3481  0.3244
  544MOL0     N73355  10.373   4.625   4.768  0.1656 -0.4360 -0.6546
  544MOL0     N73356  10.284   4.635   4.667  0.1752 -0.7875 -0.1872
  544MOL0     C73357   9.696   3.731   4.877  0.2213  0.4048 -0.4697
  544MOL0     C73358   9.694   3.631   4.984  0.2188 -0.2696  0.3886
  544MOL0     C73359   9.463   3.406   5.346  0.3656 -0.4087 -0.2195
  544MOL0     C73360   9.519   3.277   5.316 -1.0167  0.0536 -0.7931
  544MOL0     C73361   9.476   3.162   5.383 -0.3436 -0.1905 -0.8145
  544MOL0     C73362   9.382   3.180   5.486 -0.5148 -0.5406 -0.6012
  544MOL0     O73363   9.339   3.070   5.554 -0.2468 -0.7133  0.6019
  544MOL0     C73364   9.424   3.044   5.662 -0.0935  0.5622  0.6410
  544MOL0     C73365   9.343   2.980   5.777 -0.2389 -0.0286  0.1678
  544MOL0     C73366   9.343   2.824   5.771 -0.0717  0.4529 -0.0926
  544MOL0     C73367   9.287   2.769   5.634 -0.2214 -0.4716  0.1642
  544MOL0     C73368   9.321   2.625   5.638  0.0845 -0.7346  0.0884
  544MOL0     C73369   9.359   2.508   5.661  0.8440 -0.4554  0.4625
  544MOL0     C73370   9.323   3.311   5.511  0.4373  0.1166  0.7988
  544MOL0     C73371   9.358   3.423   5.439  0.3612  0.1350  0.4860
  544MOL0     C73372   9.271   3.548   5.451  0.7150 -0.2039  0.6791
  544MOL0     H73373   9.389   3.708   5.119  0.8946 -2.1013 -0.2632
  544MOL0     H73374   9.399   3.877   4.974  0.2979  0.0301 -0.3651
  544MOL0     H73375   9.790   3.966   4.735  0.5191  2.6617 -2.0767
  544MOL0     H73376   9.715   3.860   4.618 -0.5260  0.2170 -0.9527
  544MOL0     H73377   9.650   4.159   4.655 -1.5822  1.8471 -2.8637
  544MOL0     H73378   9.588   4.049   4.536 -0.4936 -0.7165  0.6615
  544MOL0     H73379   9.753   4.127   4.410 -3.0363 -4.0978 -0.1226
  544MOL0     H73380   9.860   4.017   4.497  0.5277 -0.7538  0.4320
  544MOL0     H73381   9.787   4.304   4.546 -1.2811 -0.6093 -2.1144
  544MOL0     H73382   9.899   4.210   4.652  0.3738  0.8752  0.4972
  544MOL0     H73383  10.055   4.172   4.470  0.5749  1.7191  1.4561
  544MOL0     H73384   9.944   4.260   4.353  1.6693  0.0210 -0.4375
  544MOL0     H73385   9.961   4.461   4.460 -1.1255 -2.3613 -1.8193
  544MOL0     H73386  10.064   4.399   4.595 -1.2272 -0.6720  0.7436
  544MOL0     H73387  10.149   4.426   4.304  2.2342  3.1818 -0.2500
  544MOL0     H73388  10.231   4.316   4.418  1.8370 -0.6378 -0.1426
  544MOL0     H73389  10.364   4.521   4.404 -1.2148 -0.2320 -0.0747
  544MOL0     H73390  10.233   4.618   4.418  1.4809  0.5010 -1.7263
  544MOL0     H73391  10.435   4.348   4.607 -0.1472 -0.7611  2.9706
  544MOL0     H73392  10.631   4.408   4.763 -2.3811 -1.1125 -0.5452
  544MOL0     H73393  10.612   4.529   4.891 -2.7685  1.4517  1.0937
  544MOL0     H73394  10.439   4.277   4.889 -0.4084 -0.4393  2.3655
  544MOL0     H73395  10.592   4.320   4.983  0.0768  1.1196  2.2437
  544MOL0     H73396  10.335   4.501   4.996 -1.1732  1.0277  1.4626
  544MOL0     H73397  10.483   4.506   5.082 -0.8702  0.0344  2.0111
  544MOL0     H73398  10.442   4.304   5.198 -0.3538  0.7719  0.0382
  544MOL0     H73399  10.279   4.279   5.127  0.2869 -2.0559  1.7133
  544MOL0     H73400  10.367   4.178   5.351 -2.2562 -0.1105  0.0309
  544MOL0     H73401  10.369   4.126   5.566  0.4230 -0.7821 -0.1284
  544MOL0     H73402  10.197   4.006   5.939 -1.0747  1.1337  1.1500
  544MOL0     H73403  10.260   3.859   6.146  0.7409 -0.0944  1.3259
  544MOL0     H73404  10.654   3.875   6.344  1.2049  1.8155 -0.0686
  544MOL0     H73405  10.594   4.024   6.415 -1.1644  0.6194 -0.1915
  544MOL0     H73406  10.541   3.739   6.461 -1.5352  0.7350 -2.0473
  544MOL0     H73407  10.651   3.847   6.560 -1.0880  2.9147  0.4326
  544MOL0     H73408  10.348   3.826   6.550  0.2660 -1.3892  1.9402
  544MOL0     H73409  10.458   3.824   6.686  1.0360  0.1073  0.2610
  544MOL0     H73410  10.382   4.067   6.528 -1.6574  2.0016  1.7257
  544MOL0     H73411  10.520   4.054   6.655 -0.5761  2.1745 -2.2743
  544MOL0     H73412  10.324   4.143   6.759  0.2977  0.2509  1.1710
  544MOL0     H73413  10.378   3.985   6.817 -0.3440 -0.2709 -0.3990
  544MOL0     H73414  10.123   4.065   6.666 -2.8959  0.3964  2.6771
  544MOL0     H73415  10.173   3.892   6.699  0.2366  0.6251 -3.8748
  544MOL0     H73416  10.128   4.127   6.903  3.8909 -0.3966 -0.1846
  544MOL0     H73417  10.164   3.971   6.959  0.1442  2.6690  1.6326
  544MOL0     H73418   9.922   4.079   6.839  1.2418  1.4665  1.6727
  544MOL0     H73419   9.952   3.899   6.825  2.9073  1.3228 -2.2892
  544MOL0     H73420  10.573   4.137   6.227  0.8384 -0.4284 -0.0096
  544MOL0     H73421  10.540   4.247   6.023  0.4529 -1.5411 -3.8671
  544MOL0     H73422  10.186   4.495   5.685  1.6475 -1.0358  2.3590
  544MOL0     H73423  10.183   4.562   5.466  1.6026  0.2894 -0.1106
  544MOL0     H73424   9.786   3.728   4.816  0.9372  0.2477  0.5710
  544MOL0     H73425   9.776   3.560   4.983  1.5221  1.1276 -2.0153
  544MOL0     H73426   9.605   3.274   5.249  0.0574  0.1541  0.5390
  544MOL0     H73427   9.522   3.064   5.374 -0.1438 -0.2454  0.5417
  544MOL0     H73428   9.474   3.133   5.703  2.2159 -0.6647  0.6570
  544MOL0     H73429   9.498   2.970   5.630 -1.0281  0.0107 -0.3087
  544MOL0     H73430   9.239   3.014   5.780 -0.9832 -1.7086 -2.5316
  544MOL0     H73431   9.390   3.023   5.866 -0.4603  0.2354  0.1566
  544MOL0     H73432   9.273   2.785   5.844  0.4051  1.7725  1.1266
  544MOL0     H73433   9.439   2.787   5.809  0.6635  0.0824 -2.1523
  544MOL0     H73434   9.184   2.797   5.610  0.9883  2.3197 -2.4900
  544MOL0     H73435   9.343   2.813   5.551  0.0389 -2.1102 -0.5595
  544MOL0     H73436   9.398   2.410   5.680 -0.0615 -0.9271 -0.0585
  544MOL0     H73437   9.229   3.312   5.567 -0.4853  1.8246 -0.6906
  544MOL0     H73438   9.308   3.610   5.533 -1.3626  2.5419 -0.3165
  544MOL0     H73439   9.269   3.606   5.358 -4.4294  1.6276  1.5738
  544MOL0     H73440   9.164   3.533   5.469  0.3759  0.4791 -0.6331
  545MOL0     O73441   7.684   2.460   4.243  0.4071 -0.9061 -0.2620
  545MOL0     C73442   7.570   2.425   4.212 -0.2121 -0.3969  0.3133
  545MOL0     O73443   7.469   2.511   4.167 -0.1495 -0.7027  0.7323
  545MOL0     C73444   7.501   2.644   4.157  0.4223  0.9469  0.2356
  545MOL0     C73445   7.470   2.701   4.032  0.3484 -0.1686 -0.0312
  545MOL0     C73446   7.487   2.839   4.018 -0.1392  0.2291  0.2773
  545MOL0     C73447   7.535   2.920   4.112  0.7913 -0.0071 -0.5225
  545MOL0     O73448   7.550   3.056   4.087  0.5637  0.5470 -0.0451
  545MOL0     C73449   7.657   3.127   4.161  0.0179 -0.5443 -0.8269
  545MOL0     C73450   7.717   3.233   4.077  0.0400 -0.0436  0.8442
  545MOL0     C73451   7.622   3.349   4.029 -0.3115 -0.6922 -0.7089
  545MOL0     C73452   7.691   3.409   3.907  0.0663 -0.5246 -0.0234
  545MOL0     C73453   7.598   3.517   3.842  1.0024  0.7519  0.2022
  545MOL0     C73454   7.655   3.582   3.716  0.8260 -0.0030  0.6707
  545MOL0     C73455   7.567   3.680   3.637  0.0731  0.3493 -0.4942
  545MOL0     C73456   7.542   3.803   3.727 -0.5112 -0.1526  0.6104
  545MOL0     N73457   7.660   3.890   3.707 -0.6224  0.2490  0.4783
  545MOL0     C73458   7.673   4.005   3.621  0.3666  0.0827 -0.3056
  545MOL0     C73459   7.777   4.082   3.659 -0.2222  0.2342 -1.0845
  545MOL0     C73460   7.814   4.213   3.590  0.0870  0.0596 -0.3094
  545MOL0     C73461   7.706   4.326   3.606 -0.7272  0.3535 -0.4145
  545MOL0     C73462   7.749   4.473   3.619 -0.6365  0.4053  0.6961
  545MOL0     C73463   7.747   4.534   3.475  0.9066  0.4923 -0.4632
  545MOL0     O73464   7.856   4.486   3.400 -0.7883 -0.1113 -0.1429
  545MOL0     C73465   7.872   4.541   3.270 -0.7148  0.6190 -0.4054
  545MOL0     C73466   7.775   4.615   3.211  0.0519 -0.4825  0.3713
  545MOL0     C73467   7.783   4.645   3.071  0.5103 -0.1330  0.7398
  545MOL0     C73468   7.899   4.611   3.001  0.8457  0.4256  1.0682
  545MOL0     C73469   7.916   4.621   2.858 -0.2751 -1.7547  0.8298
  545MOL0     O73470   8.032   4.569   2.798  0.3769  0.1916  0.1016
  545MOL0     C73471   8.031   4.530   2.667  0.6462  1.0575 -0.2216
  545MOL0     C73472   7.922   4.514   2.570  0.7290 -0.2871  0.0819
  545MOL0     C73473   7.941   4.464   2.439 -0.9649  0.1483  0.0438
  545MOL0     C73474   8.062   4.409   2.402 -0.4117 -0.2460 -0.1694
  545MOL0     O73475   8.072   4.372   2.272  0.2484 -0.4220 -0.4760
  545MOL0     C73476   8.165   4.448   2.194  0.1047  0.2213  0.0370
  545MOL0     C73477   8.156   4.423   2.048 -0.4449 -0.5021 -0.4752
  545MOL0     C73478   8.013   4.442   2.007  0.6118  0.1145 -0.4434
  545MOL0     C73479   7.997   4.401   1.863  0.3580 -0.1473 -0.3937
  545MOL0     C73480   7.860   4.450   1.803  0.6284  0.6250 -0.1708
  545MOL0     C73481   7.830   4.404   1.659  0.7691  0.8244 -0.3099
  545MOL0     C73482   7.916   4.473   1.558 -0.5705  0.1379  0.6795
  545MOL0     C73483   7.855   4.606   1.498 -0.0625 -0.9140 -0.7437
  545MOL0    Cl73484   7.826   4.742   1.613 -0.3338  0.0134  0.2013
  545MOL0     C73485   8.168   4.412   2.493  0.2238  0.0576 -1.0247
  545MOL0     C73486   8.149   4.469   2.618 -0.7989 -0.7533  0.2323
  545MOL0     O73487   7.821   4.665   2.801 -1.0818 -0.8008  0.6135
  545MOL0     C73488   8.006   4.557   3.071  0.2644 -0.2519  0.4782
  545MOL0     C73489   7.995   4.511   3.206  0.2320 -0.8422  0.7934
  545MOL0     N73490   7.823   4.022   3.779  0.2863 -0.2899  0.5523
  545MOL0     N73491   7.764   3.907   3.795 -0.3797  0.2464  0.4632
  545MOL0     C73492   7.569   2.859   4.236 -0.0230 -0.5166  0.1566
  545MOL0     C73493   7.545   2.725   4.263  0.1073 -0.6570 -0.2895
  545MOL0     C73494   7.542   2.280   4.228  0.8973 -0.4024  0.0373
  545MOL0     C73495   7.649   2.192   4.209  0.5114 -0.3148 -0.0465
  545MOL0     C73496   7.620   2.059   4.211  0.0521  0.5447 -0.1843
  545MOL0     C73497   7.495   1.996   4.230 -0.3087 -0.0954 -0.4425
  545MOL0     O73498   7.469   1.867   4.233 -0.6247 -0.1853  0.2848
  545MOL0     C73499   7.572   1.782   4.265 -1.1092 -0.4583 -0.3717
  545MOL0     C73500   7.519   1.696   4.386 -0.0073  0.3267  0.0627
  545MOL0     C73501   7.499   1.769   4.516  0.0834  1.2179 -0.0677
  545MOL0     C73502   7.365   1.759   4.567 -1.1369  0.4241  0.2671
  545MOL0     C73503   7.337   1.811   4.699 -0.2563  0.9006 -0.2309
  545MOL0     C73504   7.318   1.848   4.811  0.1597 -0.2991  0.2408
  545MOL0     C73505   7.388   2.089   4.242 -0.2636  0.7002 -0.6227
  545MOL0     C73506   7.417   2.227   4.244 -0.5309  1.1600  0.7350
  545MOL0     C73507   7.286   2.300   4.239  0.1609 -0.0227 -0.0436
  545MOL0     H73508   7.427   2.643   3.950  0.0718 -2.4187  1.6201
  545MOL0     H73509   7.449   2.886   3.928  1.7655  0.5098 -0.4266
  545MOL0     H73510   7.604   3.176   4.243  0.4504  2.6139 -2.2868
  545MOL0     H73511   7.732   3.055   4.196 -0.7801 -2.0499 -2.0442
  545MOL0     H73512   7.756   3.184   3.987 -0.9224 -3.1100  1.9661
  545MOL0     H73513   7.793   3.282   4.138 -1.0843  1.2083  1.2648
  545MOL0     H73514   7.620   3.416   4.115  3.1234  0.1389 -1.1289
  545MOL0     H73515   7.521   3.310   4.014 -2.0055  1.7118  2.9103
  545MOL0     H73516   7.791   3.448   3.931  0.3608 -0.0871 -1.8053
  545MOL0     H73517   7.712   3.331   3.833  0.6788  0.1128 -0.5376
  545MOL0     H73518   7.523   3.453   3.796  1.4124  0.7204 -0.4368
  545MOL0     H73519   7.555   3.576   3.923 -0.4943 -0.3890  0.2712
  545MOL0     H73520   7.751   3.629   3.740  0.9141  1.3168 -1.9325
  545MOL0     H73521   7.683   3.503   3.645 -1.8922  2.6392 -3.8301
  545MOL0     H73522   7.477   3.635   3.594  0.0508  1.0790 -1.2455
  545MOL0     H73523   7.623   3.692   3.544  0.5617  0.2161 -0.2236
  545MOL0     H73524   7.450   3.849   3.688  0.6612  0.5835 -1.4372
  545MOL0     H73525   7.531   3.766   3.829  1.0581  0.6835  1.1091
  545MOL0     H73526   7.599   4.041   3.549 -0.1316  0.9040  0.5892
  545MOL0     H73527   7.906   4.243   3.641  0.1387  1.4095 -1.1507
  545MOL0     H73528   7.842   4.188   3.488  1.2002 -2.5411  0.5419
  545MOL0     H73529   7.619   4.312   3.541 -1.5455  1.5156  0.3868
  545MOL0     H73530   7.673   4.300   3.707  1.9497  0.9199  0.6770
  545MOL0     H73531   7.852   4.480   3.658 -0.5311  0.6615  0.3742
  545MOL0     H73532   7.678   4.529   3.681 -2.3335  1.5214 -2.0809
  545MOL0     H73533   7.764   4.642   3.477  2.7102  0.2370  0.4161
  545MOL0     H73534   7.654   4.506   3.424  0.3411  2.4515 -0.5920
  545MOL0     H73535   7.683   4.634   3.264  0.1685  0.8717  0.1295
  545MOL0     H73536   7.696   4.696   3.030  1.0539  2.8892  3.0158
  545MOL0     H73537   7.826   4.558   2.595  1.2362 -0.5751  2.9760
  545MOL0     H73538   7.868   4.478   2.360 -0.8052 -0.6280 -0.2440
  545MOL0     H73539   8.152   4.555   2.213  0.2971  0.4851 -1.2236
  545MOL0     H73540   8.268   4.424   2.222  0.2570 -0.7302 -1.2672
  545MOL0     H73541   8.215   4.498   1.995 -3.0947  1.9601 -0.1919
  545MOL0     H73542   8.187   4.319   2.035 -1.0565 -0.7648  0.0953
  545MOL0     H73543   7.931   4.389   2.057 -2.0296  3.7080 -0.5174
  545MOL0     H73544   7.998   4.551   2.003 -1.0209 -0.1190 -2.2583
  545MOL0     H73545   7.993   4.292   1.859  0.0111 -0.1170 -0.9800
  545MOL0     H73546   8.085   4.436   1.807  0.6679  2.3359  1.4724
  545MOL0     H73547   7.864   4.559   1.804  1.6302  0.6364 -1.8932
  545MOL0     H73548   7.776   4.407   1.859  1.8271 -3.2294 -0.9753
  545MOL0     H73549   7.845   4.296   1.661 -1.4062  0.4877  0.0405
  545MOL0     H73550   7.723   4.411   1.638  0.4683  0.1133  0.8959
  545MOL0     H73551   7.919   4.405   1.472 -1.5665  0.2874  0.5167
  545MOL0     H73552   8.019   4.487   1.594  0.1618 -0.0612 -1.2030
  545MOL0     H73553   7.926   4.637   1.419  0.4877 -1.9795 -0.6806
  545MOL0     H73554   7.754   4.589   1.460 -0.4630 -2.3374  0.8732
  545MOL0     H73555   8.259   4.361   2.466 -0.0349 -2.6321  2.4015
  545MOL0     H73556   8.230   4.463   2.690  1.8172  2.4649 -2.0950
  545MOL0     H73557   8.109   4.550   3.037  0.8237  3.2121  1.0382
  545MOL0     H73558   8.084   4.483   3.261  1.7606  1.3783 -0.3538
  545MOL0     H73559   7.600   2.909   4.327 -1.7661  3.2214 -1.1048
  545MOL0     H73560   7.578   2.688   4.360  2.3481  0.8664 -0.4016
  545MOL0     H73561   7.747   2.236   4.188  0.3428  1.2712  2.1889
  545MOL0     H73562   7.703   1.994   4.183  0.0394  1.3336 -2.2365
  545MOL0     H73563   7.659   1.835   4.302  1.0200 -3.2198 -1.0795
  545MOL0     H73564   7.593   1.722   4.175  0.0446  0.1222 -0.5048
  545MOL0     H73565   7.591   1.613   4.389 -2.5199 -1.9333  1.5629
  545MOL0     H73566   7.428   1.645   4.355 -0.9416  2.5171 -0.9643
  545MOL0     H73567   7.512   1.876   4.496  0.4514  1.6252  2.0721
  545MOL0     H73568   7.576   1.744   4.590  0.8966  0.6869 -1.0667
  545MOL0     H73569   7.310   1.832   4.507  0.8429  2.1989  0.4814
  545MOL0     H73570   7.335   1.655   4.554 -1.4592  0.4427  0.8676
  545MOL0     H73571   7.322   1.885   4.912 -2.8398 -2.6797  1.3877
  545MOL0     H73572   7.289   2.045   4.249 -0.4512  0.9914 -1.3403
  545MOL0     H73573   7.288   2.402   4.278 -2.0906  1.0603 -2.4473
  545MOL0     H73574   7.250   2.314   4.137 -0.9318  0.3998  0.3862
  545MOL0     H73575   7.209   2.249   4.297 -2.7458  1.6751 -2.1568
  546MOL0     O73576   0.210   6.227   2.480 -0.6393  0.1230 -0.2342
  546MOL0     C73577   0.123   6.170   2.539 -0.4725  0.0514  0.5319
  546MOL0     O73578   0.142   6.055   2.620 -1.3132 -0.2003 -0.9365
  546MOL0     C73579   0.260   6.009   2.672 -0.3526  0.7339 -0.6342
  546MOL0     C73580   0.257   5.879   2.723  0.1464 -0.0410  0.3163
  546MOL0     C73581   0.370   5.825   2.777 -0.4022  0.6169 -0.6398
  546MOL0     C73582   0.489   5.893   2.791  0.4257 -0.0006  0.0131
  546MOL0     O73583   0.581   5.808   2.837 -0.9873  0.1285 -0.4002
  546MOL0     C73584   0.720   5.858   2.847 -0.5741 -0.1563  0.2076
  546MOL0     C73585   0.816   5.742   2.847  1.3548 -0.3398  0.4731
  546MOL0     C73586   0.830   5.659   2.718  0.4060  0.5730 -0.7159
  546MOL0     C73587   0.932   5.551   2.738  0.3825  0.5260  0.1359
  546MOL0     C73588   0.974   5.510   2.585 -0.2845  0.0324 -1.3534
  546MOL0     C73589   1.083   5.403   2.596 -0.5029  0.2492  0.1874
  546MOL0     C73590   1.148   5.359   2.468  0.3829  0.3343  0.0102
  546MOL0     C73591   1.063   5.260   2.382  0.1036  0.1895 -0.2838
  546MOL0     N73592   1.121   5.237   2.246  0.3114 -0.3499 -0.6256
  546MOL0     C73593   1.195   5.322   2.173 -1.1232 -0.9498  0.0581
  546MOL0     C73594   1.237   5.259   2.062 -0.2453  0.6923 -0.6530
  546MOL0     C73595   1.332   5.301   1.951  0.8463  0.5592 -0.1604
  546MOL0     C73596   1.325   5.242   1.814 -0.9512 -0.0073 -0.8591
  546MOL0     C73597   1.209   5.302   1.728 -0.2367  0.4705  0.3057
  546MOL0     C73598   1.068   5.301   1.788 -0.5669  0.6279 -0.8696
  546MOL0     O73599   1.060   5.417   1.871 -0.8206  0.7471  0.0254
  546MOL0     C73600   0.935   5.473   1.870 -0.9587 -0.6650 -0.0207
  546MOL0     C73601   0.818   5.396   1.866 -0.2153  0.2449 -0.0656
  546MOL0     C73602   0.685   5.451   1.863 -0.9699 -0.3583  0.0214
  546MOL0     C73603   0.681   5.593   1.880  1.1493 -0.4356  0.5057
  546MOL0     C73604   0.552   5.670   1.887 -0.3938  0.4408 -0.0919
  546MOL0     O73605   0.433   5.600   1.871  1.3106  0.4470 -0.1140
  546MOL0     C73606   0.315   5.664   1.849  0.6392 -0.6419  0.1642
  546MOL0     C73607   0.292   5.803   1.854 -0.2548 -0.1060  0.5521
  546MOL0     C73608   0.160   5.850   1.854 -0.2028 -1.1984  1.0164
  546MOL0     C73609   0.059   5.763   1.825  1.6824  0.9823 -0.5016
  546MOL0     O73610  -0.074   5.817   1.834  0.0766 -0.9960  0.6275
  546MOL0     C73611  -0.161   5.773   1.725 -0.4151  0.0392 -0.4421
  546MOL0     C73612  -0.291   5.859   1.745 -0.3134  0.1299  0.0365
  546MOL0     C73613  -0.377   5.828   1.865 -0.8283  0.2929  0.7844
  546MOL0     C73614  -0.509   5.900   1.851  0.1043  0.0246 -0.1051
  546MOL0     C73615  -0.601   5.890   1.983  0.3427 -0.1586  0.0114
  546MOL0     C73616  -0.749   5.932   1.959  0.9752 -0.2604  0.2127
  546MOL0     C73617  -0.777   6.081   1.957  0.2555  0.1103  0.3927
  546MOL0     C73618  -0.739   6.152   1.828 -0.7258  0.3136  0.8208
  546MOL0    Cl73619  -0.783   6.317   1.871  0.6305 -0.0450 -0.1975
  546MOL0     C73620   0.077   5.625   1.811  0.6237 -0.1413  0.2256
  546MOL0     C73621   0.212   5.578   1.820  1.0805  0.3124 -0.4018
  546MOL0     O73622   0.558   5.788   1.923  0.3575  0.1177 -0.1030
  546MOL0     C73623   0.796   5.668   1.890 -0.5261 -0.1579  0.2036
  546MOL0     C73624   0.926   5.615   1.884  1.1668 -0.0003  0.4782
  546MOL0     N73625   1.168   5.132   2.073  0.0164  0.0478 -0.5459
  546MOL0     N73626   1.106   5.124   2.183  0.8084  1.0859 -0.3951
  546MOL0     C73627   0.494   6.020   2.755  0.3926  0.1400 -1.0206
  546MOL0     C73628   0.379   6.084   2.699  0.1135  0.1956  0.6509
  546MOL0     C73629  -0.010   6.224   2.534 -0.5264 -0.2165 -0.1627
  546MOL0     C73630  -0.027   6.359   2.498 -0.4412  0.2715  0.3516
  546MOL0     C73631  -0.150   6.413   2.476  0.5838 -0.9346 -0.6566
  546MOL0     C73632  -0.270   6.341   2.487 -0.2161 -0.1319  0.1174
  546MOL0     O73633  -0.380   6.415   2.461  0.4034  0.3650  0.5104
  546MOL0     C73634  -0.500   6.355   2.496 -0.9783  0.6274 -0.5000
  546MOL0     C73635  -0.614   6.443   2.457  0.2123 -0.4529  0.9078
  546MOL0     C73636  -0.651   6.452   2.308 -0.2425  0.0822  0.3137
  546MOL0     C73637  -0.751   6.565   2.291  0.1370 -0.7631  0.3045
  546MOL0     C73638  -0.768   6.588   2.145  0.8815 -0.8383  0.5328
  546MOL0     C73639  -0.800   6.642   2.041  0.1196  1.0056  0.6255
  546MOL0     C73640  -0.255   6.204   2.517  0.2550 -0.7989 -0.1197
  546MOL0     C73641  -0.132   6.145   2.550 -0.0170  0.3158  0.0989
  546MOL0     C73642  -0.125   6.000   2.588  0.4063 -0.4747  0.2050
  546MOL0     H73643   0.162   5.828   2.726  1.0949 -1.9535 -0.2902
  546MOL0     H73644   0.358   5.724   2.815 -1.7224  0.9401 -0.1144
  546MOL0     H73645   0.737   5.928   2.765 -1.9452  1.8970  1.5701
  546MOL0     H73646   0.733   5.924   2.933  0.8354  2.0118 -1.5654
  546MOL0     H73647   0.793   5.674   2.930 -0.7109  0.5096  0.6561
  546MOL0     H73648   0.914   5.789   2.858  2.0255 -1.5458 -0.0507
  546MOL0     H73649   0.856   5.727   2.637  1.4057  1.7913  0.5841
  546MOL0     H73650   0.733   5.612   2.697  0.3805 -0.9377  2.2258
  546MOL0     H73651   1.026   5.583   2.785  0.7852 -1.9169  1.1212
  546MOL0     H73652   0.897   5.463   2.791  3.2333 -0.7992 -0.0080
  546MOL0     H73653   0.887   5.467   2.535  1.5434 -0.9430 -3.8973
  546MOL0     H73654   1.009   5.601   2.535  1.9344  0.6624  1.1125
  546MOL0     H73655   1.170   5.432   2.657  0.5577 -3.2104  0.5219
  546MOL0     H73656   1.040   5.330   2.664 -1.1996  3.6375  3.7836
  546MOL0     H73657   1.244   5.319   2.501  2.0711  2.3241 -2.1712
  546MOL0     H73658   1.164   5.454   2.417 -2.0868  0.9871  0.2747
  546MOL0     H73659   1.038   5.165   2.431 -3.1467  1.4810  0.8401
  546MOL0     H73660   0.967   5.311   2.373  0.6633  1.4522  0.5477
  546MOL0     H73661   1.222   5.426   2.188 -0.1087 -0.5806 -3.3872
  546MOL0     H73662   1.334   5.410   1.942  1.7360  0.5954  0.3995
  546MOL0     H73663   1.430   5.260   1.974  0.6757 -1.6684 -2.9102
  546MOL0     H73664   1.417   5.256   1.756  1.0766 -0.4912  1.9628
  546MOL0     H73665   1.318   5.133   1.825  0.0682 -0.3616 -3.2107
  546MOL0     H73666   1.221   5.244   1.636  0.7632  1.2450 -0.0715
  546MOL0     H73667   1.234   5.403   1.695  0.3232  0.6303  1.1776
  546MOL0     H73668   1.048   5.216   1.853 -0.0335  0.8607 -0.3860
  546MOL0     H73669   0.989   5.278   1.716 -2.2244 -2.3281  1.6567
  546MOL0     H73670   0.826   5.289   1.883 -2.8291  0.0874  0.4611
  546MOL0     H73671   0.602   5.386   1.837 -3.0073  2.7675 -2.0760
  546MOL0     H73672   0.363   5.884   1.869 -2.0248  1.3211  1.8219
  546MOL0     H73673   0.142   5.954   1.878 -2.7732 -1.3221 -0.0872
  546MOL0     H73674  -0.111   5.790   1.629  2.5501 -0.5730  0.8815
  546MOL0     H73675  -0.186   5.667   1.734  1.1016 -0.2510  0.7678
  546MOL0     H73676  -0.254   5.962   1.747  0.9163 -0.3023  0.6903
  546MOL0     H73677  -0.349   5.842   1.654 -0.6759 -0.0946  0.3078
  546MOL0     H73678  -0.392   5.719   1.865 -1.6717  0.3846  2.0784
  546MOL0     H73679  -0.320   5.863   1.952  0.5976 -2.0837  0.9223
  546MOL0     H73680  -0.565   5.860   1.766 -0.9540  0.9528  0.1347
  546MOL0     H73681  -0.490   6.006   1.836  2.9994 -0.0040  2.4114
  546MOL0     H73682  -0.563   5.949   2.067  0.9386 -1.0501  0.3824
  546MOL0     H73683  -0.597   5.782   2.000 -1.4740 -0.7169 -2.4896
  546MOL0     H73684  -0.797   5.881   1.875  0.9457  0.8021 -0.4365
  546MOL0     H73685  -0.804   5.875   2.035  2.3175 -1.7368  0.1289
  546MOL0     H73686  -0.729   6.132   2.041 -1.3180  0.1299  1.2988
  546MOL0     H73687  -0.881   6.096   1.985 -0.1676 -1.0153 -0.4909
  546MOL0     H73688  -0.633   6.151   1.797 -1.8054 -1.7576 -3.7672
  546MOL0     H73689  -0.794   6.114   1.741  3.5430 -0.0266 -2.0831
  546MOL0     H73690  -0.013   5.569   1.786 -1.1479  2.7939 -0.4495
  546MOL0     H73691   0.230   5.473   1.836 -0.1506  0.1852  0.3380
  546MOL0     H73692   0.800   5.776   1.891 -1.4525 -0.1173  0.0879
  546MOL0     H73693   1.017   5.672   1.900 -0.3694  2.3231  1.3992
  546MOL0     H73694   0.581   6.085   2.757  1.2588 -0.9984 -0.6708
  546MOL0     H73695   0.385   6.187   2.663 -1.9212  0.3085  0.4872
  546MOL0     H73696   0.067   6.414   2.496 -0.9754  1.2005 -0.1774
  546MOL0     H73697  -0.152   6.522   2.478  0.7604 -0.8411  3.1570
  546MOL0     H73698  -0.518   6.335   2.602 -1.5926 -1.0519 -0.8910
  546MOL0     H73699  -0.502   6.254   2.455 -1.1320 -1.2025  3.4944
  546MOL0     H73700  -0.605   6.541   2.506  2.7383 -0.8038  1.2852
  546MOL0     H73701  -0.702   6.401   2.507 -0.7017 -3.5997 -2.8852
  546MOL0     H73702  -0.691   6.358   2.270  2.9133 -0.2349 -2.5862
  546MOL0     H73703  -0.557   6.472   2.257 -0.7227  1.5898 -0.0374
  546MOL0     H73704  -0.847   6.538   2.335 -0.2153 -2.0820 -1.1780
  546MOL0     H73705  -0.715   6.655   2.341  3.2289 -1.5754 -0.2522
  546MOL0     H73706  -0.840   6.693   1.955 -1.4496  1.0667  1.3430
  546MOL0     H73707  -0.335   6.131   2.526  1.0383 -1.5518  0.9901
  546MOL0     H73708  -0.087   5.988   2.690  1.1894 -0.0220 -0.0298
  546MOL0     H73709  -0.221   5.946   2.584  2.0416 -3.6176  0.2366
  546MOL0     H73710  -0.064   5.955   2.510  1.4438 -0.2078  0.8472
  547MOL0     O73711   9.569  11.395   8.423 -0.5473 -0.0713  0.1058
  547MOL0     C73712   9.597  11.511   8.395 -0.3638 -0.3440 -0.4308
  547MOL0     O73713   9.705  11.552   8.321 -0.2038  0.1687  0.4405
  547MOL0     C73714   9.794  11.452   8.289  0.3074 -0.3655  1.0537
  547MOL0     C73715   9.877  11.399   8.385 -0.6068  0.2299  0.7262
  547MOL0     C73716   9.965  11.297   8.347  0.7383  0.4928  0.2559
  547MOL0     C73717   9.971  11.244   8.217  0.4951  0.2659  0.3086
  547MOL0     O73718  10.056  11.143   8.176 -0.3978  0.3079 -0.5868
  547MOL0     C73719  10.145  11.083   8.284  0.2873  0.3141 -0.1811
  547MOL0     C73720  10.272  10.999   8.224  0.3463 -0.8247 -0.2108
  547MOL0     C73721  10.247  10.860   8.187  0.4856  0.5854 -0.9665
  547MOL0     C73722  10.384  10.782   8.177  0.0700  0.1579 -0.2002
  547MOL0     C73723  10.456  10.788   8.044 -0.2039  0.3504 -0.4452
  547MOL0     C73724  10.520  10.649   8.004  0.5437 -0.6775 -0.3852
  547MOL0     C73725  10.598  10.581   8.123  0.9552 -0.4431 -0.2133
  547MOL0     C73726  10.731  10.520   8.081  0.5135 -0.0602  0.1040
  547MOL0     N73727  10.811  10.614   8.007 -0.6954 -0.7927  0.0505
  547MOL0     C73728  10.884  10.729   8.053  0.4251 -0.1519  0.1229
  547MOL0     C73729  10.962  10.758   7.945  0.0650 -0.4659  0.6416
  547MOL0     C73730  11.063  10.870   7.943 -0.3063 -0.5383  0.2223
  547MOL0     C73731  11.203  10.809   7.943  0.7648 -0.9528 -0.4831
  547MOL0     C73732  11.301  10.918   7.908 -0.9849 -0.4868 -1.1105
  547MOL0     C73733  11.448  10.867   7.906  0.0413  0.1925 -0.0601
  547MOL0     O73734  11.533  10.976   7.859  0.6494  0.5146 -0.2383
  547MOL0     C73735  11.576  11.075   7.936  0.1824  0.0572  0.9865
  547MOL0     C73736  11.524  11.108   8.058  0.5629 -1.3049  0.2888
  547MOL0     C73737  11.583  11.207   8.130  1.1722 -1.0003  0.6755
  547MOL0     C73738  11.684  11.289   8.081  0.2040  0.2327  0.7099
  547MOL0     C73739  11.735  11.404   8.157 -0.4853 -0.2491 -0.7535
  547MOL0     O73740  11.795  11.505   8.088  0.3275  0.9544 -0.7228
  547MOL0     C73741  11.800  11.636   8.138  0.2201  0.3644  0.5099
  547MOL0     C73742  11.705  11.730   8.095 -0.6186  0.2180 -0.6283
  547MOL0     C73743  11.712  11.862   8.142  0.6234 -0.0032  0.8523
  547MOL0     C73744  11.811  11.898   8.232  0.1443  0.6052  1.0948
  547MOL0     O73745  11.822  12.023   8.273  0.2568 -0.3054 -0.6898
  547MOL0     C73746  11.919  12.091   8.200 -0.7602  0.6924 -0.4544
  547MOL0     C73747  11.872  12.221   8.142 -0.3915 -0.9169  0.1782
  547MOL0     C73748  11.764  12.204   8.043  0.4210 -0.7443 -0.2073
  547MOL0     C73749  11.729  12.342   7.981 -0.7521  0.2472 -0.3776
  547MOL0     C73750  11.602  12.340   7.900 -0.3587  0.4427  0.1138
  547MOL0     C73751  11.635  12.408   7.764  0.9476 -0.4005  0.0214
  547MOL0     C73752  11.511  12.396   7.677 -0.1605  0.2993 -0.7971
  547MOL0     C73753  11.530  12.391   7.531  0.4570  0.0059  0.2146
  547MOL0    Cl73754  11.358  12.379   7.456 -0.1815 -0.6855 -0.0128
  547MOL0     C73755  11.910  11.804   8.270 -0.9201  0.2337 -0.0216
  547MOL0     C73756  11.910  11.673   8.225  0.6004  0.1893  0.0988
  547MOL0     O73757  11.716  11.407   8.275  0.2978  0.5053  0.4513
  547MOL0     C73758  11.740  11.253   7.962 -0.5418  0.0582  1.0157
  547MOL0     C73759  11.689  11.145   7.883  0.3561  0.2152 -0.1598
  547MOL0     N73760  10.951  10.664   7.847 -0.0485  0.9528 -0.8248
  547MOL0     N73761  10.853  10.588   7.879 -0.8036  0.0856 -0.3339
  547MOL0     C73762   9.882  11.293   8.122 -0.1671  0.2179  0.0909
  547MOL0     C73763   9.803  11.400   8.155 -0.2798  0.2821 -0.3814
  547MOL0     C73764   9.512  11.616   8.439  0.6902 -0.0671  0.5360
  547MOL0     C73765   9.514  11.741   8.369 -0.2102 -0.9134  0.3511
  547MOL0     C73766   9.444  11.850   8.403  0.9221 -0.0262 -0.4137
  547MOL0     C73767   9.357  11.850   8.521  0.5729  0.5370  0.6741
  547MOL0     O73768   9.303  11.969   8.564 -0.2412  1.0871 -0.1989
  547MOL0     C73769   9.241  12.035   8.451 -0.3807 -0.0095  0.2872
  547MOL0     C73770   9.131  12.139   8.496 -0.7004 -1.2667 -0.2828
  547MOL0     C73771   9.051  12.201   8.383  0.4363 -0.5073  0.6138
  547MOL0     C73772   8.940  12.295   8.427 -0.9051 -0.6830  1.2120
  547MOL0     C73773   8.869  12.334   8.308  0.2918  0.2752  0.2111
  547MOL0     C73774   8.826  12.342   8.197 -0.3947 -0.5516  0.6066
  547MOL0     C73775   9.330  11.716   8.576 -0.2582 -0.3874 -0.6657
  547MOL0     C73776   9.414  11.607   8.538  0.4470 -0.2399  0.2041
  547MOL0     C73777   9.388  11.481   8.609  0.4453  0.2256 -0.0873
  547MOL0     H73778   9.876  11.436   8.487  0.7633  1.0428  0.4790
  547MOL0     H73779  10.024  11.261   8.430 -3.1949  0.1029  3.1920
  547MOL0     H73780  10.191  11.161   8.344  2.5985  0.5163 -2.0555
  547MOL0     H73781  10.088  11.020   8.353 -0.3204 -1.7013 -2.3477
  547MOL0     H73782  10.332  11.013   8.315 -3.2829 -0.7698  2.3847
  547MOL0     H73783  10.320  11.051   8.140  0.7377 -2.1836 -0.8551
  547MOL0     H73784  10.205  10.856   8.086  1.3498 -3.6244 -1.3322
  547MOL0     H73785  10.186  10.805   8.260  2.6703  1.6200  1.8552
  547MOL0     H73786  10.454  10.794   8.260  0.2857 -1.2490 -0.1490
  547MOL0     H73787  10.352  10.677   8.178  1.6118 -0.6158 -4.8453
  547MOL0     H73788  10.387  10.829   7.970 -3.2488 -0.7347  1.5569
  547MOL0     H73789  10.539  10.859   8.053 -0.7665  1.0954 -1.0546
  547MOL0     H73790  10.441  10.579   7.976  0.2508 -0.8224  0.7652
  547MOL0     H73791  10.587  10.681   7.924  0.0449 -1.0953 -0.9758
  547MOL0     H73792  10.534  10.497   8.151  2.5641 -1.5997  0.1484
  547MOL0     H73793  10.618  10.647   8.208 -2.5686 -1.4437  1.5864
  547MOL0     H73794  10.779  10.476   8.170  1.0890 -1.7155 -0.9699
  547MOL0     H73795  10.692  10.433   8.027 -2.4234  0.0941  1.7636
  547MOL0     H73796  10.887  10.792   8.142  1.4397  1.4048 -0.9598
  547MOL0     H73797  11.034  10.936   7.861  1.0429 -0.1505  0.0309
  547MOL0     H73798  11.049  10.928   8.035  2.4854 -0.2624  0.5756
  547MOL0     H73799  11.230  10.782   8.045 -3.1728  2.7327  1.8598
  547MOL0     H73800  11.207  10.721   7.877  1.1328 -1.8079  0.6573
  547MOL0     H73801  11.295  10.995   7.985 -1.4314 -0.7483 -0.8809
  547MOL0     H73802  11.286  10.962   7.809  3.1281  0.2614 -1.5831
  547MOL0     H73803  11.454  10.798   7.821  0.9211  0.2493 -0.0490
  547MOL0     H73804  11.476  10.820   8.001 -1.7480 -1.6421 -0.3739
  547MOL0     H73805  11.455  11.044   8.112  2.0074 -2.3654  0.9698
  547MOL0     H73806  11.540  11.218   8.229 -2.1152  0.6866 -0.7715
  547MOL0     H73807  11.619  11.711   8.032 -0.9608  1.0917 -0.4381
  547MOL0     H73808  11.640  11.938   8.114  2.6903  1.8660  0.3608
  547MOL0     H73809  12.006  12.096   8.267  0.7293 -0.0173 -2.2638
  547MOL0     H73810  11.949  12.035   8.111 -0.9198 -0.4723  0.2064
  547MOL0     H73811  11.832  12.295   8.212 -2.8160 -0.8804 -1.1408
  547MOL0     H73812  11.955  12.266   8.086  0.6649 -2.3238  0.5570
  547MOL0     H73813  11.792  12.140   7.959 -2.8089  1.8725 -3.5994
  547MOL0     H73814  11.681  12.155   8.095 -0.9223  0.9839 -0.6713
  547MOL0     H73815  11.808  12.373   7.911 -1.3435 -0.6765 -1.4916
  547MOL0     H73816  11.729  12.426   8.051 -1.8219  0.1752 -0.2721
  547MOL0     H73817  11.511  12.366   7.955 -1.4968 -0.3466 -1.3210
  547MOL0     H73818  11.587  12.234   7.876  0.6801  0.3566 -0.2113
  547MOL0     H73819  11.657  12.512   7.788 -0.9729 -0.2219  1.2680
  547MOL0     H73820  11.722  12.365   7.714  0.2348 -0.3492 -1.3069
  547MOL0     H73821  11.446  12.483   7.693 -0.0784 -0.1694  3.0203
  547MOL0     H73822  11.447  12.310   7.698  0.4223  0.4321  1.7962
  547MOL0     H73823  11.580  12.482   7.497  1.3096 -1.3402 -2.3910
  547MOL0     H73824  11.598  12.306   7.530  0.4537 -0.2684  4.2905
  547MOL0     H73825  11.986  11.851   8.333 -3.9410  4.1729  1.1202
  547MOL0     H73826  11.989  11.609   8.264  0.0072  1.0428  2.9542
  547MOL0     H73827  11.829  11.304   7.926  0.9498 -2.1914  1.3457
  547MOL0     H73828  11.721  11.116   7.783 -3.0778 -1.2406 -1.0110
  547MOL0     H73829   9.879  11.267   8.016 -1.2242 -1.7558  0.5460
  547MOL0     H73830   9.739  11.448   8.081 -0.4013  0.8913  0.1053
  547MOL0     H73831   9.568  11.757   8.276 -0.4458  1.0208  0.5164
  547MOL0     H73832   9.452  11.944   8.349  0.0260  0.0621 -0.3972
  547MOL0     H73833   9.193  11.956   8.392  2.5137 -0.8160 -1.1209
  547MOL0     H73834   9.316  12.084   8.389  1.4822 -2.4332  0.4927
  547MOL0     H73835   9.193  12.221   8.535 -0.3559  1.0651 -5.0014
  547MOL0     H73836   9.066  12.082   8.562  2.9346 -6.3774 -0.5415
  547MOL0     H73837   9.003  12.117   8.332  0.6782 -0.3729  0.1644
  547MOL0     H73838   9.122  12.253   8.318  0.8805  0.9100  2.1435
  547MOL0     H73839   8.873  12.243   8.496  1.4461 -1.9908  2.6446
  547MOL0     H73840   8.980  12.385   8.475 -2.3197  0.7636 -0.1814
  547MOL0     H73841   8.776  12.353   8.102  0.9447  1.7620  0.0903
  547MOL0     H73842   9.260  11.708   8.658  1.4515 -0.1445  0.8813
  547MOL0     H73843   9.380  11.386   8.556  1.2740  0.0393  0.1086
  547MOL0     H73844   9.471  11.452   8.675 -0.2687 -2.9534 -0.4153
  547MOL0     H73845   9.291  11.490   8.660  1.3196  0.6577  1.5878
  548MOL0     O73846   1.308  10.599   5.075  0.1759  0.0036 -0.5884
  548MOL0     C73847   1.318  10.716   5.044 -0.5868 -0.0706 -0.3191
  548MOL0     O73848   1.262  10.769   4.940  0.5467  0.3590  0.3344
  548MOL0     C73849   1.192  10.679   4.859  0.6922 -0.4258  0.0743
  548MOL0     C73850   1.249  10.630   4.743  0.3635  0.4897  1.0712
  548MOL0     C73851   1.178  10.544   4.652 -0.2655 -0.4491 -0.0449
  548MOL0     C73852   1.039  10.527   4.678 -0.4354 -0.0418 -0.2601
  548MOL0     O73853   0.958  10.440   4.621  0.0196  1.3523  0.2904
  548MOL0     C73854   1.011  10.366   4.513  0.2650 -0.1950 -0.1644
  548MOL0     C73855   0.892  10.281   4.470 -0.4770  0.2714 -0.2412
  548MOL0     C73856   0.877  10.283   4.316 -0.2572 -0.1561 -0.6337
  548MOL0     C73857   0.764  10.192   4.274  0.0902  0.0146  1.0410
  548MOL0     C73858   0.747  10.184   4.121  0.3338  0.3939  0.6948
  548MOL0     C73859   0.624  10.093   4.090 -0.4939  0.1363 -1.1018
  548MOL0     C73860   0.590  10.080   3.936  0.0292 -0.4816 -0.9837
  548MOL0     C73861   0.716  10.031   3.866  0.4634 -0.2914  0.0846
  548MOL0     N73862   0.675  10.001   3.721 -0.6286 -0.2987  0.5122
  548MOL0     C73863   0.567   9.925   3.669  0.1736 -0.5983  0.0649
  548MOL0     C73864   0.563   9.974   3.546 -0.3801  0.6365  0.8353
  548MOL0     C73865   0.461   9.930   3.449  0.1334 -0.6006  0.4403
  548MOL0     C73866   0.422   9.775   3.457 -1.0826 -0.0862 -0.2599
  548MOL0     C73867   0.346   9.741   3.329  0.8855 -0.2426 -0.0109
  548MOL0     C73868   0.199   9.787   3.329  0.4185  0.8501  0.2002
  548MOL0     O73869   0.122   9.750   3.442 -0.1890 -0.6894 -0.0116
  548MOL0     C73870   0.096   9.614   3.459 -0.0174  0.5536  0.8485
  548MOL0     C73871   0.121   9.564   3.591  0.7260  0.4166  0.3490
  548MOL0     C73872   0.110   9.423   3.609 -0.2261 -0.5678  0.0298
  548MOL0     C73873   0.089   9.338   3.503  0.6755  0.1989  0.4248
  548MOL0     C73874   0.105   9.190   3.521  0.4225 -0.4587 -0.0602
  548MOL0     O73875   0.108   9.135   3.649  0.1810 -0.5044 -0.1511
  548MOL0     C73876   0.124   9.001   3.683  0.3620 -0.2225 -0.1501
  548MOL0     C73877   0.041   8.941   3.783  0.2970 -0.1205  0.4894
  548MOL0     C73878   0.069   8.804   3.820 -0.2309  0.2661 -0.1052
  548MOL0     C73879   0.176   8.730   3.764 -0.0131  0.4953  0.8202
  548MOL0     O73880   0.216   8.609   3.808  0.2285 -0.3585  0.2662
  548MOL0     C73881   0.277   8.598   3.939  0.9129  0.5899 -0.5322
  548MOL0     C73882   0.346   8.464   3.950  0.5421  0.2157 -0.5415
  548MOL0     C73883   0.409   8.441   4.088 -0.1012  0.0184 -0.2852
  548MOL0     C73884   0.316   8.463   4.205 -1.0787  0.8558 -0.6369
  548MOL0     C73885   0.345   8.367   4.329 -0.3971  0.1097  0.3153
  548MOL0     C73886   0.490   8.395   4.376 -0.7704 -0.8824  0.5376
  548MOL0     C73887   0.518   8.337   4.508  0.3658  0.0484 -0.6130
  548MOL0     C73888   0.660   8.306   4.528  0.2872  0.3854 -0.1203
  548MOL0    Cl73889   0.760   8.447   4.496 -0.4472 -0.4902  0.0773
  548MOL0     C73890   0.263   8.799   3.680 -0.0943 -0.6248  0.1383
  548MOL0     C73891   0.226   8.925   3.633 -0.0754  0.3824 -0.1438
  548MOL0     O73892   0.130   9.125   3.423  0.0572  0.7352  0.6266
  548MOL0     C73893   0.065   9.388   3.374 -0.4955 -1.0538  0.9551
  548MOL0     C73894   0.057   9.529   3.352  0.1416 -0.3780 -0.0196
  548MOL0     N73895   0.663  10.070   3.525 -0.2530 -0.3091 -0.3917
  548MOL0     N73896   0.730  10.078   3.630 -0.1904 -0.1218 -0.0240
  548MOL0     C73897   0.989  10.570   4.803  0.6130  0.6397  0.1202
  548MOL0     C73898   1.061  10.652   4.893 -0.7682 -0.0895 -0.9799
  548MOL0     C73899   1.421  10.794   5.120  0.2185 -0.7010  0.3908
  548MOL0     C73900   1.447  10.925   5.071  0.3931 -0.7066  0.5413
  548MOL0     C73901   1.532  11.009   5.140 -0.1282 -0.4266 -0.0361
  548MOL0     C73902   1.608  10.976   5.253 -0.4822  0.4174 -0.1985
  548MOL0     O73903   1.698  11.065   5.290 -0.1679 -1.0223  0.3124
  548MOL0     C73904   1.815  11.013   5.358  0.6202  0.0556  0.3688
  548MOL0     C73905   1.922  11.120   5.355 -0.8942 -0.8761 -0.3267
  548MOL0     C73906   2.047  11.074   5.438  0.2533  0.1740 -0.1596
  548MOL0     C73907   2.099  11.192   5.526  0.5701  0.0030 -0.8986
  548MOL0     C73908   2.208  11.145   5.603  0.5519 -0.7200 -0.4525
  548MOL0     C73909   2.305  11.112   5.672  0.9587  0.2683  0.8190
  548MOL0     C73910   1.564  10.855   5.311 -0.7187  0.1738 -0.3903
  548MOL0     C73911   1.476  10.764   5.250  0.4554 -0.3296  0.7362
  548MOL0     C73912   1.439  10.636   5.326  0.2790 -0.1425 -0.8049
  548MOL0     H73913   1.349  10.670   4.733 -0.1432  1.5901  0.2118
  548MOL0     H73914   1.233  10.506   4.567  0.4363 -1.5453  0.8682
  548MOL0     H73915   1.055  10.425   4.434  2.0706 -3.6376 -1.9680
  548MOL0     H73916   1.087  10.298   4.554 -2.5572 -2.7060  1.3731
  548MOL0     H73917   0.797  10.320   4.508 -1.1178 -2.1442  0.8146
  548MOL0     H73918   0.901  10.181   4.513  1.2274  1.1923  1.7277
  548MOL0     H73919   0.972  10.251   4.274 -1.5363 -0.6794 -3.3856
  548MOL0     H73920   0.867  10.387   4.282  2.4615  0.4280  0.1880
  548MOL0     H73921   0.787  10.087   4.298 -1.2034 -0.6155 -0.3213
  548MOL0     H73922   0.669  10.207   4.325  0.2479 -3.9231  2.8617
  548MOL0     H73923   0.727  10.280   4.072 -2.2098 -0.3065  0.2134
  548MOL0     H73924   0.835  10.133   4.080 -1.0296 -0.9498 -0.7202
  548MOL0     H73925   0.645   9.995   4.133 -3.0446  0.0642  0.1945
  548MOL0     H73926   0.530  10.125   4.137  1.5146  1.3975  2.4126
  548MOL0     H73927   0.564  10.178   3.895  2.5547  0.5247 -0.3852
  548MOL0     H73928   0.509  10.007   3.929 -1.0188 -0.3380  4.7372
  548MOL0     H73929   0.795  10.107   3.865 -0.1802  0.4196 -1.9516
  548MOL0     H73930   0.759   9.949   3.923  0.5298  0.3715  1.0143
  548MOL0     H73931   0.496   9.859   3.716 -0.4907 -0.1234 -0.2614
  548MOL0     H73932   0.364   9.979   3.457  0.9899  1.2279  0.3301
  548MOL0     H73933   0.498   9.965   3.352  1.0060  1.3021  1.3883
  548MOL0     H73934   0.505   9.710   3.485 -3.7217 -4.3393 -1.3253
  548MOL0     H73935   0.360   9.761   3.546 -0.9275 -5.6092 -0.6869
  548MOL0     H73936   0.339   9.632   3.323  1.1422 -0.4148  2.0792
  548MOL0     H73937   0.388   9.786   3.238  1.2476 -2.0342 -0.7671
  548MOL0     H73938   0.158   9.759   3.232  0.3618 -3.2997  1.2330
  548MOL0     H73939   0.214   9.895   3.329 -1.8690  1.2310 -0.6653
  548MOL0     H73940   0.128   9.629   3.678 -0.9614  0.6606  0.3521
  548MOL0     H73941   0.118   9.382   3.709  2.2320  1.5906  0.8179
  548MOL0     H73942  -0.035   9.004   3.827 -1.5930  0.4059 -3.1617
  548MOL0     H73943  -0.004   8.752   3.882 -0.4892  1.7493  0.8921
  548MOL0     H73944   0.356   8.674   3.946  0.8673  0.4753  2.7638
  548MOL0     H73945   0.193   8.614   4.008  0.3366  1.8670 -1.4916
  548MOL0     H73946   0.275   8.383   3.936 -1.2589  1.5133  0.5838
  548MOL0     H73947   0.426   8.460   3.875  0.5538  3.0876 -0.8216
  548MOL0     H73948   0.444   8.337   4.082 -0.0915  0.0647 -1.2753
  548MOL0     H73949   0.493   8.503   4.117 -0.2710 -0.0778  0.4181
  548MOL0     H73950   0.216   8.427   4.180 -1.4064  1.8915 -0.8928
  548MOL0     H73951   0.314   8.568   4.236  1.5982  0.5749  0.7759
  548MOL0     H73952   0.336   8.265   4.290  0.4794  0.7592 -1.7321
  548MOL0     H73953   0.282   8.369   4.418 -1.4200  1.8448 -0.3952
  548MOL0     H73954   0.568   8.370   4.304  0.8527  2.1235  1.1055
  548MOL0     H73955   0.492   8.503   4.392 -2.7227 -0.6012 -0.7530
  548MOL0     H73956   0.464   8.241   4.509  0.1091  0.1705 -1.5797
  548MOL0     H73957   0.477   8.407   4.581  1.1021  0.0697 -0.2072
  548MOL0     H73958   0.681   8.270   4.629  1.0671 -0.8290 -0.6956
  548MOL0     H73959   0.695   8.225   4.463 -0.0361  0.6305 -0.6020
  548MOL0     H73960   0.360   8.759   3.652  0.9974  0.9176  1.4973
  548MOL0     H73961   0.287   8.972   3.556 -1.6013  1.1463 -0.9256
  548MOL0     H73962   0.049   9.325   3.288 -2.0458 -0.7012  0.9550
  548MOL0     H73963   0.050   9.561   3.248 -0.6152 -1.1799 -0.2225
  548MOL0     H73964   0.884  10.557   4.826 -0.8379  4.1169 -3.4280
  548MOL0     H73965   1.014  10.688   4.983  0.0275  2.0160 -1.3466
  548MOL0     H73966   1.400  10.951   4.977  0.1599 -0.2779  0.7732
  548MOL0     H73967   1.561  11.106   5.101 -2.6954  0.7837  0.8604
  548MOL0     H73968   1.864  10.931   5.304  1.6616  0.3226  0.8803
  548MOL0     H73969   1.796  10.977   5.460 -0.9533  2.4138  0.9788
  548MOL0     H73970   1.877  11.212   5.393  1.5156  0.7836 -1.2230
  548MOL0     H73971   1.953  11.146   5.253  0.9017  0.4143  0.4897
  548MOL0     H73972   2.122  11.055   5.360  0.3264 -0.7054  0.1160
  548MOL0     H73973   2.022  10.980   5.489 -2.3359  2.5167  3.2939
  548MOL0     H73974   2.123  11.279   5.464  3.2292  2.4536  3.0834
  548MOL0     H73975   2.016  11.220   5.591 -0.8285 -2.1873 -1.6534
  548MOL0     H73976   2.389  11.097   5.736  0.3432 -0.7327  1.4040
  548MOL0     H73977   1.607  10.825   5.406  1.3872  0.6043 -1.1667
  548MOL0     H73978   1.477  10.543   5.282 -1.0216 -0.2970 -1.6574
  548MOL0     H73979   1.472  10.651   5.429 -3.4153  1.2708  0.3478
  548MOL0     H73980   1.330  10.626   5.336 -0.2180  2.9949 -1.8753
  549MOL0     O73981   2.845   8.231   8.794 -0.0565 -0.7982  0.3327
  549MOL0     C73982   2.732   8.261   8.828 -0.4769 -0.0060  0.5628
  549MOL0     O73983   2.687   8.387   8.820 -0.1018  0.0957 -0.1189
  549MOL0     C73984   2.783   8.484   8.817 -1.0656  0.6048  0.4566
  549MOL0     C73985   2.786   8.585   8.909 -0.0922 -0.1587 -0.2202
  549MOL0     C73986   2.874   8.693   8.910 -0.2422  0.7578 -0.0993
  549MOL0     C73987   2.969   8.699   8.804 -0.0278 -0.6314  0.1162
  549MOL0     O73988   3.045   8.809   8.789  0.5154  0.4933 -0.3639
  549MOL0     C73989   3.160   8.808   8.883 -0.6440 -1.0754  0.3201
  549MOL0     C73990   3.272   8.895   8.837 -0.3381 -0.0376 -0.3954
  549MOL0     C73991   3.245   9.045   8.832 -0.5677  0.3881  0.3523
  549MOL0     C73992   3.341   9.129   8.889 -0.3397  0.6968  0.3891
  549MOL0     C73993   3.301   9.281   8.887  0.5957  0.8452  0.5845
  549MOL0     C73994   3.421   9.367   8.939 -0.3193 -0.3143 -0.4440
  549MOL0     C73995   3.388   9.516   8.926  0.3341 -0.5225  0.4887
  549MOL0     C73996   3.499   9.598   8.990 -0.4020 -0.5266  0.2667
  549MOL0     N73997   3.462   9.742   8.995  0.5208 -0.1908  0.7576
  549MOL0     C73998   3.471   9.817   9.112  0.0739  0.0826 -0.3654
  549MOL0     C73999   3.409   9.931   9.070 -0.0167 -1.1753 -1.0215
  549MOL0     C74000   3.375  10.037   9.172 -0.7191  0.4730 -0.2020
  549MOL0     C74001   3.262   9.998   9.269 -0.2728  0.2841 -0.3891
  549MOL0     C74002   3.147   9.950   9.185  0.5900  0.2136  0.6000
  549MOL0     C74003   3.105  10.030   9.054  0.4188 -0.7644 -0.4994
  549MOL0     O74004   3.107  10.169   9.096 -0.3858 -0.3919  0.0626
  549MOL0     C74005   3.146  10.257   8.997 -0.4170 -0.1461 -0.0672
  549MOL0     C74006   3.166  10.385   9.052 -0.8836 -0.6214 -0.5636
  549MOL0     C74007   3.204  10.496   8.974 -0.0114 -0.5061  0.3749
  549MOL0     C74008   3.230  10.489   8.844 -0.9266 -0.4430  0.3746
  549MOL0     C74009   3.290  10.595   8.762 -1.1239 -1.2500  0.4888
  549MOL0     O74010   3.274  10.724   8.792  0.1058  0.4882  0.4059
  549MOL0     C74011   3.351  10.808   8.726 -0.6795  0.0188 -0.9913
  549MOL0     C74012   3.294  10.898   8.638 -0.3811  0.9377  0.1025
  549MOL0     C74013   3.369  11.011   8.598  0.5983  0.1495 -1.6500
  549MOL0     C74014   3.506  11.021   8.638  0.7376  0.0698  0.8498
  549MOL0     O74015   3.570  11.128   8.588 -0.4353 -0.0636 -0.1985
  549MOL0     C74016   3.578  11.147   8.448 -0.7572 -0.1713 -0.2657
  549MOL0     C74017   3.681  11.252   8.407 -0.2938 -0.9494  0.5506
  549MOL0     C74018   3.680  11.291   8.259  0.4005 -0.2622  0.2699
  549MOL0     C74019   3.788  11.361   8.181  0.2222  0.6489 -0.2729
  549MOL0     C74020   3.741  11.378   8.034 -0.6330  0.3339  0.5315
  549MOL0     C74021   3.858  11.421   7.945  0.6976 -0.2363  0.1086
  549MOL0     C74022   3.908  11.561   7.989  0.4050 -0.6509  0.0014
  549MOL0     C74023   4.013  11.620   7.904  0.6585 -0.2164 -0.2223
  549MOL0    Cl74024   4.013  11.791   7.958 -0.2297 -0.3368  0.1223
  549MOL0     C74025   3.556  10.928   8.730 -0.5234  0.5999 -0.1910
  549MOL0     C74026   3.481  10.828   8.765 -0.7214 -0.5673 -0.1630
  549MOL0     O74027   3.355  10.557   8.666  0.6202  0.1622  0.3807
  549MOL0     C74028   3.200  10.361   8.783 -0.8795  0.1717  0.8853
  549MOL0     C74029   3.165  10.246   8.856 -0.3067  0.3024 -0.4167
  549MOL0     N74030   3.377   9.924   8.934  0.2777  0.3895  0.4499
  549MOL0     N74031   3.401   9.810   8.892 -0.9699  0.0395 -0.5594
  549MOL0     C74032   2.963   8.607   8.704  0.7650  0.7057  0.3775
  549MOL0     C74033   2.864   8.509   8.702 -0.8708 -0.9144  0.3601
  549MOL0     C74034   2.641   8.149   8.864 -0.0137  0.3848  1.1956
  549MOL0     C74035   2.511   8.167   8.852 -0.8615 -0.1177  0.7903
  549MOL0     C74036   2.429   8.071   8.893  0.1129  0.8889 -0.0340
  549MOL0     C74037   2.469   7.943   8.951  0.4933 -0.2620 -0.2086
  549MOL0     O74038   2.382   7.843   9.003 -0.2028  0.3442  0.3706
  549MOL0     C74039   2.241   7.870   9.006 -0.3264 -0.8641 -0.1186
  549MOL0     C74040   2.203   7.973   9.117 -0.2310  0.0163  0.3728
  549MOL0     C74041   2.054   7.957   9.161 -1.5120  0.7286  0.2787
  549MOL0     C74042   2.016   8.066   9.259  0.3192 -0.5798  0.2297
  549MOL0     C74043   1.886   8.138   9.233  0.1794 -0.2676 -0.2766
  549MOL0     C74044   1.785   8.202   9.212 -0.4767 -0.5123  0.0984
  549MOL0     C74045   2.612   7.920   8.952 -0.2821 -0.1596 -0.5988
  549MOL0     C74046   2.692   8.032   8.922  0.5342  0.1443  0.0431
  549MOL0     C74047   2.843   7.999   8.952  0.2486  0.5194 -0.4632
  549MOL0     H74048   2.733   8.577   9.004  1.5315 -1.5252  0.6189
  549MOL0     H74049   2.881   8.773   8.983 -0.9966  0.6839  0.0572
  549MOL0     H74050   3.133   8.834   8.985  1.1285 -3.0759  1.3837
  549MOL0     H74051   3.206   8.708   8.889  3.4945  0.6873  1.9850
  549MOL0     H74052   3.321   8.865   8.744  1.0738  0.6391  0.1071
  549MOL0     H74053   3.344   8.877   8.917 -1.7712 -0.1900  0.9159
  549MOL0     H74054   3.154   9.075   8.885 -0.5221  1.8560 -0.3480
  549MOL0     H74055   3.240   9.092   8.733 -0.4540  2.5768  1.3328
  549MOL0     H74056   3.360   9.108   8.994 -0.9582 -1.6912  0.0734
  549MOL0     H74057   3.434   9.124   8.832 -0.2990  0.2835  0.4948
  549MOL0     H74058   3.284   9.313   8.783  2.1436  2.1521  0.6887
  549MOL0     H74059   3.205   9.286   8.939 -1.0281 -2.6060 -1.6969
  549MOL0     H74060   3.447   9.348   9.043  2.1038  0.4785 -0.8486
  549MOL0     H74061   3.515   9.336   8.892 -0.1649  1.7203 -1.5576
  549MOL0     H74062   3.299   9.539   8.985  0.5507 -1.0245  1.0201
  549MOL0     H74063   3.369   9.554   8.825  2.3530 -2.4558 -0.7201
  549MOL0     H74064   3.494   9.574   9.096 -0.4147 -1.3256  0.0933
  549MOL0     H74065   3.599   9.584   8.948  0.5159  0.8648  1.8762
  549MOL0     H74066   3.502   9.796   9.214  2.5960  1.8204 -0.6925
  549MOL0     H74067   3.468  10.056   9.228 -0.4430 -2.2016  0.3550
  549MOL0     H74068   3.357  10.133   9.123  0.9331  0.4564 -0.9141
  549MOL0     H74069   3.292   9.919   9.338 -4.4311 -1.0315  0.2051
  549MOL0     H74070   3.229  10.084   9.326  1.8353  0.7200  0.2664
  549MOL0     H74071   3.056   9.936   9.245 -1.1208  2.3875 -1.2912
  549MOL0     H74072   3.183   9.853   9.149 -0.1487  0.9757 -2.4881
  549MOL0     H74073   2.998  10.006   9.051  0.8560 -3.8114  2.4078
  549MOL0     H74074   3.150  10.005   8.958 -0.9293 -1.2007 -1.0450
  549MOL0     H74075   3.156  10.407   9.158  0.0814  0.5204 -0.6936
  549MOL0     H74076   3.203  10.583   9.038  1.0994 -1.6560  2.0627
  549MOL0     H74077   3.197  10.875   8.595  0.3626 -0.1081 -1.0726
  549MOL0     H74078   3.328  11.077   8.523  0.4948  2.9715  0.6996
  549MOL0     H74079   3.606  11.061   8.386 -3.9043 -0.4637 -1.4609
  549MOL0     H74080   3.478  11.173   8.413 -0.0330  2.9425 -0.3257
  549MOL0     H74081   3.665  11.340   8.469  1.2144 -1.2821  1.4654
  549MOL0     H74082   3.779  11.215   8.437 -1.3199 -3.4986  1.0626
  549MOL0     H74083   3.674  11.195   8.208  0.5780 -0.7337  1.1181
  549MOL0     H74084   3.593  11.358   8.250  0.6792  0.5359  2.6313
  549MOL0     H74085   3.870  11.289   8.193  2.5940  3.5643  3.3481
  549MOL0     H74086   3.815  11.454   8.233 -1.6639  1.4647 -0.6648
  549MOL0     H74087   3.659  11.449   8.028 -2.2540 -1.3849  1.4523
  549MOL0     H74088   3.693  11.289   7.995  0.9363 -0.3137 -0.0240
  549MOL0     H74089   3.937  11.346   7.944  1.0569  0.0963 -2.5899
  549MOL0     H74090   3.825  11.425   7.841  4.4545  1.0125 -1.1868
  549MOL0     H74091   3.959  11.556   8.086 -0.5507  0.2336  0.5669
  549MOL0     H74092   3.823  11.627   8.006  0.7977 -0.2153  0.3168
  549MOL0     H74093   4.111  11.572   7.903  1.4862  1.4057 -0.6657
  549MOL0     H74094   3.980  11.622   7.800  2.0191 -1.7159 -0.7122
  549MOL0     H74095   3.649  10.961   8.775  0.5240  0.3992 -2.0955
  549MOL0     H74096   3.516  10.758   8.840 -0.4280 -0.6123 -0.3418
  549MOL0     H74097   3.218  10.348   8.677  2.0553 -2.4836  1.5344
  549MOL0     H74098   3.150  10.149   8.809  0.4299  0.0513 -0.1483
  549MOL0     H74099   3.046   8.623   8.635  1.9378  0.7445  1.7616
  549MOL0     H74100   2.862   8.429   8.628  4.5533  0.2977 -1.5538
  549MOL0     H74101   2.463   8.248   8.798  0.5137 -0.8834 -1.7457
  549MOL0     H74102   2.327   8.108   8.883  0.2085  2.7682  3.9651
  549MOL0     H74103   2.201   7.769   9.019  1.1230 -1.4881 -0.2412
  549MOL0     H74104   2.195   7.906   8.914  1.8263 -1.0971 -1.3655
  549MOL0     H74105   2.227   8.070   9.073  0.2890 -0.6107 -0.7669
  549MOL0     H74106   2.267   7.956   9.204  1.4656  1.1834 -0.5920
  549MOL0     H74107   2.035   7.854   9.191 -0.1964 -0.3053 -2.1670
  549MOL0     H74108   1.990   7.970   9.074 -1.1781 -0.7875 -0.2189
  549MOL0     H74109   2.011   8.016   9.357  2.1972 -1.3017 -0.0048
  549MOL0     H74110   2.100   8.133   9.281  0.3253 -0.6810  0.5198
  549MOL0     H74111   1.695   8.257   9.195 -0.4488 -1.3114 -3.2825
  549MOL0     H74112   2.639   7.830   9.006 -0.0563  0.1049 -0.2686
  549MOL0     H74113   2.878   8.093   8.996 -0.2922  1.0195 -1.0872
  549MOL0     H74114   2.852   7.906   9.009 -2.9686  0.8728  0.8321
  549MOL0     H74115   2.898   7.984   8.859 -1.4801  0.7946 -1.5810
  550MOL0     O74116   8.869   3.003   0.753 -0.7283 -0.3693 -0.0167
  550MOL0     C74117   8.971   3.023   0.801 -0.4621 -0.3888 -0.5581
  550MOL0     O74118   8.994   3.070   0.925  0.0035  0.4307  0.0758
  550MOL0     C74119   8.889   3.109   1.000 -0.6527 -0.3356 -0.8722
  550MOL0     C74120   8.889   3.063   1.132 -0.6832  0.0725  0.3570
  550MOL0     C74121   8.784   3.086   1.211  1.2167  0.1354 -0.5815
  550MOL0     C74122   8.664   3.144   1.162  1.0475 -0.0884 -0.2640
  550MOL0     O74123   8.566   3.149   1.250  0.2438  0.0431  0.5443
  550MOL0     C74124   8.529   3.284   1.276  0.3821  0.0943 -0.9723
  550MOL0     C74125   8.420   3.298   1.374  1.6062 -0.0264 -0.7815
  550MOL0     C74126   8.474   3.261   1.515  0.4428 -0.5130 -0.4606
  550MOL0     C74127   8.356   3.229   1.612 -0.3570 -0.4334 -0.1346
  550MOL0     C74128   8.279   3.365   1.641  0.0531  1.1425 -0.0175
  550MOL0     C74129   8.229   3.350   1.785  0.0843  0.5223  0.0187
  550MOL0     C74130   8.156   3.460   1.838 -0.3010 -0.2033 -1.1900
  550MOL0     C74131   8.146   3.463   1.983  0.4614 -0.0690 -0.4498
  550MOL0     N74132   8.282   3.500   2.041 -0.3727 -0.2938  0.6250
  550MOL0     C74133   8.311   3.631   2.077  0.6479  0.4267  0.3140
  550MOL0     C74134   8.406   3.621   2.166 -0.5196  0.1955  0.0466
  550MOL0     C74135   8.452   3.733   2.253 -0.6658  0.0758  0.0201
  550MOL0     C74136   8.370   3.742   2.388 -0.3856  0.4411 -0.2460
  550MOL0     C74137   8.352   3.606   2.455 -0.8474  0.1981 -0.8334
  550MOL0     C74138   8.486   3.551   2.503  0.2512  0.0720 -0.6337
  550MOL0     O74139   8.481   3.586   2.649  0.1329  0.2923 -0.1872
  550MOL0     C74140   8.559   3.691   2.685  0.4156  0.0722 -0.0843
  550MOL0     C74141   8.696   3.697   2.664  0.2566 -0.2979  1.1009
  550MOL0     C74142   8.774   3.803   2.702  0.8258 -0.5441 -0.2468
  550MOL0     C74143   8.719   3.911   2.783  0.2635  0.3154  0.0047
  550MOL0     C74144   8.793   4.033   2.827 -0.4705  0.1380  0.1713
  550MOL0     O74145   8.728   4.148   2.853  0.0439 -0.0111  0.2953
  550MOL0     C74146   8.794   4.254   2.911 -0.1059 -0.1706  0.5763
  550MOL0     C74147   8.787   4.382   2.849  0.5166 -0.4590  0.6145
  550MOL0     C74148   8.854   4.498   2.901  0.0308  0.6761  0.3604
  550MOL0     C74149   8.917   4.492   3.029  0.5040  0.3674  0.1682
  550MOL0     O74150   8.993   4.597   3.085 -0.4534  0.2399  0.0847
  550MOL0     C74151   8.928   4.673   3.188  0.3341  0.2760  0.8280
  550MOL0     C74152   8.967   4.825   3.171 -0.7305  0.1443  0.6555
  550MOL0     C74153   9.107   4.857   3.225 -0.1646  0.1054  0.5756
  550MOL0     C74154   9.115   5.013   3.231  0.0440  0.0113 -0.4262
  550MOL0     C74155   9.260   5.063   3.271  0.3245  0.5285 -0.0726
  550MOL0     C74156   9.271   5.213   3.279  0.2728  0.0771  0.6765
  550MOL0     C74157   9.407   5.244   3.339  0.4894 -0.6357 -0.4584
  550MOL0     C74158   9.419   5.399   3.315 -0.4511 -0.3035 -0.0696
  550MOL0    Cl74159   9.592   5.432   3.356  0.2838 -0.2924  0.2474
  550MOL0     C74160   8.931   4.362   3.080  0.5907 -1.3082  1.1433
  550MOL0     C74161   8.869   4.249   3.025 -0.3729 -0.3311 -0.3535
  550MOL0     O74162   8.915   4.019   2.845  0.0304  0.6380  0.7805
  550MOL0     C74163   8.579   3.898   2.812 -0.8082 -0.2599 -0.4942
  550MOL0     C74164   8.499   3.791   2.766 -1.3810 -0.6025  0.3504
  550MOL0     N74165   8.412   3.483   2.192 -0.2749  0.8010  0.7567
  550MOL0     N74166   8.345   3.411   2.112  1.0413  0.1112  0.3195
  550MOL0     C74167   8.664   3.199   1.035  0.0851  0.4645  0.0529
  550MOL0     C74168   8.774   3.179   0.950 -0.1346  0.7904 -0.2485
  550MOL0     C74169   9.088   2.986   0.725  1.0563  0.4176  0.2600
  550MOL0     C74170   9.201   3.075   0.720  0.1260 -1.1181 -0.6961
  550MOL0     C74171   9.318   3.060   0.645  0.1887  0.0174 -0.4456
  550MOL0     C74172   9.328   2.940   0.582 -1.1816  0.4574 -0.2480
  550MOL0     O74173   9.440   2.911   0.498 -0.7302 -0.4884  0.4620
  550MOL0     C74174   9.539   2.820   0.557 -0.3752  0.5994  0.0268
  550MOL0     C74175   9.687   2.875   0.535  1.1710  0.2070 -0.9891
  550MOL0     C74176   9.718   2.886   0.386  1.3703  0.3065 -0.4001
  550MOL0     C74177   9.738   3.032   0.344  0.7244 -0.3611 -0.5957
  550MOL0     C74178   9.634   3.127   0.384  0.6468 -0.2123  0.3568
  550MOL0     C74179   9.531   3.192   0.391 -0.5148 -0.1225  0.6513
  550MOL0     C74180   9.226   2.848   0.588  0.2110  0.1968  0.7670
  550MOL0     C74181   9.103   2.865   0.644  0.5075 -0.4252 -0.0120
  550MOL0     C74182   8.996   2.758   0.647  0.5231 -0.9002 -0.6928
  550MOL0     H74183   8.984   3.023   1.167 -0.3278  0.6893  0.1326
  550MOL0     H74184   8.791   3.035   1.306 -0.0071  1.9690  0.5649
  550MOL0     H74185   8.617   3.330   1.322 -0.7867 -0.7290  2.4498
  550MOL0     H74186   8.507   3.340   1.185 -1.8234 -0.9104 -1.1428
  550MOL0     H74187   8.336   3.239   1.340  0.6677  1.5105 -1.2416
  550MOL0     H74188   8.381   3.400   1.378  2.9236  0.4803  1.6742
  550MOL0     H74189   8.553   3.332   1.539  0.1813 -0.1018 -0.8086
  550MOL0     H74190   8.526   3.166   1.502  0.9035 -0.4863  1.0256
  550MOL0     H74191   8.287   3.154   1.574  1.7625 -3.8783  2.2178
  550MOL0     H74192   8.393   3.174   1.699 -0.0938  2.4310  1.6852
  550MOL0     H74193   8.346   3.452   1.636 -0.2018  1.2756 -2.1088
  550MOL0     H74194   8.200   3.373   1.566 -1.4522 -4.1632  0.6406
  550MOL0     H74195   8.167   3.260   1.791  2.3752 -1.0510  1.4675
  550MOL0     H74196   8.317   3.321   1.843  0.6188  1.9957 -0.0058
  550MOL0     H74197   8.058   3.448   1.792  0.7274 -1.5924 -3.1772
  550MOL0     H74198   8.183   3.564   1.819 -1.5613  0.0749 -1.5621
  550MOL0     H74199   8.063   3.533   2.002 -1.4336 -2.0230 -1.0555
  550MOL0     H74200   8.129   3.371   2.041 -1.6761  2.7640  4.0353
  550MOL0     H74201   8.279   3.726   2.034  1.1965 -0.2038 -1.5882
  550MOL0     H74202   8.553   3.702   2.283 -0.2650  1.9158  0.6920
  550MOL0     H74203   8.459   3.826   2.196 -1.0016  0.3344  0.4037
  550MOL0     H74204   8.424   3.804   2.459 -3.0456  0.5541  1.8439
  550MOL0     H74205   8.272   3.787   2.366  0.4597  2.2455 -0.5007
  550MOL0     H74206   8.294   3.529   2.404  3.4653 -1.6676 -3.5412
  550MOL0     H74207   8.290   3.639   2.539  0.0737  4.2555 -1.5151
  550MOL0     H74208   8.574   3.580   2.446  0.7285  0.9776  0.5072
  550MOL0     H74209   8.491   3.442   2.505 -0.2982  0.0509  0.1820
  550MOL0     H74210   8.758   3.614   2.632  0.9879  0.3297  0.8874
  550MOL0     H74211   8.875   3.817   2.666 -0.2867  0.5381 -3.2368
  550MOL0     H74212   8.731   4.389   2.756 -0.5604 -2.1321  1.0969
  550MOL0     H74213   8.862   4.592   2.849 -2.0405 -0.2752 -1.9109
  550MOL0     H74214   8.819   4.673   3.177  0.1679  1.6746  2.1295
  550MOL0     H74215   8.949   4.630   3.286  3.2792 -1.8286 -0.5840
  550MOL0     H74216   8.957   4.851   3.066 -0.2171 -0.0339  0.5574
  550MOL0     H74217   8.896   4.881   3.233  0.8050  2.1229  0.7150
  550MOL0     H74218   9.113   4.823   3.329  1.4027  3.8564  1.8906
  550MOL0     H74219   9.191   4.814   3.169  0.9120  0.5232  1.7973
  550MOL0     H74220   9.039   5.056   3.296 -0.1337  1.4276 -1.5261
  550MOL0     H74221   9.078   5.055   3.137 -0.8244  0.8574  0.2762
  550MOL0     H74222   9.336   5.028   3.201  0.1076  0.1804 -0.1343
  550MOL0     H74223   9.282   5.012   3.365 -1.3579 -1.2263 -0.5677
  550MOL0     H74224   9.245   5.262   3.185 -0.5473  1.0177  1.3740
  550MOL0     H74225   9.196   5.257   3.345 -0.0250  2.3925 -1.0703
  550MOL0     H74226   9.492   5.194   3.292  0.7747 -0.1608 -0.4524
  550MOL0     H74227   9.396   5.202   3.440  0.6602  0.1339 -0.1119
  550MOL0     H74228   9.376   5.429   3.219 -0.5992 -1.5775 -0.4185
  550MOL0     H74229   9.362   5.457   3.388 -0.7868 -2.2107  1.2737
  550MOL0     H74230   8.992   4.359   3.169  1.0511 -0.6643  0.8516
  550MOL0     H74231   8.891   4.154   3.072 -0.6190  0.2928  1.0729
  550MOL0     H74232   8.536   3.974   2.876  0.5155 -1.1054  1.4961
  550MOL0     H74233   8.394   3.785   2.791 -0.7594 -1.9505  2.9982
  550MOL0     H74234   8.583   3.257   0.993 -1.3352 -1.5462 -0.0744
  550MOL0     H74235   8.767   3.225   0.852 -0.2386 -0.0085 -0.6257
  550MOL0     H74236   9.181   3.169   0.770 -0.2213 -1.4995 -0.1157
  550MOL0     H74237   9.380   3.149   0.637 -1.4256  1.2605  0.2381
  550MOL0     H74238   9.527   2.720   0.516 -0.2373 -0.1990  1.8083
  550MOL0     H74239   9.509   2.791   0.658 -2.0003  0.8438 -0.3667
  550MOL0     H74240   9.754   2.803   0.584 -0.7673 -0.8722  0.1887
  550MOL0     H74241   9.695   2.972   0.584 -2.5819  1.0938 -1.8402
  550MOL0     H74242   9.629   2.848   0.334  1.0830  1.3319 -0.6876
  550MOL0     H74243   9.803   2.820   0.367  1.3368 -0.1825  1.0642
  550MOL0     H74244   9.833   3.069   0.386  0.8170 -1.1137 -0.1227
  550MOL0     H74245   9.743   3.036   0.235 -0.2650 -2.4658 -0.7607
  550MOL0     H74246   9.450   3.262   0.390 -0.2250  0.2494  1.7489
  550MOL0     H74247   9.248   2.761   0.527 -2.4416  0.9152 -1.4110
  550MOL0     H74248   8.911   2.796   0.589  1.7391  0.2455 -1.7856
  550MOL0     H74249   9.036   2.668   0.600  2.3793 -1.0726  1.0791
  550MOL0     H74250   8.982   2.738   0.754 -0.0290  2.2069 -0.0851
  551MOL0     O74251   0.608   2.755   7.024  0.0557  0.0275  0.3603
  551MOL0     C74252   0.629   2.648   6.964  1.5213 -0.3504  0.1487
  551MOL0     O74253   0.686   2.545   7.014  0.2214  0.1996  0.7556
  551MOL0     C74254   0.774   2.572   7.120 -0.6929 -0.1379 -0.6419
  551MOL0     C74255   0.889   2.657   7.104  0.2035 -0.7185 -0.0434
  551MOL0     C74256   0.946   2.707   7.214  0.6602  0.1784 -0.9957
  551MOL0     C74257   0.923   2.657   7.345  0.9575 -0.7649 -0.3006
  551MOL0     O74258   0.981   2.709   7.464  0.3223 -0.7252  0.7603
  551MOL0     C74259   1.129   2.720   7.478 -0.2517 -0.4850  0.9918
  551MOL0     C74260   1.202   2.600   7.421  0.0195 -0.0732  0.0839
  551MOL0     C74261   1.179   2.483   7.521 -0.4804 -0.4380  1.9652
  551MOL0     C74262   1.268   2.360   7.492  1.1597  0.1197 -0.0426
  551MOL0     C74263   1.266   2.270   7.613 -0.3089  0.8970 -0.4537
  551MOL0     C74264   1.346   2.142   7.596  1.8747  1.2038 -0.7282
  551MOL0     C74265   1.471   2.167   7.534 -0.2100 -0.1561 -0.1499
  551MOL0     C74266   1.553   2.038   7.529  0.0113 -1.5256 -0.9703
  551MOL0     N74267   1.609   2.017   7.661 -0.3127  0.2349  0.2879
  551MOL0     C74268   1.630   1.907   7.742  0.5721  0.1625  0.1509
  551MOL0     C74269   1.692   1.958   7.848  0.3583  0.0873 -0.4430
  551MOL0     C74270   1.708   1.896   7.985  0.7037  1.1222 -0.0448
  551MOL0     C74271   1.600   1.934   8.081 -0.9964  0.3609 -0.0072
  551MOL0     C74272   1.643   1.892   8.221  0.6426  0.2022  0.9647
  551MOL0     C74273   1.534   1.935   8.326 -0.5697  0.0622 -1.3909
  551MOL0     O74274   1.604   1.925   8.461  0.1634 -0.1306  0.1789
  551MOL0     C74275   1.535   1.946   8.571 -0.3419 -0.2422 -0.9040
  551MOL0     C74276   1.403   1.956   8.586 -0.5142 -0.3963  0.6026
  551MOL0     C74277   1.349   1.986   8.715  0.0291  0.0272 -0.0287
  551MOL0     C74278   1.427   2.018   8.823  0.4856 -0.2860 -0.1850
  551MOL0     C74279   1.372   2.058   8.961  0.1246  0.7912 -0.7180
  551MOL0     O74280   1.281   2.169   8.956 -0.4109  0.3889 -0.1864
  551MOL0     C74281   1.216   2.210   9.073 -0.3221  0.2919 -0.0849
  551MOL0     C74282   1.191   2.346   9.099  0.0454 -0.3986 -0.6871
  551MOL0     C74283   1.113   2.390   9.201 -0.4736 -0.7701  0.4127
  551MOL0     C74284   1.050   2.302   9.281 -0.8037  0.8579 -0.3290
  551MOL0     O74285   0.963   2.335   9.379  0.5902 -0.0574  0.4280
  551MOL0     C74286   0.919   2.473   9.387  0.2165 -0.5716 -0.4218
  551MOL0     C74287   0.770   2.476   9.427 -0.5660  0.6138 -0.0861
  551MOL0     C74288   0.736   2.411   9.563 -1.0826 -0.6694 -0.1066
  551MOL0     C74289   0.630   2.469   9.652  0.3393  0.6460  0.7822
  551MOL0     C74290   0.657   2.605   9.703  1.2449  0.9246 -0.1348
  551MOL0     C74291   0.549   2.643   9.809  0.2450 -0.5041  0.5644
  551MOL0     C74292   0.594   2.778   9.875  0.9490  0.6444 -0.6112
  551MOL0     C74293   0.521   2.892   9.795  0.4123  1.1936 -0.0775
  551MOL0    Cl74294   0.343   2.915   9.856 -0.2824 -0.0741  0.0684
  551MOL0     C74295   1.084   2.161   9.269 -0.0736 -0.5370  0.4129
  551MOL0     C74296   1.180   2.123   9.170  0.5946 -0.3919  0.6718
  551MOL0     O74297   1.436   2.016   9.057 -0.2128  0.2674 -0.2798
  551MOL0     C74298   1.561   1.984   8.809 -0.3663 -0.0086  0.5199
  551MOL0     C74299   1.617   1.952   8.691  0.0010  0.3335  0.0068
  551MOL0     N74300   1.707   2.089   7.842 -0.1813 -0.4832 -0.7487
  551MOL0     N74301   1.645   2.122   7.736 -0.4728  0.2578 -0.1051
  551MOL0     C74302   0.819   2.562   7.360 -0.2460 -0.9000 -0.6913
  551MOL0     C74303   0.745   2.518   7.250  0.3593 -1.2660 -0.6522
  551MOL0     C74304   0.579   2.630   6.828  0.0649 -0.6579  0.2865
  551MOL0     C74305   0.646   2.548   6.734 -0.5982  0.0788  0.4463
  551MOL0     C74306   0.618   2.544   6.603 -0.6755 -0.0052  0.1820
  551MOL0     C74307   0.513   2.605   6.550 -0.4053 -0.3862 -0.2757
  551MOL0     O74308   0.490   2.608   6.412  0.1455  0.3946  0.2090
  551MOL0     C74309   0.522   2.485   6.327 -0.0563 -0.8735 -0.9698
  551MOL0     C74310   0.403   2.396   6.354 -0.0611 -0.0483 -0.5898
  551MOL0     C74311   0.263   2.466   6.325 -0.1209  0.0843 -0.2832
  551MOL0     C74312   0.249   2.516   6.185  0.1182 -0.2170  0.1566
  551MOL0     C74313   0.103   2.556   6.157  0.4282  0.1643  0.8070
  551MOL0     C74314  -0.014   2.580   6.142  0.4918 -0.1960  0.0526
  551MOL0     C74315   0.427   2.672   6.639  1.0735 -0.5935  0.9142
  551MOL0     C74316   0.459   2.690   6.773  0.2311 -1.1733 -1.1607
  551MOL0     C74317   0.379   2.789   6.849  0.4710  0.3215 -0.6328
  551MOL0     H74318   0.915   2.697   7.007  4.0075  1.7430  1.7685
  551MOL0     H74319   1.022   2.783   7.196 -0.0951  1.4919  1.0278
  551MOL0     H74320   1.159   2.805   7.416  2.3339  0.0381  2.7815
  551MOL0     H74321   1.158   2.742   7.581  0.5610 -1.6266  1.0289
  551MOL0     H74322   1.309   2.624   7.424  0.1485 -0.5551  3.5259
  551MOL0     H74323   1.166   2.587   7.319 -3.3479  1.4002  0.9211
  551MOL0     H74324   1.075   2.452   7.513 -1.5075  2.8950  0.5751
  551MOL0     H74325   1.195   2.522   7.622 -0.6102  3.4703  0.6517
  551MOL0     H74326   1.236   2.305   7.403 -1.1963  2.5545 -0.8307
  551MOL0     H74327   1.373   2.385   7.470  1.0493  0.3023 -0.3748
  551MOL0     H74328   1.313   2.323   7.697  0.8565 -0.8532  0.0517
  551MOL0     H74329   1.169   2.242   7.654 -0.6711  0.3761 -1.6523
  551MOL0     H74330   1.355   2.100   7.696 -2.1417  1.1065 -0.2553
  551MOL0     H74331   1.292   2.065   7.540  0.3193  1.2892  0.5897
  551MOL0     H74332   1.528   2.249   7.578  2.1091 -0.8519 -1.6481
  551MOL0     H74333   1.451   2.196   7.430 -0.2983  2.6128  0.5647
  551MOL0     H74334   1.479   1.960   7.509 -0.6547 -1.2460  0.2823
  551MOL0     H74335   1.627   2.023   7.450 -1.5126 -3.3048 -2.1555
  551MOL0     H74336   1.608   1.803   7.720  3.1517 -0.2789 -0.6983
  551MOL0     H74337   1.712   1.787   7.989 -0.1659  1.0956  0.1837
  551MOL0     H74338   1.802   1.934   8.026  1.6345  1.7996 -2.6275
  551MOL0     H74339   1.589   2.043   8.079 -0.8226  0.3739 -0.2817
  551MOL0     H74340   1.512   1.877   8.050 -0.0675  0.4996 -3.1890
  551MOL0     H74341   1.731   1.949   8.251  0.0445  1.9427 -0.4053
  551MOL0     H74342   1.658   1.783   8.225  1.0463  0.1657 -0.8300
  551MOL0     H74343   1.452   1.863   8.323  1.2004 -2.0796 -1.2712
  551MOL0     H74344   1.501   2.037   8.302 -0.1342 -0.1442 -2.9703
  551MOL0     H74345   1.341   1.939   8.499 -1.9027  0.7706  1.3220
  551MOL0     H74346   1.241   1.987   8.719 -0.1790  2.7807 -2.6010
  551MOL0     H74347   1.220   2.409   9.015 -0.8812  2.0165  0.7048
  551MOL0     H74348   1.109   2.498   9.213  1.7648 -0.6735  0.7631
  551MOL0     H74349   0.976   2.520   9.468  1.1475  0.9732 -1.9122
  551MOL0     H74350   0.924   2.530   9.294 -0.9768 -0.2909 -0.3299
  551MOL0     H74351   0.718   2.570   9.408 -0.6644  0.1385 -2.3987
  551MOL0     H74352   0.733   2.391   9.370 -0.1226 -2.5927  3.9020
  551MOL0     H74353   0.693   2.318   9.527 -1.3303 -0.4702 -0.3300
  551MOL0     H74354   0.833   2.395   9.612 -1.7280 -3.3095  0.4382
  551MOL0     H74355   0.622   2.396   9.732  2.5914  1.3457  1.7326
  551MOL0     H74356   0.544   2.465   9.584  2.4626  0.7925 -2.0954
  551MOL0     H74357   0.651   2.678   9.622 -0.8649 -1.0801 -1.9640
  551MOL0     H74358   0.753   2.616   9.752  1.1920  0.1429  0.1608
  551MOL0     H74359   0.449   2.658   9.768  0.5226  1.7115  0.5529
  551MOL0     H74360   0.541   2.570   9.890  0.7735  1.9556  3.0129
  551MOL0     H74361   0.703   2.786   9.876  0.9124  1.1546 -0.6728
  551MOL0     H74362   0.561   2.774   9.979  1.8497 -3.8268 -0.2633
  551MOL0     H74363   0.574   2.984   9.822  1.0283  1.3048 -1.5735
  551MOL0     H74364   0.539   2.886   9.687  2.6513 -2.0274  0.3212
  551MOL0     H74365   1.054   2.089   9.344 -0.7450  0.2016  0.8605
  551MOL0     H74366   1.214   2.020   9.172 -0.2597 -0.6694  1.7749
  551MOL0     H74367   1.635   1.983   8.889  3.4541 -1.0787 -2.6673
  551MOL0     H74368   1.725   1.940   8.693 -0.0948 -1.3405 -1.8357
  551MOL0     H74369   0.801   2.512   7.454 -0.8362 -2.0044 -1.3690
  551MOL0     H74370   0.667   2.444   7.267 -0.7728 -0.4022 -1.9214
  551MOL0     H74371   0.741   2.508   6.768 -0.5904  0.0601  0.4025
  551MOL0     H74372   0.678   2.476   6.543  0.5299  0.5228  0.7504
  551MOL0     H74373   0.618   2.437   6.349 -1.0608 -1.1030  4.3656
  551MOL0     H74374   0.526   2.508   6.220  0.6712  2.0971 -0.4163
  551MOL0     H74375   0.417   2.382   6.462 -2.7279  0.6783 -0.0531
  551MOL0     H74376   0.417   2.301   6.303 -0.8275 -1.4017  1.5630
  551MOL0     H74377   0.216   2.529   6.401 -1.7061 -1.0789 -0.2317
  551MOL0     H74378   0.194   2.380   6.322 -2.4103  1.8361 -0.3416
  551MOL0     H74379   0.311   2.601   6.154 -0.6745  0.5044  0.5278
  551MOL0     H74380   0.270   2.430   6.121  0.3391  1.2493 -1.8373
  551MOL0     H74381  -0.118   2.603   6.128  0.2496 -1.8258 -1.1854
  551MOL0     H74382   0.338   2.726   6.610  2.4566  2.9546  2.6083
  551MOL0     H74383   0.438   2.880   6.860  1.7385 -0.4409 -0.8945
  551MOL0     H74384   0.290   2.814   6.790  0.1189 -2.1939 -1.2999
  551MOL0     H74385   0.347   2.743   6.943 -0.5296  1.8879 -0.1739
  552MOL0     O74386  11.253   0.323   3.951  0.2160 -0.7349 -0.3563
  552MOL0     C74387  11.341   0.298   4.044 -0.0368 -0.5603  0.3595
  552MOL0     O74388  11.437   0.391   4.084  0.6180 -1.2036  0.0101
  552MOL0     C74389  11.469   0.500   4.009  0.3109 -0.2693 -0.6047
  552MOL0     C74390  11.448   0.513   3.871  0.4597 -0.2858 -0.4943
  552MOL0     C74391  11.484   0.626   3.804  0.0265 -0.0225 -1.2410
  552MOL0     C74392  11.551   0.723   3.881 -0.3036 -0.8661  0.4380
  552MOL0     O74393  11.600   0.835   3.818 -0.3632 -0.3811 -0.0321
  552MOL0     C74394  11.719   0.821   3.740  0.1740 -0.0479 -0.0253
  552MOL0     C74395  11.804   0.934   3.717 -0.4290  0.5229  0.2044
  552MOL0     C74396  11.860   0.935   3.572 -0.6268  0.5101 -0.2887
  552MOL0     C74397  11.975   1.040   3.550  0.6447 -0.9460 -0.2760
  552MOL0     C74398  12.036   1.042   3.405  0.0033  0.5536 -0.3075
  552MOL0     C74399  12.124   1.168   3.392  0.4218  0.7559 -1.0832
  552MOL0     C74400  12.152   1.182   3.244  0.5292  0.4696  0.0522
  552MOL0     C74401  12.218   1.309   3.203  0.3179  0.4386 -0.5240
  552MOL0     N74402  12.333   1.329   3.278 -0.8471  1.2520 -0.2021
  552MOL0     C74403  12.350   1.428   3.367  0.0870 -0.4476 -0.1123
  552MOL0     C74404  12.470   1.405   3.428 -0.1078  0.1836  0.5264
  552MOL0     C74405  12.542   1.494   3.542 -0.4585 -0.0539 -0.6354
  552MOL0     C74406  12.667   1.417   3.601  1.6644  0.7109  0.7108
  552MOL0     C74407  12.613   1.281   3.662 -0.5185 -0.3753  0.5269
  552MOL0     C74408  12.683   1.249   3.802  0.1725 -0.3778 -0.3145
  552MOL0     O74409  12.682   1.362   3.895 -0.7023 -0.6467  0.1060
  552MOL0     C74410  12.589   1.374   3.990 -0.7877  0.0867 -0.1923
  552MOL0     C74411  12.629   1.439   4.105  0.0331  0.4977 -0.0682
  552MOL0     C74412  12.548   1.429   4.220  0.2830 -0.0156  0.2653
  552MOL0     C74413  12.419   1.374   4.220  0.3635 -0.3462 -0.9191
  552MOL0     C74414  12.328   1.378   4.346  0.1342  0.6873 -0.1984
  552MOL0     O74415  12.371   1.443   4.456  0.2701 -0.5602  0.9704
  552MOL0     C74416  12.313   1.418   4.581 -0.1274 -0.4508  0.6466
  552MOL0     C74417  12.323   1.524   4.671 -0.1984 -0.2109  0.2290
  552MOL0     C74418  12.270   1.514   4.802 -0.9198  0.3270 -0.1736
  552MOL0     C74419  12.211   1.393   4.846 -0.5055 -0.1968 -0.9756
  552MOL0     O74420  12.177   1.367   4.976  0.3342 -0.0871 -0.0124
  552MOL0     C74421  12.049   1.311   4.996 -1.1316 -0.1416 -0.7534
  552MOL0     C74422  12.052   1.170   5.063 -0.2260  0.5535 -0.3610
  552MOL0     C74423  12.014   1.045   4.979  0.3325 -0.2626  0.2684
  552MOL0     C74424  11.977   0.930   5.067 -0.2386  0.2339 -0.2390
  552MOL0     C74425  11.878   0.832   4.996 -0.1452  0.2103  0.7019
  552MOL0     C74426  11.926   0.681   4.989  0.1477 -0.7947  0.5899
  552MOL0     C74427  12.018   0.666   4.874 -0.7092  0.0532  0.4566
  552MOL0     C74428  12.055   0.526   4.852  0.1292  1.0564  1.0638
  552MOL0    Cl74429  12.202   0.532   4.753  0.2581 -0.1265  0.3975
  552MOL0     C74430  12.216   1.286   4.754  0.1385  0.2806  0.6781
  552MOL0     C74431  12.256   1.289   4.622  0.7180  0.1325  0.5237
  552MOL0     O74432  12.231   1.299   4.341  0.1007  0.7938 -0.0095
  552MOL0     C74433  12.374   1.321   4.096  0.2160  0.6386 -0.8373
  552MOL0     C74434  12.457   1.321   3.982  0.0369 -0.6497 -0.0472
  552MOL0     N74435  12.514   1.295   3.369  0.4983  0.2774 -0.5898
  552MOL0     N74436  12.436   1.250   3.284  0.0062 -0.3741  0.1535
  552MOL0     C74437  11.579   0.708   4.016 -0.4076  0.0202 -0.7755
  552MOL0     C74438  11.532   0.594   4.084 -0.1709 -0.9068 -0.0373
  552MOL0     C74439  11.350   0.155   4.095 -0.3914 -0.5574 -0.1883
  552MOL0     C74440  11.405   0.141   4.223 -0.0067 -0.2597 -0.2849
  552MOL0     C74441  11.420   0.019   4.286 -0.2308  0.1860 -1.2076
  552MOL0     C74442  11.380  -0.105   4.222  0.0967  0.2042  0.6924
  552MOL0     O74443  11.390  -0.223   4.294  0.1342  0.1789  0.5218
  552MOL0     C74444  11.411  -0.345   4.218  0.6425 -0.1244  0.7022
  552MOL0     C74445  11.446  -0.467   4.312 -0.3819  0.3213  0.2500
  552MOL0     C74446  11.328  -0.499   4.411 -0.1573 -0.9580  1.3143
  552MOL0     C74447  11.379  -0.607   4.506  0.5887 -0.0147 -0.2583
  552MOL0     C74448  11.429  -0.732   4.437 -0.5975 -0.2186 -0.0658
  552MOL0     C74449  11.465  -0.840   4.381  0.6620  0.0675 -0.0422
  552MOL0     C74450  11.344  -0.089   4.090  0.6549 -0.3314 -1.0452
  552MOL0     C74451  11.315   0.035   4.032 -0.3927 -0.2572  0.0186
  552MOL0     C74452  11.264   0.045   3.882  0.1880 -0.2634 -0.0268
  552MOL0     H74453  11.416   0.427   3.813 -1.3002  0.3277 -0.5063
  552MOL0     H74454  11.494   0.632   3.696  2.2661  0.2374 -1.0604
  552MOL0     H74455  11.775   0.745   3.795  0.4015 -0.4739 -0.8200
  552MOL0     H74456  11.698   0.772   3.644  0.8434 -1.1131  0.3545
  552MOL0     H74457  11.876   0.926   3.799 -2.4070  1.4136  2.1215
  552MOL0     H74458  11.737   1.019   3.729 -0.8607  0.2475 -0.2329
  552MOL0     H74459  11.785   0.964   3.498 -2.2138 -0.3132  0.9517
  552MOL0     H74460  11.907   0.839   3.548  0.7040  0.2794  2.7194
  552MOL0     H74461  11.940   1.138   3.584  0.4268 -0.4573 -1.8606
  552MOL0     H74462  12.052   1.006   3.621  1.6187 -0.9822 -1.3262
  552MOL0     H74463  12.086   0.950   3.372 -0.5901  1.1168 -3.0541
  552MOL0     H74464  11.952   1.060   3.337 -1.1697  2.8037  1.5636
  552MOL0     H74465  12.079   1.257   3.436  0.8625  0.3189  0.3162
  552MOL0     H74466  12.210   1.151   3.458  0.1142 -0.3115 -0.9402
  552MOL0     H74467  12.058   1.188   3.189 -1.6256 -0.9289  3.2540
  552MOL0     H74468  12.199   1.093   3.202 -2.7248 -0.8774 -1.0847
  552MOL0     H74469  12.258   1.310   3.101  1.3686 -2.1199 -0.2188
  552MOL0     H74470  12.150   1.393   3.216 -0.2006 -0.0217 -0.2210
  552MOL0     H74471  12.283   1.512   3.383  1.3937  0.8773 -1.3061
  552MOL0     H74472  12.572   1.591   3.502  0.5310 -0.4872 -0.9747
  552MOL0     H74473  12.455   1.512   3.606 -1.4015  3.1538 -2.6375
  552MOL0     H74474  12.738   1.391   3.521 -0.2734  0.6183 -1.0607
  552MOL0     H74475  12.698   1.490   3.676 -1.7537  4.3552 -1.0539
  552MOL0     H74476  12.638   1.203   3.589 -3.1703 -2.9053  2.1133
  552MOL0     H74477  12.505   1.284   3.675 -0.5516 -1.0620  0.4502
  552MOL0     H74478  12.789   1.230   3.784  0.4955  0.8823  0.1668
  552MOL0     H74479  12.640   1.162   3.852  0.5114  0.9991  2.5227
  552MOL0     H74480  12.728   1.482   4.117  0.5019 -0.3514 -0.7793
  552MOL0     H74481  12.582   1.458   4.319 -0.7971  1.6901  0.1851
  552MOL0     H74482  12.379   1.616   4.656 -3.4823  2.1070  1.0630
  552MOL0     H74483  12.278   1.591   4.878  0.5026 -2.2099  2.4522
  552MOL0     H74484  12.007   1.374   5.074 -2.6474 -0.8123 -0.9874
  552MOL0     H74485  11.983   1.329   4.910 -0.4180  1.1564 -1.0589
  552MOL0     H74486  12.155   1.158   5.099 -1.1021 -0.5804  1.9678
  552MOL0     H74487  11.988   1.183   5.151  1.6018  3.3047  0.7133
  552MOL0     H74488  11.929   1.088   4.924  2.3317  0.6781 -2.2832
  552MOL0     H74489  12.086   1.008   4.905 -0.5592 -0.7937 -0.3756
  552MOL0     H74490  11.943   0.941   5.170  2.0525 -1.3489  0.7705
  552MOL0     H74491  12.063   0.864   5.079 -2.7685 -2.7828  3.7471
  552MOL0     H74492  11.851   0.868   4.896 -0.1404  0.1220  0.6675
  552MOL0     H74493  11.780   0.841   5.044 -1.1360  0.0282 -1.1914
  552MOL0     H74494  11.973   0.655   5.084  0.8846  1.2388  0.8249
  552MOL0     H74495  11.837   0.619   4.974 -0.9078  0.5441  1.1293
  552MOL0     H74496  12.110   0.725   4.882 -1.1205  0.8551 -0.5269
  552MOL0     H74497  11.975   0.708   4.783  3.4809  0.1381 -1.7739
  552MOL0     H74498  12.074   0.490   4.954  2.8962  3.3319  1.4792
  552MOL0     H74499  11.976   0.468   4.804  0.2978  2.5796 -1.2361
  552MOL0     H74500  12.187   1.192   4.799  1.7860 -0.1016  1.0207
  552MOL0     H74501  12.242   1.202   4.559 -2.6354  0.3918  0.7147
  552MOL0     H74502  12.273   1.281   4.090  0.4285 -0.5835  2.1477
  552MOL0     H74503  12.425   1.271   3.891 -1.2006  1.0071 -0.5647
  552MOL0     H74504  11.633   0.785   4.070  0.8227 -0.9063 -0.6669
  552MOL0     H74505  11.560   0.574   4.187  0.7435 -1.1566 -0.3172
  552MOL0     H74506  11.436   0.230   4.275  2.5590 -1.4669  0.4150
  552MOL0     H74507  11.450   0.003   4.389  0.6622  0.7038 -1.3781
  552MOL0     H74508  11.498  -0.338   4.152  0.1664 -3.1431 -0.4488
  552MOL0     H74509  11.331  -0.384   4.154  0.6287 -2.1006  1.8245
  552MOL0     H74510  11.530  -0.430   4.373 -0.0546 -0.9685  0.6211
  552MOL0     H74511  11.476  -0.560   4.263 -0.0131 -0.0643  1.1755
  552MOL0     H74512  11.244  -0.533   4.350  1.7658 -3.2538 -0.2571
  552MOL0     H74513  11.306  -0.402   4.455  2.8923 -0.3208  1.7079
  552MOL0     H74514  11.457  -0.566   4.571  0.4585  2.5939 -1.6173
  552MOL0     H74515  11.297  -0.646   4.568  1.2028 -2.0392 -0.6371
  552MOL0     H74516  11.492  -0.931   4.333  2.3239 -0.3956  1.6181
  552MOL0     H74517  11.322  -0.178   4.033 -1.4385 -0.7760  0.3397
  552MOL0     H74518  11.350   0.083   3.827  0.1981  3.1985  2.1011
  552MOL0     H74519  11.246  -0.055   3.841 -2.3213  0.6920 -1.3961
  552MOL0     H74520  11.178   0.111   3.871 -2.6202 -3.2373  1.9714
  553MOL0     O74521   7.501  11.007   3.202 -0.1024  0.0726  0.0191
  553MOL0     C74522   7.441  11.054   3.295 -0.6064 -1.0037  0.7751
  553MOL0     O74523   7.495  11.152   3.391  0.7007 -0.1342 -0.0419
  553MOL0     C74524   7.557  11.255   3.331  0.1893 -0.3602 -0.4063
  553MOL0     C74525   7.675  11.250   3.258  0.2907  0.0188 -0.3903
  553MOL0     C74526   7.744  11.365   3.219  0.1272 -0.3537  0.6429
  553MOL0     C74527   7.687  11.488   3.242 -1.1486 -1.0073  0.3513
  553MOL0     O74528   7.759  11.594   3.203  0.0154 -0.5457  0.3196
  553MOL0     C74529   7.701  11.728   3.213 -0.3283 -0.2026  0.2436
  553MOL0     C74530   7.792  11.839   3.141 -1.0173 -0.1088 -0.7154
  553MOL0     C74531   7.738  11.984   3.158 -0.4438  0.8684 -0.0383
  553MOL0     C74532   7.761  12.030   3.296  0.1227  0.1906  0.2982
  553MOL0     C74533   7.686  12.157   3.339 -0.1257 -0.3457  0.4375
  553MOL0     C74534   7.749  12.210   3.469  0.4131 -0.1757  0.3815
  553MOL0     C74535   7.738  12.115   3.590 -0.6333 -0.7109 -0.6029
  553MOL0     C74536   7.777  12.191   3.725 -0.0809 -0.4016 -0.8166
  553MOL0     N74537   7.915  12.187   3.756 -0.5200  0.4925  0.1251
  553MOL0     C74538   7.966  12.117   3.866  0.0387 -0.0812 -0.0764
  553MOL0     C74539   8.096  12.120   3.857  0.2513 -0.3049 -0.7343
  553MOL0     C74540   8.196  12.057   3.941 -0.2012  1.0077 -0.1448
  553MOL0     C74541   8.233  12.125   4.080  0.6572 -0.9922 -0.4895
  553MOL0     C74542   8.339  12.233   4.061 -0.6596 -0.8679 -0.7648
  553MOL0     C74543   8.407  12.298   4.183 -0.5188 -0.4826 -0.5109
  553MOL0     O74544   8.306  12.345   4.270 -0.3526  0.6492 -0.5580
  553MOL0     C74545   8.339  12.352   4.408  0.1413 -0.3012 -0.0641
  553MOL0     C74546   8.466  12.342   4.459 -0.4429 -0.0085  0.2250
  553MOL0     C74547   8.492  12.319   4.595  0.1479 -0.0196  0.3839
  553MOL0     C74548   8.394  12.315   4.690 -0.4454  0.4799 -0.2189
  553MOL0     C74549   8.433  12.279   4.824 -0.2159 -0.5477  0.4297
  553MOL0     O74550   8.571  12.261   4.846 -0.2096  0.2213  0.9683
  553MOL0     C74551   8.632  12.221   4.963  0.2978 -0.4348 -0.1082
  553MOL0     C74552   8.760  12.162   4.945  0.2510  0.4128  0.7854
  553MOL0     C74553   8.838  12.121   5.051  0.2976 -1.1549  1.3203
  553MOL0     C74554   8.781  12.109   5.176 -0.7116 -0.5019 -0.0147
  553MOL0     O74555   8.848  12.045   5.272 -0.8535 -0.3402 -0.8665
  553MOL0     C74556   8.857  12.113   5.401  0.2472  0.1445  0.6280
  553MOL0     C74557   8.955  12.052   5.490 -0.6520 -0.0188 -0.8853
  553MOL0     C74558   9.101  12.071   5.444  0.7025 -0.6050 -0.1254
  553MOL0     C74559   9.171  12.195   5.512 -0.3405  0.4667  0.3806
  553MOL0     C74560   9.324  12.194   5.532  0.0733 -0.0843  0.2254
  553MOL0     C74561   9.395  12.324   5.555 -0.1468  0.2802 -0.1666
  553MOL0     C74562   9.546  12.306   5.557 -0.2635  0.4190 -1.3717
  553MOL0     C74563   9.604  12.439   5.575  0.1368  0.3800 -0.2745
  553MOL0    Cl74564   9.786  12.401   5.572  1.0710 -0.0613 -0.0646
  553MOL0     C74565   8.654  12.157   5.196 -0.2245 -0.0903 -0.4931
  553MOL0     C74566   8.575  12.211   5.096 -0.5763 -0.2010  0.9733
  553MOL0     O74567   8.350  12.292   4.912 -0.0192 -0.3458 -0.2272
  553MOL0     C74568   8.265  12.331   4.645 -0.3148 -0.5084 -0.0548
  553MOL0     C74569   8.237  12.348   4.505  0.3342  0.2308 -0.1401
  553MOL0     N74570   8.125  12.187   3.739  0.1222  0.3749 -0.3707
  553MOL0     N74571   8.017  12.243   3.696 -0.5706 -0.0783  0.5143
  553MOL0     C74572   7.572  11.497   3.319 -0.5575 -0.3208 -0.3527
  553MOL0     C74573   7.511  11.385   3.356  0.2393 -0.9190 -0.6085
  553MOL0     C74574   7.297  11.023   3.305 -0.2552 -0.1627 -0.9035
  553MOL0     C74575   7.207  11.126   3.325 -0.0794  0.3604 -1.0303
  553MOL0     C74576   7.076  11.099   3.350  0.2749 -0.5693  0.8858
  553MOL0     C74577   7.027  10.965   3.345 -0.1949 -0.0473 -0.6336
  553MOL0     O74578   6.891  10.937   3.351  0.1004  0.2766 -0.0610
  553MOL0     C74579   6.818  10.946   3.482  0.3280 -0.1810  0.5270
  553MOL0     C74580   6.748  10.812   3.512 -0.5435  0.4181  0.9255
  553MOL0     C74581   6.648  10.787   3.404  0.5877 -0.3227 -0.3297
  553MOL0     C74582   6.553  10.672   3.443 -0.3582 -0.0680  0.2071
  553MOL0     C74583   6.622  10.548   3.476  0.4669  0.0783  0.5045
  553MOL0     C74584   6.675  10.448   3.512  0.1503 -0.4597 -0.7842
  553MOL0     C74585   7.116  10.855   3.332  0.1345  0.0570 -0.1243
  553MOL0     C74586   7.250  10.891   3.303 -0.9136 -0.1796  0.0423
  553MOL0     C74587   7.343  10.773   3.295 -1.1183 -0.1314  0.8925
  553MOL0     H74588   7.709  11.149   3.240 -4.0876 -2.1282  1.8524
  553MOL0     H74589   7.834  11.347   3.163  0.3320  1.7138  0.2166
  553MOL0     H74590   7.606  11.737   3.158 -0.5703  2.8512  0.9695
  553MOL0     H74591   7.683  11.760   3.316 -1.4375 -4.3415  1.5228
  553MOL0     H74592   7.820  11.823   3.037 -1.5472  1.1283 -1.0648
  553MOL0     H74593   7.884  11.833   3.201 -1.0532  1.7870 -0.4243
  553MOL0     H74594   7.632  11.970   3.137  0.1553 -0.1336 -2.8120
  553MOL0     H74595   7.788  12.047   3.085  0.5363 -1.0693 -1.1204
  553MOL0     H74596   7.728  11.954   3.368 -0.5760  1.4984  1.4202
  553MOL0     H74597   7.870  12.036   3.300  0.1667 -0.4790  3.4733
  553MOL0     H74598   7.710  12.233   3.263 -0.6886 -0.8511 -0.2651
  553MOL0     H74599   7.578  12.142   3.346 -0.2015  0.8631  2.7446
  553MOL0     H74600   7.854  12.236   3.457  0.2162  0.9192  0.9358
  553MOL0     H74601   7.699  12.302   3.500  3.0209  1.0379  1.2698
  553MOL0     H74602   7.794  12.022   3.580 -0.4344 -1.3743  4.2112
  553MOL0     H74603   7.632  12.093   3.601 -1.0934  1.6206  0.4125
  553MOL0     H74604   7.744  12.294   3.709 -0.0545 -0.7231 -3.2899
  553MOL0     H74605   7.720  12.158   3.812 -0.6100  2.0139 -0.1749
  553MOL0     H74606   7.908  12.077   3.949  0.9675 -1.4472 -0.0564
  553MOL0     H74607   8.140  11.965   3.962 -1.0970  0.9541 -2.4858
  553MOL0     H74608   8.283  12.021   3.885 -0.9932  2.2891 -2.3116
  553MOL0     H74609   8.146  12.167   4.131  0.4370 -1.3977 -0.5246
  553MOL0     H74610   8.267  12.047   4.149 -1.7955 -1.8159 -0.1137
  553MOL0     H74611   8.305  12.321   4.005  3.0127  0.8507 -0.5381
  553MOL0     H74612   8.421  12.192   4.002 -1.0310 -0.0472 -1.8814
  553MOL0     H74613   8.465  12.387   4.159  0.3867 -0.7469  0.6202
  553MOL0     H74614   8.463  12.211   4.218  0.0187 -2.7582 -6.0521
  553MOL0     H74615   8.547  12.357   4.388 -0.4460  1.3554  0.4831
  553MOL0     H74616   8.594  12.327   4.629  0.2565  0.2308  0.0063
  553MOL0     H74617   8.809  12.154   4.848  1.0272 -3.0854  1.3358
  553MOL0     H74618   8.939  12.094   5.022  0.7210 -0.0360  1.7243
  553MOL0     H74619   8.869  12.222   5.394  0.7492  0.1968  1.9060
  553MOL0     H74620   8.754  12.114   5.438 -0.7480  2.8216 -1.8198
  553MOL0     H74621   8.945  12.074   5.596 -0.8001  1.7848 -1.2310
  553MOL0     H74622   8.922  11.948   5.493 -2.2654  0.4996  0.4282
  553MOL0     H74623   9.140  11.978   5.487  0.9723  0.6189  2.4447
  553MOL0     H74624   9.112  12.080   5.335 -2.6666 -0.8759 -0.5810
  553MOL0     H74625   9.131  12.212   5.612 -0.0235  1.2091  0.3838
  553MOL0     H74626   9.136  12.280   5.453  1.0195 -0.5836 -2.1329
  553MOL0     H74627   9.377  12.148   5.448 -0.2060  1.4855 -0.8610
  553MOL0     H74628   9.332  12.134   5.623 -0.7176 -0.8213 -0.1733
  553MOL0     H74629   9.367  12.389   5.471  3.5539 -0.6860 -2.3988
  553MOL0     H74630   9.365  12.357   5.655 -2.0254 -4.1888  1.0022
  553MOL0     H74631   9.575  12.278   5.455  2.7184  0.5459 -0.6416
  553MOL0     H74632   9.581  12.231   5.629  0.3116  3.5476  1.8724
  553MOL0     H74633   9.582  12.509   5.495 -3.1753  2.2139  2.0387
  553MOL0     H74634   9.585  12.475   5.676 -1.5220  2.4933 -1.2801
  553MOL0     H74635   8.605  12.151   5.292 -3.2013 -2.5410 -2.0136
  553MOL0     H74636   8.482  12.263   5.113  1.0513  2.1973  3.3201
  553MOL0     H74637   8.182  12.317   4.713  0.3971  3.6307  1.9868
  553MOL0     H74638   8.133  12.354   4.476  0.9297  0.8106 -2.4119
  553MOL0     H74639   7.513  11.582   3.348 -1.0532 -0.9567  0.5550
  553MOL0     H74640   7.427  11.392   3.424 -0.5922  1.9413 -1.7697
  553MOL0     H74641   7.242  11.228   3.327 -1.6655  0.9170  0.0584
  553MOL0     H74642   7.002  11.176   3.329  1.7061 -0.0416 -3.2827
  553MOL0     H74643   6.743  11.025   3.472 -0.5806 -1.2265 -1.4162
  553MOL0     H74644   6.887  10.962   3.566 -0.4159  0.3644  1.0460
  553MOL0     H74645   6.705  10.823   3.612  0.9116 -2.8627  2.0707
  553MOL0     H74646   6.820  10.733   3.536  0.4434  1.5222  1.6636
  553MOL0     H74647   6.694  10.753   3.310  1.4362 -0.1594  0.0196
  553MOL0     H74648   6.594  10.882   3.396  1.4441  0.4171  1.8328
  553MOL0     H74649   6.479  10.693   3.521 -1.3898 -3.6742  0.3617
  553MOL0     H74650   6.490  10.655   3.356  1.7705  0.2325 -1.4708
  553MOL0     H74651   6.719  10.356   3.543 -1.8786 -1.3419 -0.4178
  553MOL0     H74652   7.066  10.761   3.313 -0.0887 -0.0411  0.9407
  553MOL0     H74653   7.440  10.798   3.340 -1.1353 -3.6276  3.2315
  553MOL0     H74654   7.311  10.686   3.353 -0.4548 -0.1885  1.1829
  553MOL0     H74655   7.361  10.746   3.191  1.0295  0.4871  1.0548
  554MOL0     O74656   6.443  10.779   0.479  1.0189  0.2084 -0.6323
  554MOL0     C74657   6.444  10.893   0.435  0.6234  0.2834 -0.6405
  554MOL0     O74658   6.385  10.923   0.320 -0.6690 -0.3405  0.0506
  554MOL0     C74659   6.388  10.835   0.213  0.3955 -0.6924  0.1620
  554MOL0     C74660   6.481  10.728   0.194  1.1570  0.1822 -0.6045
  554MOL0     C74661   6.469  10.649   0.077  1.4878 -0.9237  0.7592
  554MOL0     C74662   6.370  10.678  -0.027  0.7569  0.5321  0.3038
  554MOL0     O74663   6.380  10.591  -0.132 -0.0965  0.0381  0.5056
  554MOL0     C74664   6.336  10.637  -0.260 -1.0197 -0.8718  0.0472
  554MOL0     C74665   6.283  10.532  -0.343 -1.6361  0.2075  0.2371
  554MOL0     C74666   6.393  10.432  -0.394 -1.1076 -0.9750  0.4712
  554MOL0     C74667   6.327  10.319  -0.471 -0.1730  0.2998 -0.1635
  554MOL0     C74668   6.403  10.186  -0.493  0.5697 -0.2657 -0.0482
  554MOL0     C74669   6.552  10.191  -0.516  0.3291 -0.6806 -1.2058
  554MOL0     C74670   6.627  10.061  -0.480  0.3312  0.1966 -0.7277
  554MOL0     C74671   6.564   9.931  -0.545 -0.4357  1.6797  0.3921
  554MOL0     N74672   6.584   9.922  -0.692  0.3176 -0.3527 -0.6868
  554MOL0     C74673   6.531  10.005  -0.786  0.5245  0.2938  0.7274
  554MOL0     C74674   6.617   9.987  -0.896  0.1686 -0.3020 -0.6883
  554MOL0     C74675   6.589  10.062  -1.028  1.6445 -0.1572 -0.3664
  554MOL0     C74676   6.513   9.976  -1.139 -0.4362 -0.6747 -1.3435
  554MOL0     C74677   6.373   9.929  -1.080 -0.4745 -0.4472  0.5636
  554MOL0     C74678   6.299   9.869  -1.199 -0.9293 -0.1851 -0.3389
  554MOL0     O74679   6.166   9.836  -1.169  0.8082 -0.3185 -0.4351
  554MOL0     C74680   6.078   9.770  -1.257 -0.1074 -0.7244 -0.1771
  554MOL0     C74681   6.119   9.702  -1.372 -1.1888 -0.2262  0.2767
  554MOL0     C74682   6.039   9.628  -1.446  0.0732 -0.7951 -0.4588
  554MOL0     C74683   5.901   9.628  -1.422 -0.2399  0.5931  0.7356
  554MOL0     C74684   5.804   9.541  -1.504 -0.7042  0.4337  0.1205
  554MOL0     O74685   5.859   9.439  -1.581  0.6217 -0.0589  0.2578
  554MOL0     C74686   5.769   9.351  -1.646  0.1944  0.2671  0.0705
  554MOL0     C74687   5.692   9.393  -1.763 -0.1911 -0.6708  0.5879
  554MOL0     C74688   5.599   9.301  -1.821  0.2299 -0.7994 -0.6220
  554MOL0     C74689   5.596   9.173  -1.773  0.8276  0.0302  0.9452
  554MOL0     O74690   5.515   9.087  -1.840 -1.0771  0.1446  0.3822
  554MOL0     C74691   5.592   8.976  -1.891 -0.5415  0.1915  0.2047
  554MOL0     C74692   5.514   8.898  -2.004  1.2926 -0.2851  0.3676
  554MOL0     C74693   5.611   8.789  -2.070  0.3036  0.1777 -0.6988
  554MOL0     C74694   5.595   8.776  -2.222  0.0425  1.2918  0.8550
  554MOL0     C74695   5.691   8.664  -2.277  0.1055 -0.4325  1.4656
  554MOL0     C74696   5.620   8.599  -2.403 -0.1038  0.6936 -0.5995
  554MOL0     C74697   5.626   8.684  -2.537  0.1998 -0.0675 -0.8275
  554MOL0     C74698   5.591   8.615  -2.660 -0.1174  0.4462  0.4011
  554MOL0    Cl74699   5.703   8.476  -2.703  0.4860  0.2061  0.3417
  554MOL0     C74700   5.676   9.135  -1.666 -0.3253  0.2927  0.0788
  554MOL0     C74701   5.760   9.221  -1.601 -0.2149 -0.3945  0.7059
  554MOL0     O74702   5.689   9.568  -1.478  0.3770  0.6779 -0.8902
  554MOL0     C74703   5.860   9.687  -1.307 -0.2641 -0.3715  0.2139
  554MOL0     C74704   5.942   9.752  -1.217 -0.3143 -0.7434 -0.4485
  554MOL0     N74705   6.714   9.896  -0.867 -0.6203 -0.2977 -0.4060
  554MOL0     N74706   6.692   9.857  -0.745 -0.7575 -0.8777 -0.4288
  554MOL0     C74707   6.276  10.786  -0.003 -0.2442  0.8105  0.3653
  554MOL0     C74708   6.286  10.865   0.116  0.3796 -0.5614  0.3203
  554MOL0     C74709   6.508  11.003   0.510  0.3498  0.1894 -0.3917
  554MOL0     C74710   6.547  11.123   0.441 -0.9635 -0.2525 -0.5259
  554MOL0     C74711   6.607  11.231   0.513  0.4123 -0.7450  0.0572
  554MOL0     C74712   6.662  11.213   0.637 -0.4400 -0.3605 -1.0116
  554MOL0     O74713   6.727  11.314   0.709 -0.0415  0.5638  0.5688
  554MOL0     C74714   6.659  11.346   0.829  0.1400 -0.1493 -1.3015
  554MOL0     C74715   6.747  11.357   0.950 -0.1758  0.3678 -1.1456
  554MOL0     C74716   6.670  11.397   1.079 -0.3991 -0.1077  0.0157
  554MOL0     C74717   6.754  11.457   1.193 -0.1887  0.2229 -0.8918
  554MOL0     C74718   6.779  11.601   1.184 -0.3177  0.3214  0.2918
  554MOL0     C74719   6.785  11.721   1.148  0.0180  0.6587  0.0364
  554MOL0     C74720   6.627  11.099   0.703 -0.6558 -0.0569 -0.4023
  554MOL0     C74721   6.547  11.001   0.644 -0.5185  0.0713  0.1088
  554MOL0     C74722   6.516  10.892   0.741  0.5553 -0.8558 -0.5480
  554MOL0     H74723   6.561  10.691   0.257  0.7128 -1.8271 -1.1599
  554MOL0     H74724   6.546  10.575   0.059  0.8751 -1.3465 -0.2729
  554MOL0     H74725   6.248  10.701  -0.255  1.0694  2.1643  0.5365
  554MOL0     H74726   6.421  10.683  -0.311 -0.4520  0.2503  1.9192
  554MOL0     H74727   6.234  10.577  -0.430 -0.1789  4.7465  1.4701
  554MOL0     H74728   6.214  10.473  -0.283  0.9884 -0.1499  3.1282
  554MOL0     H74729   6.439  10.382  -0.309 -1.3812  0.4403  1.4726
  554MOL0     H74730   6.472  10.474  -0.456 -2.1351  1.0018  0.4453
  554MOL0     H74731   6.243  10.290  -0.406 -0.0977  3.0018  1.2944
  554MOL0     H74732   6.302  10.346  -0.574 -0.5767 -1.5728 -0.5900
  554MOL0     H74733   6.386  10.123  -0.405 -0.5368 -0.3170 -0.2836
  554MOL0     H74734   6.376  10.146  -0.591  2.0788  0.5132 -0.8317
  554MOL0     H74735   6.580  10.213  -0.619  0.2185  0.0259 -1.0875
  554MOL0     H74736   6.602  10.265  -0.454  0.4583  0.6826 -2.8709
  554MOL0     H74737   6.621  10.049  -0.372 -0.1932 -3.0419 -1.0132
  554MOL0     H74738   6.733  10.056  -0.506 -0.0909  2.4364 -3.3120
  554MOL0     H74739   6.608   9.844  -0.495 -1.9214 -0.0332 -1.1655
  554MOL0     H74740   6.458   9.928  -0.523 -0.3433 -0.5266  0.7715
  554MOL0     H74741   6.449  10.075  -0.789 -2.7770 -3.2354 -0.5343
  554MOL0     H74742   6.516  10.139  -1.000  0.0531 -2.4804  2.5998
  554MOL0     H74743   6.678  10.115  -1.062  1.7277  0.9140  1.3655
  554MOL0     H74744   6.499  10.030  -1.233 -0.1021  0.8031 -0.5669
  554MOL0     H74745   6.569   9.884  -1.157  1.6519  0.4453 -0.8705
  554MOL0     H74746   6.313  10.010  -1.038 -2.9431 -1.3733 -0.9060
  554MOL0     H74747   6.380   9.847  -1.008 -1.1562  0.6746  1.9525
  554MOL0     H74748   6.343   9.770  -1.211  0.2801  0.0235  1.9228
  554MOL0     H74749   6.316   9.923  -1.293  0.9445  1.3519  0.8077
  554MOL0     H74750   6.217   9.729  -1.410  0.0853 -1.6491  2.3329
  554MOL0     H74751   6.072   9.567  -1.530  0.4155 -1.4997  0.1781
  554MOL0     H74752   5.692   9.493  -1.805 -1.3171  0.0354  2.1520
  554MOL0     H74753   5.536   9.328  -1.905  0.1661 -2.4397 -1.1494
  554MOL0     H74754   5.693   9.000  -1.925 -0.2780  1.0889  1.5109
  554MOL0     H74755   5.611   8.900  -1.814  0.9839 -0.3246 -0.6247
  554MOL0     H74756   5.420   8.860  -1.964  0.5667  0.0862 -0.9044
  554MOL0     H74757   5.491   8.985  -2.066  0.2629  0.0569  1.2033
  554MOL0     H74758   5.713   8.817  -2.043 -0.2549 -0.1041  1.9528
  554MOL0     H74759   5.587   8.686  -2.041  1.0808 -0.1077 -1.0277
  554MOL0     H74760   5.624   8.861  -2.284 -1.0917  0.2411 -1.2329
  554MOL0     H74761   5.490   8.751  -2.240  0.0295  1.1261  1.1480
  554MOL0     H74762   5.704   8.579  -2.209 -1.9156 -2.3614 -0.4054
  554MOL0     H74763   5.794   8.694  -2.303 -0.4813  2.7092  2.3060
  554MOL0     H74764   5.651   8.496  -2.421  2.2338  1.0036  1.1464
  554MOL0     H74765   5.517   8.592  -2.367  0.6953  2.2769  2.3541
  554MOL0     H74766   5.731   8.709  -2.553  0.3108  0.5982  0.7394
  554MOL0     H74767   5.575   8.778  -2.515  3.0262  1.3041  0.2337
  554MOL0     H74768   5.488   8.579  -2.652  0.0019 -0.1262 -0.5488
  554MOL0     H74769   5.602   8.681  -2.746 -0.6116  0.2801  0.2055
  554MOL0     H74770   5.659   9.036  -1.625 -3.6491  0.7406  0.0331
  554MOL0     H74771   5.819   9.180  -1.520  0.6405  4.2687  2.7588
  554MOL0     H74772   5.753   9.700  -1.292 -0.8371  0.0692 -3.3715
  554MOL0     H74773   5.909   9.776  -1.117  1.1052  1.7523 -0.5111
  554MOL0     H74774   6.194  10.822  -0.065 -0.2680 -1.6636 -1.1678
  554MOL0     H74775   6.223  10.951   0.137 -0.8967 -1.1866 -0.7918
  554MOL0     H74776   6.511  11.148   0.342  0.1655  2.0902 -0.4166
  554MOL0     H74777   6.645  11.320   0.464  2.7192 -0.1976  2.5700
  554MOL0     H74778   6.572  11.283   0.850  0.8832 -0.2933  1.9383
  554MOL0     H74779   6.612  11.444   0.819 -2.7963 -1.3422 -0.3941
  554MOL0     H74780   6.830  11.428   0.942 -0.1664  0.9687  2.3924
  554MOL0     H74781   6.793  11.262   0.976 -0.6411 -0.0027 -1.6582
  554MOL0     H74782   6.616  11.307   1.109 -3.0541  0.4767 -2.5712
  554MOL0     H74783   6.590  11.463   1.044 -0.9924 -0.2713  1.0132
  554MOL0     H74784   6.698  11.444   1.286  1.7665  0.8529  0.4253
  554MOL0     H74785   6.844  11.397   1.206  0.0483  0.9845  1.4458
  554MOL0     H74786   6.804  11.822   1.117  0.6566  0.1267 -1.4379
  554MOL0     H74787   6.682  11.080   0.794  0.9721  0.0991 -1.3064
  554MOL0     H74788   6.571  10.897   0.835  0.4078 -0.5630 -0.4754
  554MOL0     H74789   6.411  10.910   0.765  0.5776 -1.7396  0.2628
  554MOL0     H74790   6.534  10.791   0.705  2.3612  0.1088 -2.6072
  555MOL0     O74791   8.025  10.621   5.961  0.0434 -0.5066  0.3499
  555MOL0     C74792   8.028  10.508   5.998 -0.2526  0.7564 -0.3344
  555MOL0     O74793   8.146  10.434   6.030 -0.1566  0.9705  1.0413
  555MOL0     C74794   8.264  10.484   6.002 -0.0936 -0.0827 -0.4940
  555MOL0     C74795   8.343  10.531   6.107  0.3491  0.4439  0.8595
  555MOL0     C74796   8.471  10.585   6.069  0.1426 -1.0813  0.1471
  555MOL0     C74797   8.519  10.591   5.944  0.3367 -0.7684  0.2977
  555MOL0     O74798   8.643  10.628   5.908 -0.0787  1.1115  0.3070
  555MOL0     C74799   8.684  10.753   5.947  0.1884 -0.4957 -0.6194
  555MOL0     C74800   8.823  10.791   5.900  0.5581  0.1771  0.3830
  555MOL0     C74801   8.842  10.946   5.925  0.2863 -0.1889 -0.2353
  555MOL0     C74802   8.961  11.005   5.846  0.1953  0.5882  0.2956
  555MOL0     C74803   8.970  11.153   5.901 -0.4574 -0.8894  0.0456
  555MOL0     C74804   9.096  11.226   5.856 -1.1557  0.7625  0.0964
  555MOL0     C74805   9.103  11.365   5.892  0.7901 -1.5512 -1.1581
  555MOL0     C74806   9.227  11.449   5.861  0.0440  0.4196 -0.9645
  555MOL0     N74807   9.336  11.395   5.937  0.4458  0.7927 -0.2181
  555MOL0     C74808   9.441  11.312   5.896  1.1942 -0.4109 -1.0611
  555MOL0     C74809   9.513  11.282   6.008  0.4084 -0.8788  0.2037
  555MOL0     C74810   9.633  11.196   6.010 -0.4144  0.2022 -0.1669
  555MOL0     C74811   9.585  11.054   6.033 -0.3573 -0.8617  0.7002
  555MOL0     C74812   9.507  10.989   5.926  0.9148 -0.2840 -0.2342
  555MOL0     C74813   9.467  10.845   5.970 -0.0855 -0.3513 -0.0377
  555MOL0     O74814   9.587  10.766   5.986  0.5059  0.5949  0.3690
  555MOL0     C74815   9.574  10.628   5.989 -0.0630 -1.0491  0.2069
  555MOL0     C74816   9.689  10.553   5.977 -1.0029 -0.1067  0.1687
  555MOL0     C74817   9.682  10.417   5.975  0.2507  0.6417  0.1961
  555MOL0     C74818   9.562  10.349   5.984  0.5544 -0.2580 -0.2104
  555MOL0     C74819   9.551  10.201   6.001 -0.5364  0.4814 -0.8883
  555MOL0     O74820   9.673  10.132   6.003  0.7080  0.2970  0.0218
  555MOL0     C74821   9.671   9.997   6.013 -0.4805  0.5934  1.0433
  555MOL0     C74822   9.729   9.924   5.903 -0.0914 -0.4113  0.7338
  555MOL0     C74823   9.765   9.788   5.919 -0.3425 -1.4322 -0.5771
  555MOL0     C74824   9.737   9.723   6.040 -0.7409  0.3172  0.5422
  555MOL0     O74825   9.775   9.589   6.066 -0.0409 -0.0289 -0.8353
  555MOL0     C74826   9.806   9.504   5.954 -0.0836 -0.6938 -0.2713
  555MOL0     C74827   9.761   9.363   5.962  0.0401 -0.0949  0.2923
  555MOL0     C74828   9.823   9.298   6.088  0.1541 -0.2026 -0.1414
  555MOL0     C74829   9.970   9.291   6.098 -0.2543  0.2819 -0.0085
  555MOL0     C74830  10.024   9.236   6.237  0.0688  0.2339 -0.2627
  555MOL0     C74831   9.997   9.320   6.363 -0.6993 -0.0298  0.1566
  555MOL0     C74832  10.108   9.428   6.398  0.0621  0.2328 -0.6581
  555MOL0     C74833  10.241   9.367   6.438  0.2468  0.4920 -0.0841
  555MOL0    Cl74834  10.336   9.500   6.501  0.4973  0.1240 -0.4539
  555MOL0     C74835   9.672   9.791   6.146 -0.6924 -0.6608  0.3607
  555MOL0     C74836   9.649   9.927   6.132 -0.3826 -0.6502 -0.0490
  555MOL0     O74837   9.442  10.146   6.013  0.2101 -0.7365  0.5923
  555MOL0     C74838   9.439  10.423   5.984 -0.5569 -0.5586 -0.4316
  555MOL0     C74839   9.451  10.561   6.001  0.2871  0.3633 -0.1468
  555MOL0     N74840   9.448  11.336   6.117 -0.0245  0.1547 -0.8137
  555MOL0     N74841   9.348  11.406   6.071  0.0818 -0.7088  0.4658
  555MOL0     C74842   8.441  10.539   5.841  0.1219 -0.1776 -0.2147
  555MOL0     C74843   8.313  10.480   5.870 -0.4058  0.0233 -0.0427
  555MOL0     C74844   7.905  10.420   6.005  1.2468  0.9733 -0.1385
  555MOL0     C74845   7.792  10.477   6.072 -0.3573  0.4586  0.8623
  555MOL0     C74846   7.671  10.402   6.077  0.0624 -1.0754  0.4697
  555MOL0     C74847   7.644  10.286   6.009  0.0093 -1.2599  0.8148
  555MOL0     O74848   7.521  10.225   6.012 -0.4173 -0.0885 -0.0068
  555MOL0     C74849   7.442  10.292   5.910 -0.2129 -0.2005  0.0615
  555MOL0     C74850   7.435  10.221   5.776 -0.0204  1.8314 -0.0086
  555MOL0     C74851   7.415  10.071   5.781  0.0306 -0.3957 -0.0773
  555MOL0     C74852   7.282  10.028   5.830  0.1344  0.5381  0.5154
  555MOL0     C74853   7.169  10.072   5.751  0.4704  0.4034  0.2047
  555MOL0     C74854   7.060  10.085   5.699 -0.2887 -0.3637 -0.3585
  555MOL0     C74855   7.763  10.227   5.949  0.5847 -0.7246 -0.8992
  555MOL0     C74856   7.885  10.285   5.953  0.4130 -0.0499 -0.4427
  555MOL0     C74857   7.999  10.210   5.894  0.1452  0.7664 -0.1236
  555MOL0     H74858   8.320  10.530   6.213  2.2765 -3.2926  1.4244
  555MOL0     H74859   8.521  10.630   6.154  0.0413 -2.2829  0.8633
  555MOL0     H74860   8.610  10.828   5.920  0.9200 -0.3070 -2.1741
  555MOL0     H74861   8.694  10.759   6.056  4.3291  0.2181 -0.8844
  555MOL0     H74862   8.818  10.766   5.793  1.7650  0.7749  0.1710
  555MOL0     H74863   8.901  10.731   5.948 -0.0239  1.8787  3.7721
  555MOL0     H74864   8.860  10.953   6.033 -4.2094 -0.3393  0.7183
  555MOL0     H74865   8.749  10.999   5.906  1.2224  2.1609  1.2896
  555MOL0     H74866   9.054  10.948   5.847 -0.4592 -0.5676 -1.0986
  555MOL0     H74867   8.931  11.004   5.741 -0.5100 -0.7300  0.4956
  555MOL0     H74868   8.871  11.199   5.885 -0.0659  0.3894  1.0801
  555MOL0     H74869   8.990  11.151   6.009 -1.0104 -2.1186  0.1391
  555MOL0     H74870   9.186  11.195   5.909 -1.0690  3.4288  1.6780
  555MOL0     H74871   9.103  11.222   5.747 -3.6538  0.0904 -0.1012
  555MOL0     H74872   9.096  11.359   6.001  1.9585 -1.7006 -1.0721
  555MOL0     H74873   9.012  11.413   5.855  1.4919  0.0173 -0.9676
  555MOL0     H74874   9.255  11.464   5.756  4.5671 -3.2855 -0.6169
  555MOL0     H74875   9.201  11.550   5.893 -3.7533 -0.6803 -0.0830
  555MOL0     H74876   9.474  11.281   5.797 -0.4036  1.6947 -2.3543
  555MOL0     H74877   9.677  11.203   5.910  4.4860  1.1321  1.7627
  555MOL0     H74878   9.704  11.234   6.085 -0.2607  0.9547 -0.6783
  555MOL0     H74879   9.664  10.983   6.061 -1.6281 -2.9321 -0.6817
  555MOL0     H74880   9.524  11.050   6.123 -1.8286 -1.4481 -0.2839
  555MOL0     H74881   9.560  10.976   5.831  0.1372 -1.3190 -0.5442
  555MOL0     H74882   9.415  11.044   5.905  1.7482  2.1726  1.9973
  555MOL0     H74883   9.415  10.797   5.887  1.7398 -2.8389  0.1249
  555MOL0     H74884   9.405  10.835   6.060  0.3818 -1.3152  0.1996
  555MOL0     H74885   9.782  10.609   5.971 -1.7279  1.0502 -1.0283
  555MOL0     H74886   9.774  10.364   5.951  1.1999  1.5808  1.6265
  555MOL0     H74887   9.741   9.969   5.805 -3.2599  1.7920  1.2018
  555MOL0     H74888   9.826   9.736   5.846  2.2058  2.9773 -1.9727
  555MOL0     H74889   9.760   9.539   5.861 -1.9582 -0.8161  0.5541
  555MOL0     H74890   9.914   9.505   5.941 -0.2664  0.0545 -1.8800
  555MOL0     H74891   9.652   9.353   5.969 -0.0913 -0.4992 -1.6353
  555MOL0     H74892   9.792   9.298   5.880  2.5642 -1.5261  2.2467
  555MOL0     H74893   9.789   9.351   6.178  0.9513  1.4167 -0.7572
  555MOL0     H74894   9.786   9.195   6.090  5.5332 -2.4756  2.7229
  555MOL0     H74895  10.027   9.376   6.060 -2.4777  0.6481 -2.8640
  555MOL0     H74896  10.003   9.225   6.017 -2.9708 -0.0255 -0.9659
  555MOL0     H74897  10.132   9.218   6.236 -0.3028 -2.3248 -1.9710
  555MOL0     H74898   9.968   9.143   6.246 -0.2371  0.4382 -0.0352
  555MOL0     H74899   9.907   9.380   6.348 -0.6620 -0.2184 -0.9177
  555MOL0     H74900   9.969   9.262   6.452  0.3795 -0.1107  0.4498
  555MOL0     H74901  10.061   9.490   6.476  0.6903 -2.3827  1.9438
  555MOL0     H74902  10.122   9.493   6.311 -0.6016  1.3265  0.0262
  555MOL0     H74903  10.225   9.281   6.503  2.7478 -1.0433 -1.3588
  555MOL0     H74904  10.298   9.335   6.350 -0.3054 -0.2225 -0.1927
  555MOL0     H74905   9.688   9.758   6.248 -1.7107 -1.3630  0.3161
  555MOL0     H74906   9.634   9.987   6.221  3.9056 -0.2566  0.6271
  555MOL0     H74907   9.343  10.373   5.979 -1.9829  2.1114 -3.5984
  555MOL0     H74908   9.364  10.621   6.026  0.8616  2.5172 -2.8517
  555MOL0     H74909   8.482  10.538   5.741  1.3502 -1.0402  0.2791
  555MOL0     H74910   8.252  10.435   5.793 -1.2530  2.9312 -1.2246
  555MOL0     H74911   7.797  10.568   6.131 -2.5787  0.4217  1.1834
  555MOL0     H74912   7.589  10.449   6.132  0.3400  1.3904 -1.0597
  555MOL0     H74913   7.474  10.393   5.881 -0.5067 -0.4431 -1.1809
  555MOL0     H74914   7.340  10.301   5.948 -1.7318 -5.7710 -1.8522
  555MOL0     H74915   7.517  10.251   5.710  0.8153 -1.6697 -0.7913
  555MOL0     H74916   7.348  10.259   5.721 -0.6414 -0.0611 -0.4301
  555MOL0     H74917   7.486  10.036   5.857 -2.1561 -0.2960  2.1445
  555MOL0     H74918   7.448  10.019   5.691  1.5433 -3.6921  2.1697
  555MOL0     H74919   7.288   9.919   5.824 -1.5968  0.4692 -0.6937
  555MOL0     H74920   7.262  10.039   5.937 -0.3859 -0.6766  0.5685
  555MOL0     H74921   6.959  10.079   5.666 -0.2680 -1.4154 -0.2592
  555MOL0     H74922   7.755  10.126   5.910 -1.3204 -0.8085 -0.3917
  555MOL0     H74923   8.031  10.274   5.811  2.2294  1.1196  0.8974
  555MOL0     H74924   8.081  10.194   5.964 -0.1854 -0.6095 -0.0179
  555MOL0     H74925   7.963  10.119   5.844 -1.7036  1.6993 -0.5984
  556MOL0     O74926   0.319  10.733  10.507 -0.5991 -0.1763 -0.7382
  556MOL0     C74927   0.267  10.631  10.470  0.1994  0.4910  0.0707
  556MOL0     O74928   0.133  10.620  10.437  0.0195 -0.4223 -0.5169
  556MOL0     C74929   0.058  10.731  10.456  0.3503  0.0162  1.3033
  556MOL0     C74930   0.030  10.806  10.571 -1.1321 -0.0425  0.4627
  556MOL0     C74931  -0.062  10.917  10.563 -0.1795  1.1183 -0.5445
  556MOL0     C74932  -0.134  10.942  10.448  0.3514  0.0546 -0.0676
  556MOL0     O74933  -0.221  11.054  10.439 -0.3305  0.7213  0.3711
  556MOL0     C74934  -0.234  11.104  10.303  0.9051  0.5442 -0.4921
  556MOL0     C74935  -0.274  11.254  10.295 -0.5929  0.5853  0.2180
  556MOL0     C74936  -0.420  11.261  10.340 -0.2737 -0.0136 -0.8260
  556MOL0     C74937  -0.467  11.402  10.346 -0.2618 -1.1480 -0.8521
  556MOL0     C74938  -0.481  11.465  10.204 -1.0353 -0.5347 -0.2166
  556MOL0     C74939  -0.525  11.612  10.200  1.2366 -0.4837  0.1359
  556MOL0     C74940  -0.679  11.634  10.178 -0.0076  0.0460  0.0847
  556MOL0     C74941  -0.708  11.779  10.142 -0.6981  0.2626  0.4957
  556MOL0     N74942  -0.845  11.817  10.088 -0.0954  0.8158 -0.4413
  556MOL0     C74943  -0.960  11.767  10.138 -0.2082  0.1184  0.1072
  556MOL0     C74944  -1.060  11.852  10.082  0.0026  1.1199  0.1829
  556MOL0     C74945  -1.207  11.842  10.125 -0.0592  0.2663  0.6640
  556MOL0     C74946  -1.210  11.870  10.275 -0.3276 -0.5929  0.5270
  556MOL0     C74947  -1.353  11.892  10.335  0.8879 -0.0187 -0.1465
  556MOL0     C74948  -1.414  12.030  10.291 -0.3759 -0.3294 -0.3505
  556MOL0     O74949  -1.539  12.044  10.363  0.1624  0.1479 -0.0580
  556MOL0     C74950  -1.651  11.985  10.305  0.5493 -0.6920 -0.0168
  556MOL0     C74951  -1.711  12.046  10.185 -0.0567 -0.0665  0.5365
  556MOL0     C74952  -1.823  11.993  10.126  0.6850  0.0178  0.9165
  556MOL0     C74953  -1.895  11.878  10.180 -0.9622 -0.4078  0.4043
  556MOL0     C74954  -2.026  11.831  10.127  0.4235 -0.5186 -0.3559
  556MOL0     O74955  -2.061  11.711  10.160 -0.4763  0.5782 -0.1675
  556MOL0     C74956  -2.166  11.652  10.097  0.3023  0.1391  0.0327
  556MOL0     C74957  -2.135  11.548  10.009  0.3148 -0.2022 -0.1391
  556MOL0     C74958  -2.233  11.480   9.938 -0.0386 -0.1671 -0.1579
  556MOL0     C74959  -2.369  11.501   9.961  0.3833  0.7389 -1.0495
  556MOL0     O74960  -2.452  11.399   9.920 -0.7019  0.1966 -0.4103
  556MOL0     C74961  -2.584  11.402   9.968 -0.0450 -0.3940 -0.2193
  556MOL0     C74962  -2.646  11.271   9.918  1.2983  0.0858 -0.7226
  556MOL0     C74963  -2.757  11.221  10.014  0.3591  0.0740  0.5196
  556MOL0     C74964  -2.823  11.088   9.969  0.8496  0.2736  0.1424
  556MOL0     C74965  -2.883  11.098   9.829 -1.0989  0.0574 -0.1746
  556MOL0     C74966  -2.980  10.982   9.809  0.3907 -1.2079 -1.6350
  556MOL0     C74967  -2.921  10.855   9.781 -0.4172 -0.1624  0.3722
  556MOL0     C74968  -3.016  10.742   9.749  0.2760 -1.7547 -0.4944
  556MOL0    Cl74969  -2.915  10.602   9.676  0.1471  0.4315  0.1280
  556MOL0     C74970  -2.402  11.603  10.050  0.2312 -0.2829  0.0370
  556MOL0     C74971  -2.303  11.671  10.119  0.1790  0.1647 -0.0793
  556MOL0     O74972  -2.094  11.912  10.057 -0.5238 -0.6612  0.8324
  556MOL0     C74973  -1.823  11.819  10.288  0.2765  0.0708  0.1383
  556MOL0     C74974  -1.701  11.863  10.345 -0.1710 -0.4509 -0.3793
  556MOL0     N74975  -1.006  11.939   9.994 -0.2539 -0.0071  0.3376
  556MOL0     N74976  -0.875  11.922  10.000 -0.1607 -0.0158 -0.5398
  556MOL0     C74977  -0.111  10.858  10.336  0.2570 -0.7747 -0.3844
  556MOL0     C74978  -0.013  10.760  10.339  0.0088  0.0683 -0.4249
  556MOL0     C74979   0.344  10.509  10.438 -0.0627 -0.7114 -0.8504
  556MOL0     C74980   0.299  10.429  10.327  0.4776 -0.1444 -0.0828
  556MOL0     C74981   0.368  10.323  10.280  0.3949  0.6533  0.0427
  556MOL0     C74982   0.493  10.283  10.331  1.1101  0.7157  0.4269
  556MOL0     O74983   0.561  10.187  10.269  0.3811  1.0386 -0.2502
  556MOL0     C74984   0.689  10.155  10.336 -0.2584 -0.1914  0.1573
  556MOL0     C74985   0.783  10.071  10.249  0.0289  0.0802  0.3522
  556MOL0     C74986   0.929  10.070  10.297  0.9106  0.1035 -0.2207
  556MOL0     C74987   1.004   9.950  10.245  0.2136  0.3841  0.6672
  556MOL0     C74988   1.022   9.985  10.103 -0.6860  0.6730  0.1880
  556MOL0     C74989   1.057  10.022   9.995 -0.1933 -0.6701  0.4484
  556MOL0     C74990   0.527  10.354  10.450  0.8334  0.0209 -0.4394
  556MOL0     C74991   0.461  10.471  10.501 -0.1106 -0.6543  1.1018
  556MOL0     C74992   0.524  10.550  10.617  0.3394 -0.3663  0.1474
  556MOL0     H74993   0.088  10.792  10.662  0.6531  3.5444  0.0246
  556MOL0     H74994  -0.064  10.969  10.659  1.7959 -0.3881  0.3952
  556MOL0     H74995  -0.137  11.100  10.253  0.9567 -3.6942 -0.3592
  556MOL0     H74996  -0.301  11.039  10.247  1.2705  0.1459 -0.4701
  556MOL0     H74997  -0.259  11.269  10.188  4.1433  0.2249  0.5962
  556MOL0     H74998  -0.205  11.313  10.357  0.8132  0.6695 -1.3557
  556MOL0     H74999  -0.431  11.207  10.434  2.2056 -3.7292 -2.4367
  556MOL0     H75000  -0.484  11.221  10.262 -2.3101  2.0767 -0.3434
  556MOL0     H75001  -0.569  11.396  10.385 -0.6737  1.6916 -1.3053
  556MOL0     H75002  -0.414  11.462  10.420 -1.8808  1.1183 -1.4185
  556MOL0     H75003  -0.379  11.461  10.162 -0.8702 -1.4296  0.2343
  556MOL0     H75004  -0.545  11.404  10.139  0.9762 -3.5410  0.4170
  556MOL0     H75005  -0.498  11.650  10.298  0.6951  0.3468 -0.0337
  556MOL0     H75006  -0.465  11.658  10.121  0.3664  3.6298  1.6573
  556MOL0     H75007  -0.732  11.622  10.273 -2.3337  3.9470 -0.4871
  556MOL0     H75008  -0.714  11.565  10.102  0.9808  0.5128 -0.8280
  556MOL0     H75009  -0.692  11.835  10.234  3.0178 -1.2319  0.9475
  556MOL0     H75010  -0.637  11.808  10.064 -1.0017 -1.8468 -0.6353
  556MOL0     H75011  -0.974  11.689  10.212 -1.8976 -0.1653 -0.4538
  556MOL0     H75012  -1.256  11.929  10.082  2.5108  1.3826 -0.1570
  556MOL0     H75013  -1.270  11.755  10.101 -1.7690  1.6889 -0.2181
  556MOL0     H75014  -1.175  11.784  10.332 -0.1984 -0.7628  0.1921
  556MOL0     H75015  -1.142  11.951  10.304 -2.0989  0.8152  0.8699
  556MOL0     H75016  -1.341  11.887  10.443 -0.8433  2.5751  0.2530
  556MOL0     H75017  -1.419  11.813  10.297 -0.9664  0.9638  0.8929
  556MOL0     H75018  -1.431  12.047  10.184  0.8814  0.3968 -0.4624
  556MOL0     H75019  -1.341  12.108  10.314 -0.2950 -0.9311  1.5340
  556MOL0     H75020  -1.665  12.142  10.162  0.1869 -0.0095  1.2477
  556MOL0     H75021  -1.874  12.045  10.046 -0.9910 -1.9922  0.5999
  556MOL0     H75022  -2.029  11.528   9.996  0.3899  0.9120 -1.4719
  556MOL0     H75023  -2.211  11.392   9.878 -2.5146 -1.2183  0.3469
  556MOL0     H75024  -2.597  11.422  10.075  0.0091  1.5560 -0.5488
  556MOL0     H75025  -2.623  11.496   9.927 -0.0793 -0.0693  0.5356
  556MOL0     H75026  -2.693  11.288   9.820  0.2033  0.1109 -0.2152
  556MOL0     H75027  -2.570  11.194   9.900  1.0908 -0.2718 -0.1015
  556MOL0     H75028  -2.727  11.207  10.118 -2.3899  0.6554  1.4717
  556MOL0     H75029  -2.836  11.297  10.010 -0.0288 -0.3599 -1.5843
  556MOL0     H75030  -2.899  11.055  10.040  1.9558 -0.3335  1.0810
  556MOL0     H75031  -2.764  10.997   9.955  0.6081  0.4734 -2.7924
  556MOL0     H75032  -2.810  11.097   9.748 -3.7939 -0.1960 -2.7720
  556MOL0     H75033  -2.933  11.194   9.812  1.2275  1.3421 -0.1509
  556MOL0     H75034  -3.040  10.978   9.901  3.4368  1.4384  0.7163
  556MOL0     H75035  -3.040  11.010   9.722  0.1592 -1.7780 -1.6586
  556MOL0     H75036  -2.858  10.815   9.861 -0.0858 -0.1572  0.1154
  556MOL0     H75037  -2.856  10.868   9.694 -1.9368  2.1363 -0.5359
  556MOL0     H75038  -3.063  10.701   9.840 -2.0965  2.1570  0.2688
  556MOL0     H75039  -3.090  10.782   9.680 -1.1086  0.6218  2.1562
  556MOL0     H75040  -2.504  11.635  10.068  0.4091  1.6395 -1.8985
  556MOL0     H75041  -2.342  11.742  10.191 -1.9008 -0.9752 -0.0076
  556MOL0     H75042  -1.865  11.726  10.324  0.5189 -0.1323 -0.0979
  556MOL0     H75043  -1.642  11.811  10.420 -2.9991 -0.3626  2.0746
  556MOL0     H75044  -0.173  10.864  10.247  2.2594 -0.5088 -1.8222
  556MOL0     H75045  -0.005  10.698  10.250 -1.0385  1.1346 -1.3031
  556MOL0     H75046   0.207  10.456  10.277 -1.5669 -2.3374  2.1589
  556MOL0     H75047   0.335  10.272  10.190  1.5744 -1.3659  0.6919
  556MOL0     H75048   0.670  10.096  10.426  1.9157 -2.0981 -0.5199
  556MOL0     H75049   0.746  10.241  10.372 -0.8888  0.2311  0.1386
  556MOL0     H75050   0.776  10.112  10.148 -0.7493  0.3657  0.5092
  556MOL0     H75051   0.756   9.965  10.244  2.3226 -0.7260  3.0716
  556MOL0     H75052   0.935  10.055  10.406  2.8027 -2.1446 -0.5626
  556MOL0     H75053   0.983  10.161  10.273  0.1413  0.4272 -0.7481
  556MOL0     H75054   1.103   9.938  10.291  1.2484  2.6376 -0.8074
  556MOL0     H75055   0.949   9.857  10.264  3.1116 -1.6570 -0.0863
  556MOL0     H75056   1.076  10.052   9.894 -1.0332  1.0356  0.7512
  556MOL0     H75057   0.614  10.324  10.507  1.6735 -0.0630 -1.7328
  556MOL0     H75058   0.549  10.653  10.591  0.9308 -0.8149 -1.1517
  556MOL0     H75059   0.438  10.536  10.683 -0.6895 -0.4720 -1.1675
  556MOL0     H75060   0.599  10.497  10.676  1.0270 -1.2111 -1.4162
  557MOL0     O75061   3.770   9.885   2.499 -0.3482 -0.7507  0.0838
  557MOL0     C75062   3.698   9.909   2.400  0.2465 -0.5327 -0.4423
  557MOL0     O75063   3.693   9.835   2.284 -0.0245  0.5006 -0.2577
  557MOL0     C75064   3.763   9.714   2.303  0.2657  0.1838  0.1823
  557MOL0     C75065   3.695   9.601   2.348  0.3832  0.6834  0.4373
  557MOL0     C75066   3.779   9.492   2.386  0.0130 -0.2280  0.8349
  557MOL0     C75067   3.912   9.486   2.374 -0.2870  0.1105  0.0248
  557MOL0     O75068   3.975   9.363   2.404  0.0618 -0.1982  0.2083
  557MOL0     C75069   4.015   9.294   2.286  0.3724  0.1507 -0.1611
  557MOL0     C75070   4.094   9.171   2.325 -0.2655  0.4691  0.2582
  557MOL0     C75071   4.237   9.212   2.371  0.4648  0.1057  0.0669
  557MOL0     C75072   4.321   9.088   2.400 -0.1079 -0.0952 -0.2011
  557MOL0     C75073   4.465   9.124   2.430 -0.1781  0.1292 -0.3297
  557MOL0     C75074   4.559   9.003   2.420 -0.6566 -0.2779  0.3494
  557MOL0     C75075   4.709   9.056   2.415 -0.3027  0.3306  0.4156
  557MOL0     C75076   4.804   8.932   2.411 -0.5049 -0.1545  0.6522
  557MOL0     N75077   4.819   8.877   2.273  0.9343  0.4804 -0.7495
  557MOL0     C75078   4.917   8.921   2.186  0.1382 -0.3181  0.3107
  557MOL0     C75079   4.924   8.828   2.088 -0.3815 -0.1400  0.1052
  557MOL0     C75080   5.037   8.825   1.994  0.6205 -0.8938  0.3172
  557MOL0     C75081   4.993   8.864   1.848 -0.0183 -0.1523 -0.1070
  557MOL0     C75082   5.110   8.898   1.760  0.9436  0.5483  1.0223
  557MOL0     C75083   5.063   8.926   1.613 -0.2777  0.3352  1.1336
  557MOL0     O75084   5.043   8.804   1.539  0.1214  0.1925  0.2928
  557MOL0     C75085   5.157   8.728   1.506 -0.3538 -0.2232 -0.4004
  557MOL0     C75086   5.275   8.790   1.458 -1.1983  0.1400  0.5427
  557MOL0     C75087   5.390   8.711   1.445  0.6063 -0.5982  0.6264
  557MOL0     C75088   5.404   8.569   1.466 -0.0134 -0.8349  0.0560
  557MOL0     C75089   5.528   8.493   1.448 -0.8474 -0.4552 -1.0702
  557MOL0     O75090   5.612   8.544   1.363  0.3258 -0.9691  0.1103
  557MOL0     C75091   5.700   8.454   1.307  0.8360 -0.9514 -0.3629
  557MOL0     C75092   5.706   8.427   1.175  0.2093 -0.2076  0.0708
  557MOL0     C75093   5.793   8.333   1.110  0.0333  0.2205 -0.0414
  557MOL0     C75094   5.903   8.282   1.187 -0.1927 -0.7444  0.5562
  557MOL0     O75095   5.996   8.191   1.144  0.0279  0.4549  0.3144
  557MOL0     C75096   5.974   8.107   1.033  1.4136 -0.2234 -0.4445
  557MOL0     C75097   6.077   8.001   1.025 -0.5683 -1.1199  0.1692
  557MOL0     C75098   6.083   7.882   1.123 -0.5246  0.3200 -1.1367
  557MOL0     C75099   5.961   7.794   1.165 -0.0814 -0.9877  1.1055
  557MOL0     C75100   5.980   7.746   1.306  0.0446 -0.4765  0.7285
  557MOL0     C75101   6.106   7.678   1.352 -0.0222  0.2182 -0.8713
  557MOL0     C75102   6.103   7.661   1.500 -0.2343  0.0244 -1.5450
  557MOL0     C75103   6.227   7.592   1.558  0.4674  0.3277  0.1424
  557MOL0    Cl75104   6.165   7.493   1.697  0.7940  0.9408  0.5959
  557MOL0     C75105   5.904   8.325   1.320  0.3380  1.0981  0.1565
  557MOL0     C75106   5.798   8.407   1.380  0.1999 -0.0898  0.5225
  557MOL0     O75107   5.536   8.388   1.512  0.2113 -0.2836 -0.7321
  557MOL0     C75108   5.279   8.515   1.505  0.2878 -0.0965 -0.3509
  557MOL0     C75109   5.159   8.584   1.525  0.4225  0.3251  0.1495
  557MOL0     N75110   4.824   8.735   2.115 -0.1070  0.0399  0.2825
  557MOL0     N75111   4.761   8.767   2.223 -1.2113 -0.5793 -0.3207
  557MOL0     C75112   3.974   9.598   2.319  0.3284 -0.5193 -0.6208
  557MOL0     C75113   3.905   9.711   2.287  0.3566  0.7164 -0.3512
  557MOL0     C75114   3.599  10.026   2.401 -1.1951  0.6839 -0.3793
  557MOL0     C75115   3.542  10.061   2.270 -0.3037  1.3025  0.1233
  557MOL0     C75116   3.464  10.176   2.257 -0.0560 -0.3757 -0.1639
  557MOL0     C75117   3.444  10.259   2.377 -0.0247  0.9300  0.2578
  557MOL0     O75118   3.348  10.357   2.377 -0.3427 -0.0725  0.2154
  557MOL0     C75119   3.216  10.315   2.322 -0.8633 -1.5001 -0.0700
  557MOL0     C75120   3.102  10.354   2.410 -0.3483  0.6736  0.0140
  557MOL0     C75121   2.958  10.299   2.371  0.9278  0.2235  0.0858
  557MOL0     C75122   2.941  10.148   2.385 -0.4144  0.7218 -0.6990
  557MOL0     C75123   2.813  10.106   2.325 -0.6669  0.5058 -1.3339
  557MOL0     C75124   2.705  10.055   2.300  0.1221  0.9782 -0.2885
  557MOL0     C75125   3.504  10.230   2.491  0.3047 -0.4152 -0.6080
  557MOL0     C75126   3.581  10.119   2.512 -0.4498 -0.5721 -0.0360
  557MOL0     C75127   3.626  10.091   2.650 -0.5478  0.5113 -0.4284
  557MOL0     H75128   3.589   9.596   2.373  0.4456 -0.0271  0.5808
  557MOL0     H75129   3.715   9.411   2.420 -1.7089 -0.0303 -1.6555
  557MOL0     H75130   3.928   9.263   2.228 -0.3721  0.0023  1.0137
  557MOL0     H75131   4.079   9.364   2.232 -0.2107  1.4651  0.8040
  557MOL0     H75132   4.093   9.122   2.228 -2.2919  1.3616 -0.2321
  557MOL0     H75133   4.043   9.110   2.400 -0.6998 -0.1112 -0.4934
  557MOL0     H75134   4.225   9.270   2.463 -2.4457 -0.7838  0.3355
  557MOL0     H75135   4.281   9.269   2.288  2.1273 -2.4288 -0.8978
  557MOL0     H75136   4.266   9.048   2.486 -0.5534  1.3839  0.2383
  557MOL0     H75137   4.301   9.008   2.329 -4.7838 -0.7141  1.4161
  557MOL0     H75138   4.502   9.199   2.359  1.2283  0.3820  0.6202
  557MOL0     H75139   4.482   9.157   2.533  0.3013 -0.8001 -0.1035
  557MOL0     H75140   4.560   8.930   2.502 -1.6912  1.9855  2.4956
  557MOL0     H75141   4.537   8.963   2.321 -1.6951  1.4754 -0.1636
  557MOL0     H75142   4.715   9.112   2.509 -0.6718  0.5265  0.3231
  557MOL0     H75143   4.722   9.112   2.322  1.4032  4.1462  2.6947
  557MOL0     H75144   4.903   8.962   2.445 -0.3451 -0.2452  0.2751
  557MOL0     H75145   4.759   8.857   2.476  0.1469 -0.6584  0.5338
  557MOL0     H75146   5.001   8.989   2.196 -0.3514  0.3716 -0.1530
  557MOL0     H75147   5.116   8.893   2.026  0.9058 -0.5280 -1.0872
  557MOL0     H75148   5.077   8.723   1.997 -1.7635 -1.9448 -0.6149
  557MOL0     H75149   4.943   8.783   1.794 -0.6868  0.7504 -0.8611
  557MOL0     H75150   4.919   8.943   1.859 -1.4316 -1.5981  1.2422
  557MOL0     H75151   5.191   8.824   1.768 -0.3075 -1.1241 -0.8643
  557MOL0     H75152   5.160   8.986   1.802 -0.7830  0.7198  2.8572
  557MOL0     H75153   5.138   8.983   1.558 -1.1766  1.0553  0.6267
  557MOL0     H75154   4.972   8.987   1.615  1.4138  2.9975  1.1307
  557MOL0     H75155   5.264   8.893   1.427  1.6804 -0.3429 -2.5088
  557MOL0     H75156   5.473   8.763   1.399  0.2925  0.0341  0.7665
  557MOL0     H75157   5.614   8.448   1.120 -1.0071 -4.0918  0.2996
  557MOL0     H75158   5.770   8.326   1.004 -2.2956  4.9861 -0.1131
  557MOL0     H75159   5.878   8.061   1.058  0.5288  2.3705  1.3933
  557MOL0     H75160   5.965   8.168   0.942 -3.3755 -1.1986 -0.9032
  557MOL0     H75161   6.064   7.965   0.923  1.5096  3.5875 -2.0859
  557MOL0     H75162   6.179   8.039   1.011 -1.1970  0.0529 -1.5326
  557MOL0     H75163   6.168   7.818   1.096  2.8980  4.5532 -1.4964
  557MOL0     H75164   6.114   7.947   1.205 -1.2920  1.6290 -1.8566
  557MOL0     H75165   5.954   7.713   1.091 -0.3369 -0.2537  0.3095
  557MOL0     H75166   5.873   7.859   1.162  0.4477 -0.1377  2.8050
  557MOL0     H75167   5.897   7.686   1.344 -0.5282 -0.7063 -0.8107
  557MOL0     H75168   5.988   7.841   1.359  1.6906 -1.4009  2.2351
  557MOL0     H75169   6.106   7.580   1.303 -2.0482  0.3574 -1.2165
  557MOL0     H75170   6.196   7.734   1.325  1.0036 -0.9389 -0.0025
  557MOL0     H75171   6.018   7.596   1.522 -0.6207  1.2044  0.7925
  557MOL0     H75172   6.073   7.756   1.546 -0.7416  0.5793 -2.9633
  557MOL0     H75173   6.269   7.526   1.481  0.6136  0.5680  0.0142
  557MOL0     H75174   6.304   7.666   1.581 -0.2512  1.0866  0.1304
  557MOL0     H75175   5.989   8.307   1.386  0.7140  2.2868  0.0170
  557MOL0     H75176   5.805   8.435   1.485 -0.2563  0.7125  0.3546
  557MOL0     H75177   5.287   8.408   1.523  1.1260 -0.4459 -2.4295
  557MOL0     H75178   5.076   8.535   1.575  0.8438 -0.9337 -0.3278
  557MOL0     H75179   4.081   9.601   2.300  0.1024 -1.1409 -2.0630
  557MOL0     H75180   3.952   9.800   2.246 -0.8533  0.8145 -1.5918
  557MOL0     H75181   3.562  10.004   2.180 -2.6762 -1.3080  1.1080
  557MOL0     H75182   3.430  10.221   2.164  0.8039  1.0240  0.1798
  557MOL0     H75183   3.222  10.208   2.302  0.3747 -1.2412 -1.2015
  557MOL0     H75184   3.210  10.354   2.220 -1.8304 -0.0079  0.5248
  557MOL0     H75185   3.110  10.462   2.427 -0.0392  0.9703 -1.8257
  557MOL0     H75186   3.128  10.296   2.499 -0.0639 -2.4713 -1.9580
  557MOL0     H75187   2.924  10.339   2.275 -1.4255 -1.5470  0.0776
  557MOL0     H75188   2.884  10.341   2.439 -0.7466 -0.7006 -1.0899
  557MOL0     H75189   3.027  10.092   2.345 -0.6100 -1.8075  2.1000
  557MOL0     H75190   2.934  10.120   2.490 -2.2232  0.8581 -0.7621
  557MOL0     H75191   2.612  10.006   2.281 -0.0819  1.7326 -1.3115
  557MOL0     H75192   3.468  10.290   2.575 -0.6863  1.5440 -2.3515
  557MOL0     H75193   3.726  10.131   2.669 -1.2628  1.3633  2.0414
  557MOL0     H75194   3.552  10.127   2.722  2.0767 -1.6573  3.7571
  557MOL0     H75195   3.625   9.983   2.668  2.6870  0.6422  1.4086
  558MOL0     O75196   0.152   0.841   5.674 -0.0170 -0.1194  0.3372
  558MOL0     C75197   0.052   0.907   5.663  0.6587 -0.4253  1.1165
  558MOL0     O75198   0.035   1.033   5.722 -0.8025  0.5672  1.1224
  558MOL0     C75199   0.103   1.066   5.838 -0.4724  0.2283 -0.0191
  558MOL0     C75200   0.171   1.190   5.830  0.3365 -0.4628 -0.3573
  558MOL0     C75201   0.222   1.241   5.949  0.7671  0.1697  0.1340
  558MOL0     C75202   0.220   1.166   6.066 -0.9713 -0.3450 -0.1341
  558MOL0     O75203   0.270   1.233   6.188  0.6285  0.4229  0.1628
  558MOL0     C75204   0.399   1.297   6.169  0.1524 -0.7368  0.4220
  558MOL0     C75205   0.400   1.412   6.268  0.2852  0.3769  0.1134
  558MOL0     C75206   0.521   1.491   6.255 -0.4244  0.0299 -0.4861
  558MOL0     C75207   0.657   1.420   6.234 -0.2174  0.8653  0.6582
  558MOL0     C75208   0.689   1.336   6.360 -0.3942  0.7826  0.2819
  558MOL0     C75209   0.843   1.284   6.354 -0.0420 -0.9553  0.0148
  558MOL0     C75210   0.875   1.167   6.450  0.9537  0.9514 -0.8433
  558MOL0     C75211   0.837   1.205   6.594 -0.5819  0.3089 -0.4757
  558MOL0     N75212   0.904   1.101   6.680  0.0775  0.1292 -0.1233
  558MOL0     C75213   1.037   1.078   6.699  0.4514 -0.0171  0.3798
  558MOL0     C75214   1.036   0.982   6.788 -1.0556  0.5041  0.0309
  558MOL0     C75215   1.170   0.928   6.836  0.8840 -0.2085 -0.6227
  558MOL0     C75216   1.201   0.910   6.984 -0.4639  0.4949 -0.3642
  558MOL0     C75217   1.164   0.769   7.027  0.2845 -0.5427 -0.0481
  558MOL0     C75218   1.282   0.672   6.996  0.1354  0.0153 -0.1497
  558MOL0     O75219   1.344   0.683   6.867 -0.0462 -0.2987 -0.0508
  558MOL0     C75220   1.322   0.577   6.787 -0.1905  0.3354  0.2883
  558MOL0     C75221   1.193   0.546   6.753  0.5610  0.8517  0.3345
  558MOL0     C75222   1.165   0.450   6.651  0.3117 -0.2016  0.2531
  558MOL0     C75223   1.281   0.388   6.594  0.4947 -0.1280  0.5851
  558MOL0     C75224   1.261   0.301   6.468  0.3690  0.2338  0.5339
  558MOL0     O75225   1.145   0.248   6.448 -0.6417 -0.1657  0.0249
  558MOL0     C75226   1.126   0.160   6.346 -0.1881 -0.5441  0.0949
  558MOL0     C75227   1.077   0.198   6.216 -1.8806  1.2109 -0.5797
  558MOL0     C75228   1.041   0.097   6.115  0.8319  0.0174 -1.0844
  558MOL0     C75229   1.071  -0.040   6.152  0.2647 -0.9672  0.2235
  558MOL0     O75230   1.020  -0.140   6.075  0.0016  0.3798 -0.2691
  558MOL0     C75231   0.884  -0.121   6.034  0.1054  0.2979  0.3444
  558MOL0     C75232   0.829  -0.233   5.941  0.7822 -0.2473 -0.0579
  558MOL0     C75233   0.875  -0.204   5.796  0.2516  0.8468  0.0269
  558MOL0     C75234   0.849  -0.331   5.711 -0.4541 -0.8316 -1.0962
  558MOL0     C75235   0.924  -0.319   5.576 -0.2945 -0.0094 -0.0352
  558MOL0     C75236   1.054  -0.399   5.573 -0.1716 -0.2318 -0.0996
  558MOL0     C75237   1.187  -0.326   5.616  1.0531  0.5030 -0.3042
  558MOL0     C75238   1.302  -0.417   5.596 -0.2642  0.1849 -0.3383
  558MOL0    Cl75239   1.322  -0.456   5.426 -0.6240 -0.3431 -0.3856
  558MOL0     C75240   1.148  -0.070   6.263 -0.4867  0.3401 -0.5077
  558MOL0     C75241   1.171   0.025   6.360 -0.4317 -0.1631  0.0362
  558MOL0     O75242   1.367   0.258   6.420  0.0167  0.2069  0.5443
  558MOL0     C75243   1.411   0.422   6.636  0.2726  0.1358  0.4739
  558MOL0     C75244   1.429   0.509   6.737 -0.4839 -0.0633 -0.9135
  558MOL0     N75245   0.910   0.946   6.821  0.3690 -0.1813  0.5551
  558MOL0     N75246   0.829   1.023   6.761  0.1773  0.6062  0.6028
  558MOL0     C75247   0.166   1.042   6.059  0.0084  0.2985 -0.5495
  558MOL0     C75248   0.106   0.985   5.949  0.1070 -0.8116  0.8876
  558MOL0     C75249  -0.049   0.863   5.571 -0.2739  0.1252 -0.7574
  558MOL0     C75250  -0.176   0.908   5.579  0.2653 -0.5774  1.7067
  558MOL0     C75251  -0.281   0.857   5.495 -0.4104 -0.4928  0.4416
  558MOL0     C75252  -0.259   0.760   5.403 -1.0989 -0.6266 -0.3291
  558MOL0     O75253  -0.359   0.698   5.327 -0.0206  0.2098 -0.6653
  558MOL0     C75254  -0.473   0.780   5.295  0.4250  0.7666  0.0924
  558MOL0     C75255  -0.565   0.703   5.201  0.5804 -0.4344  0.0624
  558MOL0     C75256  -0.510   0.598   5.100  0.1341  0.5672  0.0242
  558MOL0     C75257  -0.383   0.660   5.025 -0.0428  0.0672 -0.5227
  558MOL0     C75258  -0.346   0.560   4.919 -0.4327  0.7446  0.3978
  558MOL0     C75259  -0.315   0.490   4.820  0.2924  0.7757 -0.2939
  558MOL0     C75260  -0.121   0.723   5.390  0.0017  0.5001  0.0392
  558MOL0     C75261  -0.017   0.772   5.470 -0.4085  0.3527  0.4290
  558MOL0     C75262   0.123   0.718   5.430  0.1590 -0.3838 -0.5750
  558MOL0     H75263   0.165   1.242   5.735  0.7071  1.5880  0.6970
  558MOL0     H75264   0.257   1.343   5.938 -1.6890  1.0268 -0.2617
  558MOL0     H75265   0.473   1.223   6.203  0.6454 -0.7848 -0.7142
  558MOL0     H75266   0.425   1.333   6.070  0.3483  1.7764  1.3068
  558MOL0     H75267   0.413   1.365   6.366  1.9476  0.1183 -0.2037
  558MOL0     H75268   0.308   1.471   6.259  0.1824  0.0565 -1.0811
  558MOL0     H75269   0.531   1.553   6.345  1.8977  1.2769 -1.5131
  558MOL0     H75270   0.520   1.560   6.170 -2.2975 -1.9846 -2.2149
  558MOL0     H75271   0.663   1.353   6.148 -2.0739  1.2296  0.2183
  558MOL0     H75272   0.745   1.482   6.217 -0.8166  1.4841 -0.2406
  558MOL0     H75273   0.679   1.396   6.451  1.0744  1.7920 -0.1900
  558MOL0     H75274   0.617   1.254   6.367 -0.7419  0.7890 -2.1344
  558MOL0     H75275   0.864   1.253   6.251  2.3177 -2.3023  0.8304
  558MOL0     H75276   0.897   1.377   6.369 -1.0710 -0.5817  1.6665
  558MOL0     H75277   0.980   1.138   6.447  0.0135 -3.1632 -0.3457
  558MOL0     H75278   0.811   1.084   6.419  1.6531  0.6616 -1.5408
  558MOL0     H75279   0.877   1.306   6.612  0.2069  0.6378 -3.4724
  558MOL0     H75280   0.728   1.207   6.603 -0.7699  4.1908 -1.6184
  558MOL0     H75281   1.127   1.133   6.674  1.5273 -1.5625  0.6831
  558MOL0     H75282   1.198   0.836   6.783  1.6580 -1.1060  1.2458
  558MOL0     H75283   1.235   1.006   6.797 -1.0020  1.9243  0.3131
  558MOL0     H75284   1.308   0.925   7.003 -0.3253  1.4333 -1.7292
  558MOL0     H75285   1.141   0.981   7.041  0.7455  1.8090 -0.6735
  558MOL0     H75286   1.076   0.745   6.966 -0.4212  0.0819  0.6949
  558MOL0     H75287   1.142   0.764   7.134  0.8530  1.9238  0.2341
  558MOL0     H75288   1.236   0.573   7.003 -2.1211  1.0521  0.6294
  558MOL0     H75289   1.357   0.677   7.076 -0.6509 -0.3482  0.6234
  558MOL0     H75290   1.114   0.605   6.798  0.0281 -1.8015  3.1525
  558MOL0     H75291   1.067   0.416   6.622 -0.2728  0.5752  1.2163
  558MOL0     H75292   1.082   0.302   6.186  1.3194  1.3473  0.1121
  558MOL0     H75293   0.986   0.131   6.028 -0.7100  3.5914  1.0792
  558MOL0     H75294   0.812  -0.096   6.113  0.9890  0.9116  0.9692
  558MOL0     H75295   0.884  -0.029   5.974  0.8498  0.3249  0.3864
  558MOL0     H75296   0.862  -0.329   5.982 -0.0091 -1.7337 -2.6568
  558MOL0     H75297   0.720  -0.234   5.952  0.9733 -1.1089  2.3689
  558MOL0     H75298   0.814  -0.126   5.748 -1.9409 -2.5515 -3.2814
  558MOL0     H75299   0.981  -0.178   5.796  0.3330  0.6599  2.1550
  558MOL0     H75300   0.743  -0.347   5.692 -0.0572  0.2129 -5.1509
  558MOL0     H75301   0.887  -0.419   5.765 -1.0667 -1.0880 -1.0767
  558MOL0     H75302   0.945  -0.217   5.545 -2.4005  0.9105  1.3363
  558MOL0     H75303   0.857  -0.364   5.502 -0.4971  2.7939 -1.6867
  558MOL0     H75304   1.040  -0.492   5.630  3.0122 -1.2915 -0.8568
  558MOL0     H75305   1.073  -0.432   5.470  1.9830  1.9766 -0.4750
  558MOL0     H75306   1.179  -0.312   5.724  1.1802 -1.4610 -0.0017
  558MOL0     H75307   1.194  -0.237   5.553 -0.7256  2.7432  2.4273
  558MOL0     H75308   1.388  -0.371   5.647 -1.0413 -1.0260  2.2511
  558MOL0     H75309   1.289  -0.508   5.655  0.7423  0.8774  1.0317
  558MOL0     H75310   1.192  -0.170   6.270 -2.2362 -0.3729  1.7470
  558MOL0     H75311   1.225   0.008   6.453 -0.2600  0.4647  0.0545
  558MOL0     H75312   1.500   0.389   6.583 -0.0644  0.5706 -0.3859
  558MOL0     H75313   1.525   0.546   6.773 -0.1945 -0.1135 -1.6052
  558MOL0     H75314   0.166   0.981   6.149 -1.5479 -2.3514 -2.1855
  558MOL0     H75315   0.051   0.891   5.955 -1.8771  0.2915  0.5521
  558MOL0     H75316  -0.199   0.978   5.659  0.2595  1.6379 -0.1541
  558MOL0     H75317  -0.374   0.912   5.499 -0.9004 -1.0674 -1.7132
  558MOL0     H75318  -0.448   0.881   5.262  2.4162 -0.0873 -1.2133
  558MOL0     H75319  -0.534   0.798   5.384  0.7147  2.1994  0.0249
  558MOL0     H75320  -0.631   0.772   5.146 -0.2883 -1.3727 -0.0926
  558MOL0     H75321  -0.618   0.639   5.272  2.7514 -1.5872  0.7214
  558MOL0     H75322  -0.591   0.589   5.027  0.0233  0.7103  0.1299
  558MOL0     H75323  -0.483   0.496   5.130  1.3592  0.5999 -0.8554
  558MOL0     H75324  -0.400   0.758   4.979 -0.6523  0.9894  1.5619
  558MOL0     H75325  -0.298   0.672   5.092  0.6909  3.4751 -1.8296
  558MOL0     H75326  -0.287   0.411   4.754  1.8459  2.1634 -1.3788
  558MOL0     H75327  -0.102   0.657   5.306 -0.4468  0.0313  0.3052
  558MOL0     H75328   0.164   0.655   5.510  1.2484  2.2381  1.1118
  558MOL0     H75329   0.118   0.658   5.339  0.0805 -0.6298 -0.4087
  558MOL0     H75330   0.188   0.805   5.410  0.6691  0.3956  3.4461
  559MOL0     O75331   5.412   8.767   2.831 -0.4482  0.0720 -0.1267
  559MOL0     C75332   5.520   8.712   2.818  0.1383  0.3582  0.1419
  559MOL0     O75333   5.595   8.658   2.918  0.1924  1.1087  0.4538
  559MOL0     C75334   5.529   8.649   3.036 -0.2123  0.9316 -0.6071
  559MOL0     C75335   5.452   8.534   3.071 -0.8408 -0.2566 -0.5149
  559MOL0     C75336   5.391   8.530   3.204  0.5726 -0.2510  0.3197
  559MOL0     C75337   5.409   8.636   3.289  0.2698 -0.1313 -0.3474
  559MOL0     O75338   5.353   8.645   3.412 -0.6559  0.2034  0.3146
  559MOL0     C75339   5.224   8.598   3.443 -0.1709  0.1837  0.8947
  559MOL0     C75340   5.179   8.702   3.547  0.3339 -0.3166  0.0497
  559MOL0     C75341   5.036   8.666   3.575 -0.5845  0.1552  0.6988
  559MOL0     C75342   4.951   8.790   3.603  1.0984  0.1012  0.7382
  559MOL0     C75343   4.795   8.766   3.569 -0.0501  1.2285 -0.3778
  559MOL0     C75344   4.762   8.730   3.424  0.6223 -0.4087 -0.1270
  559MOL0     C75345   4.634   8.651   3.399 -0.0453 -0.2858  0.3069
  559MOL0     C75346   4.518   8.754   3.344  0.3826 -0.7006 -0.3151
  559MOL0     N75347   4.393   8.699   3.281 -0.0295  0.8563  0.3835
  559MOL0     C75348   4.282   8.683   3.349  0.2135 -0.8739  1.0848
  559MOL0     C75349   4.203   8.616   3.267 -0.1940  1.1089 -0.6948
  559MOL0     C75350   4.072   8.557   3.315 -0.1893 -0.2642  0.5406
  559MOL0     C75351   3.945   8.629   3.265  0.6115  0.7019  0.0116
  559MOL0     C75352   3.888   8.748   3.356  0.4181 -0.2777 -0.7042
  559MOL0     C75353   3.755   8.810   3.303  1.2888  0.4559  0.0277
  559MOL0     O75354   3.639   8.712   3.300 -0.4535 -0.6454 -0.3056
  559MOL0     C75355   3.535   8.751   3.376  0.4313 -0.5831 -0.3017
  559MOL0     C75356   3.538   8.751   3.517  0.6678  0.8302 -0.1739
  559MOL0     C75357   3.420   8.804   3.579 -0.6211  0.9497  0.0399
  559MOL0     C75358   3.303   8.835   3.508 -0.1270  0.3162 -0.0650
  559MOL0     C75359   3.173   8.862   3.581  0.0380 -0.0895 -0.1869
  559MOL0     O75360   3.164   8.836   3.714  0.3226 -0.5185  0.4669
  559MOL0     C75361   3.047   8.855   3.781 -0.0890  0.3389 -0.5361
  559MOL0     C75362   3.066   8.848   3.914  0.5055 -0.4427 -0.5613
  559MOL0     C75363   2.957   8.865   4.000  0.5695 -0.1521  0.3269
  559MOL0     C75364   2.822   8.882   3.947 -0.8198  0.1838 -0.1837
  559MOL0     O75365   2.721   8.894   4.037  0.1497 -0.4087  1.0115
  559MOL0     C75366   2.709   9.029   4.088 -0.4166 -0.1376 -0.6438
  559MOL0     C75367   2.657   9.032   4.237 -0.3176 -0.0003 -0.2051
  559MOL0     C75368   2.593   9.167   4.279 -0.5614  0.4862 -0.3116
  559MOL0     C75369   2.693   9.282   4.301 -0.2744  0.3151 -1.0913
  559MOL0     C75370   2.778   9.336   4.179 -0.1585 -0.1967  0.7356
  559MOL0     C75371   2.843   9.466   4.208 -0.4092 -0.1521  0.2022
  559MOL0     C75372   2.937   9.523   4.101 -0.2715  0.1813  0.1403
  559MOL0     C75373   2.982   9.666   4.131 -0.4629 -0.3342 -0.0967
  559MOL0    Cl75374   3.035   9.682   4.300  0.5998 -0.2193  0.1149
  559MOL0     C75375   2.807   8.868   3.807 -0.3337 -0.0930  0.4960
  559MOL0     C75376   2.915   8.850   3.728  0.0796  0.3765  0.7869
  559MOL0     O75377   3.090   8.911   3.512  0.2124  0.3006  0.0865
  559MOL0     C75378   3.313   8.850   3.368 -0.5618 -0.3865 -0.8878
  559MOL0     C75379   3.426   8.801   3.304  0.2613  0.3255  0.4749
  559MOL0     N75380   4.267   8.604   3.147  0.1708  0.1069  0.1096
  559MOL0     N75381   4.384   8.644   3.155 -0.8306 -0.2341  0.8974
  559MOL0     C75382   5.482   8.755   3.246 -0.1682  0.3863  0.0352
  559MOL0     C75383   5.538   8.760   3.118 -0.4994  0.7011 -0.0905
  559MOL0     C75384   5.590   8.733   2.687 -0.1058 -0.1855  0.2254
  559MOL0     C75385   5.568   8.856   2.620 -0.3523 -0.2010  0.6336
  559MOL0     C75386   5.633   8.890   2.499  0.1991 -0.6916 -0.1664
  559MOL0     C75387   5.710   8.794   2.432 -0.3553 -1.1443 -0.1371
  559MOL0     O75388   5.765   8.817   2.305 -0.2890 -0.0278  0.3564
  559MOL0     C75389   5.723   8.926   2.220 -0.5907 -0.4044  0.5588
  559MOL0     C75390   5.581   8.909   2.159  0.2306 -0.9853 -0.1576
  559MOL0     C75391   5.573   8.801   2.051  0.8315 -1.0360 -1.0996
  559MOL0     C75392   5.419   8.787   2.011  0.1887 -0.7668 -0.0332
  559MOL0     C75393   5.398   8.655   1.949 -0.1297 -0.1025 -0.0340
  559MOL0     C75394   5.388   8.546   1.901  0.3322  0.6029 -0.2941
  559MOL0     C75395   5.726   8.678   2.500 -0.5334  0.4909 -0.2392
  559MOL0     C75396   5.675   8.641   2.630 -0.0602 -0.2202 -0.1263
  559MOL0     C75397   5.702   8.500   2.686 -1.1104 -0.3431  1.0651
  559MOL0     H75398   5.444   8.454   2.998  1.7081 -1.8953  0.8605
  559MOL0     H75399   5.341   8.442   3.243  2.4723 -1.1208  0.9171
  559MOL0     H75400   5.161   8.595   3.353  1.5869  0.1186 -0.3859
  559MOL0     H75401   5.243   8.499   3.483  1.0986  0.1391  0.2462
  559MOL0     H75402   5.176   8.795   3.491 -0.9180 -0.9939 -1.0922
  559MOL0     H75403   5.240   8.706   3.638 -0.1994 -3.3312  0.6778
  559MOL0     H75404   5.030   8.600   3.662  1.6154 -1.8219 -0.5525
  559MOL0     H75405   4.998   8.607   3.492 -0.9201 -1.1607  1.7637
  559MOL0     H75406   4.956   8.810   3.710 -1.9226 -1.3697  1.2603
  559MOL0     H75407   4.983   8.876   3.544 -0.9470  0.0004 -0.6585
  559MOL0     H75408   4.751   8.683   3.626 -3.1768 -0.1877 -4.3834
  559MOL0     H75409   4.741   8.853   3.607 -1.1871 -0.4890  2.3174
  559MOL0     H75410   4.759   8.817   3.358 -1.9070 -1.6670 -1.8605
  559MOL0     H75411   4.840   8.671   3.373  1.9118  1.1509 -0.0267
  559MOL0     H75412   4.619   8.612   3.500  6.7616  0.8230  2.2269
  559MOL0     H75413   4.643   8.569   3.328  1.0362 -0.5234  0.7097
  559MOL0     H75414   4.498   8.827   3.422  0.2608  1.5934 -2.3865
  559MOL0     H75415   4.556   8.825   3.269 -2.1992  1.9068  0.6950
  559MOL0     H75416   4.275   8.726   3.449  0.6037  1.1669  0.2766
  559MOL0     H75417   4.072   8.458   3.270  2.6751 -0.3720  0.5764
  559MOL0     H75418   4.082   8.547   3.423  1.1259 -0.0496  0.4585
  559MOL0     H75419   3.958   8.657   3.160  0.4725  1.6793  0.2399
  559MOL0     H75420   3.864   8.555   3.265  1.7726 -0.6251  1.2636
  559MOL0     H75421   3.958   8.831   3.357 -1.3021  1.2426 -0.9370
  559MOL0     H75422   3.883   8.717   3.461 -0.0212  1.2569 -0.2547
  559MOL0     H75423   3.774   8.840   3.200  0.0798 -1.6407 -0.8698
  559MOL0     H75424   3.724   8.895   3.364 -0.0051 -2.1160  3.2877
  559MOL0     H75425   3.622   8.706   3.570 -0.4337 -1.7245 -0.4316
  559MOL0     H75426   3.411   8.805   3.687 -0.4823  1.9216  0.0498
  559MOL0     H75427   3.165   8.842   3.960  0.0057 -1.2091  0.4739
  559MOL0     H75428   2.970   8.867   4.108 -0.1234  1.1388  0.4031
  559MOL0     H75429   2.806   9.079   4.098  0.1241 -1.5677  6.1413
  559MOL0     H75430   2.639   9.094   4.034 -0.7920  1.6608  1.8335
  559MOL0     H75431   2.594   8.943   4.246  2.4875 -2.4186 -2.1957
  559MOL0     H75432   2.745   9.012   4.300  1.3691  0.2662 -2.3380
  559MOL0     H75433   2.509   9.201   4.217 -0.6710  4.4455  1.6896
  559MOL0     H75434   2.550   9.134   4.374  4.4247 -0.1010  2.0628
  559MOL0     H75435   2.775   9.258   4.370 -0.8139 -1.9850 -1.1678
  559MOL0     H75436   2.647   9.365   4.356 -0.9224 -0.7255  0.0122
  559MOL0     H75437   2.715   9.346   4.090  0.1186 -0.0743  0.5546
  559MOL0     H75438   2.856   9.262   4.160 -1.6453 -1.4218 -0.8449
  559MOL0     H75439   2.769   9.542   4.233 -3.6400 -2.8354 -0.4888
  559MOL0     H75440   2.896   9.443   4.302  0.1564 -2.2712 -0.5735
  559MOL0     H75441   2.899   9.509   4.000  1.2868  0.2307 -0.4835
  559MOL0     H75442   3.031   9.467   4.098 -0.3169  0.1407 -1.5268
  559MOL0     H75443   3.073   9.694   4.077  1.5434 -1.5310  2.3958
  559MOL0     H75444   2.896   9.730   4.111 -1.0174 -1.0932 -0.1636
  559MOL0     H75445   2.712   8.870   3.754  0.9625  2.5490 -1.9904
  559MOL0     H75446   2.899   8.827   3.623 -2.0746 -2.1865  1.5731
  559MOL0     H75447   3.229   8.897   3.316  0.8113  0.0261 -2.8743
  559MOL0     H75448   3.418   8.807   3.196 -3.3092  0.2874  0.6243
  559MOL0     H75449   5.496   8.833   3.320 -3.0661  0.9262  0.1205
  559MOL0     H75450   5.607   8.839   3.091 -0.5381  1.5091  2.0049
  559MOL0     H75451   5.498   8.928   2.662  1.4744  1.9704  0.1405
  559MOL0     H75452   5.645   8.986   2.450  0.5511 -1.7645 -2.2936
  559MOL0     H75453   5.787   8.920   2.132 -3.6572  2.1112 -2.1219
  559MOL0     H75454   5.735   9.019   2.277 -1.3113 -1.2909  2.2680
  559MOL0     H75455   5.553   9.006   2.116 -1.2136 -1.1735  0.2937
  559MOL0     H75456   5.516   8.892   2.246  2.3909  1.1854  2.0622
  559MOL0     H75457   5.588   8.703   2.098 -0.6585 -1.0424 -0.5804
  559MOL0     H75458   5.644   8.818   1.970  0.5801  0.9187 -0.9545
  559MOL0     H75459   5.373   8.777   2.110 -0.8495 -1.5168 -0.5728
  559MOL0     H75460   5.384   8.869   1.949  2.0443 -0.5575 -0.8652
  559MOL0     H75461   5.370   8.447   1.864  1.9122 -0.1657  0.8961
  559MOL0     H75462   5.790   8.606   2.449 -2.1359 -0.3489 -1.1797
  559MOL0     H75463   5.770   8.435   2.631 -1.0316  0.6253 -0.0239
  559MOL0     H75464   5.734   8.500   2.791 -0.2361  3.1733  0.9055
  559MOL0     H75465   5.602   8.455   2.683 -2.8420  2.9981  2.5752
  560MOL0     O75466  10.493   9.195   6.292  0.2051 -0.3395  0.4232
  560MOL0     C75467  10.496   9.074   6.313 -0.4393 -1.0351 -0.0029
  560MOL0     O75468  10.579   9.013   6.400  0.5587  0.6198  0.9848
  560MOL0     C75469  10.620   9.090   6.511 -0.3798  0.5388  0.7293
  560MOL0     C75470  10.531   9.179   6.585 -0.3476  0.0274  0.9405
  560MOL0     C75471  10.581   9.261   6.688 -1.1101  0.1968 -0.4779
  560MOL0     C75472  10.724   9.266   6.721 -0.0244 -0.5866 -1.0074
  560MOL0     O75473  10.789   9.349   6.812 -0.6222  0.3387 -0.5363
  560MOL0     C75474  10.708   9.422   6.906  0.2137 -0.0513  0.5331
  560MOL0     C75475  10.797   9.494   6.999 -0.7745 -0.7635 -0.7642
  560MOL0     C75476  10.861   9.389   7.090  0.4505 -0.0200  0.9028
  560MOL0     C75477  10.953   9.463   7.190 -0.3215  0.4175 -0.9261
  560MOL0     C75478  11.012   9.364   7.292  0.6695  0.7777 -0.5276
  560MOL0     C75479  11.130   9.412   7.370  0.0379 -0.5715 -0.0963
  560MOL0     C75480  11.219   9.318   7.441  0.2717 -0.0661 -0.2883
  560MOL0     C75481  11.177   9.276   7.588  0.2376  0.4900 -0.2068
  560MOL0     N75482  11.064   9.168   7.575  0.3698 -0.1114  0.2296
  560MOL0     C75483  11.076   9.040   7.531 -0.7024  0.4229 -0.5577
  560MOL0     C75484  10.954   8.990   7.536 -0.5269 -0.2368 -0.3173
  560MOL0     C75485  10.919   8.860   7.486  0.1913  0.3847 -0.4288
  560MOL0     C75486  10.842   8.856   7.354 -0.5649  0.2991  0.6902
  560MOL0     C75487  10.714   8.943   7.336  1.1890 -0.2683 -0.0408
  560MOL0     C75488  10.674   8.973   7.199 -0.3985 -0.0792 -0.2023
  560MOL0     O75489  10.543   9.033   7.196 -1.5140 -0.0718 -0.0589
  560MOL0     C75490  10.468   9.016   7.081  1.1147 -0.0757  0.0996
  560MOL0     C75491  10.329   9.034   7.090  0.9554  0.4623  0.5937
  560MOL0     C75492  10.240   9.012   6.983  0.0729  1.0596 -0.4686
  560MOL0     C75493  10.288   8.988   6.855  0.4650  0.7356 -0.0826
  560MOL0     C75494  10.194   8.975   6.746  0.0754  1.1525  0.5454
  560MOL0     O75495  10.066   8.946   6.779 -0.1154  0.3319 -0.3348
  560MOL0     C75496   9.968   8.953   6.677  0.0821  0.3783  0.5939
  560MOL0     C75497   9.859   9.044   6.682 -0.1477 -0.1235 -0.6595
  560MOL0     C75498   9.770   9.061   6.570  0.9935 -0.0118 -0.6456
  560MOL0     C75499   9.790   8.999   6.448  0.1692 -0.1029  0.7585
  560MOL0     O75500   9.717   9.020   6.331 -0.2737  0.4080  0.1869
  560MOL0     C75501   9.577   9.029   6.335  0.4539 -0.2372  1.2467
  560MOL0     C75502   9.499   8.923   6.249  0.2687  0.4953  0.8351
  560MOL0     C75503   9.538   8.928   6.105 -0.4037 -0.1936  0.9992
  560MOL0     C75504   9.434   8.858   6.026  0.1348  0.1491  0.4078
  560MOL0     C75505   9.467   8.859   5.879  0.4291 -0.1763  0.0413
  560MOL0     C75506   9.354   8.826   5.773  0.4926  0.3434  0.9343
  560MOL0     C75507   9.429   8.829   5.634  0.3004 -0.1078 -0.4436
  560MOL0     C75508   9.344   8.800   5.509 -0.2329  0.1843 -0.5235
  560MOL0    Cl75509   9.215   8.678   5.522  0.2326 -0.3895 -0.7741
  560MOL0     C75510   9.894   8.905   6.445 -0.0500  0.1388 -0.4472
  560MOL0     C75511   9.973   8.872   6.560  0.2940  0.1808  0.6891
  560MOL0     O75512  10.230   9.000   6.635 -0.3180  0.8300  0.1722
  560MOL0     C75513  10.427   8.976   6.843  0.3590 -0.2523  0.3157
  560MOL0     C75514  10.513   8.992   6.949  0.2733  0.1001 -0.4420
  560MOL0     N75515  10.870   9.089   7.579  0.3981 -0.0232 -0.1084
  560MOL0     N75516  10.932   9.197   7.589  0.0898 -0.2385 -0.3131
  560MOL0     C75517  10.798   9.174   6.661 -0.1652 -0.0281  0.2821
  560MOL0     C75518  10.751   9.094   6.552  0.0120 -1.1202 -0.0266
  560MOL0     C75519  10.386   9.004   6.242 -0.3485  0.0607 -0.1150
  560MOL0     C75520  10.320   9.062   6.130 -0.1388 -0.5267  0.1189
  560MOL0     C75521  10.208   9.002   6.080  0.2617 -0.1735  0.2019
  560MOL0     C75522  10.161   8.884   6.133 -0.1076  0.1123  0.2427
  560MOL0     O75523  10.059   8.816   6.073 -0.3075  0.4141 -0.5604
  560MOL0     C75524  10.094   8.772   5.934  0.3414  0.4818 -0.1704
  560MOL0     C75525   9.981   8.792   5.830 -0.0207 -0.9818 -0.7443
  560MOL0     C75526   9.927   8.934   5.805 -0.1903 -1.6989 -0.5117
  560MOL0     C75527   9.794   8.940   5.735  0.3721  0.4569 -0.2088
  560MOL0     C75528   9.729   9.062   5.685 -0.8638  0.2937 -0.6196
  560MOL0     C75529   9.664   9.159   5.665 -0.7545 -0.2580 -0.6136
  560MOL0     C75530  10.223   8.823   6.239  0.5909 -0.3890  1.0207
  560MOL0     C75531  10.344   8.874   6.288  0.0290 -0.3692 -0.2002
  560MOL0     C75532  10.421   8.794   6.387  0.1796  0.2607 -0.3815
  560MOL0     H75533  10.424   9.189   6.566  0.3009  1.1911 -3.0601
  560MOL0     H75534  10.520   9.326   6.750  1.0023 -1.5890  3.8790
  560MOL0     H75535  10.645   9.500   6.861  1.1465  1.1344  1.2289
  560MOL0     H75536  10.648   9.344   6.954  2.6585 -1.5024  1.3623
  560MOL0     H75537  10.737   9.560   7.062 -0.3266 -0.0930 -1.0418
  560MOL0     H75538  10.867   9.565   6.955 -0.0114  0.3032  1.9428
  560MOL0     H75539  10.919   9.314   7.035  0.2044  0.7369 -0.4187
  560MOL0     H75540  10.778   9.345   7.145  0.0978 -3.4055 -1.9798
  560MOL0     H75541  11.026   9.534   7.151  1.8163 -0.5715  1.0391
  560MOL0     H75542  10.878   9.521   7.245  0.9385  1.2003  0.0280
  560MOL0     H75543  10.930   9.350   7.363 -0.3232 -0.4887 -1.8481
  560MOL0     H75544  11.040   9.268   7.247 -1.9213 -0.0871 -0.4467
  560MOL0     H75545  11.197   9.469   7.305  1.2028 -2.1658 -0.3476
  560MOL0     H75546  11.083   9.482   7.439 -1.5522 -0.9322 -0.7616
  560MOL0     H75547  11.313   9.372   7.454  0.7675 -0.4987 -1.7990
  560MOL0     H75548  11.251   9.227   7.389 -0.6675 -0.7413  0.2884
  560MOL0     H75549  11.270   9.233   7.625  1.3840  0.6031 -2.7535
  560MOL0     H75550  11.152   9.366   7.646  2.4539  0.9260  0.1712
  560MOL0     H75551  11.163   8.996   7.483 -1.1519 -0.0357 -0.9674
  560MOL0     H75552  11.017   8.812   7.472 -0.2521 -0.2870 -1.2635
  560MOL0     H75553  10.867   8.812   7.569  4.0612 -1.7251  1.0471
  560MOL0     H75554  10.911   8.892   7.277 -1.4654  2.8493  0.9997
  560MOL0     H75555  10.818   8.759   7.309  0.7705  1.8525 -3.9463
  560MOL0     H75556  10.725   9.041   7.383 -2.7223  0.6970 -0.8409
  560MOL0     H75557  10.620   8.904   7.377  0.7356  2.0509  1.3343
  560MOL0     H75558  10.680   8.879   7.144  4.3545  1.0626 -2.1179
  560MOL0     H75559  10.749   9.039   7.154 -0.9362 -0.0178 -1.0417
  560MOL0     H75560  10.282   9.052   7.186  4.6939 -4.6699  3.9339
  560MOL0     H75561  10.134   9.030   7.001  0.5160  2.9907  0.5274
  560MOL0     H75562   9.835   9.090   6.777 -2.7930  1.0416 -1.8008
  560MOL0     H75563   9.697   9.140   6.586  1.7015  0.9555 -1.8745
  560MOL0     H75564   9.534   9.025   6.435  1.8507 -1.5166  1.8340
  560MOL0     H75565   9.547   9.130   6.303  0.2148 -0.2811  1.3314
  560MOL0     H75566   9.525   8.820   6.273  0.4695  1.1164  3.7291
  560MOL0     H75567   9.390   8.927   6.249  0.0936 -1.8541 -1.3570
  560MOL0     H75568   9.546   9.028   6.061 -2.8685 -0.4425 -0.1702
  560MOL0     H75569   9.637   8.882   6.093  0.3380  1.7275 -0.9318
  560MOL0     H75570   9.343   8.917   6.025  1.4867  2.3825  1.5228
  560MOL0     H75571   9.411   8.758   6.064  1.0408 -0.9288 -1.7220
  560MOL0     H75572   9.552   8.792   5.861 -0.5757 -1.5320  0.2682
  560MOL0     H75573   9.509   8.956   5.850  0.1494 -0.1729 -0.3550
  560MOL0     H75574   9.301   8.731   5.782  2.0488 -0.5764  0.7955
  560MOL0     H75575   9.274   8.901   5.765  0.3439  0.1433  0.5293
  560MOL0     H75576   9.505   8.751   5.649 -1.1840 -1.9464 -2.0065
  560MOL0     H75577   9.486   8.918   5.607  0.2662  0.8493  2.3459
  560MOL0     H75578   9.298   8.897   5.487  1.0190  1.4806  2.1494
  560MOL0     H75579   9.407   8.788   5.421 -1.6405 -3.3427 -1.2206
  560MOL0     H75580   9.922   8.846   6.359  0.1375  0.4893 -0.6276
  560MOL0     H75581  10.052   8.804   6.531 -0.0135  0.0981  0.0035
  560MOL0     H75582  10.470   8.962   6.744 -1.6469  0.8633 -0.7691
  560MOL0     H75583  10.620   8.973   6.947  0.5004  1.2988 -0.8932
  560MOL0     H75584  10.900   9.179   6.700 -0.5994 -1.3403  1.6884
  560MOL0     H75585  10.823   9.029   6.502 -0.3253 -1.7622  0.3181
  560MOL0     H75586  10.352   9.155   6.083 -3.2099  1.4446  1.5878
  560MOL0     H75587  10.172   9.053   5.992  0.1625 -1.9354 -0.8289
  560MOL0     H75588  10.111   8.665   5.939 -3.6010 -0.2212  1.3901
  560MOL0     H75589  10.178   8.825   5.886 -1.3907  1.0903 -2.7602
  560MOL0     H75590   9.898   8.725   5.857 -1.0089  0.9210  1.2880
  560MOL0     H75591  10.016   8.756   5.733  1.3291  2.8082 -1.8372
  560MOL0     H75592  10.010   8.985   5.755 -0.4247 -0.6043  0.1764
  560MOL0     H75593   9.914   8.991   5.898 -0.5222  0.3606 -1.7770
  560MOL0     H75594   9.786   8.875   5.648  0.5622  1.4571 -0.9929
  560MOL0     H75595   9.727   8.884   5.801  0.3030 -1.4955 -1.8396
  560MOL0     H75596   9.606   9.247   5.645 -1.8061 -1.0132 -1.0553
  560MOL0     H75597  10.181   8.731   6.278 -1.3597  0.9859  2.3213
  560MOL0     H75598  10.393   8.688   6.397  1.8290 -0.4855 -2.8458
  560MOL0     H75599  10.522   8.780   6.348 -1.1944 -4.7437 -2.9922
  560MOL0     H75600  10.416   8.855   6.478 -5.6269 -2.1615  1.3616
  561MOL0     O75601  11.447   4.948  10.044 -0.0816  0.4204  0.2953
  561MOL0     C75602  11.472   4.838  10.099  0.2059  0.0017  0.0473
  561MOL0     O75603  11.584   4.807  10.151  0.2297 -0.9355 -0.5508
  561MOL0     C75604  11.691   4.886  10.116  0.2263  0.9244  0.2478
  561MOL0     C75605  11.795   4.817  10.056 -0.5858  0.4134  1.2088
  561MOL0     C75606  11.914   4.873  10.015 -0.5170  0.7608 -0.0080
  561MOL0     C75607  11.938   5.008  10.043  0.2479  0.1884  0.1485
  561MOL0     O75608  12.065   5.054  10.022 -0.4699  0.2534 -0.1972
  561MOL0     C75609  12.105   5.182  10.064  0.0852  0.2638  0.5152
  561MOL0     C75610  12.261   5.190  10.066 -0.4645 -0.7791  0.8420
  561MOL0     C75611  12.323   5.085  10.149 -0.2362 -0.1360 -0.8376
  561MOL0     C75612  12.477   5.100  10.140  0.1816  0.1977  0.5875
  561MOL0     C75613  12.549   5.018  10.253 -0.2040 -0.2284 -0.0774
  561MOL0     C75614  12.698   4.994  10.226 -0.3468  0.6360 -0.2070
  561MOL0     C75615  12.779   4.961  10.353  0.6890 -0.2511 -0.2520
  561MOL0     C75616  12.924   4.937  10.333 -0.0748 -0.2095 -0.3667
  561MOL0     N75617  12.987   4.892  10.459 -0.2155 -0.0824 -0.2147
  561MOL0     C75618  12.961   4.799  10.549  0.3511  0.3133 -0.1118
  561MOL0     C75619  13.042   4.825  10.653 -0.5395  0.5536  0.2538
  561MOL0     C75620  13.063   4.766  10.792  0.1831 -0.0906  0.3732
  561MOL0     C75621  13.076   4.610  10.800  0.1811 -0.1048  0.3404
  561MOL0     C75622  13.205   4.559  10.734 -0.6235 -0.5983 -0.0536
  561MOL0     C75623  13.222   4.411  10.729 -0.6007  0.3584  0.4385
  561MOL0     O75624  13.217   4.360  10.866  1.2396  0.3733 -0.6039
  561MOL0     C75625  13.326   4.333  10.939 -0.3594  0.5119 -0.0905
  561MOL0     C75626  13.326   4.355  11.074  0.7887  1.1627  0.0755
  561MOL0     C75627  13.436   4.340  11.154 -1.0970  0.2379 -0.6438
  561MOL0     C75628  13.560   4.302  11.098 -0.0732 -0.1925  0.5693
  561MOL0     C75629  13.679   4.270  11.174  0.5743  0.3609 -1.0496
  561MOL0     O75630  13.783   4.260  11.104  0.2551 -0.1647  0.0257
  561MOL0     C75631  13.920   4.258  11.153  0.4398  0.0761 -0.0788
  561MOL0     C75632  14.032   4.236  11.068  0.0525 -1.1859 -0.1575
  561MOL0     C75633  14.160   4.221  11.102  0.0710  0.3483 -0.1978
  561MOL0     C75634  14.198   4.233  11.234  0.0923 -0.1719 -0.8069
  561MOL0     O75635  14.339   4.214  11.254  0.5042 -0.1223  0.3004
  561MOL0     C75636  14.392   4.297  11.363  1.0009  1.1269  1.0171
  561MOL0     C75637  14.541   4.323  11.348 -0.7063  0.9763  0.2256
  561MOL0     C75638  14.614   4.364  11.482  0.5211 -0.1808  0.7002
  561MOL0     C75639  14.560   4.500  11.539 -0.0918 -0.2037  1.2310
  561MOL0     C75640  14.655   4.538  11.647  0.8027  0.3641 -1.2859
  561MOL0     C75641  14.607   4.653  11.732 -0.6263 -0.9683 -0.2611
  561MOL0     C75642  14.485   4.632  11.820  0.2668  0.8372 -0.2101
  561MOL0     C75643  14.477   4.709  11.946  0.1538  0.2315 -0.4679
  561MOL0    Cl75644  14.494   4.881  11.914  0.1071  0.1723  0.4368
  561MOL0     C75645  14.096   4.259  11.331  0.2419 -0.2389 -0.4138
  561MOL0     C75646  13.954   4.276  11.282 -0.4941  0.6947 -0.1920
  561MOL0     O75647  13.663   4.246  11.293  0.1436  0.5218 -0.0092
  561MOL0     C75648  13.557   4.259  10.967 -1.1486  0.0672  0.4931
  561MOL0     C75649  13.449   4.284  10.887  1.3427  0.2608 -0.0839
  561MOL0     N75650  13.109   4.941  10.628 -0.0818  0.2995  0.5580
  561MOL0     N75651  13.067   4.990  10.515  0.6678  0.1910  0.6221
  561MOL0     C75652  11.830   5.079  10.101 -0.3603 -0.0715  0.2491
  561MOL0     C75653  11.705   5.027  10.128  1.1725 -0.2384  0.0868
  561MOL0     C75654  11.362   4.734  10.116 -0.5616 -1.2783 -0.4936
  561MOL0     C75655  11.357   4.653  10.229  0.6323 -0.2067 -0.1056
  561MOL0     C75656  11.245   4.568  10.251  0.0085  0.7852  0.1773
  561MOL0     C75657  11.143   4.553  10.158  0.2378  0.4587 -0.4656
  561MOL0     O75658  11.046   4.457  10.170  0.7843  0.0715 -0.1336
  561MOL0     C75659  11.002   4.387  10.291 -0.4437 -0.5851  0.1884
  561MOL0     C75660  10.937   4.253  10.264  0.6083  0.2627  0.5749
  561MOL0     C75661  10.793   4.269  10.218  0.5776 -0.1190  0.7646
  561MOL0     C75662  10.781   4.291  10.057 -0.0216  0.6742 -0.7912
  561MOL0     C75663  10.643   4.299  10.023  0.6062  0.6625  0.6222
  561MOL0     C75664  10.525   4.321   9.998 -0.7511 -0.1639  0.2428
  561MOL0     C75665  11.147   4.632  10.047 -0.4965  0.5721 -0.7431
  561MOL0     C75666  11.259   4.719  10.027 -1.1937  0.0433 -0.3350
  561MOL0     C75667  11.260   4.801   9.889  0.3906  0.7116 -0.5853
  561MOL0     H75668  11.786   4.709  10.055 -0.2799  0.3661 -1.5573
  561MOL0     H75669  11.997   4.816   9.976  2.6898  4.6697  0.4807
  561MOL0     H75670  12.082   5.258   9.988 -0.2657 -1.8083 -1.5797
  561MOL0     H75671  12.070   5.192  10.167 -1.6268  1.4661 -0.1331
  561MOL0     H75672  12.295   5.290  10.095  0.8682 -2.1673  4.6755
  561MOL0     H75673  12.289   5.179   9.961  0.7835  0.5582  1.0019
  561MOL0     H75674  12.291   4.983  10.125  0.4616 -0.2813 -1.1757
  561MOL0     H75675  12.297   5.106  10.253 -2.0800  1.8536 -1.6287
  561MOL0     H75676  12.516   5.058  10.047  2.7105  0.6072  1.3973
  561MOL0     H75677  12.501   5.207  10.139  0.9456  0.0319  0.1659
  561MOL0     H75678  12.535   5.061  10.352  0.5541 -0.3490  0.0925
  561MOL0     H75679  12.504   4.918  10.260  3.0543 -1.7225  2.0013
  561MOL0     H75680  12.705   4.909  10.157 -1.3766  0.9103 -0.6866
  561MOL0     H75681  12.749   5.076  10.174  0.8261 -0.3270 -0.6284
  561MOL0     H75682  12.740   4.870  10.399  1.0198  0.3804  1.3511
  561MOL0     H75683  12.764   5.038  10.429  0.4631  0.2823 -0.8231
  561MOL0     H75684  12.932   4.863  10.253  0.2482  2.6404 -3.1051
  561MOL0     H75685  12.975   5.028  10.302 -1.0994  1.3820  2.3075
  561MOL0     H75686  12.877   4.730  10.538 -2.3098  2.9606  1.6920
  561MOL0     H75687  13.146   4.820  10.837 -0.2314 -0.9244  2.2231
  561MOL0     H75688  12.971   4.794  10.844 -1.0689  0.1374 -1.8216
  561MOL0     H75689  13.072   4.571  10.903 -0.1937 -0.5222  0.1692
  561MOL0     H75690  12.986   4.577  10.747 -1.5072  1.0252  2.3429
  561MOL0     H75691  13.282   4.605  10.796 -1.2192  1.1873 -0.5834
  561MOL0     H75692  13.213   4.586  10.628 -0.2028 -1.5257 -0.2730
  561MOL0     H75693  13.319   4.387  10.683 -0.0749 -0.8631  2.0757
  561MOL0     H75694  13.139   4.361  10.678 -0.0873 -2.8835  2.4918
  561MOL0     H75695  13.230   4.383  11.115  0.0818 -2.1571  1.0077
  561MOL0     H75696  13.426   4.365  11.259 -2.6145  0.9376 -0.9193
  561MOL0     H75697  14.024   4.218  10.962  1.1672 -1.5547 -0.1905
  561MOL0     H75698  14.222   4.185  11.020 -0.7898 -1.5437 -0.0656
  561MOL0     H75699  14.352   4.399  11.360 -2.7138 -0.1646  1.9403
  561MOL0     H75700  14.370   4.251  11.459 -0.3390 -2.5390 -0.8716
  561MOL0     H75701  14.590   4.230  11.318 -3.4631 -0.1563 -1.0822
  561MOL0     H75702  14.561   4.384  11.259  0.0220 -3.4950 -3.0820
  561MOL0     H75703  14.606   4.276  11.546  1.0543 -2.0857 -1.7194
  561MOL0     H75704  14.718   4.379  11.451 -0.1670  2.8599 -0.5769
  561MOL0     H75705  14.457   4.480  11.571 -0.4036 -3.9703 -1.5090
  561MOL0     H75706  14.567   4.577  11.462 -1.3992 -0.8454  0.4324
  561MOL0     H75707  14.753   4.558  11.602  1.1750 -0.1302 -0.7142
  561MOL0     H75708  14.660   4.452  11.714 -3.2528  0.7235 -0.2635
  561MOL0     H75709  14.687   4.684  11.799 -3.1562 -0.6101  2.8103
  561MOL0     H75710  14.596   4.734  11.659 -0.8185 -0.8333 -0.0834
  561MOL0     H75711  14.487   4.524  11.839 -1.3994  0.0963 -3.5658
  561MOL0     H75712  14.398   4.635  11.753 -1.7198 -0.0841  2.1522
  561MOL0     H75713  14.371   4.691  11.969 -0.1903 -1.4229 -2.9058
  561MOL0     H75714  14.542   4.670  12.024 -0.3368  3.6824  1.8530
  561MOL0     H75715  14.144   4.264  11.428  2.2950  0.3555 -1.4006
  561MOL0     H75716  13.879   4.273  11.360  2.1283  0.6552  2.4760
  561MOL0     H75717  13.634   4.199  10.920 -1.3667 -0.1847  0.4577
  561MOL0     H75718  13.460   4.253  10.783  0.5197 -1.9654  0.4510
  561MOL0     H75719  11.851   5.182  10.127  3.3304 -1.2791  2.9045
  561MOL0     H75720  11.629   5.096  10.163  0.2750 -1.0058 -0.3298
  561MOL0     H75721  11.434   4.655  10.306  1.8825  0.0570 -1.3185
  561MOL0     H75722  11.230   4.514  10.344  1.1886 -0.1048 -0.1380
  561MOL0     H75723  10.930   4.452  10.342 -1.9073 -1.4773 -0.6564
  561MOL0     H75724  11.088   4.364  10.354 -1.5588 -0.1852  1.9247
  561MOL0     H75725  10.939   4.199  10.359 -1.5951 -0.0129  0.5248
  561MOL0     H75726  10.996   4.191  10.197 -1.6877 -0.7044 -0.6724
  561MOL0     H75727  10.739   4.346  10.273 -0.8897 -3.1787  3.9601
  561MOL0     H75728  10.751   4.170  10.236  0.7299 -0.4368 -0.5040
  561MOL0     H75729  10.821   4.391  10.038  0.8271  0.2098 -1.5651
  561MOL0     H75730  10.834   4.211  10.005 -2.6657  0.0507 -2.7934
  561MOL0     H75731  10.420   4.340   9.987  0.0870  4.7346 -2.3559
  561MOL0     H75732  11.056   4.622   9.989 -2.7429  0.8964  2.4208
  561MOL0     H75733  11.184   4.758   9.823  1.2939 -1.3798 -0.3461
  561MOL0     H75734  11.225   4.902   9.910  2.3881  1.1814  0.7059
  561MOL0     H75735  11.359   4.797   9.845  0.3616  0.3624 -0.6252
  562MOL0     O75736   1.912   8.980   8.883  0.3466 -0.1865 -1.0125
  562MOL0     C75737   1.910   9.026   8.768 -0.3508 -1.1533  0.7300
  562MOL0     O75738   1.839   9.137   8.730  0.2465  0.5926  0.1624
  562MOL0     C75739   1.800   9.215   8.830  0.0040  0.0501 -0.3379
  562MOL0     C75740   1.875   9.329   8.852 -0.2773 -0.3792  0.4693
  562MOL0     C75741   1.842   9.415   8.957  0.2286  0.5365 -0.9326
  562MOL0     C75742   1.723   9.390   9.033  0.3022 -0.5390  0.1236
  562MOL0     O75743   1.684   9.500   9.119 -0.7744  0.4409  0.0105
  562MOL0     C75744   1.562   9.468   9.201 -0.9531 -0.8684  0.2822
  562MOL0     C75745   1.586   9.391   9.327 -0.5304 -0.2949 -0.3399
  562MOL0     C75746   1.459   9.381   9.410  0.5573  0.0622  0.1493
  562MOL0     C75747   1.453   9.256   9.494  1.1166  0.2064 -0.3919
  562MOL0     C75748   1.317   9.251   9.569  0.3772  0.6791  0.6793
  562MOL0     C75749   1.315   9.142   9.673  0.5374 -0.2381  0.0499
  562MOL0     C75750   1.186   9.108   9.749  0.1183  0.2771 -1.0277
  562MOL0     C75751   1.221   8.999   9.855 -0.1328 -0.3406  0.3278
  562MOL0     N75752   1.302   9.069   9.962 -0.4735  0.4882  0.1234
  562MOL0     C75753   1.440   9.075   9.965 -0.3007 -0.0211 -1.5670
  562MOL0     C75754   1.468   9.130  10.091 -0.0385  0.5070  1.3811
  562MOL0     C75755   1.602   9.179  10.126 -1.0863 -0.0161  1.3662
  562MOL0     C75756   1.621   9.335  10.116  0.7986 -0.1858  0.2947
  562MOL0     C75757   1.609   9.377   9.968 -0.3568  0.1517  0.2443
  562MOL0     C75758   1.501   9.485   9.958  1.0643  0.2136  0.1215
  562MOL0     O75759   1.491   9.544   9.827 -0.7524  0.4784  0.2102
  562MOL0     C75760   1.475   9.674   9.807  0.3113  0.0826 -1.1174
  562MOL0     C75761   1.508   9.710   9.678  0.2177 -0.0386  0.6103
  562MOL0     C75762   1.496   9.846   9.638  0.4398  0.2455  0.6732
  562MOL0     C75763   1.430   9.937   9.720 -0.1471  0.0620  0.0646
  562MOL0     C75764   1.403  10.075   9.680  0.7396 -0.2148  0.1862
  562MOL0     O75765   1.322  10.142   9.774  0.5920 -0.4773  0.1072
  562MOL0     C75766   1.287  10.267   9.743 -0.7248 -0.1657 -0.2362
  562MOL0     C75767   1.230  10.310   9.628  0.7702 -0.1786  0.7225
  562MOL0     C75768   1.228  10.440   9.591 -0.5289 -0.3829 -0.3536
  562MOL0     C75769   1.282  10.536   9.670 -0.4343 -0.0165  1.0857
  562MOL0     O75770   1.312  10.661   9.629  1.1419 -0.4033  0.7242
  562MOL0     C75771   1.272  10.709   9.500 -0.1462 -0.6548  1.0942
  562MOL0     C75772   1.371  10.683   9.392 -0.7049 -0.0807 -0.0333
  562MOL0     C75773   1.517  10.741   9.417  0.1401  0.0695  0.2736
  562MOL0     C75774   1.549  10.840   9.530 -0.2800 -0.1247  0.0407
  562MOL0     C75775   1.692  10.874   9.553 -0.6601  0.2132 -0.0092
  562MOL0     C75776   1.781  10.871   9.428  0.2625  2.1799  0.8585
  562MOL0     C75777   1.921  10.920   9.448 -1.1558 -0.1443 -0.7826
  562MOL0     C75778   2.022  10.914   9.336 -0.9114  0.0524  1.0312
  562MOL0    Cl75779   2.006  11.043   9.217  0.1502 -0.9017  0.6218
  562MOL0     C75780   1.335  10.499   9.785  0.0604 -0.2267  0.1334
  562MOL0     C75781   1.339  10.359   9.828 -0.3288 -0.0193 -0.7315
  562MOL0     O75782   1.460  10.122   9.588 -0.1218 -0.2004 -0.2521
  562MOL0     C75783   1.412   9.902   9.861 -0.1981  0.2844  0.1637
  562MOL0     C75784   1.420   9.772   9.899 -0.0310  0.5723  0.0362
  562MOL0     N75785   1.352   9.145  10.162  0.6952 -0.6034  0.7536
  562MOL0     N75786   1.256   9.120  10.078 -1.2272 -0.0149  0.4963
  562MOL0     C75787   1.656   9.272   9.011  0.5385  0.9575  0.6759
  562MOL0     C75788   1.694   9.187   8.910 -0.3397  0.1360  0.6919
  562MOL0     C75789   1.968   8.950   8.656 -0.2316  0.5017 -0.2902
  562MOL0     C75790   1.907   8.953   8.529  0.2512 -0.8674 -0.0234
  562MOL0     C75791   1.938   8.868   8.428  0.0087  0.8849 -0.8297
  562MOL0     C75792   2.036   8.772   8.443 -0.4151  0.1027  0.0847
  562MOL0     O75793   2.084   8.684   8.349 -0.5982 -0.7925  0.1472
  562MOL0     C75794   2.223   8.710   8.313  0.9304 -0.1202 -0.1938
  562MOL0     C75795   2.247   8.769   8.180  0.4644  0.8782 -0.0318
  562MOL0     C75796   2.183   8.907   8.166  0.4819  0.0020  0.5116
  562MOL0     C75797   2.208   8.981   8.034 -0.2590 -1.4206  1.3857
  562MOL0     C75798   2.153   9.111   8.037 -1.2756  0.1607  0.4004
  562MOL0     C75799   2.113   9.231   8.026  0.0472  0.2344  0.0482
  562MOL0     C75800   2.082   8.749   8.572  0.0563  0.1188 -0.9744
  562MOL0     C75801   2.063   8.842   8.678 -0.3158 -0.2217 -1.0490
  562MOL0     C75802   2.136   8.809   8.810  0.0075  0.1782 -0.4036
  562MOL0     H75803   1.960   9.341   8.786  0.0502 -1.2062  0.7357
  562MOL0     H75804   1.886   9.512   8.979  0.4159 -0.1224  2.1214
  562MOL0     H75805   1.522   9.567   9.227 -2.3175 -1.5485  0.9078
  562MOL0     H75806   1.486   9.420   9.138  1.9069 -2.8043 -1.9512
  562MOL0     H75807   1.664   9.444   9.384  0.4560 -1.1706 -0.8399
  562MOL0     H75808   1.632   9.294   9.305 -1.9544 -1.3775  1.2166
  562MOL0     H75809   1.382   9.368   9.333  2.1906 -1.8414 -1.2766
  562MOL0     H75810   1.436   9.473   9.465  1.5875 -1.2011  2.8246
  562MOL0     H75811   1.460   9.170   9.427 -0.7567  0.6582 -1.2412
  562MOL0     H75812   1.536   9.264   9.564  0.8414  1.1038 -0.1441
  562MOL0     H75813   1.298   9.346   9.621  2.4120  0.9601  0.9790
  562MOL0     H75814   1.239   9.231   9.494  0.7088 -5.0944  1.4362
  562MOL0     H75815   1.343   9.047   9.625 -1.2612 -1.0092  0.4357
  562MOL0     H75816   1.400   9.158   9.739  2.0000  0.6636 -1.9409
  562MOL0     H75817   1.109   9.075   9.679  0.4057 -2.0173 -0.3654
  562MOL0     H75818   1.142   9.195   9.799 -0.6562  0.6558 -2.3107
  562MOL0     H75819   1.132   8.965   9.909 -0.6431 -0.1033 -0.3395
  562MOL0     H75820   1.265   8.906   9.819  2.2915  1.1959 -0.9289
  562MOL0     H75821   1.516   9.031   9.901  0.9996 -0.5906  0.2935
  562MOL0     H75822   1.634   9.152  10.226 -1.7378  1.1499  1.9176
  562MOL0     H75823   1.670   9.127  10.058 -0.4559 -0.6734  2.4871
  562MOL0     H75824   1.532   9.364  10.174 -1.2224 -1.7847 -1.8256
  562MOL0     H75825   1.705   9.368  10.178 -0.6270  2.6148  0.8955
  562MOL0     H75826   1.591   9.293   9.900  1.5148  3.0443 -4.2215
  562MOL0     H75827   1.699   9.429   9.934  0.1069  0.3214  1.6732
  562MOL0     H75828   1.514   9.562  10.034  0.0817 -0.1986  0.7282
  562MOL0     H75829   1.400   9.445   9.968  2.0822 -3.2709 -1.8410
  562MOL0     H75830   1.557   9.631   9.621 -1.3302  0.4158 -1.4564
  562MOL0     H75831   1.517   9.866   9.534  1.8503 -1.0794  0.6688
  562MOL0     H75832   1.179  10.235   9.569  0.1813  0.0365  0.9427
  562MOL0     H75833   1.200  10.458   9.488  0.3783 -4.0065 -1.3642
  562MOL0     H75834   1.171  10.670   9.485 -1.5826  2.1160  2.7557
  562MOL0     H75835   1.267  10.818   9.513  2.1208 -0.2616 -0.6519
  562MOL0     H75836   1.370  10.574   9.385  1.6320 -0.0879 -1.4444
  562MOL0     H75837   1.326  10.722   9.300  2.8998  0.3058 -1.8242
  562MOL0     H75838   1.577  10.654   9.444 -0.1061 -0.1494  0.1237
  562MOL0     H75839   1.547  10.781   9.320 -3.5572  1.7217 -0.3608
  562MOL0     H75840   1.504  10.803   9.623 -3.7496  2.4354 -0.3952
  562MOL0     H75841   1.503  10.939   9.514 -1.2319 -0.4895  0.4180
  562MOL0     H75842   1.730  10.795   9.618 -1.7034  0.0562  0.4213
  562MOL0     H75843   1.702  10.965   9.612 -1.7475  0.2367  0.1548
  562MOL0     H75844   1.789  10.766   9.396  0.8193  3.2677 -3.1118
  562MOL0     H75845   1.729  10.933   9.355 -3.5665 -2.4564 -0.9417
  562MOL0     H75846   1.961  10.858   9.529  0.9486  0.0477 -1.6050
  562MOL0     H75847   1.927  11.023   9.484 -3.3831 -0.7758  1.6886
  562MOL0     H75848   2.119  10.919   9.385 -0.1063 -3.2351  0.0070
  562MOL0     H75849   2.019  10.814   9.291 -0.5274 -0.2207  1.6114
  562MOL0     H75850   1.382  10.579   9.842 -1.2464 -0.1225  1.1135
  562MOL0     H75851   1.390  10.325   9.917  1.3814  0.6229 -1.4296
  562MOL0     H75852   1.384   9.974   9.937 -2.7610 -1.1677  0.7123
  562MOL0     H75853   1.383   9.739   9.995 -2.0761 -1.1832 -1.2545
  562MOL0     H75854   1.573   9.244   9.076 -1.3436  0.2478 -1.8885
  562MOL0     H75855   1.638   9.095   8.896  0.7840 -0.3790 -0.6971
  562MOL0     H75856   1.820   9.012   8.504  1.0356 -0.0662 -0.9612
  562MOL0     H75857   1.896   8.858   8.329  1.6392 -3.1977 -1.2905
  562MOL0     H75858   2.268   8.611   8.327  2.4709  0.7305  1.1737
  562MOL0     H75859   2.271   8.769   8.392 -0.4287 -0.1390  0.6894
  562MOL0     H75860   2.193   8.701   8.113 -1.0657  2.6109 -0.6305
  562MOL0     H75861   2.351   8.761   8.146  0.9621  0.4917  1.4821
  562MOL0     H75862   2.219   8.985   8.234 -0.6260  0.4034  0.6674
  562MOL0     H75863   2.074   8.899   8.177  0.1390 -3.5529 -3.2568
  562MOL0     H75864   2.316   8.995   8.025 -0.6253  1.4574  0.6227
  562MOL0     H75865   2.162   8.931   7.948  1.4279 -2.7898  1.2185
  562MOL0     H75866   2.068   9.328   8.019 -0.9917 -0.1183  1.4851
  562MOL0     H75867   2.143   8.661   8.588 -1.3910 -0.6838  0.3793
  562MOL0     H75868   2.084   8.732   8.867 -0.2323 -0.2628 -1.2155
  562MOL0     H75869   2.244   8.797   8.798  0.3868  2.4649  0.2274
  562MOL0     H75870   2.141   8.908   8.858 -1.4609  0.4023 -0.6521
  563MOL0     O75871   8.244   8.349   3.947 -0.2899  0.5894 -0.3062
  563MOL0     C75872   8.274   8.452   4.008 -0.5067 -0.0875  0.4601
  563MOL0     O75873   8.393   8.508   4.020  0.1101 -0.0731 -0.2887
  563MOL0     C75874   8.504   8.429   3.978 -0.1362  0.1903 -0.7143
  563MOL0     C75875   8.549   8.455   3.844 -0.3310  0.7886 -0.4612
  563MOL0     C75876   8.664   8.375   3.802 -0.0553 -0.0022 -0.2375
  563MOL0     C75877   8.736   8.288   3.882  0.0428  0.2795 -0.6647
  563MOL0     O75878   8.851   8.238   3.821  0.5924 -0.4310 -0.1226
  563MOL0     C75879   8.897   8.113   3.875  0.2837  0.1839  0.5645
  563MOL0     C75880   9.021   8.056   3.799  0.2273 -0.0290  0.4365
  563MOL0     C75881   9.141   8.148   3.782 -0.7658  0.1924 -1.0755
  563MOL0     C75882   9.210   8.189   3.907  0.4631 -0.4762 -0.0011
  563MOL0     C75883   9.329   8.277   3.872 -0.1912  0.3046 -0.1944
  563MOL0     C75884   9.457   8.190   3.924  0.1071  0.0584 -0.2156
  563MOL0     C75885   9.587   8.263   3.880 -0.0502 -0.2284 -0.0524
  563MOL0     C75886   9.718   8.196   3.934  0.5659  0.2926 -0.0387
  563MOL0     N75887   9.715   8.054   3.906  0.1945 -0.0011  0.1027
  563MOL0     C75888   9.672   8.008   3.781  0.0450 -0.3476  0.2214
  563MOL0     C75889   9.646   7.873   3.800 -0.1497 -0.7130 -0.2691
  563MOL0     C75890   9.602   7.776   3.689 -0.4242 -0.1563  0.4039
  563MOL0     C75891   9.491   7.681   3.750  0.3077 -0.2242 -0.2383
  563MOL0     C75892   9.415   7.585   3.653 -0.6322 -0.0416 -0.1557
  563MOL0     C75893   9.398   7.656   3.517  0.7579  0.7281 -0.1736
  563MOL0     O75894   9.330   7.570   3.417 -0.6228  0.2277 -0.5639
  563MOL0     C75895   9.193   7.593   3.393 -0.5301 -0.5796  0.0855
  563MOL0     C75896   9.101   7.510   3.453  0.3723  0.1780 -0.2398
  563MOL0     C75897   8.970   7.519   3.425  0.4235  0.6148  0.6803
  563MOL0     C75898   8.925   7.623   3.339  1.0155  0.7122 -0.4768
  563MOL0     C75899   8.777   7.626   3.309  0.6190 -0.1728 -0.0875
  563MOL0     O75900   8.737   7.718   3.224  0.0029 -0.3318 -0.8914
  563MOL0     C75901   8.601   7.750   3.233  0.0733  0.5761 -0.3227
  563MOL0     C75902   8.535   7.823   3.338  0.2090 -0.8473 -0.1976
  563MOL0     C75903   8.396   7.834   3.339 -0.7063 -0.1600 -0.6030
  563MOL0     C75904   8.323   7.770   3.236 -0.2140  0.1834 -0.7984
  563MOL0     O75905   8.193   7.765   3.254 -0.2283  0.3451 -0.7191
  563MOL0     C75906   8.102   7.738   3.143  0.4885 -0.2225  0.0725
  563MOL0     C75907   7.959   7.740   3.198 -0.3844  0.7833 -0.5203
  563MOL0     C75908   7.912   7.610   3.274  0.2846  0.0664  0.5715
  563MOL0     C75909   7.790   7.645   3.364  0.7025 -0.7656  0.4399
  563MOL0     C75910   7.745   7.518   3.439  1.1314  0.2125  0.0169
  563MOL0     C75911   7.605   7.518   3.493 -0.2494  0.8655 -0.3917
  563MOL0     C75912   7.556   7.635   3.583 -0.0325 -0.0000 -0.1231
  563MOL0     C75913   7.618   7.634   3.722  0.2787 -0.2405  0.0352
  563MOL0    Cl75914   7.577   7.481   3.809 -0.0768  0.0689  0.2849
  563MOL0     C75915   8.399   7.704   3.130 -0.1129  0.1612 -0.4490
  563MOL0     C75916   8.540   7.707   3.121 -0.1735 -0.4797  0.6025
  563MOL0     O75917   8.701   7.550   3.371  0.5548  0.0853  0.1912
  563MOL0     C75918   9.017   7.715   3.278  0.3592  0.9615  1.1462
  563MOL0     C75919   9.150   7.695   3.305 -0.6584  0.1564 -0.1694
  563MOL0     N75920   9.659   7.853   3.928  0.5853 -0.2188 -0.8725
  563MOL0     N75921   9.688   7.958   3.996  0.0227 -0.2742  0.2385
  563MOL0     C75922   8.686   8.269   4.011  0.7416  0.2148 -1.3388
  563MOL0     C75923   8.571   8.330   4.061  0.8469 -0.3406  0.3184
  563MOL0     C75924   8.155   8.516   4.070 -1.0008  0.4810 -0.2152
  563MOL0     C75925   8.124   8.661   4.061  0.6886  1.7089  0.3271
  563MOL0     C75926   8.018   8.720   4.118  0.1336 -0.5800 -0.3073
  563MOL0     C75927   7.940   8.649   4.210  0.5122 -0.1879 -0.2363
  563MOL0     O75928   7.848   8.725   4.268  0.8512 -0.0567 -0.6327
  563MOL0     C75929   7.728   8.663   4.318  0.0747 -0.0868 -0.0353
  563MOL0     C75930   7.730   8.658   4.472 -0.5608 -0.2604  0.4281
  563MOL0     C75931   7.603   8.607   4.536  0.3485 -0.3067  0.8265
  563MOL0     C75932   7.613   8.581   4.684  0.6107 -0.3200  0.0513
  563MOL0     C75933   7.678   8.682   4.768 -0.3575  0.1118  0.4725
  563MOL0     C75934   7.721   8.780   4.836 -0.2591  1.4099 -0.0427
  563MOL0     C75935   7.964   8.513   4.225  0.0120 -0.6529 -0.1736
  563MOL0     C75936   8.066   8.449   4.156 -1.5077  0.0074  0.4074
  563MOL0     C75937   8.070   8.304   4.188 -0.5296  0.1241  0.2316
  563MOL0     H75938   8.500   8.520   3.773  1.0232  1.8371 -0.4806
  563MOL0     H75939   8.710   8.398   3.707 -0.0251  1.5408  0.1278
  563MOL0     H75940   8.913   8.145   3.978 -3.0842  3.9556  0.1732
  563MOL0     H75941   8.824   8.032   3.864  3.1555 -2.4651 -0.2919
  563MOL0     H75942   8.979   8.030   3.702  0.5461 -0.1347  0.3246
  563MOL0     H75943   9.047   7.961   3.845 -2.0592 -0.5888  0.6756
  563MOL0     H75944   9.113   8.233   3.719 -0.4476  2.2278  1.3894
  563MOL0     H75945   9.224   8.095   3.735  0.4848  1.3497 -0.2443
  563MOL0     H75946   9.137   8.248   3.963  0.8066  0.1021 -0.1527
  563MOL0     H75947   9.249   8.101   3.958  0.8647 -0.1349  0.2863
  563MOL0     H75948   9.350   8.291   3.766  1.6527  1.8945  0.3089
  563MOL0     H75949   9.322   8.371   3.928 -1.6905 -0.5902  1.2113
  563MOL0     H75950   9.444   8.177   4.032  0.4851 -0.8606 -0.2703
  563MOL0     H75951   9.458   8.088   3.883 -0.4639  1.2530 -3.5471
  563MOL0     H75952   9.601   8.369   3.902  0.3302 -0.4080  0.5679
  563MOL0     H75953   9.596   8.250   3.771 -1.9258 -0.8561 -0.1735
  563MOL0     H75954   9.808   8.225   3.880 -0.6315  1.3368 -1.5690
  563MOL0     H75955   9.737   8.215   4.040  2.3426  0.6995 -0.4046
  563MOL0     H75956   9.663   8.052   3.682 -1.4736 -1.9923 -0.4183
  563MOL0     H75957   9.549   7.832   3.610  0.0186 -2.6697 -1.8249
  563MOL0     H75958   9.688   7.721   3.651  1.5411  1.3860  2.4169
  563MOL0     H75959   9.540   7.628   3.832  1.9010  0.1671 -0.8771
  563MOL0     H75960   9.412   7.746   3.787  1.7239  3.8122 -3.4893
  563MOL0     H75961   9.317   7.567   3.699 -0.0052 -0.7523  0.9539
  563MOL0     H75962   9.455   7.483   3.654 -0.7924 -0.1737  3.0782
  563MOL0     H75963   9.493   7.676   3.466  1.3764 -0.7227  0.3484
  563MOL0     H75964   9.353   7.754   3.531  2.3467  1.5569 -0.6790
  563MOL0     H75965   9.138   7.434   3.521 -1.6046 -0.3876  0.2641
  563MOL0     H75966   8.911   7.441   3.472  2.3881  0.4369  3.0412
  563MOL0     H75967   8.595   7.852   3.423  0.3615 -0.8824 -0.2927
  563MOL0     H75968   8.340   7.886   3.416  1.7904 -0.0514  1.2854
  563MOL0     H75969   8.113   7.829   3.083 -0.3363  1.2710  2.0708
  563MOL0     H75970   8.119   7.647   3.084 -1.3510 -0.0017 -0.8638
  563MOL0     H75971   7.958   7.825   3.267 -2.6673 -1.0491  1.8789
  563MOL0     H75972   7.891   7.761   3.115  2.7848  1.4822 -3.1535
  563MOL0     H75973   7.878   7.529   3.208  5.1440 -1.2348 -0.7485
  563MOL0     H75974   7.982   7.563   3.343 -1.0174  0.3522  2.1355
  563MOL0     H75975   7.708   7.679   3.300  2.0527  1.0276 -0.4659
  563MOL0     H75976   7.808   7.720   3.442  1.1235 -1.3438  0.9091
  563MOL0     H75977   7.815   7.479   3.513 -1.3944 -1.2478  1.7942
  563MOL0     H75978   7.745   7.434   3.368 -1.9999 -0.8544  1.1167
  563MOL0     H75979   7.540   7.522   3.405 -2.0305  1.9378  0.9012
  563MOL0     H75980   7.584   7.421   3.540  1.5100  0.1840 -0.9382
  563MOL0     H75981   7.450   7.609   3.598  0.2556 -1.2744 -0.1926
  563MOL0     H75982   7.576   7.733   3.538  0.7476  2.2402  4.5108
  563MOL0     H75983   7.726   7.648   3.716  0.2424  0.1378  0.1778
  563MOL0     H75984   7.578   7.719   3.778 -1.1167 -0.6622 -0.2913
  563MOL0     H75985   8.346   7.661   3.046  2.5652  0.4634 -2.4282
  563MOL0     H75986   8.579   7.665   3.029 -0.6955  3.3008 -1.5418
  563MOL0     H75987   8.994   7.794   3.207  0.3843  0.2745  0.3586
  563MOL0     H75988   9.219   7.769   3.266 -3.4614  2.1433 -1.7638
  563MOL0     H75989   8.736   8.195   4.072 -3.8257 -2.7026 -0.6645
  563MOL0     H75990   8.524   8.305   4.155 -1.5931  2.0159 -0.1519
  563MOL0     H75991   8.201   8.720   4.012  0.1634  0.6858 -1.8658
  563MOL0     H75992   8.005   8.828   4.107  3.4383 -0.0210  0.2525
  563MOL0     H75993   7.706   8.574   4.259  0.7340 -0.1443 -0.2002
  563MOL0     H75994   7.650   8.737   4.296  0.1869  0.1179  0.2363
  563MOL0     H75995   7.765   8.756   4.505  1.5857 -0.8350  0.0168
  563MOL0     H75996   7.812   8.592   4.502 -1.0839 -1.7399 -1.2491
  563MOL0     H75997   7.576   8.512   4.489  1.5406 -0.8152  1.1513
  563MOL0     H75998   7.525   8.680   4.513  2.6138  1.8824 -0.3302
  563MOL0     H75999   7.516   8.547   4.723  1.1701  0.8194  2.5857
  563MOL0     H76000   7.672   8.491   4.704 -1.4258 -1.3138  2.0537
  563MOL0     H76001   7.749   8.863   4.897  0.9732  0.8224  0.2248
  563MOL0     H76002   7.903   8.450   4.289 -2.7792  1.3100 -0.7086
  563MOL0     H76003   8.165   8.259   4.156 -1.4869 -0.6141 -1.7345
  563MOL0     H76004   8.062   8.296   4.297 -0.0794  1.0618  0.3395
  563MOL0     H76005   7.990   8.251   4.135 -0.3827 -0.8703  0.9583
  564MOL0     O76006   8.344   7.264   3.046 -0.3330 -0.1733  0.2943
  564MOL0     C76007   8.378   7.146   3.071 -0.0316  0.4275  0.3885
  564MOL0     O76008   8.505   7.102   3.064 -0.3411 -0.0875 -0.1355
  564MOL0     C76009   8.603   7.188   3.018  0.2885  0.3596 -0.0710
  564MOL0     C76010   8.624   7.313   3.073  0.3895  0.6765  0.2085
  564MOL0     C76011   8.733   7.395   3.025 -0.2993  0.2365 -0.4874
  564MOL0     C76012   8.815   7.345   2.919 -1.1426 -1.1449 -0.0106
  564MOL0     O76013   8.933   7.399   2.872 -0.0624  0.1750 -0.4822
  564MOL0     C76014   8.969   7.537   2.892 -0.0561 -0.0930  0.3665
  564MOL0     C76015   8.889   7.631   2.801  0.0485  0.5887  0.1270
  564MOL0     C76016   8.949   7.781   2.807 -1.1651  0.0742  0.1099
  564MOL0     C76017   8.824   7.870   2.771  0.4928 -0.8008 -0.7013
  564MOL0     C76018   8.872   8.014   2.781 -0.8328  0.0347  0.2490
  564MOL0     C76019   8.882   8.086   2.912 -0.4780  0.1427 -0.9904
  564MOL0     C76020   8.756   8.098   2.994  0.3028  0.4668 -0.3559
  564MOL0     C76021   8.623   8.086   2.930 -0.2298 -0.0985  0.3397
  564MOL0     N76022   8.514   8.156   3.002 -0.6721 -0.4876  0.1112
  564MOL0     C76023   8.411   8.104   3.077 -0.0967 -1.0280 -0.1751
  564MOL0     C76024   8.344   8.214   3.138 -0.4166  0.5269  0.1189
  564MOL0     C76025   8.223   8.218   3.219  0.7635  0.2475 -0.1720
  564MOL0     C76026   8.095   8.161   3.149  0.7417  0.1618 -0.5204
  564MOL0     C76027   7.963   8.221   3.210  0.8692 -0.3139 -0.2628
  564MOL0     C76028   7.939   8.200   3.367 -0.6094 -0.2091  0.4142
  564MOL0     O76029   7.822   8.264   3.416  0.2603  0.0721 -0.4804
  564MOL0     C76030   7.744   8.203   3.518 -0.5366 -0.1801 -0.0828
  564MOL0     C76031   7.754   8.065   3.561  1.0189 -0.0738 -0.5057
  564MOL0     C76032   7.673   8.022   3.674 -0.4683 -0.0061 -0.0777
  564MOL0     C76033   7.575   8.107   3.735  0.0658  0.1824 -0.1602
  564MOL0     C76034   7.493   8.058   3.849  1.2828  0.1513 -1.3697
  564MOL0     O76035   7.376   8.126   3.883  0.0368  0.1596 -0.5033
  564MOL0     C76036   7.256   8.072   3.931  0.5103 -0.9854  0.3158
  564MOL0     C76037   7.170   8.171   3.972 -0.6357  0.2057  0.5328
  564MOL0     C76038   7.049   8.140   4.025 -0.7122  0.9688 -0.7137
  564MOL0     C76039   7.011   8.004   4.060  0.0091  0.5622 -0.1509
  564MOL0     O76040   6.884   7.966   4.105 -1.0114  0.2918  0.3328
  564MOL0     C76041   6.808   8.058   4.185  0.3280 -0.4692 -0.9988
  564MOL0     C76042   6.701   7.987   4.256  0.6629  0.0253 -0.7818
  564MOL0     C76043   6.658   8.077   4.373  0.2973  0.0235 -0.9088
  564MOL0     C76044   6.712   8.049   4.517 -0.2526  0.6076  0.5178
  564MOL0     C76045   6.654   8.146   4.610  0.6627  0.3965  0.4514
  564MOL0     C76046   6.716   8.136   4.755 -0.2221  0.8671  0.3550
  564MOL0     C76047   6.684   8.259   4.840  0.2378 -0.2995  0.8643
  564MOL0     C76048   6.767   8.254   4.975 -0.1552 -0.3488 -0.0138
  564MOL0    Cl76049   6.952   8.220   4.958 -0.2220 -0.0194  0.0883
  564MOL0     C76050   7.104   7.905   4.014 -0.8649 -0.1821  0.4147
  564MOL0     C76051   7.223   7.936   3.956  0.0786 -0.2087  0.8457
  564MOL0     O76052   7.511   7.943   3.880 -0.6165  0.0014 -0.1441
  564MOL0     C76053   7.568   8.244   3.691  0.2866  0.0383  0.2597
  564MOL0     C76054   7.654   8.282   3.586 -0.0677 -0.3380  0.2089
  564MOL0     N76055   8.409   8.326   3.093  0.3670 -0.9397 -0.6349
  564MOL0     N76056   8.508   8.293   3.023  0.0129 -0.2442  0.4118
  564MOL0     C76057   8.789   7.215   2.866  0.0295  0.3801  0.6125
  564MOL0     C76058   8.676   7.147   2.909 -0.7155 -0.4757  1.1642
  564MOL0     C76059   8.282   7.045   3.123  0.0345  0.2315  0.0304
  564MOL0     C76060   8.280   6.908   3.086  0.0301 -0.3856  0.4844
  564MOL0     C76061   8.205   6.811   3.145 -0.0054 -0.3745  0.5305
  564MOL0     C76062   8.124   6.841   3.250 -0.2062 -0.7000 -0.9950
  564MOL0     O76063   8.068   6.731   3.308  0.6897  0.5782 -0.6530
  564MOL0     C76064   7.975   6.752   3.414  1.2740 -0.1477  0.2283
  564MOL0     C76065   7.844   6.670   3.408  0.1088 -0.3621  0.1885
  564MOL0     C76066   7.875   6.524   3.453 -0.4950 -1.1218 -0.4832
  564MOL0     C76067   7.749   6.446   3.427 -0.2106 -0.3024 -0.8418
  564MOL0     C76068   7.727   6.411   3.284  0.0151 -0.9078 -0.0157
  564MOL0     C76069   7.703   6.382   3.164 -0.2489  0.0914 -0.7674
  564MOL0     C76070   8.115   6.977   3.291 -0.5346  1.0055 -0.5951
  564MOL0     C76071   8.198   7.078   3.226 -0.4755 -0.0340 -0.0425
  564MOL0     C76072   8.183   7.228   3.271 -0.3671 -0.2103  1.0321
  564MOL0     H76073   8.561   7.340   3.157  0.3112 -2.5660  1.3159
  564MOL0     H76074   8.777   7.479   3.077  2.6492 -1.8227  0.6123
  564MOL0     H76075   8.963   7.557   2.999 -4.2077 -3.2291  0.9781
  564MOL0     H76076   9.076   7.530   2.871  0.6367 -0.2770  3.5250
  564MOL0     H76077   8.785   7.624   2.836  0.1030  1.3093  0.4520
  564MOL0     H76078   8.905   7.597   2.698  1.0944  1.3064  0.0412
  564MOL0     H76079   9.029   7.803   2.736 -1.8612  3.2672  0.1648
  564MOL0     H76080   8.978   7.804   2.910 -0.2847 -2.0979  0.4032
  564MOL0     H76081   8.803   7.843   2.666  0.9479 -0.9380 -0.7589
  564MOL0     H76082   8.737   7.851   2.835  0.6927  0.3151 -0.0820
  564MOL0     H76083   8.969   8.023   2.731 -0.9982 -0.2489 -0.1272
  564MOL0     H76084   8.805   8.071   2.717  1.2299 -0.0448 -2.1388
  564MOL0     H76085   8.967   8.059   2.975 -0.7750  1.9929  0.3118
  564MOL0     H76086   8.911   8.188   2.887  1.4853 -0.5189 -1.5812
  564MOL0     H76087   8.757   8.201   3.029 -2.0871 -0.0897  1.6371
  564MOL0     H76088   8.751   8.031   3.080 -1.8754  1.7234  0.5722
  564MOL0     H76089   8.631   8.130   2.830 -0.9460 -3.5300 -1.3631
  564MOL0     H76090   8.576   7.988   2.920 -0.4453 -0.1464  1.6220
  564MOL0     H76091   8.398   7.999   3.102 -0.8739 -1.1570 -1.0660
  564MOL0     H76092   8.231   8.169   3.316  2.7316  4.8723  2.2830
  564MOL0     H76093   8.204   8.324   3.240 -2.6938 -0.5362  1.3717
  564MOL0     H76094   8.103   8.201   3.048  0.1970  4.2855  0.8818
  564MOL0     H76095   8.101   8.052   3.155 -0.7345  0.1280  3.1816
  564MOL0     H76096   7.889   8.158   3.160 -0.0220  0.7194 -0.2862
  564MOL0     H76097   7.956   8.329   3.193  3.0536  0.7252  3.9541
  564MOL0     H76098   8.017   8.236   3.434 -0.8966 -1.7591  1.6474
  564MOL0     H76099   7.948   8.091   3.374  1.6746 -0.4222 -3.2120
  564MOL0     H76100   7.823   7.999   3.510  0.2289 -0.0010 -1.7055
  564MOL0     H76101   7.696   7.920   3.704  2.3253  0.2901 -0.9504
  564MOL0     H76102   7.191   8.278   3.970 -0.4840  0.2017 -3.1282
  564MOL0     H76103   6.972   8.213   4.046 -2.2962 -1.0031  0.6923
  564MOL0     H76104   6.870   8.098   4.265  2.0348 -3.1283 -0.8495
  564MOL0     H76105   6.757   8.134   4.126  0.8130  2.1937  1.7760
  564MOL0     H76106   6.618   7.975   4.186  0.1331  1.4908 -0.4444
  564MOL0     H76107   6.732   7.889   4.295  1.0437 -0.1396 -1.4831
  564MOL0     H76108   6.679   8.182   4.351  2.0320  1.7332  6.3775
  564MOL0     H76109   6.550   8.062   4.382 -0.1273  2.6309 -0.9364
  564MOL0     H76110   6.819   8.063   4.502 -0.1468  1.0142  1.6355
  564MOL0     H76111   6.695   7.946   4.547 -0.0881  0.4272 -0.0003
  564MOL0     H76112   6.545   8.149   4.603  0.7300  2.7538 -0.6379
  564MOL0     H76113   6.681   8.240   4.563 -1.5805 -0.1450 -2.2210
  564MOL0     H76114   6.672   8.047   4.801  1.5626  0.0951  0.6294
  564MOL0     H76115   6.823   8.125   4.737  0.0963  0.7683  2.1533
  564MOL0     H76116   6.575   8.271   4.848  0.0184  1.6589 -2.8861
  564MOL0     H76117   6.705   8.347   4.778 -0.4245 -0.7628 -0.0495
  564MOL0     H76118   6.753   8.343   5.037 -0.2558 -2.4435  3.1776
  564MOL0     H76119   6.723   8.171   5.031 -0.7285 -1.4760 -2.0301
  564MOL0     H76120   7.059   7.806   4.019  0.1979 -0.6372  1.7006
  564MOL0     H76121   7.287   7.851   3.935  0.0541 -0.0996  0.2965
  564MOL0     H76122   7.493   8.312   3.732 -0.7638  2.1485 -4.4829
  564MOL0     H76123   7.648   8.386   3.556 -0.2494 -0.1292  0.9310
  564MOL0     H76124   8.852   7.174   2.788 -1.2872 -0.2713 -0.1527
  564MOL0     H76125   8.663   7.047   2.869  1.8105 -1.0170  1.5316
  564MOL0     H76126   8.358   6.876   3.017 -0.6627  0.2710 -0.6279
  564MOL0     H76127   8.209   6.706   3.115  1.5186  0.0533 -0.9260
  564MOL0     H76128   7.937   6.854   3.407  0.9606 -0.2798 -0.0841
  564MOL0     H76129   8.034   6.756   3.505 -0.8163  3.3006  1.6250
  564MOL0     H76130   7.799   6.680   3.309 -0.2430  0.5806  0.4275
  564MOL0     H76131   7.784   6.723   3.483  1.7440  1.3996  0.3351
  564MOL0     H76132   7.896   6.525   3.561 -2.4837  0.7306 -0.0364
  564MOL0     H76133   7.960   6.480   3.401  0.4807  1.2950 -1.0792
  564MOL0     H76134   7.763   6.349   3.477 -2.0064 -1.2845 -2.0836
  564MOL0     H76135   7.667   6.486   3.488 -2.2441 -4.1677 -0.6915
  564MOL0     H76136   7.663   6.364   3.067  1.2441  0.0570 -1.4086
  564MOL0     H76137   8.050   7.014   3.370 -3.7458 -4.1195 -0.3898
  564MOL0     H76138   8.273   7.287   3.288 -2.0100  2.8176 -0.0838
  564MOL0     H76139   8.142   7.284   3.187 -0.2325 -2.4099 -0.6099
  564MOL0     H76140   8.119   7.227   3.360  1.4916 -2.4322  2.4827
  565MOL0     O76141   9.242  10.881  11.411  0.2394 -0.2514  0.1711
  565MOL0     C76142   9.125  10.881  11.374  0.1935  0.6181 -1.3400
  565MOL0     O76143   9.030  10.980  11.376 -0.2874 -0.7377  0.4951
  565MOL0     C76144   9.064  11.097  11.447  0.6218 -0.3415  0.0946
  565MOL0     C76145   9.031  11.225  11.393  0.1526  0.1881 -0.0829
  565MOL0     C76146   9.055  11.336  11.468 -0.1885 -0.0202  0.5019
  565MOL0     C76147   9.133  11.334  11.581  0.2478  0.3751  0.0498
  565MOL0     O76148   9.176  11.451  11.652 -0.0773 -0.2978 -0.0598
  565MOL0     C76149   9.114  11.578  11.611 -1.0883  0.1591 -0.5591
  565MOL0     C76150   9.191  11.687  11.674 -0.3737  0.0457  0.2318
  565MOL0     C76151   9.205  11.693  11.822 -0.0385 -0.2428 -0.3157
  565MOL0     C76152   9.321  11.783  11.868  0.0414 -0.5448 -0.1415
  565MOL0     C76153   9.298  11.823  12.005  0.2929 -0.6673 -0.0964
  565MOL0     C76154   9.400  11.916  12.055  0.0592 -0.3913  0.1141
  565MOL0     C76155   9.374  11.958  12.202 -0.6313 -0.8374 -0.5661
  565MOL0     C76156   9.374  11.853  12.316  0.0001 -0.3587  0.5979
  565MOL0     N76157   9.319  11.894  12.446  0.2951  0.4445  0.0197
  565MOL0     C76158   9.197  11.861  12.490 -0.7357  0.1085  0.5190
  565MOL0     C76159   9.175  11.945  12.602  0.3313 -0.1397  1.0514
  565MOL0     C76160   9.052  11.922  12.693 -0.2248 -0.3431 -0.2702
  565MOL0     C76161   8.956  12.038  12.679 -0.3684  0.2549  0.4415
  565MOL0     C76162   9.011  12.162  12.749  0.0210  0.0867 -0.4801
  565MOL0     C76163   8.895  12.272  12.770  0.0602  0.4559  0.3967
  565MOL0     O76164   8.956  12.401  12.769 -0.2844 -0.5766 -0.2586
  565MOL0     C76165   8.884  12.512  12.724  0.4491  0.6891  0.4826
  565MOL0     C76166   8.957  12.632  12.717  0.7313 -0.4703 -0.0996
  565MOL0     C76167   8.897  12.752  12.673 -0.9408  0.4957  0.1527
  565MOL0     C76168   8.767  12.761  12.635  0.4783  0.4816 -0.2075
  565MOL0     C76169   8.701  12.889  12.602  0.1628  0.4339 -1.0507
  565MOL0     O76170   8.768  13.002  12.604  0.3424 -0.0871  0.8694
  565MOL0     C76171   8.717  13.123  12.574  0.2130 -0.0720  0.4873
  565MOL0     C76172   8.637  13.177  12.681 -0.1267 -0.5194 -0.1158
  565MOL0     C76173   8.568  13.296  12.655  0.6392 -0.2615  1.2814
  565MOL0     C76174   8.576  13.359  12.533 -0.1461  0.4244  0.6719
  565MOL0     O76175   8.513  13.478  12.508 -0.3027 -1.0453  1.2080
  565MOL0     C76176   8.384  13.503  12.556 -0.1087  0.7416 -0.2587
  565MOL0     C76177   8.266  13.416  12.510 -0.2037 -0.7861 -0.5936
  565MOL0     C76178   8.130  13.462  12.550  0.3555 -0.1186 -0.3167
  565MOL0     C76179   8.029  13.358  12.504  0.4837  0.2825 -0.1726
  565MOL0     C76180   7.888  13.401  12.555 -0.0106 -0.5075  0.4007
  565MOL0     C76181   7.787  13.308  12.483 -0.1977  0.4337 -0.3050
  565MOL0     C76182   7.788  13.163  12.534 -0.5157 -0.4556  0.1681
  565MOL0     C76183   7.710  13.076  12.434  0.1255  0.1194 -0.1310
  565MOL0    Cl76184   7.544  13.140  12.396  0.3645 -0.2673  0.1177
  565MOL0     C76185   8.674  13.317  12.440  0.6233 -0.2158  0.8927
  565MOL0     C76186   8.743  13.200  12.463  0.3618 -0.6486 -0.6977
  565MOL0     O76187   8.580  12.886  12.570 -0.8084  0.2117 -0.4367
  565MOL0     C76188   8.687  12.644  12.652 -0.2703  0.4542 -0.0703
  565MOL0     C76189   8.747  12.521  12.686 -0.8603  0.5232  0.0204
  565MOL0     N76190   9.296  12.011  12.623 -0.5783 -0.1488 -0.4502
  565MOL0     N76191   9.382  11.977  12.530 -0.0587 -0.2962  0.8350
  565MOL0     C76192   9.153  11.212  11.642 -0.1651 -0.2412  0.0854
  565MOL0     C76193   9.115  11.091  11.575 -0.4234 -0.6563 -0.5336
  565MOL0     C76194   9.067  10.745  11.332 -0.0820 -0.9895 -0.4559
  565MOL0     C76195   9.137  10.679  11.225 -0.8681 -0.6008 -1.0138
  565MOL0     C76196   9.092  10.553  11.185 -0.6412  0.2040  0.1403
  565MOL0     C76197   8.978  10.492  11.243 -0.0867  0.9536  0.2991
  565MOL0     O76198   8.933  10.363  11.213 -0.2280 -0.2426  0.6951
  565MOL0     C76199   9.034  10.270  11.171  0.8724  0.1786 -0.9158
  565MOL0     C76200   8.970  10.135  11.129 -0.1068 -0.2442 -0.1497
  565MOL0     C76201   8.893  10.131  10.998 -1.2028  0.1335  0.0263
  565MOL0     C76202   8.841   9.994  10.974  0.9962  0.1360  0.2775
  565MOL0     C76203   8.756   9.981  10.856 -0.4288  0.0245  0.8206
  565MOL0     C76204   8.686   9.960  10.761 -0.5993 -0.1811  0.9313
  565MOL0     C76205   8.913  10.569  11.332  0.6117 -0.8340 -0.7935
  565MOL0     C76206   8.953  10.691  11.387 -1.0060  0.5664 -0.8880
  565MOL0     C76207   8.885  10.741  11.510 -0.4196  0.0209 -0.5096
  565MOL0     H76208   8.971  11.243  11.304  1.4950 -0.5039 -1.1620
  565MOL0     H76209   9.020  11.422  11.413 -0.5106 -0.4662  0.0009
  565MOL0     H76210   9.122  11.589  11.502 -1.1900 -1.3683 -0.7324
  565MOL0     H76211   9.008  11.583  11.636 -1.3188  0.6532 -1.5589
  565MOL0     H76212   9.142  11.781  11.646  0.1852  0.3050  0.1167
  565MOL0     H76213   9.286  11.681  11.621  0.2881  1.8507  1.1454
  565MOL0     H76214   9.226  11.594  11.863  1.4751  1.4545  3.5830
  565MOL0     H76215   9.110  11.725  11.867  0.2601 -1.5224  1.2996
  565MOL0     H76216   9.413  11.728  11.845 -0.9342 -1.7520 -1.3231
  565MOL0     H76217   9.318  11.873  11.805  2.5967 -0.8555 -0.8255
  565MOL0     H76218   9.200  11.871  12.014  0.3060  0.0717 -2.9300
  565MOL0     H76219   9.297  11.734  12.068  1.9219  0.6264  1.8589
  565MOL0     H76220   9.500  11.873  12.044 -0.9969 -2.8300 -0.6547
  565MOL0     H76221   9.386  12.008  11.996  2.3271 -0.2632 -0.2973
  565MOL0     H76222   9.279  12.014  12.207 -0.1044 -0.0307  3.0928
  565MOL0     H76223   9.452  12.031  12.226 -3.8726  3.2684 -1.1972
  565MOL0     H76224   9.331  11.756  12.289  0.5331 -0.3812 -0.2134
  565MOL0     H76225   9.480  11.828  12.329  0.1895 -0.5758 -1.1501
  565MOL0     H76226   9.123  11.799  12.441  0.5890  0.0105 -1.4847
  565MOL0     H76227   9.009  11.825  12.665 -1.5794  0.6102 -1.6560
  565MOL0     H76228   9.075  11.926  12.799  0.6257  0.8545 -0.4745
  565MOL0     H76229   8.932  12.058  12.574  1.5525  0.1681 -0.0550
  565MOL0     H76230   8.869  12.004  12.736 -0.2333 -1.0036 -0.0677
  565MOL0     H76231   9.097  12.202  12.696  2.4501  0.3439  3.2859
  565MOL0     H76232   9.065  12.138  12.841  2.0104  1.5494 -1.2164
  565MOL0     H76233   8.843  12.252  12.864 -2.3053 -0.5567 -1.0399
  565MOL0     H76234   8.821  12.264  12.690 -0.7345  1.1743  1.0398
  565MOL0     H76235   9.059  12.632  12.754  0.9216  1.1505 -0.5444
  565MOL0     H76236   8.947  12.848  12.677 -0.3793  0.4545 -2.9104
  565MOL0     H76237   8.627  13.132  12.780 -1.4862  0.4631  0.2319
  565MOL0     H76238   8.518  13.333  12.744  0.8807 -0.9350  1.7063
  565MOL0     H76239   8.373  13.477  12.662 -1.9707 -1.1166 -0.8400
  565MOL0     H76240   8.355  13.608  12.542  3.2449  1.7799 -0.3169
  565MOL0     H76241   8.284  13.418  12.402  1.2780 -0.6633 -0.3762
  565MOL0     H76242   8.285  13.315  12.548  1.6642  0.4617  2.1215
  565MOL0     H76243   8.114  13.482  12.657  0.7769  2.7961 -0.7145
  565MOL0     H76244   8.111  13.553  12.494  1.8191  1.1449  1.1371
  565MOL0     H76245   8.053  13.263  12.551  0.9480  0.2391 -0.4899
  565MOL0     H76246   8.032  13.344  12.395 -4.0273  1.4996 -0.6334
  565MOL0     H76247   7.883  13.504  12.519  1.7767  0.5246  2.7746
  565MOL0     H76248   7.880  13.402  12.664  1.5944  1.5315  0.5528
  565MOL0     H76249   7.687  13.348  12.500 -0.6017  0.1745 -1.9373
  565MOL0     H76250   7.807  13.309  12.375  1.2143  0.1098 -0.0712
  565MOL0     H76251   7.749  13.152  12.636 -1.4978 -2.8589 -0.4138
  565MOL0     H76252   7.890  13.122  12.531 -0.7697 -1.0364 -1.0491
  565MOL0     H76253   7.764  13.054  12.341 -0.1575 -0.4267 -0.1678
  565MOL0     H76254   7.702  12.976  12.476  0.9402 -0.7622 -1.9785
  565MOL0     H76255   8.691  13.362  12.343 -0.3189 -4.5355 -1.5822
  565MOL0     H76256   8.814  13.164  12.390 -2.2056 -3.1288 -2.1650
  565MOL0     H76257   8.581  12.646  12.630 -0.1988 -2.2097 -1.0658
  565MOL0     H76258   8.687  12.432  12.705  2.1649 -1.5672  0.5378
  565MOL0     H76259   9.202  11.229  11.737 -0.2297  1.0442 -0.0933
  565MOL0     H76260   9.127  10.996  11.626  0.0934  0.1300  0.8858
  565MOL0     H76261   9.219  10.737  11.182  0.1748  1.0378  2.7428
  565MOL0     H76262   9.140  10.511  11.097 -3.1028 -0.5111 -0.9474
  565MOL0     H76263   9.107  10.242  11.248  1.2673  0.1014 -1.3092
  565MOL0     H76264   9.100  10.300  11.089  2.0917  0.2062  0.0482
  565MOL0     H76265   8.895  10.103  11.202  1.3522 -3.9693 -0.0746
  565MOL0     H76266   9.050  10.061  11.127 -2.9829 -3.6281 -1.9935
  565MOL0     H76267   8.966  10.150  10.919 -1.1349 -3.1682 -0.8596
  565MOL0     H76268   8.812  10.203  10.988 -0.2977  1.0210 -1.2473
  565MOL0     H76269   8.916   9.915  10.965 -1.9685 -2.9049  0.2106
  565MOL0     H76270   8.773   9.964  11.055  4.2944 -1.7811  2.5526
  565MOL0     H76271   8.625   9.956  10.673  0.1525  2.4628  0.2017
  565MOL0     H76272   8.817  10.529  11.361 -2.0597  3.4876 -2.6398
  565MOL0     H76273   8.793  10.791  11.476 -1.9713 -1.9351  0.6274
  565MOL0     H76274   8.845  10.653  11.561  1.3778 -0.9919 -0.7444
  565MOL0     H76275   8.946  10.806  11.574 -1.9529 -0.6130  1.7099
  566MOL0     O76276   1.687   7.238   6.844 -0.6373  0.3303  0.0472
  566MOL0     C76277   1.761   7.138   6.848  0.4804  0.0418  0.7165
  566MOL0     O76278   1.720   7.005   6.853  0.1507  0.0178 -0.2042
  566MOL0     C76279   1.584   6.971   6.877  0.4853 -0.5918  0.6314
  566MOL0     C76280   1.544   6.948   7.013 -0.2396  0.0321  0.3812
  566MOL0     C76281   1.410   6.908   7.042 -0.6373  0.1092  0.0478
  566MOL0     C76282   1.313   6.905   6.937 -1.3226  0.0058  0.1878
  566MOL0     O76283   1.183   6.874   6.982 -0.1057 -0.4993  0.0223
  566MOL0     C76284   1.078   6.913   6.902 -0.4938  0.2308 -0.0356
  566MOL0     C76285   0.957   6.832   6.924 -0.3053 -0.0912 -1.3848
  566MOL0     C76286   0.947   6.706   6.842  0.8172 -0.3580  0.5607
  566MOL0     C76287   0.842   6.605   6.902 -0.6085  0.5941  0.5376
  566MOL0     C76288   0.706   6.673   6.919  0.1298 -0.0184  1.0085
  566MOL0     C76289   0.607   6.571   6.992 -0.6402  0.1210  0.4954
  566MOL0     C76290   0.496   6.647   7.070  0.1382 -0.2727 -1.0809
  566MOL0     C76291   0.391   6.541   7.106 -0.5549  0.3170  0.6965
  566MOL0     N76292   0.302   6.617   7.200  0.2329  0.1685 -0.6025
  566MOL0     C76293   0.208   6.707   7.162 -0.2125 -0.4218  0.3245
  566MOL0     C76294   0.155   6.755   7.272  0.2165 -0.1050 -0.2357
  566MOL0     C76295   0.079   6.883   7.276  0.3843 -0.0068  0.0704
  566MOL0     C76296  -0.072   6.877   7.259 -0.0310 -0.3664 -0.5409
  566MOL0     C76297  -0.097   6.821   7.108 -0.2309 -0.5246 -0.9979
  566MOL0     C76298  -0.243   6.777   7.103 -0.8149 -1.0261 -0.2940
  566MOL0     O76299  -0.333   6.891   7.097  0.8188 -0.5891 -0.1297
  566MOL0     C76300  -0.359   6.967   6.976 -0.9272 -0.0536  0.0522
  566MOL0     C76301  -0.452   7.068   6.976  0.2616 -0.2993  0.1199
  566MOL0     C76302  -0.462   7.155   6.868  0.0925 -0.4671 -0.2158
  566MOL0     C76303  -0.377   7.144   6.751 -0.2174 -0.5791  0.4805
  566MOL0     C76304  -0.373   7.245   6.641 -0.7958  0.4961  0.1626
  566MOL0     O76305  -0.300   7.206   6.536  0.7477 -0.3953  0.6821
  566MOL0     C76306  -0.336   7.264   6.409 -0.5998  0.4089 -0.2953
  566MOL0     C76307  -0.229   7.265   6.321  0.4052  0.6321  0.6836
  566MOL0     C76308  -0.233   7.322   6.191  0.0064 -0.1638 -0.6001
  566MOL0     C76309  -0.359   7.376   6.154 -0.7897  0.1067  0.6079
  566MOL0     O76310  -0.356   7.434   6.032  1.0520  1.0060  0.0653
  566MOL0     C76311  -0.358   7.581   6.034 -0.7549  0.0355 -0.7198
  566MOL0     C76312  -0.225   7.633   5.986  0.0806 -0.3517  1.0663
  566MOL0     C76313  -0.199   7.783   6.013 -0.0837  0.4684  0.3916
  566MOL0     C76314  -0.059   7.806   5.954 -0.8707  0.2917 -0.6866
  566MOL0     C76315  -0.017   7.955   5.994  0.1782 -0.5436  0.2805
  566MOL0     C76316   0.011   7.974   6.144 -0.1395 -0.5881  0.6569
  566MOL0     C76317   0.095   8.096   6.151  0.8900 -0.4795 -0.0746
  566MOL0     C76318   0.164   8.087   6.289  0.2875  0.0220 -0.2547
  566MOL0    Cl76319   0.266   7.945   6.300 -0.3896 -0.1589 -0.3258
  566MOL0     C76320  -0.464   7.360   6.238 -0.2129 -1.1402 -0.0851
  566MOL0     C76321  -0.459   7.297   6.365  0.3281 -0.3765 -0.2769
  566MOL0     O76322  -0.441   7.351   6.654 -0.5084 -0.4650 -0.2051
  566MOL0     C76323  -0.320   7.012   6.740  1.2297  0.5713 -0.1799
  566MOL0     C76324  -0.304   6.933   6.849 -0.1230  0.2345 -1.3433
  566MOL0     N76325   0.212   6.685   7.386 -0.1313  0.3478 -0.0249
  566MOL0     N76326   0.298   6.605   7.338  0.9899 -0.3873 -0.0152
  566MOL0     C76327   1.349   6.928   6.802 -0.4039  0.3925  0.0986
  566MOL0     C76328   1.487   6.953   6.772  0.1880 -0.8862 -0.6089
  566MOL0     C76329   1.906   7.147   6.851 -0.4166 -0.3410 -0.0797
  566MOL0     C76330   1.985   7.031   6.888 -1.7625  0.3769 -0.2732
  566MOL0     C76331   2.129   7.034   6.891  1.3512  0.8736 -0.7837
  566MOL0     C76332   2.192   7.157   6.860 -0.5837  0.6220  0.1698
  566MOL0     O76333   2.324   7.147   6.838 -0.0409 -0.8965  0.4492
  566MOL0     C76334   2.384   7.236   6.922 -0.2429 -0.6059  0.0920
  566MOL0     C76335   2.415   7.182   7.061 -0.4047 -0.4272  0.0361
  566MOL0     C76336   2.311   7.228   7.177  0.0439  0.1346 -0.6340
  566MOL0     C76337   2.214   7.118   7.224  0.5325  0.9201 -0.5767
  566MOL0     C76338   2.091   7.166   7.294  0.1101 -0.6373  1.0048
  566MOL0     C76339   1.989   7.199   7.345  0.1269 -1.2250  0.5196
  566MOL0     C76340   2.113   7.273   6.821  0.2908 -0.4399  0.2334
  566MOL0     C76341   1.974   7.270   6.824 -0.8703  0.6172  0.1822
  566MOL0     C76342   1.907   7.401   6.778  0.1846 -1.2440  0.4273
  566MOL0     H76343   1.618   6.946   7.092 -0.7502 -1.5988  0.8656
  566MOL0     H76344   1.388   6.879   7.144  2.7489 -1.8022  0.3949
  566MOL0     H76345   1.044   7.015   6.919 -4.2702 -1.2493  2.5420
  566MOL0     H76346   1.100   6.896   6.796  0.2876 -1.8926  0.4084
  566MOL0     H76347   0.876   6.902   6.903  0.4098 -0.0309 -4.3727
  566MOL0     H76348   0.955   6.798   7.028 -2.4345 -3.1015 -2.2961
  566MOL0     H76349   1.044   6.657   6.838  0.5201 -1.1461  2.3289
  566MOL0     H76350   0.917   6.722   6.738  0.3494 -0.9319  0.6074
  566MOL0     H76351   0.817   6.518   6.841 -0.6893  0.1698  1.1691
  566MOL0     H76352   0.876   6.564   6.997 -0.7708  1.2998  0.9150
  566MOL0     H76353   0.720   6.761   6.983  1.7911 -0.6537  1.5766
  566MOL0     H76354   0.673   6.714   6.824  1.6504  0.3377  0.6225
  566MOL0     H76355   0.568   6.504   6.915 -1.1134 -2.4491  2.8024
  566MOL0     H76356   0.666   6.503   7.054 -1.1140 -1.2651 -0.5333
  566MOL0     H76357   0.449   6.733   7.023 -0.6323  2.0065  3.3024
  566MOL0     H76358   0.536   6.690   7.162  1.5740  2.9636 -3.0468
  566MOL0     H76359   0.332   6.504   7.021 -1.1065  4.1842 -0.8282
  566MOL0     H76360   0.426   6.448   7.151 -3.9846 -1.2197  0.4936
  566MOL0     H76361   0.188   6.738   7.060 -2.0514 -0.2917  0.6903
  566MOL0     H76362   0.108   6.931   7.370  0.6514  3.1087 -1.4942
  566MOL0     H76363   0.114   6.942   7.191 -0.7351  1.5672  0.6780
  566MOL0     H76364  -0.090   6.804   7.339 -0.8154  0.2294 -0.1553
  566MOL0     H76365  -0.118   6.973   7.285 -0.8351 -0.2745 -2.1714
  566MOL0     H76366  -0.037   6.730   7.095 -0.9918 -1.1933 -0.0413
  566MOL0     H76367  -0.080   6.898   7.033 -1.3061 -0.0606 -0.7834
  566MOL0     H76368  -0.259   6.710   7.187 -2.5886 -0.7184 -0.3311
  566MOL0     H76369  -0.256   6.711   7.017  1.8746 -0.1629 -1.4757
  566MOL0     H76370  -0.506   7.084   7.069  2.1737  1.9670  0.9315
  566MOL0     H76371  -0.534   7.236   6.883  0.2853 -0.1968 -0.7349
  566MOL0     H76372  -0.151   7.216   6.379 -2.2065 -1.1480  2.9290
  566MOL0     H76373  -0.154   7.341   6.119 -1.3436  1.3812 -1.7405
  566MOL0     H76374  -0.435   7.604   5.959 -0.4785 -0.4939 -1.1727
  566MOL0     H76375  -0.387   7.626   6.129  1.0980 -1.5167  0.6410
  566MOL0     H76376  -0.142   7.580   6.033  1.6668 -0.1897 -1.3542
  566MOL0     H76377  -0.215   7.590   5.886 -2.9955  0.4899  0.2907
  566MOL0     H76378  -0.276   7.847   5.969 -2.0000  0.2032  3.1171
  566MOL0     H76379  -0.191   7.805   6.120  2.3512  0.1822  0.3251
  566MOL0     H76380  -0.053   7.793   5.846  1.7823  0.1617 -0.5920
  566MOL0     H76381   0.013   7.740   6.005 -0.3037  2.1270  1.0005
  566MOL0     H76382  -0.099   8.021   5.961  0.8977 -0.0748 -0.6183
  566MOL0     H76383   0.065   7.981   5.927  0.5609  0.4548  1.1193
  566MOL0     H76384  -0.088   7.982   6.190  0.9194 -0.2408  3.0020
  566MOL0     H76385   0.057   7.881   6.180  2.7774 -1.7665 -4.9724
  566MOL0     H76386   0.038   8.189   6.142  1.7851 -0.1067 -2.7854
  566MOL0     H76387   0.171   8.094   6.072  1.2093 -1.3997  0.2452
  566MOL0     H76388   0.229   8.173   6.304 -1.8993  1.6233  0.4743
  566MOL0     H76389   0.092   8.085   6.371  0.0911  1.5439 -0.3778
  566MOL0     H76390  -0.558   7.392   6.193 -0.2637 -2.3714 -0.9171
  566MOL0     H76391  -0.545   7.270   6.426 -1.8467 -3.3846 -4.1883
  566MOL0     H76392  -0.264   6.972   6.656  2.2747  2.7137 -0.5723
  566MOL0     H76393  -0.243   6.843   6.849  0.4660  0.6150 -0.3471
  566MOL0     H76394   1.280   6.917   6.719 -1.8912 -3.0549  1.6259
  566MOL0     H76395   1.490   6.963   6.664 -0.8264 -2.5219 -0.8229
  566MOL0     H76396   1.937   6.941   6.924  1.8676 -1.2445  0.9720
  566MOL0     H76397   2.188   6.944   6.899 -1.2252 -1.0779 -1.9927
  566MOL0     H76398   2.339   7.335   6.937  1.1841 -0.1753  1.9876
  566MOL0     H76399   2.477   7.264   6.870 -0.5380 -0.9875 -0.6637
  566MOL0     H76400   2.521   7.173   7.085 -0.4150  1.8231  1.2301
  566MOL0     H76401   2.388   7.077   7.051 -3.1475  0.1607  0.3317
  566MOL0     H76402   2.239   7.307   7.155 -2.1575 -1.3117  0.9624
  566MOL0     H76403   2.380   7.262   7.255 -0.3275 -0.8744  0.1579
  566MOL0     H76404   2.183   7.073   7.129  0.8325 -0.0793 -0.2111
  566MOL0     H76405   2.274   7.040   7.272  4.3160  3.0111 -1.5282
  566MOL0     H76406   1.910   7.248   7.399  2.4624  1.5724  1.7040
  566MOL0     H76407   2.173   7.353   6.777  0.2261  0.4581  1.6998
  566MOL0     H76408   1.817   7.374   6.721  0.9287 -0.0142 -1.4103
  566MOL0     H76409   1.877   7.464   6.862 -1.6853 -1.1932 -0.2243
  566MOL0     H76410   1.967   7.463   6.711  1.3776 -0.7472  1.8962
  567MOL0     O76411   9.160   9.356   3.856 -0.6801 -0.8814 -0.6610
  567MOL0     C76412   9.059   9.343   3.914 -0.2507 -0.0148 -0.2314
  567MOL0     O76413   9.066   9.288   4.043  0.6930 -0.4672  1.1449
  567MOL0     C76414   9.171   9.295   4.125 -0.7215 -0.6369  0.0735
  567MOL0     C76415   9.180   9.203   4.226  0.0435 -1.1283 -0.1764
  567MOL0     C76416   9.266   9.205   4.331 -0.5680 -0.7258  0.1745
  567MOL0     C76417   9.363   9.311   4.334 -0.1226  0.2517  0.1923
  567MOL0     O76418   9.450   9.338   4.444  0.3604 -0.0308 -0.5645
  567MOL0     C76419   9.516   9.223   4.513 -0.0840 -0.5426  0.1988
  567MOL0     C76420   9.594   9.278   4.628  0.0797  0.8003 -0.6681
  567MOL0     C76421   9.676   9.170   4.714  0.0193 -0.2343  0.5677
  567MOL0     C76422   9.773   9.238   4.808  0.9757  0.2950  0.5349
  567MOL0     C76423   9.907   9.284   4.736  0.5270 -0.0104  0.6885
  567MOL0     C76424   9.990   9.358   4.828  0.2531 -0.4348 -0.3147
  567MOL0     C76425  10.103   9.441   4.752  0.5175 -0.4402  0.4153
  567MOL0     C76426  10.232   9.366   4.729  0.3522 -0.3601  0.6961
  567MOL0     N76427  10.315   9.449   4.651 -0.3526 -0.4579  0.2841
  567MOL0     C76428  10.338   9.435   4.513 -0.4433 -0.4104 -0.6308
  567MOL0     C76429  10.427   9.536   4.486  0.1760  0.2771 -1.0833
  567MOL0     C76430  10.486   9.549   4.345  0.8396 -0.4827 -0.3942
  567MOL0     C76431  10.424   9.682   4.299  0.2510  1.1356 -0.0816
  567MOL0     C76432  10.483   9.732   4.154  0.3179 -0.5688  0.7730
  567MOL0     C76433  10.433   9.863   4.101 -0.0534  0.6301 -0.0699
  567MOL0     O76434  10.291   9.880   4.122 -1.2566  0.2245 -0.0376
  567MOL0     C76435  10.199   9.826   4.035 -0.5365 -0.7967 -1.0963
  567MOL0     C76436  10.230   9.753   3.916 -0.4161  0.5197  0.0886
  567MOL0     C76437  10.126   9.693   3.851 -0.2720 -0.3220  0.1631
  567MOL0     C76438  10.000   9.722   3.868  0.2001 -0.4740  0.2131
  567MOL0     C76439   9.907   9.664   3.769 -0.2079 -0.0670 -0.2294
  567MOL0     O76440   9.946   9.564   3.688  0.3686  0.7600 -0.6338
  567MOL0     C76441   9.840   9.495   3.612 -0.4588  0.9784  0.7304
  567MOL0     C76442   9.768   9.563   3.510  0.3167 -0.1333  0.5786
  567MOL0     C76443   9.703   9.490   3.419 -0.2236  0.1114 -0.1584
  567MOL0     C76444   9.687   9.352   3.418  0.3719 -0.2550  0.8090
  567MOL0     O76445   9.630   9.276   3.318  0.4323 -0.1266 -0.6247
  567MOL0     C76446   9.605   9.351   3.197 -0.4119  0.0696 -0.0995
  567MOL0     C76447   9.600   9.275   3.069 -0.2262  0.8090 -0.6226
  567MOL0     C76448   9.728   9.196   3.054  0.6615 -0.4445 -0.0675
  567MOL0     C76449   9.728   9.157   2.903  1.0351  0.1222  0.2132
  567MOL0     C76450   9.864   9.104   2.853  0.7846 -0.7457  0.3608
  567MOL0     C76451   9.882   8.949   2.861  0.6900 -0.2687  0.4629
  567MOL0     C76452   9.856   8.891   3.002  0.7963 -0.5791  0.1394
  567MOL0     C76453   9.916   8.748   3.023  0.5913 -0.1855 -0.2870
  567MOL0    Cl76454  10.085   8.762   2.977 -0.1289  0.6524 -0.2598
  567MOL0     C76455   9.750   9.287   3.530  0.0521 -0.0933  0.0453
  567MOL0     C76456   9.823   9.360   3.626  0.2600  0.0790 -0.1513
  567MOL0     O76457   9.793   9.716   3.776 -0.4960 -0.1530  0.3867
  567MOL0     C76458   9.963   9.793   3.986 -0.5840  0.0706  0.2097
  567MOL0     C76459  10.064   9.840   4.069 -0.2496 -0.3048 -0.2247
  567MOL0     N76460  10.461   9.603   4.605  0.1247 -0.3968  0.5272
  567MOL0     N76461  10.399   9.550   4.698  0.2772  0.1837  0.0723
  567MOL0     C76462   9.374   9.391   4.224 -0.2684 -0.1247 -0.6208
  567MOL0     C76463   9.271   9.396   4.127 -0.5283  0.8327  0.2135
  567MOL0     C76464   8.933   9.369   3.850  0.3849  0.1253 -0.5202
  567MOL0     C76465   8.817   9.304   3.903  0.5409 -0.1365  0.1801
  567MOL0     C76466   8.695   9.328   3.837  0.1410 -0.1545 -0.2526
  567MOL0     C76467   8.685   9.415   3.729  0.1479 -0.5735  0.7066
  567MOL0     O76468   8.567   9.453   3.671  0.2585  0.1435 -0.4692
  567MOL0     C76469   8.442   9.390   3.717  0.0911  0.3542  0.8216
  567MOL0     C76470   8.337   9.460   3.631 -0.3619 -0.4166 -0.2246
  567MOL0     C76471   8.196   9.419   3.665 -0.0068 -0.6537  0.4841
  567MOL0     C76472   8.100   9.512   3.589 -0.1511 -0.1370 -0.2467
  567MOL0     C76473   7.969   9.498   3.665  0.2856 -0.5768  0.4116
  567MOL0     C76474   7.853   9.487   3.711 -0.2901  0.3626 -0.3933
  567MOL0     C76475   8.795   9.482   3.678  0.9040  0.1623 -0.2930
  567MOL0     C76476   8.918   9.457   3.732  0.0048  0.0819  0.3414
  567MOL0     C76477   9.036   9.525   3.667  0.1127 -0.5072 -0.2281
  567MOL0     H76478   9.089   9.144   4.238  0.9342 -2.3627  0.8739
  567MOL0     H76479   9.245   9.130   4.406 -2.5771  0.0064  0.3848
  567MOL0     H76480   9.429   9.185   4.569 -0.0594 -0.5276  0.2443
  567MOL0     H76481   9.568   9.156   4.444 -1.1520  2.8649 -4.4699
  567MOL0     H76482   9.519   9.324   4.692  1.9343  3.1133 -0.0002
  567MOL0     H76483   9.667   9.357   4.604  0.6863  0.7430  0.8780
  567MOL0     H76484   9.734   9.105   4.648 -0.8267 -0.3633 -0.0703
  567MOL0     H76485   9.602   9.110   4.769  1.4743 -2.3489  0.3464
  567MOL0     H76486   9.716   9.325   4.841 -0.7755 -0.2343 -0.9620
  567MOL0     H76487   9.792   9.163   4.886 -1.6843 -0.6568  0.3665
  567MOL0     H76488   9.966   9.203   4.693  0.5951  0.4262 -0.0562
  567MOL0     H76489   9.884   9.341   4.645  0.8247 -2.6075 -1.1296
  567MOL0     H76490   9.939   9.431   4.892 -1.5394 -0.3079 -1.8129
  567MOL0     H76491  10.043   9.293   4.898 -1.1855 -0.6871  0.6008
  567MOL0     H76492  10.115   9.528   4.817  0.2158 -1.1329  1.4112
  567MOL0     H76493  10.073   9.482   4.655  1.3074 -1.9568 -0.5062
  567MOL0     H76494  10.285   9.355   4.825  4.7979  1.8027 -1.2094
  567MOL0     H76495  10.220   9.272   4.674  0.7251  0.9911 -1.8203
  567MOL0     H76496  10.305   9.361   4.441  0.4369  0.9851 -2.5582
  567MOL0     H76497  10.592   9.550   4.371  0.4959  0.1617  1.0699
  567MOL0     H76498  10.464   9.463   4.281 -0.3235 -1.6769  1.4836
  567MOL0     H76499  10.316   9.668   4.300  0.2646 -0.2848  4.7590
  567MOL0     H76500  10.446   9.769   4.362 -0.8940 -0.7601  3.1085
  567MOL0     H76501  10.464   9.650   4.084 -0.8882 -0.4714  0.9658
  567MOL0     H76502  10.592   9.741   4.145  0.1777 -0.4246 -1.0290
  567MOL0     H76503  10.470   9.870   3.998 -1.2719 -2.8819 -0.9122
  567MOL0     H76504  10.475   9.947   4.156 -1.4549 -0.6241  3.1997
  567MOL0     H76505  10.330   9.743   3.877 -0.2180  3.4561 -0.4356
  567MOL0     H76506  10.168   9.631   3.772 -2.6370  1.0361 -2.3396
  567MOL0     H76507   9.768   9.672   3.505  1.4990 -0.0801  1.3223
  567MOL0     H76508   9.643   9.549   3.349 -0.1047 -3.0825 -3.2331
  567MOL0     H76509   9.518   9.417   3.205 -0.6740 -0.1661 -0.9165
  567MOL0     H76510   9.689   9.420   3.184  1.4729 -1.6579  2.0341
  567MOL0     H76511   9.510   9.213   3.068 -3.3089  4.7702 -3.6412
  567MOL0     H76512   9.576   9.337   2.982 -0.4766 -3.8835 -4.3613
  567MOL0     H76513   9.815   9.260   3.073 -0.0837  2.0622 -3.9644
  567MOL0     H76514   9.739   9.111   3.122  0.1988  0.6509  1.4263
  567MOL0     H76515   9.708   9.246   2.841  0.2527 -1.4313 -1.8950
  567MOL0     H76516   9.641   9.097   2.876  1.3749  0.3546 -1.5330
  567MOL0     H76517   9.944   9.147   2.915  0.0713  0.3418  0.5567
  567MOL0     H76518   9.875   9.130   2.748  0.2746  1.9306  0.8998
  567MOL0     H76519   9.811   8.901   2.794  2.0046 -1.9477  0.2227
  567MOL0     H76520   9.981   8.921   2.823  0.5197 -0.1980 -0.0437
  567MOL0     H76521   9.749   8.884   3.020  0.6709 -0.8678 -0.6894
  567MOL0     H76522   9.895   8.960   3.078 -0.2561  0.0799  0.1029
  567MOL0     H76523   9.898   8.699   3.119  0.9774 -1.1333 -0.6869
  567MOL0     H76524   9.869   8.673   2.959 -0.3121  0.3647 -0.2886
  567MOL0     H76525   9.724   9.182   3.542 -1.9456  0.2946 -0.5033
  567MOL0     H76526   9.868   9.315   3.714 -3.1177 -1.0579  1.1597
  567MOL0     H76527   9.864   9.816   4.024  0.3160  3.2227  0.8762
  567MOL0     H76528  10.050   9.901   4.158  0.2727 -2.6447  1.5524
  567MOL0     H76529   9.451   9.467   4.231 -1.8154  1.4551  0.0569
  567MOL0     H76530   9.262   9.479   4.057 -1.4403  1.2459  0.8074
  567MOL0     H76531   8.825   9.233   3.985  0.0905  0.0853  0.4208
  567MOL0     H76532   8.616   9.264   3.875  1.4748 -0.3337  2.4482
  567MOL0     H76533   8.433   9.418   3.823 -0.8806  0.9991  0.5914
  567MOL0     H76534   8.431   9.282   3.707 -2.3913  0.6185 -0.0044
  567MOL0     H76535   8.353   9.442   3.525  1.8549 -1.4538  0.2236
  567MOL0     H76536   8.353   9.566   3.653 -0.5518 -0.0250 -1.8723
  567MOL0     H76537   8.181   9.411   3.773 -0.6396 -2.4383  0.3002
  567MOL0     H76538   8.182   9.311   3.655 -0.0171 -0.8107  1.9976
  567MOL0     H76539   8.141   9.611   3.613 -2.8871  0.5057  2.2844
  567MOL0     H76540   8.091   9.486   3.483 -0.8203  0.4280 -0.3314
  567MOL0     H76541   7.760   9.467   3.759 -1.4671  2.7496 -1.5317
  567MOL0     H76542   8.781   9.550   3.595 -0.5435 -0.6951 -0.7880
  567MOL0     H76543   9.003   9.594   3.588  0.0321  3.4983  2.9955
  567MOL0     H76544   9.082   9.592   3.739 -1.1271  2.9850 -2.4084
  567MOL0     H76545   9.118   9.468   3.622  0.9198  1.6110 -1.6233
  568MOL0     O76546   2.225   0.953   1.532 -0.0602  0.7175 -0.1989
  568MOL0     C76547   2.178   1.040   1.607 -0.2680 -0.7272  0.6459
  568MOL0     O76548   2.148   1.028   1.744  0.6305 -0.1064 -0.2334
  568MOL0     C76549   2.109   0.913   1.802 -0.7298  0.3462  0.1621
  568MOL0     C76550   2.021   0.927   1.915  0.3118  0.3767  0.4355
  568MOL0     C76551   1.962   0.812   1.972  0.2614  0.1705 -0.2467
  568MOL0     C76552   2.004   0.679   1.942 -0.1351 -0.1150  1.0471
  568MOL0     O76553   1.951   0.571   2.009  0.0145  0.3914  0.7495
  568MOL0     C76554   2.021   0.533   2.129 -1.2521  0.0939 -0.1916
  568MOL0     C76555   1.955   0.424   2.206 -0.5369  0.8298 -0.1059
  568MOL0     C76556   1.808   0.470   2.247  0.4506 -0.5284  0.0574
  568MOL0     C76557   1.718   0.366   2.318  0.1353  0.1064  0.1571
  568MOL0     C76558   1.639   0.279   2.212 -0.4210  0.5241 -0.2152
  568MOL0     C76559   1.535   0.186   2.295 -0.6650 -0.2187 -0.2644
  568MOL0     C76560   1.421   0.257   2.373  0.1531  0.0694 -0.2131
  568MOL0     C76561   1.396   0.174   2.496 -0.8453  0.4610  0.4036
  568MOL0     N76562   1.376   0.032   2.498  0.0766 -0.1072 -0.0521
  568MOL0     C76563   1.266  -0.028   2.444  0.2568 -0.8602 -0.2943
  568MOL0     C76564   1.285  -0.155   2.472  0.5366  0.8451  0.1939
  568MOL0     C76565   1.200  -0.268   2.425 -0.3910  1.0849 -0.0851
  568MOL0     C76566   1.198  -0.386   2.529 -0.7407  0.4269 -0.1568
  568MOL0     C76567   1.060  -0.420   2.594  0.4708 -0.7794  0.2254
  568MOL0     C76568   0.985  -0.295   2.649  0.9107 -0.3465 -0.4062
  568MOL0     O76569   0.916  -0.321   2.772 -0.5077  0.6006 -0.1576
  568MOL0     C76570   0.793  -0.366   2.749  0.0427 -0.8928 -0.3699
  568MOL0     C76571   0.692  -0.271   2.735 -0.0775 -0.3134 -0.1444
  568MOL0     C76572   0.561  -0.315   2.713  0.2334 -0.1914 -0.7731
  568MOL0     C76573   0.522  -0.451   2.715  1.1123 -0.5017  0.3141
  568MOL0     C76574   0.385  -0.492   2.694  0.4085  0.0372  0.2804
  568MOL0     O76575   0.379  -0.617   2.640  0.8411 -0.1966 -0.2045
  568MOL0     C76576   0.250  -0.662   2.611 -0.2787  0.8588 -0.5617
  568MOL0     C76577   0.245  -0.692   2.478 -0.0608 -0.3237 -0.1087
  568MOL0     C76578   0.140  -0.758   2.421  0.2784 -0.1313  0.3798
  568MOL0     C76579   0.026  -0.794   2.501  0.0382  0.4988 -0.1816
  568MOL0     O76580  -0.083  -0.865   2.460 -0.2245 -0.0794  0.6939
  568MOL0     C76581  -0.086  -0.915   2.324 -0.1180 -0.7309 -0.8763
  568MOL0     C76582  -0.219  -0.962   2.286 -0.0546  0.4578  0.1862
  568MOL0     C76583  -0.296  -1.066   2.370 -1.1910 -0.4940  0.4632
  568MOL0     C76584  -0.370  -1.001   2.492 -0.4574 -0.9572 -0.1317
  568MOL0     C76585  -0.458  -1.113   2.561 -0.4085 -0.4654 -0.8938
  568MOL0     C76586  -0.489  -1.082   2.703 -0.1693 -0.2455 -0.2032
  568MOL0     C76587  -0.375  -1.109   2.802  0.2651 -0.0709 -0.2192
  568MOL0     C76588  -0.391  -1.040   2.937 -0.1000  0.4318 -0.4595
  568MOL0    Cl76589  -0.273  -1.080   3.064  0.3764  0.1556 -0.4361
  568MOL0     C76590   0.035  -0.779   2.645 -0.3102  0.2344  1.2606
  568MOL0     C76591   0.155  -0.719   2.700  0.2819  0.9006 -0.6093
  568MOL0     O76592   0.290  -0.409   2.702 -0.5416  0.7698  0.3762
  568MOL0     C76593   0.630  -0.546   2.720  1.1733 -0.1784 -1.7989
  568MOL0     C76594   0.760  -0.504   2.733 -0.2786 -0.2772  0.3683
  568MOL0     N76595   1.409  -0.175   2.537  0.8635 -0.1752  0.1955
  568MOL0     N76596   1.448  -0.057   2.571 -0.4567  0.0075  0.0037
  568MOL0     C76597   2.100   0.673   1.833  0.7528 -0.2336  0.0041
  568MOL0     C76598   2.144   0.788   1.758  0.2774  0.9755 -1.0266
  568MOL0     C76599   2.162   1.181   1.549 -0.5171  0.0229 -0.1410
  568MOL0     C76600   2.188   1.278   1.636  0.3171 -0.6225 -0.0042
  568MOL0     C76601   2.172   1.410   1.586  0.0759  0.1013 -0.7354
  568MOL0     C76602   2.120   1.438   1.464  0.4294  0.7131 -0.3427
  568MOL0     O76603   2.097   1.573   1.433 -0.9086  0.1007 -0.5830
  568MOL0     C76604   2.046   1.610   1.308 -0.4220 -0.7066  0.0529
  568MOL0     C76605   1.894   1.610   1.326  0.2484  0.2414 -0.5142
  568MOL0     C76606   1.852   1.733   1.412  0.4602 -0.3187 -0.3378
  568MOL0     C76607   1.817   1.854   1.335  0.2068 -0.0977 -0.5716
  568MOL0     C76608   1.697   1.823   1.263 -0.6902  0.0337 -0.0316
  568MOL0     C76609   1.594   1.803   1.201  0.4575  0.7291  0.1670
  568MOL0     C76610   2.086   1.329   1.374  0.4352 -0.1901  0.1357
  568MOL0     C76611   2.131   1.205   1.409  0.0642  1.0010  0.0510
  568MOL0     C76612   2.098   1.091   1.317  0.1622  0.7854  0.0738
  568MOL0     H76613   1.985   1.025   1.948  2.4501  1.4785 -0.3597
  568MOL0     H76614   1.887   0.820   2.050  0.4160  1.6711 -0.2238
  568MOL0     H76615   2.127   0.511   2.114 -0.4454  2.4098  1.4693
  568MOL0     H76616   2.012   0.618   2.198 -1.3104 -0.7974  0.9214
  568MOL0     H76617   2.006   0.410   2.301  1.2688  1.8509 -0.8868
  568MOL0     H76618   1.948   0.333   2.145 -1.9833  3.1043 -3.6868
  568MOL0     H76619   1.760   0.489   2.151  1.1335  4.8374  0.4251
  568MOL0     H76620   1.808   0.567   2.299 -1.0175  0.4365 -1.6323
  568MOL0     H76621   1.783   0.291   2.364  2.2495  1.1960 -0.9078
  568MOL0     H76622   1.650   0.404   2.395 -0.1472 -0.8714  0.3979
  568MOL0     H76623   1.593   0.329   2.126 -1.4359 -1.3522 -0.8248
  568MOL0     H76624   1.710   0.204   2.175 -0.7632 -0.0512  0.2861
  568MOL0     H76625   1.488   0.109   2.234  0.6827 -0.4789 -0.9952
  568MOL0     H76626   1.590   0.138   2.376 -3.7085 -2.4839  0.6639
  568MOL0     H76627   1.335   0.263   2.306 -0.4831  1.3339  0.6916
  568MOL0     H76628   1.447   0.358   2.405  0.2178 -0.4839  1.5876
  568MOL0     H76629   1.470   0.198   2.573 -1.5906  4.5275  0.0585
  568MOL0     H76630   1.311   0.230   2.536 -0.9843  1.8022 -1.6471
  568MOL0     H76631   1.191   0.023   2.383  1.7649  4.9502  1.9950
  568MOL0     H76632   1.097  -0.239   2.401 -0.0530  2.1373 -0.2659
  568MOL0     H76633   1.235  -0.321   2.336 -3.5644 -0.8434 -0.3747
  568MOL0     H76634   1.235  -0.480   2.488 -0.9474  1.5845 -3.2545
  568MOL0     H76635   1.262  -0.366   2.616 -0.2310 -1.5634 -0.0409
  568MOL0     H76636   1.077  -0.480   2.684  0.2450  1.1134  1.5806
  568MOL0     H76637   0.991  -0.476   2.530 -2.4243  0.6879  1.8715
  568MOL0     H76638   0.920  -0.258   2.569  1.2096  1.2943  0.0761
  568MOL0     H76639   1.053  -0.216   2.681 -2.2983  2.5496 -0.0960
  568MOL0     H76640   0.719  -0.166   2.734 -1.3857  0.1249  2.3334
  568MOL0     H76641   0.482  -0.241   2.699 -0.6609 -1.1042 -0.6718
  568MOL0     H76642   0.333  -0.670   2.419 -0.2849  3.4589  0.6830
  568MOL0     H76643   0.154  -0.766   2.313  1.3293  0.6138  0.4455
  568MOL0     H76644  -0.059  -0.829   2.262 -0.3260  0.4473  0.6064
  568MOL0     H76645  -0.019  -0.999   2.303 -1.6345 -2.0441 -0.6580
  568MOL0     H76646  -0.288  -0.877   2.276 -1.0268 -0.6076 -3.9650
  568MOL0     H76647  -0.206  -1.006   2.187  1.4764 -1.7560  1.2852
  568MOL0     H76648  -0.368  -1.119   2.307 -1.1334 -2.6674  2.1338
  568MOL0     H76649  -0.230  -1.142   2.412  1.2167  2.9837  3.6303
  568MOL0     H76650  -0.434  -0.916   2.467 -1.2164 -0.8612  1.9601
  568MOL0     H76651  -0.302  -0.956   2.565 -1.2538 -1.1665  0.7585
  568MOL0     H76652  -0.402  -1.206   2.556  0.3780 -0.2145  1.7483
  568MOL0     H76653  -0.551  -1.123   2.503 -1.1181  1.6066 -0.2170
  568MOL0     H76654  -0.525  -0.980   2.716  1.3650  0.3381 -0.3402
  568MOL0     H76655  -0.576  -1.147   2.721 -0.5061 -0.2169 -1.6276
  568MOL0     H76656  -0.276  -1.090   2.759  0.3583  0.4592  0.2067
  568MOL0     H76657  -0.381  -1.216   2.824 -3.4115  0.4985  2.3845
  568MOL0     H76658  -0.399  -0.932   2.928 -2.3279  0.4535  0.9446
  568MOL0     H76659  -0.484  -1.075   2.984  1.3906 -1.8383  1.0652
  568MOL0     H76660  -0.035  -0.800   2.725 -0.2280 -0.3704  1.1813
  568MOL0     H76661   0.171  -0.710   2.807 -2.8546 -0.8768  0.1139
  568MOL0     H76662   0.606  -0.652   2.711  1.7292 -0.2818 -2.1233
  568MOL0     H76663   0.849  -0.566   2.740  0.0368  0.1376  0.0686
  568MOL0     H76664   2.137   0.578   1.797  0.1929 -1.3397  2.1710
  568MOL0     H76665   2.221   0.770   1.683  2.2167 -0.5573  1.1526
  568MOL0     H76666   2.221   1.269   1.739  3.1574  2.3216 -0.5021
  568MOL0     H76667   2.202   1.484   1.659  1.7243 -0.7908 -0.4579
  568MOL0     H76668   2.082   1.540   1.232  0.3027 -0.8843  0.5489
  568MOL0     H76669   2.074   1.713   1.286 -2.9076 -0.2328 -1.3061
  568MOL0     H76670   1.871   1.513   1.372  0.0255  0.9468  0.9054
  568MOL0     H76671   1.846   1.614   1.228 -0.4498 -1.3653 -0.2645
  568MOL0     H76672   1.927   1.761   1.486 -1.0583 -0.1230  1.1893
  568MOL0     H76673   1.770   1.705   1.478  1.2399  2.3678  1.9475
  568MOL0     H76674   1.801   1.945   1.394  0.3247 -0.4669  0.0332
  568MOL0     H76675   1.896   1.885   1.266  0.5645  1.9650  0.6765
  568MOL0     H76676   1.507   1.794   1.140  0.3785 -2.4787  0.5445
  568MOL0     H76677   2.026   1.341   1.284 -0.5000  0.7018  0.8572
  568MOL0     H76678   2.069   1.121   1.216 -0.5467  2.8373  0.8456
  568MOL0     H76679   2.184   1.023   1.311 -1.4913 -1.8312  2.9797
  568MOL0     H76680   2.015   1.031   1.355 -0.1604  1.7747  0.9593
  569MOL0     O76681   1.832   3.115   0.329 -0.4889 -0.2918 -0.1943
  569MOL0     C76682   1.841   3.208   0.412 -0.3015 -0.1289  0.0839
  569MOL0     O76683   1.952   3.252   0.480 -0.3887  0.8319  0.7403
  569MOL0     C76684   2.076   3.240   0.437 -1.1267  0.2415  0.6807
  569MOL0     C76685   2.109   3.240   0.304 -0.6351 -0.8111 -0.3780
  569MOL0     C76686   2.236   3.238   0.265 -0.2866 -0.1056 -0.8587
  569MOL0     C76687   2.340   3.219   0.356 -1.3946  0.2689  0.0573
  569MOL0     O76688   2.458   3.184   0.294 -0.2454 -0.1032  0.2893
  569MOL0     C76689   2.575   3.209   0.379 -0.4431 -0.0014 -0.1853
  569MOL0     C76690   2.706   3.209   0.296  0.0703 -0.4314  0.2680
  569MOL0     C76691   2.832   3.220   0.382 -0.4448  0.5424  1.1532
  569MOL0     C76692   2.959   3.183   0.298  0.0179 -0.5590 -0.0075
  569MOL0     C76693   3.089   3.202   0.374 -1.0723 -0.2395 -0.3744
  569MOL0     C76694   3.094   3.149   0.514  0.0361 -0.1180  0.3817
  569MOL0     C76695   3.236   3.114   0.544 -1.2578  0.1567 -0.4930
  569MOL0     C76696   3.279   3.097   0.694  0.9831 -0.5128 -0.0678
  569MOL0     N76697   3.202   3.191   0.780  0.4189  0.4228 -0.6967
  569MOL0     C76698   3.253   3.313   0.821  0.0444 -0.8803 -0.7578
  569MOL0     C76699   3.153   3.366   0.891  0.3327 -0.5165 -0.0800
  569MOL0     C76700   3.160   3.502   0.951  0.1945 -0.4465 -0.2323
  569MOL0     C76701   3.237   3.493   1.086  0.2120  0.5476 -0.6765
  569MOL0     C76702   3.215   3.635   1.168  0.1891 -0.5686  0.3314
  569MOL0     C76703   3.211   3.620   1.314 -0.2116  1.0039  0.4002
  569MOL0     O76704   3.325   3.673   1.371  0.6502 -0.5125 -0.4143
  569MOL0     C76705   3.446   3.634   1.324 -0.1132  0.2126 -0.1374
  569MOL0     C76706   3.545   3.726   1.320  0.5325  0.0260 -0.3570
  569MOL0     C76707   3.680   3.692   1.289 -0.3875 -0.2367 -0.4831
  569MOL0     C76708   3.715   3.554   1.261  0.6021  0.7169  0.0948
  569MOL0     C76709   3.851   3.504   1.231  0.3370  0.0627 -0.2074
  569MOL0     O76710   3.862   3.384   1.174 -0.1931  0.5359  0.4700
  569MOL0     C76711   3.987   3.339   1.140  0.1258  0.6388 -0.2176
  569MOL0     C76712   4.030   3.375   1.020 -0.9861 -0.9981  1.2197
  569MOL0     C76713   4.158   3.333   0.967  0.1475  0.4726 -1.0045
  569MOL0     C76714   4.232   3.235   1.044  0.3141 -1.5551  0.2361
  569MOL0     O76715   4.349   3.182   0.993 -0.1833 -0.0369  0.9252
  569MOL0     C76716   4.396   3.056   1.047  0.8968  0.2137 -0.2551
  569MOL0     C76717   4.527   3.032   0.991 -0.2066  0.3543 -0.8713
  569MOL0     C76718   4.599   2.907   1.048  0.3766 -0.9044 -0.0909
  569MOL0     C76719   4.746   2.892   0.994 -0.8317 -0.0011  0.4330
  569MOL0     C76720   4.829   2.801   1.088  0.2381 -0.0839  0.2838
  569MOL0     C76721   4.751   2.677   1.153  0.7948 -0.1096  0.6788
  569MOL0     C76722   4.675   2.585   1.041  0.4166 -0.3601 -0.2494
  569MOL0     C76723   4.701   2.430   1.077  0.3014 -0.5191 -0.7704
  569MOL0    Cl76724   4.874   2.398   1.077  0.5201 -0.0786  0.1277
  569MOL0     C76725   4.176   3.201   1.172  1.1800 -0.7889 -0.2229
  569MOL0     C76726   4.054   3.253   1.217  0.2109 -1.0366 -1.3565
  569MOL0     O76727   3.948   3.568   1.270 -0.6299  0.4371  0.0080
  569MOL0     C76728   3.605   3.463   1.247  0.2078 -0.1354 -0.9355
  569MOL0     C76729   3.474   3.503   1.283 -0.6989  0.2922 -0.1887
  569MOL0     N76730   3.049   3.274   0.909  0.1717  0.4152  0.5820
  569MOL0     N76731   3.076   3.169   0.843 -0.7368  0.6771  0.3018
  569MOL0     C76732   2.314   3.238   0.491 -0.0029  0.3709 -0.0092
  569MOL0     C76733   2.179   3.237   0.527  0.4239  0.5212  0.4041
  569MOL0     C76734   1.713   3.277   0.447 -1.0593  0.2809 -0.6538
  569MOL0     C76735   1.617   3.204   0.518 -0.5792 -0.1346 -0.4202
  569MOL0     C76736   1.490   3.256   0.548  0.8190  0.4507 -1.0038
  569MOL0     C76737   1.460   3.383   0.511  0.6911 -0.7802 -0.7465
  569MOL0     O76738   1.352   3.445   0.565  0.0849  0.3825 -0.1333
  569MOL0     C76739   1.296   3.551   0.488 -0.7360 -0.4014 -0.1725
  569MOL0     C76740   1.144   3.552   0.469  0.3055  0.0407 -0.7752
  569MOL0     C76741   1.061   3.619   0.584 -0.6948  0.2260 -0.7252
  569MOL0     C76742   0.929   3.665   0.527  0.4029 -0.1305 -0.1963
  569MOL0     C76743   0.852   3.722   0.639 -0.6518  0.3998 -0.4000
  569MOL0     C76744   0.794   3.789   0.721 -0.3325  0.2327  0.9674
  569MOL0     C76745   1.553   3.465   0.440  0.0529 -0.0081 -0.2417
  569MOL0     C76746   1.670   3.399   0.390 -0.2729 -0.0009 -0.2428
  569MOL0     C76747   1.760   3.472   0.298  0.1705  0.2317 -0.6799
  569MOL0     H76748   2.026   3.235   0.235  0.3113  0.2112 -1.6708
  569MOL0     H76749   2.251   3.246   0.158 -1.9202  1.6100 -0.9922
  569MOL0     H76750   2.570   3.305   0.431  0.8367 -0.5939  1.1180
  569MOL0     H76751   2.580   3.130   0.455 -0.9308 -0.7419 -0.9076
  569MOL0     H76752   2.708   3.302   0.237 -1.7443 -0.1763  0.5651
  569MOL0     H76753   2.702   3.126   0.224  1.6745 -0.7073  0.4525
  569MOL0     H76754   2.824   3.143   0.459 -2.0291 -0.1791  0.3075
  569MOL0     H76755   2.846   3.323   0.417 -1.9498  1.9711 -2.0584
  569MOL0     H76756   2.952   3.075   0.287  0.8949 -0.7306  1.0269
  569MOL0     H76757   2.959   3.241   0.205  0.8128 -0.1602  0.2353
  569MOL0     H76758   3.163   3.149   0.313  0.2351 -1.3846  2.0858
  569MOL0     H76759   3.123   3.305   0.362  2.4432 -1.1616  0.7525
  569MOL0     H76760   3.050   3.227   0.577 -4.0626 -0.5246 -1.6116
  569MOL0     H76761   3.026   3.064   0.515  1.5371 -1.3449  1.0080
  569MOL0     H76762   3.297   3.194   0.502 -1.9179  0.3338 -1.1341
  569MOL0     H76763   3.265   3.027   0.484  1.4997 -0.3514  1.4197
  569MOL0     H76764   3.245   2.997   0.722 -0.0388 -0.4195 -0.8981
  569MOL0     H76765   3.387   3.105   0.710  1.1059 -2.6843  0.5698
  569MOL0     H76766   3.346   3.364   0.800  0.4758 -2.6822 -3.9007
  569MOL0     H76767   3.209   3.577   0.889 -0.9895  2.3280  1.9493
  569MOL0     H76768   3.056   3.533   0.968  0.8290  1.4701  0.4164
  569MOL0     H76769   3.199   3.406   1.140 -1.6825  1.5188 -0.3616
  569MOL0     H76770   3.341   3.470   1.065  0.6842  1.4139  0.6175
  569MOL0     H76771   3.119   3.681   1.142  1.1898  0.2844 -2.1289
  569MOL0     H76772   3.288   3.705   1.126 -1.0873  0.8345  0.3528
  569MOL0     H76773   3.193   3.522   1.359 -0.4997  0.4692 -0.8393
  569MOL0     H76774   3.119   3.674   1.338 -0.0268  2.3185 -1.5382
  569MOL0     H76775   3.523   3.831   1.337 -0.2580 -0.4025  1.6061
  569MOL0     H76776   3.750   3.774   1.275 -2.4198  1.9613  1.3509
  569MOL0     H76777   3.980   3.444   0.953  0.7854 -2.1433 -1.4324
  569MOL0     H76778   4.191   3.366   0.869 -2.0977 -2.4071 -2.9165
  569MOL0     H76779   4.388   3.057   1.156 -2.6072  0.6214 -0.4147
  569MOL0     H76780   4.323   2.977   1.023  2.0359 -1.1183  0.4949
  569MOL0     H76781   4.500   3.001   0.889 -2.0188 -2.6810  0.3906
  569MOL0     H76782   4.596   3.116   0.996 -2.2303  2.0674 -0.6869
  569MOL0     H76783   4.607   2.927   1.155  2.2152  0.2578 -0.4045
  569MOL0     H76784   4.542   2.813   1.048  0.1818 -0.7928  0.4952
  569MOL0     H76785   4.792   2.983   0.956 -1.0918 -0.4155 -0.9204
  569MOL0     H76786   4.749   2.832   0.903 -1.7821 -1.0624  1.0747
  569MOL0     H76787   4.869   2.865   1.168 -2.1831  2.4714 -0.3952
  569MOL0     H76788   4.918   2.771   1.032  1.6593  0.9458  1.9059
  569MOL0     H76789   4.818   2.606   1.204 -0.4709 -1.8315  0.0497
  569MOL0     H76790   4.665   2.718   1.207 -1.5924 -1.9286 -1.4750
  569MOL0     H76791   4.703   2.601   0.937  0.4621  0.4740 -0.1158
  569MOL0     H76792   4.567   2.600   1.048  0.3821  1.2611 -2.8088
  569MOL0     H76793   4.657   2.406   1.175  0.6747 -0.9521 -0.7067
  569MOL0     H76794   4.653   2.365   1.003 -0.6276  0.7345 -1.3194
  569MOL0     H76795   4.202   3.121   1.240 -0.4321  0.3758  1.8724
  569MOL0     H76796   4.018   3.216   1.312  2.6833 -2.7975 -1.0187
  569MOL0     H76797   3.629   3.359   1.226 -1.0374 -1.1886  2.2248
  569MOL0     H76798   3.392   3.431   1.285 -2.1765  1.8728 -0.7645
  569MOL0     H76799   2.383   3.237   0.575  0.3483 -1.5302 -0.2800
  569MOL0     H76800   2.155   3.258   0.631 -0.9880  2.1179 -0.2011
  569MOL0     H76801   1.645   3.100   0.530  3.4975  0.3927 -3.1535
  569MOL0     H76802   1.432   3.184   0.605  0.5734 -0.8646 -2.8253
  569MOL0     H76803   1.328   3.552   0.384  1.8106 -2.7068  0.4455
  569MOL0     H76804   1.325   3.647   0.531 -0.1939 -1.2351  1.4381
  569MOL0     H76805   1.098   3.456   0.444 -0.6320  0.2527  0.0690
  569MOL0     H76806   1.134   3.614   0.379 -0.6657 -3.0231 -2.9431
  569MOL0     H76807   1.116   3.702   0.630  0.2298 -0.4440 -0.5783
  569MOL0     H76808   1.039   3.540   0.656 -0.9455  0.3861 -0.6243
  569MOL0     H76809   0.946   3.738   0.447  0.1753 -0.6362 -0.7191
  569MOL0     H76810   0.886   3.579   0.474  1.2226  1.2733 -3.3941
  569MOL0     H76811   0.748   3.856   0.791  1.7581  3.0344 -0.1476
  569MOL0     H76812   1.519   3.565   0.415 -0.6356 -0.3074 -0.5303
  569MOL0     H76813   1.857   3.502   0.341  2.0328 -1.6075 -3.2958
  569MOL0     H76814   1.775   3.415   0.206 -2.4185  0.2804 -1.1876
  569MOL0     H76815   1.724   3.571   0.269  0.8900 -0.4015 -4.1354
  570MOL0     O76816   4.158   0.882   8.662  0.1901  0.2538  0.1456
  570MOL0     C76817   4.220   0.986   8.648  0.2455  0.8111  0.8893
  570MOL0     O76818   4.174   1.092   8.564  0.1447 -0.1423 -0.8961
  570MOL0     C76819   4.085   1.060   8.466 -0.7606  0.5077  0.3640
  570MOL0     C76820   4.115   1.103   8.339  0.7198  1.0807  0.0234
  570MOL0     C76821   4.029   1.089   8.237 -0.1686  0.6622 -0.8056
  570MOL0     C76822   3.902   1.027   8.256  0.8576  0.2737  0.8849
  570MOL0     O76823   3.810   1.002   8.155  0.6290  0.0604 -0.1072
  570MOL0     C76824   3.843   1.034   8.022  0.5110 -0.0653  0.0775
  570MOL0     C76825   3.732   1.002   7.927  0.1286  0.3785  0.0929
  570MOL0     C76826   3.770   1.072   7.793 -0.2369 -0.0344 -0.0071
  570MOL0     C76827   3.651   1.145   7.726  0.1400 -0.3071  0.1975
  570MOL0     C76828   3.701   1.214   7.607 -0.0924 -0.0717  0.0498
  570MOL0     C76829   3.591   1.278   7.529 -0.1767 -0.0429 -0.7178
  570MOL0     C76830   3.633   1.405   7.453  0.4558  0.0029 -1.1849
  570MOL0     C76831   3.534   1.452   7.341  0.0018 -0.5519  0.4153
  570MOL0     N76832   3.540   1.602   7.333 -0.4965  0.9137 -1.1811
  570MOL0     C76833   3.494   1.668   7.225 -0.6573  0.8896 -0.0927
  570MOL0     C76834   3.534   1.801   7.249  0.6331  0.2159  0.5870
  570MOL0     C76835   3.468   1.920   7.181 -0.2498 -0.3353 -0.4456
  570MOL0     C76836   3.570   2.009   7.102 -0.0296 -0.0251 -0.7690
  570MOL0     C76837   3.660   1.941   6.997  0.3071  1.0927 -0.0808
  570MOL0     C76838   3.736   2.050   6.913 -0.5824  0.0934  0.3007
  570MOL0     O76839   3.648   2.117   6.828  0.9169 -0.6006  0.0007
  570MOL0     C76840   3.701   2.221   6.751  0.1678  0.2457 -0.3410
  570MOL0     C76841   3.833   2.262   6.754 -0.3646 -0.1537  0.4061
  570MOL0     C76842   3.885   2.343   6.647 -0.1301  0.1263  0.3091
  570MOL0     C76843   3.799   2.386   6.546 -1.0012 -0.1505  1.2351
  570MOL0     C76844   3.857   2.477   6.443  0.3323 -0.1509 -0.0666
  570MOL0     O76845   3.979   2.531   6.476 -0.2024  0.2611 -0.0218
  570MOL0     C76846   4.037   2.617   6.384  0.9251 -0.2817  0.4356
  570MOL0     C76847   4.096   2.727   6.445  0.0019 -0.1226 -0.5810
  570MOL0     C76848   4.175   2.807   6.370 -0.9598  0.0060 -0.4982
  570MOL0     C76849   4.181   2.796   6.228 -0.1523  0.2735  0.1544
  570MOL0     O76850   4.259   2.868   6.132 -0.4677 -0.6757  0.1657
  570MOL0     C76851   4.195   2.968   6.059 -0.1432 -0.5706  0.7083
  570MOL0     C76852   4.322   3.059   6.028  0.1882  0.2374 -0.3450
  570MOL0     C76853   4.277   3.188   5.956 -0.2333  0.1150 -0.0648
  570MOL0     C76854   4.397   3.281   5.947  0.2236 -0.2105 -0.2246
  570MOL0     C76855   4.358   3.427   5.938 -1.2101  0.2928  0.1775
  570MOL0     C76856   4.296   3.454   5.797 -0.2869  0.3253 -0.5379
  570MOL0     C76857   4.362   3.396   5.677  0.4340  0.2216 -0.5830
  570MOL0     C76858   4.305   3.436   5.550  0.1034 -0.2749  0.3078
  570MOL0    Cl76859   4.149   3.350   5.549  0.3416  0.0950 -0.0946
  570MOL0     C76860   4.105   2.689   6.169 -0.9491  0.2522  0.2249
  570MOL0     C76861   4.036   2.593   6.248 -0.7461  0.3765  0.9481
  570MOL0     O76862   3.789   2.503   6.340  0.6991 -0.3039  0.9394
  570MOL0     C76863   3.666   2.354   6.547  0.5160 -0.5067 -1.0988
  570MOL0     C76864   3.614   2.262   6.647 -0.6209 -0.8442  0.0008
  570MOL0     N76865   3.614   1.809   7.362  1.4385  0.3218 -0.3442
  570MOL0     N76866   3.619   1.690   7.407  0.0465 -0.6134 -0.6251
  570MOL0     C76867   3.869   0.989   8.386  0.5855 -0.0355 -0.2193
  570MOL0     C76868   3.953   1.007   8.491  0.7645  0.4196 -0.3666
  570MOL0     C76869   4.357   1.003   8.707  0.2155 -0.6755  0.3857
  570MOL0     C76870   4.441   1.059   8.613  0.1614 -0.1833 -0.6989
  570MOL0     C76871   4.579   1.076   8.646  0.0237 -0.5422 -0.1969
  570MOL0     C76872   4.620   1.055   8.778  0.1809  0.1633  0.3701
  570MOL0     O76873   4.752   1.104   8.803 -0.2502 -0.0870 -0.6647
  570MOL0     C76874   4.815   1.061   8.921 -0.0474  1.0899  1.0353
  570MOL0     C76875   4.964   1.074   8.899 -0.3383 -0.1357  0.4046
  570MOL0     C76876   5.010   1.227   8.924  0.0048 -0.2453  1.7126
  570MOL0     C76877   5.160   1.246   8.922 -0.4305  0.5202 -0.5110
  570MOL0     C76878   5.214   1.208   8.789 -0.4157 -0.1061  0.6032
  570MOL0     C76879   5.276   1.203   8.681  0.2802 -0.2354  0.6224
  570MOL0     C76880   4.535   0.989   8.868  0.2547 -0.7665  0.3038
  570MOL0     C76881   4.398   0.968   8.835  0.2656 -0.5600  0.3674
  570MOL0     C76882   4.318   0.891   8.936 -1.6535 -1.1365  0.4314
  570MOL0     H76883   4.211   1.149   8.320  1.3360 -0.4522 -0.7714
  570MOL0     H76884   4.053   1.111   8.133 -0.3348  0.5417 -0.8697
  570MOL0     H76885   3.866   1.141   8.013  0.3832 -0.1001 -0.7388
  570MOL0     H76886   3.931   0.972   8.007  0.8766  0.0751  1.5106
  570MOL0     H76887   3.640   1.048   7.962 -1.6407  1.3236 -4.9995
  570MOL0     H76888   3.706   0.897   7.915 -1.7130  0.5790  1.8602
  570MOL0     H76889   3.800   1.001   7.716  2.1435  1.7146 -0.8267
  570MOL0     H76890   3.853   1.143   7.801 -0.2322  0.2037 -1.8299
  570MOL0     H76891   3.575   1.072   7.696 -0.8472  0.5314  0.6190
  570MOL0     H76892   3.606   1.217   7.794  0.1749 -1.2040  1.2084
  570MOL0     H76893   3.762   1.292   7.654 -2.7612  0.8242  2.2972
  570MOL0     H76894   3.762   1.148   7.545  1.8256  1.2465  0.4409
  570MOL0     H76895   3.553   1.208   7.455  0.3215  0.1212 -1.1377
  570MOL0     H76896   3.510   1.308   7.596  0.2642  2.1354 -1.0565
  570MOL0     H76897   3.737   1.387   7.421  0.9441 -1.2135  0.8914
  570MOL0     H76898   3.648   1.487   7.524 -1.2916  0.8445 -1.7508
  570MOL0     H76899   3.568   1.412   7.245 -1.3123  0.3879 -0.4952
  570MOL0     H76900   3.431   1.425   7.367 -0.2578  0.3430  0.3443
  570MOL0     H76901   3.425   1.622   7.155  1.6221 -4.6563  0.8138
  570MOL0     H76902   3.390   1.880   7.116 -0.5674 -0.7826  0.2002
  570MOL0     H76903   3.409   1.977   7.254 -1.1821  1.3495 -2.3995
  570MOL0     H76904   3.508   2.070   7.035 -1.9077  0.4087  1.2662
  570MOL0     H76905   3.611   2.076   7.178 -4.3853  1.1950  0.7721
  570MOL0     H76906   3.588   1.895   6.929  3.1200 -1.9993 -1.2206
  570MOL0     H76907   3.731   1.865   7.031  0.7990  1.5370 -0.1076
  570MOL0     H76908   3.821   2.006   6.861 -0.8570 -0.2577  0.1511
  570MOL0     H76909   3.790   2.119   6.978  0.9383 -0.2059 -0.5961
  570MOL0     H76910   3.897   2.237   6.838 -0.5866 -1.5782  0.1712
  570MOL0     H76911   3.990   2.366   6.635 -0.5058  0.9926 -1.8204
  570MOL0     H76912   4.107   2.715   6.552  1.7171 -0.2440 -0.7293
  570MOL0     H76913   4.247   2.873   6.418 -0.4508 -0.0100 -1.2245
  570MOL0     H76914   4.164   2.920   5.965  1.2966 -4.6613  2.1031
  570MOL0     H76915   4.116   3.031   6.101  1.3236  1.8825  0.0063
  570MOL0     H76916   4.361   3.083   6.127 -0.0452  1.7539 -0.5997
  570MOL0     H76917   4.399   3.015   5.965  1.8622  0.4678  1.4489
  570MOL0     H76918   4.234   3.167   5.858  2.1467  0.5763 -1.2784
  570MOL0     H76919   4.206   3.251   6.011  1.7864  2.2164  0.3095
  570MOL0     H76920   4.466   3.245   5.870  2.0333 -1.6289  1.9154
  570MOL0     H76921   4.455   3.272   6.040 -1.1843  1.7955  0.9325
  570MOL0     H76922   4.443   3.493   5.958 -2.3948  1.5997  1.1201
  570MOL0     H76923   4.290   3.449   6.021  0.6730  0.9653  1.6212
  570MOL0     H76924   4.197   3.409   5.797 -0.6339  0.9183  2.1522
  570MOL0     H76925   4.280   3.562   5.789 -1.8963 -0.0180 -2.7105
  570MOL0     H76926   4.364   3.287   5.690  0.5437  0.4076  1.2195
  570MOL0     H76927   4.467   3.426   5.687  0.2075  0.2612  2.6123
  570MOL0     H76928   4.283   3.543   5.542 -0.9799 -0.6021 -1.9264
  570MOL0     H76929   4.363   3.432   5.458 -0.6397  0.8071 -0.2263
  570MOL0     H76930   4.111   2.668   6.062 -0.5104 -1.1376  0.5099
  570MOL0     H76931   4.009   2.500   6.201  0.4147 -0.8450  2.5660
  570MOL0     H76932   3.613   2.402   6.465  0.7132  2.2459  0.2972
  570MOL0     H76933   3.514   2.222   6.658 -0.1940 -1.7280  0.8374
  570MOL0     H76934   3.773   0.942   8.404  0.6796 -0.7544 -1.5282
  570MOL0     H76935   3.928   0.982   8.594  3.1082 -0.8014 -0.0265
  570MOL0     H76936   4.415   1.088   8.512  0.4278  0.0866 -0.6948
  570MOL0     H76937   4.654   1.110   8.576  0.7116 -0.5798  0.5018
  570MOL0     H76938   4.796   0.956   8.942  5.8715 -0.5605 -0.0816
  570MOL0     H76939   4.782   1.127   9.002  0.0304  0.9688  1.1665
  570MOL0     H76940   4.990   1.050   8.795  0.9325  0.4593  0.5648
  570MOL0     H76941   5.012   0.998   8.961  0.9429  2.7091  3.1415
  570MOL0     H76942   4.977   1.237   9.028 -2.6633 -2.5256  1.1967
  570MOL0     H76943   4.957   1.297   8.859  2.2774 -0.4503 -0.5161
  570MOL0     H76944   5.193   1.344   8.958 -2.3901  0.7014  0.9602
  570MOL0     H76945   5.202   1.175   8.994 -0.2202  0.8640 -0.2913
  570MOL0     H76946   5.312   1.190   8.581 -2.6010  4.0085 -1.2718
  570MOL0     H76947   4.569   0.962   8.967  0.2531 -2.1147 -0.0414
  570MOL0     H76948   4.240   0.955   8.979 -0.8220 -0.6433  1.2539
  570MOL0     H76949   4.284   0.797   8.892 -2.3687 -0.7112  0.0495
  570MOL0     H76950   4.391   0.866   9.014  0.8082 -0.5726 -1.5488
  571MOL0     O76951   9.535   0.306   5.683 -0.1646 -0.3506 -0.0019
  571MOL0     C76952   9.452   0.332   5.600  0.6430  0.3714 -0.1300
  571MOL0     O76953   9.476   0.373   5.469 -0.2281  1.3993  0.2800
  571MOL0     C76954   9.590   0.391   5.400 -0.0098 -0.6111  0.0733
  571MOL0     C76955   9.713   0.344   5.445  0.1909  0.5436  0.2897
  571MOL0     C76956   9.832   0.363   5.364  0.9665  0.1442  0.0299
  571MOL0     C76957   9.822   0.429   5.236 -0.1873  0.2287 -0.6844
  571MOL0     O76958   9.930   0.451   5.160  0.5384 -0.1917  0.2583
  571MOL0     C76959  10.044   0.364   5.178 -0.3471  0.2655 -0.1265
  571MOL0     C76960  10.154   0.378   5.073  1.1181 -0.4982  0.0869
  571MOL0     C76961  10.272   0.274   5.080 -0.6742  0.1074  0.9733
  571MOL0     C76962  10.313   0.234   5.211  0.5645 -0.2340 -0.3607
  571MOL0     C76963  10.413   0.330   5.275 -0.1389  0.3337  0.7022
  571MOL0     C76964  10.429   0.288   5.424  0.6226 -0.1217 -0.0255
  571MOL0     C76965  10.519   0.398   5.484 -1.3055 -0.0987 -0.2365
  571MOL0     C76966  10.603   0.331   5.601  1.0564 -0.0943  0.2434
  571MOL0     N76967  10.692   0.425   5.670 -0.3924 -0.4417  0.9636
  571MOL0     C76968  10.807   0.467   5.607  0.1219 -0.1035 -0.7472
  571MOL0     C76969  10.854   0.561   5.696  0.7852 -0.2761  0.0328
  571MOL0     C76970  10.983   0.641   5.686 -0.1979 -0.5803  0.3874
  571MOL0     C76971  11.049   0.684   5.820  0.0857 -0.2405  0.0097
  571MOL0     C76972  11.085   0.570   5.917  0.3834 -0.5639 -0.0000
  571MOL0     C76973  11.210   0.580   5.994  1.0288  0.1227  0.1698
  571MOL0     O76974  11.234   0.718   6.017  0.2937 -0.0670  0.4487
  571MOL0     C76975  11.307   0.759   6.126 -0.0499  0.1575  0.1519
  571MOL0     C76976  11.332   0.900   6.139  0.2204 -0.2039  1.2796
  571MOL0     C76977  11.412   0.953   6.243  0.5030 -0.3428  0.2167
  571MOL0     C76978  11.468   0.862   6.332  0.2337 -0.2969  0.0684
  571MOL0     C76979  11.583   0.908   6.426  0.1389  0.4561 -1.0965
  571MOL0     O76980  11.655   1.021   6.413 -0.3488 -0.6983 -0.3757
  571MOL0     C76981  11.734   1.053   6.529  0.1637  0.1232  0.9104
  571MOL0     C76982  11.869   1.043   6.532  0.0651  0.3743 -0.6527
  571MOL0     C76983  11.941   1.076   6.640  1.1376 -0.4517 -0.4448
  571MOL0     C76984  11.886   1.140   6.749 -0.9807 -0.1370  0.1298
  571MOL0     O76985  11.973   1.161   6.853  0.9468 -0.0622 -0.0942
  571MOL0     C76986  11.917   1.232   6.958 -0.0163 -0.0548 -0.8787
  571MOL0     C76987  12.028   1.260   7.054  0.5670  1.0237 -0.7258
  571MOL0     C76988  11.985   1.343   7.189  0.3610 -0.4361  0.9324
  571MOL0     C76989  11.894   1.268   7.284  1.2006 -0.5495 -0.2512
  571MOL0     C76990  11.840   1.375   7.386 -0.0721 -0.1080 -0.1131
  571MOL0     C76991  11.734   1.329   7.496  0.1347  0.3244  1.1028
  571MOL0     C76992  11.773   1.204   7.568 -0.3934  0.5548  0.4285
  571MOL0     C76993  11.894   1.226   7.660 -0.7024 -0.4059  0.0015
  571MOL0    Cl76994  12.037   1.146   7.601  0.0487  0.7097 -0.0675
  571MOL0     C76995  11.746   1.153   6.754  0.2932  0.3288  0.4771
  571MOL0     C76996  11.676   1.116   6.640  1.1447 -0.1571 -0.1731
  571MOL0     O76997  11.604   0.819   6.511  0.3097 -0.0095 -0.8034
  571MOL0     C76998  11.424   0.726   6.332 -0.7910 -0.3097 -0.2908
  571MOL0     C76999  11.347   0.670   6.227 -0.4947  0.2907 -0.3250
  571MOL0     N77000  10.764   0.578   5.798  0.5742 -0.1628  0.7267
  571MOL0     N77001  10.665   0.495   5.780  0.5665 -0.5061 -0.3701
  571MOL0     C77002   9.696   0.479   5.191  0.0206  0.8695 -0.5024
  571MOL0     C77003   9.587   0.460   5.271 -0.1772 -0.3799 -0.6970
  571MOL0     C77004   9.315   0.264   5.615 -0.4482  0.0663  0.4557
  571MOL0     C77005   9.269   0.198   5.504  0.6664  0.2951 -0.1600
  571MOL0     C77006   9.128   0.170   5.504  0.3880 -0.3402  0.3804
  571MOL0     C77007   9.051   0.183   5.627 -0.2305  0.6853  1.0403
  571MOL0     O77008   8.919   0.152   5.640  0.0674  0.3398 -0.4972
  571MOL0     C77009   8.852   0.121   5.515 -0.1117  0.3005 -0.6321
  571MOL0     C77010   8.707   0.077   5.526 -0.4677 -0.1488  0.5679
  571MOL0     C77011   8.679  -0.013   5.643 -0.4300  1.0180 -0.7052
  571MOL0     C77012   8.531  -0.057   5.644 -0.8064  0.9740 -0.8379
  571MOL0     C77013   8.504  -0.154   5.751  1.0610  0.1617  0.5017
  571MOL0     C77014   8.482  -0.262   5.817  0.7206 -0.4623  0.3546
  571MOL0     C77015   9.111   0.226   5.740 -0.0837 -0.4204 -0.0988
  571MOL0     C77016   9.245   0.275   5.739  0.0153  0.2571 -1.0206
  571MOL0     C77017   9.296   0.340   5.871  0.3209  0.0575 -0.1030
  571MOL0     H77018   9.721   0.290   5.539 -2.2605  4.5202  3.1340
  571MOL0     H77019   9.921   0.319   5.408  1.7794  0.2125 -1.4952
  571MOL0     H77020  10.085   0.381   5.278 -2.8214 -2.8784  1.6158
  571MOL0     H77021  10.006   0.261   5.180 -2.0511  0.8603 -0.3633
  571MOL0     H77022  10.201   0.476   5.091 -1.1222  0.7218 -0.2639
  571MOL0     H77023  10.114   0.391   4.972  1.0587  2.2141  0.3684
  571MOL0     H77024  10.366   0.299   5.030 -0.3141 -3.2741 -0.3007
  571MOL0     H77025  10.253   0.186   5.018  1.5457 -0.9211  1.6608
  571MOL0     H77026  10.224   0.223   5.274  2.1644 -3.3781  1.5597
  571MOL0     H77027  10.359   0.135   5.209 -4.5219 -2.9492  0.5353
  571MOL0     H77028  10.512   0.325   5.229 -1.4370 -1.9374 -2.1638
  571MOL0     H77029  10.377   0.433   5.265  2.1189  1.0547 -0.5734
  571MOL0     H77030  10.336   0.289   5.481  0.7751  0.5548  0.2242
  571MOL0     H77031  10.490   0.197   5.428  0.5777 -0.2549 -1.8931
  571MOL0     H77032  10.468   0.487   5.520 -0.4149 -0.6890  2.7912
  571MOL0     H77033  10.589   0.430   5.406 -1.7423 -3.0158 -1.9526
  571MOL0     H77034  10.527   0.300   5.674 -2.3119  3.2025 -1.4844
  571MOL0     H77035  10.662   0.244   5.572 -0.4595 -1.1801  0.2656
  571MOL0     H77036  10.850   0.437   5.512  1.9034  3.8670 -1.3852
  571MOL0     H77037  11.056   0.582   5.630  1.7347  1.8048  0.2834
  571MOL0     H77038  10.963   0.730   5.627 -1.6148 -1.9112 -1.2765
  571MOL0     H77039  11.134   0.744   5.786 -0.8977  0.9011 -0.4625
  571MOL0     H77040  10.982   0.750   5.876 -1.7331 -0.9652 -1.2411
  571MOL0     H77041  11.088   0.478   5.858 -0.9059  0.0671 -1.0917
  571MOL0     H77042  11.002   0.555   5.986  0.1341 -0.8468 -0.3587
  571MOL0     H77043  11.281   0.542   5.919 -1.2588 -0.1756 -1.9638
  571MOL0     H77044  11.199   0.507   6.074 -2.1133  1.1731  0.8069
  571MOL0     H77045  11.278   0.966   6.072 -0.2547 -1.6178  0.2077
  571MOL0     H77046  11.459   1.051   6.231  3.2594 -1.6852 -0.9255
  571MOL0     H77047  11.912   0.980   6.456 -0.2781 -1.8153  0.8881
  571MOL0     H77048  12.045   1.047   6.648  0.5072 -3.3125 -1.1866
  571MOL0     H77049  11.866   1.320   6.919  0.3516 -0.6899 -2.8675
  571MOL0     H77050  11.844   1.175   7.016 -0.4258  2.0620  0.8597
  571MOL0     H77051  12.096   1.175   7.067  0.3457  0.3942 -3.1587
  571MOL0     H77052  12.091   1.332   7.002  1.6046  1.7184  1.3602
  571MOL0     H77053  12.075   1.351   7.250 -0.2160  1.5613  1.6061
  571MOL0     H77054  11.948   1.442   7.162  3.8664  1.1806  1.4810
  571MOL0     H77055  11.942   1.184   7.335  0.1510 -0.0654  1.6544
  571MOL0     H77056  11.807   1.249   7.221  0.2538  3.9088 -0.6117
  571MOL0     H77057  11.799   1.459   7.329  0.5041  0.0870 -0.2476
  571MOL0     H77058  11.930   1.409   7.438  0.5821  0.8381 -1.7839
  571MOL0     H77059  11.708   1.402   7.573 -3.0550  0.1381  0.3385
  571MOL0     H77060  11.645   1.312   7.434  0.2486  3.7191 -0.2118
  571MOL0     H77061  11.783   1.123   7.495 -0.9611  0.8275  0.0449
  571MOL0     H77062  11.685   1.172   7.624 -0.6643  0.1811 -0.1985
  571MOL0     H77063  11.924   1.330   7.644  1.6942 -1.5427 -4.7092
  571MOL0     H77064  11.855   1.207   7.761 -3.4063 -1.7987 -1.1925
  571MOL0     H77065  11.688   1.191   6.837 -1.1069  1.9911 -1.1797
  571MOL0     H77066  11.569   1.131   6.636  0.4309 -4.1068  0.2401
  571MOL0     H77067  11.461   0.652   6.402  2.9800 -1.0843 -2.7854
  571MOL0     H77068  11.326   0.564   6.231 -0.7233  0.1772 -2.9577
  571MOL0     H77069   9.688   0.518   5.090  0.8426  0.9475 -0.5451
  571MOL0     H77070   9.488   0.495   5.244 -0.9596 -1.6271  0.4163
  571MOL0     H77071   9.328   0.193   5.412 -0.8078  0.6878 -1.1678
  571MOL0     H77072   9.088   0.120   5.416  1.4147 -2.8322  1.2356
  571MOL0     H77073   8.900   0.042   5.457  1.8845  1.6953 -1.0031
  571MOL0     H77074   8.865   0.211   5.454 -2.5151  1.3788  0.3335
  571MOL0     H77075   8.675   0.036   5.430  1.7816 -3.1341  0.9379
  571MOL0     H77076   8.647   0.166   5.544  1.3263  0.6704  3.0503
  571MOL0     H77077   8.709   0.030   5.739 -1.7820  1.0878 -0.2963
  571MOL0     H77078   8.756  -0.090   5.632 -1.5974 -0.1998 -0.5119
  571MOL0     H77079   8.460   0.026   5.647 -1.8208  0.2188 -2.5729
  571MOL0     H77080   8.501  -0.108   5.552  0.8604 -2.7048  0.4375
  571MOL0     H77081   8.465  -0.348   5.879 -2.4569 -1.0180 -1.0734
  571MOL0     H77082   9.054   0.237   5.831  0.9166  0.3459  0.4659
  571MOL0     H77083   9.372   0.276   5.917  0.7096 -1.2294 -2.4244
  571MOL0     H77084   9.348   0.433   5.846  0.7431  0.3907  1.8070
  571MOL0     H77085   9.222   0.370   5.946  0.2971 -2.0218  0.7791
  572MOL0     O77086   9.204   5.253   2.655  0.2688 -0.6750 -0.3166
  572MOL0     C77087   9.102   5.230   2.718  0.1113  0.5291  0.0998
  572MOL0     O77088   9.093   5.145   2.828 -0.7501  0.4200 -0.2035
  572MOL0     C77089   9.200   5.052   2.818  1.5487 -1.4674  0.7530
  572MOL0     C77090   9.205   4.961   2.722  0.0371  0.2291 -0.0802
  572MOL0     C77091   9.304   4.867   2.713 -0.0974 -0.1468 -0.7127
  572MOL0     C77092   9.407   4.868   2.805  1.5918 -0.5909 -1.0647
  572MOL0     O77093   9.514   4.784   2.806 -0.8350 -0.0531  0.6393
  572MOL0     C77094   9.582   4.772   2.683 -0.1809 -0.4267 -0.0493
  572MOL0     C77095   9.730   4.723   2.677 -0.1608  0.3947  0.2350
  572MOL0     C77096   9.777   4.710   2.821 -1.0073 -0.0307  0.1804
  572MOL0     C77097   9.913   4.635   2.824  0.6390 -0.6229  0.0924
  572MOL0     C77098   9.960   4.656   2.966  0.4433  0.2120  0.1607
  572MOL0     C77099  10.100   4.582   2.993 -0.2696 -0.0095 -0.3445
  572MOL0     C77100  10.140   4.612   3.146 -0.3374 -0.0123 -0.6844
  572MOL0     C77101  10.295   4.612   3.180  0.1089  0.4465 -0.8264
  572MOL0     N77102  10.353   4.740   3.217 -0.0383  0.6098  0.7899
  572MOL0     C77103  10.481   4.776   3.205 -0.1073  0.3791  0.2512
  572MOL0     C77104  10.492   4.899   3.252 -1.0757  0.3301 -0.3033
  572MOL0     C77105  10.638   4.964   3.259  0.6056  0.1329  0.5238
  572MOL0     C77106  10.706   5.018   3.129 -0.4997 -0.1580  0.2086
  572MOL0     C77107  10.656   5.145   3.055  0.1459 -0.4014  0.2999
  572MOL0     C77108  10.616   5.256   3.159 -0.1589 -0.5172  0.3620
  572MOL0     O77109  10.617   5.382   3.090 -0.2825 -0.1501  0.4854
  572MOL0     C77110  10.612   5.485   3.180  0.8007 -0.8340 -0.0393
  572MOL0     C77111  10.490   5.510   3.256 -0.6142 -1.2332  0.4000
  572MOL0     C77112  10.478   5.631   3.333  0.3759  0.0601 -0.5090
  572MOL0     C77113  10.584   5.728   3.343  0.2435 -0.3218  0.5741
  572MOL0     C77114  10.571   5.853   3.424 -0.3649  0.4290 -0.2759
  572MOL0     O77115  10.679   5.900   3.500 -0.0692  0.3996  0.5768
  572MOL0     C77116  10.648   6.003   3.589 -0.3882 -1.2057  0.2969
  572MOL0     C77117  10.566   5.979   3.701 -0.5440 -0.1476 -0.2672
  572MOL0     C77118  10.544   6.072   3.795 -0.4361  0.0506 -0.8405
  572MOL0     C77119  10.588   6.204   3.773  0.4844  0.4539  0.2412
  572MOL0     O77120  10.562   6.311   3.848 -0.2611 -0.0014  0.5202
  572MOL0     C77121  10.561   6.293   3.989 -0.3436 -0.0716  0.0809
  572MOL0     C77122  10.534   6.416   4.070 -0.0441  0.0089  0.0260
  572MOL0     C77123  10.405   6.477   4.052 -0.4130 -0.1395  0.0682
  572MOL0     C77124  10.346   6.541   4.178 -0.3217 -0.3058  0.5147
  572MOL0     C77125  10.253   6.664   4.149  0.3562  0.5318 -0.2347
  572MOL0     C77126  10.126   6.680   4.237 -1.0306  0.7182  0.1400
  572MOL0     C77127  10.159   6.695   4.387  0.0893 -0.3375  0.4975
  572MOL0     C77128  10.061   6.785   4.461 -0.6287  0.0900  0.7590
  572MOL0    Cl77129  10.147   6.941   4.502  0.3574 -0.2098 -0.7244
  572MOL0     C77130  10.659   6.229   3.656  0.3055 -0.2388  0.1024
  572MOL0     C77131  10.695   6.129   3.562  0.4383 -0.3957 -0.0344
  572MOL0     O77132  10.450   5.895   3.419 -0.1295  0.1378 -0.1589
  572MOL0     C77133  10.703   5.695   3.281 -0.2260 -0.3334 -0.6154
  572MOL0     C77134  10.710   5.576   3.191 -0.5339 -0.4593  0.5440
  572MOL0     N77135  10.367   4.942   3.284  0.0476 -1.1588 -0.3847
  572MOL0     N77136  10.288   4.845   3.264  0.3148  0.6565 -0.3803
  572MOL0     C77137   9.389   4.961   2.913 -0.9382  0.6172  0.2791
  572MOL0     C77138   9.293   5.056   2.916  0.8034 -0.2730 -0.8998
  572MOL0     C77139   8.983   5.306   2.679 -1.0070 -0.1452 -0.0813
  572MOL0     C77140   8.997   5.446   2.669  0.1159 -0.4814  0.4744
  572MOL0     C77141   8.893   5.533   2.638 -0.1835 -0.0678  0.0286
  572MOL0     C77142   8.761   5.483   2.635  0.2355  0.1273 -0.5668
  572MOL0     O77143   8.667   5.577   2.602  0.6848 -0.0959  1.0648
  572MOL0     C77144   8.531   5.527   2.595  0.4065  0.0568 -1.1055
  572MOL0     C77145   8.492   5.471   2.466 -0.7066  0.2767 -0.4477
  572MOL0     C77146   8.475   5.597   2.372  0.5772 -0.0538 -0.3240
  572MOL0     C77147   8.332   5.659   2.367  0.2703 -1.3503 -0.9011
  572MOL0     C77148   8.226   5.560   2.331  0.4770 -0.0657 -0.3647
  572MOL0     C77149   8.121   5.502   2.293  0.5719  0.9169 -0.7728
  572MOL0     C77150   8.750   5.339   2.646  1.1039 -0.0028 -0.2641
  572MOL0     C77151   8.859   5.252   2.660  0.5078  0.7791 -0.7714
  572MOL0     C77152   8.837   5.111   2.674 -1.2897  0.3352 -1.0963
  572MOL0     H77153   9.128   4.948   2.647  1.3411  1.7835 -1.7911
  572MOL0     H77154   9.318   4.791   2.636  1.8944  1.5327 -2.1079
  572MOL0     H77155   9.519   4.695   2.637 -3.8261  1.5828  1.2360
  572MOL0     H77156   9.569   4.856   2.615  1.4282  1.9121  2.3373
  572MOL0     H77157   9.789   4.802   2.630 -1.0851  0.9786  0.0184
  572MOL0     H77158   9.741   4.629   2.623  0.6831  0.3006  0.5622
  572MOL0     H77159   9.710   4.645   2.878  1.3329 -2.0900  0.7411
  572MOL0     H77160   9.775   4.809   2.868  0.4425 -0.6934  1.7103
  572MOL0     H77161   9.906   4.531   2.788 -0.8850  0.1570 -2.1255
  572MOL0     H77162   9.987   4.684   2.760  0.6349  0.9289  1.2180
  572MOL0     H77163   9.955   4.764   2.985  0.7150  0.4507 -1.0924
  572MOL0     H77164   9.890   4.603   3.032 -1.0757  0.3649 -1.2793
  572MOL0     H77165  10.084   4.475   2.979  1.5759 -0.3024 -0.5252
  572MOL0     H77166  10.175   4.619   2.921 -0.8014  2.6693  0.3694
  572MOL0     H77167  10.094   4.542   3.216  1.3784 -1.1352 -0.6042
  572MOL0     H77168  10.102   4.710   3.174  0.5927  0.2341 -0.2489
  572MOL0     H77169  10.315   4.544   3.264  2.4150 -0.9251 -2.3716
  572MOL0     H77170  10.345   4.566   3.094 -3.5242 -4.4382 -0.7444
  572MOL0     H77171  10.565   4.714   3.175  1.2517  2.0971  0.3762
  572MOL0     H77172  10.644   5.048   3.328 -2.2551  0.1581  0.8748
  572MOL0     H77173  10.703   4.885   3.297 -0.3558 -0.5986  0.7074
  572MOL0     H77174  10.814   5.025   3.143 -0.4632  2.3153 -0.7775
  572MOL0     H77175  10.690   4.934   3.060  4.0185 -0.3122 -0.9475
  572MOL0     H77176  10.576   5.114   2.988  0.2577 -1.8404  0.7921
  572MOL0     H77177  10.742   5.182   2.999 -0.6261 -2.6363 -2.5575
  572MOL0     H77178  10.693   5.254   3.237 -1.6654  0.1439  1.9376
  572MOL0     H77179  10.524   5.243   3.217 -0.5412 -0.5298 -0.2460
  572MOL0     H77180  10.399   5.450   3.253 -0.2081 -1.8296 -1.2310
  572MOL0     H77181  10.383   5.642   3.383  0.4074  1.5665 -0.7366
  572MOL0     H77182  10.528   5.880   3.724  0.9666 -0.1943  2.4162
  572MOL0     H77183  10.469   6.060   3.873  1.1917 -1.0337  0.6430
  572MOL0     H77184  10.486   6.223   4.027 -0.8633  1.2465  1.6288
  572MOL0     H77185  10.660   6.248   4.004  0.6300  1.1188 -2.2472
  572MOL0     H77186  10.556   6.383   4.172  1.8497  3.1279  0.7903
  572MOL0     H77187  10.600   6.502   4.056 -3.7036  2.9123 -1.0818
  572MOL0     H77188  10.411   6.556   3.977 -0.1680 -0.6151 -0.4192
  572MOL0     H77189  10.333   6.402   4.019  0.2882 -0.6715 -0.2818
  572MOL0     H77190  10.433   6.577   4.234 -0.8767  0.2839  0.9943
  572MOL0     H77191  10.302   6.469   4.248  2.6245 -1.7952  1.0240
  572MOL0     H77192  10.234   6.670   4.042 -0.9081  2.0014  0.0274
  572MOL0     H77193  10.306   6.758   4.170 -0.4625  1.0538 -0.4441
  572MOL0     H77194  10.063   6.758   4.192 -2.0298 -0.3998 -0.4660
  572MOL0     H77195  10.061   6.594   4.221 -1.9801  1.5452 -0.6680
  572MOL0     H77196  10.260   6.732   4.404  0.6278 -1.0483 -1.0417
  572MOL0     H77197  10.138   6.596   4.429  0.0235 -0.5051  0.0675
  572MOL0     H77198   9.963   6.807   4.418 -1.6256 -1.8798  1.9055
  572MOL0     H77199  10.035   6.730   4.552 -2.8989 -1.5480 -0.7923
  572MOL0     H77200  10.678   6.334   3.634 -2.8687  0.5570  0.7367
  572MOL0     H77201  10.757   6.150   3.476  0.3495 -0.3125 -0.0788
  572MOL0     H77202  10.792   5.754   3.299 -0.9564  0.3400  0.9979
  572MOL0     H77203  10.806   5.552   3.146 -1.0113 -1.4120  0.0055
  572MOL0     H77204   9.473   4.958   2.981 -0.4392 -0.5097 -0.3475
  572MOL0     H77205   9.288   5.134   2.992  2.8124 -1.4868  0.6130
  572MOL0     H77206   9.092   5.495   2.649 -0.6672  0.0041 -2.5688
  572MOL0     H77207   8.921   5.636   2.620 -0.4743 -0.3530 -2.5275
  572MOL0     H77208   8.461   5.608   2.615  2.9129  1.6307  2.5765
  572MOL0     H77209   8.527   5.447   2.671  1.0020  1.0287 -0.0114
  572MOL0     H77210   8.397   5.417   2.471  0.5561 -2.0570 -0.4917
  572MOL0     H77211   8.568   5.399   2.435  1.6104  1.2246  2.6090
  572MOL0     H77212   8.493   5.571   2.268 -2.1548  0.5722 -1.0248
  572MOL0     H77213   8.551   5.664   2.413 -1.3258  0.1704  3.2995
  572MOL0     H77214   8.314   5.703   2.466  1.6584 -4.4569  0.8707
  572MOL0     H77215   8.328   5.738   2.291 -1.2679 -1.9613 -1.4770
  572MOL0     H77216   8.026   5.462   2.265  0.0690 -0.0119  1.9465
  572MOL0     H77217   8.656   5.284   2.646  1.3718 -0.5309 -2.2400
  572MOL0     H77218   8.920   5.057   2.627  2.0084 -0.6593  4.9295
  572MOL0     H77219   8.836   5.086   2.780 -2.2380  0.8570 -0.9786
  572MOL0     H77220   8.742   5.078   2.632 -1.1543 -0.3231 -0.8967
  573MOL0     O77221  10.331   3.070   9.158 -0.2020  0.0676 -0.0875
  573MOL0     C77222  10.213   3.081   9.138 -0.3647  0.8916  0.3719
  573MOL0     O77223  10.160   3.141   9.032 -0.0953 -0.3615 -0.0018
  573MOL0     C77224  10.236   3.164   8.920 -0.1804  0.2694  0.3497
  573MOL0     C77225  10.255   3.075   8.807  0.1688 -0.4821 -0.1135
  573MOL0     C77226  10.337   3.110   8.694  0.1738 -0.7769  0.1266
  573MOL0     C77227  10.404   3.238   8.697  0.6931  0.0490 -0.2551
  573MOL0     O77228  10.482   3.286   8.589 -0.3316 -0.0574 -0.4661
  573MOL0     C77229  10.550   3.188   8.515 -0.1788 -0.1864  1.0706
  573MOL0     C77230  10.653   3.248   8.418 -0.4558 -0.2551  0.0483
  573MOL0     C77231  10.586   3.339   8.318 -0.5620  0.8567  0.2942
  573MOL0     C77232  10.688   3.405   8.237 -1.2155 -0.0554  0.0010
  573MOL0     C77233  10.606   3.478   8.130  1.4576  0.4909 -0.3166
  573MOL0     C77234  10.697   3.496   8.007  1.0926 -0.0297  0.2279
  573MOL0     C77235  10.794   3.617   8.005 -0.6176  0.2734 -0.6581
  573MOL0     C77236  10.743   3.742   7.921  0.5268  0.4387 -0.8665
  573MOL0     N77237  10.768   3.734   7.775  0.6819 -0.3227 -0.0641
  573MOL0     C77238  10.869   3.685   7.699  0.5030 -0.8641 -0.2216
  573MOL0     C77239  10.841   3.712   7.576 -0.1997 -0.3867  0.6177
  573MOL0     C77240  10.932   3.671   7.464  0.1691  0.3671  0.3138
  573MOL0     C77241  10.883   3.535   7.417  0.4749  0.0127  0.3444
  573MOL0     C77242  10.747   3.546   7.339 -0.0328 -0.0541 -0.0243
  573MOL0     C77243  10.700   3.411   7.303  0.3309  0.3209  0.1057
  573MOL0     O77244  10.614   3.429   7.180  0.3375  0.5889 -0.1988
  573MOL0     C77245  10.481   3.449   7.199  0.3132 -0.7750 -0.5379
  573MOL0     C77246  10.382   3.354   7.158 -0.1256  0.1240 -0.4985
  573MOL0     C77247  10.251   3.381   7.183  0.6458  0.0248 -0.1168
  573MOL0     C77248  10.208   3.501   7.244 -1.0406  0.6185  0.5993
  573MOL0     C77249  10.064   3.528   7.270  0.2279  0.6328  0.7171
  573MOL0     O77250  10.025   3.664   7.296  0.7606  0.6780  0.4923
  573MOL0     C77251   9.894   3.677   7.327  0.6278  0.1022  0.5428
  573MOL0     C77252   9.800   3.708   7.232  1.1198  0.9396  0.6809
  573MOL0     C77253   9.667   3.719   7.260  0.0156  0.0967  0.3831
  573MOL0     C77254   9.614   3.686   7.383 -1.0973 -0.8136  0.0295
  573MOL0     O77255   9.479   3.677   7.388  0.5568 -1.0281 -0.3633
  573MOL0     C77256   9.410   3.610   7.494  0.3610  0.8295 -0.6144
  573MOL0     C77257   9.354   3.708   7.594 -0.1153  0.3752 -0.6501
  573MOL0     C77258   9.269   3.625   7.695  0.2048 -0.4800  0.8867
  573MOL0     C77259   9.193   3.711   7.800 -0.3237  0.6642 -0.3428
  573MOL0     C77260   9.093   3.644   7.895  0.9884  0.2215 -0.3903
  573MOL0     C77261   9.145   3.658   8.041  0.6917 -0.1252  1.3976
  573MOL0     C77262   9.256   3.553   8.074 -0.0944  0.2319  0.2107
  573MOL0     C77263   9.231   3.502   8.217 -0.0709  0.5958 -0.0840
  573MOL0    Cl77264   9.249   3.606   8.352  0.0872  0.1645 -0.0038
  573MOL0     C77265   9.711   3.648   7.487  0.2080  0.0153  0.2330
  573MOL0     C77266   9.844   3.635   7.460  0.3474 -0.2150  0.0368
  573MOL0     O77267   9.987   3.427   7.268 -1.0790  0.0268  0.2165
  573MOL0     C77268  10.303   3.593   7.285 -0.0334 -0.0223  0.4030
  573MOL0     C77269  10.440   3.575   7.254 -0.1224  0.6696 -0.3588
  573MOL0     N77270  10.722   3.780   7.562  0.5746  0.2072  0.0790
  573MOL0     N77271  10.687   3.795   7.691  0.6047 -0.6965  0.5227
  573MOL0     C77272  10.361   3.332   8.787  1.0654  0.4376 -0.6641
  573MOL0     C77273  10.294   3.291   8.901  0.0730  0.0946 -0.6889
  573MOL0     C77274  10.112   3.038   9.239 -0.0711  0.0421  0.3678
  573MOL0     C77275   9.983   3.080   9.218  0.1258 -0.0163  1.0111
  573MOL0     C77276   9.883   3.048   9.301 -0.0386 -0.1003 -0.5655
  573MOL0     C77277   9.904   2.960   9.412  0.4032 -0.5909 -0.4123
  573MOL0     O77278   9.798   2.943   9.506  0.7733  0.1876  0.3788
  573MOL0     C77279   9.673   2.913   9.439 -0.1035  0.3587 -0.3479
  573MOL0     C77280   9.585   2.834   9.543  0.3613  0.5160 -0.0460
  573MOL0     C77281   9.640   2.695   9.590 -0.7950  0.4935  0.6090
  573MOL0     C77282   9.684   2.602   9.481 -0.2881 -0.0741 -0.3597
  573MOL0     C77283   9.651   2.464   9.517 -0.1170  0.2960 -0.6289
  573MOL0     C77284   9.658   2.352   9.575 -0.1041 -0.1102  0.9146
  573MOL0     C77285  10.036   2.924   9.439  0.6080  0.4180 -0.7362
  573MOL0     C77286  10.140   2.961   9.358  0.4833 -0.4304  0.4359
  573MOL0     C77287  10.272   2.908   9.392  0.3736  0.0431 -0.1606
  573MOL0     H77288  10.207   2.978   8.812 -0.0536 -0.3042  1.7068
  573MOL0     H77289  10.337   3.031   8.619  1.4295 -1.1063  0.4371
  573MOL0     H77290  10.603   3.121   8.583  1.2727  0.6466  0.8174
  573MOL0     H77291  10.473   3.133   8.461 -2.7307  3.9764  0.0480
  573MOL0     H77292  10.695   3.162   8.364 -2.9491 -1.2608 -0.4351
  573MOL0     H77293  10.742   3.297   8.459 -0.3902 -1.5188  1.5205
  573MOL0     H77294  10.534   3.418   8.373  2.3663  2.1099  1.4415
  573MOL0     H77295  10.533   3.273   8.247  1.1282 -1.0599  0.7081
  573MOL0     H77296  10.758   3.469   8.293 -1.7486  0.4549  0.0995
  573MOL0     H77297  10.756   3.330   8.196 -1.5744 -0.2655 -0.2143
  573MOL0     H77298  10.511   3.428   8.108  1.6130  0.4739 -0.9451
  573MOL0     H77299  10.584   3.572   8.181 -1.0217 -0.6626  0.9442
  573MOL0     H77300  10.751   3.406   7.978  1.2618  0.7016 -1.9914
  573MOL0     H77301  10.621   3.515   7.930  1.1459 -0.9528 -0.0623
  573MOL0     H77302  10.885   3.584   7.954  0.8823  0.6088  1.6319
  573MOL0     H77303  10.825   3.653   8.104  2.8691 -1.0105 -1.1300
  573MOL0     H77304  10.635   3.753   7.928  0.3897  0.7316 -2.8212
  573MOL0     H77305  10.774   3.837   7.965 -0.1357 -0.2408  1.2147
  573MOL0     H77306  10.949   3.621   7.737 -2.9518 -5.8947 -0.4935
  573MOL0     H77307  10.941   3.740   7.380 -1.0198  0.2320  0.0574
  573MOL0     H77308  11.031   3.666   7.510 -0.8101  2.0338  2.7874
  573MOL0     H77309  10.956   3.489   7.350  0.0458 -1.0578  0.5879
  573MOL0     H77310  10.873   3.470   7.504 -1.1533  1.5287  1.3581
  573MOL0     H77311  10.747   3.615   7.254  1.0741  3.0369  2.2864
  573MOL0     H77312  10.674   3.577   7.414  0.9020 -0.0263  0.9083
  573MOL0     H77313  10.641   3.365   7.383 -2.4830  4.4519  0.7227
  573MOL0     H77314  10.790   3.355   7.278  0.0610 -0.5583  1.0497
  573MOL0     H77315  10.428   3.275   7.100  1.2403  0.0472  0.6558
  573MOL0     H77316  10.188   3.312   7.128  0.7664  1.7757 -2.6140
  573MOL0     H77317   9.828   3.733   7.130  1.3831  0.0196  0.5218
  573MOL0     H77318   9.611   3.756   7.175  0.7865 -0.8033 -0.5336
  573MOL0     H77319   9.319   3.569   7.451 -0.7188  2.2339  0.2390
  573MOL0     H77320   9.463   3.528   7.543 -1.3982 -1.5487 -2.4567
  573MOL0     H77321   9.436   3.760   7.643  0.7681  2.2100 -3.8126
  573MOL0     H77322   9.291   3.777   7.537  0.5514  0.6580 -1.0493
  573MOL0     H77323   9.207   3.554   7.640  2.7250 -2.6307  0.6310
  573MOL0     H77324   9.340   3.562   7.748  2.8886  1.4796 -0.1423
  573MOL0     H77325   9.135   3.779   7.737  0.2291  2.1950  0.7393
  573MOL0     H77326   9.271   3.765   7.854 -0.6307 -0.0324  0.8522
  573MOL0     H77327   9.069   3.539   7.880 -3.6905  0.8062  1.4705
  573MOL0     H77328   8.996   3.694   7.893  0.2739 -1.0464  0.8053
  573MOL0     H77329   9.191   3.755   8.058  2.3218 -0.9559  2.0086
  573MOL0     H77330   9.057   3.654   8.105 -0.3579  1.8323  0.1509
  573MOL0     H77331   9.352   3.605   8.064  1.7213 -2.9592 -0.5003
  573MOL0     H77332   9.253   3.473   7.999 -0.4731  2.9419 -2.8850
  573MOL0     H77333   9.129   3.463   8.219 -0.9023  2.6211 -0.2377
  573MOL0     H77334   9.288   3.414   8.247 -1.6131 -0.1402  0.8013
  573MOL0     H77335   9.691   3.607   7.585 -1.5184 -0.2443 -0.1833
  573MOL0     H77336   9.910   3.591   7.534  1.1440 -0.3679 -0.7474
  573MOL0     H77337  10.279   3.690   7.328  1.1879 -0.4716  2.2222
  573MOL0     H77338  10.509   3.651   7.290 -0.4785  1.0192 -0.4165
  573MOL0     H77339  10.403   3.431   8.774  1.7604 -0.1340 -3.3067
  573MOL0     H77340  10.281   3.364   8.981  4.7071  0.2235  0.2323
  573MOL0     H77341   9.963   3.155   9.142  0.7459 -1.7329 -0.9342
  573MOL0     H77342   9.793   3.109   9.294  0.0613  0.0524 -0.5157
  573MOL0     H77343   9.676   2.858   9.345 -1.8908  0.3768 -0.4457
  573MOL0     H77344   9.621   3.006   9.415  0.0180 -0.6886 -5.8858
  573MOL0     H77345   9.486   2.814   9.502  0.6491 -0.6923 -0.1705
  573MOL0     H77346   9.598   2.905   9.625  1.2951 -0.6916  0.8823
  573MOL0     H77347   9.560   2.649   9.648 -0.1256  1.6822  2.5748
  573MOL0     H77348   9.729   2.704   9.654  0.9773 -2.7702 -1.1507
  573MOL0     H77349   9.632   2.617   9.386  2.1825  1.8986 -1.5075
  573MOL0     H77350   9.791   2.614   9.461  1.5769 -2.7465  5.6016
  573MOL0     H77351   9.668   2.266   9.637 -3.2050 -3.0530 -2.2096
  573MOL0     H77352  10.058   2.851   9.516 -0.3187  0.7690 -0.1116
  573MOL0     H77353  10.261   2.837   9.474 -1.0792  1.4100  0.9113
  573MOL0     H77354  10.314   2.855   9.306  0.1310 -0.2136 -0.1224
  573MOL0     H77355  10.339   2.991   9.417 -1.3152  2.8085 -3.8117
  574MOL0     O77356   4.982  10.470   7.591 -0.0426  0.5678 -0.7013
  574MOL0     C77357   4.919  10.574   7.594 -0.2647  0.2704  0.6023
  574MOL0     O77358   4.815  10.603   7.509  0.1777 -0.0830  0.6095
  574MOL0     C77359   4.781  10.501   7.420 -0.4258  0.1701 -0.7581
  574MOL0     C77360   4.821  10.505   7.282 -0.3331 -0.0667 -0.4614
  574MOL0     C77361   4.810  10.391   7.191 -0.4482  0.2542  0.0355
  574MOL0     C77362   4.737  10.279   7.235  0.1808 -0.7709  0.3508
  574MOL0     O77363   4.716  10.158   7.184 -0.4883 -0.0869  0.2498
  574MOL0     C77364   4.801  10.109   7.073 -0.5140  0.7267  0.0230
  574MOL0     C77365   4.729   9.993   6.987  0.1299 -0.9810 -0.7984
  574MOL0     C77366   4.721   9.851   7.055 -0.8093  0.1542 -0.1179
  574MOL0     C77367   4.618   9.835   7.157  0.5612 -1.0625  0.2679
  574MOL0     C77368   4.604   9.688   7.218  0.2728 -0.3116  1.0658
  574MOL0     C77369   4.460   9.631   7.221 -1.3368 -0.6796 -1.2079
  574MOL0     C77370   4.393   9.597   7.086 -0.0368  0.9552  0.7379
  574MOL0     C77371   4.251   9.552   7.112  0.4689  0.2655  0.0481
  574MOL0     N77372   4.153   9.662   7.135 -0.5490  0.7646  0.3155
  574MOL0     C77373   4.158   9.802   7.099 -0.1022  1.2401 -0.6038
  574MOL0     C77374   4.036   9.843   7.142 -0.6286 -0.3347  0.7644
  574MOL0     C77375   3.979   9.989   7.140  0.2152  0.4175 -0.0563
  574MOL0     C77376   3.976  10.038   7.289 -0.7984 -0.5300  0.7339
  574MOL0     C77377   4.123  10.083   7.324  0.5308 -0.3085  0.5670
  574MOL0     C77378   4.123  10.098   7.472 -0.7237 -1.1504 -1.0772
  574MOL0     O77379   4.099   9.975   7.539  0.2883  0.5815  0.2638
  574MOL0     C77380   4.206   9.879   7.550 -0.4161 -0.7211 -0.0701
  574MOL0     C77381   4.173   9.756   7.607 -0.1200 -1.1187 -0.6523
  574MOL0     C77382   4.263   9.656   7.636 -0.8678  0.5253 -0.6736
  574MOL0     C77383   4.398   9.688   7.601  0.1580 -0.0168 -1.2004
  574MOL0     C77384   4.505   9.593   7.641  0.0292  0.0065 -0.9109
  574MOL0     O77385   4.472   9.458   7.653 -0.7415  1.0328 -0.2887
  574MOL0     C77386   4.553   9.358   7.702  0.0135 -0.5355 -0.2257
  574MOL0     C77387   4.524   9.238   7.644 -0.0381  0.5348  0.3073
  574MOL0     C77388   4.589   9.119   7.697  0.3573  0.3356  0.7458
  574MOL0     C77389   4.692   9.123   7.799  0.0980 -0.8542  0.2180
  574MOL0     O77390   4.768   9.026   7.855  0.3400  0.4323 -0.2289
  574MOL0     C77391   4.709   8.893   7.858  1.0271  1.5595 -0.4968
  574MOL0     C77392   4.619   8.880   7.980  0.3076 -0.2834  0.5890
  574MOL0     C77393   4.558   8.743   7.999  0.3427 -0.3919  0.8079
  574MOL0     C77394   4.455   8.686   7.891  0.7115 -0.6974  0.0363
  574MOL0     C77395   4.355   8.789   7.840 -0.3938  0.4770  0.1729
  574MOL0     C77396   4.257   8.723   7.736 -0.4482 -1.0230 -0.3171
  574MOL0     C77397   4.144   8.805   7.696  0.5958 -0.6783 -0.1581
  574MOL0     C77398   4.043   8.741   7.605  0.6096 -0.8925 -0.6560
  574MOL0    Cl77399   4.112   8.688   7.440 -0.1510 -0.3664  0.1311
  574MOL0     C77400   4.727   9.253   7.839  0.1712 -0.0888  0.9491
  574MOL0     C77401   4.654   9.373   7.799 -0.4409  0.2870 -0.3883
  574MOL0     O77402   4.620   9.639   7.653 -0.1481  0.0991  0.0449
  574MOL0     C77403   4.430   9.805   7.532 -0.1295 -0.4876  0.1138
  574MOL0     C77404   4.337   9.904   7.498 -0.9990  0.2424 -0.1174
  574MOL0     N77405   3.963   9.735   7.191  0.6562 -0.6358  1.3418
  574MOL0     N77406   4.035   9.623   7.189  0.2990 -0.8952 -0.2096
  574MOL0     C77407   4.677  10.285   7.361  0.0125  0.4502 -0.0975
  574MOL0     C77408   4.696  10.399   7.454 -0.5702 -0.1548  0.4657
  574MOL0     C77409   4.955  10.678   7.692 -0.1050 -0.0216  0.0620
  574MOL0     C77410   4.861  10.760   7.751  0.4542 -0.1758  0.0322
  574MOL0     C77411   4.891  10.851   7.852  0.0346 -0.9010 -0.6131
  574MOL0     C77412   5.013  10.858   7.906 -0.7876  0.4668  0.1222
  574MOL0     O77413   5.039  10.944   8.001  1.2704  0.3801  0.7938
  574MOL0     C77414   5.118  11.049   7.949  0.2926 -0.1207  0.5487
  574MOL0     C77415   5.118  11.164   8.041  0.0586 -0.3725 -0.0132
  574MOL0     C77416   4.985  11.244   8.034 -0.1523 -0.4159  0.6191
  574MOL0     C77417   4.978  11.386   8.095  0.5901  0.3376  0.5412
  574MOL0     C77418   5.086  11.465   8.037 -0.0325 -0.7071 -1.0831
  574MOL0     C77419   5.186  11.511   7.990 -0.4157  0.1973  0.4419
  574MOL0     C77420   5.118  10.781   7.845  0.4909  0.0103 -0.0166
  574MOL0     C77421   5.083  10.694   7.747 -0.6833  0.0295  0.6220
  574MOL0     C77422   5.204  10.624   7.690 -0.2962 -0.0065 -0.5317
  574MOL0     H77423   4.867  10.597   7.245  0.2742 -0.7688 -1.5003
  574MOL0     H77424   4.848  10.383   7.090 -1.3439 -0.8490 -0.2339
  574MOL0     H77425   4.821  10.196   7.009  0.9516  1.0615  0.8904
  574MOL0     H77426   4.891  10.068   7.120 -2.2367  0.8382  3.7702
  574MOL0     H77427   4.794   9.978   6.901 -0.4209 -4.0191 -0.7872
  574MOL0     H77428   4.630  10.024   6.953 -0.2186 -1.4105 -0.2034
  574MOL0     H77429   4.820   9.847   7.101 -0.8801  1.2059  0.1533
  574MOL0     H77430   4.709   9.770   6.982  2.1358  1.6938 -2.5264
  574MOL0     H77431   4.641   9.916   7.226 -0.5668 -0.2314 -0.2813
  574MOL0     H77432   4.518   9.857   7.117  0.7460  0.1272  0.4230
  574MOL0     H77433   4.663   9.619   7.156  0.6584  1.2822 -0.4227
  574MOL0     H77434   4.644   9.691   7.319 -0.0366 -1.1778  1.2221
  574MOL0     H77435   4.465   9.542   7.284 -1.0210 -0.6798 -1.2342
  574MOL0     H77436   4.402   9.705   7.277  0.9855  2.3525 -2.5200
  574MOL0     H77437   4.451   9.536   7.016 -0.6019  2.6695 -1.3380
  574MOL0     H77438   4.370   9.679   7.017 -3.4413 -1.0192 -0.7247
  574MOL0     H77439   4.223   9.483   7.031  3.8251 -0.7612 -0.4038
  574MOL0     H77440   4.258   9.483   7.196 -0.7135 -2.7989 -2.1957
  574MOL0     H77441   4.240   9.859   7.058  2.9163 -3.0577 -1.2671
  574MOL0     H77442   4.039  10.058   7.081 -1.5094  1.9125 -0.1343
  574MOL0     H77443   3.881   9.991   7.093  0.7168  2.4575 -1.1052
  574MOL0     H77444   3.903  10.117   7.309 -0.3208  0.4769 -1.3112
  574MOL0     H77445   3.938   9.963   7.359 -1.4510 -2.4502 -1.5452
  574MOL0     H77446   4.147  10.173   7.268 -1.7773 -1.8335 -3.2412
  574MOL0     H77447   4.193  10.007   7.289  3.5976  2.1162  1.0052
  574MOL0     H77448   4.052  10.172   7.510  1.5373 -0.6883  2.8681
  574MOL0     H77449   4.218  10.140   7.506 -1.9402  1.5015 -0.7261
  574MOL0     H77450   4.068   9.738   7.632  0.1560 -0.9119  0.7630
  574MOL0     H77451   4.234   9.562   7.682  1.3715 -0.1257 -0.5068
  574MOL0     H77452   4.456   9.238   7.559  1.8191  1.7261 -1.2992
  574MOL0     H77453   4.572   9.022   7.651 -0.5530  0.9317 -0.2387
  574MOL0     H77454   4.646   8.872   7.771  1.4740 -0.7086 -0.3243
  574MOL0     H77455   4.781   8.814   7.877  0.1866  0.0256 -3.1889
  574MOL0     H77456   4.683   8.903   8.065 -0.1775 -0.4733  1.0054
  574MOL0     H77457   4.535   8.949   7.968 -0.1494 -0.5245  2.2486
  574MOL0     H77458   4.639   8.672   8.018 -0.0194 -0.5257  1.9200
  574MOL0     H77459   4.506   8.762   8.093  2.2010  6.4607  0.9392
  574MOL0     H77460   4.406   8.602   7.941  0.3730 -1.9131 -2.1786
  574MOL0     H77461   4.500   8.652   7.797  2.4695  0.7138  0.2973
  574MOL0     H77462   4.418   8.867   7.795 -1.0962  0.5467 -0.7335
  574MOL0     H77463   4.311   8.820   7.935 -0.6070 -0.9660  0.5712
  574MOL0     H77464   4.309   8.680   7.650  0.1744  0.0910 -0.5160
  574MOL0     H77465   4.216   8.645   7.800  1.4112 -0.3066  1.8502
  574MOL0     H77466   4.194   8.885   7.641 -2.6722  1.3709 -0.4470
  574MOL0     H77467   4.100   8.859   7.780  3.1487  2.8035 -0.8328
  574MOL0     H77468   4.012   8.642   7.641 -5.1811  0.2251 -1.5607
  574MOL0     H77469   3.957   8.809   7.597  2.6821  2.0614  0.2318
  574MOL0     H77470   4.803   9.262   7.916  2.4702 -0.9408 -1.0714
  574MOL0     H77471   4.673   9.470   7.845 -1.7100 -1.2254  3.7720
  574MOL0     H77472   4.533   9.823   7.504 -0.1110 -2.3814 -1.2677
  574MOL0     H77473   4.376  10.000   7.464  2.1527 -1.0150 -0.3307
  574MOL0     H77474   4.599  10.213   7.383 -0.2707  0.6860 -0.3190
  574MOL0     H77475   4.639  10.395   7.546  0.9601 -1.6740  1.4256
  574MOL0     H77476   4.758  10.766   7.715  1.1931  0.5694 -2.1297
  574MOL0     H77477   4.812  10.916   7.888 -0.7920 -2.0372 -0.3012
  574MOL0     H77478   5.088  11.080   7.848  2.1919  1.7115  0.4791
  574MOL0     H77479   5.221  11.013   7.940  0.2127 -0.3218  0.4395
  574MOL0     H77480   5.211  11.220   8.028  1.8598 -2.9364  1.1014
  574MOL0     H77481   5.130  11.134   8.146 -1.2975  2.4326  1.0716
  574MOL0     H77482   4.904  11.186   8.079 -3.2947  3.0910 -0.0120
  574MOL0     H77483   4.947  11.263   7.933 -2.0798  0.2344  1.3968
  574MOL0     H77484   4.878  11.428   8.087  0.8580  0.6885 -2.0934
  574MOL0     H77485   5.000  11.367   8.200 -1.2178 -2.1803  0.5523
  574MOL0     H77486   5.277  11.547   7.947  0.4191 -3.0926 -0.9236
  574MOL0     H77487   5.221  10.802   7.870  0.4423  0.2787 -0.0345
  574MOL0     H77488   5.298  10.676   7.710 -0.9831  0.4344  1.8676
  574MOL0     H77489   5.212  10.531   7.748 -0.2153  0.4384  0.1753
  574MOL0     H77490   5.194  10.608   7.582  0.2013  0.8281 -0.7111
  575MOL0     O77491   7.090   2.867   8.888  0.0322  0.0225 -0.2106
  575MOL0     C77492   7.110   2.851   8.773 -0.8795 -0.1623  0.7466
  575MOL0     O77493   7.046   2.772   8.696  0.0049 -0.2105  0.6985
  575MOL0     C77494   6.953   2.679   8.742 -0.2378  1.0924  0.0222
  575MOL0     C77495   6.963   2.599   8.859  0.9309 -0.3635  0.1578
  575MOL0     C77496   6.857   2.513   8.900 -0.4891 -0.5393  1.3240
  575MOL0     C77497   6.744   2.504   8.821 -0.5811  0.3668 -0.3379
  575MOL0     O77498   6.641   2.412   8.842 -0.7456  0.1653 -0.1596
  575MOL0     C77499   6.668   2.295   8.915  0.1535  0.1899  0.9749
  575MOL0     C77500   6.545   2.202   8.904 -1.1695  0.6279  0.8741
  575MOL0     C77501   6.528   2.127   8.766 -0.0865  0.1286  0.0345
  575MOL0     C77502   6.418   2.012   8.775 -0.4401  0.1546  0.1010
  575MOL0     C77503   6.458   1.880   8.845 -1.1664  0.8249  0.0751
  575MOL0     C77504   6.581   1.812   8.784 -1.2999 -0.1354 -0.7141
  575MOL0     C77505   6.598   1.659   8.805  0.0155  0.6666 -0.0478
  575MOL0     C77506   6.733   1.609   8.727 -0.1268  0.3377 -1.3509
  575MOL0     N77507   6.696   1.527   8.614 -0.4896 -0.0754  0.7540
  575MOL0     C77508   6.617   1.412   8.615 -0.9060 -0.0457  0.7007
  575MOL0     C77509   6.614   1.370   8.485  0.4232  0.3211  0.6453
  575MOL0     C77510   6.554   1.242   8.438  1.0604 -0.3468 -0.4714
  575MOL0     C77511   6.467   1.253   8.309 -0.5585  0.7545  1.4738
  575MOL0     C77512   6.341   1.338   8.337  1.2840  0.5432  0.2014
  575MOL0     C77513   6.264   1.277   8.458 -0.0074 -1.3699  0.3670
  575MOL0     O77514   6.315   1.339   8.582 -0.0245  0.1944 -0.2509
  575MOL0     C77515   6.271   1.313   8.703 -0.3672 -0.5357  0.2924
  575MOL0     C77516   6.288   1.404   8.805  0.2328 -1.0415 -0.5750
  575MOL0     C77517   6.221   1.395   8.936 -0.0864 -0.2871 -0.4341
  575MOL0     C77518   6.147   1.280   8.969  0.8042 -0.6161  0.5631
  575MOL0     C77519   6.063   1.272   9.092  0.7334  0.4719 -0.8650
  575MOL0     O77520   6.077   1.361   9.188  0.0524  0.3749 -0.8108
  575MOL0     C77521   6.026   1.328   9.315 -0.1787 -0.3514  0.6272
  575MOL0     C77522   5.938   1.418   9.376  0.2419  0.1816 -0.8904
  575MOL0     C77523   5.893   1.394   9.507 -0.1075 -0.6538  0.3824
  575MOL0     C77524   5.942   1.291   9.584  0.2325 -1.1370 -0.6775
  575MOL0     O77525   5.906   1.278   9.712  0.0119  0.4045 -0.1044
  575MOL0     C77526   5.993   1.207   9.805 -0.2898  0.8811 -0.3901
  575MOL0     C77527   6.138   1.263   9.828 -0.7037 -0.2388 -0.2074
  575MOL0     C77528   6.202   1.185   9.944  0.3989  0.2487 -0.0659
  575MOL0     C77529   6.127   1.202  10.083 -0.5529 -0.1748 -0.3935
  575MOL0     C77530   6.099   1.347  10.123  0.6081  0.4361  0.6088
  575MOL0     C77531   6.054   1.362  10.265 -0.5442 -0.7868 -0.1390
  575MOL0     C77532   6.047   1.513  10.298  0.2564  0.1066 -0.1859
  575MOL0     C77533   5.990   1.535  10.440  0.0746 -0.2374  0.1273
  575MOL0    Cl77534   6.027   1.696  10.483  0.2196  0.2463 -0.4188
  575MOL0     C77535   6.029   1.202   9.518  0.7176 -0.2117 -0.1840
  575MOL0     C77536   6.067   1.218   9.387  0.1021 -0.5377  0.3043
  575MOL0     O77537   5.979   1.179   9.101  0.1987 -0.4542 -0.6280
  575MOL0     C77538   6.142   1.183   8.860 -0.8407  0.5446 -1.3429
  575MOL0     C77539   6.205   1.194   8.736  0.4571  1.1791  0.3387
  575MOL0     N77540   6.707   1.444   8.412  0.8484 -0.3396  0.3477
  575MOL0     N77541   6.758   1.536   8.491  0.0647 -0.1520 -0.1746
  575MOL0     C77542   6.737   2.589   8.714 -0.0138  0.8893  0.1531
  575MOL0     C77543   6.836   2.679   8.670 -0.2357 -0.4770 -0.9355
  575MOL0     C77544   7.212   2.946   8.709 -0.2017  0.0145  0.2357
  575MOL0     C77545   7.330   2.879   8.663  0.1042  0.2419  0.1202
  575MOL0     C77546   7.427   2.964   8.601 -0.3166  1.1892 -0.0306
  575MOL0     C77547   7.409   3.098   8.572 -0.6651 -0.2951  0.1060
  575MOL0     O77548   7.503   3.158   8.494  0.3117 -0.2436 -0.0433
  575MOL0     C77549   7.449   3.274   8.433  0.4524 -0.7389  0.6880
  575MOL0     C77550   7.530   3.311   8.307 -0.2637 -0.1495  0.2491
  575MOL0     C77551   7.493   3.447   8.241 -1.0368  0.0300  0.4773
  575MOL0     C77552   7.563   3.565   8.315  0.0655  0.3908 -0.0168
  575MOL0     C77553   7.710   3.578   8.299  0.4535 -1.0130  0.7639
  575MOL0     C77554   7.832   3.587   8.278  0.5139  0.1787  0.2632
  575MOL0     C77555   7.288   3.151   8.620 -0.4832  0.8394 -0.0249
  575MOL0     C77556   7.188   3.078   8.684 -0.6471 -0.5010  0.9577
  575MOL0     C77557   7.070   3.146   8.737  0.2360  0.3897  0.2060
  575MOL0     H77558   7.054   2.601   8.918 -0.0828  0.0473  1.7715
  575MOL0     H77559   6.868   2.451   8.988 -1.8657 -1.6003  0.7889
  575MOL0     H77560   6.756   2.240   8.879 -0.8873 -1.4869  0.9290
  575MOL0     H77561   6.692   2.317   9.020  1.6871  1.2095  0.4533
  575MOL0     H77562   6.453   2.256   8.927 -1.7628  0.3963 -0.7835
  575MOL0     H77563   6.557   2.125   8.981 -3.9252 -1.1938 -0.3676
  575MOL0     H77564   6.630   2.099   8.738  1.1589  1.4786  2.8851
  575MOL0     H77565   6.499   2.194   8.685  1.8605 -1.8425 -2.5206
  575MOL0     H77566   6.325   2.044   8.822 -3.0398 -3.2550 -2.2428
  575MOL0     H77567   6.399   1.978   8.673  1.0085 -1.3844  0.2912
  575MOL0     H77568   6.473   1.890   8.953  0.6888 -3.5740  0.4566
  575MOL0     H77569   6.377   1.807   8.835  0.3991 -0.7754 -1.6168
  575MOL0     H77570   6.597   1.834   8.678 -0.2922 -1.0848 -0.7664
  575MOL0     H77571   6.656   1.873   8.835 -2.0507  1.1677 -1.1095
  575MOL0     H77572   6.510   1.613   8.761  1.0208 -4.0519  2.2424
  575MOL0     H77573   6.595   1.638   8.912  0.5960  2.2796  0.3282
  575MOL0     H77574   6.782   1.703   8.701  0.3172  0.2837 -0.7330
  575MOL0     H77575   6.802   1.558   8.795  1.8127  1.1421 -2.6498
  575MOL0     H77576   6.561   1.368   8.697  2.1599 -0.4165  2.7551
  575MOL0     H77577   6.647   1.191   8.410  0.4778 -0.9894 -1.2856
  575MOL0     H77578   6.505   1.184   8.516  0.1142 -1.0915 -1.5797
  575MOL0     H77579   6.514   1.294   8.219 -0.1717 -0.7219  0.9722
  575MOL0     H77580   6.433   1.154   8.279 -1.0000  1.0488  0.9760
  575MOL0     H77581   6.280   1.316   8.249  2.9037 -0.1031 -0.7995
  575MOL0     H77582   6.350   1.446   8.341 -0.9857  0.8453 -1.2594
  575MOL0     H77583   6.273   1.168   8.455 -2.7604 -1.7252  1.9048
  575MOL0     H77584   6.160   1.301   8.436  1.0812  1.9790 -2.0120
  575MOL0     H77585   6.352   1.490   8.785 -1.0219  0.0639 -0.0167
  575MOL0     H77586   6.227   1.485   8.996 -2.1054  0.9205 -1.8941
  575MOL0     H77587   5.895   1.504   9.328  1.2570  3.7219  3.7577
  575MOL0     H77588   5.821   1.461   9.552  1.8549  1.4040  0.6611
  575MOL0     H77589   5.948   1.209   9.904  2.2983 -3.3658  1.1171
  575MOL0     H77590   6.006   1.102   9.778  1.9145  0.4941  1.8514
  575MOL0     H77591   6.193   1.240   9.736  1.0912 -1.9394  1.2119
  575MOL0     H77592   6.129   1.372   9.838  1.1165  0.0137 -0.8685
  575MOL0     H77593   6.206   1.082   9.907 -2.0494 -0.1477  0.6347
  575MOL0     H77594   6.305   1.219   9.957  0.6796  0.4915 -2.4113
  575MOL0     H77595   6.186   1.159  10.164 -3.8369 -0.7903  1.8965
  575MOL0     H77596   6.036   1.142  10.082 -0.8289  0.2414 -0.6727
  575MOL0     H77597   6.037   1.408  10.056 -1.5630 -0.3027  1.8517
  575MOL0     H77598   6.194   1.401  10.119  1.3151 -0.4970  3.1228
  575MOL0     H77599   5.960   1.308  10.283  0.0810 -1.9071 -0.0877
  575MOL0     H77600   6.136   1.318  10.323 -0.3178  1.6350  1.4975
  575MOL0     H77601   5.977   1.568  10.235 -1.4609  0.4255  1.8721
  575MOL0     H77602   6.151   1.545  10.287  0.6629  0.5936  3.5965
  575MOL0     H77603   5.881   1.526  10.435 -0.1217 -0.0703  2.5593
  575MOL0     H77604   6.028   1.475  10.524  0.2853  0.3281  0.4408
  575MOL0     H77605   6.076   1.122   9.574  3.1020  0.8446 -0.5586
  575MOL0     H77606   6.142   1.152   9.344 -0.3894 -1.5118  0.9158
  575MOL0     H77607   6.101   1.087   8.889 -2.2611  1.6826  0.6528
  575MOL0     H77608   6.194   1.112   8.666  3.1394 -0.0741  1.2187
  575MOL0     H77609   6.648   2.587   8.653 -0.0056  0.5733  0.1498
  575MOL0     H77610   6.824   2.737   8.579  0.3702  2.3848  0.6832
  575MOL0     H77611   7.338   2.771   8.663 -0.6445  0.1776  0.7260
  575MOL0     H77612   7.519   2.914   8.569  0.5284  0.3214  3.3824
  575MOL0     H77613   7.455   3.348   8.513 -3.3883  0.6271 -0.0884
  575MOL0     H77614   7.350   3.255   8.391  0.2929 -0.6734  1.0309
  575MOL0     H77615   7.522   3.221   8.246  2.0184 -0.7017  0.6710
  575MOL0     H77616   7.633   3.321   8.344 -0.8423 -1.2924  2.3485
  575MOL0     H77617   7.384   3.462   8.242 -1.0213  0.8539 -2.2695
  575MOL0     H77618   7.523   3.447   8.136  0.2280  0.6072  0.8207
  575MOL0     H77619   7.519   3.661   8.285  0.8168  0.9936  0.7466
  575MOL0     H77620   7.547   3.567   8.423  0.7578  2.5471  0.1024
  575MOL0     H77621   7.936   3.603   8.258  1.3476 -3.7628  0.6245
  575MOL0     H77622   7.268   3.255   8.597 -0.3097  0.4783 -2.0196
  575MOL0     H77623   6.987   3.152   8.667 -0.1537 -2.7137  0.2699
  575MOL0     H77624   7.034   3.108   8.833 -2.3143  1.7556 -0.1140
  575MOL0     H77625   7.100   3.248   8.765  2.9265 -0.0514 -0.8784
  576MOL0     O77626   0.862   1.640   6.864 -0.9536 -0.5981  0.1575
  576MOL0     C77627   0.825   1.622   6.749  0.3764  0.8084 -0.5131
  576MOL0     O77628   0.896   1.566   6.650 -0.0039  0.7452  0.1779
  576MOL0     C77629   1.013   1.503   6.673  0.2583 -0.1742 -0.0787
  576MOL0     C77630   1.046   1.433   6.796  0.2631 -0.7601 -0.4193
  576MOL0     C77631   1.170   1.368   6.806  0.2126  0.0123  0.0957
  576MOL0     C77632   1.246   1.357   6.691  0.5923  1.1598  0.5478
  576MOL0     O77633   1.342   1.250   6.696 -0.6414 -0.4537 -0.6392
  576MOL0     C77634   1.471   1.271   6.636 -0.4055 -0.4980  0.9212
  576MOL0     C77635   1.560   1.148   6.634  0.5187  0.3729  0.2361
  576MOL0     C77636   1.581   1.113   6.776 -1.0919  0.3697 -0.2000
  576MOL0     C77637   1.702   1.026   6.784  0.5313 -0.1318  0.3812
  576MOL0     C77638   1.751   0.993   6.926 -0.1492  0.4185 -0.4813
  576MOL0     C77639   1.680   0.869   6.993 -0.0459 -0.1481  0.0669
  576MOL0     C77640   1.757   0.812   7.113 -0.2753 -0.2121 -0.3331
  576MOL0     C77641   1.693   0.689   7.170  0.0053 -0.2785  0.5046
  576MOL0     N77642   1.702   0.571   7.078 -0.1081  0.0194  0.0590
  576MOL0     C77643   1.604   0.483   7.067 -1.0644 -0.3240  0.9456
  576MOL0     C77644   1.648   0.386   6.984 -0.3221 -0.1805  0.0403
  576MOL0     C77645   1.587   0.258   6.935 -0.1524  0.7537 -0.4303
  576MOL0     C77646   1.657   0.141   7.003  0.6169  0.2601 -0.0467
  576MOL0     C77647   1.603   0.021   6.928 -0.4377  0.1956 -0.4433
  576MOL0     C77648   1.678  -0.100   6.986  0.6264 -0.0051 -0.1647
  576MOL0     O77649   1.602  -0.227   6.972 -0.9647  0.7967 -0.4178
  576MOL0     C77650   1.489  -0.243   7.046  0.5468 -0.3879 -1.1683
  576MOL0     C77651   1.409  -0.343   7.012 -0.6129 -1.3256 -0.5088
  576MOL0     C77652   1.287  -0.360   7.092 -0.6189  0.3685 -0.1870
  576MOL0     C77653   1.246  -0.271   7.195 -1.4939  0.0071  0.7995
  576MOL0     C77654   1.124  -0.287   7.268 -0.6887  0.1885  0.0658
  576MOL0     O77655   1.075  -0.186   7.352  0.7377 -0.2018 -0.3717
  576MOL0     C77656   0.956  -0.204   7.410  0.6233  0.7525 -0.2337
  576MOL0     C77657   0.850  -0.113   7.382  0.1304 -0.6716 -0.5707
  576MOL0     C77658   0.723  -0.134   7.442 -0.4035 -0.2888  1.2340
  576MOL0     C77659   0.697  -0.251   7.519 -1.1940 -0.2154 -0.1250
  576MOL0     O77660   0.585  -0.275   7.590  0.2507 -0.4933 -0.1537
  576MOL0     C77661   0.493  -0.168   7.612 -0.7984  0.7873 -0.0150
  576MOL0     C77662   0.392  -0.152   7.512  1.7291 -0.5894  0.0375
  576MOL0     C77663   0.260  -0.233   7.519  0.0846 -0.0568 -0.1611
  576MOL0     C77664   0.273  -0.345   7.420 -0.1696 -0.8738 -0.1869
  576MOL0     C77665   0.178  -0.467   7.455 -0.6151 -0.5206 -0.0340
  576MOL0     C77666   0.032  -0.430   7.502 -0.0262  0.1995 -0.6069
  576MOL0     C77667  -0.060  -0.539   7.544  0.1300 -1.5666  0.2728
  576MOL0     C77668  -0.092  -0.628   7.415 -0.3246  1.4093  0.1490
  576MOL0    Cl77669  -0.207  -0.765   7.480  0.1720  0.2436 -0.4473
  576MOL0     C77670   0.805  -0.334   7.558 -0.1604 -0.5014 -0.5255
  576MOL0     C77671   0.929  -0.309   7.501 -0.0340  0.5298  0.1162
  576MOL0     O77672   1.067  -0.397   7.248 -0.4116  0.0440  1.0121
  576MOL0     C77673   1.330  -0.161   7.213 -0.0802 -0.0711  0.0853
  576MOL0     C77674   1.451  -0.150   7.154 -0.8972 -0.2652  0.7470
  576MOL0     N77675   1.783   0.426   6.951  0.6275 -0.1229 -0.8869
  576MOL0     N77676   1.815   0.540   7.011  0.3418 -0.3469 -0.1965
  576MOL0     C77677   1.202   1.398   6.565  0.6678  0.4855 -0.3632
  576MOL0     C77678   1.094   1.483   6.565  0.9093 -0.6315  0.4540
  576MOL0     C77679   0.682   1.624   6.731 -0.3417 -0.0720 -0.4562
  576MOL0     C77680   0.619   1.505   6.690  0.2963  0.3101 -0.4615
  576MOL0     C77681   0.487   1.496   6.673  0.8499 -0.1542 -0.6365
  576MOL0     C77682   0.401   1.610   6.690 -0.3326  0.5757 -0.2601
  576MOL0     O77683   0.274   1.582   6.677 -0.1785  0.0775  0.4001
  576MOL0     C77684   0.197   1.681   6.613 -1.0893 -1.0285 -0.9851
  576MOL0     C77685   0.067   1.631   6.554 -0.7240 -0.3063 -0.6064
  576MOL0     C77686   0.079   1.492   6.480 -0.6330 -1.2965 -1.1424
  576MOL0     C77687  -0.052   1.457   6.406  0.0368  0.8401  0.5932
  576MOL0     C77688  -0.120   1.351   6.484 -1.1317  0.3340  0.8736
  576MOL0     C77689  -0.165   1.260   6.550 -0.5347 -0.7795 -0.2669
  576MOL0     C77690   0.455   1.721   6.752  0.0625 -1.5425  1.3112
  576MOL0     C77691   0.597   1.730   6.765 -0.1504  0.1900  0.1364
  576MOL0     C77692   0.644   1.861   6.821  0.2508 -0.2866  0.0212
  576MOL0     H77693   0.981   1.435   6.883 -0.2089 -1.0875 -0.7590
  576MOL0     H77694   1.183   1.303   6.892 -1.2913  2.8548  2.6619
  576MOL0     H77695   1.462   1.313   6.535  0.3151  0.9050  1.4133
  576MOL0     H77696   1.514   1.362   6.679 -0.1584  0.5413 -1.3405
  576MOL0     H77697   1.649   1.197   6.593 -1.6388  2.1299 -2.7153
  576MOL0     H77698   1.517   1.074   6.567 -2.0736  1.2742  0.7534
  576MOL0     H77699   1.513   1.035   6.815 -1.2419  1.5264  2.0505
  576MOL0     H77700   1.577   1.206   6.833 -0.7402  2.0017 -2.7273
  576MOL0     H77701   1.695   0.937   6.721 -0.6487  0.7590 -0.8043
  576MOL0     H77702   1.784   1.083   6.740 -0.7650  0.0820 -1.9196
  576MOL0     H77703   1.858   0.974   6.915 -0.6893 -1.2416 -4.3020
  576MOL0     H77704   1.748   1.084   6.987  5.3514  2.9015 -3.1581
  576MOL0     H77705   1.577   0.891   7.021  0.2892  0.1355  1.1324
  576MOL0     H77706   1.677   0.795   6.912  1.2966  0.8650 -0.9614
  576MOL0     H77707   1.789   0.893   7.180  1.8670 -1.4292  0.2183
  576MOL0     H77708   1.857   0.777   7.087  0.8734  0.1125  3.1460
  576MOL0     H77709   1.739   0.662   7.266  0.1953 -2.6556 -0.1980
  576MOL0     H77710   1.584   0.699   7.181 -0.4348 -0.4490 -2.6696
  576MOL0     H77711   1.520   0.482   7.135 -0.7134  0.3979  1.4064
  576MOL0     H77712   1.480   0.257   6.952  0.1996 -0.5332  2.0595
  576MOL0     H77713   1.592   0.261   6.825  0.9646  0.8061 -0.3985
  576MOL0     H77714   1.766   0.137   6.992  0.5034 -1.6636 -0.9042
  576MOL0     H77715   1.628   0.134   7.108  2.7767 -2.0444  0.4940
  576MOL0     H77716   1.624   0.031   6.821 -2.3815 -1.2715 -1.0150
  576MOL0     H77717   1.494   0.027   6.937 -0.2628  0.6805  1.8868
  576MOL0     H77718   1.688  -0.072   7.092  1.4920 -0.8594 -0.0134
  576MOL0     H77719   1.775  -0.122   6.941  0.3534 -1.0472 -0.2707
  576MOL0     H77720   1.433  -0.409   6.929  0.9258 -1.2011 -0.1918
  576MOL0     H77721   1.228  -0.444   7.058  2.0336 -0.8868 -1.9731
  576MOL0     H77722   0.867  -0.039   7.305  0.2752 -1.5306 -1.3911
  576MOL0     H77723   0.638  -0.070   7.418  0.2168  0.5399  1.1889
  576MOL0     H77724   0.444  -0.188   7.707  1.0701 -6.5188 -0.0558
  576MOL0     H77725   0.556  -0.079   7.620 -0.4344  0.4835  0.5027
  576MOL0     H77726   0.362  -0.047   7.513 -3.1418 -1.7523  0.7688
  576MOL0     H77727   0.433  -0.165   7.412  2.4446 -0.5322  0.3211
  576MOL0     H77728   0.232  -0.283   7.612  0.4773 -0.5532 -0.3065
  576MOL0     H77729   0.183  -0.161   7.490  1.2333  1.2556 -0.0513
  576MOL0     H77730   0.373  -0.388   7.428 -1.3963 -3.7767  1.5096
  576MOL0     H77731   0.235  -0.305   7.326  0.9180 -1.2281 -0.7869
  576MOL0     H77732   0.228  -0.512   7.541 -0.0681 -1.3650 -0.7886
  576MOL0     H77733   0.172  -0.543   7.377 -0.7850 -1.0805  0.5130
  576MOL0     H77734   0.030  -0.365   7.591 -3.2031  0.3136 -0.6717
  576MOL0     H77735  -0.012  -0.363   7.428  0.8023  1.7952  0.2549
  576MOL0     H77736  -0.157  -0.496   7.566  1.6022  3.0462 -1.1174
  576MOL0     H77737  -0.018  -0.596   7.628  1.9859 -1.0810 -0.2735
  576MOL0     H77738  -0.129  -0.572   7.328 -2.2942  2.0023  1.2922
  576MOL0     H77739   0.001  -0.683   7.400 -1.6341 -1.0358  0.3885
  576MOL0     H77740   0.772  -0.422   7.611 -0.0263 -1.0989 -1.4231
  576MOL0     H77741   1.008  -0.379   7.524 -0.4590  0.2984  0.9066
  576MOL0     H77742   1.293  -0.088   7.284 -2.4305 -0.3630 -0.7212
  576MOL0     H77743   1.497  -0.061   7.196 -0.3181 -0.2659  0.1233
  576MOL0     H77744   1.263   1.375   6.479  0.7777 -1.6382  0.2309
  576MOL0     H77745   1.068   1.529   6.470 -0.4168  0.1163  1.1457
  576MOL0     H77746   0.670   1.412   6.668 -2.9632 -1.5320 -0.7990
  576MOL0     H77747   0.433   1.404   6.649  0.5495  0.2003 -1.3402
  576MOL0     H77748   0.252   1.727   6.531 -0.0306  0.7649  0.6433
  576MOL0     H77749   0.182   1.770   6.674  0.1158 -0.3096 -1.6989
  576MOL0     H77750   0.023   1.704   6.486 -0.1500  2.1549  1.4965
  576MOL0     H77751  -0.006   1.608   6.632  0.5539  1.1774  1.1357
  576MOL0     H77752   0.113   1.411   6.545  3.9817  0.7594 -0.6326
  576MOL0     H77753   0.159   1.505   6.406 -1.1963 -0.1406 -1.5649
  576MOL0     H77754  -0.117   1.544   6.392 -0.5968  0.0908 -1.4533
  576MOL0     H77755  -0.028   1.414   6.309  1.2769  2.1686  0.2776
  576MOL0     H77756  -0.212   1.181   6.604  2.0433 -1.2974  1.4118
  576MOL0     H77757   0.395   1.797   6.801 -0.8306 -1.7476  0.5498
  576MOL0     H77758   0.722   1.852   6.898 -1.6077  0.1268  2.0422
  576MOL0     H77759   0.671   1.922   6.734  1.0819 -0.9457 -0.1957
  576MOL0     H77760   0.568   1.910   6.882  0.7967 -0.2842  0.7160
  577MOL0     O77761   0.915   6.509   7.634  0.9777 -0.0883  0.8235
  577MOL0     C77762   1.031   6.501   7.598 -0.0080  0.0341  1.0468
  577MOL0     O77763   1.108   6.387   7.574  0.6082 -0.0265  0.1758
  577MOL0     C77764   1.043   6.262   7.564  0.4003 -0.0941  0.9072
  577MOL0     C77765   0.958   6.219   7.666  0.0665 -0.0233  0.1466
  577MOL0     C77766   0.911   6.088   7.660  0.3371  0.3743  0.1700
  577MOL0     C77767   0.940   6.004   7.552 -0.2262  0.1886 -0.1462
  577MOL0     O77768   0.884   5.871   7.548 -0.2320 -0.2623  0.4792
  577MOL0     C77769   0.768   5.841   7.620 -0.4842 -0.6887 -1.6069
  577MOL0     C77770   0.788   5.796   7.764 -0.0292  0.4709  0.9904
  577MOL0     C77771   0.650   5.797   7.830  0.2531 -0.1234 -0.6126
  577MOL0     C77772   0.675   5.796   7.985  0.5943  0.0384 -0.2873
  577MOL0     C77773   0.549   5.777   8.085 -0.2962  0.0529  0.3809
  577MOL0     C77774   0.450   5.904   8.086  0.0129 -0.9177  0.3099
  577MOL0     C77775   0.365   5.922   8.219  0.0067  0.5573 -0.4445
  577MOL0     C77776   0.438   6.000   8.334  0.1617 -0.0006  0.1226
  577MOL0     N77777   0.403   6.140   8.349 -0.6139  0.0813 -0.1756
  577MOL0     C77778   0.373   6.229   8.245 -0.9278 -0.1809  0.0026
  577MOL0     C77779   0.348   6.347   8.308 -0.9570 -0.3070 -0.1047
  577MOL0     C77780   0.332   6.472   8.227  0.5528 -0.5800  0.4698
  577MOL0     C77781   0.211   6.474   8.124 -0.9365 -0.5599  0.5622
  577MOL0     C77782   0.078   6.488   8.193 -0.1237 -0.7836  0.0367
  577MOL0     C77783  -0.017   6.373   8.213  0.8091  0.6878  0.6179
  577MOL0     O77784  -0.116   6.397   8.312  0.5552  0.2881  0.5419
  577MOL0     C77785  -0.077   6.410   8.444 -0.3389 -0.3409 -0.4830
  577MOL0     C77786  -0.148   6.502   8.515  0.0008  0.5558  0.7331
  577MOL0     C77787  -0.108   6.526   8.647  0.0081  0.8160  0.1862
  577MOL0     C77788  -0.014   6.444   8.713 -0.4690  0.4894 -0.4643
  577MOL0     C77789   0.032   6.478   8.844  0.8592 -0.5042  0.1990
  577MOL0     O77790   0.145   6.426   8.901  1.1261 -0.3688  0.9037
  577MOL0     C77791   0.172   6.467   9.026  0.2195 -0.6838 -1.0602
  577MOL0     C77792   0.132   6.385   9.132  0.1629  0.4703 -0.3396
  577MOL0     C77793   0.164   6.420   9.267  0.3227  0.9875  0.6139
  577MOL0     C77794   0.255   6.530   9.290  0.0076 -0.0021 -0.0015
  577MOL0     O77795   0.289   6.577   9.413 -0.4944  0.4235 -0.0194
  577MOL0     C77796   0.232   6.508   9.527  0.1941  0.4956  0.0442
  577MOL0     C77797   0.263   6.576   9.662 -0.6046 -0.0384 -0.4820
  577MOL0     C77798   0.149   6.597   9.759 -0.2989  0.4727  0.1772
  577MOL0     C77799   0.207   6.649   9.889 -1.3027  0.5270  0.2162
  577MOL0     C77800   0.093   6.680   9.984  0.2605  0.0679  1.2791
  577MOL0     C77801   0.146   6.741  10.108  0.0524  0.6295 -0.5574
  577MOL0     C77802   0.040   6.785  10.200  0.3870 -0.0175 -0.1087
  577MOL0     C77803  -0.059   6.674  10.233 -0.5372 -0.0386  0.0061
  577MOL0    Cl77804  -0.151   6.724  10.373 -0.1369  0.3604 -0.5858
  577MOL0     C77805   0.284   6.615   9.186 -1.0411 -0.1088  0.8060
  577MOL0     C77806   0.241   6.584   9.053 -0.3350  0.8999 -0.6600
  577MOL0     O77807  -0.036   6.566   8.899 -0.2939  0.4586 -0.8429
  577MOL0     C77808   0.055   6.347   8.636 -0.4714  0.7791  0.4630
  577MOL0     C77809   0.018   6.320   8.502  1.1875 -0.2619  0.5363
  577MOL0     N77810   0.362   6.328   8.447 -1.0578 -0.1521  0.2047
  577MOL0     N77811   0.390   6.201   8.468 -0.4242 -0.8449  0.0185
  577MOL0     C77812   1.028   6.041   7.451  0.9459 -0.0736 -0.1688
  577MOL0     C77813   1.083   6.170   7.462  1.1208 -0.7007 -0.7399
  577MOL0     C77814   1.116   6.619   7.564  0.2103  0.3021 -0.2768
  577MOL0     C77815   1.154   6.625   7.429  0.6587 -0.1158 -0.2830
  577MOL0     C77816   1.214   6.744   7.376  0.0229  0.9515 -0.5156
  577MOL0     C77817   1.233   6.850   7.458 -0.6307 -0.3266  0.2006
  577MOL0     O77818   1.310   6.952   7.402  0.4968 -0.7005  0.0702
  577MOL0     C77819   1.345   7.061   7.489 -0.8317  0.1087 -0.1409
  577MOL0     C77820   1.432   7.158   7.414 -0.0460  0.0481 -1.2870
  577MOL0     C77821   1.574   7.096   7.387  0.2978  0.2238 -0.4984
  577MOL0     C77822   1.671   7.098   7.502 -0.5910 -0.0463 -0.7652
  577MOL0     C77823   1.698   7.233   7.540 -0.4610 -0.2207  0.2936
  577MOL0     C77824   1.735   7.341   7.573 -0.4470  0.1790 -0.3131
  577MOL0     C77825   1.209   6.828   7.598 -0.2434  0.0034 -0.1468
  577MOL0     C77826   1.150   6.720   7.655  1.1347  0.9590  0.3500
  577MOL0     C77827   1.127   6.709   7.807 -0.1013  0.4910 -1.0449
  577MOL0     H77828   0.953   6.273   7.760 -1.9464  2.3988 -1.2261
  577MOL0     H77829   0.854   6.065   7.749 -0.3354  1.0929 -0.0632
  577MOL0     H77830   0.694   5.919   7.597  1.1434  0.9958 -1.3144
  577MOL0     H77831   0.712   5.761   7.570 -1.6494 -1.8136  1.2410
  577MOL0     H77832   0.866   5.857   7.811 -0.0918 -0.9319  3.0652
  577MOL0     H77833   0.834   5.697   7.773  2.5961  1.4533 -0.4592
  577MOL0     H77834   0.596   5.706   7.800  3.5217 -2.3097 -0.3210
  577MOL0     H77835   0.579   5.874   7.800 -0.1815  0.4865  1.7744
  577MOL0     H77836   0.741   5.712   8.007 -0.7793 -1.2644 -0.9148
  577MOL0     H77837   0.712   5.897   8.005  0.9025  0.2896 -1.9731
  577MOL0     H77838   0.500   5.685   8.053  3.3575 -1.8838 -0.2622
  577MOL0     H77839   0.598   5.757   8.181 -1.5535 -1.2156  0.7824
  577MOL0     H77840   0.494   5.999   8.055  1.8060 -2.5411 -2.5199
  577MOL0     H77841   0.389   5.879   7.998  1.9505  2.7305 -2.3015
  577MOL0     H77842   0.346   5.816   8.242  1.0048  0.3195 -0.6722
  577MOL0     H77843   0.268   5.968   8.199 -0.1994  0.2698 -0.1264
  577MOL0     H77844   0.421   5.956   8.433  1.5424 -0.1701  0.2975
  577MOL0     H77845   0.547   6.005   8.323  0.3471  5.3210  1.5956
  577MOL0     H77846   0.375   6.198   8.141  2.9655 -0.5959  0.0737
  577MOL0     H77847   0.316   6.560   8.289 -2.5615 -1.4319  1.0245
  577MOL0     H77848   0.426   6.491   8.173 -0.1017  1.7777  0.0540
  577MOL0     H77849   0.228   6.563   8.062  0.7954 -2.1669 -1.4273
  577MOL0     H77850   0.220   6.390   8.055 -0.1962 -0.0164 -0.0253
  577MOL0     H77851   0.023   6.557   8.128  0.4267 -1.3123 -1.0092
  577MOL0     H77852   0.095   6.531   8.293 -4.2269 -1.5464  1.2511
  577MOL0     H77853   0.054   6.296   8.244  0.7873  0.1836 -0.5088
  577MOL0     H77854  -0.066   6.334   8.123 -0.3038  2.3521  0.4525
  577MOL0     H77855  -0.230   6.551   8.463  0.6150 -0.0989 -0.9076
  577MOL0     H77856  -0.161   6.600   8.707 -0.1953  1.0396 -0.2686
  577MOL0     H77857   0.066   6.302   9.110 -1.1890  0.9559  1.5470
  577MOL0     H77858   0.123   6.350   9.339  0.2046  0.3900 -0.0197
  577MOL0     H77859   0.123   6.492   9.531 -0.1909  3.0073  1.3217
  577MOL0     H77860   0.280   6.411   9.542 -1.0218  0.1124  1.7481
  577MOL0     H77861   0.330   6.505   9.712  1.0298 -0.4935 -3.1640
  577MOL0     H77862   0.307   6.675   9.647 -0.1065  0.4397  3.1601
  577MOL0     H77863   0.073   6.662   9.715 -2.0930 -2.7267 -1.8891
  577MOL0     H77864   0.107   6.498   9.779  2.3534 -0.8663 -0.4786
  577MOL0     H77865   0.263   6.738   9.859 -0.2369  0.5069  1.9912
  577MOL0     H77866   0.279   6.583   9.939 -1.8946  1.5273  2.5131
  577MOL0     H77867   0.038   6.587  10.003  0.1003 -0.2781 -0.7306
  577MOL0     H77868   0.013   6.738   9.938 -0.7297 -1.2398  1.3193
  577MOL0     H77869   0.212   6.670  10.159 -2.2699 -2.2026 -1.2153
  577MOL0     H77870   0.209   6.825  10.077 -1.0004  2.2148  1.4173
  577MOL0     H77871  -0.006   6.879  10.168  1.4354  0.7906  0.6815
  577MOL0     H77872   0.083   6.805  10.299  0.9668 -1.1389 -0.1202
  577MOL0     H77873  -0.124   6.666  10.145  1.0901 -0.5984 -1.1902
  577MOL0     H77874  -0.011   6.577  10.251  2.1227  1.7137  3.9572
  577MOL0     H77875   0.333   6.706   9.220 -0.9557  0.4008 -0.6060
  577MOL0     H77876   0.267   6.647   8.968 -0.3381  2.2524  0.3016
  577MOL0     H77877   0.136   6.280   8.665 -2.2632 -2.2532 -1.1228
  577MOL0     H77878   0.060   6.237   8.445 -1.4860 -1.1762 -0.2658
  577MOL0     H77879   1.051   5.981   7.364  2.9304 -1.0136  0.9464
  577MOL0     H77880   1.163   6.223   7.411  0.5477  4.8761  3.1666
  577MOL0     H77881   1.134   6.554   7.349 -0.5910  0.4220 -0.4699
  577MOL0     H77882   1.238   6.751   7.271  0.1633  1.3418 -0.4583
  577MOL0     H77883   1.403   7.017   7.571 -1.8391 -1.5766 -0.2976
  577MOL0     H77884   1.246   7.100   7.514 -1.1374 -1.3302  0.9942
  577MOL0     H77885   1.439   7.258   7.459 -4.0880  1.7237 -3.8397
  577MOL0     H77886   1.377   7.187   7.325 -0.3483  0.1328 -1.0724
  577MOL0     H77887   1.620   7.146   7.301  1.8886 -1.3216 -0.6000
  577MOL0     H77888   1.564   6.994   7.349  2.1777  1.7268 -6.0477
  577MOL0     H77889   1.637   7.050   7.595  0.7286  0.4058 -0.0253
  577MOL0     H77890   1.754   7.031   7.478  0.8168  0.8883  1.2129
  577MOL0     H77891   1.740   7.444   7.603  1.4398  0.3428 -1.0235
  577MOL0     H77892   1.239   6.904   7.669  1.7469 -0.9306  0.0666
  577MOL0     H77893   1.075   6.614   7.828  3.6122 -1.7584 -1.1002
  577MOL0     H77894   1.217   6.709   7.869 -2.4708 -1.5542  2.8128
  577MOL0     H77895   1.064   6.792   7.839 -0.6809 -0.6014  0.7960
  578MOL0     O77896   2.717  10.274   7.475 -0.2195 -0.0193 -0.7662
  578MOL0     C77897   2.817  10.336   7.423 -0.8959  0.4342 -0.3589
  578MOL0     O77898   2.822  10.385   7.298 -0.0623  0.2605 -0.1218
  578MOL0     C77899   2.711  10.353   7.220 -1.4821  0.3402  0.2592
  578MOL0     C77900   2.609  10.438   7.192 -1.0322  0.1508  0.4753
  578MOL0     C77901   2.507  10.379   7.110  0.8661 -0.4685 -0.1623
  578MOL0     C77902   2.490  10.247   7.086  0.6867  0.1153  0.4256
  578MOL0     O77903   2.382  10.206   7.017  0.6546  0.3182  0.1155
  578MOL0     C77904   2.397  10.142   6.887 -0.0341 -0.8646 -0.5316
  578MOL0     C77905   2.289  10.207   6.794 -1.1746 -0.7125 -0.6167
  578MOL0     C77906   2.286  10.156   6.650 -0.1336 -0.4780  0.3408
  578MOL0     C77907   2.256  10.006   6.619 -0.0119  0.7186  0.1867
  578MOL0     C77908   2.304   9.934   6.485  0.1730 -0.0788  0.1478
  578MOL0     C77909   2.285  10.028   6.357  0.8401 -0.5023  0.0775
  578MOL0     C77910   2.310   9.958   6.221  0.3638  0.0984 -0.3979
  578MOL0     C77911   2.191   9.894   6.143  0.4498  0.2478 -0.6004
  578MOL0     N77912   2.148   9.757   6.199 -0.8259  1.0745 -0.1475
  578MOL0     C77913   2.186   9.628   6.161 -0.2963 -0.3735 -0.2004
  578MOL0     C77914   2.105   9.550   6.233  0.1133  0.8940 -0.8000
  578MOL0     C77915   2.103   9.398   6.217 -0.7850  0.3600  0.0654
  578MOL0     C77916   1.983   9.337   6.273  0.1131 -0.0655 -0.4126
  578MOL0     C77917   1.981   9.186   6.252  0.9987  0.0216 -0.0190
  578MOL0     C77918   2.106   9.116   6.309 -0.6840 -0.0573  0.5422
  578MOL0     O77919   2.084   8.975   6.318 -0.3761 -0.0592 -0.7426
  578MOL0     C77920   2.174   8.918   6.408 -0.2561  0.4375  0.7374
  578MOL0     C77921   2.156   8.781   6.388 -0.5963  0.7542 -0.1893
  578MOL0     C77922   2.204   8.689   6.479 -0.2854 -0.0641 -0.5436
  578MOL0     C77923   2.280   8.736   6.581 -0.4759  0.5236  0.3025
  578MOL0     C77924   2.352   8.657   6.681  0.3655 -0.6965 -0.0745
  578MOL0     O77925   2.351   8.711   6.812 -0.0127  0.4389 -0.7041
  578MOL0     C77926   2.395   8.634   6.918  0.0149  1.2037 -0.1645
  578MOL0     C77927   2.317   8.594   7.027  0.5160 -0.3752  0.3195
  578MOL0     C77928   2.364   8.511   7.127  0.1197  0.1904 -0.0662
  578MOL0     C77929   2.507   8.491   7.132 -1.2026 -0.2108 -0.2576
  578MOL0     O77930   2.565   8.402   7.218 -0.0120  0.4771 -0.3854
  578MOL0     C77931   2.482   8.368   7.331 -0.1878  0.2166 -0.1030
  578MOL0     C77932   2.568   8.289   7.429  0.6649 -0.5600  0.1491
  578MOL0     C77933   2.654   8.394   7.508  0.4845  0.0759  0.1746
  578MOL0     C77934   2.755   8.312   7.584  0.2098  0.5109  0.3782
  578MOL0     C77935   2.797   8.394   7.704 -0.9886 -0.1535  0.6451
  578MOL0     C77936   2.898   8.302   7.781 -0.3320 -0.6730 -0.1210
  578MOL0     C77937   2.829   8.207   7.874  0.1554  0.2353 -1.0823
  578MOL0     C77938   2.768   8.064   7.828  0.7405 -0.1025 -0.3371
  578MOL0    Cl77939   2.768   7.960   7.960  0.9202  0.5894  0.1571
  578MOL0     C77940   2.587   8.522   7.022 -0.1341 -0.2809 -0.5481
  578MOL0     C77941   2.528   8.588   6.914 -1.0526  0.3221  0.3465
  578MOL0     O77942   2.399   8.558   6.645  1.0732  0.1808 -0.1163
  578MOL0     C77943   2.307   8.878   6.597  1.3092 -0.5359 -0.0955
  578MOL0     C77944   2.248   8.970   6.509 -0.1622 -0.9051 -0.0907
  578MOL0     N77945   2.016   9.626   6.316 -0.0385 -0.6761 -1.0964
  578MOL0     N77946   2.058   9.750   6.299  0.7599 -0.3873  0.1164
  578MOL0     C77947   2.587  10.163   7.128 -0.4183  0.3626  0.2973
  578MOL0     C77948   2.700  10.212   7.190 -0.1985  0.3468 -0.7112
  578MOL0     C77949   2.944  10.342   7.516 -0.1849  0.0114 -0.4840
  578MOL0     C77950   2.986  10.219   7.568 -0.3473 -0.8336 -0.6673
  578MOL0     C77951   3.118  10.220   7.637  0.2006  0.0875  0.0668
  578MOL0     C77952   3.205  10.324   7.643 -0.0895 -0.7118  0.9863
  578MOL0     O77953   3.322  10.314   7.712  0.4409  0.1133 -0.2861
  578MOL0     C77954   3.319  10.319   7.851 -0.6306 -0.0725 -0.0114
  578MOL0     C77955   3.322  10.463   7.895  0.0490 -0.0166 -0.9221
  578MOL0     C77956   3.319  10.484   8.050 -0.0646  0.2101  0.8641
  578MOL0     C77957   3.337  10.631   8.080  0.8092  0.1542  0.6783
  578MOL0     C77958   3.363  10.649   8.225  0.2354 -0.2897  0.3022
  578MOL0     C77959   3.400  10.674   8.344  0.3117  0.1567  1.1028
  578MOL0     C77960   3.163  10.434   7.572  0.0656 -0.1789 -0.7764
  578MOL0     C77961   3.036  10.453   7.519 -0.2541  0.1167  0.1096
  578MOL0     C77962   2.993  10.586   7.458  0.2839  0.6816  0.9202
  578MOL0     H77963   2.603  10.533   7.245  0.6434  1.4162 -1.4843
  578MOL0     H77964   2.427  10.447   7.082  1.0018 -0.5862 -0.8287
  578MOL0     H77965   2.495  10.180   6.855 -0.0721 -0.1254  0.1828
  578MOL0     H77966   2.385  10.034   6.890 -1.9947 -0.6697  0.5154
  578MOL0     H77967   2.308  10.314   6.793  0.4571 -0.9797 -2.2447
  578MOL0     H77968   2.187  10.197   6.834 -0.9223 -2.3234 -0.2917
  578MOL0     H77969   2.376  10.175   6.591 -0.3834 -0.1965  0.0465
  578MOL0     H77970   2.218  10.216   6.588  0.8314 -3.8394 -4.6147
  578MOL0     H77971   2.303   9.939   6.692  1.7854  0.1668 -1.3759
  578MOL0     H77972   2.147  10.003   6.621 -0.1229  0.0912 -2.8336
  578MOL0     H77973   2.407   9.897   6.479 -0.2941 -1.4743 -5.8825
  578MOL0     H77974   2.237   9.848   6.486  1.3977 -1.1224  2.9994
  578MOL0     H77975   2.185  10.070   6.363 -0.1061 -2.5160 -0.6574
  578MOL0     H77976   2.357  10.107   6.377  0.2203 -0.4494  2.4313
  578MOL0     H77977   2.372   9.869   6.233  1.0333  0.6037 -0.0435
  578MOL0     H77978   2.362  10.028   6.155 -0.4399  0.6152 -0.5028
  578MOL0     H77979   2.107   9.964   6.136  0.6937  0.8105  1.5418
  578MOL0     H77980   2.227   9.880   6.041 -0.5383 -1.0294 -0.8010
  578MOL0     H77981   2.266   9.600   6.092  0.3345 -0.6220  0.6061
  578MOL0     H77982   2.087   9.375   6.111  1.7089 -1.3315 -0.0304
  578MOL0     H77983   2.190   9.345   6.257 -1.6619 -0.7560  0.5520
  578MOL0     H77984   1.975   9.345   6.382 -1.7377 -0.3668 -0.4940
  578MOL0     H77985   1.888   9.379   6.237  0.5781  0.3338 -1.1847
  578MOL0     H77986   1.987   9.167   6.144  0.1415 -1.5795  0.1874
  578MOL0     H77987   1.892   9.130   6.283  1.6982 -3.0178 -2.9225
  578MOL0     H77988   2.112   9.162   6.408  0.4171 -1.2156  1.0305
  578MOL0     H77989   2.206   9.134   6.269  1.4862 -5.9506  2.2971
  578MOL0     H77990   2.109   8.746   6.297  0.2367  0.1084 -0.3774
  578MOL0     H77991   2.194   8.581   6.478 -1.5384  0.0211  0.5549
  578MOL0     H77992   2.212   8.620   7.034 -0.1777 -2.6241 -0.6648
  578MOL0     H77993   2.288   8.470   7.193 -0.1368 -0.6445 -0.8686
  578MOL0     H77994   2.435   8.458   7.373 -2.8105 -1.7299  1.5112
  578MOL0     H77995   2.394   8.307   7.306  0.6506 -2.2537  2.3589
  578MOL0     H77996   2.503   8.228   7.492  1.9829 -3.3470 -1.0292
  578MOL0     H77997   2.626   8.220   7.368 -2.4478 -3.5131  0.2142
  578MOL0     H77998   2.706   8.468   7.446  0.1236  1.1644  1.1260
  578MOL0     H77999   2.586   8.450   7.573 -0.3512  1.5256 -1.8429
  578MOL0     H78000   2.850   8.311   7.531  1.2201 -1.3772  2.0778
  578MOL0     H78001   2.715   8.210   7.591 -0.1753  0.7337  1.8859
  578MOL0     H78002   2.707   8.409   7.764 -1.3958  0.7442 -0.1765
  578MOL0     H78003   2.837   8.494   7.686 -1.6349 -0.2010 -1.2368
  578MOL0     H78004   2.967   8.251   7.713 -1.2892  1.4152 -2.8608
  578MOL0     H78005   2.965   8.368   7.837  0.4651 -0.2000 -1.5763
  578MOL0     H78006   2.742   8.248   7.927 -0.2139  0.2867 -1.7261
  578MOL0     H78007   2.903   8.195   7.953 -2.9170 -0.4516  1.9484
  578MOL0     H78008   2.664   8.075   7.794  0.1085 -1.1340  1.1608
  578MOL0     H78009   2.831   8.018   7.751  1.0683  1.0035 -0.7434
  578MOL0     H78010   2.691   8.507   7.047 -0.4312 -0.0688  0.8535
  578MOL0     H78011   2.597   8.628   6.841 -1.9662 -0.7008 -1.1146
  578MOL0     H78012   2.383   8.914   6.667  3.8686 -1.9866 -1.9506
  578MOL0     H78013   2.253   9.077   6.528  1.9786 -1.4050  2.9586
  578MOL0     H78014   2.592  10.057   7.106 -0.2665  0.7514 -1.7928
  578MOL0     H78015   2.778  10.142   7.215  0.8989  1.0238 -2.1225
  578MOL0     H78016   2.912  10.140   7.571 -1.0232 -0.1997 -0.3762
  578MOL0     H78017   3.146  10.131   7.691  2.1157  0.1775 -0.6879
  578MOL0     H78018   3.410  10.265   7.880 -1.3912 -1.8976 -0.8959
  578MOL0     H78019   3.239  10.255   7.889 -3.4396  1.0043 -3.5490
  578MOL0     H78020   3.238  10.520   7.855  1.3363  1.3150 -1.8630
  578MOL0     H78021   3.411  10.513   7.853 -0.3350 -0.8339 -2.8182
  578MOL0     H78022   3.400  10.431   8.101  1.1000  1.0334 -0.0929
  578MOL0     H78023   3.222  10.437   8.073  0.3307 -0.7298  0.6424
  578MOL0     H78024   3.421  10.674   8.025 -0.3077  0.4030 -0.9103
  578MOL0     H78025   3.244  10.677   8.045 -0.2077 -2.2728 -0.0691
  578MOL0     H78026   3.450  10.706   8.433  1.7717  3.3655 -0.7040
  578MOL0     H78027   3.223  10.525   7.578  2.0879 -1.5512  2.2603
  578MOL0     H78028   2.989  10.590   7.349 -2.7165  1.1086  0.9431
  578MOL0     H78029   2.895  10.597   7.507 -1.3068 -3.1496 -0.9457
  578MOL0     H78030   3.067  10.660   7.488  0.5210 -0.0092  2.1223
  579MOL0     O78031   3.805  10.233   7.834 -0.7514 -0.8601  0.0090
  579MOL0     C78032   3.773  10.317   7.918 -0.6057 -0.0288 -0.2818
  579MOL0     O78033   3.805  10.448   7.915 -0.0086 -0.6785 -0.1393
  579MOL0     C78034   3.876  10.506   7.809 -0.5172 -0.1194  0.8763
  579MOL0     C78035   3.851  10.498   7.669  0.4668  0.3934  0.1135
  579MOL0     C78036   3.911  10.571   7.572 -0.3888 -1.1450 -0.3472
  579MOL0     C78037   4.003  10.668   7.614 -1.1050 -0.4738  0.2969
  579MOL0     O78038   4.076  10.754   7.532  0.1018  0.4311  0.3351
  579MOL0     C78039   4.026  10.782   7.401 -0.8011  0.2387 -0.6233
  579MOL0     C78040   4.145  10.849   7.316  0.1759  0.5437 -0.4152
  579MOL0     C78041   4.169  11.000   7.347 -0.6184 -0.1960 -0.3512
  579MOL0     C78042   4.307  11.035   7.313 -0.9447 -0.0191 -0.7433
  579MOL0     C78043   4.331  11.178   7.353  0.4968 -0.9056  0.1402
  579MOL0     C78044   4.457  11.226   7.282  0.0688  0.1285  0.4414
  579MOL0     C78045   4.476  11.377   7.302 -0.5376 -0.0921 -0.6213
  579MOL0     C78046   4.391  11.472   7.212 -0.4035 -0.4945 -0.0528
  579MOL0     N78047   4.368  11.435   7.074 -0.1549  1.3207 -0.1193
  579MOL0     C78048   4.255  11.374   7.029 -0.2993 -0.6065  0.2699
  579MOL0     C78049   4.276  11.349   6.894 -0.2903  0.8727  0.0628
  579MOL0     C78050   4.185  11.255   6.811  0.3483 -0.0752  0.5663
  579MOL0     C78051   4.125  11.330   6.688 -0.4495  0.0172 -0.6821
  579MOL0     C78052   4.030  11.239   6.612  0.0455 -0.7496 -0.2070
  579MOL0     C78053   3.965  11.313   6.503  0.6793 -0.5182  0.5238
  579MOL0     O78054   3.901  11.221   6.413 -0.0218  0.9210 -0.3704
  579MOL0     C78055   3.896  11.247   6.276  0.6308  0.3092 -0.6707
  579MOL0     C78056   3.876  11.143   6.194  0.5232 -0.0338 -0.2158
  579MOL0     C78057   3.859  11.166   6.056  0.5288  0.7391  0.9912
  579MOL0     C78058   3.890  11.288   5.990  0.7474  0.7322 -0.1503
  579MOL0     C78059   3.861  11.300   5.841  0.2874  0.0014  1.0193
  579MOL0     O78060   3.883  11.427   5.784 -0.7682 -0.3842  0.4083
  579MOL0     C78061   3.835  11.442   5.656 -0.0995  0.4901  0.1928
  579MOL0     C78062   3.697  11.479   5.635  0.2529  0.5113  0.7716
  579MOL0     C78063   3.663  11.505   5.501 -0.1115 -0.1570 -0.0992
  579MOL0     C78064   3.735  11.477   5.396 -0.7570  0.3252  0.0658
  579MOL0     O78065   3.679  11.486   5.275 -0.0222  0.2255 -0.0462
  579MOL0     C78066   3.744  11.518   5.153 -0.8423  0.2830  0.7370
  579MOL0     C78067   3.684  11.457   5.028 -0.0709 -0.1559  0.2761
  579MOL0     C78068   3.652  11.306   5.037 -1.3206  0.6013  0.1562
  579MOL0     C78069   3.644  11.234   4.904  0.2482 -0.7989  0.7728
  579MOL0     C78070   3.576  11.097   4.936  0.1300 -0.0659  0.7161
  579MOL0     C78071   3.668  10.996   4.988 -0.7583  0.3509  0.0356
  579MOL0     C78072   3.596  10.867   5.015  0.8996 -0.9140  1.2313
  579MOL0     C78073   3.525  10.870   5.149  0.2177 -0.3995 -0.2217
  579MOL0    Cl78074   3.349  10.859   5.124  0.0612 -0.0010 -0.4877
  579MOL0     C78075   3.870  11.442   5.417 -0.0632  0.0715  0.5847
  579MOL0     C78076   3.921  11.431   5.551 -1.7174 -0.4546 -0.1882
  579MOL0     O78077   3.808  11.204   5.778  0.5520 -0.0750 -0.2984
  579MOL0     C78078   3.929  11.388   6.073 -0.4972 -0.2622  0.3621
  579MOL0     C78079   3.919  11.374   6.216 -0.3973  0.6735  0.8593
  579MOL0     N78080   4.401  11.400   6.866  0.3875  1.8031 -0.3626
  579MOL0     N78081   4.458  11.440   6.973  0.3826  0.0248 -0.3141
  579MOL0     C78082   4.039  10.687   7.748  0.0848  0.8711  0.0037
  579MOL0     C78083   3.991  10.593   7.841  0.1358 -0.2617  0.0242
  579MOL0     C78084   3.688  10.270   8.028  0.4274  0.0854 -1.0382
  579MOL0     C78085   3.658  10.137   8.020  0.0433  0.1557  1.2280
  579MOL0     C78086   3.592  10.067   8.119  0.1152 -0.4881 -0.0623
  579MOL0     C78087   3.537  10.132   8.228 -0.7722  0.0887 -0.0199
  579MOL0     O78088   3.466  10.056   8.319  0.0879 -0.0050 -0.8064
  579MOL0     C78089   3.430  10.115   8.450 -0.6154  0.5008 -0.7622
  579MOL0     C78090   3.403  10.007   8.552  0.0600 -0.5711 -0.1630
  579MOL0     C78091   3.272   9.926   8.537 -0.0410 -0.6861 -0.2450
  579MOL0     C78092   3.222   9.901   8.385 -0.4798 -0.2776 -0.5942
  579MOL0     C78093   3.078   9.881   8.379  0.3682  0.2022  0.6457
  579MOL0     C78094   2.956   9.870   8.379  0.0592  0.6096 -0.7583
  579MOL0     C78095   3.554  10.275   8.232  0.7175  0.7479 -0.0113
  579MOL0     C78096   3.638  10.343   8.136  0.4976 -1.1938 -0.6997
  579MOL0     C78097   3.672  10.491   8.153  0.0283  0.4339 -0.5584
  579MOL0     H78098   3.795  10.413   7.630 -0.5466  1.5841 -1.1427
  579MOL0     H78099   3.892  10.550   7.468  0.2857 -0.2256 -0.6652
  579MOL0     H78100   4.015  10.685   7.353  0.7152  0.0032 -0.5533
  579MOL0     H78101   3.930  10.833   7.410 -2.2624 -2.3929 -0.4596
  579MOL0     H78102   4.114  10.843   7.212  2.7277  0.1925 -1.2276
  579MOL0     H78103   4.242  10.799   7.324  0.8937  1.6158 -1.8554
  579MOL0     H78104   4.154  11.012   7.455 -0.4990  1.8672 -0.5398
  579MOL0     H78105   4.103  11.052   7.277  1.3605  2.8477 -0.1019
  579MOL0     H78106   4.378  10.971   7.367  0.1575 -0.7359 -2.8933
  579MOL0     H78107   4.336  11.025   7.208 -1.6260 -2.3491 -0.7779
  579MOL0     H78108   4.245  11.232   7.314 -1.9932 -2.9896  2.3686
  579MOL0     H78109   4.329  11.202   7.460 -2.9253 -0.4720  0.0634
  579MOL0     H78110   4.545  11.179   7.327 -0.5147  0.3848  1.8908
  579MOL0     H78111   4.460  11.202   7.175 -3.2333  2.0093 -0.2143
  579MOL0     H78112   4.580  11.411   7.301 -1.0058  2.1269  3.5753
  579MOL0     H78113   4.463  11.400   7.408  2.0753  1.8283 -0.6317
  579MOL0     H78114   4.297  11.495   7.264  1.1263  0.2368  2.5993
  579MOL0     H78115   4.455  11.560   7.220 -1.3731  0.0491  4.6768
  579MOL0     H78116   4.167  11.367   7.092 -0.5695  0.3308  0.0109
  579MOL0     H78117   4.237  11.164   6.777  2.4948 -0.0058  3.3381
  579MOL0     H78118   4.105  11.226   6.880 -1.9271  1.5392 -1.2592
  579MOL0     H78119   4.081  11.421   6.731 -0.3984 -0.7512  1.0807
  579MOL0     H78120   4.192  11.366   6.609 -0.5417 -1.4480 -1.4500
  579MOL0     H78121   3.955  11.182   6.668 -2.7371  1.3013 -1.5877
  579MOL0     H78122   4.091  11.162   6.565 -0.2918 -1.4701  0.5156
  579MOL0     H78123   4.037  11.371   6.444 -1.9948 -0.3316 -2.9456
  579MOL0     H78124   3.885  11.377   6.541 -0.8541 -0.9215 -1.7519
  579MOL0     H78125   3.862  11.046   6.241  1.2680 -0.9458 -1.7977
  579MOL0     H78126   3.819  11.083   5.998  3.1804 -0.8056  1.1986
  579MOL0     H78127   3.631  11.498   5.719 -1.5815  1.2504 -0.7736
  579MOL0     H78128   3.568  11.547   5.469  0.8890  2.1936 -0.1511
  579MOL0     H78129   3.738  11.625   5.130 -1.6639 -0.4136 -2.8934
  579MOL0     H78130   3.850  11.490   5.159 -1.1818 -1.3021 -0.0135
  579MOL0     H78131   3.599  11.524   5.013  0.7032  1.1453  1.4318
  579MOL0     H78132   3.757  11.475   4.948 -0.6286  1.2817  0.0600
  579MOL0     H78133   3.719  11.250   5.103 -2.9309  0.5694  1.8286
  579MOL0     H78134   3.552  11.303   5.081 -0.7805  0.2086  1.3857
  579MOL0     H78135   3.736  11.229   4.844 -0.7345 -2.5122 -0.7008
  579MOL0     H78136   3.573  11.292   4.844  0.5226 -0.3912  0.8362
  579MOL0     H78137   3.526  11.056   4.848 -0.2786  0.7198  0.5704
  579MOL0     H78138   3.500  11.122   5.010  2.8784 -1.5047  4.2928
  579MOL0     H78139   3.741  10.977   4.909 -2.2242 -1.7035 -0.8973
  579MOL0     H78140   3.724  11.024   5.078 -0.8405 -2.2039  0.9831
  579MOL0     H78141   3.659  10.779   5.005 -0.1734 -1.8944  2.7253
  579MOL0     H78142   3.530  10.846   4.931  1.6147  1.0491  0.1011
  579MOL0     H78143   3.551  10.785   5.212  1.4119 -0.2866 -0.5266
  579MOL0     H78144   3.552  10.960   5.206 -1.9087 -0.4530  0.9720
  579MOL0     H78145   3.924  11.422   5.325 -0.9553  2.4461 -0.5581
  579MOL0     H78146   4.027  11.422   5.570 -1.7633  0.2893  0.4344
  579MOL0     H78147   3.952  11.490   6.042  0.4151 -0.2703  0.9756
  579MOL0     H78148   3.960  11.457   6.273  2.2763 -0.1048  0.2104
  579MOL0     H78149   4.103  10.768   7.784 -0.3571  0.5686  1.5628
  579MOL0     H78150   4.034  10.598   7.940  0.2901  1.0588 -0.0889
  579MOL0     H78151   3.707  10.077   7.944  0.5313  0.8756  0.9671
  579MOL0     H78152   3.576   9.960   8.112 -0.7622 -0.3871  0.2518
  579MOL0     H78153   3.351  10.186   8.429  2.4034  4.7438  0.7735
  579MOL0     H78154   3.515  10.173   8.489 -0.7767  0.2145  0.0481
  579MOL0     H78155   3.388  10.070   8.639 -1.7780 -0.4236 -0.5301
  579MOL0     H78156   3.489   9.940   8.558  1.3179  0.8026 -1.8734
  579MOL0     H78157   3.191   9.984   8.582  1.0664 -1.4423  3.0117
  579MOL0     H78158   3.288   9.836   8.598  2.6821 -0.5695 -0.6333
  579MOL0     H78159   3.235   9.992   8.326  0.5306  0.3267  0.5000
  579MOL0     H78160   3.296   9.829   8.347  2.4324  1.6867  0.9462
  579MOL0     H78161   2.849   9.865   8.389  0.1614 -0.4283 -0.1656
  579MOL0     H78162   3.504  10.333   8.309 -3.1451 -2.8122  0.5188
  579MOL0     H78163   3.775  10.520   8.135  0.4944  0.0221  1.2266
  579MOL0     H78164   3.602  10.555   8.098 -1.9304 -1.8521 -0.8839
  579MOL0     H78165   3.648  10.524   8.255  2.0612  0.8569 -0.1713
  580MOL0     O78166   7.189   3.475   2.855  0.2010  0.5801 -0.0205
  580MOL0     C78167   7.191   3.446   2.738 -0.2167  0.2079  0.1045
  580MOL0     O78168   7.234   3.533   2.638  0.8227 -0.1999  0.8963
  580MOL0     C78169   7.245   3.665   2.670 -0.0091 -0.3527  0.1578
  580MOL0     C78170   7.357   3.726   2.734  0.2281 -0.5973  0.2761
  580MOL0     C78171   7.352   3.859   2.776 -0.7952 -0.0133  0.7855
  580MOL0     C78172   7.241   3.943   2.751 -0.6107 -0.1102 -0.2525
  580MOL0     O78173   7.259   4.066   2.788  0.0840  0.2428  0.0656
  580MOL0     C78174   7.145   4.133   2.836  0.5934  0.1550 -0.2729
  580MOL0     C78175   7.209   4.221   2.939  0.4376  0.7146 -0.6600
  580MOL0     C78176   7.116   4.343   2.956  0.3889  0.4005 -0.2918
  580MOL0     C78177   7.178   4.420   3.067  0.1258 -0.9241  0.2822
  580MOL0     C78178   7.230   4.554   3.019 -0.0995 -0.3916 -0.2770
  580MOL0     C78179   7.235   4.641   3.142  0.1446 -0.1510  1.0364
  580MOL0     C78180   7.279   4.789   3.113 -0.3090 -0.6567  0.3538
  580MOL0     C78181   7.269   4.877   3.230  0.2505 -0.3917  0.0912
  580MOL0     N78182   7.367   4.843   3.326  0.5279 -0.4877  1.0487
  580MOL0     C78183   7.481   4.914   3.322 -0.3556  0.4664 -1.0182
  580MOL0     C78184   7.527   4.897   3.454 -1.2232 -0.1550 -0.2633
  580MOL0     C78185   7.663   4.944   3.500 -0.0020 -0.7159 -0.2532
  580MOL0     C78186   7.756   4.966   3.391 -0.3992 -0.4157  0.2421
  580MOL0     C78187   7.896   4.994   3.453  0.6598  0.2626  0.0749
  580MOL0     C78188   7.993   5.075   3.356 -0.4557  0.0059  0.5803
  580MOL0     O78189   8.043   4.989   3.247 -0.6067 -0.1746  0.1228
  580MOL0     C78190   8.112   5.037   3.143 -0.5869  0.6525  1.0443
  580MOL0     C78191   8.130   4.945   3.027 -0.5271 -0.4474 -0.9231
  580MOL0     C78192   8.207   4.987   2.921  1.2448  1.2346  0.1002
  580MOL0     C78193   8.265   5.115   2.911 -0.4249 -0.1487  0.6808
  580MOL0     C78194   8.319   5.156   2.783  0.6118 -1.1837  0.3884
  580MOL0     O78195   8.327   5.073   2.676  0.2578  0.8342 -0.7930
  580MOL0     C78196   8.352   5.098   2.546 -0.2270 -0.5974 -0.8494
  580MOL0     C78197   8.262   5.159   2.464 -0.3580  0.0426  0.1106
  580MOL0     C78198   8.282   5.172   2.330 -0.5871  0.3850  0.0525
  580MOL0     C78199   8.404   5.117   2.269 -0.1511 -0.0347  0.2631
  580MOL0     O78200   8.414   5.124   2.135  0.1916  0.6058 -0.0463
  580MOL0     C78201   8.547   5.161   2.090 -0.2824 -0.3025  0.2114
  580MOL0     C78202   8.546   5.171   1.932 -0.2488  0.2312 -0.2621
  580MOL0     C78203   8.456   5.279   1.882 -0.1370  1.4845  0.8602
  580MOL0     C78204   8.511   5.414   1.908 -0.0479 -0.1949  0.2842
  580MOL0     C78205   8.390   5.500   1.916 -0.4650 -0.0375 -0.5925
  580MOL0     C78206   8.450   5.644   1.932 -0.0397 -0.8517  0.2455
  580MOL0     C78207   8.345   5.754   1.921 -0.0181 -0.3473  0.0355
  580MOL0     C78208   8.403   5.892   1.959 -0.3966  0.8632 -0.3508
  580MOL0    Cl78209   8.283   6.021   1.938 -0.1043 -0.3904  0.1110
  580MOL0     C78210   8.496   5.066   2.359 -0.6111 -0.2533  1.5087
  580MOL0     C78211   8.466   5.063   2.491 -0.2581  0.2042  0.5551
  580MOL0     O78212   8.358   5.276   2.779 -0.0956 -0.3510 -0.9082
  580MOL0     C78213   8.258   5.194   3.025  0.4935 -0.3505  0.6405
  580MOL0     C78214   8.187   5.155   3.140  0.5507  0.4861  0.2019
  580MOL0     N78215   7.440   4.828   3.533 -0.6856  0.9061 -0.0252
  580MOL0     N78216   7.351   4.787   3.448 -0.1315 -0.1014 -0.9436
  580MOL0     C78217   7.139   3.889   2.674 -0.0582  0.3530 -0.1203
  580MOL0     C78218   7.135   3.755   2.630  0.2081 -0.6635 -0.2780
  580MOL0     C78219   7.163   3.301   2.711 -0.7236 -0.3530 -0.4850
  580MOL0     C78220   7.147   3.204   2.816 -1.0688 -1.0092 -0.6531
  580MOL0     C78221   7.107   3.077   2.788  0.0746 -0.4058  0.2656
  580MOL0     C78222   7.088   3.024   2.661 -0.3113 -0.1847 -0.4366
  580MOL0     O78223   7.045   2.895   2.648 -0.7425  0.3057 -0.1218
  580MOL0     C78224   6.981   2.871   2.525  0.4870 -0.3076 -0.7369
  580MOL0     C78225   7.078   2.804   2.433  0.2747  0.4247 -0.0403
  580MOL0     C78226   7.139   2.670   2.490  0.0667  0.3441 -0.2686
  580MOL0     C78227   7.197   2.613   2.367  0.5009  0.0453  1.3123
  580MOL0     C78228   7.262   2.482   2.395 -0.5494 -2.1075 -0.5994
  580MOL0     C78229   7.320   2.383   2.420 -0.5126 -0.9498 -0.1555
  580MOL0     C78230   7.115   3.116   2.558 -0.7919  0.4197 -0.5870
  580MOL0     C78231   7.146   3.250   2.580 -0.0208  0.0905  0.4100
  580MOL0     C78232   7.146   3.331   2.452  0.2953  0.9341 -0.0059
  580MOL0     H78233   7.453   3.679   2.748  0.7840 -0.5605 -2.7698
  580MOL0     H78234   7.439   3.910   2.816  0.6069  0.8479 -2.9884
  580MOL0     H78235   7.104   4.182   2.747 -1.5017 -1.8932 -0.5343
  580MOL0     H78236   7.079   4.058   2.880  1.5219  1.1630  3.1182
  580MOL0     H78237   7.297   4.267   2.895  0.9321  2.0095  1.5077
  580MOL0     H78238   7.241   4.171   3.031 -1.8943  0.2589 -0.0181
  580MOL0     H78239   7.014   4.318   2.986 -0.4010  0.0076 -3.0293
  580MOL0     H78240   7.107   4.400   2.863 -2.0049 -0.8147 -0.8744
  580MOL0     H78241   7.096   4.436   3.137 -1.1361  1.6095 -1.5780
  580MOL0     H78242   7.263   4.376   3.120  1.3315  1.6247  0.6365
  580MOL0     H78243   7.334   4.553   2.984  1.0991 -0.1783  2.9459
  580MOL0     H78244   7.166   4.610   2.950 -0.3964 -0.0335  0.2741
  580MOL0     H78245   7.138   4.627   3.190  0.2253 -3.2004  0.4945
  580MOL0     H78246   7.303   4.589   3.211  0.6860  0.6351  1.1062
  580MOL0     H78247   7.211   4.819   3.033  0.8057  0.2772 -0.2791
  580MOL0     H78248   7.378   4.803   3.068 -1.2156 -2.7048 -2.5532
  580MOL0     H78249   7.294   4.973   3.184  1.0367  0.5919  2.3935
  580MOL0     H78250   7.173   4.888   3.282  1.6974  2.3464  2.4802
  580MOL0     H78251   7.533   4.952   3.234  1.0242  2.0102  0.3895
  580MOL0     H78252   7.645   5.038   3.552  0.8037  0.8097 -2.5802
  580MOL0     H78253   7.701   4.867   3.567  1.8054 -0.2627 -0.7193
  580MOL0     H78254   7.755   4.875   3.331 -0.3998 -2.4926  3.1684
  580MOL0     H78255   7.717   5.051   3.335  0.5057  1.6319  2.5332
  580MOL0     H78256   7.941   4.908   3.504 -1.4948  0.0078  1.6687
  580MOL0     H78257   7.868   5.060   3.535 -1.7235 -0.0284 -0.4400
  580MOL0     H78258   8.075   5.119   3.414  1.3004 -1.1216 -0.9360
  580MOL0     H78259   7.933   5.154   3.312 -1.7558 -1.8124 -1.0341
  580MOL0     H78260   8.089   4.846   3.043 -0.8569 -0.1073  0.4776
  580MOL0     H78261   8.194   4.921   2.837 -1.8920  2.2861 -0.3767
  580MOL0     H78262   8.167   5.195   2.502  1.6438  4.1240  1.7957
  580MOL0     H78263   8.225   5.233   2.259  2.3194  3.1528 -0.1151
  580MOL0     H78264   8.587   5.259   2.120  0.4215 -0.0738 -1.3535
  580MOL0     H78265   8.623   5.088   2.120  0.3357  0.8997  1.7515
  580MOL0     H78266   8.651   5.177   1.903  0.8785 -1.1454  3.0297
  580MOL0     H78267   8.505   5.079   1.888  0.3030  1.5949 -3.9718
  580MOL0     H78268   8.451   5.277   1.773  2.1151  4.3425  0.5925
  580MOL0     H78269   8.354   5.256   1.915 -0.3409 -1.4775 -1.4176
  580MOL0     H78270   8.577   5.457   1.832  1.9179 -2.3201  0.6854
  580MOL0     H78271   8.568   5.413   2.002  0.2931 -0.1329  0.0774
  580MOL0     H78272   8.325   5.465   1.996 -0.8279 -1.0052 -1.2825
  580MOL0     H78273   8.329   5.500   1.825 -2.8181 -0.0529  0.9055
  580MOL0     H78274   8.492   5.634   2.032 -1.8799 -0.9358  1.0542
  580MOL0     H78275   8.527   5.670   1.859 -1.1680  4.2570  0.4919
  580MOL0     H78276   8.257   5.740   1.984 -1.2374 -1.5907 -1.8341
  580MOL0     H78277   8.314   5.768   1.817  4.2363  2.4768 -1.0936
  580MOL0     H78278   8.429   5.876   2.064  2.2546  2.4026 -0.6701
  580MOL0     H78279   8.498   5.915   1.910  0.5156 -1.0871  0.3995
  580MOL0     H78280   8.591   5.040   2.313 -1.6073  1.9272 -2.1776
  580MOL0     H78281   8.559   5.052   2.545  1.5218  0.5561 -2.2254
  580MOL0     H78282   8.317   5.285   3.025  3.0479 -1.9140  0.7124
  580MOL0     H78283   8.173   5.229   3.219 -0.7920 -0.6314  1.0480
  580MOL0     H78284   7.061   3.955   2.638 -0.6444  0.6160  1.5475
  580MOL0     H78285   7.046   3.736   2.571  0.2858  0.9660 -0.9486
  580MOL0     H78286   7.177   3.228   2.918  1.2166 -0.4828 -1.4040
  580MOL0     H78287   7.091   3.017   2.877  1.7842 -1.6782 -0.2320
  580MOL0     H78288   6.942   2.956   2.468 -4.8061 -1.0889  1.1415
  580MOL0     H78289   6.892   2.809   2.543 -1.6099  2.7342  0.1810
  580MOL0     H78290   7.151   2.877   2.397  1.9520  0.6650  3.4706
  580MOL0     H78291   7.016   2.780   2.346 -0.5622 -0.7038  0.8237
  580MOL0     H78292   7.058   2.616   2.540  0.7582 -1.2333 -0.8088
  580MOL0     H78293   7.217   2.702   2.561 -1.3082  3.0927  0.1685
  580MOL0     H78294   7.110   2.580   2.309 -0.9715  0.2997  3.2584
  580MOL0     H78295   7.263   2.681   2.314  0.3840 -0.3048  0.7034
  580MOL0     H78296   7.367   2.289   2.442 -1.3615 -0.9347  1.9841
  580MOL0     H78297   7.104   3.081   2.455 -0.1644  0.8694 -0.8150
  580MOL0     H78298   7.253   3.349   2.436  0.0133  2.2611 -0.4967
  580MOL0     H78299   7.097   3.278   2.370 -2.2422 -0.0883  2.0439
  580MOL0     H78300   7.081   3.417   2.467 -0.4790  0.6723 -1.6341
  581MOL0     O78301   5.234   9.048   9.190 -0.1019 -1.6069 -0.0251
  581MOL0     C78302   5.113   9.024   9.174  0.4580 -0.5872 -0.3515
  581MOL0     O78303   5.007   9.050   9.264  0.7129  0.3934 -0.5947
  581MOL0     C78304   5.038   9.083   9.402 -0.7501  1.1654  0.3469
  581MOL0     C78305   4.942   9.159   9.468  0.8466  1.1671  0.7209
  581MOL0     C78306   4.954   9.199   9.597  0.9403  0.3647  0.2001
  581MOL0     C78307   5.058   9.154   9.675 -0.1400 -0.9352  0.6426
  581MOL0     O78308   5.051   9.189   9.807  0.2776 -0.0265 -0.0670
  581MOL0     C78309   5.141   9.286   9.844 -1.2872 -0.6133  0.3942
  581MOL0     C78310   5.061   9.403   9.904 -0.3165  0.7863  0.2172
  581MOL0     C78311   4.955   9.360  10.003  0.2058  0.1457  0.6907
  581MOL0     C78312   4.926   9.488  10.092 -0.1405  0.3818 -0.3148
  581MOL0     C78313   4.838   9.463  10.214  0.7051  1.8722  0.0357
  581MOL0     C78314   4.690   9.484  10.184 -0.9215 -0.0336 -0.3924
  581MOL0     C78315   4.621   9.507  10.315  0.0280  0.3422  0.1955
  581MOL0     C78316   4.471   9.519  10.294 -0.7589  0.0910 -0.7940
  581MOL0     N78317   4.406   9.531  10.422  0.6355  0.0338 -0.2078
  581MOL0     C78318   4.334   9.432  10.484  0.0360  0.5553 -0.4070
  581MOL0     C78319   4.258   9.490  10.585  0.8280 -0.8704  0.4139
  581MOL0     C78320   4.160   9.419  10.680 -0.1766  0.3546  0.2977
  581MOL0     C78321   4.194   9.452  10.829  0.7327  0.5525 -0.2689
  581MOL0     C78322   4.069   9.443  10.918 -0.2350  0.0790  0.1468
  581MOL0     C78323   4.088   9.488  11.063  0.3376 -0.3031 -0.2424
  581MOL0     O78324   4.084   9.628  11.082  0.1507 -0.5715  0.0162
  581MOL0     C78325   4.194   9.709  11.064 -0.1972  0.5378  0.2509
  581MOL0     C78326   4.319   9.682  11.137  0.8450 -0.8719 -0.1244
  581MOL0     C78327   4.440   9.755  11.117  0.0122 -0.6513 -0.5055
  581MOL0     C78328   4.444   9.859  11.025 -0.6175  0.6210 -0.5572
  581MOL0     C78329   4.563   9.934  11.024 -0.5666  0.5432 -0.5914
  581MOL0     O78330   4.593  10.006  10.910 -0.2544  0.4385  0.3523
  581MOL0     C78331   4.710  10.077  10.900  0.0247  0.1422  0.5592
  581MOL0     C78332   4.718  10.212  10.895 -0.3322 -0.7877 -0.1148
  581MOL0     C78333   4.841  10.266  10.880  0.3694 -0.3630 -0.1060
  581MOL0     C78334   4.961  10.194  10.868 -0.3361 -0.8566  1.1565
  581MOL0     O78335   5.085  10.248  10.844  0.0199  0.7894  0.4160
  581MOL0     C78336   5.111  10.383  10.884 -1.1702 -0.6163 -0.8581
  581MOL0     C78337   5.086  10.485  10.777 -0.3619  0.1393 -0.6953
  581MOL0     C78338   5.123  10.629  10.812  0.1069  0.2405  0.6259
  581MOL0     C78339   5.060  10.687  10.938  0.2728 -0.3218  0.4832
  581MOL0     C78340   5.050  10.835  10.952  0.3835 -0.1762  0.2202
  581MOL0     C78341   5.173  10.918  10.931 -0.3658  0.0733  0.1399
  581MOL0     C78342   5.154  11.072  10.950 -0.1895 -0.3650 -0.0796
  581MOL0     C78343   5.073  11.134  10.833  0.3745 -0.3786 -0.3154
  581MOL0    Cl78344   5.039  11.306  10.881  0.3499  0.3513  0.6203
  581MOL0     C78345   4.955  10.060  10.872  0.8567  0.2319 -0.2185
  581MOL0     C78346   4.827   9.996  10.882 -0.3849 -0.5661 -0.6230
  581MOL0     O78347   4.637   9.923  11.120  0.7147  0.4731 -0.4187
  581MOL0     C78348   4.332   9.878  10.946 -0.1426  0.1683 -0.5094
  581MOL0     C78349   4.207   9.813  10.969 -0.3467 -0.7333 -0.9106
  581MOL0     N78350   4.275   9.630  10.564  0.1232 -0.5195  0.0735
  581MOL0     N78351   4.365   9.657  10.468  0.4875  0.2246  0.0564
  581MOL0     C78352   5.159   9.089   9.612  0.3824 -0.3490  0.8143
  581MOL0     C78353   5.155   9.049   9.473  0.5627  0.8295 -0.6865
  581MOL0     C78354   5.076   8.975   9.033  0.6080 -0.0284  0.2083
  581MOL0     C78355   4.954   9.014   8.985 -0.5067  0.3476  0.2164
  581MOL0     C78356   4.920   8.990   8.848  1.1387  0.7290 -0.3728
  581MOL0     C78357   5.000   8.901   8.772 -0.0486 -0.0365  0.5707
  581MOL0     O78358   4.985   8.881   8.639  0.2980  0.3775  0.5912
  581MOL0     C78359   5.039   8.973   8.539  0.9299 -0.1565  0.9022
  581MOL0     C78360   5.115   9.101   8.593 -0.5994 -0.4419 -0.8055
  581MOL0     C78361   5.140   9.208   8.487  0.4545 -0.3939 -0.7319
  581MOL0     C78362   5.186   9.328   8.563 -0.0893  0.3749  0.7005
  581MOL0     C78363   5.221   9.421   8.454 -0.7062 -0.1514  0.3321
  581MOL0     C78364   5.240   9.514   8.374  0.0042  0.4756  0.1908
  581MOL0     C78365   5.127   8.863   8.827  0.8193 -0.1146  0.0951
  581MOL0     C78366   5.164   8.889   8.960  0.1776  0.3320  0.2655
  581MOL0     C78367   5.285   8.817   9.013  0.2043  0.2369 -0.0106
  581MOL0     H78368   4.859   9.197   9.410  0.0944 -0.8536  0.3759
  581MOL0     H78369   4.883   9.267   9.641 -1.0186  0.6354 -3.0674
  581MOL0     H78370   5.216   9.244   9.911 -0.3784  0.7295  0.2622
  581MOL0     H78371   5.198   9.323   9.758 -3.7705  0.7695 -0.7849
  581MOL0     H78372   5.014   9.455   9.820  1.2899 -0.6958 -1.7106
  581MOL0     H78373   5.134   9.463   9.960  1.0577 -1.4098  0.9018
  581MOL0     H78374   4.981   9.274  10.065  1.0586  0.1252  0.3338
  581MOL0     H78375   4.863   9.319   9.960 -0.1072 -3.4625  4.2079
  581MOL0     H78376   5.023   9.527  10.126 -0.1539 -0.8130  1.2291
  581MOL0     H78377   4.877   9.565  10.032  1.0872  0.5590 -1.1163
  581MOL0     H78378   4.868   9.371  10.264 -0.5382  0.9989 -0.7721
  581MOL0     H78379   4.865   9.545  10.282  2.2183  0.6624  0.9856
  581MOL0     H78380   4.686   9.573  10.121  2.7233  0.8990  0.4388
  581MOL0     H78381   4.647   9.393  10.140  0.5622  0.2420 -2.5590
  581MOL0     H78382   4.663   9.592  10.371 -0.6588 -0.8164  2.6021
  581MOL0     H78383   4.629   9.414  10.372  0.9530  0.4990  0.3467
  581MOL0     H78384   4.460   9.610  10.233 -1.7592 -2.0466 -4.0396
  581MOL0     H78385   4.440   9.432  10.236  0.4013 -0.7856 -0.1266
  581MOL0     H78386   4.346   9.324  10.486  0.9741  0.6597 -0.2313
  581MOL0     H78387   4.057   9.451  10.666  0.3067  2.4547  1.1427
  581MOL0     H78388   4.169   9.310  10.671  1.2501  0.6504 -5.0811
  581MOL0     H78389   4.262   9.378  10.871 -1.8540 -2.2324 -0.5758
  581MOL0     H78390   4.234   9.553  10.836  1.4766  0.2469 -0.0262
  581MOL0     H78391   4.021   9.346  10.906 -0.3725  0.2121 -0.3911
  581MOL0     H78392   4.003   9.526  10.890 -0.2161  1.5594  3.8318
  581MOL0     H78393   4.174   9.436  11.107 -1.0599 -2.6289 -0.1304
  581MOL0     H78394   3.999   9.450  11.113  0.8162 -0.5995  0.4061
  581MOL0     H78395   4.314   9.599  11.207 -2.4140 -0.6295  0.0603
  581MOL0     H78396   4.522   9.727  11.182 -0.5591 -0.2605  0.4054
  581MOL0     H78397   4.625  10.267  10.883  1.0604  2.1776  1.6008
  581MOL0     H78398   4.834  10.374  10.871 -2.8719 -0.5906 -2.0793
  581MOL0     H78399   5.046  10.407  10.969  0.1009 -1.8126  0.5191
  581MOL0     H78400   5.214  10.391  10.920 -2.7833 -0.5558  4.6774
  581MOL0     H78401   5.142  10.460  10.687 -0.1472  0.9265 -0.7936
  581MOL0     H78402   4.979  10.477  10.757 -0.8352  0.1057  1.4943
  581MOL0     H78403   5.230  10.644  10.824  0.5300 -1.7986 -0.1436
  581MOL0     H78404   5.093  10.686  10.723  1.3894  0.9852  0.6534
  581MOL0     H78405   5.125  10.659  11.021 -0.1392 -1.5120  0.4335
  581MOL0     H78406   4.962  10.641  10.957  1.0261 -3.3719 -2.1360
  581MOL0     H78407   5.003  10.854  11.049 -4.1299 -1.2077 -1.4742
  581MOL0     H78408   4.988  10.863  10.865  0.4012 -0.6539  0.0521
  581MOL0     H78409   5.248  10.884  11.003  0.3520  1.2844 -0.0008
  581MOL0     H78410   5.204  10.900  10.828  1.0539 -1.5190  0.8017
  581MOL0     H78411   5.248  11.128  10.942 -1.5595  1.9128 -1.2779
  581MOL0     H78412   5.095  11.091  11.041 -0.6656 -1.0402 -0.2430
  581MOL0     H78413   5.133  11.117  10.743 -0.3687 -1.3465 -0.6437
  581MOL0     H78414   4.982  11.074  10.831  1.3639 -2.0346  1.0989
  581MOL0     H78415   5.044  10.001  10.850 -0.1906 -1.4649 -0.1334
  581MOL0     H78416   4.825   9.888  10.894  1.0950 -0.4733  0.9238
  581MOL0     H78417   4.340   9.958  10.872  1.7131  2.0455  1.5285
  581MOL0     H78418   4.121   9.848  10.912 -1.2782 -1.5559 -0.0569
  581MOL0     H78419   5.238   9.044   9.672  0.9656  0.0637  0.3616
  581MOL0     H78420   5.241   9.000   9.431  0.1499  0.9041 -1.6396
  581MOL0     H78421   4.883   9.062   9.051 -0.8237  0.4956 -0.2242
  581MOL0     H78422   4.826   9.030   8.811  0.7844 -1.2113 -1.7396
  581MOL0     H78423   4.955   9.011   8.481  0.6560  0.8352  1.9024
  581MOL0     H78424   5.109   8.921   8.472  0.6958  1.5872 -0.7762
  581MOL0     H78425   5.213   9.064   8.625 -0.5005  0.9804  0.6833
  581MOL0     H78426   5.055   9.138   8.677 -5.0048 -1.1926 -3.3190
  581MOL0     H78427   5.051   9.234   8.430  1.3817  2.8231 -0.8850
  581MOL0     H78428   5.217   9.170   8.419  1.6177  4.0360 -2.2171
  581MOL0     H78429   5.109   9.366   8.631 -3.2100 -0.2316 -2.2114
  581MOL0     H78430   5.275   9.306   8.622 -0.8675  2.4557  2.7977
  581MOL0     H78431   5.256   9.591   8.302 -2.2678  0.8669  0.0404
  581MOL0     H78432   5.178   8.787   8.769 -1.0568  0.6339 -2.8064
  581MOL0     H78433   5.366   8.889   9.024  0.2108  0.9792 -3.6529
  581MOL0     H78434   5.263   8.766   9.107  1.4515 -0.1197  0.1125
  581MOL0     H78435   5.326   8.737   8.950  2.2383  1.9548 -0.9809
  582MOL0     O78436   4.294   1.938   2.810 -0.3733  0.2700  0.0524
  582MOL0     C78437   4.391   2.011   2.792 -0.3015 -0.1399  0.0723
  582MOL0     O78438   4.389   2.148   2.780 -0.2256  1.0213  0.1584
  582MOL0     C78439   4.273   2.219   2.776 -0.0494  0.6324 -0.2282
  582MOL0     C78440   4.268   2.349   2.815 -0.4465 -0.9898  1.7028
  582MOL0     C78441   4.154   2.432   2.803  0.2717  0.0304  0.0088
  582MOL0     C78442   4.045   2.385   2.728  0.5079 -0.1319  0.3379
  582MOL0     O78443   3.943   2.480   2.716 -0.3478  0.9991  0.1863
  582MOL0     C78444   3.822   2.456   2.634 -0.3302  0.8852 -0.8213
  582MOL0     C78445   3.742   2.585   2.631 -0.8316 -1.0304  0.4469
  582MOL0     C78446   3.626   2.565   2.538  0.5681 -0.1168 -0.2192
  582MOL0     C78447   3.527   2.682   2.547 -0.2325 -0.3301  0.0292
  582MOL0     C78448   3.389   2.650   2.489  0.3451 -0.4943 -0.6336
  582MOL0     C78449   3.323   2.793   2.473 -0.1021 -0.2290 -0.2268
  582MOL0     C78450   3.178   2.764   2.431 -0.4927 -0.1551  0.7930
  582MOL0     C78451   3.096   2.885   2.440  0.0511 -1.3832  0.6430
  582MOL0     N78452   3.148   2.998   2.350 -0.4170  0.3581  0.2224
  582MOL0     C78453   3.155   3.128   2.376  0.9421  0.7564 -0.2508
  582MOL0     C78454   3.221   3.182   2.268 -0.0881 -1.0659  0.8592
  582MOL0     C78455   3.226   3.321   2.230  0.0839  0.0080  0.3215
  582MOL0     C78456   3.100   3.406   2.266  0.2463  0.4113  0.0190
  582MOL0     C78457   2.970   3.372   2.180 -0.1978  0.0158 -0.5541
  582MOL0     C78458   2.856   3.452   2.222  0.7116  0.1850  0.0985
  582MOL0     O78459   2.815   3.426   2.361  0.6427  0.0645  0.4548
  582MOL0     C78460   2.740   3.526   2.409  0.4317 -0.3356 -1.0564
  582MOL0     C78461   2.806   3.639   2.458 -0.2686 -0.1326  0.2868
  582MOL0     C78462   2.729   3.757   2.491 -0.0504  0.9098  0.1876
  582MOL0     C78463   2.592   3.767   2.482 -0.1093 -0.2317  0.5461
  582MOL0     C78464   2.510   3.890   2.517  0.8374  0.4105 -1.3624
  582MOL0     O78465   2.579   4.003   2.551  0.3278  0.1597  0.3779
  582MOL0     C78466   2.522   4.121   2.580  0.6903 -0.8001  0.0270
  582MOL0     C78467   2.528   4.172   2.705  1.1502 -0.5214 -0.3505
  582MOL0     C78468   2.449   4.287   2.741 -0.2046 -1.0651 -0.8295
  582MOL0     C78469   2.370   4.348   2.643 -0.5999  0.0725  0.4206
  582MOL0     O78470   2.293   4.457   2.648 -0.5468 -0.0220 -0.0733
  582MOL0     C78471   2.231   4.494   2.773  0.3886 -0.2964 -0.8168
  582MOL0     C78472   2.110   4.417   2.792 -0.8712  0.4097  0.0460
  582MOL0     C78473   2.002   4.466   2.893 -0.0618 -0.2304 -0.3414
  582MOL0     C78474   2.011   4.413   3.033 -0.0361  0.3301  0.3786
  582MOL0     C78475   2.142   4.424   3.086 -0.8245 -0.4240  0.1685
  582MOL0     C78476   2.155   4.367   3.230 -0.3032  0.6858  0.2838
  582MOL0     C78477   2.116   4.219   3.256 -1.1773  0.4916  1.0177
  582MOL0     C78478   1.984   4.197   3.333 -0.9128 -0.5457  0.0031
  582MOL0    Cl78479   1.988   4.040   3.393  0.3288 -0.1667 -0.1653
  582MOL0     C78480   2.367   4.294   2.511  0.3572 -0.0315  0.5321
  582MOL0     C78481   2.435   4.177   2.482  1.0606  0.2246 -0.8844
  582MOL0     O78482   2.390   3.881   2.515  0.2159  0.1917  0.1601
  582MOL0     C78483   2.533   3.651   2.437  0.3716  0.0818  0.0987
  582MOL0     C78484   2.597   3.530   2.404 -0.9285 -0.5634 -0.6454
  582MOL0     N78485   3.248   3.094   2.176  0.3393  0.5868 -0.1936
  582MOL0     N78486   3.195   2.981   2.222 -0.1321  0.0979 -1.2176
  582MOL0     C78487   4.039   2.246   2.692 -1.1438 -0.2361 -0.2057
  582MOL0     C78488   4.155   2.168   2.716  0.2869  0.3452 -0.2201
  582MOL0     C78489   4.520   1.948   2.779  0.3645  0.4084 -0.5022
  582MOL0     C78490   4.624   2.042   2.747 -0.5159  0.1354 -0.0211
  582MOL0     C78491   4.760   1.995   2.732  0.6514  0.0539  0.3949
  582MOL0     C78492   4.782   1.859   2.734 -0.8569  0.0713  0.0572
  582MOL0     O78493   4.908   1.811   2.723 -0.7839 -0.5980 -0.1105
  582MOL0     C78494   4.992   1.831   2.842  0.1023  0.3071 -0.8586
  582MOL0     C78495   5.107   1.721   2.852  0.0463  0.1657 -0.1304
  582MOL0     C78496   5.243   1.751   2.791 -0.1172  0.0018  0.6434
  582MOL0     C78497   5.326   1.840   2.864 -0.8700 -0.5585 -1.3127
  582MOL0     C78498   5.448   1.883   2.795 -0.0259 -0.3777 -0.2157
  582MOL0     C78499   5.544   1.899   2.725 -0.3129 -1.0279  0.3167
  582MOL0     C78500   4.676   1.773   2.749  0.8017  1.0222 -0.1239
  582MOL0     C78501   4.548   1.808   2.768 -0.2356  0.3028  0.5506
  582MOL0     C78502   4.448   1.707   2.802 -1.1588  0.4690  0.1718
  582MOL0     H78503   4.357   2.397   2.856 -1.3475  1.4416  1.0340
  582MOL0     H78504   4.159   2.533   2.843 -0.0960  0.7125 -1.5607
  582MOL0     H78505   3.848   2.420   2.534  2.6710  2.2803 -0.6678
  582MOL0     H78506   3.755   2.387   2.686  1.6283 -1.6686 -1.4491
  582MOL0     H78507   3.803   2.659   2.579  1.6562 -4.0588 -1.3475
  582MOL0     H78508   3.713   2.629   2.727 -0.4630  0.7325 -0.2066
  582MOL0     H78509   3.575   2.483   2.589  1.2393  1.6210  3.6009
  582MOL0     H78510   3.642   2.553   2.430 -0.4053 -0.5651 -0.3255
  582MOL0     H78511   3.515   2.719   2.649 -0.7459  0.2399 -0.2282
  582MOL0     H78512   3.565   2.764   2.485 -2.1974  0.5175 -0.1350
  582MOL0     H78513   3.406   2.607   2.390  0.9821  0.7374 -1.0905
  582MOL0     H78514   3.325   2.587   2.551  1.6875  1.3730  2.9798
  582MOL0     H78515   3.305   2.843   2.569  0.8653 -0.5919  0.1541
  582MOL0     H78516   3.383   2.863   2.414 -0.7383 -0.1322 -0.7718
  582MOL0     H78517   3.124   2.700   2.501  0.4403 -2.1268 -0.1933
  582MOL0     H78518   3.183   2.711   2.335  2.8450  2.8052 -0.9084
  582MOL0     H78519   2.990   2.865   2.419 -0.6729  2.1288  0.2901
  582MOL0     H78520   3.099   2.918   2.545  1.2653  3.6162 -0.7054
  582MOL0     H78521   3.118   3.188   2.458 -0.1947 -0.7608  0.4139
  582MOL0     H78522   3.315   3.365   2.277 -1.7931  2.4241  1.8607
  582MOL0     H78523   3.242   3.315   2.122 -1.1422 -4.8532  0.1894
  582MOL0     H78524   3.080   3.388   2.372 -1.1166  1.4267 -0.0375
  582MOL0     H78525   3.124   3.511   2.251  0.0618  0.5807  0.8651
  582MOL0     H78526   2.941   3.271   2.210 -0.9916  0.5815  0.6444
  582MOL0     H78527   2.979   3.372   2.071 -0.7640  0.5387 -0.6085
  582MOL0     H78528   2.776   3.433   2.150  0.2987  0.8237  0.3770
  582MOL0     H78529   2.878   3.558   2.205  0.7583  0.2282  0.4258
  582MOL0     H78530   2.914   3.630   2.461 -0.2751 -0.4912 -0.2940
  582MOL0     H78531   2.784   3.840   2.535 -1.4846  1.4999  0.9242
  582MOL0     H78532   2.594   4.116   2.771  1.6759 -1.1116 -1.3465
  582MOL0     H78533   2.451   4.332   2.840 -1.3867 -2.9395  0.0978
  582MOL0     H78534   2.302   4.492   2.857 -1.7446  0.1616  1.0868
  582MOL0     H78535   2.198   4.598   2.766  0.9137 -0.1720 -1.4786
  582MOL0     H78536   2.059   4.409   2.696  0.0408 -2.7999 -0.2762
  582MOL0     H78537   2.140   4.314   2.811  1.3301  0.9994 -0.0134
  582MOL0     H78538   1.996   4.575   2.890  1.6064  0.1622  3.8778
  582MOL0     H78539   1.904   4.436   2.855 -0.6338 -0.1798  1.0668
  582MOL0     H78540   1.978   4.309   3.023 -1.4949  0.6491  1.4574
  582MOL0     H78541   1.939   4.455   3.104  1.8030 -2.4892  4.2930
  582MOL0     H78542   2.178   4.528   3.087 -1.3729 -0.2283  0.9006
  582MOL0     H78543   2.208   4.355   3.034  1.5259 -0.2897  2.6867
  582MOL0     H78544   2.262   4.375   3.249 -0.6179  3.5307  1.4074
  582MOL0     H78545   2.103   4.433   3.300 -1.6329 -0.5908  0.5527
  582MOL0     H78546   2.206   4.171   3.294 -1.1263 -0.8064 -0.6226
  582MOL0     H78547   2.110   4.171   3.158 -3.4674 -0.8802  1.7471
  582MOL0     H78548   1.976   4.270   3.413  0.3249  2.5858 -2.5208
  582MOL0     H78549   1.896   4.211   3.269 -2.9016  2.1213  3.0081
  582MOL0     H78550   2.290   4.335   2.447 -0.3374 -1.9541  0.0834
  582MOL0     H78551   2.425   4.135   2.382 -2.2650  1.1597 -1.0721
  582MOL0     H78552   2.425   3.656   2.429  0.2808  4.1473  1.6198
  582MOL0     H78553   2.535   3.453   2.359 -2.0401 -0.8620  1.2684
  582MOL0     H78554   3.955   2.204   2.638 -0.5437 -0.7923 -0.7285
  582MOL0     H78555   4.156   2.064   2.682 -0.0777  0.1376  0.3879
  582MOL0     H78556   4.628   2.150   2.748  0.6795  0.1192  1.3466
  582MOL0     H78557   4.852   2.049   2.711  0.3352  1.0115  1.3389
  582MOL0     H78558   4.933   1.823   2.933  0.4040 -2.9678 -0.8322
  582MOL0     H78559   5.043   1.928   2.837  2.6294 -0.5590  3.2159
  582MOL0     H78560   5.067   1.622   2.830  1.4441  0.0822 -2.7353
  582MOL0     H78561   5.138   1.711   2.956  0.3979  0.1697 -0.2340
  582MOL0     H78562   5.234   1.782   2.687  0.5119  3.3025  1.4665
  582MOL0     H78563   5.302   1.659   2.799  1.8734  1.2097  0.5161
  582MOL0     H78564   5.282   1.935   2.895  3.3771  0.8866  1.1699
  582MOL0     H78565   5.358   1.788   2.955 -3.1288  0.6418  0.2620
  582MOL0     H78566   5.638   1.907   2.673 -0.2107  1.2387  0.7436
  582MOL0     H78567   4.696   1.667   2.755  2.7888  1.3897  0.5184
  582MOL0     H78568   4.423   1.714   2.909 -0.3361  0.7812  0.3508
  582MOL0     H78569   4.349   1.718   2.756 -1.3221 -0.1197  0.3615
  582MOL0     H78570   4.488   1.608   2.778 -0.6503  0.7092  0.0231
  583MOL0     O78571   5.763   9.894   3.778 -0.2269 -0.4405 -0.0580
  583MOL0     C78572   5.819  10.009   3.792  0.9819  0.6402 -0.5885
  583MOL0     O78573   5.947  10.033   3.798 -0.5418 -0.3923 -0.3601
  583MOL0     C78574   6.031   9.920   3.781 -0.4099 -0.3570  0.0687
  583MOL0     C78575   6.074   9.882   3.660 -0.5071  0.5949  0.0071
  583MOL0     C78576   6.154   9.766   3.639 -0.6956 -0.7854 -0.4188
  583MOL0     C78577   6.194   9.691   3.751 -0.2007  1.2475 -0.5702
  583MOL0     O78578   6.261   9.562   3.742  0.7576 -0.2919  0.2834
  583MOL0     C78579   6.336   9.553   3.618 -1.0584 -0.1731 -0.2878
  583MOL0     C78580   6.431   9.437   3.639 -0.2753 -0.6550  0.2353
  583MOL0     C78581   6.555   9.429   3.539 -0.0591  0.3454  0.8001
  583MOL0     C78582   6.657   9.320   3.575 -0.0265 -0.0564 -0.2400
  583MOL0     C78583   6.773   9.332   3.476 -0.6684  0.0767  0.8743
  583MOL0     C78584   6.871   9.214   3.481 -0.1125  0.4448  0.8034
  583MOL0     C78585   7.018   9.238   3.432  0.1032 -0.0121  0.4579
  583MOL0     C78586   7.027   9.247   3.281 -0.4725 -0.6113 -0.8350
  583MOL0     N78587   7.101   9.129   3.230  0.0509  0.5218 -0.2257
  583MOL0     C78588   7.041   9.008   3.205  1.0413  0.0046  1.7688
  583MOL0     C78589   7.147   8.921   3.192  0.4807  0.1513 -0.6534
  583MOL0     C78590   7.134   8.775   3.170 -1.0820 -0.5436  0.5776
  583MOL0     C78591   7.263   8.686   3.159 -0.4154 -0.0539 -0.1119
  583MOL0     C78592   7.226   8.531   3.182 -0.7943  0.4980  0.2513
  583MOL0     C78593   7.209   8.502   3.326  0.1961  0.3631  0.2713
  583MOL0     O78594   7.176   8.355   3.324 -0.1246 -0.1913  0.7990
  583MOL0     C78595   7.106   8.293   3.425  0.3714 -0.0505  0.4492
  583MOL0     C78596   7.099   8.330   3.552  0.9811 -0.1416 -0.5950
  583MOL0     C78597   7.021   8.251   3.642  0.7715 -0.1951  0.2100
  583MOL0     C78598   6.942   8.149   3.596 -0.7624  0.0478  0.1494
  583MOL0     C78599   6.844   8.093   3.691  0.9747 -0.3035  0.0421
  583MOL0     O78600   6.778   7.971   3.653 -0.1669  0.2035 -0.5520
  583MOL0     C78601   6.712   7.893   3.747 -0.3218  0.3591  0.6335
  583MOL0     C78602   6.575   7.881   3.737  0.4411 -0.1171 -0.5440
  583MOL0     C78603   6.508   7.791   3.818  0.2658  0.1514  0.0789
  583MOL0     C78604   6.578   7.724   3.921  0.3278  0.9309  0.1302
  583MOL0     O78605   6.503   7.665   4.019 -0.8964  1.1988  0.0345
  583MOL0     C78606   6.571   7.586   4.106 -0.1357  0.6185 -1.1688
  583MOL0     C78607   6.472   7.533   4.208  0.0357 -0.6853 -0.3796
  583MOL0     C78608   6.425   7.646   4.311  0.0349  0.1308 -0.1305
  583MOL0     C78609   6.354   7.771   4.265  0.5157  0.3856  0.3917
  583MOL0     C78610   6.310   7.861   4.382 -0.0039 -0.1759  0.1149
  583MOL0     C78611   6.235   7.980   4.317 -0.3127  0.4108 -0.6254
  583MOL0     C78612   6.164   8.077   4.411 -0.2227 -0.1680 -0.5641
  583MOL0     C78613   6.253   8.187   4.474  0.1599  0.3275 -0.1230
  583MOL0    Cl78614   6.362   8.264   4.346  0.1734 -0.0979  0.2250
  583MOL0     C78615   6.715   7.743   3.928  0.3046 -0.0230  0.6080
  583MOL0     C78616   6.782   7.828   3.848 -0.0321  0.4257  0.0735
  583MOL0     O78617   6.819   8.154   3.794  0.5202  0.0355  0.2668
  583MOL0     C78618   6.937   8.122   3.464 -0.1213  0.0084  0.0666
  583MOL0     C78619   7.014   8.194   3.373  0.0876 -0.7594 -0.9753
  583MOL0     N78620   7.269   8.990   3.220  0.0398  0.1499  0.0109
  583MOL0     N78621   7.236   9.115   3.231 -0.7685 -0.3192  0.4757
  583MOL0     C78622   6.156   9.731   3.875 -1.0684 -0.5045  0.0568
  583MOL0     C78623   6.083   9.849   3.887  0.6272 -0.2491  0.6562
  583MOL0     C78624   5.733  10.127   3.819  0.3324  0.9128  0.2219
  583MOL0     C78625   5.779  10.222   3.918 -0.6170 -0.5477  0.1527
  583MOL0     C78626   5.695  10.325   3.960 -0.0772 -0.5732  0.1712
  583MOL0     C78627   5.574  10.342   3.899  0.5958  0.8577 -0.2262
  583MOL0     O78628   5.493  10.442   3.951  0.2545 -0.0965 -0.3669
  583MOL0     C78629   5.350  10.441   3.936 -0.2531  0.0740  0.0350
  583MOL0     C78630   5.266  10.547   4.016 -0.1693  0.6135 -0.4859
  583MOL0     C78631   5.248  10.678   3.941 -0.2789 -1.2126 -0.3865
  583MOL0     C78632   5.134  10.679   3.851  1.1827  0.7182  0.3933
  583MOL0     C78633   5.017  10.726   3.935  0.0413  0.1222 -0.0119
  583MOL0     C78634   4.932  10.779   4.005  0.0108 -0.2148 -1.0046
  583MOL0     C78635   5.537  10.259   3.785  0.5841 -0.8863  0.7751
  583MOL0     C78636   5.608  10.156   3.747  0.1317 -0.0764 -0.8616
  583MOL0     C78637   5.557  10.080   3.630 -0.0250  0.0163  0.5102
  583MOL0     H78638   6.050   9.944   3.574  2.9246  4.1347  1.2779
  583MOL0     H78639   6.183   9.735   3.540 -0.3026 -0.8467 -0.2844
  583MOL0     H78640   6.273   9.538   3.529 -3.0047  0.5264  0.9034
  583MOL0     H78641   6.390   9.647   3.604  1.4526 -1.6889 -1.4508
  583MOL0     H78642   6.374   9.345   3.624  0.1508 -1.2130  1.8388
  583MOL0     H78643   6.472   9.443   3.741 -1.6129 -2.3163  0.9328
  583MOL0     H78644   6.602   9.527   3.547 -0.0962  0.4974 -0.5668
  583MOL0     H78645   6.529   9.405   3.435  2.1659 -0.7541  0.4418
  583MOL0     H78646   6.694   9.328   3.678  0.3108 -0.2005 -0.3495
  583MOL0     H78647   6.595   9.230   3.561  0.1425 -0.5328  1.7942
  583MOL0     H78648   6.746   9.350   3.372  4.5189  0.0289 -0.7825
  583MOL0     H78649   6.834   9.419   3.502 -0.9040 -0.3142  2.8742
  583MOL0     H78650   6.885   9.179   3.584 -0.8427  0.5125  0.9306
  583MOL0     H78651   6.812   9.135   3.433 -0.5396 -0.1195  2.1990
  583MOL0     H78652   7.079   9.165   3.486 -0.0336 -0.4224  0.0613
  583MOL0     H78653   7.042   9.340   3.465 -0.5595  0.2594  0.1260
  583MOL0     H78654   6.930   9.236   3.232  0.0892 -2.1707 -1.6678
  583MOL0     H78655   7.073   9.344   3.263 -0.4966  0.2403  2.7812
  583MOL0     H78656   6.933   8.993   3.207  0.8188  0.5521 -1.1141
  583MOL0     H78657   7.079   8.745   3.260 -0.5026  3.0216  2.2816
  583MOL0     H78658   7.063   8.752   3.089 -1.6035 -1.4127  1.2616
  583MOL0     H78659   7.311   8.703   3.062 -0.0800  1.2165  0.2656
  583MOL0     H78660   7.342   8.726   3.223  0.9400  0.0561 -1.7768
  583MOL0     H78661   7.315   8.484   3.138 -1.5963 -1.0771  0.2531
  583MOL0     H78662   7.148   8.494   3.115 -0.3554  1.2707 -0.7250
  583MOL0     H78663   7.118   8.548   3.367 -1.0868 -1.9814  0.2485
  583MOL0     H78664   7.297   8.536   3.381  0.5352  0.3848 -0.2799
  583MOL0     H78665   7.164   8.405   3.597  0.5511 -0.4760  0.6348
  583MOL0     H78666   7.022   8.286   3.745  1.1267  0.2364  0.0629
  583MOL0     H78667   6.526   7.935   3.656 -1.3008  1.0238  1.1857
  583MOL0     H78668   6.403   7.765   3.805 -0.3490  2.6034 -0.3266
  583MOL0     H78669   6.620   7.507   4.049  1.1336  0.6000 -0.1231
  583MOL0     H78670   6.658   7.629   4.156 -0.2412  1.8389 -2.0229
  583MOL0     H78671   6.388   7.492   4.150 -0.5068  1.3609 -1.1226
  583MOL0     H78672   6.515   7.443   4.254  1.2648  0.0514 -0.0542
  583MOL0     H78673   6.347   7.588   4.360  0.3594 -1.2521 -1.2014
  583MOL0     H78674   6.506   7.678   4.378 -0.5322  0.4320  0.4236
  583MOL0     H78675   6.263   7.737   4.213 -0.1782  3.9399 -1.0132
  583MOL0     H78676   6.411   7.838   4.200 -0.3930 -0.6079 -1.5202
  583MOL0     H78677   6.402   7.884   4.436  0.0900 -0.2066 -0.0300
  583MOL0     H78678   6.247   7.809   4.454  3.1118  0.9515  4.0157
  583MOL0     H78679   6.306   8.040   4.259 -0.9520  1.9581  0.1333
  583MOL0     H78680   6.158   7.937   4.251 -1.0818  0.3785  0.2733
  583MOL0     H78681   6.099   8.029   4.485 -2.1059  2.8164 -0.0954
  583MOL0     H78682   6.091   8.133   4.351 -1.8701  1.0357  2.3612
  583MOL0     H78683   6.200   8.267   4.526  0.0844  1.0667 -1.2854
  583MOL0     H78684   6.317   8.120   4.532  0.1323 -0.8688 -1.4167
  583MOL0     H78685   6.774   7.712   4.014 -1.0752  0.0675  1.6152
  583MOL0     H78686   6.887   7.853   3.862  0.6988 -1.3958 -1.7351
  583MOL0     H78687   6.864   8.055   3.421 -0.6276  1.8938 -2.2661
  583MOL0     H78688   7.004   8.167   3.269  0.5809  0.5805 -1.3833
  583MOL0     H78689   6.177   9.673   3.965  2.0215 -2.5400 -1.7897
  583MOL0     H78690   6.056   9.893   3.982  2.9553  2.6537  0.1259
  583MOL0     H78691   5.883  10.220   3.948 -0.7701  2.2766  1.2729
  583MOL0     H78692   5.733  10.397   4.032  0.3934 -0.1321 -0.5090
  583MOL0     H78693   5.311  10.345   3.969  0.4642 -0.5159 -0.8008
  583MOL0     H78694   5.332  10.455   3.829 -0.6569  1.5819  0.2786
  583MOL0     H78695   5.314  10.570   4.112  1.5395  1.2134 -1.4457
  583MOL0     H78696   5.170  10.499   4.039 -1.5856  3.4630 -0.0625
  583MOL0     H78697   5.338  10.711   3.890  0.0245  1.2800  1.5962
  583MOL0     H78698   5.235  10.752   4.020  4.8688 -0.1791 -0.1622
  583MOL0     H78699   5.155  10.749   3.770 -1.6147 -0.6440 -1.6958
  583MOL0     H78700   5.124  10.583   3.799 -2.5263  2.1664 -2.0058
  583MOL0     H78701   4.845  10.822   4.049  0.1137  0.7467 -1.7019
  583MOL0     H78702   5.451  10.277   3.721  1.9160 -2.8207 -1.7575
  583MOL0     H78703   5.635  10.030   3.570  0.2857  1.1530 -0.0560
  583MOL0     H78704   5.482  10.008   3.662  1.6318 -1.1629  1.9752
  583MOL0     H78705   5.517  10.149   3.555  0.8097 -0.8255 -0.7640
  584MOL0     O78706   8.594   4.142   3.236  0.5783  0.1116 -0.2870
  584MOL0     C78707   8.670   4.074   3.309  0.4979 -0.1442 -0.9276
  584MOL0     O78708   8.688   3.936   3.316 -1.1340  0.1985 -0.0942
  584MOL0     C78709   8.611   3.848   3.237  0.6566 -0.6954  0.1971
  584MOL0     C78710   8.663   3.768   3.143 -0.0213  0.0998 -0.6753
  584MOL0     C78711   8.586   3.673   3.069  1.0136 -0.4301 -1.0308
  584MOL0     C78712   8.450   3.653   3.113  0.0476 -0.2229  0.4881
  584MOL0     O78713   8.353   3.583   3.044  0.0244 -0.0015  0.7125
  584MOL0     C78714   8.361   3.440   3.071  0.3298 -0.1908 -0.4505
  584MOL0     C78715   8.253   3.365   2.987 -0.0964  0.0161 -0.4058
  584MOL0     C78716   8.295   3.342   2.844  0.4443 -0.4074  0.1624
  584MOL0     C78717   8.169   3.321   2.748  0.1892  0.6554  0.2834
  584MOL0     C78718   8.218   3.274   2.616  0.4177 -0.4774  0.3558
  584MOL0     C78719   8.092   3.219   2.539 -0.1393 -0.8122  0.1786
  584MOL0     C78720   8.129   3.192   2.401  0.0337  0.8090  1.0786
  584MOL0     C78721   8.200   3.057   2.389  0.3427  1.1742 -0.4065
  584MOL0     N78722   8.221   3.024   2.249  0.0094 -0.0587 -0.5926
  584MOL0     C78723   8.345   3.031   2.177  0.1484 -1.0877  0.2312
  584MOL0     C78724   8.325   2.965   2.061 -0.6582  0.1762  0.1565
  584MOL0     C78725   8.436   2.937   1.967  0.8543 -0.6441  0.6257
  584MOL0     C78726   8.506   2.803   2.026 -0.5912 -0.0266 -0.4003
  584MOL0     C78727   8.543   2.705   1.916 -0.4799 -0.5022  0.3715
  584MOL0     C78728   8.635   2.599   1.985 -0.1374  0.8303  0.2026
  584MOL0     O78729   8.763   2.652   2.015  0.0932 -0.1857  0.3871
  584MOL0     C78730   8.868   2.564   2.030  0.2561 -0.1077 -0.4793
  584MOL0     C78731   8.870   2.438   2.084 -0.5111 -0.1565 -0.7675
  584MOL0     C78732   8.993   2.378   2.122 -0.1124  0.1400 -0.4945
  584MOL0     C78733   9.116   2.426   2.074  0.0948  1.5158 -0.8843
  584MOL0     C78734   9.252   2.377   2.094  1.1501  0.4952 -0.3439
  584MOL0     O78735   9.256   2.250   2.124  0.4990  0.4832  0.8874
  584MOL0     C78736   9.378   2.187   2.123  0.1009  1.0469 -1.2712
  584MOL0     C78737   9.421   2.106   2.230  0.1516  0.7024  0.0066
  584MOL0     C78738   9.540   2.041   2.227 -0.0653  0.3952 -0.8388
  584MOL0     C78739   9.616   2.029   2.109  1.0174 -0.5368 -0.1420
  584MOL0     O78740   9.714   1.939   2.108  0.1353 -0.2108 -0.0464
  584MOL0     C78741   9.693   1.819   2.033 -0.5178  0.3104  0.1028
  584MOL0     C78742   9.733   1.712   2.123  0.9297 -0.1875 -0.2532
  584MOL0     C78743   9.615   1.631   2.180 -0.3236 -0.7345  0.6373
  584MOL0     C78744   9.659   1.538   2.287 -0.0671  0.0106  0.3760
  584MOL0     C78745   9.537   1.461   2.340  0.0220 -0.3586  0.1630
  584MOL0     C78746   9.556   1.422   2.485 -1.1954 -0.0262  0.6350
  584MOL0     C78747   9.431   1.420   2.567 -0.5330  0.2292  0.2268
  584MOL0     C78748   9.311   1.328   2.524 -0.5362  0.8040 -0.1746
  584MOL0    Cl78749   9.192   1.335   2.649  0.0526  0.3792  0.2945
  584MOL0     C78750   9.572   2.093   1.993  0.5136  0.1140 -0.3297
  584MOL0     C78751   9.451   2.171   2.009 -0.8448  0.3111  0.0299
  584MOL0     O78752   9.352   2.448   2.076 -0.0103 -0.3893  0.0577
  584MOL0     C78753   9.102   2.548   2.001 -0.1931 -0.4106 -1.0969
  584MOL0     C78754   8.982   2.618   1.977  0.0149  0.9871  0.3986
  584MOL0     N78755   8.199   2.908   2.052  0.4385  1.2302 -0.8929
  584MOL0     N78756   8.142   2.948   2.170  0.5840  0.7923  0.1440
  584MOL0     C78757   8.394   3.740   3.206 -0.7688 -0.6525 -0.5892
  584MOL0     C78758   8.475   3.836   3.265 -0.1031  0.0155  0.0400
  584MOL0     C78759   8.766   4.152   3.398  1.3057  0.1595 -0.6640
  584MOL0     C78760   8.889   4.093   3.424 -0.8795  0.3710  1.3923
  584MOL0     C78761   8.990   4.168   3.485 -0.0895  0.3975  0.7074
  584MOL0     C78762   8.966   4.301   3.513  0.8879 -1.5966 -0.1401
  584MOL0     O78763   9.066   4.372   3.565 -0.5901 -0.2851  0.0241
  584MOL0     C78764   9.124   4.465   3.479 -0.2872 -0.5107 -0.0675
  584MOL0     C78765   9.247   4.540   3.534  0.1519 -0.4593  1.1268
  584MOL0     C78766   9.331   4.601   3.421 -0.9980  0.1775  0.1132
  584MOL0     C78767   9.481   4.593   3.464 -0.2490  0.0988  0.2187
  584MOL0     C78768   9.561   4.640   3.344  0.2984  0.4131 -0.4956
  584MOL0     C78769   9.633   4.684   3.263 -0.2098 -1.0940 -0.6761
  584MOL0     C78770   8.838   4.354   3.494 -1.6195 -1.2149  0.3689
  584MOL0     C78771   8.733   4.285   3.445 -0.0430  0.7329  0.4083
  584MOL0     C78772   8.598   4.354   3.452 -0.4854  0.5575  0.9765
  584MOL0     H78773   8.769   3.761   3.120 -0.3859 -2.1454 -1.9199
  584MOL0     H78774   8.630   3.620   2.985 -1.8144 -2.9087 -1.1279
  584MOL0     H78775   8.456   3.395   3.038 -0.1699 -0.2552 -1.8548
  584MOL0     H78776   8.353   3.428   3.179  0.5005  0.4369 -0.3625
  584MOL0     H78777   8.165   3.430   2.983  2.1400  3.2554 -1.6715
  584MOL0     H78778   8.248   3.262   3.023  2.9969 -0.6943 -1.6091
  584MOL0     H78779   8.361   3.255   2.832 -2.4517 -3.3273  3.3695
  584MOL0     H78780   8.342   3.430   2.800  3.1759 -0.2634  3.0095
  584MOL0     H78781   8.093   3.255   2.789 -0.4013  1.5965  0.7189
  584MOL0     H78782   8.121   3.416   2.726 -0.1642 -0.2497 -3.5691
  584MOL0     H78783   8.268   3.352   2.558  2.4235 -1.3831  0.7482
  584MOL0     H78784   8.290   3.194   2.638  1.2280 -0.4611 -1.9800
  584MOL0     H78785   8.044   3.132   2.584 -0.8512  0.8496  2.8535
  584MOL0     H78786   8.017   3.298   2.528  0.5191  0.1523  2.0727
  584MOL0     H78787   8.194   3.275   2.372  1.5969 -0.5303  0.6119
  584MOL0     H78788   8.041   3.182   2.336  1.4381 -0.8491 -0.6425
  584MOL0     H78789   8.299   3.061   2.436 -1.4114 -0.0009  3.9114
  584MOL0     H78790   8.140   2.976   2.433  0.5499  1.0138 -0.4170
  584MOL0     H78791   8.441   3.075   2.203 -0.4236 -0.0623  0.6422
  584MOL0     H78792   8.399   2.939   1.864  2.1101  2.8838  0.1113
  584MOL0     H78793   8.508   3.016   1.991  1.2846  0.2413 -2.9614
  584MOL0     H78794   8.587   2.814   2.099 -3.2703 -2.5892  3.3949
  584MOL0     H78795   8.427   2.747   2.078  2.6223 -0.8325  4.2236
  584MOL0     H78796   8.598   2.754   1.835  1.5775 -2.2642  0.6152
  584MOL0     H78797   8.455   2.653   1.877 -0.2590 -2.1316  1.8871
  584MOL0     H78798   8.652   2.524   1.907  1.3779  0.0757  1.1758
  584MOL0     H78799   8.603   2.548   2.077  0.4971  1.8901  1.0425
  584MOL0     H78800   8.776   2.399   2.123 -0.0381 -0.8530 -0.3055
  584MOL0     H78801   9.002   2.291   2.186  1.3041  0.1714 -0.6327
  584MOL0     H78802   9.374   2.090   2.326  1.2560  0.2525  0.4935
  584MOL0     H78803   9.566   1.996   2.322 -1.8965  0.3538 -0.3287
  584MOL0     H78804   9.589   1.804   2.004  0.5740 -4.0205 -2.3842
  584MOL0     H78805   9.747   1.815   1.938  1.3276  1.2654  1.0525
  584MOL0     H78806   9.797   1.642   2.069  2.1036 -0.3585  1.3014
  584MOL0     H78807   9.783   1.749   2.213 -0.0023  2.7039 -0.8084
  584MOL0     H78808   9.528   1.694   2.200  0.5644  0.8340 -0.3006
  584MOL0     H78809   9.580   1.580   2.089 -1.7737  1.8438 -0.3425
  584MOL0     H78810   9.694   1.603   2.367  2.5474 -1.5631  0.6031
  584MOL0     H78811   9.737   1.468   2.256  0.3075  0.6492 -0.1359
  584MOL0     H78812   9.517   1.362   2.296 -3.5347 -1.3777  3.5334
  584MOL0     H78813   9.446   1.521   2.330 -1.2097 -1.5312  3.2108
  584MOL0     H78814   9.614   1.330   2.495 -0.7578 -0.0017 -1.3384
  584MOL0     H78815   9.613   1.495   2.544 -0.0020 -0.6062  0.2262
  584MOL0     H78816   9.398   1.524   2.580  1.7909  0.7532  2.8629
  584MOL0     H78817   9.461   1.398   2.670 -1.2243 -0.9599  0.1995
  584MOL0     H78818   9.270   1.365   2.430 -1.3282  0.6822  0.1117
  584MOL0     H78819   9.340   1.225   2.501  0.5934  1.4272 -1.6555
  584MOL0     H78820   9.631   2.082   1.903  1.9408  0.6970  0.4888
  584MOL0     H78821   9.415   2.229   1.925  1.1359  1.6017  0.0277
  584MOL0     H78822   9.199   2.586   1.970  1.4553 -0.2745  3.4341
  584MOL0     H78823   8.996   2.710   1.921  0.9021 -0.8078 -2.5911
  584MOL0     H78824   8.286   3.732   3.216 -1.5866  2.5099 -4.1485
  584MOL0     H78825   8.431   3.905   3.336 -2.7957 -1.5559  0.0362
  584MOL0     H78826   8.913   3.990   3.399  2.4576  1.3935 -0.2775
  584MOL0     H78827   9.092   4.133   3.483  0.0485  0.5254  2.9022
  584MOL0     H78828   9.047   4.535   3.444 -1.0918  0.4125  3.1755
  584MOL0     H78829   9.154   4.413   3.388  2.0554  1.7973 -0.7346
  584MOL0     H78830   9.305   4.474   3.599  4.4891 -0.0181 -1.8688
  584MOL0     H78831   9.191   4.616   3.589 -1.0010 -0.3467 -0.1179
  584MOL0     H78832   9.310   4.706   3.399  2.5406  1.1894  0.9181
  584MOL0     H78833   9.323   4.535   3.334 -0.6315  1.1725 -0.6915
  584MOL0     H78834   9.503   4.654   3.552  1.3233 -2.5501  1.8129
  584MOL0     H78835   9.494   4.487   3.486  0.1293 -0.1655 -1.1803
  584MOL0     H78836   9.696   4.717   3.183 -0.3268  0.8914 -0.0204
  584MOL0     H78837   8.821   4.461   3.509 -0.5806 -1.1047  0.8311
  584MOL0     H78838   8.591   4.400   3.551  1.7312 -0.1453  1.5214
  584MOL0     H78839   8.594   4.418   3.363 -2.7038  0.5736  1.0233
  584MOL0     H78840   8.518   4.279   3.448  1.0987 -1.1386 -2.2752
  585MOL0     O78841   2.022   9.422   0.493  0.7700  0.3640  0.0635
  585MOL0     C78842   2.118   9.403   0.561 -0.4164 -0.2789 -0.1548
  585MOL0     O78843   2.173   9.282   0.592  0.5762 -0.1478  0.1168
  585MOL0     C78844   2.125   9.159   0.546 -0.1058 -0.4876  0.5515
  585MOL0     C78845   2.000   9.128   0.480 -0.7349 -0.3586  0.2829
  585MOL0     C78846   1.979   8.999   0.440  0.7234  0.0327 -0.3654
  585MOL0     C78847   2.078   8.897   0.462 -0.4401 -0.7292  0.2731
  585MOL0     O78848   2.055   8.773   0.408  0.3027 -0.1956 -0.5245
  585MOL0     C78849   2.104   8.757   0.276  0.3542  0.1029 -0.6337
  585MOL0     C78850   2.086   8.609   0.237  0.6849  0.4551 -0.0061
  585MOL0     C78851   1.937   8.563   0.214 -0.1009  0.0335 -0.1771
  585MOL0     C78852   1.926   8.414   0.188  0.7887 -0.2595 -0.3512
  585MOL0     C78853   1.788   8.391   0.116  1.1336  0.2875  0.3954
  585MOL0     C78854   1.758   8.244   0.076  0.0458 -0.5134  0.1264
  585MOL0     C78855   1.610   8.222   0.048  0.0561  0.4459  0.0525
  585MOL0     C78856   1.551   8.288  -0.082  0.4110  0.2073  0.1281
  585MOL0     N78857   1.608   8.256  -0.205  0.5395  0.9583 -0.1673
  585MOL0     C78858   1.570   8.140  -0.275 -0.2674 -0.9214  0.4204
  585MOL0     C78859   1.638   8.150  -0.397  0.5149  0.3803 -0.0357
  585MOL0     C78860   1.651   8.055  -0.513  1.0073 -0.3467 -0.0800
  585MOL0     C78861   1.567   7.929  -0.506 -0.3579 -0.3475  0.2211
  585MOL0     C78862   1.420   7.958  -0.512 -0.4021  0.7180  0.5184
  585MOL0     C78863   1.330   7.832  -0.532  0.2749  0.3396 -0.4009
  585MOL0     O78864   1.354   7.758  -0.658 -0.0677 -0.6566 -0.3405
  585MOL0     C78865   1.274   7.780  -0.765  0.0839 -0.7726  0.0295
  585MOL0     C78866   1.299   7.886  -0.851 -0.3262 -0.1900 -0.8880
  585MOL0     C78867   1.209   7.910  -0.961 -1.5652 -0.6864  0.3401
  585MOL0     C78868   1.089   7.845  -0.973  0.4187  0.0473  0.6510
  585MOL0     C78869   0.998   7.877  -1.083 -0.7917  0.1401  0.0427
  585MOL0     O78870   0.909   7.777  -1.112  0.2621  0.2345  0.1087
  585MOL0     C78871   0.824   7.792  -1.225 -0.6776 -0.6312  0.0211
  585MOL0     C78872   0.856   7.754  -1.354  0.3294  0.2377 -0.0066
  585MOL0     C78873   0.759   7.767  -1.453 -0.0560  0.6586  0.2789
  585MOL0     C78874   0.632   7.812  -1.423  0.4427  0.5613 -0.4992
  585MOL0     O78875   0.527   7.826  -1.507 -0.0844  0.0148  1.0086
  585MOL0     C78876   0.485   7.698  -1.563  0.0230 -0.7035 -0.4496
  585MOL0     C78877   0.374   7.636  -1.485  0.2204  0.4469  0.5709
  585MOL0     C78878   0.262   7.738  -1.454 -0.5108 -0.3944 -0.0824
  585MOL0     C78879   0.222   7.801  -1.590 -0.2514  0.2996  0.3123
  585MOL0     C78880   0.095   7.890  -1.585 -0.0785 -0.0982  0.2699
  585MOL0     C78881   0.040   7.910  -1.738 -0.0747  0.4711  0.4653
  585MOL0     C78882  -0.069   8.015  -1.735  0.3437  0.1951 -0.5180
  585MOL0     C78883  -0.064   8.076  -1.884 -0.2844 -0.0474 -0.9451
  585MOL0    Cl78884   0.092   8.157  -1.916  0.1958 -0.3488 -0.2748
  585MOL0     C78885   0.594   7.829  -1.294 -0.1938 -0.2227 -0.3248
  585MOL0     C78886   0.692   7.823  -1.193 -0.6830  0.4255 -0.0182
  585MOL0     O78887   1.022   7.976  -1.153 -0.2295  0.1697 -0.3733
  585MOL0     C78888   1.059   7.740  -0.890 -0.4733 -0.2384 -0.2046
  585MOL0     C78889   1.155   7.715  -0.786  0.1782  1.3592  0.2672
  585MOL0     N78890   1.701   8.272  -0.398  0.1861  0.0594  0.1472
  585MOL0     N78891   1.688   8.335  -0.285 -1.0849 -0.6266 -0.7151
  585MOL0     C78892   2.200   8.934   0.528 -0.0960  0.9484  1.0019
  585MOL0     C78893   2.219   9.062   0.563 -1.6240 -1.2246 -0.5382
  585MOL0     C78894   2.184   9.521   0.625 -1.0034 -0.3218  0.8304
  585MOL0     C78895   2.306   9.488   0.701 -0.0531 -0.3563  0.1134
  585MOL0     C78896   2.386   9.582   0.759  0.4467 -0.3313 -1.6605
  585MOL0     C78897   2.340   9.714   0.773  1.1223  0.8418  0.6423
  585MOL0     O78898   2.402   9.819   0.835  0.0135 -0.5082  0.3857
  585MOL0     C78899   2.521   9.808   0.897 -0.7747  0.7050  0.0277
  585MOL0     C78900   2.556   9.932   0.980  0.0873  0.1682 -0.9902
  585MOL0     C78901   2.463   9.965   1.102  1.0339  0.3531 -0.7786
  585MOL0     C78902   2.538  10.080   1.175 -0.1024 -0.0613  0.2065
  585MOL0     C78903   2.675  10.047   1.221 -0.2958 -0.4165 -0.1616
  585MOL0     C78904   2.780  10.011   1.252 -1.4118  0.2360  0.5300
  585MOL0     C78905   2.215   9.735   0.704 -0.0765 -1.0855 -0.0511
  585MOL0     C78906   2.138   9.657   0.625 -0.0606  0.7224  0.8984
  585MOL0     C78907   2.017   9.711   0.545 -0.1900 -0.3320  0.5246
  585MOL0     H78908   1.928   9.209   0.470 -0.8000 -0.5348 -0.8867
  585MOL0     H78909   1.887   8.962   0.395  0.2375 -0.6111  1.0856
  585MOL0     H78910   2.046   8.809   0.199 -0.8350  0.2869  0.3580
  585MOL0     H78911   2.211   8.777   0.268  1.2108 -3.1491  0.8629
  585MOL0     H78912   2.115   8.547   0.322 -1.4658 -1.9370 -0.8865
  585MOL0     H78913   2.147   8.593   0.148 -0.7138 -1.3445 -0.6902
  585MOL0     H78914   1.896   8.604   0.122 -0.4158 -0.4361 -0.2463
  585MOL0     H78915   1.871   8.589   0.297  0.1134 -2.7413  0.9633
  585MOL0     H78916   2.011   8.379   0.130  0.9173 -0.9047  0.2099
  585MOL0     H78917   1.923   8.359   0.283 -0.9888 -0.4788 -0.5025
  585MOL0     H78918   1.706   8.417   0.183 -0.5670 -3.2885 -0.0363
  585MOL0     H78919   1.782   8.449   0.024 -1.2697 -2.0488 -1.0499
  585MOL0     H78920   1.816   8.235  -0.017 -0.9677 -0.4870 -0.5205
  585MOL0     H78921   1.793   8.176   0.154 -1.5341 -0.1033  1.2138
  585MOL0     H78922   1.550   8.223   0.139 -0.8780 -2.0717 -0.4786
  585MOL0     H78923   1.613   8.115   0.024  1.0886  0.7677 -1.4514
  585MOL0     H78924   1.446   8.260  -0.094  1.1722 -3.5636  0.9836
  585MOL0     H78925   1.561   8.397  -0.079  0.5951  0.2036 -0.3165
  585MOL0     H78926   1.502   8.066  -0.233  0.0457 -1.0879  0.6330
  585MOL0     H78927   1.648   8.109  -0.609  1.3122 -0.3618 -0.0978
  585MOL0     H78928   1.753   8.017  -0.504  1.7955  1.9382  1.7770
  585MOL0     H78929   1.596   7.873  -0.595  2.2993 -0.8161  1.2952
  585MOL0     H78930   1.594   7.862  -0.424 -1.9028 -1.3907 -0.0822
  585MOL0     H78931   1.397   8.034  -0.588 -1.7044  0.1456  0.3126
  585MOL0     H78932   1.386   7.993  -0.414 -0.9761  1.9304 -0.0800
  585MOL0     H78933   1.226   7.863  -0.514  0.7435  1.5323  0.4001
  585MOL0     H78934   1.357   7.768  -0.448  3.5291 -1.3727 -2.5318
  585MOL0     H78935   1.383   7.954  -0.840 -1.2385  1.1204 -1.6855
  585MOL0     H78936   1.250   7.976  -1.038 -1.5612  0.6045  1.4105
  585MOL0     H78937   0.951   7.717  -1.392  1.2540 -0.6142  2.8692
  585MOL0     H78938   0.773   7.736  -1.556  0.8525  1.0765  0.2686
  585MOL0     H78939   0.450   7.706  -1.667  0.4500 -3.4367 -0.8875
  585MOL0     H78940   0.579   7.646  -1.582 -0.6891 -2.1838 -0.1015
  585MOL0     H78941   0.320   7.562  -1.544 -2.3309  0.9961  2.0826
  585MOL0     H78942   0.411   7.589  -1.394  1.6202 -1.0424 -0.6972
  585MOL0     H78943   0.172   7.683  -1.424 -1.5952 -1.3276 -4.3386
  585MOL0     H78944   0.294   7.804  -1.373 -0.6487 -0.3600 -0.0552
  585MOL0     H78945   0.198   7.724  -1.663 -1.9524  2.0269 -1.0519
  585MOL0     H78946   0.306   7.860  -1.627 -1.3696  1.2326 -0.8080
  585MOL0     H78947   0.117   7.986  -1.537  2.7600 -0.2937 -0.4497
  585MOL0     H78948   0.021   7.850  -1.516  0.3520  0.6155  1.1651
  585MOL0     H78949   0.121   7.945  -1.802 -1.9496  1.5318 -1.4510
  585MOL0     H78950   0.004   7.816  -1.782  1.2276 -0.0234  0.4083
  585MOL0     H78951  -0.052   8.101  -1.669 -1.6312  1.8903 -2.0750
  585MOL0     H78952  -0.165   7.967  -1.713  0.6851 -0.6889 -0.9202
  585MOL0     H78953  -0.092   8.001  -1.959  1.8391 -3.5706  1.4373
  585MOL0     H78954  -0.138   8.156  -1.892 -0.6927 -0.2226  0.7748
  585MOL0     H78955   0.491   7.842  -1.263 -0.7794 -2.3688 -1.1592
  585MOL0     H78956   0.668   7.847  -1.090  0.4070  2.9981 -0.3077
  585MOL0     H78957   0.977   7.669  -0.883 -0.7074 -0.0143 -0.6547
  585MOL0     H78958   1.140   7.633  -0.716  0.8331  0.8104 -0.2203
  585MOL0     H78959   2.271   8.852   0.531  1.7425  2.1770 -3.0208
  585MOL0     H78960   2.313   9.089   0.610 -2.5276 -1.3272  1.4082
  585MOL0     H78961   2.348   9.388   0.702  2.5646  0.6500 -1.0524
  585MOL0     H78962   2.480   9.548   0.802 -0.1227  0.8465  0.6841
  585MOL0     H78963   2.599   9.783   0.824 -1.5415  0.5081 -0.7327
  585MOL0     H78964   2.511   9.724   0.966 -0.7856  1.5099  1.0252
  585MOL0     H78965   2.544  10.016   0.912  2.4706  1.6201  0.2742
  585MOL0     H78966   2.662   9.936   1.007  0.1347 -3.1407 -0.1515
  585MOL0     H78967   2.449   9.877   1.165 -2.7457  1.6738  0.5549
  585MOL0     H78968   2.359   9.991   1.077  0.8986 -0.8527 -1.5217
  585MOL0     H78969   2.543  10.160   1.100 -0.0357 -0.8839 -0.6903
  585MOL0     H78970   2.477  10.117   1.258 -0.8802  1.1532 -0.8599
  585MOL0     H78971   2.877   9.975   1.279 -2.3723 -2.9235  0.0931
  585MOL0     H78972   2.167   9.831   0.719  0.4656 -0.8692  0.3462
  585MOL0     H78973   1.921   9.660   0.558 -1.2867  1.2001 -1.1923
  585MOL0     H78974   1.995   9.814   0.572 -0.5157  0.3006 -1.9374
  585MOL0     H78975   2.045   9.718   0.439 -1.2187  0.6356  0.3016
  586MOL0     O78976   3.570   9.288  11.324  0.8349  0.7814 -0.3955
  586MOL0     C78977   3.571   9.343  11.438 -0.8390 -0.0572  0.3852
  586MOL0     O78978   3.482   9.421  11.493  0.3307 -0.2688  0.1982
  586MOL0     C78979   3.360   9.444  11.420 -0.5140 -0.3330  0.3090
  586MOL0     C78980   3.333   9.576  11.373 -0.6453 -0.2196  0.3392
  586MOL0     C78981   3.210   9.602  11.302 -0.2139  0.3628  0.2688
  586MOL0     C78982   3.132   9.496  11.277  1.2101  0.3403  0.4067
  586MOL0     O78983   3.017   9.521  11.196 -0.5413 -0.0908  0.8331
  586MOL0     C78984   2.951   9.408  11.140  0.2226 -0.5310 -0.1543
  586MOL0     C78985   2.843   9.475  11.060  0.8572  0.9063 -0.8121
  586MOL0     C78986   2.747   9.354  11.010  0.2282  0.5752 -0.1099
  586MOL0     C78987   2.617   9.389  10.932 -0.0142 -0.2374  0.7582
  586MOL0     C78988   2.496   9.319  10.992  0.3406  0.9084 -0.4869
  586MOL0     C78989   2.361   9.339  10.919 -0.2311 -0.2953  0.9624
  586MOL0     C78990   2.256   9.260  10.996 -0.4329  0.5334 -1.9212
  586MOL0     C78991   2.122   9.236  10.933  0.1773 -0.2667  0.3736
  586MOL0     N78992   2.031   9.146  10.995 -0.3328 -0.6527  0.1506
  586MOL0     C78993   2.010   9.136  11.125 -0.3909  0.0827 -0.8486
  586MOL0     C78994   1.906   9.044  11.139  0.2713 -0.4881  0.7266
  586MOL0     C78995   1.841   8.981  11.262  0.0014  0.2595 -0.1718
  586MOL0     C78996   1.852   9.079  11.379 -0.0112  0.0811 -1.4574
  586MOL0     C78997   1.783   9.025  11.498 -1.2275  0.0513  0.8410
  586MOL0     C78998   1.816   9.090  11.633  0.3807  0.1188 -0.5869
  586MOL0     O78999   1.839   9.232  11.624  0.2065 -0.6514  0.8361
  586MOL0     C79000   1.734   9.312  11.654 -0.7955  0.9415 -0.2581
  586MOL0     C79001   1.640   9.350  11.548 -0.0556  0.3579 -0.4477
  586MOL0     C79002   1.544   9.451  11.571 -0.2909  0.8246  0.2489
  586MOL0     C79003   1.538   9.514  11.700 -0.4477  0.6402  0.2789
  586MOL0     C79004   1.437   9.618  11.722  0.2332  0.3139 -0.2551
  586MOL0     O79005   1.356   9.657  11.623 -0.0276 -0.5015 -0.1615
  586MOL0     C79006   1.221   9.676  11.642 -0.0447  0.7634 -0.1615
  586MOL0     C79007   1.169   9.798  11.636  0.0923 -0.2172 -0.8761
  586MOL0     C79008   1.032   9.824  11.666  0.3216  0.1865  0.3614
  586MOL0     C79009   0.946   9.715  11.703 -0.3567  0.1499 -0.3791
  586MOL0     O79010   0.822   9.750  11.729 -1.1684 -0.2016 -0.7981
  586MOL0     C79011   0.738   9.749  11.612  1.2618 -0.1053  0.2503
  586MOL0     C79012   0.598   9.777  11.646  0.3209 -0.0528  0.1502
  586MOL0     C79013   0.523   9.772  11.512 -0.0319 -0.2184 -0.5240
  586MOL0     C79014   0.368   9.797  11.526  0.2210 -0.0770 -0.1962
  586MOL0     C79015   0.302   9.805  11.385  0.7966  0.4363  0.7215
  586MOL0     C79016   0.148   9.772  11.386  0.0757  0.1256 -0.2794
  586MOL0     C79017   0.089   9.787  11.256 -0.2622  0.6568  0.1717
  586MOL0     C79018  -0.058   9.749  11.242 -1.1964  0.3475  0.4441
  586MOL0    Cl79019  -0.157   9.865  11.325 -0.0298 -0.3884 -0.0661
  586MOL0     C79020   1.002   9.583  11.713  0.9814 -0.7877  0.4691
  586MOL0     C79021   1.141   9.576  11.673 -0.1767  0.2049  0.9641
  586MOL0     O79022   1.418   9.656  11.839 -0.1405  0.1786 -0.0549
  586MOL0     C79023   1.621   9.460  11.807 -0.5119  0.3277 -0.1575
  586MOL0     C79024   1.723   9.364  11.782 -0.1740 -0.3304  0.0081
  586MOL0     N79025   1.869   9.008  11.009 -0.5904 -0.3264  1.1979
  586MOL0     N79026   1.946   9.067  10.929  0.9012  0.1112  0.3549
  586MOL0     C79027   3.164   9.366  11.316  0.0931  0.2255 -0.7005
  586MOL0     C79028   3.281   9.343  11.379  0.3029 -1.1322  0.1314
  586MOL0     C79029   3.694   9.323  11.519  0.2574  0.2265 -0.3251
  586MOL0     C79030   3.689   9.331  11.655 -0.4864 -0.3749  0.3558
  586MOL0     C79031   3.799   9.320  11.738 -0.4148  0.6917  0.0829
  586MOL0     C79032   3.926   9.301  11.682  0.0898  0.0658 -0.3214
  586MOL0     O79033   4.031   9.292  11.782  0.1942 -0.3739  0.3029
  586MOL0     C79034   4.168   9.331  11.740  0.1160  0.0965 -0.0825
  586MOL0     C79035   4.245   9.197  11.705  0.8823  0.3525 -0.4488
  586MOL0     C79036   4.395   9.230  11.684  0.1995 -1.0023 -0.6614
  586MOL0     C79037   4.463   9.103  11.683 -0.0770  1.0565  0.7043
  586MOL0     C79038   4.432   9.033  11.561 -0.4378  0.8456  0.0877
  586MOL0     C79039   4.393   8.971  11.474  0.5217  0.6301  0.4425
  586MOL0     C79040   3.941   9.310  11.544 -0.6366 -0.7789 -0.6633
  586MOL0     C79041   3.821   9.314  11.461 -0.8919 -0.0673 -0.3829
  586MOL0     C79042   3.850   9.313  11.313  0.2153  0.2295  0.3798
  586MOL0     H79043   3.405   9.656  11.379 -2.7074  1.6345  2.4443
  586MOL0     H79044   3.207   9.699  11.255 -0.6123 -1.3242 -3.5089
  586MOL0     H79045   3.015   9.354  11.070  0.3816 -3.1879  1.8909
  586MOL0     H79046   2.904   9.343  11.215 -0.7662 -1.5708 -1.6199
  586MOL0     H79047   2.899   9.522  10.978  1.8545 -0.9996 -1.2904
  586MOL0     H79048   2.790   9.544  11.125  1.7455 -0.9432  2.0392
  586MOL0     H79049   2.718   9.294  11.097 -1.9589  2.3048  0.4595
  586MOL0     H79050   2.804   9.289  10.943 -1.9969 -2.8613  1.0761
  586MOL0     H79051   2.600   9.496  10.949  4.1717  0.4841  1.6115
  586MOL0     H79052   2.624   9.372  10.824 -1.8390  0.3313  0.5075
  586MOL0     H79053   2.532   9.216  10.995  0.1003  0.8456  1.9153
  586MOL0     H79054   2.485   9.337  11.099 -0.6838 -0.0581 -0.4175
  586MOL0     H79055   2.340   9.447  10.914 -0.6892 -0.4336 -1.4141
  586MOL0     H79056   2.367   9.304  10.816 -0.5126 -0.9922  1.1796
  586MOL0     H79057   2.246   9.304  11.096  0.5603 -3.4413  0.1141
  586MOL0     H79058   2.301   9.162  11.014 -1.7913 -0.0845 -1.7882
  586MOL0     H79059   2.078   9.336  10.934 -0.9723 -0.7661  0.8034
  586MOL0     H79060   2.133   9.213  10.826  3.1062 -2.3608  0.9999
  586MOL0     H79061   2.064   9.186  11.205  1.1137  1.4483 -2.6351
  586MOL0     H79062   1.741   8.941  11.244 -0.2799  1.4323 -1.3533
  586MOL0     H79063   1.917   8.906  11.287  1.6127  2.1890  1.0817
  586MOL0     H79064   1.956   9.087  11.412 -0.3142  0.2747 -0.5173
  586MOL0     H79065   1.822   9.180  11.352 -0.9656 -0.2011 -1.4814
  586MOL0     H79066   1.799   8.918  11.512  0.6204  0.4163  1.7857
  586MOL0     H79067   1.682   9.060  11.474  0.7171  3.1934 -4.1567
  586MOL0     H79068   1.911   9.054  11.674 -0.8407 -0.1530  2.2254
  586MOL0     H79069   1.742   9.058  11.707  0.1639  0.1366 -0.7937
  586MOL0     H79070   1.638   9.298  11.452 -0.9006  0.7279 -0.6405
  586MOL0     H79071   1.468   9.481  11.500 -1.4913 -1.0713  0.6465
  586MOL0     H79072   1.226   9.890  11.621  0.8863  0.0589  2.8908
  586MOL0     H79073   0.992   9.923  11.644  1.9822  1.1181  1.2753
  586MOL0     H79074   0.763   9.830  11.542 -0.3120 -0.4716 -0.7994
  586MOL0     H79075   0.735   9.656  11.555 -0.6154 -0.5443  0.9711
  586MOL0     H79076   0.569   9.694  11.711 -1.6929  0.1150 -0.4821
  586MOL0     H79077   0.588   9.873  11.698 -1.3425  1.3796 -2.5866
  586MOL0     H79078   0.563   9.853  11.449  0.3615  1.3559  1.6527
  586MOL0     H79079   0.542   9.674  11.467  1.7192 -0.7441  1.2271
  586MOL0     H79080   0.348   9.898  11.562 -2.6703  0.4335 -2.8329
  586MOL0     H79081   0.319   9.723  11.589  1.6589 -0.2929  0.7371
  586MOL0     H79082   0.355   9.735  11.320  0.1975 -2.6687  3.2662
  586MOL0     H79083   0.322   9.904  11.346  0.6949 -0.6053 -2.1706
  586MOL0     H79084   0.132   9.669  11.418  1.6903 -0.2862 -0.6813
  586MOL0     H79085   0.098   9.841  11.455 -0.6040  3.0486 -3.4430
  586MOL0     H79086   0.150   9.726  11.189  0.9281  2.2522 -0.2472
  586MOL0     H79087   0.105   9.887  11.215 -2.9131  1.4721  0.9133
  586MOL0     H79088  -0.078   9.753  11.134  2.4937 -0.3480 -0.4078
  586MOL0     H79089  -0.079   9.646  11.273 -1.2070  0.4319  0.7192
  586MOL0     H79090   0.942   9.510  11.766  2.0892 -0.3574  2.4529
  586MOL0     H79091   1.191   9.480  11.668  0.1262  0.3701  0.7941
  586MOL0     H79092   1.615   9.516  11.900 -2.0103 -1.5372  0.9540
  586MOL0     H79093   1.784   9.321  11.861  0.5488  2.4960  1.1153
  586MOL0     H79094   3.099   9.280  11.299  0.8370 -0.0010 -2.6418
  586MOL0     H79095   3.300   9.245  11.420 -4.7059 -1.6848  1.9217
  586MOL0     H79096   3.589   9.342  11.697  0.4597 -2.5632  3.4468
  586MOL0     H79097   3.790   9.318  11.846  1.1038 -2.9884  0.2949
  586MOL0     H79098   4.219   9.389  11.817  2.7292 -0.2324 -1.4331
  586MOL0     H79099   4.160   9.395  11.651 -0.6870 -1.0799 -0.8884
  586MOL0     H79100   4.198   9.147  11.620  1.2932  0.5926 -0.8151
  586MOL0     H79101   4.241   9.128  11.791  2.7897  1.5147  0.6404
  586MOL0     H79102   4.426   9.301  11.762 -0.7075 -0.6429 -0.6187
  586MOL0     H79103   4.418   9.289  11.594 -3.5249 -1.1854 -1.8977
  586MOL0     H79104   4.565   9.133  11.708 -1.1845  3.9658  2.3918
  586MOL0     H79105   4.440   9.036  11.766  0.9432 -1.8269 -1.2044
  586MOL0     H79106   4.359   8.923  11.383  0.0531  3.8561 -1.2294
  586MOL0     H79107   4.040   9.288  11.505  0.6052 -0.7889  2.2762
  586MOL0     H79108   3.790   9.394  11.271  0.5332 -1.0708 -2.8598
  586MOL0     H79109   3.958   9.325  11.299  0.2386  0.1419  0.4825
  586MOL0     H79110   3.813   9.222  11.264 -3.0015  0.5775  1.9387
  587MOL0     O79111   1.905   7.534   7.985  0.1085 -0.3846 -0.4061
  587MOL0     C79112   1.926   7.655   7.952  0.0468  1.2229 -0.0199
  587MOL0     O79113   1.846   7.730   7.877  0.3269  0.7527 -0.2198
  587MOL0     C79114   1.731   7.675   7.819  0.2361 -0.7540  0.1569
  587MOL0     C79115   1.689   7.749   7.701  0.7642 -0.5241  0.6726
  587MOL0     C79116   1.571   7.710   7.636  0.2165  0.0741  0.0012
  587MOL0     C79117   1.488   7.607   7.691 -0.9065  0.6148 -0.8716
  587MOL0     O79118   1.378   7.566   7.624  0.5336 -0.9221 -0.2018
  587MOL0     C79119   1.263   7.633   7.689  0.4122  0.5333  0.5307
  587MOL0     C79120   1.139   7.621   7.599 -0.6231  1.0685  0.0281
  587MOL0     C79121   1.178   7.685   7.455  0.0046 -0.5594 -0.2130
  587MOL0     C79122   1.168   7.847   7.465  0.0452  1.1591  1.1086
  587MOL0     C79123   1.194   7.921   7.329  0.1660  0.5313  0.6306
  587MOL0     C79124   1.112   7.871   7.209 -0.0534 -0.6746 -0.3759
  587MOL0     C79125   1.094   7.975   7.097  0.0096 -0.0746 -0.0848
  587MOL0     C79126   1.023   7.912   6.977  0.7204 -0.2037  0.0290
  587MOL0     N79127   1.037   7.982   6.854  0.0794  0.5091  0.4067
  587MOL0     C79128   0.953   8.083   6.804  0.0809 -0.3759 -0.4861
  587MOL0     C79129   1.027   8.121   6.698  0.0587  0.4486  0.8244
  587MOL0     C79130   0.990   8.248   6.634  0.1008  0.1967 -0.3287
  587MOL0     C79131   0.998   8.365   6.733 -0.9219  0.3485  0.4713
  587MOL0     C79132   1.147   8.408   6.750 -0.3083  0.0018  0.4605
  587MOL0     C79133   1.185   8.501   6.633  0.0069 -0.0052 -0.3282
  587MOL0     O79134   1.130   8.632   6.659  0.0095  0.0303  1.0651
  587MOL0     C79135   1.136   8.725   6.558  0.5182 -0.6825 -0.1999
  587MOL0     C79136   1.240   8.733   6.466 -0.6654 -0.5469  0.0873
  587MOL0     C79137   1.235   8.839   6.373 -0.1639  0.2071  0.1616
  587MOL0     C79138   1.128   8.933   6.363  0.0186 -0.2193  0.3036
  587MOL0     C79139   1.135   9.035   6.260 -0.4308  0.5504  0.0862
  587MOL0     O79140   1.024   9.110   6.234 -0.1490 -0.8999 -0.8919
  587MOL0     C79141   1.032   9.204   6.140 -0.0187 -0.7977 -0.5794
  587MOL0     C79142   0.984   9.332   6.182  0.5416  0.3042  0.2840
  587MOL0     C79143   0.989   9.428   6.078 -0.3173  0.0071  0.5810
  587MOL0     C79144   1.027   9.402   5.944 -0.6330 -0.3075 -0.3463
  587MOL0     O79145   1.048   9.504   5.855 -0.0662  0.3012 -0.3291
  587MOL0     C79146   1.009   9.641   5.889 -0.0191  0.3091 -0.2368
  587MOL0     C79147   1.037   9.717   5.768 -0.4771 -0.2040 -0.1365
  587MOL0     C79148   1.004   9.866   5.753 -0.3226 -0.5880 -0.5895
  587MOL0     C79149   0.972   9.937   5.885 -0.0409 -0.1967  0.1193
  587MOL0     C79150   0.932  10.092   5.870 -0.6528  0.2525  0.6352
  587MOL0     C79151   0.801  10.127   5.796 -1.6731  0.1936 -1.0640
  587MOL0     C79152   0.672  10.083   5.878 -0.9372 -1.1706 -0.7258
  587MOL0     C79153   0.543  10.091   5.798 -0.0242 -0.0814 -0.7182
  587MOL0    Cl79154   0.423   9.988   5.883 -0.1083  0.0196 -0.1076
  587MOL0     C79155   1.061   9.278   5.911  0.0218  0.1153 -0.3531
  587MOL0     C79156   1.057   9.176   6.008 -0.7572  0.2289  0.1836
  587MOL0     O79157   1.248   9.061   6.216  0.2358  0.1751 -0.1128
  587MOL0     C79158   1.025   8.921   6.453  0.0193 -0.5413 -0.3134
  587MOL0     C79159   1.032   8.819   6.554 -1.1541 -0.2569  0.3863
  587MOL0     N79160   1.143   8.061   6.697 -0.3422  0.5348  0.0593
  587MOL0     N79161   1.142   7.969   6.782  0.0842 -0.2895  0.1354
  587MOL0     C79162   1.530   7.543   7.808 -0.0111 -0.2591  0.3144
  587MOL0     C79163   1.647   7.585   7.875  0.4230  0.2411  0.1143
  587MOL0     C79164   2.043   7.720   8.024  0.5704 -0.3737 -0.0324
  587MOL0     C79165   2.047   7.867   8.021 -0.1883  0.3755  0.5291
  587MOL0     C79166   2.143   7.940   8.082 -0.4168 -0.6665 -0.6609
  587MOL0     C79167   2.235   7.883   8.166 -0.1683 -0.1958 -0.8474
  587MOL0     O79168   2.314   7.965   8.245 -0.1484  1.1514 -0.7381
  587MOL0     C79169   2.264   8.061   8.333 -0.0982  0.1622 -0.6465
  587MOL0     C79170   2.345   8.186   8.301 -0.1166 -0.1556  0.5384
  587MOL0     C79171   2.393   8.263   8.423 -0.2207 -0.6266 -0.0384
  587MOL0     C79172   2.277   8.334   8.488  0.0385 -0.1895  0.4877
  587MOL0     C79173   2.318   8.431   8.580  0.2106  0.1960  0.2191
  587MOL0     C79174   2.373   8.501   8.659 -0.6739  0.5786 -0.8288
  587MOL0     C79175   2.247   7.748   8.160 -0.6081 -0.2167  0.3109
  587MOL0     C79176   2.149   7.659   8.097  0.4562 -1.2853  0.0009
  587MOL0     C79177   2.166   7.516   8.120 -0.7889  0.1294  0.5343
  587MOL0     H79178   1.732   7.847   7.683  0.4380 -0.6405 -0.8210
  587MOL0     H79179   1.522   7.775   7.564 -1.7265 -0.9963  0.2835
  587MOL0     H79180   1.250   7.576   7.782  2.3503 -2.5596 -0.8951
  587MOL0     H79181   1.268   7.741   7.703 -0.5493  0.5950  0.4718
  587MOL0     H79182   1.052   7.660   7.652 -1.0410  0.5896 -0.2885
  587MOL0     H79183   1.116   7.515   7.581 -1.2321  1.0865  0.6558
  587MOL0     H79184   1.097   7.656   7.387  1.2260 -2.5438 -0.8933
  587MOL0     H79185   1.276   7.648   7.426  0.6791 -2.2257  3.5475
  587MOL0     H79186   1.071   7.884   7.500 -1.5835 -1.0737 -0.7312
  587MOL0     H79187   1.244   7.880   7.536 -2.4136  4.6932  2.4143
  587MOL0     H79188   1.176   8.027   7.345  0.5444  0.9879 -1.5882
  587MOL0     H79189   1.300   7.902   7.308  0.1750  1.1565  0.0617
  587MOL0     H79190   1.143   7.773   7.171  3.4936  0.4984 -0.9119
  587MOL0     H79191   1.010   7.863   7.247 -0.8447  1.3063 -1.9351
  587MOL0     H79192   1.190   8.022   7.073  1.4098 -1.7423  1.9138
  587MOL0     H79193   1.027   8.054   7.135 -1.8189 -1.7796  0.4151
  587MOL0     H79194   1.077   7.818   6.965 -1.6202 -1.5668 -0.4423
  587MOL0     H79195   0.917   7.885   6.984 -0.4398  3.5442 -0.8166
  587MOL0     H79196   0.866   8.128   6.850  0.6533  0.8127 -0.5409
  587MOL0     H79197   1.061   8.263   6.553  2.0881  0.0245  1.3111
  587MOL0     H79198   0.883   8.236   6.614 -0.4356  1.0124  1.7317
  587MOL0     H79199   0.934   8.450   6.705  0.4546  1.2406 -0.0885
  587MOL0     H79200   0.970   8.333   6.834  0.6264  0.4344  0.9393
  587MOL0     H79201   1.208   8.318   6.763 -0.2402 -0.0150  0.0449
  587MOL0     H79202   1.165   8.469   6.840 -0.0823  0.2578  0.2427
  587MOL0     H79203   1.146   8.462   6.538 -1.7865  2.2955 -0.6255
  587MOL0     H79204   1.294   8.509   6.640 -0.1979  1.7068  2.2705
  587MOL0     H79205   1.310   8.650   6.463 -1.5472 -1.3569  1.1747
  587MOL0     H79206   1.314   8.834   6.298  2.7576 -0.2462  3.0378
  587MOL0     H79207   0.955   9.350   6.286  0.8056 -0.4241  0.4901
  587MOL0     H79208   0.977   9.531   6.108  0.4808  0.5644 -0.8704
  587MOL0     H79209   0.909   9.649   5.933  0.4323  1.2393  0.6516
  587MOL0     H79210   1.069   9.700   5.959 -0.8159  2.3061 -1.1624
  587MOL0     H79211   1.146   9.721   5.760 -0.5219 -1.3436 -1.7347
  587MOL0     H79212   1.002   9.664   5.679 -0.2942  0.6005 -0.6935
  587MOL0     H79213   1.092   9.906   5.703 -0.4264  1.3989  0.7222
  587MOL0     H79214   0.922   9.874   5.681  0.4384  2.3724 -1.2467
  587MOL0     H79215   1.063   9.934   5.945 -0.0695 -1.9699  0.1105
  587MOL0     H79216   0.880   9.895   5.927 -1.6050  2.7347 -0.0802
  587MOL0     H79217   1.011  10.144   5.815 -0.5637 -2.4871 -2.1088
  587MOL0     H79218   0.935  10.138   5.969  2.3854  0.3087  0.6096
  587MOL0     H79219   0.810  10.234   5.775  2.8202  0.2997  0.3510
  587MOL0     H79220   0.783  10.077   5.700 -0.2724 -2.1609 -0.1859
  587MOL0     H79221   0.650  10.147   5.963 -2.5859  1.2022 -2.7793
  587MOL0     H79222   0.680   9.980   5.914  1.7893 -0.4864  0.8710
  587MOL0     H79223   0.496  10.189   5.803 -0.1620 -0.1925  0.9784
  587MOL0     H79224   0.556  10.057   5.695  2.9261  2.7056 -1.4047
  587MOL0     H79225   1.102   9.259   5.812 -2.2895  0.5312 -1.4503
  587MOL0     H79226   1.079   9.080   5.962 -1.1673  1.3980 -2.7120
  587MOL0     H79227   0.939   8.987   6.442  1.2567  0.8199 -2.5842
  587MOL0     H79228   0.963   8.821   6.638 -0.3625 -3.0437  1.1973
  587MOL0     H79229   1.484   7.452   7.845  1.3188 -0.6955  0.9749
  587MOL0     H79230   1.677   7.528   7.962  0.2315  1.1243  0.7706
  587MOL0     H79231   1.963   7.911   7.967  0.3311 -1.2270 -1.7074
  587MOL0     H79232   2.131   8.048   8.082  0.6922 -0.5055  1.6738
  587MOL0     H79233   2.264   8.035   8.439  1.0199  1.7584 -0.2220
  587MOL0     H79234   2.158   8.080   8.316 -0.5183  0.1955  1.7411
  587MOL0     H79235   2.283   8.243   8.232  0.5974 -0.3282 -0.2685
  587MOL0     H79236   2.435   8.153   8.247 -1.2053 -0.2260 -1.3136
  587MOL0     H79237   2.466   8.338   8.390 -0.1616 -0.0509  1.3227
  587MOL0     H79238   2.439   8.196   8.495 -0.5404 -1.4264 -0.5698
  587MOL0     H79239   2.217   8.381   8.409 -0.5261  1.0071  1.5975
  587MOL0     H79240   2.211   8.263   8.537  0.3561  0.0296  1.2377
  587MOL0     H79241   2.433   8.550   8.732 -1.3697 -0.7284  0.6719
  587MOL0     H79242   2.318   7.705   8.230 -1.4578 -0.6027  0.9546
  587MOL0     H79243   2.271   7.500   8.145  0.2588  1.8053 -2.3143
  587MOL0     H79244   2.111   7.479   8.207 -0.7164  0.0165  0.5321
  587MOL0     H79245   2.155   7.458   8.028  3.3805  1.2986 -0.9111
  588MOL0     O79246   7.778   2.419   9.859  0.8443  0.5100  0.5449
  588MOL0     C79247   7.868   2.503   9.871  0.0177  1.0423  0.7500
  588MOL0     O79248   7.894   2.582   9.982  0.7950 -0.3806 -0.3525
  588MOL0     C79249   7.856   2.527  10.101 -0.0684  0.9536  0.6758
  588MOL0     C79250   7.738   2.569  10.156  0.4605  0.4246  0.1350
  588MOL0     C79251   7.717   2.524  10.291  0.4755 -0.3027  0.3303
  588MOL0     C79252   7.811   2.459  10.366  0.0132 -0.1094 -0.2048
  588MOL0     O79253   7.761   2.447  10.497 -0.5895 -0.2797 -0.0371
  588MOL0     C79254   7.841   2.363  10.586  0.8317 -0.3060  0.5098
  588MOL0     C79255   7.764   2.322  10.711 -0.5537 -1.1009  0.4394
  588MOL0     C79256   7.858   2.241  10.803  0.7079  1.1666 -0.4219
  588MOL0     C79257   7.771   2.162  10.900  0.4294  0.6020  0.8630
  588MOL0     C79258   7.842   2.122  11.034  0.7317  0.6458 -0.1212
  588MOL0     C79259   7.943   2.007  11.016  0.2591  0.2607 -0.4645
  588MOL0     C79260   8.018   1.967  11.141  0.7868  0.5276  0.7863
  588MOL0     C79261   7.928   1.911  11.262  0.3902  0.6982  0.6902
  588MOL0     N79262   7.843   1.795  11.221  0.1657  0.4691  0.4726
  588MOL0     C79263   7.715   1.793  11.178  0.1651 -0.4335 -0.7236
  588MOL0     C79264   7.691   1.669  11.153  0.4199  0.9109  0.2494
  588MOL0     C79265   7.559   1.634  11.089  0.0666 -0.2650 -1.1975
  588MOL0     C79266   7.539   1.481  11.056  1.2180 -0.8387  0.1908
  588MOL0     C79267   7.485   1.398  11.184  0.2077 -0.2883  0.0756
  588MOL0     C79268   7.364   1.320  11.150  0.0991  0.7702  0.2213
  588MOL0     O79269   7.322   1.248  11.269 -0.3729 -0.0012 -0.3315
  588MOL0     C79270   7.192   1.244  11.312 -0.6073 -0.2619  0.4808
  588MOL0     C79271   7.177   1.201  11.443  0.2338  0.2994  0.3499
  588MOL0     C79272   7.053   1.184  11.504 -0.7981 -0.9437  0.6051
  588MOL0     C79273   6.934   1.235  11.440 -0.6999 -0.2945 -0.7282
  588MOL0     C79274   6.798   1.232  11.488 -0.1521 -0.5022 -1.5091
  588MOL0     O79275   6.690   1.311  11.438 -0.1090  0.3737  0.2211
  588MOL0     C79276   6.572   1.332  11.513 -0.8699 -0.9256 -0.1775
  588MOL0     C79277   6.567   1.340  11.651  0.5949  0.2061  0.6396
  588MOL0     C79278   6.448   1.380  11.730  0.0024  0.2455 -0.4242
  588MOL0     C79279   6.329   1.404  11.657  0.7423  0.1694 -0.3308
  588MOL0     O79280   6.208   1.431  11.724  0.2133  0.4386 -0.1807
  588MOL0     C79281   6.184   1.332  11.830  0.6918 -0.8796 -0.2118
  588MOL0     C79282   6.042   1.366  11.879  1.6150 -0.2044  0.1281
  588MOL0     C79283   5.991   1.255  11.962  1.2842  0.8417 -0.6351
  588MOL0     C79284   5.860   1.297  12.032  0.2967 -0.5278 -0.2239
  588MOL0     C79285   5.809   1.170  12.113 -1.1675 -1.3058 -0.8064
  588MOL0     C79286   5.681   1.215  12.175  0.3179 -0.2193 -0.0112
  588MOL0     C79287   5.598   1.105  12.237 -0.1377 -0.0246 -0.4525
  588MOL0     C79288   5.682   1.018  12.340  0.1024 -0.9171  0.1563
  588MOL0    Cl79289   5.768   0.895  12.252 -0.2087 -0.8183  0.1193
  588MOL0     C79290   6.336   1.403  11.521  0.6015 -0.1776  0.7896
  588MOL0     C79291   6.457   1.367  11.451  0.1335 -1.1681  0.4388
  588MOL0     O79292   6.795   1.161  11.589 -0.1564 -1.1360 -0.0173
  588MOL0     C79293   6.948   1.278  11.301  0.4606  0.0671  0.1389
  588MOL0     C79294   7.079   1.288  11.241  0.7898  0.8812  0.5677
  588MOL0     N79295   7.809   1.591  11.168  0.2922 -0.5519  0.4179
  588MOL0     N79296   7.897   1.671  11.221  0.2891 -0.6902  0.6329
  588MOL0     C79297   7.933   2.407  10.301  0.1314  0.0933 -0.0766
  588MOL0     C79298   7.952   2.439  10.169  0.5364 -0.9811 -0.0975
  588MOL0     C79299   7.947   2.521   9.744  1.0682  0.0894  0.1844
  588MOL0     C79300   7.993   2.406   9.675 -0.5127 -0.5089 -1.1668
  588MOL0     C79301   8.062   2.418   9.551 -0.4064 -0.2258 -0.2778
  588MOL0     C79302   8.109   2.544   9.501  0.4356 -1.1677  0.1945
  588MOL0     O79303   8.170   2.579   9.375  0.0957  0.2650  0.5671
  588MOL0     C79304   8.200   2.480   9.267  0.4548 -0.4970  0.8064
  588MOL0     C79305   8.339   2.424   9.275  0.5732  0.2539 -0.0381
  588MOL0     C79306   8.438   2.539   9.267  0.3741 -0.0134  0.7796
  588MOL0     C79307   8.578   2.490   9.222  1.4746  0.2674  0.3735
  588MOL0     C79308   8.579   2.442   9.081 -0.1797  0.2654  0.1302
  588MOL0     C79309   8.577   2.390   8.968 -0.1694 -0.0108 -0.4973
  588MOL0     C79310   8.072   2.644   9.582 -0.3526 -0.5336 -0.0036
  588MOL0     C79311   7.990   2.644   9.697  0.6064 -0.1263 -0.2702
  588MOL0     C79312   7.964   2.777   9.774 -0.1543  0.1660  0.2670
  588MOL0     H79313   7.673   2.630  10.095 -0.6935 -1.1686 -0.3142
  588MOL0     H79314   7.622   2.547  10.338  1.1087  0.3361  1.3422
  588MOL0     H79315   7.870   2.278  10.525  3.7836  1.1294 -0.2709
  588MOL0     H79316   7.936   2.414  10.602 -0.3716  1.8779  1.2101
  588MOL0     H79317   7.667   2.278  10.686 -1.7489  0.3703  2.2149
  588MOL0     H79318   7.734   2.414  10.761 -2.9486 -1.8808  0.5829
  588MOL0     H79319   7.925   2.314  10.850  2.1475 -1.8412  2.6504
  588MOL0     H79320   7.903   2.169  10.734 -3.8804 -0.7177 -1.8270
  588MOL0     H79321   7.691   2.225  10.941 -0.4187 -0.0149  0.1909
  588MOL0     H79322   7.739   2.071  10.849  0.2130 -0.3134  2.5464
  588MOL0     H79323   7.888   2.210  11.080 -0.2255  1.5362 -0.8181
  588MOL0     H79324   7.770   2.078  11.104 -0.2797  1.2237 -0.7713
  588MOL0     H79325   7.903   1.913  10.978  3.5946 -1.3891 -0.2700
  588MOL0     H79326   8.014   2.041  10.940  1.0811  0.2648  0.2947
  588MOL0     H79327   8.083   2.048  11.175 -0.7013  0.9933  2.6849
  588MOL0     H79328   8.087   1.888  11.111 -0.4427 -0.8390  1.4018
  588MOL0     H79329   7.998   1.879  11.340 -1.5275 -1.4474  1.6664
  588MOL0     H79330   7.868   1.996  11.294  0.6374  0.5693  1.5102
  588MOL0     H79331   7.637   1.865  11.156  0.8351 -0.0612 -1.9616
  588MOL0     H79332   7.480   1.681  11.149  0.4703  0.9043 -1.5587
  588MOL0     H79333   7.551   1.687  10.994  3.1795  1.4378 -0.6426
  588MOL0     H79334   7.471   1.473  10.971  0.9690 -1.8418  0.4778
  588MOL0     H79335   7.623   1.421  11.023  0.8059 -3.4564  3.3651
  588MOL0     H79336   7.470   1.470  11.264  0.0939 -0.0757 -0.1387
  588MOL0     H79337   7.565   1.333  11.222  0.4195 -0.3007 -0.3858
  588MOL0     H79338   7.388   1.250  11.069 -2.0330  3.2582 -2.8238
  588MOL0     H79339   7.291   1.388  11.105  2.1151  2.3446 -0.8391
  588MOL0     H79340   7.259   1.168  11.505 -1.1714  2.8092  3.8335
  588MOL0     H79341   7.055   1.143  11.605  3.0169  0.0517  1.0934
  588MOL0     H79342   6.658   1.315  11.704  0.6969  1.0050  0.8498
  588MOL0     H79343   6.451   1.381  11.838  0.4456 -2.2756 -0.3397
  588MOL0     H79344   6.201   1.231  11.793 -2.0078 -1.4722 -0.0656
  588MOL0     H79345   6.253   1.348  11.913 -0.6361 -1.8015  1.1334
  588MOL0     H79346   6.036   1.463  11.930 -2.9657 -0.8245  1.2070
  588MOL0     H79347   5.986   1.367  11.785  0.6992 -1.8975  0.6194
  588MOL0     H79348   5.976   1.162  11.907  1.4545  1.0737 -1.0789
  588MOL0     H79349   6.070   1.245  12.038 -1.8662 -0.1047  2.8432
  588MOL0     H79350   5.785   1.324  11.957  1.9614  1.2481 -1.3553
  588MOL0     H79351   5.872   1.377  12.106  0.2299 -1.3911  0.7369
  588MOL0     H79352   5.878   1.146  12.194  0.3005  1.2884 -1.1963
  588MOL0     H79353   5.776   1.081  12.057 -0.0016 -0.6374 -2.6515
  588MOL0     H79354   5.698   1.298  12.244 -4.7699  1.1850 -0.0097
  588MOL0     H79355   5.619   1.263  12.099  1.0211 -1.2468 -1.2668
  588MOL0     H79356   5.554   1.047  12.155 -3.2073  3.6742 -1.7170
  588MOL0     H79357   5.523   1.158  12.298 -1.2809  0.4361 -2.2001
  588MOL0     H79358   5.742   1.074  12.413 -3.1033  0.7682  1.7187
  588MOL0     H79359   5.612   0.970  12.409  1.9555 -0.6666  2.3284
  588MOL0     H79360   6.244   1.427  11.470  1.1958 -0.7294 -0.5839
  588MOL0     H79361   6.465   1.391  11.346  3.1397  1.2611  1.0566
  588MOL0     H79362   6.861   1.305  11.242  1.3542  2.4323 -0.2380
  588MOL0     H79363   7.073   1.323  11.139 -1.2419  2.7581  1.2700
  588MOL0     H79364   8.004   2.352  10.362  1.6958  2.5912  0.4750
  588MOL0     H79365   8.042   2.411  10.116  1.5463  0.4895  0.7676
  588MOL0     H79366   7.954   2.313   9.717 -1.0263 -0.0203 -0.5440
  588MOL0     H79367   8.071   2.318   9.509 -1.2063 -0.4769  0.1297
  588MOL0     H79368   8.178   2.523   9.168 -3.0048 -1.8102  0.8696
  588MOL0     H79369   8.133   2.394   9.281  0.3179 -0.9434 -1.9130
  588MOL0     H79370   8.355   2.348   9.198 -0.1573  0.6339 -0.5776
  588MOL0     H79371   8.349   2.379   9.374 -0.8093 -2.8942 -1.1914
  588MOL0     H79372   8.441   2.598   9.359 -0.0446  0.2298  0.6424
  588MOL0     H79373   8.400   2.607   9.191  0.2621  0.2568  1.0756
  588MOL0     H79374   8.655   2.567   9.230  0.7096  0.8450  2.7030
  588MOL0     H79375   8.619   2.419   9.294  1.2725 -0.2771 -0.0370
  588MOL0     H79376   8.533   2.360   8.875 -2.5330  4.8287 -1.2548
  588MOL0     H79377   8.101   2.741   9.542 -2.2948 -1.1276 -3.2510
  588MOL0     H79378   8.027   2.788   9.863  0.2747  1.4979 -0.1833
  588MOL0     H79379   7.978   2.863   9.708 -4.1561 -0.9699 -2.3968
  588MOL0     H79380   7.860   2.787   9.805 -0.6136 -0.2162 -1.1076
  589MOL0     O79381   2.269   3.699   4.900 -0.7823 -0.3996 -0.4931
  589MOL0     C79382   2.198   3.680   5.001 -0.2643 -0.6286  0.0265
  589MOL0     O79383   2.224   3.731   5.124 -0.3509  0.6584 -0.1897
  589MOL0     C79384   2.347   3.782   5.148  0.0575  0.4274  0.0486
  589MOL0     C79385   2.435   3.720   5.228  0.3462 -0.0400  1.2316
  589MOL0     C79386   2.555   3.775   5.265  0.3820 -0.2656  1.1404
  589MOL0     C79387   2.600   3.893   5.202 -0.1115  0.3768  0.1990
  589MOL0     O79388   2.721   3.951   5.209 -0.0922  0.9723 -0.7747
  589MOL0     C79389   2.838   3.867   5.248 -1.2753 -0.0187 -0.5271
  589MOL0     C79390   2.971   3.946   5.218  0.8256  1.5387  0.3086
  589MOL0     C79391   3.108   3.873   5.237  0.3939  0.2958  0.1929
  589MOL0     C79392   3.109   3.725   5.285  0.1332 -0.0389  0.0079
  589MOL0     C79393   3.080   3.723   5.445  0.1117  0.2195 -0.5447
  589MOL0     C79394   3.153   3.604   5.503 -0.1148 -0.9483  0.0835
  589MOL0     C79395   3.127   3.466   5.437 -0.5743 -0.1443  0.1344
  589MOL0     C79396   3.245   3.373   5.466 -0.9632  0.1491  0.0040
  589MOL0     N79397   3.218   3.243   5.400  0.0733 -0.1167  0.0121
  589MOL0     C79398   3.163   3.137   5.483 -0.4994 -0.0494  0.4882
  589MOL0     C79399   3.194   3.025   5.408 -0.8954  0.0802 -0.7731
  589MOL0     C79400   3.162   2.892   5.455  0.2001  0.1570 -0.5692
  589MOL0     C79401   3.057   2.829   5.364  0.2533  0.6008 -0.2109
  589MOL0     C79402   2.982   2.707   5.433  0.9404  0.6657  0.3298
  589MOL0     C79403   2.855   2.677   5.346 -0.3572  0.5708  0.1011
  589MOL0     O79404   2.889   2.628   5.217 -0.0296  0.2696  0.5651
  589MOL0     C79405   2.930   2.504   5.188 -0.5597  0.2721 -0.9530
  589MOL0     C79406   2.983   2.485   5.054  0.2988  0.6153 -0.1324
  589MOL0     C79407   3.041   2.371   5.014  0.2830 -0.2482 -0.2693
  589MOL0     C79408   3.034   2.259   5.095 -0.5227  0.2331  0.9413
  589MOL0     C79409   3.103   2.128   5.057  0.4007  0.2977  0.4722
  589MOL0     O79410   3.144   2.112   4.932  0.5011  0.0679 -0.2076
  589MOL0     C79411   3.152   1.985   4.880 -0.3723 -0.0574 -0.3157
  589MOL0     C79412   3.043   1.934   4.815  0.3935 -1.1470  0.5711
  589MOL0     C79413   3.054   1.807   4.756  0.1179 -0.5267  1.2531
  589MOL0     C79414   3.171   1.731   4.764  0.7015 -0.5238  0.0994
  589MOL0     O79415   3.171   1.614   4.693  0.2810 -0.1984  0.0663
  589MOL0     C79416   3.256   1.507   4.742  1.0050 -1.0208  0.4957
  589MOL0     C79417   3.215   1.370   4.685  0.0682  0.0614  0.2171
  589MOL0     C79418   3.208   1.386   4.533  0.7417  0.5522  1.1334
  589MOL0     C79419   3.228   1.245   4.470 -0.5838 -0.1066  0.0331
  589MOL0     C79420   3.269   1.248   4.327 -0.3281  0.3457  0.5021
  589MOL0     C79421   3.301   1.105   4.270  0.3118 -0.3325  0.5483
  589MOL0     C79422   3.168   1.031   4.232 -0.3688  0.0058  0.2853
  589MOL0     C79423   3.185   0.878   4.238 -0.0669 -0.8125  0.4536
  589MOL0    Cl79424   3.272   0.816   4.101  0.3941 -0.5209 -0.2722
  589MOL0     C79425   3.284   1.788   4.835  0.3347 -0.3711 -0.1017
  589MOL0     C79426   3.265   1.917   4.886 -0.0022 -0.2892 -0.1976
  589MOL0     O79427   3.115   2.040   5.142 -0.6506  0.2932 -0.2304
  589MOL0     C79428   2.983   2.276   5.224 -0.1052  0.4032 -1.2573
  589MOL0     C79429   2.940   2.397   5.273 -0.0866 -0.2735 -0.5380
  589MOL0     N79430   3.261   3.056   5.290 -0.2858 -0.0371  0.1873
  589MOL0     N79431   3.280   3.186   5.284 -0.5846  0.0066 -0.0349
  589MOL0     C79432   2.509   3.964   5.131 -0.5560 -0.6650  0.4534
  589MOL0     C79433   2.387   3.911   5.098  1.1313 -0.5201 -0.4505
  589MOL0     C79434   2.078   3.601   4.971 -0.3591 -0.5954 -0.7864
  589MOL0     C79435   2.092   3.486   4.884  0.1840 -1.4643  1.1108
  589MOL0     C79436   1.990   3.400   4.858  0.8324 -0.6091  0.4697
  589MOL0     C79437   1.862   3.419   4.920 -0.4149  0.5214 -0.0673
  589MOL0     O79438   1.745   3.344   4.920 -0.3553 -0.4272  0.1142
  589MOL0     C79439   1.738   3.246   4.812 -0.6548  0.4808  0.2662
  589MOL0     C79440   1.613   3.144   4.809 -0.3570 -0.2740 -0.5905
  589MOL0     C79441   1.474   3.206   4.763 -0.6200  0.3851 -1.4556
  589MOL0     C79442   1.353   3.105   4.744 -1.5572 -0.4165  0.2723
  589MOL0     C79443   1.328   3.040   4.869  0.4289  0.8521 -0.3203
  589MOL0     C79444   1.338   2.990   4.977 -0.7864  0.3550  0.4503
  589MOL0     C79445   1.854   3.531   5.009  0.0635  0.1165 -0.3362
  589MOL0     C79446   1.953   3.624   5.034 -0.3440  0.2752  0.2783
  589MOL0     C79447   1.913   3.737   5.128 -0.7913 -0.2944 -0.5604
  589MOL0     H79448   2.392   3.635   5.278 -2.3494 -1.0074 -2.3328
  589MOL0     H79449   2.607   3.732   5.351  0.3121  1.7599  2.2636
  589MOL0     H79450   2.841   3.857   5.357 -2.5852 -0.7805 -0.5350
  589MOL0     H79451   2.843   3.770   5.196  1.9939  1.0620 -2.4987
  589MOL0     H79452   2.969   4.036   5.279 -2.2302  1.3839  0.5850
  589MOL0     H79453   2.963   3.985   5.116 -3.1288  1.6543  0.4898
  589MOL0     H79454   3.177   3.933   5.297 -0.0907  3.6440 -2.2685
  589MOL0     H79455   3.142   3.860   5.134 -0.0245 -0.8665  0.1932
  589MOL0     H79456   3.043   3.663   5.225 -0.3873 -0.9923  1.5039
  589MOL0     H79457   3.208   3.688   5.259 -0.4048  0.2610 -2.7473
  589MOL0     H79458   3.114   3.819   5.485  2.2764  1.3829 -4.6855
  589MOL0     H79459   2.974   3.697   5.452 -0.1523  1.6232  1.3949
  589MOL0     H79460   3.261   3.621   5.499 -0.2109  0.8655  2.8606
  589MOL0     H79461   3.131   3.610   5.610 -2.8632  2.5860 -0.5064
  589MOL0     H79462   3.117   3.480   5.329  0.8505  0.4092  0.0452
  589MOL0     H79463   3.047   3.420   5.496  1.7421 -3.7531  0.7957
  589MOL0     H79464   3.335   3.415   5.419 -0.4749 -2.9374 -2.0796
  589MOL0     H79465   3.252   3.358   5.574  0.5910 -2.1270 -0.3517
  589MOL0     H79466   3.115   3.125   5.579 -0.6263  0.9489  0.5629
  589MOL0     H79467   3.252   2.831   5.445  1.9091  2.6026 -0.9974
  589MOL0     H79468   3.145   2.911   5.561  1.8312  3.2324 -0.7475
  589MOL0     H79469   2.979   2.904   5.353  1.1063  1.2958 -1.8157
  589MOL0     H79470   3.093   2.811   5.263 -0.6481  2.8757 -0.9976
  589MOL0     H79471   2.956   2.731   5.537  2.5424 -1.8987  1.4275
  589MOL0     H79472   3.045   2.618   5.432 -0.3446 -0.2750  0.4278
  589MOL0     H79473   2.784   2.760   5.347  0.7310  1.5256 -0.0504
  589MOL0     H79474   2.796   2.599   5.396  2.2742 -0.7835  1.2953
  589MOL0     H79475   2.991   2.575   4.994 -0.4518  0.1760 -0.9071
  589MOL0     H79476   3.108   2.378   4.928 -3.9450 -3.0856 -4.2742
  589MOL0     H79477   2.949   1.989   4.822  1.8277  1.8727 -1.5422
  589MOL0     H79478   2.972   1.764   4.700  0.5601  2.3161 -1.9559
  589MOL0     H79479   3.359   1.530   4.715  0.9355 -0.9059  0.3308
  589MOL0     H79480   3.250   1.516   4.851  1.8257  1.9407  0.3998
  589MOL0     H79481   3.293   1.297   4.709  0.2326 -0.2746 -1.2853
  589MOL0     H79482   3.115   1.352   4.727 -0.3722 -0.5178 -1.0434
  589MOL0     H79483   3.106   1.416   4.506  0.2002 -1.3398  0.9542
  589MOL0     H79484   3.280   1.456   4.489  0.8846 -1.3688 -1.9891
  589MOL0     H79485   3.139   1.183   4.474  0.6416 -2.3195 -2.8112
  589MOL0     H79486   3.304   1.184   4.520 -2.1534 -1.8313  0.3866
  589MOL0     H79487   3.362   1.306   4.317  0.2878 -0.5002  1.2300
  589MOL0     H79488   3.197   1.299   4.261  0.8135  1.3482 -0.0179
  589MOL0     H79489   3.362   1.114   4.180 -0.1052  0.9209  0.3704
  589MOL0     H79490   3.362   1.050   4.342  2.1460  0.2584 -0.4801
  589MOL0     H79491   3.137   1.069   4.135  0.3292  1.1475  0.4882
  589MOL0     H79492   3.095   1.064   4.307 -1.4714  3.1082 -1.9148
  589MOL0     H79493   3.247   0.847   4.322 -0.5606  0.3726  1.2688
  589MOL0     H79494   3.086   0.831   4.234  0.7355 -2.6335  0.6922
  589MOL0     H79495   3.378   1.733   4.832  0.9369  0.4670  2.1131
  589MOL0     H79496   3.350   1.962   4.937  2.6123 -4.6197 -0.2442
  589MOL0     H79497   2.989   2.202   5.303 -1.4729  0.9431 -0.6094
  589MOL0     H79498   2.920   2.400   5.379  1.4219 -1.5272 -0.1749
  589MOL0     H79499   2.543   4.056   5.085 -2.9121  0.6776  1.2135
  589MOL0     H79500   2.328   3.956   5.019 -0.7497 -2.9267 -0.5281
  589MOL0     H79501   2.184   3.437   4.853 -1.2398 -3.1382 -0.7371
  589MOL0     H79502   2.007   3.307   4.805  1.9535 -1.8937  2.9122
  589MOL0     H79503   1.828   3.184   4.815  0.4086  1.9776  2.4336
  589MOL0     H79504   1.747   3.295   4.715  4.7461  0.7119  0.5823
  589MOL0     H79505   1.604   3.079   4.897 -1.5745 -1.6793 -1.7128
  589MOL0     H79506   1.639   3.074   4.730  0.4770  0.8897 -1.3816
  589MOL0     H79507   1.497   3.260   4.671  3.3435 -0.6296 -1.2589
  589MOL0     H79508   1.455   3.283   4.837  3.5305  1.1356 -0.9598
  589MOL0     H79509   1.268   3.164   4.709 -1.8593  0.3312  2.1566
  589MOL0     H79510   1.384   3.037   4.664  1.0863  1.1267 -0.1420
  589MOL0     H79511   1.336   2.951   5.077 -4.7579  0.5224  0.5886
  589MOL0     H79512   1.763   3.551   5.065  0.3196  0.8750 -0.1741
  589MOL0     H79513   1.808   3.751   5.155  0.2690  3.1301  2.6190
  589MOL0     H79514   1.959   3.718   5.225 -0.9118 -1.7181 -0.7530
  589MOL0     H79515   1.943   3.827   5.073 -2.4706  0.1465 -0.7860
  590MOL0     O79516   8.839   2.470   7.030  0.2848  0.2797  0.2876
  590MOL0     C79517   8.720   2.440   7.054 -1.3674 -0.0979 -0.8214
  590MOL0     O79518   8.655   2.326   7.016 -0.7488  0.1921 -0.4807
  590MOL0     C79519   8.730   2.212   7.009  0.2321 -0.3801 -0.2165
  590MOL0     C79520   8.771   2.164   6.887  0.3682 -0.0501  0.7066
  590MOL0     C79521   8.840   2.050   6.873  0.7433  0.4771 -0.6485
  590MOL0     C79522   8.860   1.970   6.980  0.1615  0.3930 -0.0174
  590MOL0     O79523   8.939   1.854   6.951  0.3862 -0.1591  0.4490
  590MOL0     C79524   8.970   1.762   7.048  0.2654  0.2862  0.2810
  590MOL0     C79525   8.835   1.679   7.070 -0.5054 -0.1160 -0.8789
  590MOL0     C79526   8.856   1.571   7.171  1.2184  0.3543  0.3161
  590MOL0     C79527   8.884   1.619   7.317  0.1206 -1.3044 -0.1956
  590MOL0     C79528   8.915   1.508   7.415  1.0357 -0.8327  0.6240
  590MOL0     C79529   8.785   1.483   7.500  0.1665  0.0576  0.7940
  590MOL0     C79530   8.807   1.362   7.590 -0.2560  1.0349  1.0398
  590MOL0     C79531   8.677   1.324   7.645  0.1205 -0.3604  0.5188
  590MOL0     N79532   8.583   1.422   7.696  0.1554 -0.0639 -0.0238
  590MOL0     C79533   8.620   1.500   7.805  0.1139  0.0632 -0.9710
  590MOL0     C79534   8.499   1.543   7.856  0.7104 -0.1818 -0.6085
  590MOL0     C79535   8.498   1.621   7.988 -0.1641  0.7956  0.0305
  590MOL0     C79536   8.482   1.774   7.948  0.5362  0.1168  1.2257
  590MOL0     C79537   8.445   1.862   8.078 -0.0153  0.0523  0.4610
  590MOL0     C79538   8.571   1.891   8.156  1.4412  0.2426  0.4650
  590MOL0     O79539   8.663   1.966   8.071 -0.2402  0.7712 -0.3229
  590MOL0     C79540   8.629   2.099   8.044 -0.2682 -0.1316 -0.1742
  590MOL0     C79541   8.679   2.152   7.924  0.8401 -0.3115 -0.7447
  590MOL0     C79542   8.653   2.285   7.891  0.7308  0.0870  0.6033
  590MOL0     C79543   8.576   2.363   7.980 -0.8437  0.0001 -0.5836
  590MOL0     C79544   8.545   2.502   7.940  0.3511  0.0518 -0.0009
  590MOL0     O79545   8.555   2.526   7.810 -0.0651  0.0856 -0.3029
  590MOL0     C79546   8.580   2.648   7.752  1.2433 -0.1034 -1.1329
  590MOL0     C79547   8.624   2.764   7.826  0.4667 -0.4624 -0.5606
  590MOL0     C79548   8.665   2.877   7.762 -0.4634 -0.2169  0.2665
  590MOL0     C79549   8.648   2.894   7.622  0.3125 -0.0253 -0.8191
  590MOL0     O79550   8.678   3.018   7.581 -0.5748 -0.7693 -0.3669
  590MOL0     C79551   8.639   3.054   7.448 -0.2134  0.9190 -0.4675
  590MOL0     C79552   8.636   3.208   7.448 -0.0847  0.8400 -0.3218
  590MOL0     C79553   8.601   3.251   7.313  0.0044 -0.8228  1.4144
  590MOL0     C79554   8.590   3.407   7.308  0.1208  0.9657  0.2016
  590MOL0     C79555   8.549   3.445   7.165 -0.1304 -0.1813  0.3690
  590MOL0     C79556   8.588   3.589   7.119  0.5501 -0.5313  0.7658
  590MOL0     C79557   8.537   3.621   6.983 -0.4533  0.4737  0.6538
  590MOL0     C79558   8.387   3.613   6.967  0.4316 -0.1040 -0.6503
  590MOL0    Cl79559   8.344   3.688   6.816 -0.1469  0.5163 -0.3741
  590MOL0     C79560   8.597   2.787   7.552 -0.2958  0.0794 -0.5933
  590MOL0     C79561   8.568   2.665   7.616 -0.7831 -0.2527  0.2606
  590MOL0     O79562   8.519   2.578   8.027  0.7141 -0.1822  0.0275
  590MOL0     C79563   8.540   2.310   8.103  0.3870  0.2601 -0.7475
  590MOL0     C79564   8.552   2.171   8.130 -0.6416 -0.8260 -1.3124
  590MOL0     N79565   8.397   1.480   7.782 -0.7029 -0.3495 -0.8718
  590MOL0     N79566   8.442   1.412   7.681  0.2829  0.4477 -1.3013
  590MOL0     C79567   8.810   2.010   7.106  0.0321 -0.3861  0.5878
  590MOL0     C79568   8.751   2.128   7.120 -0.8108  0.3767 -0.4750
  590MOL0     C79569   8.643   2.548   7.121 -1.5613  0.5125 -0.0065
  590MOL0     C79570   8.528   2.513   7.190 -0.2234  0.6091 -0.4301
  590MOL0     C79571   8.431   2.598   7.238 -0.3614 -0.3234  0.9673
  590MOL0     C79572   8.464   2.735   7.220  0.4041 -0.1383 -0.1932
  590MOL0     O79573   8.386   2.832   7.287  0.2030 -0.3221 -0.2014
  590MOL0     C79574   8.251   2.807   7.337  0.3096 -0.2828  0.6780
  590MOL0     C79575   8.248   2.777   7.482 -0.6697 -0.2374  0.2020
  590MOL0     C79576   8.105   2.776   7.549  0.2022  0.0409 -0.1760
  590MOL0     C79577   8.029   2.911   7.575  0.3820  0.6064  1.3087
  590MOL0     C79578   7.954   2.966   7.453 -0.6128  0.8453  0.2304
  590MOL0     C79579   7.921   3.026   7.355 -0.7090  0.5078 -0.0238
  590MOL0     C79580   8.579   2.777   7.163 -0.7241  0.0757  0.1539
  590MOL0     C79581   8.666   2.686   7.109  0.5161 -0.4170 -0.2760
  590MOL0     C79582   8.783   2.758   7.041 -0.2090 -0.2470  0.5412
  590MOL0     H79583   8.752   2.223   6.798  1.6332 -0.9396 -0.1839
  590MOL0     H79584   8.874   2.016   6.775 -1.3576 -2.7613 -0.4114
  590MOL0     H79585   9.050   1.699   7.010  0.4401  1.8441 -2.1513
  590MOL0     H79586   9.013   1.807   7.138  2.4594 -0.8962 -0.1146
  590MOL0     H79587   8.800   1.635   6.976  1.7622  0.8265 -2.2327
  590MOL0     H79588   8.746   1.734   7.102  1.4416  1.1157  3.2104
  590MOL0     H79589   8.936   1.502   7.142  0.9693 -1.8030  4.0850
  590MOL0     H79590   8.758   1.524   7.175  1.8673 -1.0902 -0.0333
  590MOL0     H79591   8.965   1.693   7.320 -0.1883 -0.9582 -0.3204
  590MOL0     H79592   8.798   1.673   7.359  1.4008 -3.1940  5.8798
  590MOL0     H79593   8.951   1.421   7.360 -1.4524 -1.4386 -0.1459
  590MOL0     H79594   8.982   1.557   7.487 -2.3973  2.4852  1.9716
  590MOL0     H79595   8.761   1.571   7.561  0.5073 -0.6045  1.9322
  590MOL0     H79596   8.697   1.467   7.438 -0.5767  1.6356  1.3721
  590MOL0     H79597   8.874   1.392   7.671  0.0603  0.0947  1.1374
  590MOL0     H79598   8.853   1.283   7.530 -1.5870  2.1500 -1.6010
  590MOL0     H79599   8.624   1.288   7.556  0.2967  2.5914 -0.8932
  590MOL0     H79600   8.698   1.252   7.725  0.8200 -0.2497  0.4436
  590MOL0     H79601   8.717   1.529   7.845 -1.6940  3.6106  1.3932
  590MOL0     H79602   8.417   1.584   8.051  0.5455  0.5745  0.8378
  590MOL0     H79603   8.588   1.599   8.047  0.2107  3.0287  0.3782
  590MOL0     H79604   8.577   1.809   7.906 -0.2439  0.7665 -0.0272
  590MOL0     H79605   8.405   1.801   7.876 -1.0397 -2.3577  1.8421
  590MOL0     H79606   8.390   1.803   8.152  1.5122  0.1280  1.6971
  590MOL0     H79607   8.398   1.952   8.037  0.0325 -0.7389 -1.4202
  590MOL0     H79608   8.611   1.790   8.171  1.0487 -0.3911 -2.2467
  590MOL0     H79609   8.552   1.943   8.250 -0.3107 -0.7758  0.7265
  590MOL0     H79610   8.719   2.092   7.843  2.3668  0.1050 -0.3392
  590MOL0     H79611   8.678   2.317   7.791 -0.9318 -0.8162 -0.1382
  590MOL0     H79612   8.620   2.768   7.935 -1.8970 -0.2833 -0.6069
  590MOL0     H79613   8.691   2.957   7.830  4.1278 -1.8342  0.7622
  590MOL0     H79614   8.713   3.016   7.376  0.7646 -0.0895  1.0149
  590MOL0     H79615   8.538   3.020   7.423 -0.2004  0.3170  0.2878
  590MOL0     H79616   8.553   3.246   7.509  0.0218  0.5111  0.0255
  590MOL0     H79617   8.733   3.253   7.468 -0.2540  1.2586 -0.4301
  590MOL0     H79618   8.670   3.213   7.237  0.1737 -2.6781  2.4338
  590MOL0     H79619   8.500   3.219   7.284  0.9511 -0.6067 -2.6909
  590MOL0     H79620   8.689   3.446   7.332  1.3122 -0.8106 -1.4961
  590MOL0     H79621   8.520   3.434   7.387 -1.0245  0.1785 -0.5213
  590MOL0     H79622   8.440   3.440   7.150 -0.0800  1.9895 -1.2727
  590MOL0     H79623   8.608   3.380   7.100  1.1697 -0.6872  2.0060
  590MOL0     H79624   8.544   3.660   7.190 -1.9741 -0.7161 -0.4733
  590MOL0     H79625   8.697   3.593   7.118  0.5418  0.0334  1.3389
  590MOL0     H79626   8.587   3.552   6.914  1.3066  3.8801 -1.7557
  590MOL0     H79627   8.569   3.721   6.951  0.5839  0.2047  0.8220
  590MOL0     H79628   8.341   3.514   6.967 -0.7409  0.4185  0.5969
  590MOL0     H79629   8.354   3.673   7.052 -0.9972 -1.5862 -0.1087
  590MOL0     H79630   8.587   2.789   7.444  0.5561  2.0472 -0.6763
  590MOL0     H79631   8.542   2.578   7.558 -1.6064 -1.1366  1.8831
  590MOL0     H79632   8.495   2.371   8.180  0.9587  1.5200 -1.3760
  590MOL0     H79633   8.512   2.139   8.225  1.4953 -2.2377 -0.8127
  590MOL0     H79634   8.822   1.941   7.189  2.3973 -2.5126 -1.3496
  590MOL0     H79635   8.697   2.156   7.210 -2.1621  2.1181 -1.7561
  590MOL0     H79636   8.508   2.406   7.194  1.5543  0.2698  1.0908
  590MOL0     H79637   8.342   2.552   7.278  0.3609 -1.4160  1.3687
  590MOL0     H79638   8.204   2.731   7.274 -2.6144  2.2620 -0.5344
  590MOL0     H79639   8.194   2.898   7.314  0.0782  0.1131  2.7054
  590MOL0     H79640   8.312   2.845   7.540  1.2761  0.6679 -2.7680
  590MOL0     H79641   8.300   2.681   7.489  1.9744  0.9512 -1.5582
  590MOL0     H79642   8.121   2.744   7.652 -3.2459 -1.0451  0.1578
  590MOL0     H79643   8.036   2.709   7.497 -0.1586  1.0831 -1.0749
  590MOL0     H79644   7.957   2.888   7.655 -1.3301  2.3811  0.3594
  590MOL0     H79645   8.107   2.982   7.602  3.0242 -0.5816 -2.4785
  590MOL0     H79646   7.895   3.081   7.266  1.3902  0.8766 -0.4707
  590MOL0     H79647   8.604   2.882   7.173  1.4050 -0.3253 -0.4303
  590MOL0     H79648   8.788   2.736   6.934  1.8159  3.6753 -0.3401
  590MOL0     H79649   8.788   2.867   7.039  2.7897 -0.3270 -0.8984
  590MOL0     H79650   8.869   2.737   7.104  0.4674 -0.5714 -0.4793
  591MOL0     O79651   2.716   1.397   6.017  0.3641 -0.0051 -0.6470
  591MOL0     C79652   2.793   1.435   5.938  0.3282 -0.1129  0.4918
  591MOL0     O79653   2.775   1.548   5.863 -0.8979  0.4604 -1.1303
  591MOL0     C79654   2.652   1.606   5.841 -0.6853  0.3274  0.2097
  591MOL0     C79655   2.533   1.539   5.808  0.4637  0.1602  0.1590
  591MOL0     C79656   2.417   1.612   5.785  0.4224 -0.7408  0.5748
  591MOL0     C79657   2.415   1.749   5.756 -1.1962 -0.6773 -0.6667
  591MOL0     O79658   2.309   1.833   5.753 -0.0299  0.3908  0.1351
  591MOL0     C79659   2.175   1.774   5.768 -0.9078  0.0659  0.3200
  591MOL0     C79660   2.092   1.881   5.842 -0.5381  0.1318  0.0137
  591MOL0     C79661   1.999   1.943   5.740  0.0242 -0.0679  0.2248
  591MOL0     C79662   1.932   2.064   5.808 -0.0907 -0.2798 -0.3842
  591MOL0     C79663   1.812   2.120   5.728 -0.1727 -0.1438  0.3232
  591MOL0     C79664   1.831   2.219   5.602  0.7066  1.1344  0.0273
  591MOL0     C79665   1.871   2.349   5.641 -1.3136 -0.3134  0.5556
  591MOL0     C79666   1.765   2.457   5.609  0.3232  0.3024 -0.3140
  591MOL0     N79667   1.645   2.443   5.685 -0.7976  0.3789  0.3278
  591MOL0     C79668   1.643   2.441   5.814  0.5905 -0.5073  0.6992
  591MOL0     C79669   1.510   2.392   5.841 -0.5898 -0.2435 -0.1290
  591MOL0     C79670   1.462   2.369   5.981 -1.0831  0.7379 -1.1350
  591MOL0     C79671   1.520   2.245   6.043  1.0954  0.2925  0.4369
  591MOL0     C79672   1.671   2.255   6.085 -0.0233  0.8557  0.0149
  591MOL0     C79673   1.702   2.159   6.201 -0.2144 -1.1003  1.0575
  591MOL0     O79674   1.701   2.023   6.152 -0.5973  0.1137  0.2841
  591MOL0     C79675   1.715   1.924   6.246  0.2626 -0.1113  0.6088
  591MOL0     C79676   1.744   1.791   6.184  0.0681  0.8056  0.6387
  591MOL0     C79677   1.753   1.681   6.269 -0.3355 -0.5147 -0.8269
  591MOL0     C79678   1.737   1.682   6.406 -0.1733 -0.5399  0.6713
  591MOL0     C79679   1.756   1.570   6.496  0.3306 -0.0771  0.0233
  591MOL0     O79680   1.762   1.606   6.625 -0.9441 -0.5011 -1.2445
  591MOL0     C79681   1.787   1.515   6.720  0.4980  0.3170 -0.6618
  591MOL0     C79682   1.903   1.432   6.730 -0.2514 -1.0467  0.3377
  591MOL0     C79683   1.924   1.356   6.852 -0.2290 -0.4392 -0.4003
  591MOL0     C79684   1.828   1.360   6.957 -0.8082 -1.0346 -0.0419
  591MOL0     O79685   1.860   1.302   7.074 -0.5773 -0.3987 -0.4377
  591MOL0     C79686   1.853   1.395   7.191 -0.3469 -0.6738  0.2403
  591MOL0     C79687   1.975   1.408   7.284 -0.2336  0.5044  0.5113
  591MOL0     C79688   2.098   1.410   7.196  0.2722 -0.6493 -0.3302
  591MOL0     C79689   2.132   1.535   7.115 -0.2335 -0.6807  0.4595
  591MOL0     C79690   2.260   1.516   7.044  0.1981  0.5516 -0.4147
  591MOL0     C79691   2.327   1.652   7.005  0.5847 -1.1320 -0.7480
  591MOL0     C79692   2.230   1.729   6.907 -0.7779 -0.1709 -0.0528
  591MOL0     C79693   2.303   1.854   6.855 -0.2117  0.9175  0.8698
  591MOL0    Cl79694   2.313   1.966   6.987  0.1348 -0.0302  0.1952
  591MOL0     C79695   1.719   1.441   6.947  0.1286  0.6015  0.4844
  591MOL0     C79696   1.692   1.513   6.826 -0.6099 -0.9319 -0.2464
  591MOL0     O79697   1.785   1.457   6.455 -0.7230 -0.0849 -0.3237
  591MOL0     C79698   1.711   1.815   6.462  0.9552  0.3548  0.1580
  591MOL0     C79699   1.702   1.926   6.380 -0.0744 -0.9530  0.2862
  591MOL0     N79700   1.448   2.358   5.727  0.5899 -0.4491  0.3515
  591MOL0     N79701   1.528   2.397   5.634 -0.7954  0.4395 -0.1410
  591MOL0     C79702   2.546   1.810   5.755  0.0061  0.4376 -0.6141
  591MOL0     C79703   2.661   1.741   5.807  0.2475 -0.2851  1.3397
  591MOL0     C79704   2.927   1.376   5.950  0.1353 -1.3289 -0.1944
  591MOL0     C79705   3.042   1.456   5.921  0.3448  0.1232  0.6569
  591MOL0     C79706   3.172   1.406   5.943 -0.4533  1.3493 -0.2167
  591MOL0     C79707   3.191   1.277   6.003  0.4263  0.2711  0.2316
  591MOL0     O79708   3.323   1.241   6.023 -0.0836 -0.6189  0.2090
  591MOL0     C79709   3.347   1.104   6.054  0.7620  0.3073 -0.3597
  591MOL0     C79710   3.502   1.109   6.080  0.1293 -0.5571 -0.3068
  591MOL0     C79711   3.547   1.208   6.197 -0.4174  1.1318 -0.6281
  591MOL0     C79712   3.685   1.175   6.257  0.1293 -0.1485  0.4692
  591MOL0     C79713   3.742   1.275   6.351 -0.3948  1.0680 -0.3568
  591MOL0     C79714   3.792   1.357   6.420  0.5670 -0.2296  0.5125
  591MOL0     C79715   3.082   1.196   6.030  0.2111 -0.2735 -0.0841
  591MOL0     C79716   2.952   1.239   5.982 -0.1363  1.0555  0.8417
  591MOL0     C79717   2.852   1.141   6.007  0.1918 -0.4731  1.2818
  591MOL0     H79718   2.534   1.430   5.803 -2.4934  0.1065 -3.4940
  591MOL0     H79719   2.324   1.557   5.789 -0.9058  1.4563  2.9743
  591MOL0     H79720   2.126   1.766   5.671 -0.5229  1.6956 -0.0395
  591MOL0     H79721   2.174   1.675   5.814 -0.7400 -0.3762 -0.6107
  591MOL0     H79722   2.160   1.957   5.882  0.4677 -0.1199 -1.1479
  591MOL0     H79723   2.029   1.846   5.924  0.3678 -1.8505 -0.0589
  591MOL0     H79724   1.922   1.875   5.703  2.0573 -2.4510  0.0493
  591MOL0     H79725   2.064   1.958   5.654 -0.7693  1.9638 -0.0719
  591MOL0     H79726   1.891   2.034   5.905 -0.4906 -1.7191 -0.9775
  591MOL0     H79727   2.012   2.134   5.835  0.3275 -0.3327 -1.4678
  591MOL0     H79728   1.769   2.030   5.683  1.1806  0.1297 -1.6671
  591MOL0     H79729   1.738   2.171   5.789  2.4143  3.3654  0.8885
  591MOL0     H79730   1.913   2.170   5.547 -0.7912 -4.7765  2.2568
  591MOL0     H79731   1.752   2.212   5.526  0.0720 -2.7879  0.8182
  591MOL0     H79732   1.957   2.376   5.579  1.6066 -0.3812  4.1913
  591MOL0     H79733   1.907   2.344   5.744  3.5983  2.0874 -0.7073
  591MOL0     H79734   1.815   2.554   5.618  1.6084 -0.4728  1.4737
  591MOL0     H79735   1.739   2.449   5.503  0.5044 -0.2797 -0.3185
  591MOL0     H79736   1.714   2.486   5.882 -0.1481  0.9386  0.5486
  591MOL0     H79737   1.493   2.447   6.052  1.8970  0.5631 -2.1298
  591MOL0     H79738   1.353   2.364   5.993 -0.9289  1.2554  1.0709
  591MOL0     H79739   1.456   2.213   6.126 -2.6749  1.0264 -1.9213
  591MOL0     H79740   1.519   2.171   5.963  3.8672  0.6637 -0.0453
  591MOL0     H79741   1.697   2.359   6.106 -2.8839  1.4820  0.8647
  591MOL0     H79742   1.722   2.206   6.000 -2.2675 -1.0768 -0.3216
  591MOL0     H79743   1.623   2.173   6.276  1.3923  0.9843  2.4572
  591MOL0     H79744   1.800   2.186   6.241 -0.3390  2.0671 -0.5029
  591MOL0     H79745   1.763   1.765   6.080  0.8886  0.5808  0.8353
  591MOL0     H79746   1.776   1.590   6.213  1.4463  0.1521 -1.2653
  591MOL0     H79747   1.975   1.431   6.649  1.8458 -0.6428  2.0926
  591MOL0     H79748   2.016   1.300   6.844  2.0247  3.1947 -3.4095
  591MOL0     H79749   1.831   1.493   7.147  1.6447  0.6954  2.0622
  591MOL0     H79750   1.776   1.374   7.265  2.0402  1.7522  3.7685
  591MOL0     H79751   1.980   1.501   7.340 -1.4414 -0.0999  1.6755
  591MOL0     H79752   1.964   1.330   7.359 -3.6720 -1.6595 -1.9242
  591MOL0     H79753   2.187   1.401   7.259  1.8882  1.1565 -2.2318
  591MOL0     H79754   2.118   1.331   7.124  3.0131  0.2919 -0.7169
  591MOL0     H79755   2.147   1.614   7.189  0.0077  0.4535 -0.7549
  591MOL0     H79756   2.057   1.567   7.042  2.4115  0.7946 -1.7907
  591MOL0     H79757   2.264   1.453   6.954  1.2692 -3.3619  2.1588
  591MOL0     H79758   2.330   1.467   7.113 -1.0881 -0.3744  0.2596
  591MOL0     H79759   2.326   1.702   7.102 -2.2369 -3.2490  0.4817
  591MOL0     H79760   2.419   1.644   6.947  0.7385  2.4724 -1.2217
  591MOL0     H79761   2.132   1.764   6.942 -1.9222 -1.2093 -2.0087
  591MOL0     H79762   2.215   1.660   6.823  1.4400 -2.1372  1.0297
  591MOL0     H79763   2.401   1.828   6.813 -0.0927 -0.5832  1.9979
  591MOL0     H79764   2.248   1.902   6.774 -1.9335 -2.2262 -0.0201
  591MOL0     H79765   1.650   1.437   7.032 -1.4197 -2.8406 -0.7665
  591MOL0     H79766   1.607   1.580   6.823 -0.9001 -1.3236 -2.4767
  591MOL0     H79767   1.696   1.848   6.565  1.5265 -2.7531  1.3590
  591MOL0     H79768   1.685   2.021   6.431  0.2284  1.2234 -3.3234
  591MOL0     H79769   2.549   1.917   5.740 -0.7795  0.6132  0.3907
  591MOL0     H79770   2.758   1.781   5.833  0.4052 -0.6737  1.3591
  591MOL0     H79771   3.031   1.558   5.886 -1.0656  0.3643  1.7531
  591MOL0     H79772   3.258   1.472   5.935  0.3122  0.3474 -0.4052
  591MOL0     H79773   3.326   1.036   5.971  3.5052 -4.7053  2.5680
  591MOL0     H79774   3.289   1.055   6.133  1.7403  0.0770  0.2403
  591MOL0     H79775   3.546   1.150   5.989 -2.8196 -1.3399 -2.2061
  591MOL0     H79776   3.540   1.007   6.084 -1.2109 -1.0726 -0.4447
  591MOL0     H79777   3.475   1.189   6.277  1.3019 -0.7332  0.5382
  591MOL0     H79778   3.535   1.314   6.171 -0.7781  2.4868  4.2190
  591MOL0     H79779   3.681   1.076   6.302 -0.5089  1.4785  4.3304
  591MOL0     H79780   3.755   1.165   6.173 -1.7248 -0.8487 -1.0651
  591MOL0     H79781   3.826   1.428   6.492  1.1056  1.2475 -1.1314
  591MOL0     H79782   3.087   1.098   6.076  1.9058  1.2887  3.4690
  591MOL0     H79783   2.879   1.042   5.969  1.0843 -0.2358  1.2965
  591MOL0     H79784   2.832   1.127   6.114 -3.4247  0.9166  0.9230
  591MOL0     H79785   2.763   1.161   5.946  1.9030  1.0591 -0.8523
  592MOL0     O79786   2.071   5.715   1.584 -0.5624 -0.0504 -0.2965
  592MOL0     C79787   1.982   5.722   1.506  0.0111  0.1333  0.3422
  592MOL0     O79788   1.920   5.843   1.467  0.1192 -0.4535  0.5327
  592MOL0     C79789   1.946   5.953   1.536 -0.2400  0.2650 -0.8263
  592MOL0     C79790   2.056   6.014   1.517 -0.1752 -0.4528 -0.0216
  592MOL0     C79791   2.096   6.138   1.579 -0.2772  0.4360  0.4331
  592MOL0     C79792   2.011   6.190   1.685 -0.3052  0.3552 -0.3291
  592MOL0     O79793   2.056   6.292   1.769 -0.4112  0.0094  0.2012
  592MOL0     C79794   2.195   6.312   1.789  0.1062 -0.1379 -0.8994
  592MOL0     C79795   2.237   6.405   1.909  0.4321 -0.1800 -0.3578
  592MOL0     C79796   2.198   6.367   2.049 -0.0315  0.9289 -0.6226
  592MOL0     C79797   2.254   6.454   2.156 -1.1175 -0.3510  0.1964
  592MOL0     C79798   2.182   6.445   2.287 -0.1480  0.5176 -0.2532
  592MOL0     C79799   2.159   6.298   2.334  0.8191 -0.5199  0.7285
  592MOL0     C79800   2.065   6.288   2.457  0.5733  1.0044 -0.4840
  592MOL0     C79801   2.027   6.137   2.485  0.1773 -0.3306 -0.4956
  592MOL0     N79802   1.935   6.149   2.600 -0.1063  0.1481 -0.9621
  592MOL0     C79803   1.800   6.143   2.585  0.9068 -0.2624 -0.2117
  592MOL0     C79804   1.749   6.182   2.705 -0.6543  0.2024 -0.3272
  592MOL0     C79805   1.597   6.187   2.746  0.1816  0.1113 -0.0093
  592MOL0     C79806   1.565   6.198   2.897 -0.5446  0.9681  0.1035
  592MOL0     C79807   1.421   6.143   2.916 -0.1507  0.3364 -0.0387
  592MOL0     C79808   1.379   6.131   3.060 -0.0169  0.5258 -0.3543
  592MOL0     O79809   1.384   6.252   3.131  0.2542 -0.2473 -0.2257
  592MOL0     C79810   1.277   6.340   3.122 -0.4200  1.1086 -0.7378
  592MOL0     C79811   1.162   6.324   3.041 -0.0960  0.5238 -0.3310
  592MOL0     C79812   1.083   6.430   3.026 -0.4771 -0.0823  0.9574
  592MOL0     C79813   1.095   6.548   3.090  0.5759 -0.2627 -1.2056
  592MOL0     C79814   0.986   6.644   3.068 -0.6179  0.0506 -0.0269
  592MOL0     O79815   0.924   6.658   2.951  1.0772  0.1786 -0.2792
  592MOL0     C79816   0.810   6.736   2.945  0.4894  0.4061  0.4731
  592MOL0     C79817   0.716   6.765   3.046  0.7062 -0.4531  0.3681
  592MOL0     C79818   0.594   6.832   3.023 -0.5833 -0.0681  0.8682
  592MOL0     C79819   0.562   6.889   2.890 -0.2512  0.3332 -0.9851
  592MOL0     O79820   0.452   6.961   2.865 -0.6079 -0.1113  1.2004
  592MOL0     C79821   0.362   6.990   2.972  0.0209 -0.7390 -0.3352
  592MOL0     C79822   0.240   7.078   2.925 -0.2626 -0.0210 -0.5615
  592MOL0     C79823   0.291   7.212   2.870 -0.4069 -0.6233  0.5769
  592MOL0     C79824   0.177   7.294   2.819  0.5356 -0.7141  0.1907
  592MOL0     C79825   0.232   7.414   2.720  0.4942  0.7470  0.6687
  592MOL0     C79826   0.288   7.533   2.801  0.1901 -0.3375 -0.2702
  592MOL0     C79827   0.312   7.657   2.713  0.1790 -0.2505 -0.3434
  592MOL0     C79828   0.406   7.639   2.591 -0.7153 -0.0753  0.3847
  592MOL0    Cl79829   0.466   7.794   2.533 -0.3867 -0.1700 -0.0001
  592MOL0     C79830   0.655   6.856   2.794  0.5969 -0.4244  0.4973
  592MOL0     C79831   0.769   6.778   2.813 -0.1236 -0.2605 -0.2812
  592MOL0     O79832   0.974   6.720   3.158  0.5569  0.2511 -0.3356
  592MOL0     C79833   1.190   6.556   3.190 -0.6086  0.9739 -0.2482
  592MOL0     C79834   1.284   6.455   3.197 -1.2431  0.3044 -0.6447
  592MOL0     N79835   1.855   6.198   2.794  0.2888  0.1510  0.7242
  592MOL0     N79836   1.967   6.191   2.728 -0.0900 -0.5135 -0.7478
  592MOL0     C79837   1.896   6.119   1.717 -0.8628  0.7436 -0.7717
  592MOL0     C79838   1.864   6.006   1.639 -0.0817  0.3863 -0.0678
  592MOL0     C79839   1.941   5.592   1.448 -0.6265  0.3613 -1.1331
  592MOL0     C79840   1.967   5.476   1.527 -0.1065  0.8532 -0.7873
  592MOL0     C79841   1.941   5.347   1.479  0.9378  0.9717 -0.3046
  592MOL0     C79842   1.883   5.327   1.350  0.3808  0.4644  0.3750
  592MOL0     O79843   1.846   5.212   1.290 -0.5632  0.7083  0.7277
  592MOL0     C79844   1.846   5.092   1.375 -0.8584  0.5966  0.2729
  592MOL0     C79845   1.730   5.068   1.462 -0.1642 -1.0603  0.8147
  592MOL0     C79846   1.595   5.021   1.391  0.0232  0.5171  0.2246
  592MOL0     C79847   1.596   4.867   1.362 -0.3731  0.2487 -0.6066
  592MOL0     C79848   1.539   4.832   1.237 -1.0001 -0.5946  0.2814
  592MOL0     C79849   1.479   4.816   1.131  0.3100  0.4569  0.4145
  592MOL0     C79850   1.863   5.449   1.274  0.9969 -0.1397  0.2912
  592MOL0     C79851   1.885   5.574   1.319 -1.7167  0.7496 -0.2810
  592MOL0     C79852   1.860   5.692   1.232 -0.1783 -0.5809 -0.5417
  592MOL0     H79853   2.116   5.965   1.442 -1.5806 -4.7492  1.3850
  592MOL0     H79854   2.190   6.182   1.548  0.2370  0.8302  2.4096
  592MOL0     H79855   2.242   6.214   1.796 -2.1657 -1.2016  0.4826
  592MOL0     H79856   2.234   6.371   1.705 -1.7864  3.3638  0.4647
  592MOL0     H79857   2.197   6.506   1.902  1.1148  0.6477  4.4024
  592MOL0     H79858   2.345   6.418   1.910  0.1762  2.4598 -0.7475
  592MOL0     H79859   2.228   6.264   2.069 -1.9481 -0.1759 -2.8213
  592MOL0     H79860   2.089   6.364   2.062  0.3796 -2.3515  6.2555
  592MOL0     H79861   2.359   6.426   2.168 -1.0996 -1.9923 -2.8577
  592MOL0     H79862   2.260   6.559   2.125  0.6737  0.0653  1.7823
  592MOL0     H79863   2.240   6.496   2.365  2.0233 -1.1821 -0.6392
  592MOL0     H79864   2.079   6.480   2.278 -0.3522 -0.4437 -2.0252
  592MOL0     H79865   2.111   6.236   2.257  5.4336 -1.8359 -1.4951
  592MOL0     H79866   2.256   6.250   2.350  1.2550 -1.0809 -2.6499
  592MOL0     H79867   1.976   6.348   2.437  0.0551 -0.1185 -1.7009
  592MOL0     H79868   2.132   6.325   2.535 -0.1317  3.9356 -1.1138
  592MOL0     H79869   1.968   6.085   2.409  0.5195  0.6467 -1.4671
  592MOL0     H79870   2.119   6.085   2.513  3.2118  3.0397 -3.2032
  592MOL0     H79871   1.749   6.120   2.493  0.4513  2.3370 -0.6684
  592MOL0     H79872   1.535   6.266   2.702 -1.7395 -0.8793  0.8131
  592MOL0     H79873   1.556   6.097   2.699 -0.4877  0.8234 -0.8426
  592MOL0     H79874   1.643   6.143   2.950 -0.1832  1.1179 -0.2711
  592MOL0     H79875   1.577   6.301   2.933  1.2451  0.0130  2.5304
  592MOL0     H79876   1.412   6.043   2.873  1.9976 -0.1508  0.5562
  592MOL0     H79877   1.351   6.206   2.860 -0.4745 -0.6718 -0.7938
  592MOL0     H79878   1.437   6.054   3.112 -2.3451 -2.1651 -1.4709
  592MOL0     H79879   1.277   6.091   3.054  0.6110 -0.9520 -2.2259
  592MOL0     H79880   1.141   6.233   2.985 -2.3178  0.4192  0.5594
  592MOL0     H79881   0.996   6.420   2.961  0.5282 -1.5003 -0.2290
  592MOL0     H79882   0.736   6.739   3.149  0.8832  1.5633  0.8927
  592MOL0     H79883   0.524   6.843   3.105  1.0249  1.2494  2.1309
  592MOL0     H79884   0.322   6.899   3.017  0.0382  0.7292  2.9546
  592MOL0     H79885   0.419   7.054   3.039  1.7195  2.1369 -4.1535
  592MOL0     H79886   0.186   7.021   2.850 -0.9564 -2.8019  1.8875
  592MOL0     H79887   0.179   7.102   3.013 -1.1174  3.4003 -1.9109
  592MOL0     H79888   0.343   7.277   2.941 -0.1265  3.0020 -2.6668
  592MOL0     H79889   0.380   7.202   2.807 -0.5199 -1.5621  0.5488
  592MOL0     H79890   0.125   7.332   2.907  2.5066 -0.0431  1.1483
  592MOL0     H79891   0.102   7.246   2.756 -1.2307  1.2964  0.6317
  592MOL0     H79892   0.148   7.453   2.662  2.3842 -1.0422 -3.7694
  592MOL0     H79893   0.306   7.377   2.648  0.1305 -0.0261  0.6807
  592MOL0     H79894   0.216   7.558   2.879 -1.0561 -3.0489 -0.4601
  592MOL0     H79895   0.381   7.499   2.847 -0.0876 -1.4851 -0.5222
  592MOL0     H79896   0.356   7.738   2.772  0.4282 -0.2586 -0.5165
  592MOL0     H79897   0.220   7.705   2.679 -1.2181 -1.3555  1.6970
  592MOL0     H79898   0.496   7.584   2.618 -0.3687 -0.2177 -1.0039
  592MOL0     H79899   0.366   7.584   2.505  0.6818 -0.0522 -0.3136
  592MOL0     H79900   0.626   6.889   2.695  0.2659 -1.2099  0.3197
  592MOL0     H79901   0.839   6.761   2.733  0.1257 -0.0521 -0.1125
  592MOL0     H79902   1.211   6.646   3.246 -0.0375  2.1677 -2.2652
  592MOL0     H79903   1.374   6.471   3.255 -2.5048  1.2819  1.1714
  592MOL0     H79904   1.842   6.144   1.807  3.1190 -1.9828  2.7254
  592MOL0     H79905   1.773   5.948   1.654 -0.7288  1.7057  1.4209
  592MOL0     H79906   2.018   5.480   1.623 -0.7354 -2.1455 -0.2225
  592MOL0     H79907   1.969   5.265   1.543  3.4946  1.5785 -0.5492
  592MOL0     H79908   1.932   5.096   1.442  0.7205  2.3230 -1.7320
  592MOL0     H79909   1.863   4.996   1.325 -2.6211  0.2330  0.3084
  592MOL0     H79910   1.701   5.162   1.511 -2.2141  0.4512 -2.8619
  592MOL0     H79911   1.758   4.991   1.534 -0.4786 -2.4601 -0.4896
  592MOL0     H79912   1.598   5.074   1.296 -0.3106 -0.2985 -0.2515
  592MOL0     H79913   1.504   5.045   1.447 -0.3759  0.5272 -0.4262
  592MOL0     H79914   1.700   4.836   1.371 -0.2172  1.1705  1.4862
  592MOL0     H79915   1.545   4.830   1.451  0.1960  1.3579  0.2039
  592MOL0     H79916   1.427   4.793   1.040  1.5287  1.1030 -0.4731
  592MOL0     H79917   1.820   5.442   1.174  0.0526 -2.1838  0.7823
  592MOL0     H79918   1.811   5.666   1.138 -1.4689  0.9732 -0.3366
  592MOL0     H79919   1.795   5.762   1.285  0.1684 -2.6660  2.9927
  592MOL0     H79920   1.950   5.754   1.224 -1.2813  1.1158 -0.3368
  593MOL0     O79921  11.360   2.351   8.043  0.6739  0.2350  0.2153
  593MOL0     C79922  11.265   2.316   7.976  0.3535 -0.7024 -0.4363
  593MOL0     O79923  11.277   2.275   7.850 -0.3543 -0.4515  0.5469
  593MOL0     C79924  11.402   2.284   7.783  0.9548 -0.8566  0.2130
  593MOL0     C79925  11.469   2.405   7.773 -1.2269  0.9685 -0.7582
  593MOL0     C79926  11.597   2.406   7.712 -0.4168 -1.4835  0.4787
  593MOL0     C79927  11.642   2.301   7.640 -0.5161 -0.6730 -0.0486
  593MOL0     O79928  11.748   2.315   7.561  0.4579 -1.1205  0.1036
  593MOL0     C79929  11.822   2.199   7.508  0.6512  0.8748  0.2217
  593MOL0     C79930  11.926   2.242   7.408  0.2955  0.1488 -0.3713
  593MOL0     C79931  11.879   2.268   7.270  0.0762 -0.2938 -0.3544
  593MOL0     C79932  11.984   2.240   7.159  0.0199 -0.2356  0.4939
  593MOL0     C79933  11.978   2.101   7.109  0.2904  0.1137 -1.6389
  593MOL0     C79934  12.049   1.990   7.198 -0.3397  0.7631 -0.7697
  593MOL0     C79935  12.039   1.846   7.138 -0.1796  0.2908 -1.0361
  593MOL0     C79936  12.010   1.746   7.246  0.0235  0.4875 -0.9193
  593MOL0     N79937  12.135   1.671   7.289  0.3554  0.0600 -0.3238
  593MOL0     C79938  12.234   1.613   7.210 -0.1284 -0.2640 -0.1176
  593MOL0     C79939  12.319   1.534   7.294  0.4319 -1.3876 -0.2844
  593MOL0     C79940  12.441   1.453   7.267  0.4271  0.3097  0.9516
  593MOL0     C79941  12.410   1.320   7.188  0.0381 -0.4875 -0.2126
  593MOL0     C79942  12.536   1.232   7.161  0.9173  0.2653 -0.0697
  593MOL0     C79943  12.613   1.188   7.287 -0.0544 -1.3350  0.0614
  593MOL0     O79944  12.537   1.134   7.397  0.2714 -0.4488 -0.6056
  593MOL0     C79945  12.516   1.002   7.389  0.0604 -0.1220 -0.0967
  593MOL0     C79946  12.412   0.963   7.308  0.1096  0.8651 -0.1353
  593MOL0     C79947  12.368   0.833   7.305  0.2695  1.3151 -0.1077
  593MOL0     C79948  12.418   0.740   7.396  0.6292 -0.1428 -0.1851
  593MOL0     C79949  12.376   0.598   7.404  0.4771 -0.6354 -0.7018
  593MOL0     O79950  12.285   0.562   7.311  0.1645  0.2935 -0.3520
  593MOL0     C79951  12.242   0.433   7.290 -0.5188  0.8517 -0.2720
  593MOL0     C79952  12.214   0.396   7.158  0.2355 -0.1898 -0.5976
  593MOL0     C79953  12.164   0.270   7.125  0.7287  0.8388 -0.3485
  593MOL0     C79954  12.159   0.175   7.219 -0.0162 -0.2375 -0.2320
  593MOL0     O79955  12.128   0.047   7.199  0.1040  0.2667  0.1221
  593MOL0     C79956  11.999   0.035   7.131  0.4421 -0.2429  0.1467
  593MOL0     C79957  11.954  -0.117   7.112  0.1740 -0.5214 -0.6476
  593MOL0     C79958  12.007  -0.175   6.979  0.4026 -0.1153 -0.4453
  593MOL0     C79959  11.961  -0.332   6.957 -0.0623 -0.2309  0.0105
  593MOL0     C79960  11.965  -0.382   6.822  0.3449  0.5275 -0.2938
  593MOL0     C79961  11.833  -0.372   6.747 -0.1613 -0.4777  0.1433
  593MOL0     C79962  11.740  -0.491   6.752  0.3602 -0.8884 -0.6626
  593MOL0     C79963  11.651  -0.485   6.627  0.2264 -0.0448 -0.5717
  593MOL0    Cl79964  11.564  -0.335   6.585 -0.0351 -0.3858 -0.0698
  593MOL0     C79965  12.181   0.206   7.358  0.7851 -0.4732  0.0453
  593MOL0     C79966  12.229   0.331   7.393 -1.2666 -1.0292  0.2560
  593MOL0     O79967  12.435   0.527   7.486  0.7854 -0.2860 -0.1996
  593MOL0     C79968  12.519   0.790   7.482  0.1895  0.3472 -0.7264
  593MOL0     C79969  12.565   0.920   7.479 -1.2709  0.1650  0.5367
  593MOL0     N79970  12.276   1.554   7.418  0.1040 -0.1612  0.2570
  593MOL0     N79971  12.168   1.627   7.415  0.3525 -0.1336  0.3851
  593MOL0     C79972  11.562   2.185   7.640  0.0075  0.0776 -1.1453
  593MOL0     C79973  11.440   2.171   7.713  0.2390  0.7424 -0.4260
  593MOL0     C79974  11.128   2.305   8.034 -0.1668 -0.5369  0.6389
  593MOL0     C79975  11.013   2.302   7.947 -0.7662  0.2947  0.7493
  593MOL0     C79976  10.888   2.289   7.999  0.0275 -0.6202  0.0105
  593MOL0     C79977  10.865   2.287   8.135 -0.6619 -0.4278 -0.0913
  593MOL0     O79978  10.741   2.260   8.192  0.3313  0.2865  0.5741
  593MOL0     C79979  10.658   2.165   8.125 -0.2603 -0.1085  1.0293
  593MOL0     C79980  10.726   2.024   8.112 -0.2696  0.1634  0.4960
  593MOL0     C79981  10.703   1.939   7.981 -0.1077  0.2342 -0.2821
  593MOL0     C79982  10.823   1.935   7.889 -1.2728  0.9349  0.1477
  593MOL0     C79983  10.775   1.922   7.749 -0.3261  0.1033  0.4076
  593MOL0     C79984  10.727   1.904   7.642 -0.6295  0.1592  0.2826
  593MOL0     C79985  10.974   2.292   8.219  0.8212  0.0326  0.3148
  593MOL0     C79986  11.107   2.310   8.165 -0.3062  0.0629  0.7219
  593MOL0     C79987  11.201   2.302   8.288 -0.0591  0.7122  0.9969
  593MOL0     H79988  11.430   2.486   7.834 -2.9663  1.2689 -2.1783
  593MOL0     H79989  11.656   2.497   7.707 -2.0583 -0.4327 -0.3140
  593MOL0     H79990  11.873   2.150   7.592  2.0123  2.2748  0.2454
  593MOL0     H79991  11.751   2.131   7.460  0.0258  1.6478  0.0402
  593MOL0     H79992  11.999   2.160   7.406  1.0919  0.8036  0.8155
  593MOL0     H79993  11.979   2.330   7.448 -1.9421  2.1497 -1.5462
  593MOL0     H79994  11.853   2.375   7.264  0.0378 -0.1420  1.7868
  593MOL0     H79995  11.788   2.213   7.243 -0.3922  0.4039 -0.2253
  593MOL0     H79996  11.958   2.299   7.071 -0.6510 -0.6745  0.3845
  593MOL0     H79997  12.078   2.287   7.188  0.6606 -0.0934 -1.6080
  593MOL0     H79998  11.877   2.068   7.082 -0.2474 -0.6357  1.0108
  593MOL0     H79999  12.028   2.120   7.013 -1.8115  5.1372 -2.0161
  593MOL0     H80000  12.151   2.024   7.218 -0.6615  0.2573  2.1373
  593MOL0     H80001  12.006   1.991   7.299  1.1278 -1.7221 -0.0279
  593MOL0     H80002  12.140   1.846   7.096  1.2251 -0.6680  2.0379
  593MOL0     H80003  11.961   1.842   7.062 -0.3290 -1.2544 -0.8264
  593MOL0     H80004  11.957   1.779   7.336  1.4350 -2.0538  0.9800
  593MOL0     H80005  11.934   1.680   7.204  0.0772 -0.6869  0.7176
  593MOL0     H80006  12.241   1.636   7.104  4.2089  1.1162  0.2635
  593MOL0     H80007  12.517   1.516   7.220  0.5297 -0.8083 -0.4183
  593MOL0     H80008  12.490   1.420   7.360  3.3639 -0.3619 -0.7184
  593MOL0     H80009  12.338   1.254   7.238  1.6197 -1.5313  0.7461
  593MOL0     H80010  12.364   1.352   7.094  0.4373  1.0125  0.0787
  593MOL0     H80011  12.602   1.302   7.108 -1.6203  1.9847 -1.1786
  593MOL0     H80012  12.504   1.143   7.106  1.4628  0.4332 -0.6663
  593MOL0     H80013  12.654   1.281   7.328  0.4377  0.0863 -3.2683
  593MOL0     H80014  12.707   1.136   7.267  1.3682  0.7482  1.0306
  593MOL0     H80015  12.352   1.034   7.251  0.5084  0.0945 -1.5611
  593MOL0     H80016  12.301   0.797   7.227  1.7152  0.8434 -1.1817
  593MOL0     H80017  12.222   0.464   7.073 -2.3723 -0.7236 -1.3620
  593MOL0     H80018  12.122   0.255   7.026  1.1990  2.0005 -0.7462
  593MOL0     H80019  11.926   0.091   7.188  1.2787 -0.3858  1.3907
  593MOL0     H80020  11.995   0.083   7.033  2.0038  2.0231  1.1271
  593MOL0     H80021  11.970  -0.183   7.198 -1.8634  0.4200  0.5401
  593MOL0     H80022  11.845  -0.112   7.104  0.2293  2.2007 -0.5905
  593MOL0     H80023  11.977  -0.118   6.891  0.4395 -1.1464 -1.1490
  593MOL0     H80024  12.116  -0.166   6.989  0.3980  0.0092 -0.5073
  593MOL0     H80025  11.865  -0.355   7.003 -0.7812  0.1283 -1.2747
  593MOL0     H80026  12.037  -0.382   7.017  1.3857  0.0043 -1.5455
  593MOL0     H80027  12.001  -0.486   6.821  0.4792  0.5766 -0.7359
  593MOL0     H80028  12.029  -0.320   6.759 -2.2865  2.0745 -1.6094
  593MOL0     H80029  11.781  -0.277   6.765 -2.2126 -1.6759  1.0043
  593MOL0     H80030  11.861  -0.372   6.642  1.2793  1.7502  0.4649
  593MOL0     H80031  11.682  -0.502   6.844 -1.2946 -0.8185 -1.6708
  593MOL0     H80032  11.803  -0.581   6.750  1.4622 -0.2031  0.9066
  593MOL0     H80033  11.713  -0.515   6.542 -0.9106  1.9552 -2.1958
  593MOL0     H80034  11.577  -0.565   6.635  1.5364 -1.2140  0.5801
  593MOL0     H80035  12.181   0.119   7.423  0.0274 -0.0716  0.5926
  593MOL0     H80036  12.269   0.345   7.492 -0.3146  0.9802 -0.3575
  593MOL0     H80037  12.560   0.721   7.555  0.3583 -1.3353 -2.3344
  593MOL0     H80038  12.637   0.956   7.553 -0.3585 -0.7176  0.1024
  593MOL0     H80039  11.580   2.101   7.574  2.8268 -1.5641  1.5197
  593MOL0     H80040  11.381   2.082   7.691  1.3393 -0.3416  0.8590
  593MOL0     H80041  11.025   2.303   7.839 -1.8463  2.0674  0.6067
  593MOL0     H80042  10.805   2.280   7.931  0.2467  3.2693 -1.0137
  593MOL0     H80043  10.647   2.198   8.021 -1.2233  2.9511  1.9766
  593MOL0     H80044  10.558   2.170   8.170 -1.1275  1.2515 -0.8928
  593MOL0     H80045  10.699   1.979   8.209  2.7091 -1.2320  0.8036
  593MOL0     H80046  10.835   2.023   8.125  0.0278 -6.1983  0.7804
  593MOL0     H80047  10.618   1.977   7.924  1.3564  1.8633 -1.4999
  593MOL0     H80048  10.692   1.838   8.021 -1.2795  0.6851  0.5765
  593MOL0     H80049  10.886   2.023   7.903  0.6273 -0.4618  0.7463
  593MOL0     H80050  10.883   1.844   7.892  1.7100  2.7049 -1.4832
  593MOL0     H80051  10.675   1.902   7.548 -3.0354  2.7867  1.4371
  593MOL0     H80052  10.953   2.320   8.321 -2.6165 -1.8303  0.2631
  593MOL0     H80053  11.164   2.212   8.338 -5.0544  0.7192 -1.9509
  593MOL0     H80054  11.310   2.304   8.286  0.1209 -2.6339  2.3915
  593MOL0     H80055  11.176   2.383   8.357  0.5867 -1.4193  3.9192
  594MOL0     O80056   7.514   8.030   7.902  0.1451 -0.7519 -0.1647
  594MOL0     C80057   7.522   7.917   7.861 -0.4146  0.1288  0.1226
  594MOL0     O80058   7.475   7.880   7.741 -0.5464  0.9221 -0.2145
  594MOL0     C80059   7.436   7.970   7.646  0.0469 -0.6834  0.0207
  594MOL0     C80060   7.316   7.949   7.574  0.2737 -1.5245  0.3383
  594MOL0     C80061   7.263   8.049   7.490  0.0473  0.5422  0.2461
  594MOL0     C80062   7.327   8.171   7.473  0.2837 -0.2970 -0.1917
  594MOL0     O80063   7.277   8.271   7.395  0.1107  0.7441 -0.5027
  594MOL0     C80064   7.333   8.402   7.391  0.0050 -0.0724  0.2158
  594MOL0     C80065   7.264   8.486   7.495  0.3580 -0.1460 -0.3474
  594MOL0     C80066   7.309   8.634   7.486 -0.1439 -0.7374 -0.3274
  594MOL0     C80067   7.255   8.717   7.603 -0.2797 -0.3598  0.2269
  594MOL0     C80068   7.290   8.869   7.594  0.6075 -0.2591 -0.8346
  594MOL0     C80069   7.201   8.939   7.490 -0.2417 -0.3392  0.2564
  594MOL0     C80070   7.248   9.086   7.472 -0.7852 -0.8351 -0.5518
  594MOL0     C80071   7.221   9.180   7.594  0.4387 -0.1206  0.6543
  594MOL0     N80072   7.285   9.302   7.569  0.0013 -1.1063 -0.0590
  594MOL0     C80073   7.422   9.341   7.581  0.5429  0.1583  0.2699
  594MOL0     C80074   7.417   9.473   7.554 -0.0641  0.5064 -0.8433
  594MOL0     C80075   7.539   9.561   7.551 -0.1616  0.1330 -0.4864
  594MOL0     C80076   7.620   9.598   7.673 -0.4770  0.2811  0.7019
  594MOL0     C80077   7.526   9.662   7.781 -0.0589 -0.2295 -0.1281
  594MOL0     C80078   7.604   9.674   7.913 -0.1463  0.7981  0.4188
  594MOL0     O80079   7.705   9.758   7.885 -0.1319  0.4590 -0.3633
  594MOL0     C80080   7.786   9.798   7.992  0.6020 -0.2808 -0.8232
  594MOL0     C80081   7.798   9.728   8.110 -0.3124  0.1192  0.6403
  594MOL0     C80082   7.872   9.773   8.219 -0.0687  0.0641 -0.4819
  594MOL0     C80083   7.935   9.897   8.208  0.5113  0.1826  0.1247
  594MOL0     C80084   8.002   9.954   8.328 -0.3335 -0.5448  0.0793
  594MOL0     O80085   8.009   9.872   8.438  0.0257  0.0194  0.2629
  594MOL0     C80086   8.098   9.906   8.538 -0.5801  0.1051  0.5718
  594MOL0     C80087   8.061   9.996   8.642 -0.2545  0.2196  0.2991
  594MOL0     C80088   8.151  10.027   8.741  0.8912  0.0021  0.7430
  594MOL0     C80089   8.279   9.967   8.752  0.6838 -0.2068 -0.5045
  594MOL0     O80090   8.377   9.997   8.846 -0.5450 -0.2529  0.1642
  594MOL0     C80091   8.341  10.044   8.977 -0.0974  0.8158 -0.2980
  594MOL0     C80092   8.437   9.965   9.076  0.4233  0.0493  0.2143
  594MOL0     C80093   8.362   9.869   9.164  0.3520 -0.1942 -0.2587
  594MOL0     C80094   8.263   9.937   9.250  1.0369  0.5280 -0.1612
  594MOL0     C80095   8.170   9.838   9.333  0.7845 -0.4998  0.1142
  594MOL0     C80096   8.083   9.904   9.436  0.1725  0.6555 -0.3602
  594MOL0     C80097   7.995   9.824   9.526  0.0848  0.3677 -0.3386
  594MOL0     C80098   7.867   9.897   9.573 -0.1199  0.0321 -0.1512
  594MOL0    Cl80099   7.725   9.875   9.471 -0.1149  0.3096  0.6296
  594MOL0     C80100   8.312   9.873   8.658  0.2268 -0.8650  1.4798
  594MOL0     C80101   8.227   9.842   8.550  1.4159 -0.3027  0.4409
  594MOL0     O80102   8.064  10.055   8.310  0.1916  0.2197  0.6230
  594MOL0     C80103   7.926   9.971   8.080  0.2550 -0.3634  0.7097
  594MOL0     C80104   7.854   9.915   7.976  0.0578  0.4048  0.1153
  594MOL0     N80105   7.287   9.506   7.526  0.6190 -0.3245  0.4493
  594MOL0     N80106   7.204   9.408   7.529  0.1753 -0.6580 -0.7235
  594MOL0     C80107   7.452   8.187   7.535 -0.1477  0.2489 -0.3110
  594MOL0     C80108   7.510   8.088   7.624  0.8071 -0.2625 -0.1179
  594MOL0     C80109   7.572   7.813   7.961  0.7508 -0.1346 -0.2331
  594MOL0     C80110   7.513   7.681   7.954 -0.3137  0.6514 -0.0376
  594MOL0     C80111   7.551   7.587   8.049  0.5649  0.4942 -0.3831
  594MOL0     C80112   7.636   7.618   8.157  0.8874 -0.5828  0.2575
  594MOL0     O80113   7.674   7.532   8.255  0.8380  0.8587  0.3834
  594MOL0     C80114   7.588   7.499   8.362  0.3274 -0.0209 -0.1522
  594MOL0     C80115   7.524   7.363   8.340  0.4533  0.6401 -0.8600
  594MOL0     C80116   7.627   7.253   8.361 -0.5892 -0.4140 -0.2969
  594MOL0     C80117   7.545   7.122   8.344 -0.2826 -1.3153 -0.9411
  594MOL0     C80118   7.656   7.023   8.355 -0.0341  0.2064 -0.1352
  594MOL0     C80119   7.752   6.940   8.361  0.1572 -0.2486  0.0011
  594MOL0     C80120   7.696   7.739   8.155  0.0569 -0.6751 -0.0996
  594MOL0     C80121   7.663   7.843   8.063 -0.9134 -0.1635 -0.8358
  594MOL0     C80122   7.714   7.988   8.090  0.1439  0.1940 -0.0373
  594MOL0     H80123   7.262   7.861   7.609 -2.8832  0.2527  0.3593
  594MOL0     H80124   7.172   8.044   7.430  1.8898  2.5636 -3.0243
  594MOL0     H80125   7.442   8.408   7.392 -0.0473  2.7863  1.7525
  594MOL0     H80126   7.295   8.440   7.295  0.8776 -0.9381 -0.4837
  594MOL0     H80127   7.298   8.460   7.596  1.8087 -1.5022 -1.1328
  594MOL0     H80128   7.155   8.494   7.491  0.3336  2.3781  2.2199
  594MOL0     H80129   7.277   8.684   7.394  0.8427  1.8157  0.6323
  594MOL0     H80130   7.418   8.634   7.490 -0.1569 -1.2158  0.0860
  594MOL0     H80131   7.147   8.700   7.602 -0.1290 -1.5720 -2.1198
  594MOL0     H80132   7.292   8.687   7.702 -0.0722  1.1757  0.6431
  594MOL0     H80133   7.254   8.912   7.688 -2.9387 -2.3906 -1.0300
  594MOL0     H80134   7.397   8.890   7.587  0.9798 -2.2015 -1.4785
  594MOL0     H80135   7.224   8.882   7.399  1.6734  1.3262 -0.3744
  594MOL0     H80136   7.096   8.922   7.516  0.0441 -2.9224 -0.0452
  594MOL0     H80137   7.210   9.142   7.386 -1.2295  2.2510  1.4871
  594MOL0     H80138   7.357   9.083   7.456 -0.3883  1.8879  0.9690
  594MOL0     H80139   7.113   9.193   7.592  0.2966 -1.3282  0.0716
  594MOL0     H80140   7.248   9.142   7.693  0.6430  2.1270  1.5440
  594MOL0     H80141   7.503   9.277   7.614 -0.2889 -1.9949 -1.6254
  594MOL0     H80142   7.610   9.527   7.475 -0.9376  0.9786 -1.6357
  594MOL0     H80143   7.496   9.652   7.507 -2.8628 -1.0293 -0.4540
  594MOL0     H80144   7.662   9.510   7.722 -1.4700 -0.2411  0.6493
  594MOL0     H80145   7.703   9.665   7.650  0.4169  0.3466  3.6526
  594MOL0     H80146   7.444   9.596   7.810 -2.1421  2.8156  1.5482
  594MOL0     H80147   7.491   9.760   7.745 -0.2382  0.1034  0.9226
  594MOL0     H80148   7.645   9.579   7.950 -1.8760 -0.0975  0.1690
  594MOL0     H80149   7.540   9.699   7.999 -1.8757 -0.4596 -0.4445
  594MOL0     H80150   7.753   9.629   8.117 -1.9795  0.6142 -1.8171
  594MOL0     H80151   7.876   9.714   8.310  4.0145 -1.2894 -1.3114
  594MOL0     H80152   7.974  10.059   8.624  0.2367  0.3472 -1.8568
  594MOL0     H80153   8.121  10.097   8.818  0.5210  0.4180  0.2262
  594MOL0     H80154   8.360  10.151   8.989  1.5745  0.9360 -3.0381
  594MOL0     H80155   8.235  10.019   8.986 -0.2584  1.8365  0.9234
  594MOL0     H80156   8.506   9.895   9.027  0.9488 -1.8557  3.3640
  594MOL0     H80157   8.489  10.030   9.148  0.1870  2.1097 -1.3763
  594MOL0     H80158   8.309   9.802   9.095  0.0588 -0.2640  0.0329
  594MOL0     H80159   8.430   9.804   9.221  1.5977  1.0974 -0.2081
  594MOL0     H80160   8.192   9.993   9.189  0.9996 -0.3978 -0.9854
  594MOL0     H80161   8.309  10.011   9.317  0.1977  0.3778  0.5925
  594MOL0     H80162   8.239   9.771   9.384  3.4934  0.3425 -2.1878
  594MOL0     H80163   8.112   9.783   9.258 -0.8952  1.7347 -0.3580
  594MOL0     H80164   8.150   9.961   9.501  3.8812 -3.5731 -0.0340
  594MOL0     H80165   8.013   9.971   9.383  0.9257  2.1154  0.4328
  594MOL0     H80166   8.055   9.811   9.617  1.4392 -2.1348 -1.4978
  594MOL0     H80167   7.969   9.723   9.494  0.4734  0.6319 -1.5465
  594MOL0     H80168   7.859   9.861   9.676  2.7954 -1.6759 -0.4141
  594MOL0     H80169   7.888  10.005   9.574  0.0338  0.0308 -1.4038
  594MOL0     H80170   8.405   9.819   8.657  0.4838 -0.4283  1.2263
  594MOL0     H80171   8.267   9.783   8.467  1.1457 -1.1338  0.8922
  594MOL0     H80172   7.972  10.069   8.071 -2.0881  0.9633  2.0053
  594MOL0     H80173   7.842   9.961   7.879  2.0317 -1.7921 -1.2948
  594MOL0     H80174   7.523   8.269   7.528 -1.0847  1.2173  1.0350
  594MOL0     H80175   7.610   8.099   7.664  0.3763  1.0261  0.6759
  594MOL0     H80176   7.451   7.639   7.876 -1.7786 -3.0566  2.8043
  594MOL0     H80177   7.514   7.485   8.045 -1.6253  1.2100  0.5120
  594MOL0     H80178   7.509   7.572   8.380  1.9648  1.5688  0.8310
  594MOL0     H80179   7.631   7.467   8.457 -2.4787 -2.1755  0.5163
  594MOL0     H80180   7.483   7.362   8.238 -2.0915  1.5774  0.0733
  594MOL0     H80181   7.451   7.339   8.418  0.2779  1.1568 -0.8590
  594MOL0     H80182   7.666   7.251   8.463 -1.0136 -0.0316 -0.1252
  594MOL0     H80183   7.716   7.262   8.297  0.5189 -5.1875  0.1968
  594MOL0     H80184   7.478   7.114   8.430  3.1876  3.0183  2.6816
  594MOL0     H80185   7.489   7.125   8.250  0.2787  5.2547 -1.5666
  594MOL0     H80186   7.823   6.860   8.363  0.7862  0.2958 -0.2783
  594MOL0     H80187   7.773   7.771   8.225  3.7803 -4.0999 -2.1981
  594MOL0     H80188   7.766   8.038   8.008  2.0338 -0.6098  0.6270
  594MOL0     H80189   7.627   8.051   8.113  0.8314  1.2254 -0.1719
  594MOL0     H80190   7.772   7.996   8.182  0.8840 -2.7418 -0.1627
  595MOL0     O80191   2.292   4.753   4.602  0.1467  0.1286  0.3872
  595MOL0     C80192   2.251   4.702   4.704 -0.3790 -0.3977  0.9700
  595MOL0     O80193   2.173   4.599   4.703 -0.0990  1.1296  0.7898
  595MOL0     C80194   2.145   4.536   4.585 -0.1802 -0.2107  0.9908
  595MOL0     C80195   2.228   4.440   4.540 -0.0281  0.2536  1.0425
  595MOL0     C80196   2.186   4.362   4.434  0.0855  0.8388  0.8148
  595MOL0     C80197   2.057   4.392   4.366  0.3404  0.5340 -1.4042
  595MOL0     O80198   2.023   4.321   4.260 -0.4920  1.1645 -0.0778
  595MOL0     C80199   1.888   4.275   4.246 -0.0477  0.3016  0.2065
  595MOL0     C80200   1.877   4.159   4.147 -0.0111 -0.7017 -0.1981
  595MOL0     C80201   1.917   4.029   4.220  0.1309  1.0967  0.2808
  595MOL0     C80202   1.949   3.920   4.113  1.6410  0.4211  0.1481
  595MOL0     C80203   2.029   3.815   4.180  1.0834  0.5905  0.3624
  595MOL0     C80204   2.185   3.814   4.143  0.3225 -0.7651  0.2100
  595MOL0     C80205   2.236   3.671   4.173  0.4612  0.7795 -0.1455
  595MOL0     C80206   2.350   3.633   4.077  0.1605  0.5412  0.9027
  595MOL0     N80207   2.483   3.680   4.124  0.0959  0.1776 -0.1825
  595MOL0     C80208   2.537   3.807   4.119 -0.3925 -0.2292  0.5940
  595MOL0     C80209   2.652   3.787   4.183 -0.8009  0.2778  0.8453
  595MOL0     C80210   2.737   3.904   4.212  0.6338 -0.2724 -0.2876
  595MOL0     C80211   2.779   3.975   4.082  1.4769 -0.4028 -0.8129
  595MOL0     C80212   2.860   3.903   3.977 -0.1923 -1.1080 -0.5572
  595MOL0     C80213   2.833   3.965   3.841  0.3677  0.1543  0.1514
  595MOL0     O80214   2.818   3.846   3.757 -0.0974  0.1164  0.1858
  595MOL0     C80215   2.731   3.862   3.650 -0.4752 -0.2367  0.6669
  595MOL0     C80216   2.713   3.740   3.585  0.3871 -0.3494 -0.4347
  595MOL0     C80217   2.629   3.733   3.478  0.5370 -0.4093 -0.7417
  595MOL0     C80218   2.588   3.853   3.412  0.5179  0.3947 -0.1280
  595MOL0     C80219   2.497   3.843   3.294  0.6529  0.2366  0.6872
  595MOL0     O80220   2.445   3.956   3.240 -0.6391 -0.2966 -0.3042
  595MOL0     C80221   2.339   3.951   3.151 -1.0821 -0.4398  0.0867
  595MOL0     C80222   2.351   4.014   3.028  0.5320  0.9671  0.4280
  595MOL0     C80223   2.248   3.994   2.927  0.2018 -0.4158  0.3938
  595MOL0     C80224   2.130   3.917   2.955 -0.5606 -0.9193  0.5451
  595MOL0     O80225   2.027   3.920   2.862 -0.0927  0.7905  0.3710
  595MOL0     C80226   1.896   3.874   2.882 -0.0208  1.1912  0.4136
  595MOL0     C80227   1.811   3.954   2.975 -1.2313 -0.3020  0.8966
  595MOL0     C80228   1.797   4.098   2.910  0.1547  0.5201 -0.7777
  595MOL0     C80229   1.726   4.192   2.999  0.2437  0.2475  0.6501
  595MOL0     C80230   1.576   4.175   3.005 -0.3199  0.3083  0.0182
  595MOL0     C80231   1.503   4.281   3.074  0.0703 -0.6400 -0.5670
  595MOL0     C80232   1.361   4.290   3.046  0.6214  0.7240  0.1734
  595MOL0     C80233   1.290   4.386   3.141  0.1048 -0.5323  1.1586
  595MOL0    Cl80234   1.310   4.554   3.080 -0.7719 -0.2222 -0.0247
  595MOL0     C80235   2.123   3.851   3.083 -0.5311  0.1187 -0.3821
  595MOL0     C80236   2.231   3.869   3.179  0.0953 -0.5989 -0.1132
  595MOL0     O80237   2.474   3.727   3.254 -0.8179  0.9794 -0.3404
  595MOL0     C80238   2.621   3.979   3.471  1.3656 -0.6558 -0.6843
  595MOL0     C80239   2.681   3.981   3.591 -0.4446 -0.0561 -0.1806
  595MOL0     N80240   2.666   3.658   4.232  0.4432 -0.4280 -0.3393
  595MOL0     N80241   2.562   3.594   4.193  0.2625  0.2827  0.8879
  595MOL0     C80242   1.971   4.489   4.416  0.2316  0.9303  0.4786
  595MOL0     C80243   2.020   4.563   4.532  0.6236  0.9863 -0.5888
  595MOL0     C80244   2.297   4.766   4.828  0.1889 -0.3450  0.5078
  595MOL0     C80245   2.417   4.838   4.831  0.0851 -0.3191  1.1809
  595MOL0     C80246   2.466   4.900   4.950 -0.0295  0.6407 -0.1795
  595MOL0     C80247   2.397   4.881   5.073  0.6146 -0.4483 -0.0149
  595MOL0     O80248   2.424   4.962   5.172  0.1425  0.5729 -1.1129
  595MOL0     C80249   2.425   4.908   5.312  0.7148 -0.6466 -0.1328
  595MOL0     C80250   2.457   5.008   5.434  0.4812 -0.7905  0.0760
  595MOL0     C80251   2.377   5.131   5.393  0.1091  0.6034 -0.3229
  595MOL0     C80252   2.350   5.213   5.517 -0.5381 -0.9435 -0.5446
  595MOL0     C80253   2.307   5.351   5.482  0.4253  0.4172 -1.0845
  595MOL0     C80254   2.287   5.463   5.428  0.3095 -0.3164  0.1041
  595MOL0     C80255   2.276   4.813   5.063  0.6837 -0.6690 -0.4287
  595MOL0     C80256   2.231   4.746   4.952  0.1583 -0.5196 -0.0405
  595MOL0     C80257   2.099   4.677   4.972  0.1394  0.3928 -0.1480
  595MOL0     H80258   2.323   4.417   4.589  1.1818  1.4585 -0.6031
  595MOL0     H80259   2.250   4.278   4.409 -0.3716  0.4185  1.0298
  595MOL0     H80260   1.848   4.238   4.341  1.0122  0.1463  0.6009
  595MOL0     H80261   1.833   4.357   4.199 -0.1253  0.0122 -0.2221
  595MOL0     H80262   1.942   4.184   4.062  3.5465  0.4143  2.5569
  595MOL0     H80263   1.770   4.152   4.127  0.4427 -0.7211 -3.1729
  595MOL0     H80264   1.839   3.993   4.288 -0.2545  0.0219 -0.7077
  595MOL0     H80265   2.011   4.036   4.275  0.0130  0.0895  0.6247
  595MOL0     H80266   1.855   3.878   4.074  2.9134 -0.5174 -2.1380
  595MOL0     H80267   2.001   3.958   4.025  1.7104  1.8715  0.7940
  595MOL0     H80268   2.021   3.805   4.288 -1.0554 -0.2443  0.1832
  595MOL0     H80269   1.977   3.728   4.139  2.5399  0.1909 -0.7216
  595MOL0     H80270   2.193   3.841   4.037  1.1834 -1.0898  0.1843
  595MOL0     H80271   2.234   3.891   4.203 -1.3104  1.0269 -0.6794
  595MOL0     H80272   2.161   3.596   4.148  2.0495 -0.5353 -1.1956
  595MOL0     H80273   2.268   3.660   4.277 -0.6091  0.1485  0.1220
  595MOL0     H80274   2.360   3.524   4.071  1.7940  0.6991 -0.0295
  595MOL0     H80275   2.337   3.674   3.977 -0.6829 -1.1770  0.2646
  595MOL0     H80276   2.511   3.900   4.070 -1.0811 -2.0319 -2.7671
  595MOL0     H80277   2.683   3.966   4.284 -0.4660 -3.7034  2.1043
  595MOL0     H80278   2.829   3.870   4.260  1.1997 -1.5591 -2.1993
  595MOL0     H80279   2.689   4.023   4.040  1.5932 -0.8504 -1.5961
  595MOL0     H80280   2.834   4.062   4.119 -1.8118  0.5618  2.3713
  595MOL0     H80281   2.840   3.796   3.980  0.9363 -1.3254 -0.1813
  595MOL0     H80282   2.966   3.911   4.004 -0.4106 -0.2880  0.0904
  595MOL0     H80283   2.924   4.016   3.807  0.1829  1.9510  2.1084
  595MOL0     H80284   2.749   4.035   3.841 -0.3485 -0.3905 -4.7939
  595MOL0     H80285   2.752   3.647   3.626 -2.8370 -1.3271  0.6614
  595MOL0     H80286   2.611   3.633   3.440  3.5695 -1.1407 -0.4889
  595MOL0     H80287   2.431   4.085   3.010 -1.0924  2.7714 -0.0361
  595MOL0     H80288   2.257   4.044   2.832  0.2750 -1.4712 -0.1663
  595MOL0     H80289   1.853   3.855   2.783 -1.9863 -0.2232  1.4535
  595MOL0     H80290   1.904   3.776   2.931 -1.7084 -0.6052 -2.5156
  595MOL0     H80291   1.717   3.903   2.998 -1.6455  0.2640  0.4650
  595MOL0     H80292   1.862   3.962   3.072 -0.0693 -0.8099  0.3456
  595MOL0     H80293   1.893   4.146   2.886 -0.1784  2.2096  0.9937
  595MOL0     H80294   1.735   4.074   2.823 -2.2618  1.6304  0.5490
  595MOL0     H80295   1.745   4.297   2.975 -0.5773  0.6461  1.6611
  595MOL0     H80296   1.791   4.195   3.087 -1.2168 -1.3780  1.8606
  595MOL0     H80297   1.560   4.076   3.050  0.1621  1.4663  2.9090
  595MOL0     H80298   1.540   4.166   2.902 -1.3505  0.9237  0.3080
  595MOL0     H80299   1.519   4.276   3.182  2.7287  0.7466 -0.8096
  595MOL0     H80300   1.546   4.377   3.044 -1.7986 -0.2931 -2.4270
  595MOL0     H80301   1.328   4.188   3.071  0.8460  0.4069 -0.7791
  595MOL0     H80302   1.343   4.303   2.939  0.0786  0.3892  0.2180
  595MOL0     H80303   1.183   4.364   3.138 -0.9824  3.7981 -1.4724
  595MOL0     H80304   1.330   4.366   3.240  0.2339 -2.6864  0.7246
  595MOL0     H80305   2.044   3.781   3.106  1.6898 -3.1036 -1.7281
  595MOL0     H80306   2.230   3.805   3.266 -0.5853 -1.5708 -0.8140
  595MOL0     H80307   2.591   4.073   3.426  2.3280  0.0649  0.1501
  595MOL0     H80308   2.712   4.080   3.623 -0.2172 -0.7426  1.8264
  595MOL0     H80309   1.874   4.512   4.372  1.3218 -1.1667 -3.4765
  595MOL0     H80310   1.951   4.630   4.583  1.1900 -0.1374  1.7999
  595MOL0     H80311   2.468   4.857   4.737 -1.3766 -0.0768  0.4045
  595MOL0     H80312   2.557   4.958   4.962  0.3258 -0.3996  3.4012
  595MOL0     H80313   2.502   4.830   5.310  0.3969 -1.0084  1.0552
  595MOL0     H80314   2.329   4.866   5.345  0.1777  0.2148 -0.5504
  595MOL0     H80315   2.563   5.035   5.439  0.6340 -1.1694 -0.8920
  595MOL0     H80316   2.429   4.961   5.529  2.0307 -2.5736 -0.2890
  595MOL0     H80317   2.279   5.103   5.355  0.4717  0.8044 -1.4249
  595MOL0     H80318   2.430   5.186   5.315  2.2980  2.1912  2.1247
  595MOL0     H80319   2.278   5.158   5.578 -0.6695 -2.0337 -1.6503
  595MOL0     H80320   2.446   5.229   5.567 -1.1538  0.5967  0.1991
  595MOL0     H80321   2.259   5.551   5.374 -0.4054 -1.0522 -0.7600
  595MOL0     H80322   2.210   4.817   5.149 -1.2121  5.0964 -1.7662
  595MOL0     H80323   2.046   4.701   5.064 -0.1711 -3.8310  0.9804
  595MOL0     H80324   2.038   4.703   4.884  1.3807  1.1526 -0.8142
  595MOL0     H80325   2.109   4.568   4.965  0.1646  0.4444 -1.1654
  596MOL0     O80326  10.861   8.713   4.054  0.1582 -0.0510  0.3289
  596MOL0     C80327  10.891   8.803   4.135 -0.2059  0.4524  0.1379
  596MOL0     O80328  10.880   8.799   4.274  0.1322  0.1068  1.5422
  596MOL0     C80329  10.816   8.695   4.331 -0.3208 -0.0310  0.9633
  596MOL0     C80330  10.679   8.707   4.365 -0.8477 -0.9654 -0.0422
  596MOL0     C80331  10.606   8.604   4.430 -0.1783 -0.3768 -0.4596
  596MOL0     C80332  10.660   8.481   4.456 -0.2782  0.1872  0.0858
  596MOL0     O80333  10.600   8.362   4.484 -0.5999  0.6810 -0.1048
  596MOL0     C80334  10.473   8.353   4.548  0.6758 -0.5044 -0.4218
  596MOL0     C80335  10.472   8.423   4.689  0.2375  0.1629  0.9251
  596MOL0     C80336  10.577   8.399   4.781 -0.2692 -0.8059 -0.3598
  596MOL0     C80337  10.538   8.298   4.888  0.3778 -0.0403 -0.3307
  596MOL0     C80338  10.651   8.269   4.984 -0.5767 -1.9583 -0.8611
  596MOL0     C80339  10.618   8.173   5.100  1.2406  1.0055  0.0630
  596MOL0     C80340  10.495   8.215   5.187  0.2194 -0.0034 -1.0299
  596MOL0     C80341  10.530   8.223   5.337  0.9725 -0.3116 -0.4687
  596MOL0     N80342  10.591   8.346   5.397  0.1550  0.4014 -0.0481
  596MOL0     C80343  10.595   8.464   5.341 -0.1360 -0.5578 -0.3252
  596MOL0     C80344  10.654   8.550   5.432  0.0822  0.3497  0.1721
  596MOL0     C80345  10.703   8.687   5.406  0.4850  0.0551 -0.2255
  596MOL0     C80346  10.824   8.696   5.314 -0.4541 -0.6687 -0.9685
  596MOL0     C80347  10.805   8.667   5.162  0.6187 -1.0118 -0.1761
  596MOL0     C80348  10.905   8.745   5.064 -0.8410  0.8573 -1.0860
  596MOL0     O80349  10.860   8.759   4.931  0.4491  0.0356  0.0820
  596MOL0     C80350  10.910   8.858   4.846  0.4107  0.1484 -0.3573
  596MOL0     C80351  10.954   8.985   4.891 -1.3248  0.2690  0.2724
  596MOL0     C80352  11.013   9.072   4.807  0.1694 -0.1531  0.7081
  596MOL0     C80353  11.016   9.046   4.668 -0.0800  0.0291 -0.4108
  596MOL0     C80354  11.071   9.138   4.570  0.5493 -0.3793  0.7196
  596MOL0     O80355  11.068   9.267   4.607 -0.1976 -0.0801 -0.2857
  596MOL0     C80356  11.159   9.344   4.533  0.0771  0.0053  0.1270
  596MOL0     C80357  11.293   9.307   4.503  0.9719  0.6762  0.6659
  596MOL0     C80358  11.386   9.395   4.438 -0.2533 -0.4704 -0.1524
  596MOL0     C80359  11.346   9.528   4.416  0.2350 -0.4556  0.6572
  596MOL0     O80360  11.435   9.631   4.388  0.0010  0.5984  0.8179
  596MOL0     C80361  11.497   9.615   4.259  0.8691  0.0973 -0.6350
  596MOL0     C80362  11.635   9.668   4.273  0.1639 -0.6336 -0.2543
  596MOL0     C80363  11.701   9.688   4.138 -0.0083  0.7051  0.0422
  596MOL0     C80364  11.655   9.825   4.081 -0.2451  0.2262  0.1969
  596MOL0     C80365  11.695   9.817   3.937  0.9565  0.5725 -0.2906
  596MOL0     C80366  11.606   9.907   3.865 -0.0802  0.2666  0.3944
  596MOL0     C80367  11.652   9.925   3.721  0.2157 -0.6457 -0.3027
  596MOL0     C80368  11.686  10.071   3.683 -1.3185  0.3009 -0.0672
  596MOL0    Cl80369  11.827  10.135   3.786 -0.4697 -0.0600 -0.1629
  596MOL0     C80370  11.214   9.567   4.451  0.3504  0.6869 -1.4542
  596MOL0     C80371  11.132   9.470   4.499  0.2034 -0.3861 -0.1690
  596MOL0     O80372  11.103   9.091   4.456 -0.0367 -0.6857 -0.8810
  596MOL0     C80373  10.958   8.921   4.627 -1.2158  0.6750  0.9373
  596MOL0     C80374  10.896   8.837   4.711 -0.4043 -0.3864 -0.0263
  596MOL0     N80375  10.676   8.469   5.548  0.1516 -0.8065  0.0375
  596MOL0     N80376  10.622   8.359   5.530 -0.2352  0.5998 -0.3951
  596MOL0     C80377  10.797   8.464   4.424  0.0358 -0.0712  0.2412
  596MOL0     C80378  10.869   8.571   4.376  0.8515  0.0643 -0.7981
  596MOL0     C80379  10.960   8.927   4.076 -0.2006  0.5527  1.0684
  596MOL0     C80380  10.979   9.035   4.160 -0.2380 -0.2096 -1.2107
  596MOL0     C80381  11.072   9.137   4.138  0.2289 -0.4112 -0.1751
  596MOL0     C80382  11.138   9.139   4.016 -0.2230 -0.5013  0.0066
  596MOL0     O80383  11.227   9.248   4.007 -0.4397  0.9177  0.1230
  596MOL0     C80384  11.269   9.292   3.878  0.4041  0.2063  0.5368
  596MOL0     C80385  11.301   9.441   3.885 -0.3175 -1.1670 -0.4975
  596MOL0     C80386  11.183   9.532   3.925 -0.3467 -0.5652 -0.2993
  596MOL0     C80387  11.213   9.683   3.921  1.1463 -0.1110 -0.6252
  596MOL0     C80388  11.240   9.724   3.787  0.0595  0.3834  0.9036
  596MOL0     C80389  11.268   9.768   3.678  0.2284  0.3535 -0.9376
  596MOL0     C80390  11.113   9.039   3.920 -0.0808  0.2655  0.3130
  596MOL0     C80391  11.028   8.924   3.952  0.0268 -0.8295 -0.2938
  596MOL0     C80392  11.005   8.821   3.854  0.7269  0.3750  0.0312
  596MOL0     H80393  10.642   8.806   4.343  1.1262 -0.1947 -0.1768
  596MOL0     H80394  10.509   8.621   4.475  1.3850  1.9022  2.4055
  596MOL0     H80395  10.386   8.388   4.493 -0.6128  0.8928  2.3282
  596MOL0     H80396  10.447   8.248   4.564 -1.8583  0.1372  0.0915
  596MOL0     H80397  10.374   8.398   4.729 -0.9544 -0.1993 -1.9441
  596MOL0     H80398  10.470   8.531   4.666 -0.1135 -0.4276 -2.3780
  596MOL0     H80399  10.609   8.492   4.831  0.2982  0.5901 -3.1245
  596MOL0     H80400  10.666   8.363   4.729  1.1960 -0.4933  1.7756
  596MOL0     H80401  10.444   8.322   4.939  0.3744 -0.5696 -0.0783
  596MOL0     H80402  10.502   8.213   4.830 -1.1691 -0.0203  0.5505
  596MOL0     H80403  10.744   8.235   4.937  2.0126  3.1555 -0.0942
  596MOL0     H80404  10.675   8.361   5.038 -0.8278 -1.1951 -2.0247
  596MOL0     H80405  10.577   8.083   5.053  0.0900  1.3311  0.4146
  596MOL0     H80406  10.705   8.171   5.166 -0.0116  0.5629  1.7768
  596MOL0     H80407  10.424   8.133   5.172 -0.0196  0.4254 -2.3737
  596MOL0     H80408  10.454   8.310   5.152 -0.5793 -0.6437 -1.8921
  596MOL0     H80409  10.440   8.196   5.393  1.1377 -1.1591 -0.5938
  596MOL0     H80410  10.606   8.148   5.363  3.2887  2.0101 -0.1144
  596MOL0     H80411  10.562   8.482   5.239  0.3350 -0.7074 -0.5078
  596MOL0     H80412  10.623   8.741   5.355 -0.1870 -2.7559 -2.4334
  596MOL0     H80413  10.742   8.731   5.498  0.4036 -0.7252  0.1876
  596MOL0     H80414  10.861   8.799   5.323  2.8853 -1.5704 -2.5794
  596MOL0     H80415  10.905   8.631   5.350  0.0052  1.1202  1.5219
  596MOL0     H80416  10.709   8.704   5.125 -0.8833 -2.0712  2.3927
  596MOL0     H80417  10.810   8.561   5.139 -0.4633 -0.7259 -1.8776
  596MOL0     H80418  11.003   8.695   5.064 -0.5450  1.3216  1.0845
  596MOL0     H80419  10.932   8.842   5.109  0.9512  0.8192 -1.9887
  596MOL0     H80420  10.958   8.996   4.999 -1.4379  1.2384  0.1896
  596MOL0     H80421  11.027   9.177   4.833  0.6235  0.2158 -0.9342
  596MOL0     H80422  11.332   9.208   4.525  2.1476  1.0480  0.3716
  596MOL0     H80423  11.493   9.374   4.439  0.2520  1.8325  0.6563
  596MOL0     H80424  11.502   9.512   4.222  1.1906 -0.2957  0.4519
  596MOL0     H80425  11.447   9.689   4.196 -1.5726 -0.2089  0.7973
  596MOL0     H80426  11.634   9.765   4.325  1.7187  0.8501 -2.7622
  596MOL0     H80427  11.697   9.602   4.334 -1.1469 -0.1497  1.6992
  596MOL0     H80428  11.810   9.686   4.139  0.0715 -0.9338 -2.5046
  596MOL0     H80429  11.672   9.600   4.080  5.5112 -1.6601  0.2023
  596MOL0     H80430  11.692   9.905   4.146 -6.3096  2.3234  1.7152
  596MOL0     H80431  11.546   9.826   4.086 -0.5331 -2.4746 -2.4772
  596MOL0     H80432  11.690   9.713   3.903 -0.0599 -0.3323  2.3457
  596MOL0     H80433  11.794   9.863   3.925  1.0627  0.7982  1.2533
  596MOL0     H80434  11.504   9.866   3.866 -0.3578  0.9420  0.3327
  596MOL0     H80435  11.611  10.007   3.910 -1.0570  1.0778 -1.1890
  596MOL0     H80436  11.563   9.898   3.662 -0.1365  2.2458 -1.2300
  596MOL0     H80437  11.741   9.863   3.708  1.8578  1.7783 -1.2287
  596MOL0     H80438  11.701  10.076   3.575 -0.4787  0.0101  0.0270
  596MOL0     H80439  11.604  10.135   3.716 -0.3169  0.4319  2.3931
  596MOL0     H80440  11.179   9.670   4.450  0.9468  0.8948 -1.6189
  596MOL0     H80441  11.037   9.514   4.525  1.7938  2.0084  2.0873
  596MOL0     H80442  10.960   8.897   4.521  1.4596  0.5584  0.9541
  596MOL0     H80443  10.844   8.747   4.679 -0.6780 -0.0277 -0.6095
  596MOL0     H80444  10.847   8.375   4.462 -0.2061  0.0982  0.9874
  596MOL0     H80445  10.975   8.555   4.358  0.8567 -0.6116 -0.2065
  596MOL0     H80446  10.911   9.034   4.245  4.5225 -2.2942  3.1120
  596MOL0     H80447  11.091   9.215   4.211 -0.9424  0.2611 -0.5651
  596MOL0     H80448  11.187   9.273   3.807  0.6720  1.3011 -0.0808
  596MOL0     H80449  11.362   9.248   3.840  1.1313  1.7306  0.5129
  596MOL0     H80450  11.333   9.477   3.786  3.8875  1.9592  1.6676
  596MOL0     H80451  11.384   9.458   3.954 -1.4769  0.4407  0.5723
  596MOL0     H80452  11.160   9.497   4.026  1.2368 -0.7869  0.0245
  596MOL0     H80453  11.101   9.502   3.860  1.6173 -1.4116 -2.5468
  596MOL0     H80454  11.118   9.727   3.955  2.0177  1.4025 -0.0301
  596MOL0     H80455  11.283   9.700   4.004 -0.8424 -2.3899  1.7044
  596MOL0     H80456  11.294   9.798   3.578  2.7052 -1.5605 -0.9508
  596MOL0     H80457  11.158   9.041   3.821  1.8455 -0.3477  1.1244
  596MOL0     H80458  11.062   8.835   3.761 -0.4986 -0.9335 -0.9667
  596MOL0     H80459  11.051   8.732   3.899  0.4558  0.3641  0.2858
  596MOL0     H80460  10.899   8.809   3.833 -0.1072  0.0748  3.7525
  597MOL0     O80461   4.275   2.526   1.755  0.3323 -0.3617 -0.9594
  597MOL0     C80462   4.223   2.459   1.847 -0.0069  0.3844 -0.1802
  597MOL0     O80463   4.281   2.457   1.971 -0.0025 -0.0683  0.0011
  597MOL0     C80464   4.409   2.505   2.005  0.1177  0.5896 -0.5490
  597MOL0     C80465   4.452   2.627   1.959 -0.1070 -0.2588  0.7208
  597MOL0     C80466   4.580   2.672   1.990  0.0053  0.4024 -0.9190
  597MOL0     C80467   4.658   2.583   2.077  0.9157 -0.6650 -0.2602
  597MOL0     O80468   4.778   2.615   2.133  0.8791 -0.9514 -0.1352
  597MOL0     C80469   4.842   2.731   2.082 -0.1864 -0.5716 -0.1943
  597MOL0     C80470   4.988   2.716   2.111  0.5474  0.9819  0.0031
  597MOL0     C80471   5.051   2.852   2.082  0.1097 -0.0631  0.3521
  597MOL0     C80472   5.192   2.860   2.126 -0.1837 -0.2909  0.4380
  597MOL0     C80473   5.255   2.980   2.045  0.4042 -0.8844 -0.0315
  597MOL0     C80474   5.402   3.022   2.068 -0.3179  0.1823  0.3043
  597MOL0     C80475   5.443   3.075   2.200  0.2755 -0.4454 -0.4952
  597MOL0     C80476   5.582   3.131   2.193  0.3576 -0.6921 -0.0211
  597MOL0     N80477   5.613   3.237   2.295 -0.4984 -0.3011  0.3832
  597MOL0     C80478   5.600   3.220   2.433  0.3136 -0.5968 -0.2450
  597MOL0     C80479   5.679   3.319   2.491  0.3365  0.1059 -0.4660
  597MOL0     C80480   5.701   3.346   2.638  0.2358  0.9977 -0.0389
  597MOL0     C80481   5.579   3.299   2.723 -0.6209 -0.0154  0.1219
  597MOL0     C80482   5.462   3.393   2.709  1.0064 -0.3974  0.6574
  597MOL0     C80483   5.330   3.339   2.767  0.4200  0.0854 -0.1655
  597MOL0     O80484   5.274   3.224   2.701  0.0967 -0.2730 -0.5388
  597MOL0     C80485   5.184   3.239   2.596 -0.4078  0.4040 -0.3903
  597MOL0     C80486   5.070   3.324   2.613  0.3369  0.0777 -0.6709
  597MOL0     C80487   4.978   3.316   2.507  0.0068 -0.2073 -0.3909
  597MOL0     C80488   4.988   3.226   2.398  0.2110  1.2745  0.9995
  597MOL0     C80489   4.885   3.220   2.296  0.9200  0.4968  0.9638
  597MOL0     O80490   4.897   3.144   2.189 -0.1491 -0.3264  0.1320
  597MOL0     C80491   4.791   3.112   2.102 -0.2038  0.5683 -1.1335
  597MOL0     C80492   4.660   3.087   2.149 -0.5219 -0.0608 -0.4566
  597MOL0     C80493   4.558   3.073   2.049  1.2218  0.1003  0.3176
  597MOL0     C80494   4.578   3.087   1.908 -0.6222  0.0333 -0.3661
  597MOL0     O80495   4.486   3.071   1.803 -0.0862 -0.1806 -0.4016
  597MOL0     C80496   4.356   3.107   1.857  1.1449  0.0576  0.3854
  597MOL0     C80497   4.244   3.102   1.741 -0.1400  0.5298 -1.2786
  597MOL0     C80498   4.115   3.167   1.782 -0.5755 -0.4704 -0.0917
  597MOL0     C80499   4.012   3.138   1.676  0.6380  0.5636 -0.2293
  597MOL0     C80500   3.891   3.231   1.694 -0.9207  0.8982  0.0027
  597MOL0     C80501   3.788   3.200   1.581 -0.9651  0.1095 -0.1477
  597MOL0     C80502   3.673   3.286   1.585 -0.4044  0.5317 -0.2582
  597MOL0     C80503   3.581   3.252   1.699 -1.1505 -0.2839  0.5701
  597MOL0    Cl80504   3.448   3.351   1.657  0.3274  0.1106  0.5598
  597MOL0     C80505   4.706   3.110   1.875  0.1758 -0.5644 -0.4742
  597MOL0     C80506   4.813   3.123   1.965  0.5746 -0.5205 -0.6828
  597MOL0     O80507   4.790   3.299   2.311  0.3717 -0.0812  0.1124
  597MOL0     C80508   5.103   3.146   2.386 -0.9229  0.6065  1.1387
  597MOL0     C80509   5.195   3.154   2.487  0.2748 -0.0612 -0.7797
  597MOL0     N80510   5.735   3.394   2.394 -0.1013 -0.1545  0.7400
  597MOL0     N80511   5.692   3.348   2.278 -1.0276 -0.0269  0.3428
  597MOL0     C80512   4.603   2.464   2.126 -0.7820  0.5707  0.5634
  597MOL0     C80513   4.479   2.420   2.079  0.1016 -0.0643  0.2824
  597MOL0     C80514   4.108   2.364   1.819 -0.4722 -0.5411 -0.1723
  597MOL0     C80515   4.059   2.300   1.922 -0.6168  0.5881  0.3680
  597MOL0     C80516   3.944   2.236   1.910 -0.1023  0.3055 -0.2981
  597MOL0     C80517   3.881   2.214   1.787 -0.6203  0.2611  0.8330
  597MOL0     O80518   3.780   2.124   1.764 -0.2965  0.1048 -0.2751
  597MOL0     C80519   3.672   2.116   1.857  0.6345  0.6547 -0.2823
  597MOL0     C80520   3.590   1.982   1.829  0.5665 -0.7195  0.3665
  597MOL0     C80521   3.470   1.927   1.912  0.2124  0.1245 -0.8912
  597MOL0     C80522   3.334   1.988   1.888 -0.4184  0.4113 -0.4282
  597MOL0     C80523   3.334   2.133   1.906  0.4308  0.8817 -0.1585
  597MOL0     C80524   3.339   2.252   1.924  0.2379 -0.2658  0.0715
  597MOL0     C80525   3.938   2.262   1.675  0.4170 -0.2501  0.5720
  597MOL0     C80526   4.056   2.348   1.687 -0.0041  0.0714  0.5111
  597MOL0     C80527   4.105   2.404   1.555 -0.9905  0.5850  0.1084
  597MOL0     H80528   4.388   2.689   1.897 -0.6518 -1.1106  0.4168
  597MOL0     H80529   4.600   2.777   1.974 -0.6529  0.5334 -0.8909
  597MOL0     H80530   4.831   2.727   1.973  1.4403 -4.2036 -0.3766
  597MOL0     H80531   4.794   2.819   2.126  0.7134  0.5569 -1.3940
  597MOL0     H80532   5.023   2.631   2.052 -0.4368  0.0853  0.6937
  597MOL0     H80533   4.993   2.697   2.219 -2.6417  1.8476  0.3982
  597MOL0     H80534   4.999   2.934   2.134 -0.5009  0.8976 -1.6853
  597MOL0     H80535   5.048   2.864   1.974  1.4584  0.7769  0.3880
  597MOL0     H80536   5.199   2.866   2.235 -0.9734 -2.5658  0.6740
  597MOL0     H80537   5.246   2.769   2.098  3.4927  1.4469  1.2878
  597MOL0     H80538   5.243   2.937   1.945  1.5510  0.4783 -0.7867
  597MOL0     H80539   5.186   3.064   2.058  2.1542  0.5997  0.0401
  597MOL0     H80540   5.470   2.939   2.050 -2.1971 -1.2568 -0.4737
  597MOL0     H80541   5.428   3.099   1.995  1.5169  0.4113  1.1488
  597MOL0     H80542   5.439   2.992   2.271 -0.3567 -2.0268 -2.2922
  597MOL0     H80543   5.377   3.153   2.239  1.6282  0.1126  0.7691
  597MOL0     H80544   5.653   3.049   2.206  0.5506 -0.7162 -1.1426
  597MOL0     H80545   5.590   3.173   2.092 -1.1017  0.1456  0.1685
  597MOL0     H80546   5.541   3.146   2.486  1.7471 -0.3072  1.8682
  597MOL0     H80547   5.793   3.296   2.671  1.2275  3.5027  1.3860
  597MOL0     H80548   5.716   3.453   2.659  1.4392  1.0453 -1.0526
  597MOL0     H80549   5.525   3.205   2.710 -0.8318 -0.4524  3.3221
  597MOL0     H80550   5.613   3.301   2.827 -1.0054 -1.3662  0.2917
  597MOL0     H80551   5.452   3.414   2.602  4.1128  3.4397  0.8510
  597MOL0     H80552   5.486   3.486   2.763  3.6886 -1.1633  0.9564
  597MOL0     H80553   5.259   3.422   2.779  0.6603  0.0480  1.7287
  597MOL0     H80554   5.347   3.323   2.873 -0.1274  1.9517  0.2503
  597MOL0     H80555   5.068   3.399   2.691  4.0525  0.8320 -1.0829
  597MOL0     H80556   4.890   3.376   2.530 -0.0677 -1.4322  3.0885
  597MOL0     H80557   4.655   3.085   2.257  3.5262 -1.5279 -0.0971
  597MOL0     H80558   4.459   3.042   2.082  2.2060 -4.7584 -0.4260
  597MOL0     H80559   4.322   3.035   1.932 -0.8211  0.4994 -0.0162
  597MOL0     H80560   4.360   3.206   1.903 -2.7303  1.0302 -0.9523
  597MOL0     H80561   4.278   3.157   1.653 -2.7482  1.8374 -1.5667
  597MOL0     H80562   4.231   2.995   1.720 -1.3013  0.8821 -2.4479
  597MOL0     H80563   4.074   3.125   1.875  0.9285 -0.1572  0.7636
  597MOL0     H80564   4.141   3.272   1.794  1.9233 -1.0778  0.3910
  597MOL0     H80565   3.982   3.034   1.659  0.4125  0.3589  1.3194
  597MOL0     H80566   4.061   3.165   1.582  2.2054 -2.6443 -0.4932
  597MOL0     H80567   3.933   3.326   1.661  0.5512  0.0753 -0.5620
  597MOL0     H80568   3.858   3.213   1.797 -3.1551 -0.9829 -0.9333
  597MOL0     H80569   3.840   3.209   1.485  2.0207 -0.7026  1.2743
  597MOL0     H80570   3.758   3.095   1.574 -0.6566  0.0039  0.0972
  597MOL0     H80571   3.622   3.303   1.490 -3.1337  2.0198  1.3366
  597MOL0     H80572   3.708   3.389   1.597 -1.3137  0.8363 -0.0806
  597MOL0     H80573   3.539   3.151   1.692 -0.5610 -0.4207 -1.3779
  597MOL0     H80574   3.610   3.288   1.798 -1.4117  0.3122  0.4383
  597MOL0     H80575   4.719   3.112   1.767 -0.0479  1.6337 -0.4962
  597MOL0     H80576   4.915   3.139   1.932  0.6748  0.1426 -0.0788
  597MOL0     H80577   5.134   3.096   2.294 -0.8552  0.5294  1.2036
  597MOL0     H80578   5.292   3.111   2.465  0.6689  1.7359 -2.9130
  597MOL0     H80579   4.647   2.396   2.198 -3.4072  0.6949  2.4665
  597MOL0     H80580   4.443   2.320   2.101 -0.6979 -0.1921 -1.4162
  597MOL0     H80581   4.101   2.314   2.021 -0.2630  0.8174  0.1897
  597MOL0     H80582   3.890   2.207   1.999 -3.8936  1.4182 -2.0490
  597MOL0     H80583   3.597   2.195   1.852  2.7252  2.7456 -0.0084
  597MOL0     H80584   3.713   2.127   1.958  1.5837  1.3122 -0.7258
  597MOL0     H80585   3.662   1.900   1.837  0.6327 -0.5170  2.2697
  597MOL0     H80586   3.545   1.980   1.730  2.2938  1.3536 -0.5378
  597MOL0     H80587   3.487   1.921   2.020 -1.9363  0.2932 -0.4902
  597MOL0     H80588   3.466   1.819   1.897 -0.8624 -0.0578  0.4852
  597MOL0     H80589   3.301   1.970   1.785 -1.9989  0.6882  0.0002
  597MOL0     H80590   3.263   1.939   1.956 -1.1310  3.2639  1.0468
  597MOL0     H80591   3.345   2.357   1.945  3.7976 -0.4362  0.4627
  597MOL0     H80592   3.890   2.229   1.583  1.3926  1.7432 -0.7445
  597MOL0     H80593   4.127   2.510   1.572 -0.0477  0.2838  0.8542
  597MOL0     H80594   4.200   2.355   1.533 -0.5615  0.8440  1.3093
  597MOL0     H80595   4.038   2.393   1.469  1.1155 -1.0179 -1.4600
  598MOL0     O80596   0.300   5.507   0.586 -0.4892 -0.1315  0.3844
  598MOL0     C80597   0.338   5.549   0.702 -0.0700 -0.5333 -0.4061
  598MOL0     O80598   0.341   5.462   0.807 -0.1486 -0.3330  0.0535
  598MOL0     C80599   0.290   5.334   0.801 -0.4683  0.8183 -0.4728
  598MOL0     C80600   0.345   5.229   0.713 -0.1778 -0.0141 -0.8607
  598MOL0     C80601   0.298   5.102   0.732 -0.2554 -0.3196  0.5446
  598MOL0     C80602   0.216   5.071   0.832 -0.8280  0.3515 -0.0361
  598MOL0     O80603   0.167   4.943   0.853 -0.2060 -0.4413  0.0436
  598MOL0     C80604   0.259   4.838   0.861  0.0790  0.6833 -0.1189
  598MOL0     C80605   0.318   4.822   0.997  0.4513 -0.3784 -0.0730
  598MOL0     C80606   0.232   4.752   1.106 -0.6320  0.7351 -0.0323
  598MOL0     C80607   0.119   4.845   1.162  0.0251 -0.5628 -0.3979
  598MOL0     C80608   0.014   4.780   1.242 -0.6545  0.5710 -0.2026
  598MOL0     C80609  -0.120   4.842   1.280 -0.6524 -0.3171  0.4457
  598MOL0     C80610  -0.127   4.970   1.365 -0.5529 -0.4555  0.3119
  598MOL0     C80611  -0.043   4.944   1.495  0.1504 -0.2771  0.2034
  598MOL0     N80612  -0.100   4.836   1.574  0.0490 -0.8124  0.7441
  598MOL0     C80613  -0.157   4.857   1.701  0.3066  0.4872  0.0406
  598MOL0     C80614  -0.171   4.730   1.751 -0.6588 -1.0684 -0.6784
  598MOL0     C80615  -0.237   4.696   1.882 -0.2386 -0.0663 -0.3156
  598MOL0     C80616  -0.344   4.590   1.874 -1.5032 -1.2211  0.1411
  598MOL0     C80617  -0.451   4.605   1.982  0.5089 -0.2564  0.3875
  598MOL0     C80618  -0.392   4.555   2.109  0.0793 -0.0896  0.3279
  598MOL0     O80619  -0.473   4.586   2.225 -0.2233  0.2914  0.1880
  598MOL0     C80620  -0.585   4.512   2.266 -0.2629 -0.3899 -0.1374
  598MOL0     C80621  -0.649   4.412   2.192  0.7451 -0.4941  0.3772
  598MOL0     C80622  -0.775   4.350   2.234 -0.0205 -1.0008 -0.0571
  598MOL0     C80623  -0.821   4.373   2.362 -0.3502  0.2421  0.0695
  598MOL0     C80624  -0.941   4.309   2.415 -0.4051 -1.4360 -0.3903
  598MOL0     O80625  -0.943   4.181   2.382  0.3485 -0.4746 -0.0220
  598MOL0     C80626  -1.061   4.107   2.413 -0.1291 -0.1360 -0.5675
  598MOL0     C80627  -1.181   4.104   2.337 -0.1894 -0.3062  0.5049
  598MOL0     C80628  -1.275   4.022   2.382 -0.3712 -0.6530 -0.5698
  598MOL0     C80629  -1.270   3.960   2.508 -0.0736  0.4470 -0.0080
  598MOL0     O80630  -1.367   3.886   2.560  0.2321 -0.6008  0.2204
  598MOL0     C80631  -1.433   3.796   2.479 -0.0408  0.7369 -0.3108
  598MOL0     C80632  -1.526   3.713   2.580  0.1843  0.1695 -0.3825
  598MOL0     C80633  -1.438   3.640   2.680 -0.9025  0.4357 -0.1751
  598MOL0     C80634  -1.511   3.519   2.741 -0.4272  0.2868  0.9044
  598MOL0     C80635  -1.622   3.559   2.833 -0.5187  0.1986 -0.0770
  598MOL0     C80636  -1.703   3.443   2.892  0.1887 -0.2853 -0.3133
  598MOL0     C80637  -1.628   3.347   2.983  0.3832 -0.1042 -0.4271
  598MOL0     C80638  -1.718   3.259   3.072 -0.0179 -0.5261  0.1184
  598MOL0    Cl80639  -1.613   3.169   3.176 -0.3154 -0.1100  0.0000
  598MOL0     C80640  -1.151   3.965   2.572 -0.4079 -0.5360 -0.3313
  598MOL0     C80641  -1.035   4.034   2.533  0.0730  0.7718  0.3363
  598MOL0     O80642  -1.016   4.376   2.496  0.1991 -0.2529  0.7189
  598MOL0     C80643  -0.747   4.458   2.447 -0.0486  0.4846 -0.4077
  598MOL0     C80644  -0.630   4.536   2.405  0.0378  0.2584  0.5404
  598MOL0     N80645  -0.116   4.637   1.663  0.2109  0.8166 -0.6122
  598MOL0     N80646  -0.087   4.703   1.555  0.1897  0.4350 -0.1355
  598MOL0     C80647   0.162   5.164   0.920  0.5081  0.3189 -0.8628
  598MOL0     C80648   0.200   5.300   0.897  0.3044  1.0229 -0.0526
  598MOL0     C80649   0.362   5.698   0.739 -0.7179 -0.0755 -0.7095
  598MOL0     C80650   0.329   5.736   0.871 -0.2794 -0.0343 -0.4880
  598MOL0     C80651   0.340   5.874   0.905  1.1234  1.3478  0.3250
  598MOL0     C80652   0.393   5.970   0.820  0.0952 -0.0336 -0.3439
  598MOL0     O80653   0.384   6.101   0.861 -0.4516 -0.1505 -0.1095
  598MOL0     C80654   0.308   6.190   0.768 -0.1297 -0.5337 -0.3255
  598MOL0     C80655   0.382   6.325   0.747  0.2733 -0.0431 -0.5398
  598MOL0     C80656   0.507   6.309   0.665  0.1829  0.5608 -1.1720
  598MOL0     C80657   0.602   6.428   0.673 -0.2619  0.6418  0.7462
  598MOL0     C80658   0.697   6.418   0.571 -0.3396  0.9210  0.5778
  598MOL0     C80659   0.772   6.395   0.481 -0.6627 -0.4030 -0.1692
  598MOL0     C80660   0.425   5.932   0.690 -0.1457  1.0368  0.2983
  598MOL0     C80661   0.411   5.801   0.656  0.9000 -0.2922 -0.1985
  598MOL0     C80662   0.430   5.779   0.506 -0.5347 -0.1428 -1.1570
  598MOL0     H80663   0.423   5.246   0.639  1.5507  2.2994  1.3176
  598MOL0     H80664   0.327   5.025   0.661 -0.1179  0.6740 -0.4865
  598MOL0     H80665   0.220   4.740   0.833  0.5801  0.5598 -0.4054
  598MOL0     H80666   0.338   4.865   0.790 -2.8503  2.2876 -3.0373
  598MOL0     H80667   0.351   4.922   1.025  1.2942 -1.0298  1.3474
  598MOL0     H80668   0.402   4.753   0.983 -0.7324 -1.6464 -1.3084
  598MOL0     H80669   0.306   4.733   1.184  1.2247 -1.1560 -2.1140
  598MOL0     H80670   0.192   4.656   1.073 -1.4982  1.1939 -0.3423
  598MOL0     H80671   0.158   4.938   1.205  0.8969 -1.1626  0.1305
  598MOL0     H80672   0.073   4.892   1.075  3.2651  1.8245 -1.0306
  598MOL0     H80673  -0.017   4.690   1.188 -0.9298  0.0611  0.7858
  598MOL0     H80674   0.062   4.756   1.337 -5.0503 -3.2107  1.4207
  598MOL0     H80675  -0.163   4.881   1.188 -2.5883  0.8304  1.7581
  598MOL0     H80676  -0.186   4.764   1.320 -0.5752 -1.5606 -1.7444
  598MOL0     H80677  -0.230   4.986   1.398 -0.5737 -1.6463  0.8676
  598MOL0     H80678  -0.077   5.059   1.326  3.1311  0.1746  5.4077
  598MOL0     H80679   0.060   4.926   1.464  0.4502  1.9463 -0.2221
  598MOL0     H80680  -0.029   5.035   1.555 -1.7894  0.5796 -0.5483
  598MOL0     H80681  -0.183   4.948   1.755 -1.6172 -0.5996  1.0875
  598MOL0     H80682  -0.155   4.651   1.939 -1.0046 -1.5791 -0.3785
  598MOL0     H80683  -0.274   4.791   1.922 -1.2636  1.8708 -5.2101
  598MOL0     H80684  -0.400   4.610   1.782 -3.9714  0.1291  1.8295
  598MOL0     H80685  -0.299   4.491   1.867  2.8442  0.3509  2.5117
  598MOL0     H80686  -0.531   4.541   1.946  0.7128  0.1610 -0.8614
  598MOL0     H80687  -0.490   4.707   1.990  0.9489 -0.1968  2.3599
  598MOL0     H80688  -0.295   4.602   2.124 -0.1844  0.6468 -0.2078
  598MOL0     H80689  -0.380   4.447   2.097  1.7703 -0.2408  2.6705
  598MOL0     H80690  -0.616   4.393   2.090  2.1825  4.3827 -0.3039
  598MOL0     H80691  -0.831   4.279   2.174  0.0701 -0.4029 -0.8754
  598MOL0     H80692  -1.189   4.154   2.241  0.2242  1.7193  1.4820
  598MOL0     H80693  -1.360   4.027   2.315  0.5915  1.9372 -1.7501
  598MOL0     H80694  -1.484   3.850   2.399 -1.5360  0.6700  0.5619
  598MOL0     H80695  -1.360   3.724   2.441  2.0281  1.6756  1.6531
  598MOL0     H80696  -1.584   3.786   2.636  2.9073  0.8614  1.7535
  598MOL0     H80697  -1.594   3.637   2.540  0.5388  1.4097 -3.6854
  598MOL0     H80698  -1.350   3.594   2.634 -0.0674  1.8788 -0.0871
  598MOL0     H80699  -1.417   3.706   2.764 -0.8959 -1.7159  1.5922
  598MOL0     H80700  -1.433   3.452   2.779  1.3820  0.3478 -2.3521
  598MOL0     H80701  -1.566   3.461   2.666 -0.4088  0.0935  1.0397
  598MOL0     H80702  -1.694   3.628   2.787 -1.7099 -0.7485  0.3056
  598MOL0     H80703  -1.573   3.619   2.910 -1.3604  1.5455 -0.5461
  598MOL0     H80704  -1.796   3.476   2.938  0.6757  0.7940 -0.0705
  598MOL0     H80705  -1.737   3.373   2.815 -1.6989 -0.2669  0.4667
  598MOL0     H80706  -1.569   3.405   3.054  1.9854 -0.0321 -1.7384
  598MOL0     H80707  -1.558   3.285   2.926  0.3243 -1.7880  1.2303
  598MOL0     H80708  -1.778   3.335   3.123  0.1751  1.3602 -2.3108
  598MOL0     H80709  -1.771   3.199   2.997  1.6144 -0.1182 -1.4201
  598MOL0     H80710  -1.145   3.916   2.668  0.1345 -2.1458 -1.1519
  598MOL0     H80711  -0.942   4.025   2.588 -1.2978 -2.0567  2.4919
  598MOL0     H80712  -0.783   4.473   2.549  3.8592 -0.0600  1.2049
  598MOL0     H80713  -0.582   4.598   2.480 -0.4627 -1.0546  1.9926
  598MOL0     H80714   0.086   5.120   0.985  0.7715 -1.3961 -1.6588
  598MOL0     H80715   0.162   5.378   0.962  0.6728  0.9725  0.2262
  598MOL0     H80716   0.283   5.665   0.939 -1.2928  0.5002 -0.5960
  598MOL0     H80717   0.297   5.896   1.003 -5.5105 -2.3077 -1.1945
  598MOL0     H80718   0.213   6.217   0.814 -0.5594 -0.5214 -1.2056
  598MOL0     H80719   0.291   6.146   0.669 -1.3787 -0.7259 -0.0482
  598MOL0     H80720   0.406   6.352   0.850 -1.6016 -2.4194  0.6221
  598MOL0     H80721   0.307   6.389   0.700  1.5268  1.0289 -1.1437
  598MOL0     H80722   0.477   6.316   0.560 -1.6335  3.3827 -0.6063
  598MOL0     H80723   0.556   6.215   0.690  1.6657  1.1028 -1.9263
  598MOL0     H80724   0.552   6.522   0.647  0.6677  1.1529  0.7355
  598MOL0     H80725   0.661   6.432   0.765 -0.6158  4.6015  0.9675
  598MOL0     H80726   0.833   6.381   0.394  1.3416  1.3486  0.8717
  598MOL0     H80727   0.463   6.005   0.619  0.6031  0.6595  0.2952
  598MOL0     H80728   0.334   5.777   0.454 -2.8223 -1.9127  2.6800
  598MOL0     H80729   0.501   5.852   0.467 -0.4426  0.9013  0.8140
  598MOL0     H80730   0.480   5.683   0.496 -0.5227 -0.0609 -1.9470
  599MOL0     O80731   7.237   8.448   6.248 -0.3431  0.3496 -0.5315
  599MOL0     C80732   7.250   8.430   6.369  0.4446 -0.4815  0.9333
  599MOL0     O80733   7.358   8.469   6.435 -0.4227 -0.5875 -0.7331
  599MOL0     C80734   7.449   8.536   6.370 -0.7435  0.7506  0.2566
  599MOL0     C80735   7.571   8.471   6.341  0.5369  0.5583 -0.3520
  599MOL0     C80736   7.683   8.539   6.281 -0.3366  0.2727 -0.6455
  599MOL0     C80737   7.662   8.675   6.246  0.4074  0.1699  0.2028
  599MOL0     O80738   7.756   8.731   6.163  0.6002  0.0366  0.1187
  599MOL0     C80739   7.799   8.861   6.200 -1.0714 -0.2663 -0.0725
  599MOL0     C80740   7.765   8.959   6.087 -0.2038  0.3487 -0.2521
  599MOL0     C80741   7.870   8.969   5.967  0.2026 -0.1592 -0.3684
  599MOL0     C80742   7.991   9.042   6.005 -0.7199  0.2753 -0.2440
  599MOL0     C80743   8.082   9.083   5.887 -0.1951 -0.0910 -0.3609
  599MOL0     C80744   8.167   8.971   5.834 -0.0465  0.1317 -0.5767
  599MOL0     C80745   8.259   9.024   5.724  0.4163 -0.2889 -0.0599
  599MOL0     C80746   8.371   8.915   5.694  0.5996 -0.2807  0.0658
  599MOL0     N80747   8.328   8.815   5.603 -0.0010 -0.5926  0.3773
  599MOL0     C80748   8.242   8.827   5.495 -0.0265 -0.8161 -0.4926
  599MOL0     C80749   8.232   8.703   5.452  0.2531 -0.2026 -0.3987
  599MOL0     C80750   8.168   8.662   5.324 -0.0946 -0.3547 -0.2644
  599MOL0     C80751   8.029   8.615   5.351  0.3827  0.0115  0.7537
  599MOL0     C80752   7.920   8.666   5.246  0.0676  0.0400 -0.5012
  599MOL0     C80753   7.902   8.827   5.241 -0.2849  0.7774  0.2319
  599MOL0     O80754   7.929   8.911   5.355  0.5961  0.1166 -0.6175
  599MOL0     C80755   7.826   8.922   5.454  1.3336 -0.0321 -1.0018
  599MOL0     C80756   7.831   9.031   5.543 -0.0436 -0.0105 -0.4429
  599MOL0     C80757   7.736   9.054   5.640 -0.0716  0.3657 -0.3282
  599MOL0     C80758   7.637   8.952   5.650 -0.1500  0.6063 -0.0982
  599MOL0     C80759   7.537   8.966   5.765 -0.3309 -0.1609 -0.6055
  599MOL0     O80760   7.481   8.856   5.813  0.4223 -0.7391 -0.0664
  599MOL0     C80761   7.373   8.856   5.892 -0.0498 -0.4038 -1.8127
  599MOL0     C80762   7.257   8.936   5.879 -0.6372 -0.4972 -0.2285
  599MOL0     C80763   7.136   8.907   5.952  0.4416 -0.8745  1.0114
  599MOL0     C80764   7.132   8.816   6.051  0.5872  0.1482  0.5493
  599MOL0     O80765   7.016   8.790   6.120  0.4257 -0.3948  0.4608
  599MOL0     C80766   7.018   8.699   6.242 -0.8016 -0.0081  0.5324
  599MOL0     C80767   6.873   8.662   6.277  0.6842 -0.4082 -0.9189
  599MOL0     C80768   6.838   8.623   6.424 -0.5067  0.3362 -0.3940
  599MOL0     C80769   6.693   8.590   6.446 -0.8044 -0.5387  1.8725
  599MOL0     C80770   6.657   8.531   6.573 -0.6989  0.6097 -0.0570
  599MOL0     C80771   6.709   8.588   6.702  0.2551  0.1720  0.7120
  599MOL0     C80772   6.632   8.529   6.823  0.2690  0.2597 -0.5416
  599MOL0     C80773   6.701   8.576   6.945 -0.6797 -0.2379 -0.4823
  599MOL0    Cl80774   6.878   8.529   6.957 -0.0478  0.0238 -0.1333
  599MOL0     C80775   7.251   8.748   6.075  0.3070  0.2229  0.3950
  599MOL0     C80776   7.365   8.766   6.001  0.0995 -0.2421  0.4460
  599MOL0     O80777   7.522   9.076   5.817  0.4830 -0.2450 -0.1088
  599MOL0     C80778   7.627   8.836   5.569 -1.1426 -0.2256 -0.1584
  599MOL0     C80779   7.725   8.823   5.468 -0.5664  0.3421  0.6492
  599MOL0     N80780   8.303   8.615   5.531  0.7645  0.4094  0.4736
  599MOL0     N80781   8.363   8.686   5.623  0.7097 -1.1825 -0.1452
  599MOL0     C80782   7.540   8.746   6.273  0.0674  1.3240 -0.5467
  599MOL0     C80783   7.441   8.671   6.346  0.4410  0.0660 -0.0429
  599MOL0     C80784   7.139   8.367   6.435  0.3864  0.6822 -0.9492
  599MOL0     C80785   7.133   8.376   6.577  0.0427  0.8643 -1.3709
  599MOL0     C80786   7.031   8.318   6.657  0.0546  0.3452  1.3203
  599MOL0     C80787   6.932   8.231   6.594  0.4695 -0.1248 -0.0553
  599MOL0     O80788   6.839   8.149   6.650  0.4778 -0.7690 -0.0627
  599MOL0     C80789   6.806   8.178   6.790  0.0450  0.1520  0.3533
  599MOL0     C80790   6.906   8.103   6.879  0.0771  0.5310 -0.8837
  599MOL0     C80791   6.945   8.161   7.018 -0.6423 -0.2990  0.3667
  599MOL0     C80792   6.825   8.190   7.100 -0.0313 -0.0993 -0.7618
  599MOL0     C80793   6.864   8.243   7.227 -0.1431 -0.7664  0.1266
  599MOL0     C80794   6.905   8.292   7.329 -0.5345 -1.1597  0.5688
  599MOL0     C80795   6.940   8.216   6.451 -0.4621 -0.4704 -0.1920
  599MOL0     C80796   7.039   8.287   6.370  0.5182 -0.2298  0.0714
  599MOL0     C80797   7.032   8.270   6.222 -1.6654 -0.1857  0.4506
  599MOL0     H80798   7.572   8.367   6.369 -2.4703  0.6623  0.4257
  599MOL0     H80799   7.775   8.483   6.266  1.6462  3.7812 -3.0386
  599MOL0     H80800   7.753   8.900   6.291  2.0470 -1.0429  2.0239
  599MOL0     H80801   7.907   8.859   6.219 -0.8127 -0.3803 -1.4433
  599MOL0     H80802   7.755   9.055   6.139 -5.2318 -0.6174  1.1576
  599MOL0     H80803   7.670   8.924   6.047  1.0210 -1.6720 -1.5936
  599MOL0     H80804   7.807   9.024   5.896 -0.9854  0.8647  1.4229
  599MOL0     H80805   7.893   8.872   5.921  2.5778 -0.1800  0.7238
  599MOL0     H80806   7.951   9.134   6.048 -1.4533  1.0569 -2.4527
  599MOL0     H80807   8.047   8.981   6.076 -1.6451 -0.6461 -0.2677
  599MOL0     H80808   8.036   9.143   5.808  0.6393  1.2970  0.1736
  599MOL0     H80809   8.149   9.152   5.940 -1.4749  2.0020 -1.3442
  599MOL0     H80810   8.233   8.934   5.913  0.1665  1.7800  0.0509
  599MOL0     H80811   8.100   8.898   5.787  1.5981  0.0814 -3.0208
  599MOL0     H80812   8.311   9.104   5.778 -0.0643 -1.5250  2.3921
  599MOL0     H80813   8.216   9.059   5.630  4.1178 -3.1404 -3.0840
  599MOL0     H80814   8.455   8.973   5.656  1.9159 -1.1440  1.5480
  599MOL0     H80815   8.419   8.873   5.783 -2.2486 -0.9292  1.4188
  599MOL0     H80816   8.200   8.918   5.454 -0.4958 -0.9067 -0.2189
  599MOL0     H80817   8.176   8.755   5.267  1.6233 -1.0793 -1.2884
  599MOL0     H80818   8.217   8.576   5.278 -0.0712 -0.2521 -0.4314
  599MOL0     H80819   8.036   8.506   5.354 -1.5707 -0.1146  2.3601
  599MOL0     H80820   7.991   8.633   5.452 -1.8877 -0.2067 -0.0082
  599MOL0     H80821   7.826   8.618   5.275  0.3522 -0.3808 -0.2676
  599MOL0     H80822   7.957   8.637   5.148 -0.3578  3.3148 -1.7534
  599MOL0     H80823   7.809   8.852   5.191 -0.0677  1.6538  0.2436
  599MOL0     H80824   7.989   8.849   5.178  2.8523 -1.5991  3.2918
  599MOL0     H80825   7.917   9.095   5.528 -0.3079  0.3216 -0.5442
  599MOL0     H80826   7.757   9.141   5.702  4.1917  0.5320 -1.6890
  599MOL0     H80827   7.251   9.000   5.791  2.7682 -2.7128 -2.2880
  599MOL0     H80828   7.054   8.974   5.929  1.3522 -0.2443 -0.5152
  599MOL0     H80829   7.065   8.602   6.220 -1.7067 -0.5631  1.0029
  599MOL0     H80830   7.070   8.737   6.330 -2.0999 -0.6010  1.5845
  599MOL0     H80831   6.798   8.736   6.247 -0.7299 -1.8449 -1.1332
  599MOL0     H80832   6.846   8.580   6.209  1.5862 -0.5515 -1.1064
  599MOL0     H80833   6.901   8.534   6.432 -1.1114 -0.4427 -3.1505
  599MOL0     H80834   6.874   8.694   6.499  0.8513 -2.8473  2.1831
  599MOL0     H80835   6.646   8.535   6.364  1.8524 -1.7446  1.0420
  599MOL0     H80836   6.649   8.690   6.443  2.5041  1.0518 -0.4362
  599MOL0     H80837   6.689   8.426   6.581 -1.5163  0.4248  0.9591
  599MOL0     H80838   6.549   8.535   6.586 -0.9209  0.9446 -1.7637
  599MOL0     H80839   6.818   8.576   6.707  0.2172 -0.1375  0.8429
  599MOL0     H80840   6.687   8.695   6.695 -1.4196 -0.0332  2.2524
  599MOL0     H80841   6.647   8.421   6.814 -0.4412 -0.0842  1.6657
  599MOL0     H80842   6.524   8.541   6.821 -0.4854 -3.7691  2.2840
  599MOL0     H80843   6.684   8.683   6.956 -1.0098 -0.3194 -0.1907
  599MOL0     H80844   6.646   8.517   7.019 -2.2494 -0.0790 -1.4675
  599MOL0     H80845   7.260   8.667   6.147  0.8209  3.0256  3.7175
  599MOL0     H80846   7.453   8.706   6.021  0.6033  0.5494  0.6885
  599MOL0     H80847   7.560   8.751   5.582  1.6258 -2.8551 -1.7389
  599MOL0     H80848   7.728   8.733   5.408  0.1494 -0.4201  1.8077
  599MOL0     H80849   7.521   8.850   6.253 -2.2781  1.5607  2.3204
  599MOL0     H80850   7.346   8.718   6.369  1.2424  2.5247 -1.4242
  599MOL0     H80851   7.203   8.444   6.624  0.9086 -0.2716 -0.9820
  599MOL0     H80852   7.028   8.318   6.766 -1.3491 -1.5770  1.3280
  599MOL0     H80853   6.700   8.168   6.811 -0.9209  2.6663 -2.5283
  599MOL0     H80854   6.821   8.285   6.808  0.8489 -0.0910  1.2672
  599MOL0     H80855   6.996   8.115   6.819  0.2870  1.3300 -0.4264
  599MOL0     H80856   6.879   7.997   6.884 -2.3240  1.0506 -1.4696
  599MOL0     H80857   7.004   8.253   7.013  0.7947 -1.1505  1.0847
  599MOL0     H80858   7.004   8.084   7.068  1.1223 -1.3599 -2.9622
  599MOL0     H80859   6.751   8.260   7.060  0.4927  0.4427 -0.7906
  599MOL0     H80860   6.762   8.101   7.112 -1.3339  0.7667 -0.9941
  599MOL0     H80861   6.943   8.345   7.414  1.6897  2.3106 -2.3152
  599MOL0     H80862   6.865   8.156   6.401 -0.4096 -0.6146 -0.0984
  599MOL0     H80863   7.127   8.224   6.194 -1.5414  0.8234 -0.8558
  599MOL0     H80864   6.946   8.203   6.210 -1.2135 -0.8654  0.9121
  599MOL0     H80865   7.025   8.371   6.183  4.2572  2.9700  5.6834
  600MOL0     O80866   7.495   2.732   0.924 -0.5360 -0.0456 -0.2616
  600MOL0     C80867   7.611   2.693   0.906  0.0349  0.6181 -0.7656
  600MOL0     O80868   7.666   2.671   0.777  0.4297  0.7380  0.8040
  600MOL0     C80869   7.574   2.702   0.669  0.1944 -0.6741 -0.2838
  600MOL0     C80870   7.504   2.600   0.610  0.4008 -0.5268  0.6736
  600MOL0     C80871   7.431   2.623   0.497  0.4538 -1.2152 -0.2224
  600MOL0     C80872   7.427   2.761   0.454  0.4134 -0.2884  1.0222
  600MOL0     O80873   7.350   2.783   0.343  0.4104 -0.6601 -0.6051
  600MOL0     C80874   7.361   2.912   0.279  0.0082 -0.2213 -0.5749
  600MOL0     C80875   7.339   2.897   0.126  0.2554  0.5702  0.0096
  600MOL0     C80876   7.353   3.021   0.047 -0.0766 -0.0789 -0.2624
  600MOL0     C80877   7.357   2.987  -0.101  0.4002  0.4292  0.3689
  600MOL0     C80878   7.210   3.005  -0.163 -0.5434 -1.2105 -0.1545
  600MOL0     C80879   7.207   2.984  -0.309 -0.3757 -0.4400  0.0797
  600MOL0     C80880   7.070   2.999  -0.367  0.2252  0.5715  0.3155
  600MOL0     C80881   7.056   2.962  -0.516  0.2565 -0.6135  0.0584
  600MOL0     N80882   7.110   2.825  -0.535  0.1723 -0.7607  0.0663
  600MOL0     C80883   7.043   2.709  -0.513 -0.5577 -0.0024  0.9851
  600MOL0     C80884   7.150   2.615  -0.530 -0.0707 -0.2531  0.0791
  600MOL0     C80885   7.139   2.466  -0.530  0.0984  0.7327  0.1311
  600MOL0     C80886   7.022   2.430  -0.630 -0.5328 -0.2439 -0.1365
  600MOL0     C80887   7.026   2.280  -0.655 -0.2899 -1.1053 -0.0620
  600MOL0     C80888   6.953   2.182  -0.567 -0.5614 -0.0077  0.2538
  600MOL0     O80889   6.816   2.211  -0.555  0.0332 -0.6911  0.4428
  600MOL0     C80890   6.739   2.180  -0.442 -0.4290  0.3434  0.2544
  600MOL0     C80891   6.599   2.195  -0.457 -0.5297  0.0858  0.2789
  600MOL0     C80892   6.501   2.148  -0.371  0.0811 -0.3691 -0.7611
  600MOL0     C80893   6.549   2.093  -0.251  0.1497 -0.0288  0.0692
  600MOL0     C80894   6.452   2.051  -0.149  0.4110  0.9729  0.1109
  600MOL0     O80895   6.509   1.998  -0.031  0.3206  0.0414  0.3906
  600MOL0     C80896   6.411   1.962   0.063  0.2271  0.1934 -0.2668
  600MOL0     C80897   6.357   1.832   0.059 -0.3925 -0.6595 -0.8408
  600MOL0     C80898   6.248   1.793   0.147  0.3379  0.5013  0.5957
  600MOL0     C80899   6.194   1.890   0.238  0.1965  0.9585  1.0200
  600MOL0     O80900   6.087   1.878   0.326 -0.5398 -0.1873  0.3389
  600MOL0     C80901   6.030   1.746   0.330 -0.3610  0.3788  0.1389
  600MOL0     C80902   5.905   1.747   0.413 -0.1980 -0.3538 -0.5920
  600MOL0     C80903   5.800   1.821   0.350  0.5643  0.2101  0.8065
  600MOL0     C80904   5.690   1.859   0.454 -0.6251  0.6490  0.0024
  600MOL0     C80905   5.705   1.975   0.532  0.0117 -0.2737  0.0283
  600MOL0     C80906   5.586   2.033   0.608  0.6217  1.1218 -1.1063
  600MOL0     C80907   5.625   2.155   0.681  0.4541  0.3840  0.2852
  600MOL0     C80908   5.518   2.260   0.658  0.1399  0.4461 -0.3705
  600MOL0    Cl80909   5.396   2.239   0.786 -0.0786 -0.2364  0.2182
  600MOL0     C80910   6.250   2.024   0.236 -0.1497  0.1182 -0.4229
  600MOL0     C80911   6.361   2.056   0.160 -0.8010  0.5466  0.6523
  600MOL0     O80912   6.328   2.054  -0.179 -0.7367  0.5345  0.7239
  600MOL0     C80913   6.689   2.073  -0.240  0.7485  1.0631 -0.4137
  600MOL0     C80914   6.783   2.111  -0.337 -0.2421  0.5290 -0.7297
  600MOL0     N80915   7.271   2.690  -0.557 -0.5044 -0.8672 -0.1783
  600MOL0     N80916   7.241   2.816  -0.563  0.3688  0.7182 -0.3910
  600MOL0     C80917   7.497   2.860   0.516  0.8919  0.1297  0.1634
  600MOL0     C80918   7.580   2.838   0.628 -0.6490  0.3350  0.8106
  600MOL0     C80919   7.713   2.681   1.010 -0.1821 -0.5470 -0.3642
  600MOL0     C80920   7.855   2.676   0.979 -0.0520  0.1697 -0.6111
  600MOL0     C80921   7.949   2.652   1.083 -0.1701  0.0437  0.7696
  600MOL0     C80922   7.911   2.653   1.219 -0.1369  0.5950 -0.7819
  600MOL0     O80923   8.007   2.654   1.317  1.1665 -0.9942 -0.6868
  600MOL0     C80924   8.089   2.536   1.321 -0.0457  0.7289 -0.9029
  600MOL0     C80925   8.169   2.550   1.454  0.2353  0.0839 -0.0989
  600MOL0     C80926   8.245   2.426   1.490  0.0307 -0.3473  0.2326
  600MOL0     C80927   8.331   2.457   1.609 -0.7774  1.2863  0.3385
  600MOL0     C80928   8.396   2.327   1.651 -0.1727 -1.4810  0.2040
  600MOL0     C80929   8.450   2.228   1.705 -0.2962  1.0814  0.0826
  600MOL0     C80930   7.779   2.646   1.251 -1.0213  0.6579  0.2597
  600MOL0     C80931   7.684   2.658   1.145  1.0219  0.1832  0.0496
  600MOL0     C80932   7.540   2.641   1.181  0.2755  0.1531 -0.3303
  600MOL0     H80933   7.510   2.492   0.626 -3.0038 -0.6596  1.7586
  600MOL0     H80934   7.368   2.546   0.455 -0.4547 -0.0227 -1.1057
  600MOL0     H80935   7.278   2.963   0.330  1.6762  1.1212  0.9070
  600MOL0     H80936   7.462   2.951   0.290  0.0594 -0.8381  1.6264
  600MOL0     H80937   7.235   2.872   0.103 -1.3159  4.2913  2.1103
  600MOL0     H80938   7.403   2.817   0.088  1.1642  1.7646 -1.0416
  600MOL0     H80939   7.445   3.073   0.078  0.3558 -0.9605 -0.0292
  600MOL0     H80940   7.276   3.094   0.073 -1.0601 -1.4387  0.7449
  600MOL0     H80941   7.423   3.054  -0.156  1.1662  0.2427  1.0484
  600MOL0     H80942   7.388   2.886  -0.129 -0.2782 -0.0053  1.1319
  600MOL0     H80943   7.142   2.931  -0.119 -0.6585 -0.4373  1.0066
  600MOL0     H80944   7.178   3.107  -0.140 -1.1807 -1.3830 -0.2604
  600MOL0     H80945   7.277   3.053  -0.357 -0.4448 -0.7234 -0.4357
  600MOL0     H80946   7.242   2.881  -0.321 -1.0041 -0.4654 -1.9736
  600MOL0     H80947   7.030   3.101  -0.359 -1.9990 -0.2266  0.3182
  600MOL0     H80948   7.005   2.928  -0.315 -1.0904  1.0545 -0.5987
  600MOL0     H80949   6.949   2.970  -0.538  0.3232 -0.3578 -0.1751
  600MOL0     H80950   7.099   3.038  -0.581  1.2369 -0.5336  0.7817
  600MOL0     H80951   6.935   2.712  -0.505 -0.7613  3.7656 -1.2879
  600MOL0     H80952   7.229   2.406  -0.545 -1.3809 -1.4306 -0.5571
  600MOL0     H80953   7.092   2.437  -0.436 -0.3505  1.9175  0.2943
  600MOL0     H80954   6.924   2.451  -0.586 -0.4267  1.0713 -0.4747
  600MOL0     H80955   7.035   2.487  -0.723 -2.5010 -1.4454 -1.2083
  600MOL0     H80956   7.126   2.239  -0.670  0.5033 -0.1606  2.2217
  600MOL0     H80957   6.980   2.266  -0.753 -0.6247 -0.0484 -0.0685
  600MOL0     H80958   6.994   2.196  -0.467 -0.9448 -0.2891  0.4508
  600MOL0     H80959   6.971   2.083  -0.611 -3.4341  0.0552 -1.2644
  600MOL0     H80960   6.570   2.226  -0.557  0.9471 -0.0961 -0.2387
  600MOL0     H80961   6.402   2.168  -0.410  1.1209 -1.8513 -4.6155
  600MOL0     H80962   6.401   1.765  -0.015  0.3310 -1.4556  0.2749
  600MOL0     H80963   6.210   1.693   0.129  1.8221  0.2452 -1.5251
  600MOL0     H80964   6.002   1.707   0.232  0.0036  1.3866 -0.3944
  600MOL0     H80965   6.108   1.693   0.385  1.1437  1.0413 -1.2582
  600MOL0     H80966   5.873   1.652   0.456  2.4138 -0.4123  1.4978
  600MOL0     H80967   5.928   1.809   0.500 -4.1037 -0.5381  0.7665
  600MOL0     H80968   5.844   1.909   0.302  1.8821 -1.6338 -1.5624
  600MOL0     H80969   5.750   1.754   0.279  1.6927 -2.6820  2.5699
  600MOL0     H80970   5.677   1.768   0.514 -0.0213 -0.1815 -1.0874
  600MOL0     H80971   5.605   1.872   0.386 -0.3960  0.1679 -0.3862
  600MOL0     H80972   5.754   2.051   0.469  1.3305 -1.5614 -0.5583
  600MOL0     H80973   5.781   1.956   0.608  0.4516  4.0561  0.9563
  600MOL0     H80974   5.504   2.055   0.539 -0.6762  1.7307  0.5488
  600MOL0     H80975   5.552   1.962   0.685  1.2096  0.2763 -1.6063
  600MOL0     H80976   5.720   2.188   0.638  0.1948  1.3062  0.3993
  600MOL0     H80977   5.643   2.126   0.785  0.7076 -3.7226 -0.7025
  600MOL0     H80978   5.575   2.352   0.672 -1.5018  1.2318  1.5057
  600MOL0     H80979   5.485   2.251   0.554  1.2192 -3.2558 -0.5495
  600MOL0     H80980   6.200   2.089   0.307 -0.8463  1.1190 -1.7917
  600MOL0     H80981   6.402   2.156   0.167  0.6517 -0.0340  0.8785
  600MOL0     H80982   6.735   2.034  -0.149 -1.4252  1.5162  0.9648
  600MOL0     H80983   6.884   2.072  -0.334  0.3081  1.8334 -1.5400
  600MOL0     H80984   7.491   2.964   0.486  3.4134  0.7943  1.6204
  600MOL0     H80985   7.643   2.917   0.668  0.5596  0.2171 -0.7871
  600MOL0     H80986   7.882   2.697   0.876 -2.6238  0.4093 -1.3241
  600MOL0     H80987   8.056   2.647   1.067 -0.4762  1.3645 -2.3521
  600MOL0     H80988   8.153   2.533   1.232 -2.4923  1.7092 -2.8134
  600MOL0     H80989   8.024   2.449   1.336  1.6843 -0.6008 -0.8232
  600MOL0     H80990   8.091   2.574   1.527 -0.1444  1.8650 -1.0371
  600MOL0     H80991   8.234   2.638   1.448  0.1042  0.0519 -3.0967
  600MOL0     H80992   8.303   2.404   1.400 -2.3686 -1.6362 -1.0814
  600MOL0     H80993   8.180   2.339   1.496  0.3852 -0.7043 -0.9914
  600MOL0     H80994   8.416   2.523   1.589  0.9266 -1.2519 -1.2930
  600MOL0     H80995   8.271   2.496   1.692  0.6379  0.5472  1.7870
  600MOL0     H80996   8.494   2.144   1.755 -0.1680  1.1625  0.1036
  600MOL0     H80997   7.758   2.631   1.357 -2.9322 -1.8117 -0.3539
  600MOL0     H80998   7.472   2.724   1.163 -2.0980 -0.5965  3.8680
  600MOL0     H80999   7.499   2.549   1.138 -1.5241  0.3240  0.8974
  600MOL0     H81000   7.533   2.632   1.290  1.1702  0.0180 -0.2743
  601MOL0     O81001   8.034   6.342   0.874  0.1273 -0.6876  0.1968
  601MOL0     C81002   8.074   6.348   0.983  0.4343  0.4612 -0.5199
  601MOL0     O81003   8.183   6.276   1.033  0.6798  0.4274 -0.2406
  601MOL0     C81004   8.251   6.187   0.951 -0.8430 -0.1698 -0.3301
  601MOL0     C81005   8.261   6.176   0.809  0.3263 -0.2374 -0.6326
  601MOL0     C81006   8.344   6.086   0.745 -0.6441  0.7637 -0.0438
  601MOL0     C81007   8.411   5.985   0.811  0.1638 -0.1082  0.0148
  601MOL0     O81008   8.507   5.901   0.758 -1.0742 -0.5959  0.4939
  601MOL0     C81009   8.554   5.936   0.629 -0.4893 -0.3224 -0.3656
  601MOL0     C81010   8.681   5.847   0.604  0.3072  0.0082 -0.4503
  601MOL0     C81011   8.636   5.700   0.587  0.1371  1.2666  0.5829
  601MOL0     C81012   8.728   5.614   0.498 -0.3156 -0.6699  0.7576
  601MOL0     C81013   8.732   5.460   0.526 -0.5425  0.1618  0.0164
  601MOL0     C81014   8.833   5.426   0.641 -0.5286 -0.5213  0.5477
  601MOL0     C81015   8.828   5.266   0.658 -1.0953 -0.0596  0.2516
  601MOL0     C81016   8.864   5.220   0.807 -0.2287 -0.4887 -0.3131
  601MOL0     N81017   8.997   5.280   0.853  0.3603  0.0972 -0.4388
  601MOL0     C81018   9.019   5.395   0.918 -0.4083 -0.3363 -0.4437
  601MOL0     C81019   9.148   5.394   0.960 -0.8332 -0.4815 -0.5185
  601MOL0     C81020   9.199   5.522   1.018  0.3434 -0.2198 -0.2902
  601MOL0     C81021   9.276   5.510   1.154 -0.9548 -0.4584 -0.3244
  601MOL0     C81022   9.199   5.442   1.254 -0.3974 -0.2129 -0.3285
  601MOL0     C81023   9.260   5.421   1.393  0.5546  0.3326  0.5131
  601MOL0     O81024   9.167   5.401   1.498 -0.5311  0.1074  1.0649
  601MOL0     C81025   9.093   5.501   1.549  0.5841  0.4630 -0.4887
  601MOL0     C81026   9.096   5.635   1.512  0.5176  0.4563 -0.3401
  601MOL0     C81027   9.023   5.736   1.581 -0.5990  0.4660  0.2667
  601MOL0     C81028   8.945   5.697   1.689 -0.1682  0.1281 -1.2349
  601MOL0     C81029   8.851   5.803   1.734  0.4742 -0.5276 -0.5625
  601MOL0     O81030   8.883   5.939   1.731 -0.0576  0.9155 -0.7763
  601MOL0     C81031   8.776   6.024   1.746  0.2193 -0.5426 -0.5395
  601MOL0     C81032   8.771   6.107   1.861 -0.7066 -0.0994 -0.0393
  601MOL0     C81033   8.686   6.217   1.874 -0.3869  0.6406  0.0512
  601MOL0     C81034   8.604   6.244   1.765  0.0251  0.0255  0.0458
  601MOL0     O81035   8.524   6.357   1.763  0.0543  0.1006  0.0461
  601MOL0     C81036   8.412   6.338   1.854 -0.1103  0.6239 -0.3142
  601MOL0     C81037   8.352   6.478   1.842  1.0074  0.2359 -0.0242
  601MOL0     C81038   8.213   6.484   1.898  0.7182  0.2685  0.2549
  601MOL0     C81039   8.188   6.457   2.050 -0.8321  0.6071  0.2601
  601MOL0     C81040   8.040   6.471   2.082  0.4205 -0.5304 -0.1972
  601MOL0     C81041   7.968   6.329   2.069  0.6294  0.0960 -0.5701
  601MOL0     C81042   7.821   6.337   2.131 -0.7035 -0.2719 -0.1326
  601MOL0     C81043   7.726   6.228   2.091  0.0371  0.1389 -0.2120
  601MOL0    Cl81044   7.562   6.235   2.181  0.4265 -0.0418  0.1034
  601MOL0     C81045   8.601   6.157   1.649 -0.4794 -0.2225 -0.0148
  601MOL0     C81046   8.688   6.046   1.643  1.2132  0.8437  0.5670
  601MOL0     O81047   8.747   5.759   1.785  0.6916  0.4661 -0.0129
  601MOL0     C81048   8.945   5.564   1.729 -0.2666  0.8984  0.6724
  601MOL0     C81049   9.020   5.473   1.662 -0.0572  0.2792  0.4208
  601MOL0     N81050   9.214   5.286   0.914 -0.3498 -0.8852 -0.5643
  601MOL0     N81051   9.119   5.222   0.851 -0.8925 -0.0891  0.2880
  601MOL0     C81052   8.408   5.988   0.950 -0.1424  0.3883  0.3410
  601MOL0     C81053   8.325   6.085   1.019 -0.3221  0.2706  0.3124
  601MOL0     C81054   7.980   6.398   1.092  0.1854  0.3731  0.3717
  601MOL0     C81055   8.045   6.484   1.177 -0.0277 -1.0418  0.2300
  601MOL0     C81056   7.972   6.549   1.282 -0.2121  0.9282 -0.1323
  601MOL0     C81057   7.842   6.511   1.314  0.8584  0.2402  0.2208
  601MOL0     O81058   7.772   6.561   1.420 -0.2769  0.4929  0.5548
  601MOL0     C81059   7.634   6.524   1.445  0.9179  0.5718 -0.0336
  601MOL0     C81060   7.579   6.571   1.591 -0.0105  0.4341  0.2245
  601MOL0     C81061   7.613   6.467   1.697  0.2389 -0.3612  0.5467
  601MOL0     C81062   7.750   6.497   1.761 -0.0773 -0.3642  0.3261
  601MOL0     C81063   7.752   6.631   1.823  0.2385 -0.8471 -0.1673
  601MOL0     C81064   7.741   6.741   1.883 -0.1576  0.7536  0.5483
  601MOL0     C81065   7.776   6.434   1.215 -0.9939  0.3691  0.1326
  601MOL0     C81066   7.843   6.375   1.105  0.2103 -0.4102 -0.9576
  601MOL0     C81067   7.769   6.280   1.028  0.7922 -0.2047 -0.5513
  601MOL0     H81068   8.205   6.241   0.743  0.1707 -2.0982 -2.4353
  601MOL0     H81069   8.351   6.091   0.636 -1.4059  2.6844 -0.0387
  601MOL0     H81070   8.493   5.911   0.542  2.3314 -4.2216 -1.4763
  601MOL0     H81071   8.582   6.042   0.627  0.5502 -0.6056 -1.7351
  601MOL0     H81072   8.757   5.857   0.683  0.4950  2.7739 -0.8681
  601MOL0     H81073   8.718   5.891   0.511 -2.1605  1.7394 -0.6972
  601MOL0     H81074   8.531   5.687   0.559  0.3196 -1.7275  0.9310
  601MOL0     H81075   8.625   5.666   0.690 -3.6830 -1.1392 -0.4156
  601MOL0     H81076   8.687   5.627   0.397  1.6617  1.5880  0.1316
  601MOL0     H81077   8.826   5.660   0.512  0.3999 -1.7026 -0.5781
  601MOL0     H81078   8.632   5.418   0.542 -0.3791 -0.2076  0.0786
  601MOL0     H81079   8.766   5.413   0.434  1.4452  1.8948 -0.2010
  601MOL0     H81080   8.937   5.457   0.632  0.0686 -2.8921 -2.2055
  601MOL0     H81081   8.781   5.462   0.731 -0.8360 -1.0343  0.5791
  601MOL0     H81082   8.892   5.217   0.584 -0.0220 -0.8000  1.6230
  601MOL0     H81083   8.729   5.229   0.632 -0.9893  1.0609 -2.0067
  601MOL0     H81084   8.778   5.257   0.863  1.7316  3.8648  0.2698
  601MOL0     H81085   8.870   5.111   0.794 -1.3035 -0.3671 -2.2018
  601MOL0     H81086   8.952   5.478   0.937  1.9181  1.2264  1.5129
  601MOL0     H81087   9.262   5.558   0.936  0.4941 -1.1164 -0.5797
  601MOL0     H81088   9.113   5.589   1.030 -0.8056 -1.8438  0.9878
  601MOL0     H81089   9.369   5.455   1.136 -0.2264  0.8331 -0.5898
  601MOL0     H81090   9.304   5.608   1.193 -1.9126 -0.7997  1.3349
  601MOL0     H81091   9.181   5.337   1.226  2.8958 -1.1325  0.5832
  601MOL0     H81092   9.100   5.487   1.263  0.6396  2.0126  0.7572
  601MOL0     H81093   9.321   5.506   1.427  4.1254 -2.8014  2.7820
  601MOL0     H81094   9.307   5.322   1.392  2.1459  1.0434 -1.3341
  601MOL0     H81095   9.151   5.661   1.422  2.9630  0.4552  1.0673
  601MOL0     H81096   9.032   5.838   1.544  5.4789  0.3579  0.5887
  601MOL0     H81097   8.837   6.083   1.945 -2.2458 -0.9327  0.9926
  601MOL0     H81098   8.699   6.285   1.957  0.2240  1.7014 -0.8840
  601MOL0     H81099   8.346   6.253   1.835 -0.3688  0.2849  1.7775
  601MOL0     H81100   8.439   6.322   1.959 -2.5254 -0.5691  0.2117
  601MOL0     H81101   8.424   6.549   1.883  1.0225  1.6577 -2.3233
  601MOL0     H81102   8.337   6.499   1.735  3.7197  0.5585 -0.3924
  601MOL0     H81103   8.169   6.580   1.868 -2.0300  0.4858  4.2060
  601MOL0     H81104   8.159   6.400   1.853  1.6029  0.0495 -0.4358
  601MOL0     H81105   8.240   6.535   2.106 -0.7300  1.3473 -0.8408
  601MOL0     H81106   8.233   6.370   2.099  1.9390  3.0222  2.3916
  601MOL0     H81107   7.979   6.529   2.012 -1.2050  0.3805  1.8582
  601MOL0     H81108   8.027   6.505   2.185 -0.9411 -0.5250 -0.3523
  601MOL0     H81109   7.968   6.296   1.964  0.1856  0.1553 -0.5916
  601MOL0     H81110   8.033   6.258   2.121 -0.9375 -3.1318 -2.7107
  601MOL0     H81111   7.768   6.429   2.107 -2.6276 -0.7600  1.8633
  601MOL0     H81112   7.820   6.321   2.240  0.5342  0.6491  0.0328
  601MOL0     H81113   7.714   6.241   1.984 -0.5836 -0.4270 -0.2145
  601MOL0     H81114   7.778   6.135   2.116 -2.4265 -1.1137  0.5699
  601MOL0     H81115   8.548   6.184   1.558  0.7159  2.1268 -0.0678
  601MOL0     H81116   8.686   5.974   1.562 -2.8862  0.8356  0.4855
  601MOL0     H81117   8.859   5.537   1.789 -0.1376 -0.2938  0.3505
  601MOL0     H81118   9.026   5.371   1.698  0.5974  0.6708  1.4971
  601MOL0     H81119   8.472   5.915   0.997 -1.0055 -2.0507 -1.9617
  601MOL0     H81120   8.325   6.076   1.127  1.4092 -1.9585  0.1979
  601MOL0     H81121   8.147   6.520   1.176 -0.6792  1.0693  2.1530
  601MOL0     H81122   8.023   6.625   1.340 -1.0477  1.9915 -0.7336
  601MOL0     H81123   7.639   6.415   1.440 -0.6582  0.4510  0.4055
  601MOL0     H81124   7.564   6.557   1.367 -1.4345 -3.4472  0.1162
  601MOL0     H81125   7.472   6.587   1.576  0.9158  3.8276 -6.7029
  601MOL0     H81126   7.615   6.673   1.604 -2.0215  1.6975 -2.9355
  601MOL0     H81127   7.601   6.361   1.671  2.0284 -0.9340  1.8709
  601MOL0     H81128   7.533   6.486   1.770  1.7556  5.5673  1.1569
  601MOL0     H81129   7.782   6.424   1.836 -0.3380 -1.0423 -0.2082
  601MOL0     H81130   7.821   6.488   1.677 -1.1999 -2.1711 -0.4920
  601MOL0     H81131   7.705   6.833   1.923 -4.4204  0.7647 -2.6477
  601MOL0     H81132   7.668   6.433   1.207 -0.9902 -1.6015 -0.1216
  601MOL0     H81133   7.699   6.221   1.088 -0.4410  1.7301 -0.0308
  601MOL0     H81134   7.707   6.324   0.950  0.5954 -1.3133 -1.0499
  601MOL0     H81135   7.842   6.210   0.984 -0.0764 -1.9800  0.7035
  602MOL0     O81136   9.293   5.236   8.813  0.8499 -0.1541  0.9028
  602MOL0     C81137   9.192   5.229   8.745 -1.1141  0.0557 -0.9186
  602MOL0     O81138   9.193   5.219   8.607 -0.3302  0.5830  0.7346
  602MOL0     C81139   9.310   5.190   8.539  1.1450  0.5134  0.2727
  602MOL0     C81140   9.423   5.115   8.582  0.0502 -0.9827  0.4459
  602MOL0     C81141   9.515   5.062   8.487 -0.6244  0.0193 -0.2721
  602MOL0     C81142   9.509   5.083   8.350 -0.6545 -0.6271 -0.4626
  602MOL0     O81143   9.602   5.032   8.270  0.2612  0.6244  0.1438
  602MOL0     C81144   9.744   5.049   8.287  0.1108  0.5328  0.1035
  602MOL0     C81145   9.827   5.015   8.159 -0.4601 -0.1316 -0.3435
  602MOL0     C81146   9.804   4.870   8.113  0.1003 -0.4750 -0.2957
  602MOL0     C81147   9.845   4.857   7.962 -1.1942  0.6578 -1.0496
  602MOL0     C81148   9.870   4.706   7.924  0.2924  0.4989 -0.7195
  602MOL0     C81149   9.733   4.635   7.926 -1.5468 -0.0381  0.5983
  602MOL0     C81150   9.754   4.514   7.842 -0.1213  0.2528  0.8706
  602MOL0     C81151   9.710   4.533   7.696 -0.5015  0.4447  0.0607
  602MOL0     N81152   9.564   4.550   7.673  0.2731 -0.3642  0.2905
  602MOL0     C81153   9.525   4.653   7.594  0.2057 -0.6381 -0.0555
  602MOL0     C81154   9.397   4.663   7.606  0.3116  0.3320  0.5608
  602MOL0     C81155   9.311   4.766   7.544  0.3882 -0.1705 -0.7318
  602MOL0     C81156   9.367   4.909   7.545 -0.7124  1.1383 -0.0164
  602MOL0     C81157   9.287   5.005   7.470  0.5247 -0.5999  0.4020
  602MOL0     C81158   9.353   5.151   7.478  0.3467  0.3124  0.5754
  602MOL0     O81159   9.269   5.254   7.416  0.1001  0.0038 -0.0795
  602MOL0     C81160   9.307   5.384   7.409 -0.0068 -0.0605  1.4369
  602MOL0     C81161   9.231   5.463   7.319 -0.6228  0.1056  0.5557
  602MOL0     C81162   9.264   5.592   7.296  0.4764  1.0302 -1.8168
  602MOL0     C81163   9.368   5.651   7.366  0.3898 -0.2204 -0.2375
  602MOL0     C81164   9.409   5.788   7.325  0.8894 -0.0215 -0.7806
  602MOL0     O81165   9.329   5.845   7.235 -0.9173 -0.8808 -0.8746
  602MOL0     C81166   9.271   5.967   7.249  0.0022  0.5833  0.3286
  602MOL0     C81167   9.212   6.020   7.133  0.4089  0.2739 -0.1250
  602MOL0     C81168   9.139   6.132   7.135 -0.4365 -1.0751 -1.2828
  602MOL0     C81169   9.112   6.195   7.268 -0.2063  0.1266 -0.4789
  602MOL0     O81170   9.043   6.313   7.269 -0.0821 -1.1281  0.7058
  602MOL0     C81171   9.079   6.397   7.372  0.2890 -0.2415  0.3655
  602MOL0     C81172   9.059   6.543   7.340 -0.4983  0.5396 -0.5877
  602MOL0     C81173   8.908   6.556   7.340  0.6815  0.3401  0.0710
  602MOL0     C81174   8.875   6.706   7.302 -0.1527  0.7278  0.6163
  602MOL0     C81175   8.724   6.742   7.333 -0.5527  0.8723  0.1765
  602MOL0     C81176   8.675   6.884   7.310  0.6765  0.4271 -0.6699
  602MOL0     C81177   8.517   6.902   7.330 -0.1986  0.0669 -0.5130
  602MOL0     C81178   8.453   6.816   7.442 -0.0314 -0.3793 -0.9624
  602MOL0    Cl81179   8.289   6.872   7.471  0.0505 -0.3073  0.4747
  602MOL0     C81180   9.178   6.151   7.384 -0.9226 -0.1676  0.0792
  602MOL0     C81181   9.262   6.040   7.370 -0.3751 -0.4231 -0.3004
  602MOL0     O81182   9.501   5.852   7.375 -0.5078  0.5803 -0.3748
  602MOL0     C81183   9.429   5.565   7.461 -0.8719  0.1975  0.4273
  602MOL0     C81184   9.415   5.433   7.484  0.0706  0.1100 -0.8840
  602MOL0     N81185   9.354   4.572   7.692 -0.4334  0.4409  0.5948
  602MOL0     N81186   9.456   4.507   7.739  0.1354 -0.1279 -0.1992
  602MOL0     C81187   9.403   5.166   8.313  0.6527  1.2175  0.2293
  602MOL0     C81188   9.315   5.216   8.400  0.6488  0.2442  0.6584
  602MOL0     C81189   9.066   5.231   8.814  0.3772 -0.0313 -0.0577
  602MOL0     C81190   9.057   5.153   8.923  0.7008 -0.1122 -0.6087
  602MOL0     C81191   8.940   5.151   9.002 -0.7115 -1.1929 -0.8442
  602MOL0     C81192   8.830   5.227   8.967  0.1473  0.1210 -0.0367
  602MOL0     O81193   8.707   5.231   9.029  0.5317 -0.4609 -0.1929
  602MOL0     C81194   8.701   5.192   9.168  0.0633  1.0258 -0.9616
  602MOL0     C81195   8.629   5.299   9.252  0.2224 -0.8035 -0.7992
  602MOL0     C81196   8.479   5.298   9.219  0.1819  0.7443  0.0549
  602MOL0     C81197   8.402   5.411   9.294 -0.1574  0.3534 -0.0876
  602MOL0     C81198   8.437   5.552   9.290 -0.1880 -0.3476 -0.3314
  602MOL0     C81199   8.424   5.671   9.276  0.1993 -0.0998  0.4537
  602MOL0     C81200   8.833   5.292   8.840  0.5130 -0.4625  0.5155
  602MOL0     C81201   8.953   5.298   8.768  0.2833  0.4523  0.5864
  602MOL0     C81202   8.958   5.382   8.648  0.7458 -0.6686 -0.3295
  602MOL0     H81203   9.442   5.090   8.686  1.6000  0.3985  0.5332
  602MOL0     H81204   9.582   4.985   8.523 -2.6939 -1.1852  1.2065
  602MOL0     H81205   9.756   5.156   8.309 -1.0182  0.8302 -0.6126
  602MOL0     H81206   9.783   4.984   8.365  1.6003  2.5513  1.1282
  602MOL0     H81207   9.935   5.032   8.170 -0.5364 -0.6852  1.7646
  602MOL0     H81208   9.793   5.088   8.085  2.7020  0.6497 -1.1781
  602MOL0     H81209   9.700   4.835   8.117  0.4455 -1.6762 -1.1776
  602MOL0     H81210   9.855   4.797   8.177 -3.7131 -3.4657 -0.2851
  602MOL0     H81211   9.775   4.905   7.892 -0.9817  1.2547 -0.8528
  602MOL0     H81212   9.944   4.903   7.960  0.1521 -1.9891 -0.1639
  602MOL0     H81213   9.922   4.698   7.828  0.8985  1.0484 -0.4418
  602MOL0     H81214   9.939   4.666   7.999  0.6602  1.8955 -0.3008
  602MOL0     H81215   9.702   4.611   8.028 -2.3564 -3.0226 -0.2623
  602MOL0     H81216   9.651   4.691   7.882 -0.5943  2.1098  1.4091
  602MOL0     H81217   9.681   4.446   7.887  1.3755 -2.4319 -0.4928
  602MOL0     H81218   9.853   4.469   7.849 -0.5634 -0.9102 -0.0167
  602MOL0     H81219   9.761   4.618   7.649  1.6660 -1.5584 -1.4170
  602MOL0     H81220   9.741   4.439   7.649 -2.1927  1.3319 -3.1399
  602MOL0     H81221   9.588   4.719   7.535 -0.1197 -0.1773  0.1074
  602MOL0     H81222   9.270   4.740   7.446 -1.0632  2.8620 -1.0588
  602MOL0     H81223   9.227   4.776   7.614  1.6450 -0.8870  0.9529
  602MOL0     H81224   9.379   4.941   7.649 -0.5789 -0.6889  0.5531
  602MOL0     H81225   9.467   4.905   7.501 -0.8103 -1.2695 -0.1237
  602MOL0     H81226   9.185   5.006   7.510 -0.7263  1.4187 -2.4686
  602MOL0     H81227   9.291   4.968   7.368  0.7455 -4.6054  1.7136
  602MOL0     H81228   9.448   5.145   7.425  1.6211 -2.7364  2.8420
  602MOL0     H81229   9.357   5.184   7.583 -5.6901  2.9373  0.4314
  602MOL0     H81230   9.144   5.418   7.275  0.0467 -2.1316  1.3612
  602MOL0     H81231   9.198   5.649   7.231  0.0001 -0.4029 -2.6474
  602MOL0     H81232   9.223   5.961   7.043 -0.6206 -1.0778  0.6048
  602MOL0     H81233   9.098   6.169   7.041 -1.8157 -1.0033 -0.6853
  602MOL0     H81234   9.032   6.380   7.470  3.7780 -2.2901  1.8647
  602MOL0     H81235   9.187   6.390   7.388  0.1677 -0.3492  1.1882
  602MOL0     H81236   9.119   6.609   7.403 -0.1063 -1.8829  1.7870
  602MOL0     H81237   9.098   6.541   7.237  0.9688  1.0262 -0.0658
  602MOL0     H81238   8.843   6.487   7.285 -1.7523  1.1199  1.7670
  602MOL0     H81239   8.868   6.527   7.437  0.1336 -1.3836 -0.6353
  602MOL0     H81240   8.906   6.712   7.198  1.9447 -2.1311  0.9586
  602MOL0     H81241   8.934   6.784   7.352 -0.5331  2.1843 -1.1149
  602MOL0     H81242   8.704   6.710   7.435  1.0890 -1.0320 -0.0323
  602MOL0     H81243   8.660   6.683   7.267  1.1319 -1.8959  0.8359
  602MOL0     H81244   8.733   6.931   7.390  1.3702 -0.0031 -0.9007
  602MOL0     H81245   8.724   6.920   7.219  2.5388  0.5756  0.3403
  602MOL0     H81246   8.460   6.888   7.237 -0.6387 -1.1953 -0.0846
  602MOL0     H81247   8.507   7.006   7.362 -3.8201 -1.1732  3.3983
  602MOL0     H81248   8.447   6.711   7.412 -1.7619 -1.0597  1.3789
  602MOL0     H81249   8.517   6.812   7.531 -0.1202 -1.4713 -0.9247
  602MOL0     H81250   9.178   6.187   7.486 -1.6861 -1.6926  0.6455
  602MOL0     H81251   9.316   5.999   7.454  1.0541  1.6704 -0.1188
  602MOL0     H81252   9.516   5.596   7.518  0.1702 -1.5454 -0.1607
  602MOL0     H81253   9.471   5.369   7.551 -0.6124  0.2897 -0.1182
  602MOL0     H81254   9.412   5.173   8.205  3.2792 -1.9387  0.0746
  602MOL0     H81255   9.240   5.281   8.355 -0.7837 -3.5934 -3.1710
  602MOL0     H81256   9.143   5.103   8.965  0.2664  1.1594  1.9543
  602MOL0     H81257   8.939   5.079   9.084  1.8210 -2.8457 -2.1606
  602MOL0     H81258   8.802   5.183   9.209  0.0740 -0.5890 -1.2723
  602MOL0     H81259   8.638   5.103   9.182  0.8248  0.6229  0.0336
  602MOL0     H81260   8.703   5.379   9.244  0.0975 -0.5234  0.5583
  602MOL0     H81261   8.632   5.281   9.360  0.6782  1.2298 -0.4207
  602MOL0     H81262   8.453   5.199   9.257  1.4644  1.6785  3.7752
  602MOL0     H81263   8.451   5.306   9.113 -1.7759 -1.5819  0.3106
  602MOL0     H81264   8.305   5.396   9.246  0.0773 -1.9263  0.0363
  602MOL0     H81265   8.408   5.372   9.396 -0.2740  2.6645  0.8429
  602MOL0     H81266   8.416   5.775   9.249 -3.7216 -0.1290  0.9473
  602MOL0     H81267   8.742   5.346   8.820  0.6874 -0.2739  0.2228
  602MOL0     H81268   8.957   5.333   8.550 -0.5988  2.3136 -1.9548
  602MOL0     H81269   8.863   5.434   8.664 -0.7056 -3.4025  0.6070
  602MOL0     H81270   9.041   5.453   8.646 -2.2009  3.1926  1.5574
  603MOL0     O81271   4.794  11.442   0.492  1.0541  0.4030 -0.1268
  603MOL0     C81272   4.711  11.394   0.567 -0.3013 -0.1422 -0.2997
  603MOL0     O81273   4.581  11.436   0.566  0.1760  0.3818 -0.4802
  603MOL0     C81274   4.546  11.525   0.470 -0.0064  0.7932  0.2396
  603MOL0     C81275   4.521  11.658   0.494  0.3257  0.1259  1.3462
  603MOL0     C81276   4.470  11.740   0.389 -0.4472 -0.8949 -0.3504
  603MOL0     C81277   4.472  11.704   0.254  0.2348 -0.1947  0.6448
  603MOL0     O81278   4.436  11.769   0.140 -0.7552  0.0506  0.4700
  603MOL0     C81279   4.467  11.916   0.131 -0.1848 -0.4130 -0.4777
  603MOL0     C81280   4.583  11.957   0.036 -0.7222  0.3980 -0.0316
  603MOL0     C81281   4.577  11.918  -0.113 -0.3550  0.3861 -0.5537
  603MOL0     C81282   4.650  12.025  -0.203  0.3613  0.1230  0.7969
  603MOL0     C81283   4.615  12.019  -0.348  0.2392 -1.0238 -0.9634
  603MOL0     C81284   4.481  12.090  -0.366  0.0760  0.1112 -0.0339
  603MOL0     C81285   4.444  12.097  -0.518 -0.2654  0.6850  0.9549
  603MOL0     C81286   4.500  12.218  -0.591 -0.9022 -0.4640  0.3562
  603MOL0     N81287   4.643  12.218  -0.621 -0.7134 -0.1633 -0.6061
  603MOL0     C81288   4.721  12.329  -0.599  0.1446  0.3639  0.8357
  603MOL0     C81289   4.834  12.305  -0.673  0.0009 -0.0436 -0.6868
  603MOL0     C81290   4.955  12.394  -0.675  0.1262 -0.6251  0.6672
  603MOL0     C81291   5.086  12.320  -0.638 -0.0409  0.2906 -0.3510
  603MOL0     C81292   5.069  12.254  -0.501 -0.3786 -0.8071  0.3179
  603MOL0     C81293   5.200  12.178  -0.464  0.0742 -0.0692  0.1382
  603MOL0     O81294   5.173  12.039  -0.495 -0.6001  0.2128 -0.2000
  603MOL0     C81295   5.270  11.947  -0.475  0.7428  0.6982 -0.2017
  603MOL0     C81296   5.226  11.814  -0.474 -0.8577  0.2746  0.4243
  603MOL0     C81297   5.316  11.710  -0.457 -0.1242 -0.5136  0.7752
  603MOL0     C81298   5.451  11.722  -0.439 -0.5263 -0.6683 -0.5005
  603MOL0     C81299   5.537  11.599  -0.431 -0.3674 -0.9298 -0.1255
  603MOL0     O81300   5.478  11.483  -0.446  0.6135 -0.3516  0.0319
  603MOL0     C81301   5.555  11.373  -0.465  0.1036  0.3203 -0.7182
  603MOL0     C81302   5.684  11.349  -0.404 -0.3722 -0.6153  1.1429
  603MOL0     C81303   5.740  11.222  -0.426  0.6729  0.0686 -0.2838
  603MOL0     C81304   5.685  11.118  -0.503 -0.4286 -0.5933  0.5771
  603MOL0     O81305   5.763  11.005  -0.500 -0.5055 -0.2073 -0.8531
  603MOL0     C81306   5.705  10.872  -0.487 -0.0087  0.5091 -0.6013
  603MOL0     C81307   5.789  10.788  -0.570  1.1984  0.0471  0.4785
  603MOL0     C81308   5.739  10.636  -0.566 -1.1482  0.0253  0.2209
  603MOL0     C81309   5.845  10.547  -0.625 -0.3558 -0.2956  0.4115
  603MOL0     C81310   5.798  10.396  -0.639  0.3870  0.0540 -0.2671
  603MOL0     C81311   5.892  10.305  -0.719  0.1008 -0.1496 -0.3134
  603MOL0     C81312   5.847  10.166  -0.708 -0.2104  0.1479  0.1624
  603MOL0     C81313   5.946  10.080  -0.790 -0.0421  0.5334  0.0568
  603MOL0    Cl81314   6.114  10.100  -0.764  0.4927 -0.5727  0.3667
  603MOL0     C81315   5.565  11.146  -0.569 -0.5706  0.1660  0.2728
  603MOL0     C81316   5.497  11.270  -0.548 -1.1422  0.6255 -0.2837
  603MOL0     O81317   5.660  11.624  -0.426  0.0118  0.6891  0.1672
  603MOL0     C81318   5.501  11.856  -0.439 -0.4800 -0.8157 -0.1960
  603MOL0     C81319   5.407  11.971  -0.461 -0.3510  0.3912  0.3912
  603MOL0     N81320   4.816  12.190  -0.740  0.2535  0.1365 -0.8423
  603MOL0     N81321   4.698  12.141  -0.719  0.6709 -0.4972  0.0154
  603MOL0     C81322   4.507  11.571   0.228 -0.1962  0.0190 -0.2768
  603MOL0     C81323   4.548  11.481   0.332  0.9703  0.9981 -0.0137
  603MOL0     C81324   4.742  11.267   0.630  0.1733 -0.7419  0.3296
  603MOL0     C81325   4.872  11.267   0.682 -0.8361  0.5307  0.2399
  603MOL0     C81326   4.929  11.146   0.719 -0.3214  0.1616 -0.4289
  603MOL0     C81327   4.866  11.025   0.714 -0.7669 -0.2723  0.1737
  603MOL0     O81328   4.903  10.908   0.769 -1.2185  0.5997  0.5404
  603MOL0     C81329   4.998  10.899   0.872 -0.3974 -0.4071 -0.7112
  603MOL0     C81330   5.030  10.760   0.934 -0.0812  0.1251  0.2929
  603MOL0     C81331   5.149  10.684   0.877  0.4965 -0.0303 -0.4160
  603MOL0     C81332   5.145  10.668   0.723  0.7069  0.5871  0.2408
  603MOL0     C81333   5.239  10.560   0.683 -1.0370 -0.5788 -0.1474
  603MOL0     C81334   5.315  10.477   0.638  0.1195 -0.4897 -0.5292
  603MOL0     C81335   4.736  11.025   0.660  0.5017 -0.1273  0.1719
  603MOL0     C81336   4.673  11.142   0.616  0.7146  0.6445  0.3027
  603MOL0     C81337   4.539  11.122   0.557  0.7086  0.0694  0.4968
  603MOL0     H81338   4.525  11.691   0.597 -0.0671  2.2157  0.7421
  603MOL0     H81339   4.431  11.840   0.408  0.8963 -0.1994 -1.0954
  603MOL0     H81340   4.371  11.960   0.103 -1.1034 -2.0886 -0.1112
  603MOL0     H81341   4.489  11.967   0.225 -1.9215  1.8338 -1.1930
  603MOL0     H81342   4.667  11.934   0.102 -2.7260  0.7152  2.8489
  603MOL0     H81343   4.589  12.067   0.035  0.7186  0.3405 -0.5851
  603MOL0     H81344   4.476  11.904  -0.153  0.2194  0.1852 -2.0185
  603MOL0     H81345   4.629  11.823  -0.130  0.5523  1.2279 -2.9283
  603MOL0     H81346   4.623  12.124  -0.166  1.9871  0.8685  0.0907
  603MOL0     H81347   4.759  12.010  -0.202  0.4477  0.7045  1.4232
  603MOL0     H81348   4.687  12.075  -0.408 -0.3750 -0.5993 -1.3239
  603MOL0     H81349   4.612  11.915  -0.379 -1.8771 -1.2047 -0.3514
  603MOL0     H81350   4.403  12.016  -0.344 -0.4942  1.3760  2.6249
  603MOL0     H81351   4.466  12.184  -0.313 -2.9627 -1.0547  1.4388
  603MOL0     H81352   4.335  12.093  -0.528 -0.3165 -0.2943  1.6792
  603MOL0     H81353   4.475  12.007  -0.573 -2.4904  0.7984 -0.5978
  603MOL0     H81354   4.440  12.227  -0.682 -0.7867 -1.3544  0.1785
  603MOL0     H81355   4.464  12.305  -0.536 -0.0891 -1.1793  2.0706
  603MOL0     H81356   4.707  12.406  -0.524 -0.8185  0.2499  0.7803
  603MOL0     H81357   4.968  12.429  -0.778  1.3402 -0.6796  0.7836
  603MOL0     H81358   4.928  12.478  -0.609 -0.4929 -2.5348  2.9986
  603MOL0     H81359   5.114  12.242  -0.710  2.4595  1.8820 -1.1910
  603MOL0     H81360   5.173  12.386  -0.637  0.7963 -0.7759 -0.6316
  603MOL0     H81361   4.996  12.173  -0.502 -0.6410 -0.5695 -0.8091
  603MOL0     H81362   5.043  12.340  -0.437 -0.1346  0.6781 -1.4993
  603MOL0     H81363   5.227  12.183  -0.358 -0.1477  2.6393  0.1281
  603MOL0     H81364   5.286  12.212  -0.523 -1.3054  1.1768 -1.2425
  603MOL0     H81365   5.122  11.785  -0.487 -1.1750  0.3639  2.3523
  603MOL0     H81366   5.278  11.608  -0.455  4.7949 -2.8675 -2.8373
  603MOL0     H81367   5.747  11.405  -0.336  0.2298 -0.9866  0.8956
  603MOL0     H81368   5.839  11.204  -0.386  0.4101  0.4263  0.5472
  603MOL0     H81369   5.714  10.826  -0.389 -1.1639 -2.0657 -1.6317
  603MOL0     H81370   5.604  10.865  -0.527  0.3089  2.1916 -1.8646
  603MOL0     H81371   5.777  10.821  -0.673 -3.6987  0.2780  0.9280
  603MOL0     H81372   5.895  10.791  -0.540  1.3226  0.4853  0.0111
  603MOL0     H81373   5.721  10.615  -0.460 -0.5365  0.7906  0.4898
  603MOL0     H81374   5.642  10.619  -0.613  0.8462 -1.7684 -3.7685
  603MOL0     H81375   5.935  10.553  -0.563  0.1382 -0.2762 -0.2806
  603MOL0     H81376   5.881  10.577  -0.724  2.2364  0.8108  1.6010
  603MOL0     H81377   5.697  10.388  -0.680  0.3165 -1.5138  0.1697
  603MOL0     H81378   5.780  10.353  -0.540  2.0137 -0.7936 -0.3050
  603MOL0     H81379   5.890  10.333  -0.825  0.6729  1.1898  0.0196
  603MOL0     H81380   5.990  10.325  -0.676 -0.1575 -1.4838  1.0084
  603MOL0     H81381   5.747  10.168  -0.752 -0.6892  1.1648  1.2493
  603MOL0     H81382   5.843  10.134  -0.603 -0.4785 -0.5150 -0.0433
  603MOL0     H81383   5.921   9.977  -0.763  0.1714 -0.4975 -3.2297
  603MOL0     H81384   5.943  10.071  -0.899  1.8840  1.1789 -0.0928
  603MOL0     H81385   5.527  11.067  -0.633 -0.2952 -0.5536  0.9719
  603MOL0     H81386   5.401  11.275  -0.599 -1.2086 -3.3619 -0.8646
  603MOL0     H81387   5.607  11.871  -0.422 -0.8574  0.6293  1.1280
  603MOL0     H81388   5.451  12.070  -0.474  1.4741 -0.2193  1.5066
  603MOL0     H81389   4.496  11.557   0.121 -0.7035  2.5104 -0.6193
  603MOL0     H81390   4.579  11.381   0.305 -1.6855 -1.8132  5.6785
  603MOL0     H81391   4.925  11.361   0.691 -2.7512  1.7804 -0.8383
  603MOL0     H81392   5.028  11.139   0.765 -0.7998 -1.5450  0.4007
  603MOL0     H81393   4.960  10.971   0.944 -1.1322 -0.6668 -0.8359
  603MOL0     H81394   5.097  10.941   0.850 -0.4299 -0.6572 -1.3741
  603MOL0     H81395   4.939  10.703   0.911  0.2687 -0.0702 -0.6639
  603MOL0     H81396   5.047  10.768   1.041 -1.5751  2.7636  0.4154
  603MOL0     H81397   5.145  10.587   0.926 -4.7044  1.4095  2.7731
  603MOL0     H81398   5.245  10.734   0.893  1.3142 -0.8788 -2.3837
  603MOL0     H81399   5.043  10.652   0.685  0.1229 -0.4620  2.1242
  603MOL0     H81400   5.181  10.763   0.683  0.3092  1.1002  1.0619
  603MOL0     H81401   5.384  10.404   0.600  1.9572 -2.1599  5.0299
  603MOL0     H81402   4.684  10.930   0.650 -1.6118  1.0834 -1.0619
  603MOL0     H81403   4.505  11.196   0.484  0.6949  1.0267  1.4514
  603MOL0     H81404   4.558  11.030   0.501  0.7267  1.2533 -1.5444
  603MOL0     H81405   4.461  11.100   0.630 -0.1973  3.0263  0.5529
  604MOL0     O81406   9.086   1.731   3.135  0.2232  0.0221 -0.2412
  604MOL0     C81407   9.033   1.717   3.027  0.2918 -0.7345  0.6109
  604MOL0     O81408   9.084   1.766   2.913  0.0355 -0.5575  0.6158
  604MOL0     C81409   9.215   1.730   2.892  0.0424 -1.0307  0.0156
  604MOL0     C81410   9.262   1.603   2.912  0.7869  0.1590 -0.3521
  604MOL0     C81411   9.387   1.567   2.857  0.2776  0.1070 -0.6087
  604MOL0     C81412   9.468   1.666   2.795  0.1270  0.3014 -0.3149
  604MOL0     O81413   9.594   1.629   2.749 -0.4154  0.3321 -0.2993
  604MOL0     C81414   9.707   1.705   2.795 -0.0542 -0.3044 -0.0260
  604MOL0     C81415   9.809   1.608   2.848 -1.1079  0.3947 -0.1212
  604MOL0     C81416   9.760   1.528   2.971 -0.0591  0.7337  0.5527
  604MOL0     C81417   9.856   1.433   3.053  0.0412  0.3458 -0.2602
  604MOL0     C81418   9.773   1.395   3.177  0.5747  0.3345 -0.8223
  604MOL0     C81419   9.841   1.288   3.263 -0.1507  0.6321 -0.1627
  604MOL0     C81420   9.750   1.233   3.378 -0.6284 -0.1470 -0.6946
  604MOL0     C81421   9.701   1.350   3.476  0.0040 -0.7662 -0.3724
  604MOL0     N81422   9.802   1.425   3.549  0.5837  0.0268 -0.1103
  604MOL0     C81423   9.828   1.400   3.681  0.0550 -0.3503  0.3122
  604MOL0     C81424   9.908   1.502   3.722  0.4673 -0.0908  0.1704
  604MOL0     C81425   9.943   1.538   3.865 -0.3228 -0.4073  0.4884
  604MOL0     C81426  10.093   1.507   3.896  0.0727 -0.3336  0.3001
  604MOL0     C81427  10.126   1.353   3.907  0.2237 -0.1297 -0.0698
  604MOL0     C81428  10.280   1.347   3.906 -0.4820  0.5707  0.2365
  604MOL0     O81429  10.349   1.389   4.026  1.2548  0.1945  0.5181
  604MOL0     C81430  10.472   1.342   4.058  0.5017 -0.6353 -0.0470
  604MOL0     C81431  10.548   1.274   3.969  0.1901 -0.6109 -0.4436
  604MOL0     C81432  10.678   1.225   4.007 -1.1852  0.6134 -0.0819
  604MOL0     C81433  10.711   1.234   4.140  0.8681 -0.4503 -0.2764
  604MOL0     C81434  10.836   1.167   4.189  0.9920  0.2351  1.3815
  604MOL0     O81435  10.826   1.116   4.312 -0.1068 -0.2231 -0.1941
  604MOL0     C81436  10.925   1.063   4.386  0.1228 -0.8392 -0.1447
  604MOL0     C81437  11.046   1.136   4.422 -0.6990  1.2508  0.0360
  604MOL0     C81438  11.140   1.092   4.514  1.2474 -0.8466 -0.9084
  604MOL0     C81439  11.130   0.966   4.578 -0.0662 -0.5462 -0.0963
  604MOL0     O81440  11.213   0.916   4.668 -0.4816  0.2698  0.2197
  604MOL0     C81441  11.325   0.993   4.713  1.2761  0.0627  0.2008
  604MOL0     C81442  11.414   0.895   4.791 -0.7369  0.6614 -0.3404
  604MOL0     C81443  11.565   0.947   4.801 -0.2258 -0.3641  0.7665
  604MOL0     C81444  11.576   1.080   4.877  0.6495  0.3681  0.7369
  604MOL0     C81445  11.494   1.097   5.004 -0.5201 -1.1567  0.6715
  604MOL0     C81446  11.512   1.241   5.065 -0.3486  0.1377  0.5355
  604MOL0     C81447  11.574   1.240   5.207 -0.2911 -0.3717  0.5151
  604MOL0     C81448  11.723   1.194   5.230 -0.1665 -1.0352  0.3254
  604MOL0    Cl81449  11.763   1.179   5.404 -0.2462  0.2479 -0.3080
  604MOL0     C81450  11.021   0.893   4.533 -0.3749  0.2543  0.3991
  604MOL0     C81451  10.920   0.939   4.442 -1.4587  0.1509  0.3459
  604MOL0     O81452  10.930   1.145   4.120 -0.0435 -1.1821  0.4193
  604MOL0     C81453  10.630   1.295   4.233 -0.0935 -0.4309  0.7095
  604MOL0     C81454  10.506   1.353   4.194 -0.6153 -0.3226 -0.0291
  604MOL0     N81455   9.926   1.588   3.616 -0.5203  0.4123 -0.4162
  604MOL0     N81456   9.866   1.540   3.513  0.4638 -0.5724 -0.4889
  604MOL0     C81457   9.422   1.798   2.790 -0.7671  0.8378 -0.1404
  604MOL0     C81458   9.296   1.836   2.833 -0.2161 -0.3211 -0.7590
  604MOL0     C81459   8.899   1.660   3.020  0.7713  0.2269  0.4137
  604MOL0     C81460   8.799   1.713   2.930  0.2161 -0.9684  1.3047
  604MOL0     C81461   8.661   1.664   2.925 -1.2259  0.2269 -0.4718
  604MOL0     C81462   8.621   1.564   3.009 -0.1200  0.6969 -1.3755
  604MOL0     O81463   8.505   1.490   2.997  0.6535 -0.2340  0.4409
  604MOL0     C81464   8.501   1.347   2.997 -0.2018 -0.7063  0.1128
  604MOL0     C81465   8.364   1.306   3.046  1.1470  0.3998  0.1016
  604MOL0     C81466   8.313   1.198   2.941 -1.0516 -0.5667  0.3663
  604MOL0     C81467   8.219   1.100   3.009  0.0892 -0.7147  1.0593
  604MOL0     C81468   8.156   1.025   2.900  0.5108 -0.3492 -1.0857
  604MOL0     C81469   8.131   0.969   2.796 -0.3644  0.8233  0.4495
  604MOL0     C81470   8.707   1.533   3.113 -0.0394 -0.3007 -0.0440
  604MOL0     C81471   8.840   1.582   3.127  0.7067  0.1604  0.1340
  604MOL0     C81472   8.896   1.544   3.255 -0.4306 -0.3480 -0.3593
  604MOL0     H81473   9.199   1.520   2.939  0.9850 -0.7680 -2.5602
  604MOL0     H81474   9.420   1.465   2.872 -0.6895 -0.3799 -1.7022
  604MOL0     H81475   9.761   1.748   2.710  1.8330 -0.8746  0.8166
  604MOL0     H81476   9.680   1.779   2.871  1.6141  0.7127 -0.3630
  604MOL0     H81477   9.902   1.655   2.881 -0.0698 -1.1344 -0.7344
  604MOL0     H81478   9.838   1.530   2.777 -2.0757  0.8710 -1.0716
  604MOL0     H81479   9.675   1.463   2.950 -0.4984  1.1354  1.0287
  604MOL0     H81480   9.716   1.602   3.040  0.3318  0.3218  1.2590
  604MOL0     H81481   9.863   1.344   2.990  0.7237 -0.4667  0.9123
  604MOL0     H81482   9.951   1.481   3.078  0.8050 -0.6009 -1.2423
  604MOL0     H81483   9.752   1.484   3.238  0.8609 -0.1814  0.0452
  604MOL0     H81484   9.680   1.347   3.144  1.5299 -0.9752 -1.7181
  604MOL0     H81485   9.853   1.204   3.194  1.3476 -0.1451  0.9849
  604MOL0     H81486   9.938   1.327   3.292  0.6856  0.6846 -2.7901
  604MOL0     H81487   9.808   1.158   3.431 -0.4021  0.8725  0.5599
  604MOL0     H81488   9.657   1.187   3.342 -0.5086 -0.6585 -0.3611
  604MOL0     H81489   9.636   1.419   3.422  1.1675 -0.4520 -1.4259
  604MOL0     H81490   9.645   1.303   3.557  2.3466 -1.7308  0.8035
  604MOL0     H81491   9.782   1.332   3.752  0.3049  0.9762  1.8037
  604MOL0     H81492   9.917   1.642   3.884  2.6662  0.9727 -2.1638
  604MOL0     H81493   9.878   1.477   3.929 -1.5638 -0.2974 -0.6155
  604MOL0     H81494  10.166   1.551   3.828 -2.7653  3.1651 -0.8084
  604MOL0     H81495  10.106   1.543   3.999 -0.0155 -4.2267  1.8599
  604MOL0     H81496  10.112   1.294   3.815  0.7269 -1.1603  0.4925
  604MOL0     H81497  10.070   1.316   3.993 -0.2328  0.4635 -0.1081
  604MOL0     H81498  10.323   1.399   3.820 -2.0432  2.7744  0.6749
  604MOL0     H81499  10.311   1.246   3.881  5.0403  2.2503 -1.1001
  604MOL0     H81500  10.515   1.274   3.866 -0.1105  0.2643 -0.3511
  604MOL0     H81501  10.743   1.171   3.939  1.8953 -0.1023  3.1545
  604MOL0     H81502  11.048   1.238   4.386 -2.4700  1.2470 -0.2040
  604MOL0     H81503  11.222   1.163   4.529 -0.2535  0.5759  1.1924
  604MOL0     H81504  11.379   1.027   4.624  0.0405 -0.4673 -0.7849
  604MOL0     H81505  11.281   1.075   4.771  4.1096  3.1814 -1.7058
  604MOL0     H81506  11.368   0.866   4.886 -1.8588 -0.4858 -1.2069
  604MOL0     H81507  11.409   0.802   4.733 -0.4580  0.2951  0.2075
  604MOL0     H81508  11.614   0.862   4.850  1.9604  0.2516 -0.2456
  604MOL0     H81509  11.605   0.966   4.702 -1.8674  4.9639  0.7879
  604MOL0     H81510  11.549   1.164   4.811  1.5941  0.5065  0.5125
  604MOL0     H81511  11.682   1.089   4.901  0.5651  0.2999  1.1412
  604MOL0     H81512  11.536   1.012   5.059  5.3341  0.7506 -0.0628
  604MOL0     H81513  11.386   1.087   4.992 -0.8642  2.3681 -0.0873
  604MOL0     H81514  11.579   1.286   4.991 -1.5016 -0.1779 -0.7502
  604MOL0     H81515  11.426   1.307   5.049 -1.2524 -0.4684  2.5454
  604MOL0     H81516  11.514   1.181   5.277 -0.6008  2.4157  2.7496
  604MOL0     H81517  11.549   1.337   5.249 -2.0018 -0.6088  0.1183
  604MOL0     H81518  11.738   1.099   5.178  1.9090 -1.8547  2.2475
  604MOL0     H81519  11.790   1.269   5.187  0.4943 -1.4889  0.5602
  604MOL0     H81520  11.011   0.792   4.571 -3.1862 -0.3210 -1.5493
  604MOL0     H81521  10.838   0.873   4.418 -1.3231 -0.8494  2.3841
  604MOL0     H81522  10.652   1.292   4.339 -0.0048  0.5117  0.7249
  604MOL0     H81523  10.452   1.417   4.263  0.4295  3.3262 -2.2874
  604MOL0     H81524   9.483   1.885   2.766 -1.5976  2.5601  3.3249
  604MOL0     H81525   9.249   1.934   2.834 -2.4597 -1.3042  1.4332
  604MOL0     H81526   8.839   1.779   2.854  0.0730 -3.2056 -0.8429
  604MOL0     H81527   8.597   1.686   2.840  1.2975 -1.5980 -3.0129
  604MOL0     H81528   8.579   1.305   3.061 -0.3561  0.3648  1.0292
  604MOL0     H81529   8.535   1.322   2.896  0.9904  2.6867 -0.4609
  604MOL0     H81530   8.291   1.388   3.037 -3.9257 -3.8157 -2.6316
  604MOL0     H81531   8.377   1.265   3.146  1.2113 -1.7987 -0.7579
  604MOL0     H81532   8.392   1.134   2.900  0.0985  1.3123 -0.4852
  604MOL0     H81533   8.275   1.249   2.852  3.8532  0.7608 -1.3413
  604MOL0     H81534   8.279   1.027   3.065  2.7414  0.7817  0.3327
  604MOL0     H81535   8.135   1.133   3.072  1.3388  3.7233  0.7575
  604MOL0     H81536   8.106   0.929   2.700 -0.5893  1.3465  0.2846
  604MOL0     H81537   8.674   1.460   3.186  0.2595  0.5193  0.9400
  604MOL0     H81538   8.879   1.438   3.273 -3.6478 -0.4529 -2.9478
  604MOL0     H81539   9.004   1.558   3.265 -0.6611  0.7338  0.8738
  604MOL0     H81540   8.842   1.603   3.330 -0.6943 -1.9927  0.7899
  605MOL0     O81541   2.431  11.051   2.966  0.0951  0.1361  0.6281
  605MOL0     C81542   2.369  11.160   2.975  0.8440  0.8271  0.0433
  605MOL0     O81543   2.332  11.232   3.088  0.4360  0.4684 -0.0007
  605MOL0     C81544   2.334  11.174   3.211 -0.9718  0.8028  0.8731
  605MOL0     C81545   2.338  11.043   3.243  0.2582  0.9232 -0.4599
  605MOL0     C81546   2.334  10.995   3.370  0.0521  0.5224  0.2426
  605MOL0     C81547   2.329  11.079   3.481 -0.9961 -0.6377 -0.1753
  605MOL0     O81548   2.300  11.021   3.602  0.2938  0.6302  0.2173
  605MOL0     C81549   2.381  11.061   3.709  0.4478 -0.4232  0.2145
  605MOL0     C81550   2.336  11.005   3.848  0.6820 -0.1125  1.0051
  605MOL0     C81551   2.376  11.104   3.954  0.7776 -0.1001 -0.0972
  605MOL0     C81552   2.353  11.039   4.095  0.8406  0.1757 -0.8136
  605MOL0     C81553   2.397  11.144   4.201  0.2467  1.2199  0.0968
  605MOL0     C81554   2.348  11.117   4.341  0.4062 -1.2946  0.1035
  605MOL0     C81555   2.456  11.036   4.399  0.1374 -0.5090  0.3963
  605MOL0     C81556   2.424  10.996   4.543  0.0684  1.0559 -0.9889
  605MOL0     N81557   2.428  11.113   4.625  0.6212  1.6422 -0.0312
  605MOL0     C81558   2.546  11.162   4.672 -0.6040  0.0109  0.0186
  605MOL0     C81559   2.514  11.270   4.744 -0.1285  0.0666  0.2156
  605MOL0     C81560   2.621  11.359   4.793  0.8216 -1.0937 -1.1403
  605MOL0     C81561   2.588  11.506   4.776  0.0200 -0.6372  0.5515
  605MOL0     C81562   2.609  11.560   4.630  1.0901 -0.0642  0.2225
  605MOL0     C81563   2.485  11.559   4.538 -0.2389  0.1413 -0.7354
  605MOL0     O81564   2.494  11.647   4.429 -0.2215 -0.5750 -0.2793
  605MOL0     C81565   2.568  11.593   4.318  0.2100  0.4728 -0.5024
  605MOL0     C81566   2.644  11.473   4.297 -0.1925 -0.0817  0.2981
  605MOL0     C81567   2.690  11.436   4.174 -0.4063 -0.1589  0.6528
  605MOL0     C81568   2.659  11.508   4.062 -0.4308 -0.5965  0.0812
  605MOL0     C81569   2.708  11.468   3.929  0.0546  0.3645 -0.0442
  605MOL0     O81570   2.642  11.504   3.814  0.7264 -0.1375 -0.4050
  605MOL0     C81571   2.685  11.460   3.693 -0.6272  0.2393 -0.0751
  605MOL0     C81572   2.752  11.338   3.672  0.5123 -0.1844  0.1260
  605MOL0     C81573   2.768  11.287   3.539  0.4435  0.0558 -0.2670
  605MOL0     C81574   2.729  11.367   3.423  0.4006 -1.1873  0.4963
  605MOL0     O81575   2.751  11.341   3.295 -0.0866  0.4337  0.8843
  605MOL0     C81576   2.760  11.199   3.269  0.0264 -0.1112 -1.2574
  605MOL0     C81577   2.744  11.171   3.123 -0.3114  0.2695  0.2244
  605MOL0     C81578   2.753  11.017   3.096 -0.4706 -0.0279  0.5436
  605MOL0     C81579   2.798  10.985   2.955  0.1142 -0.6531  0.1487
  605MOL0     C81580   2.869  10.848   2.931 -0.3704 -0.6278 -0.3280
  605MOL0     C81581   3.016  10.839   2.991 -0.2400 -0.2223  0.1329
  605MOL0     C81582   3.115  10.940   2.923 -0.4262  0.3131 -0.0163
  605MOL0     C81583   3.259  10.939   2.989 -1.2486 -0.1890 -0.0622
  605MOL0    Cl81584   3.361  11.053   2.893 -0.3146  0.0973 -0.0938
  605MOL0     C81585   2.665  11.490   3.454  0.8112  0.7166  0.9223
  605MOL0     C81586   2.649  11.537   3.580 -0.9562 -1.3537  0.6653
  605MOL0     O81587   2.809  11.403   3.940  0.6205 -0.2434 -0.5426
  605MOL0     C81588   2.570  11.615   4.069 -0.1615  0.6105 -0.5258
  605MOL0     C81589   2.538  11.660   4.199  0.6412  0.5064 -0.4176
  605MOL0     N81590   2.377  11.285   4.731 -0.4677 -0.5463 -0.6544
  605MOL0     N81591   2.327  11.184   4.677  0.3785  0.3218  0.1510
  605MOL0     C81592   2.330  11.220   3.451  0.1354 -0.0903 -0.2797
  605MOL0     C81593   2.339  11.266   3.318  0.7086 -0.6807  0.3805
  605MOL0     C81594   2.382  11.251   2.858  0.4543  0.6250 -0.2802
  605MOL0     C81595   2.486  11.226   2.763 -0.1089  0.1018 -0.0318
  605MOL0     C81596   2.493  11.314   2.652  0.3172 -0.6554 -1.1971
  605MOL0     C81597   2.405  11.417   2.623 -0.6999  0.7316  0.3356
  605MOL0     O81598   2.435  11.506   2.528 -0.7135  0.9311  0.2393
  605MOL0     C81599   2.344  11.610   2.490 -0.5164  0.0941 -0.0015
  605MOL0     C81600   2.346  11.745   2.574  1.2591  1.1505  0.6705
  605MOL0     C81601   2.476  11.795   2.576 -0.7007 -0.0822  0.7137
  605MOL0     C81602   2.489  11.918   2.658  0.5520 -0.3182  0.5577
  605MOL0     C81603   2.411  12.022   2.594 -0.0473 -0.1991 -0.2058
  605MOL0     C81604   2.343  12.108   2.553  0.1852  0.5865  0.7396
  605MOL0     C81605   2.308  11.440   2.729  0.0730 -0.7478  0.6406
  605MOL0     C81606   2.293  11.355   2.839 -0.4543 -0.1760  0.2688
  605MOL0     C81607   2.176  11.398   2.923 -0.2421  0.0196  0.4920
  605MOL0     H81608   2.346  10.963   3.170 -0.8059  0.9294 -0.6005
  605MOL0     H81609   2.315  10.888   3.374 -2.0040  0.8664  1.8531
  605MOL0     H81610   2.481  11.019   3.693  0.1015 -0.4638 -2.2401
  605MOL0     H81611   2.387  11.170   3.719 -1.2066 -0.2271 -0.6427
  605MOL0     H81612   2.367  10.902   3.865  0.9370 -1.0191 -3.6350
  605MOL0     H81613   2.227  11.002   3.858  0.6207  2.4008  1.7308
  605MOL0     H81614   2.315  11.194   3.951 -0.6885 -0.7837  3.5733
  605MOL0     H81615   2.478  11.142   3.943 -0.4614  2.7970 -3.4425
  605MOL0     H81616   2.246  11.020   4.101  1.0735 -1.1383 -0.6057
  605MOL0     H81617   2.405  10.945   4.113  1.9091  1.1698  1.7999
  605MOL0     H81618   2.503  11.170   4.197 -0.3050  3.4393 -1.0579
  605MOL0     H81619   2.351  11.240   4.176 -3.5793 -0.6787 -0.9369
  605MOL0     H81620   2.335  11.211   4.395  2.2214 -1.5380  1.0686
  605MOL0     H81621   2.249  11.072   4.343 -0.8123  1.2088  2.4261
  605MOL0     H81622   2.546  11.097   4.397  2.6905 -3.9875  0.3192
  605MOL0     H81623   2.470  10.948   4.336 -2.8362  0.9620 -2.6017
  605MOL0     H81624   2.322  10.957   4.541 -0.0691  1.4466 -1.4593
  605MOL0     H81625   2.492  10.922   4.587 -0.3228  2.4587  2.2602
  605MOL0     H81626   2.646  11.122   4.655  0.4553  3.0748 -1.6298
  605MOL0     H81627   2.641  11.328   4.896  2.9263  0.2013 -1.0891
  605MOL0     H81628   2.715  11.347   4.737  0.5351 -2.7645 -1.3292
  605MOL0     H81629   2.489  11.536   4.814 -0.0005  0.5633 -0.3813
  605MOL0     H81630   2.670  11.549   4.834 -0.0613 -1.3180  1.1891
  605MOL0     H81631   2.681  11.504   4.570  0.8250 -0.6142  0.4149
  605MOL0     H81632   2.649  11.661   4.639  0.4318  0.3925 -1.4208
  605MOL0     H81633   2.402  11.600   4.596  2.2552  0.7258  2.6549
  605MOL0     H81634   2.464  11.455   4.512  1.0072 -0.4850  0.6513
  605MOL0     H81635   2.665  11.404   4.378 -1.6832 -0.3679  0.4708
  605MOL0     H81636   2.755  11.349   4.170  1.5501  1.2187  1.0561
  605MOL0     H81637   2.775  11.268   3.752  1.7708  2.1409  1.9149
  605MOL0     H81638   2.820  11.193   3.522  3.2704  0.4063  4.5491
  605MOL0     H81639   2.859  11.164   3.301 -0.1585  3.4287  4.5238
  605MOL0     H81640   2.687  11.139   3.325 -0.2661  1.8778  0.6045
  605MOL0     H81641   2.649  11.211   3.087 -0.5988  1.1929  1.9102
  605MOL0     H81642   2.820  11.231   3.072 -1.3616  0.2571 -1.4615
  605MOL0     H81643   2.834  10.978   3.157  0.8094  0.1306 -0.9754
  605MOL0     H81644   2.659  10.974   3.130 -0.4191  1.3065  2.5091
  605MOL0     H81645   2.856  11.070   2.919 -5.0310  2.8882 -0.7950
  605MOL0     H81646   2.701  10.997   2.905  0.0207  3.4422  1.0038
  605MOL0     H81647   2.878  10.831   2.823 -0.8758 -3.0426 -0.0575
  605MOL0     H81648   2.808  10.766   2.972  0.8251 -1.8066 -0.8309
  605MOL0     H81649   3.013  10.834   3.101  0.2028  1.7481  0.2675
  605MOL0     H81650   3.067  10.744   2.968  1.9106  0.7859  0.4589
  605MOL0     H81651   3.066  11.038   2.925 -0.3866  0.3586 -0.7467
  605MOL0     H81652   3.137  10.916   2.818 -1.7247  0.2355 -0.2896
  605MOL0     H81653   3.257  10.987   3.087 -1.3327  2.8004 -1.4189
  605MOL0     H81654   3.301  10.838   2.987 -2.6482 -0.8144  0.6404
  605MOL0     H81655   2.621  11.550   3.375  1.5481 -1.2028 -1.0972
  605MOL0     H81656   2.603  11.634   3.595 -0.9757 -1.2021 -0.3459
  605MOL0     H81657   2.532  11.666   3.981 -0.6182 -0.3046 -0.8665
  605MOL0     H81658   2.466  11.740   4.216  1.6144  1.2073  0.4622
  605MOL0     H81659   2.323  11.287   3.536  1.9050 -1.8597  1.3425
  605MOL0     H81660   2.336  11.372   3.295 -2.1662 -0.0840  2.9062
  605MOL0     H81661   2.558  11.146   2.773  0.1443  0.3985  0.5582
  605MOL0     H81662   2.572  11.298   2.580  1.4167 -0.1881 -0.1273
  605MOL0     H81663   2.245  11.565   2.494  1.0670 -3.8227 -0.6694
  605MOL0     H81664   2.369  11.625   2.384 -0.2288 -2.9665 -0.4550
  605MOL0     H81665   2.319  11.726   2.678 -3.9078  0.2206 -0.5407
  605MOL0     H81666   2.272  11.816   2.533 -0.1847 -0.8872 -0.4525
  605MOL0     H81667   2.514  11.819   2.477 -2.7826  2.6736  0.4434
  605MOL0     H81668   2.534  11.716   2.625 -1.5959 -1.7342 -0.7581
  605MOL0     H81669   2.449  11.902   2.758 -4.1815 -2.7871 -1.4410
  605MOL0     H81670   2.595  11.948   2.660  0.2746  0.6567  1.7255
  605MOL0     H81671   2.293  12.197   2.519 -1.8371  0.5489  3.3094
  605MOL0     H81672   2.248  11.531   2.729  0.5278 -0.4322 -0.5291
  605MOL0     H81673   2.210  11.463   3.004  2.5626  0.9366 -1.2502
  605MOL0     H81674   2.097  11.433   2.856 -1.4488 -3.4828 -0.1249
  605MOL0     H81675   2.130  11.307   2.962 -1.0856  0.0457 -0.3979
  606MOL0     O81676   0.561   0.073   2.903 -0.6672  0.2583  0.2806
  606MOL0     C81677   0.654   0.052   2.982 -0.6594  0.6114  0.5329
  606MOL0     O81678   0.787   0.050   2.943 -0.0934 -1.2128 -0.1525
  606MOL0     C81679   0.846   0.099   2.831  0.3843 -0.3928 -0.2792
  606MOL0     C81680   0.793   0.207   2.764 -0.6195 -0.1980 -0.4913
  606MOL0     C81681   0.871   0.253   2.659  0.7442  0.0587 -0.5392
  606MOL0     C81682   0.994   0.213   2.634 -0.9996  0.2380 -0.3056
  606MOL0     O81683   1.063   0.274   2.534 -0.5569 -1.0231 -0.0119
  606MOL0     C81684   1.102   0.408   2.543  0.3269 -0.2770 -0.1514
  606MOL0     C81685   1.045   0.473   2.415 -0.7649  0.3513 -0.1780
  606MOL0     C81686   1.087   0.622   2.422  0.3844 -0.7442 -0.4071
  606MOL0     C81687   1.237   0.638   2.378  0.1843  0.2066 -0.2686
  606MOL0     C81688   1.253   0.601   2.230 -0.9419  0.2193 -0.1262
  606MOL0     C81689   1.392   0.614   2.171  0.5177  0.1281  0.6030
  606MOL0     C81690   1.432   0.764   2.168 -0.5472  0.5786 -0.0928
  606MOL0     C81691   1.582   0.765   2.154  0.2480  0.0667  1.0296
  606MOL0     N81692   1.606   0.761   1.999 -0.7030  0.0709  0.7607
  606MOL0     C81693   1.610   0.653   1.912 -0.3884 -0.6820 -0.6459
  606MOL0     C81694   1.596   0.708   1.789  0.0275  0.0134 -0.2213
  606MOL0     C81695   1.600   0.636   1.653 -0.0209  0.0441  0.5813
  606MOL0     C81696   1.503   0.693   1.551  0.4867 -1.4087  0.3974
  606MOL0     C81697   1.351   0.685   1.585 -0.7483 -0.0138  0.1191
  606MOL0     C81698   1.302   0.803   1.677 -0.3452  0.3456  0.4415
  606MOL0     O81699   1.159   0.828   1.667 -0.0316  0.6186 -0.0550
  606MOL0     C81700   1.069   0.754   1.744 -0.3012  0.4452 -0.2206
  606MOL0     C81701   0.954   0.706   1.688  1.0358  0.0692 -0.0245
  606MOL0     C81702   0.854   0.652   1.769  0.0371 -0.4501 -0.1655
  606MOL0     C81703   0.876   0.628   1.907  0.0162 -0.8832  0.3142
  606MOL0     C81704   0.776   0.550   1.991  0.0211 -0.0417  0.7577
  606MOL0     O81705   0.658   0.547   1.928  0.3305  0.1710  0.4581
  606MOL0     C81706   0.585   0.438   1.942 -0.5561 -0.2110  0.1430
  606MOL0     C81707   0.602   0.325   1.860  0.7985  0.6416 -1.3979
  606MOL0     C81708   0.526   0.210   1.880 -0.0168  0.5283  0.1934
  606MOL0     C81709   0.442   0.201   1.996  0.2162 -0.0950 -0.7374
  606MOL0     O81710   0.382   0.080   2.016 -0.0972 -0.4530  0.2823
  606MOL0     C81711   0.341   0.057   2.145 -0.0935 -0.7858 -0.5675
  606MOL0     C81712   0.280  -0.081   2.158 -0.2421  0.7603 -0.6456
  606MOL0     C81713   0.276  -0.123   2.312  0.9993 -0.4019 -0.0848
  606MOL0     C81714   0.160  -0.051   2.391  0.5285 -1.5040 -0.4792
  606MOL0     C81715   0.180  -0.060   2.535 -0.6120  0.0675 -0.2577
  606MOL0     C81716   0.060  -0.016   2.616  0.3772 -0.7581 -0.4694
  606MOL0     C81717   0.116   0.006   2.758  0.3511 -0.6152  0.0937
  606MOL0     C81718   0.018   0.099   2.830  0.4098 -0.9339  0.5286
  606MOL0    Cl81719   0.063   0.077   3.003  0.4086  0.1783 -0.2579
  606MOL0     C81720   0.416   0.321   2.074 -0.4025  0.5635  0.4048
  606MOL0     C81721   0.487   0.443   2.046  0.1670  0.3512  1.3318
  606MOL0     O81722   0.812   0.487   2.093  0.3125  0.0610 -0.1499
  606MOL0     C81723   1.000   0.654   1.963  0.0831 -0.1500  0.4386
  606MOL0     C81724   1.093   0.724   1.884  0.4500  0.6774 -0.4310
  606MOL0     N81725   1.591   0.840   1.798  0.0055 -0.3931  0.2113
  606MOL0     N81726   1.587   0.878   1.928  0.1229 -0.0406  0.0778
  606MOL0     C81727   1.052   0.100   2.704  0.9827  1.3515  0.7233
  606MOL0     C81728   0.971   0.048   2.795  0.5761 -0.4484  0.1839
  606MOL0     C81729   0.605   0.039   3.127 -0.8479  0.9221 -0.1819
  606MOL0     C81730   0.483   0.073   3.160 -0.8046  0.6291 -0.5402
  606MOL0     C81731   0.431   0.063   3.291 -0.2395  0.5860 -0.1336
  606MOL0     C81732   0.507   0.007   3.396 -0.4011 -0.4865  0.5106
  606MOL0     O81733   0.456   0.007   3.516 -0.2763 -0.5702 -0.8686
  606MOL0     C81734   0.331   0.069   3.555  1.2092  0.0950  1.1901
  606MOL0     C81735   0.329   0.089   3.708  0.7471 -0.7395  0.1729
  606MOL0     C81736   0.383  -0.021   3.791  0.1876 -0.0398 -0.0258
  606MOL0     C81737   0.324  -0.021   3.934 -0.0852  0.2204  0.1000
  606MOL0     C81738   0.418  -0.000   4.040 -0.5524 -0.1052  0.6085
  606MOL0     C81739   0.500   0.047   4.121  0.2425  0.3217  0.9852
  606MOL0     C81740   0.631  -0.031   3.361 -0.8943 -0.3552 -1.1303
  606MOL0     C81741   0.690  -0.014   3.232  0.2102 -2.4904  0.0748
  606MOL0     C81742   0.834  -0.057   3.213  0.1081 -1.0546 -0.3000
  606MOL0     H81743   0.698   0.254   2.787 -1.4668 -3.3594  3.8472
  606MOL0     H81744   0.839   0.349   2.619  0.1117  0.4259  0.8224
  606MOL0     H81745   1.057   0.457   2.629  3.7258  0.2400  1.4779
  606MOL0     H81746   1.210   0.418   2.553  0.1644  1.9246 -0.1530
  606MOL0     H81747   0.935   0.480   2.412 -0.9760 -2.1614  0.1730
  606MOL0     H81748   1.067   0.422   2.321  2.9521  3.0323 -0.9813
  606MOL0     H81749   1.065   0.650   2.526  0.8149  3.7940 -1.3476
  606MOL0     H81750   1.027   0.687   2.358  2.3814 -1.9013 -3.7286
  606MOL0     H81751   1.256   0.744   2.392 -2.4391  0.8789 -1.1622
  606MOL0     H81752   1.303   0.573   2.437 -0.2319 -1.4332 -1.5250
  606MOL0     H81753   1.215   0.501   2.207  1.5108 -0.5755 -1.0554
  606MOL0     H81754   1.182   0.671   2.185 -1.7508 -2.1749 -2.8818
  606MOL0     H81755   1.459   0.560   2.238  1.2811 -1.8855 -1.6086
  606MOL0     H81756   1.410   0.566   2.074  0.0232  0.2653  0.4429
  606MOL0     H81757   1.403   0.812   2.262  2.1284  0.4493  0.8624
  606MOL0     H81758   1.386   0.834   2.097 -0.4043  1.5343  0.7388
  606MOL0     H81759   1.627   0.860   2.186 -1.0118  0.0446  2.9831
  606MOL0     H81760   1.632   0.682   2.204  1.3158 -0.5941 -0.9957
  606MOL0     H81761   1.636   0.551   1.936  1.4453  0.4736  2.9898
  606MOL0     H81762   1.697   0.638   1.601  0.6250  1.2800  1.7626
  606MOL0     H81763   1.584   0.531   1.678  1.0959 -0.2891  0.0028
  606MOL0     H81764   1.535   0.792   1.517 -2.4635 -1.0474 -1.7463
  606MOL0     H81765   1.514   0.638   1.457  2.1809  3.0042 -2.3078
  606MOL0     H81766   1.327   0.584   1.622  0.4232 -1.0445 -1.7911
  606MOL0     H81767   1.294   0.700   1.493  0.4752  2.6854 -0.2860
  606MOL0     H81768   1.352   0.893   1.640  0.2361  1.0094  2.7066
  606MOL0     H81769   1.334   0.806   1.781  0.0185  1.5760  0.3074
  606MOL0     H81770   0.949   0.732   1.583  5.4444  2.8381  0.1832
  606MOL0     H81771   0.758   0.640   1.720 -1.4154  1.8496  1.8432
  606MOL0     H81772   0.675   0.319   1.779  1.8104  3.4851 -0.8068
  606MOL0     H81773   0.540   0.123   1.817  2.4471 -0.3642  1.8029
  606MOL0     H81774   0.432   0.052   2.205 -0.2538 -0.5062 -0.2991
  606MOL0     H81775   0.272   0.131   2.186 -0.1488 -0.8449 -0.5524
  606MOL0     H81776   0.179  -0.079   2.115 -0.0232 -1.7319 -1.4360
  606MOL0     H81777   0.334  -0.155   2.098 -0.3672  0.1748 -0.0388
  606MOL0     H81778   0.262  -0.231   2.321  1.8762 -0.6288 -1.1781
  606MOL0     H81779   0.369  -0.094   2.362  2.0110 -1.1024 -1.4794
  606MOL0     H81780   0.067  -0.104   2.367  1.3369 -3.1367 -0.1243
  606MOL0     H81781   0.152   0.053   2.357 -0.2751 -0.4956  2.4916
  606MOL0     H81782   0.274  -0.020   2.576 -0.7211 -1.8199  2.0457
  606MOL0     H81783   0.191  -0.166   2.560  0.5089 -0.0800 -1.2772
  606MOL0     H81784   0.018   0.079   2.580  0.8773  0.5370  2.1166
  606MOL0     H81785  -0.020  -0.088   2.603 -0.4927  0.5656 -3.2292
  606MOL0     H81786   0.216   0.048   2.773  0.1004  0.9902 -2.3132
  606MOL0     H81787   0.134  -0.094   2.800  1.8540 -1.1676 -1.7602
  606MOL0     H81788   0.042   0.200   2.794 -0.8081  0.3566  3.0023
  606MOL0     H81789  -0.087   0.070   2.815  0.1469  0.0209  0.4370
  606MOL0     H81790   0.330   0.328   2.140 -2.7709 -0.2780 -2.4014
  606MOL0     H81791   0.461   0.531   2.104  0.4680  0.3963  1.4019
  606MOL0     H81792   0.992   0.632   2.069 -1.9623 -1.3898  0.0807
  606MOL0     H81793   1.184   0.751   1.936  0.9852 -1.2765 -0.2713
  606MOL0     H81794   1.144   0.049   2.678  0.3112  1.1498 -1.4668
  606MOL0     H81795   1.011  -0.046   2.830  0.9899 -0.4415 -0.2630
  606MOL0     H81796   0.401   0.102   3.096 -2.1614 -2.0345 -0.1537
  606MOL0     H81797   0.327   0.093   3.293 -0.9637 -1.3609 -2.6060
  606MOL0     H81798   0.249   0.001   3.530  1.4209  0.3224 -0.1441
  606MOL0     H81799   0.322   0.163   3.500 -3.0523 -0.2471  0.9541
  606MOL0     H81800   0.228   0.123   3.729  0.8545  1.8226 -2.8717
  606MOL0     H81801   0.385   0.179   3.733 -1.0066  0.0935  1.2920
  606MOL0     H81802   0.492  -0.017   3.789  0.3151  2.7777  3.2218
  606MOL0     H81803   0.351  -0.115   3.744  0.1206 -0.4698  0.8584
  606MOL0     H81804   0.241   0.050   3.947  1.2686  1.4828  2.7264
  606MOL0     H81805   0.287  -0.122   3.952  3.5110 -1.5870 -1.6334
  606MOL0     H81806   0.569   0.086   4.193  0.9913 -1.0695  1.0564
  606MOL0     H81807   0.690  -0.049   3.450 -2.8932 -0.8809  0.1505
  606MOL0     H81808   0.877  -0.095   3.307  1.1602 -2.1524 -1.1910
  606MOL0     H81809   0.825  -0.146   3.151 -1.4326 -1.6975  0.7743
  606MOL0     H81810   0.901   0.019   3.171  0.8900 -1.5414  0.0361
  607MOL0     O81811   1.613   9.763  10.755  0.3021  0.3422 -0.6475
  607MOL0     C81812   1.531   9.726  10.836 -0.1869 -0.4313  0.6441
  607MOL0     O81813   1.423   9.796  10.869  0.7194  0.1587 -0.3954
  607MOL0     C81814   1.414   9.934  10.853 -0.7011 -0.6190 -0.2638
  607MOL0     C81815   1.368  10.022  10.959  0.7382  0.4258  0.0254
  607MOL0     C81816   1.344  10.156  10.935 -0.4409 -0.4432 -0.5374
  607MOL0     C81817   1.386  10.218  10.810 -1.3126 -0.4113 -0.2432
  607MOL0     O81818   1.360  10.347  10.768 -0.2813  0.3785 -0.6636
  607MOL0     C81819   1.284  10.427  10.863  0.0335 -0.1554  0.2706
  607MOL0     C81820   1.282  10.571  10.810 -0.0103 -0.1123  0.1525
  607MOL0     C81821   1.192  10.665  10.893 -0.3100 -0.5701  0.3859
  607MOL0     C81822   1.243  10.698  11.039 -0.7367 -0.2188 -0.7791
  607MOL0     C81823   1.161  10.806  11.098  0.2086 -0.5860  0.9687
  607MOL0     C81824   1.206  10.859  11.233  0.3066 -0.6242  0.4565
  607MOL0     C81825   1.149  10.999  11.255  0.1764 -0.0966  0.3067
  607MOL0     C81826   1.193  11.055  11.385 -0.1686 -0.7919 -0.2095
  607MOL0     N81827   1.337  11.081  11.387  1.1515 -0.0062 -0.5088
  607MOL0     C81828   1.419  11.136  11.295  0.8926 -0.4182 -0.3141
  607MOL0     C81829   1.542  11.117  11.334 -0.2955  1.3529 -0.2834
  607MOL0     C81830   1.663  11.133  11.264  0.2808 -0.7735  0.4603
  607MOL0     C81831   1.707  11.010  11.185 -1.1532  0.3557  0.6233
  607MOL0     C81832   1.592  10.942  11.107  1.1489  0.4692  0.2321
  607MOL0     C81833   1.639  10.834  11.006 -1.1804  0.4291  0.2497
  607MOL0     O81834   1.700  10.898  10.893 -0.3887  0.1648 -0.3596
  607MOL0     C81835   1.800  10.830  10.834  0.5957  0.3167  0.4537
  607MOL0     C81836   1.823  10.686  10.846 -0.4911 -0.3141  0.0662
  607MOL0     C81837   1.941  10.632  10.790 -0.0175 -0.2364 -0.5796
  607MOL0     C81838   2.022  10.722  10.717 -0.3521  0.0655  0.3927
  607MOL0     C81839   2.141  10.661  10.646 -0.1462 -0.0159 -0.7086
  607MOL0     O81840   2.235  10.742  10.584 -0.1516  0.2443 -0.1839
  607MOL0     C81841   2.328  10.676  10.509 -0.6897  0.3787  0.1953
  607MOL0     C81842   2.305  10.672  10.366 -0.0792 -0.1361 -0.0797
  607MOL0     C81843   2.392  10.611  10.276 -0.3461  0.3758  0.0255
  607MOL0     C81844   2.513  10.549  10.318 -0.1862 -0.1514  0.2536
  607MOL0     O81845   2.583  10.482  10.222 -0.9827 -0.1724  0.0748
  607MOL0     C81846   2.702  10.404  10.262  0.5452  1.1674 -0.0893
  607MOL0     C81847   2.749  10.350  10.127 -0.4499 -0.6088  1.1308
  607MOL0     C81848   2.857  10.236  10.114  0.6187  0.0698  0.8492
  607MOL0     C81849   2.802  10.114  10.184 -0.8625  0.3041 -0.4285
  607MOL0     C81850   2.885   9.987  10.155  0.7499 -0.1972 -0.1914
  607MOL0     C81851   2.859   9.864  10.248  0.1981  0.1790  0.3357
  607MOL0     C81852   2.953   9.749  10.198  0.0423 -0.2343 -0.6258
  607MOL0     C81853   2.865   9.637  10.148 -0.5984  0.3217 -0.8006
  607MOL0    Cl81854   2.782   9.571  10.287  0.1767  0.0379 -0.1155
  607MOL0     C81855   2.543  10.563  10.454 -0.6601  0.8804  0.0588
  607MOL0     C81856   2.451  10.625  10.541 -0.1164 -0.6018  0.6094
  607MOL0     O81857   2.146  10.539  10.634 -0.0214 -0.1835  0.1748
  607MOL0     C81858   2.002  10.851  10.703 -0.4398 -0.5368  0.3935
  607MOL0     C81859   1.894  10.904  10.764 -0.2768  0.6535  1.4664
  607MOL0     N81860   1.545  11.073  11.463  0.9327  0.5371  0.1136
  607MOL0     N81861   1.418  11.039  11.488 -0.4343 -0.1948 -0.1078
  607MOL0     C81862   1.457  10.135  10.715 -0.3033  0.2550  1.0566
  607MOL0     C81863   1.460   9.996  10.729  0.1584 -0.5987 -0.8799
  607MOL0     C81864   1.523   9.577  10.864  0.2088 -0.0574  0.1451
  607MOL0     C81865   1.395   9.516  10.885  0.0179 -0.8592 -0.9229
  607MOL0     C81866   1.383   9.389  10.927  0.3689  0.8436 -0.1750
  607MOL0     C81867   1.491   9.295  10.933 -0.9543 -0.6286  0.5160
  607MOL0     O81868   1.483   9.164  10.955 -0.5209  0.0460  0.1582
  607MOL0     C81869   1.359   9.097  10.970 -0.2326  0.0257  0.4528
  607MOL0     C81870   1.321   9.054  11.108  0.0407 -0.3368  0.5633
  607MOL0     C81871   1.435   8.992  11.189 -0.0615 -0.3613 -0.0082
  607MOL0     C81872   1.389   8.968  11.334 -0.3608  0.0419  0.2279
  607MOL0     C81873   1.467   8.852  11.381  0.9914  0.9192  0.2078
  607MOL0     C81874   1.545   8.783  11.432 -0.4507 -0.0663  0.7300
  607MOL0     C81875   1.618   9.357  10.909 -0.8411  0.9054 -0.4227
  607MOL0     C81876   1.636   9.497  10.890  1.0217  0.1171  0.1274
  607MOL0     C81877   1.778   9.550  10.888  0.8099  0.8899 -0.6203
  607MOL0     H81878   1.342   9.961  11.045 -0.2143 -0.2219 -0.7087
  607MOL0     H81879   1.290  10.207  11.014 -0.8975  0.9758 -1.7354
  607MOL0     H81880   1.178  10.400  10.866 -0.2258 -0.3360 -4.2538
  607MOL0     H81881   1.331  10.417  10.962  0.1136 -0.7591  0.1734
  607MOL0     H81882   1.250  10.570  10.706  0.5956  2.3227 -0.1096
  607MOL0     H81883   1.383  10.610  10.818  0.6516 -1.8819  0.8361
  607MOL0     H81884   1.098  10.610  10.900  0.9175 -2.9188 -0.3585
  607MOL0     H81885   1.180  10.762  10.844 -1.6974 -2.0494 -2.4595
  607MOL0     H81886   1.237  10.604  11.096 -0.3407  1.7737  2.8090
  607MOL0     H81887   1.347  10.731  11.043 -0.2859 -1.5803 -0.5982
  607MOL0     H81888   1.163  10.885  11.022 -1.4910  0.1144  1.5971
  607MOL0     H81889   1.055  10.781  11.102  0.1540 -0.3454  1.0735
  607MOL0     H81890   1.163  10.801  11.315  0.6786  0.3587  1.3594
  607MOL0     H81891   1.314  10.875  11.242  0.0393  2.7375 -1.0641
  607MOL0     H81892   1.040  11.007  11.243 -0.0792  0.0380  2.3196
  607MOL0     H81893   1.190  11.070  11.182  0.0450  0.4673  0.7720
  607MOL0     H81894   1.141  11.147  11.412  0.7859 -0.9157  2.3474
  607MOL0     H81895   1.170  10.984  11.465  0.5078 -0.1698  0.5616
  607MOL0     H81896   1.385  11.186  11.205 -4.5680 -0.4999  1.3636
  607MOL0     H81897   1.645  11.216  11.195 -0.9063 -1.2482  0.1794
  607MOL0     H81898   1.729  11.167  11.344 -0.8673  1.1300  0.6558
  607MOL0     H81899   1.793  11.034  11.122 -1.2832  1.5917  0.9007
  607MOL0     H81900   1.748  10.927  11.243  1.3108  1.1431  0.0934
  607MOL0     H81901   1.534  11.019  11.055  0.0973 -1.1640 -1.1184
  607MOL0     H81902   1.533  10.884  11.178  2.0195 -2.6078 -1.3917
  607MOL0     H81903   1.548  10.786  10.971 -0.2699 -1.6452  0.5859
  607MOL0     H81904   1.703  10.772  11.069 -2.6110  1.9017  3.3889
  607MOL0     H81905   1.758  10.632  10.913  1.1293 -1.5531  0.6856
  607MOL0     H81906   1.952  10.524  10.800 -2.8542 -0.8260 -2.4853
  607MOL0     H81907   2.206  10.707  10.338  0.9606  1.1182 -2.5797
  607MOL0     H81908   2.364  10.606  10.171 -3.2483  0.7817  0.6796
  607MOL0     H81909   2.778  10.471  10.304  0.9067  1.7862 -1.6665
  607MOL0     H81910   2.685  10.321  10.332 -1.0725 -0.8640 -2.7196
  607MOL0     H81911   2.662  10.329  10.065 -1.0484  3.1580  0.4241
  607MOL0     H81912   2.789  10.435  10.071  1.4340 -2.4462 -0.4904
  607MOL0     H81913   2.868  10.222  10.007 -4.6414  0.9991 -0.1183
  607MOL0     H81914   2.955  10.256  10.158  1.9110 -3.6602 -0.0598
  607MOL0     H81915   2.700  10.085  10.158  0.0212 -3.7112  0.0452
  607MOL0     H81916   2.788  10.132  10.291 -2.5741 -0.2803 -0.5266
  607MOL0     H81917   2.984  10.026  10.181 -0.7467  4.8917 -1.0415
  607MOL0     H81918   2.882   9.956  10.050 -1.8831  0.4495 -0.3837
  607MOL0     H81919   2.886   9.905  10.346  1.1114 -1.4978  0.8249
  607MOL0     H81920   2.751   9.843  10.248  0.2870 -0.3023  0.7280
  607MOL0     H81921   3.006   9.706  10.284  0.4201 -2.4829 -1.8968
  607MOL0     H81922   3.016   9.778  10.113 -0.6352 -0.0163 -1.0636
  607MOL0     H81923   2.790   9.676  10.079 -1.4363 -0.8196 -0.5676
  607MOL0     H81924   2.927   9.566  10.092 -1.7400 -1.7922  0.4638
  607MOL0     H81925   2.634  10.515  10.487 -0.0789  1.1082 -1.1335
  607MOL0     H81926   2.481  10.633  10.645  3.1902  1.6750 -0.3647
  607MOL0     H81927   2.088  10.908  10.668  1.0926 -3.6935 -1.4535
  607MOL0     H81928   1.875  11.010  10.781  0.2937  0.9345  0.4338
  607MOL0     H81929   1.494  10.178  10.622  1.0007 -0.3185  1.2957
  607MOL0     H81930   1.487   9.934  10.644 -0.4872 -0.7317 -0.9936
  607MOL0     H81931   1.295   9.554  10.868 -1.4352 -2.9785  1.9312
  607MOL0     H81932   1.288   9.352  10.963 -0.1091 -2.1317 -3.8464
  607MOL0     H81933   1.368   9.000  10.919 -2.3527  0.1545 -0.2461
  607MOL0     H81934   1.278   9.154  10.925  1.5991  1.8325 -0.7397
  607MOL0     H81935   1.229   8.996  11.111  1.1112 -2.3708 -2.3073
  607MOL0     H81936   1.297   9.149  11.157 -0.4866 -1.2887  2.2369
  607MOL0     H81937   1.516   9.064  11.201 -2.5795  2.7246 -0.0283
  607MOL0     H81938   1.467   8.900  11.140 -0.8340 -0.1173 -1.0156
  607MOL0     H81939   1.405   9.049  11.406  1.6906  1.2666 -1.4850
  607MOL0     H81940   1.286   8.936  11.317 -0.0472 -0.4710 -0.7556
  607MOL0     H81941   1.624   8.720  11.468 -1.1576 -1.5231 -0.1930
  607MOL0     H81942   1.702   9.288  10.908 -2.5022 -1.2260 -2.0942
  607MOL0     H81943   1.773   9.659  10.898  0.1502  1.0582 -2.3865
  607MOL0     H81944   1.822   9.506  10.978 -0.7918 -0.0808 -0.2642
  607MOL0     H81945   1.836   9.523  10.800  0.1003  1.7942 -1.3945
  608MOL0     O81946   2.019   4.325   1.783  0.1627 -0.3268  0.1936
  608MOL0     C81947   1.943   4.284   1.867  0.0962 -0.1235 -0.3092
  608MOL0     O81948   1.919   4.337   1.986 -0.6667  0.1155  0.0277
  608MOL0     C81949   1.980   4.459   2.013 -0.1888  0.0917  0.8141
  608MOL0     C81950   1.996   4.482   2.148  0.4284  0.7120  0.3473
  608MOL0     C81951   2.036   4.610   2.183 -0.3035  0.3573 -0.6220
  608MOL0     C81952   2.044   4.719   2.101 -1.3006 -0.6723 -0.9114
  608MOL0     O81953   2.069   4.845   2.154 -0.5032 -0.3143  0.7953
  608MOL0     C81954   2.092   4.955   2.061  0.2949 -0.1180 -0.1138
  608MOL0     C81955   2.124   5.074   2.144  0.5900  0.5059  0.3102
  608MOL0     C81956   2.272   5.057   2.173 -0.1107 -0.6882  0.6121
  608MOL0     C81957   2.383   5.031   2.063  0.0780  0.4240 -0.1164
  608MOL0     C81958   2.521   5.059   2.121  0.2221  0.1221  0.6787
  608MOL0     C81959   2.616   5.013   2.008 -0.8367 -0.4087 -0.4284
  608MOL0     C81960   2.634   4.863   2.006 -0.2829  0.8729  0.1545
  608MOL0     C81961   2.714   4.830   1.882 -0.1295 -0.3636 -0.0361
  608MOL0     N81962   2.735   4.691   1.858  0.2429  0.2449  0.0351
  608MOL0     C81963   2.797   4.601   1.939 -0.3182  0.2064 -0.2838
  608MOL0     C81964   2.792   4.487   1.864 -0.3777 -0.6880 -0.9747
  608MOL0     C81965   2.827   4.345   1.907  1.9702  0.1163 -0.5850
  608MOL0     C81966   2.972   4.322   1.921  0.6902  0.1911 -0.7132
  608MOL0     C81967   3.009   4.193   2.003  0.4388  0.2563  0.5221
  608MOL0     C81968   3.163   4.172   1.998 -0.2498  0.6731 -0.3225
  608MOL0     O81969   3.233   4.265   2.091 -0.5749  0.4046 -0.1444
  608MOL0     C81970   3.347   4.209   2.133  0.1102  0.4337  0.1538
  608MOL0     C81971   3.437   4.144   2.051  0.0773 -1.1122 -0.2907
  608MOL0     C81972   3.564   4.096   2.105 -1.2175  0.1420 -0.9447
  608MOL0     C81973   3.599   4.116   2.241  0.8572  0.4129  0.4007
  608MOL0     C81974   3.732   4.088   2.293  0.2287  0.6136  0.0369
  608MOL0     O81975   3.815   4.009   2.218  0.0919  0.1307  0.4804
  608MOL0     C81976   3.947   4.025   2.235 -0.1408 -0.3863  0.7612
  608MOL0     C81977   4.012   4.143   2.228  0.4980 -0.2500  0.1302
  608MOL0     C81978   4.152   4.137   2.246  0.7105  0.2999  1.2966
  608MOL0     C81979   4.228   4.016   2.247  0.4131 -0.5989 -0.3596
  608MOL0     O81980   4.364   4.014   2.286  0.2924 -0.9046  0.6659
  608MOL0     C81981   4.437   3.907   2.220 -0.6173  0.5281 -0.0061
  608MOL0     C81982   4.576   3.894   2.291  0.2830 -0.7918 -0.4833
  608MOL0     C81983   4.682   3.802   2.226  0.4852  0.5055  0.2898
  608MOL0     C81984   4.824   3.775   2.288  0.0544 -0.0292 -0.4271
  608MOL0     C81985   4.923   3.708   2.194 -0.0274  0.1206  0.3146
  608MOL0     C81986   5.023   3.621   2.275 -0.1463  0.3395  0.1039
  608MOL0     C81987   5.125   3.541   2.181  0.7953 -0.6364  0.6989
  608MOL0     C81988   5.239   3.473   2.251  0.0717 -0.5533  0.2388
  608MOL0    Cl81989   5.357   3.409   2.117  0.0859  0.0733  0.0885
  608MOL0     C81990   4.156   3.902   2.227 -0.4430  0.5115 -1.6594
  608MOL0     C81991   4.017   3.903   2.224  0.1560 -0.6191  0.5243
  608MOL0     O81992   3.769   4.135   2.399  0.7501 -0.5738  0.1390
  608MOL0     C81993   3.502   4.185   2.315  0.1969  0.6625 -0.4531
  608MOL0     C81994   3.384   4.232   2.264  0.5598 -0.3450  0.3961
  608MOL0     N81995   2.737   4.505   1.741  0.3115  0.2576  0.8022
  608MOL0     N81996   2.701   4.629   1.739  0.1266 -0.4133 -0.2719
  608MOL0     C81997   2.020   4.695   1.966 -0.5696  0.7003  0.0250
  608MOL0     C81998   1.985   4.567   1.918  0.4673  0.0320  0.3002
  608MOL0     C81999   1.885   4.144   1.856 -0.3853 -0.1070 -0.3356
  608MOL0     C82000   1.753   4.120   1.910 -0.0514  0.2817  0.3984
  608MOL0     C82001   1.687   4.001   1.870  0.0556  0.5157  0.5590
  608MOL0     C82002   1.752   3.905   1.790 -0.9439 -0.3262  0.5566
  608MOL0     O82003   1.684   3.789   1.763  0.4506 -0.5038 -0.3186
  608MOL0     C82004   1.585   3.798   1.658 -0.3259  0.0242  0.1758
  608MOL0     C82005   1.637   3.741   1.517  0.5198 -0.0693  0.1370
  608MOL0     C82006   1.554   3.790   1.386 -0.9262 -0.4205 -0.1315
  608MOL0     C82007   1.414   3.727   1.398  0.7746 -0.4316  0.4357
  608MOL0     C82008   1.414   3.584   1.364  0.2498  0.3029  0.0174
  608MOL0     C82009   1.395   3.473   1.319  0.0419 -0.4901 -0.2338
  608MOL0     C82010   1.888   3.920   1.749  0.4923 -0.0521 -1.2706
  608MOL0     C82011   1.953   4.044   1.785 -0.0775  0.1644  0.5596
  608MOL0     C82012   2.102   4.035   1.761 -0.7345  0.2996  0.1616
  608MOL0     H82013   1.982   4.409   2.227  0.4024  1.2821  0.8750
  608MOL0     H82014   2.053   4.634   2.287  2.7408  1.0963 -1.2108
  608MOL0     H82015   2.165   4.923   1.986  2.2647  1.3894  1.0757
  608MOL0     H82016   1.996   4.975   2.012 -0.1624 -0.3798  0.6487
  608MOL0     H82017   2.070   5.074   2.240  1.5583  0.2737  0.8650
  608MOL0     H82018   2.101   5.168   2.092  1.8452  0.0443 -1.1336
  608MOL0     H82019   2.275   4.964   2.230  1.1781 -0.6867  0.5758
  608MOL0     H82020   2.312   5.140   2.232 -1.8259 -0.3125  1.3159
  608MOL0     H82021   2.365   4.928   2.032 -2.6244  0.8267 -0.1403
  608MOL0     H82022   2.379   5.101   1.980  1.1807  3.0489  1.8948
  608MOL0     H82023   2.540   5.165   2.138  4.2681 -0.5668  1.3921
  608MOL0     H82024   2.524   5.004   2.215 -3.1326  2.3645  2.2877
  608MOL0     H82025   2.592   5.058   1.912  1.7030  0.8325 -0.5728
  608MOL0     H82026   2.716   5.047   2.037  1.0444 -2.6601 -3.6668
  608MOL0     H82027   2.537   4.812   2.001 -0.9381  2.1249 -0.4342
  608MOL0     H82028   2.674   4.815   2.096 -3.3974 -1.3821  0.4886
  608MOL0     H82029   2.664   4.867   1.792 -0.5471 -3.2297 -1.0929
  608MOL0     H82030   2.802   4.893   1.897 -0.8081  0.7187 -0.4782
  608MOL0     H82031   2.838   4.616   2.038  0.4228  3.0702 -0.9334
  608MOL0     H82032   2.769   4.336   1.999 -1.9647  5.5879 -2.0814
  608MOL0     H82033   2.781   4.272   1.839  2.2187 -0.2232 -0.3948
  608MOL0     H82034   3.017   4.325   1.822 -1.5456  0.6994 -1.7748
  608MOL0     H82035   3.013   4.402   1.983  0.5715 -1.4270  1.6059
  608MOL0     H82036   2.964   4.107   1.953  0.6286 -0.9942  2.4075
  608MOL0     H82037   2.974   4.199   2.107  0.1948  1.5651  0.3858
  608MOL0     H82038   3.205   4.196   1.900 -0.6398  4.3884  0.2752
  608MOL0     H82039   3.174   4.067   2.028 -2.3904 -0.2220 -2.3480
  608MOL0     H82040   3.412   4.143   1.946 -0.6627 -0.7755 -0.1194
  608MOL0     H82041   3.634   4.044   2.040  0.3625  1.3460 -0.2726
  608MOL0     H82042   3.942   4.225   2.217 -1.3649 -1.8490 -0.4138
  608MOL0     H82043   4.196   4.236   2.253  2.6568 -0.5097  1.2090
  608MOL0     H82044   4.392   3.810   2.242  0.4388  0.3580  1.5271
  608MOL0     H82045   4.450   3.934   2.114  1.0111 -1.9688 -0.5183
  608MOL0     H82046   4.616   3.996   2.303 -0.7658 -0.3796 -0.3866
  608MOL0     H82047   4.567   3.846   2.389 -1.7650 -0.1048 -0.2913
  608MOL0     H82048   4.631   3.706   2.213  1.1093  0.4135 -2.0065
  608MOL0     H82049   4.709   3.836   2.125  2.6763  0.5969  0.8557
  608MOL0     H82050   4.814   3.726   2.386 -2.0439  2.0546  0.4800
  608MOL0     H82051   4.864   3.871   2.321 -1.3259  0.4091  0.0560
  608MOL0     H82052   4.978   3.785   2.138 -0.1481  0.5463  0.7776
  608MOL0     H82053   4.867   3.647   2.123  2.2852 -1.6065 -0.1539
  608MOL0     H82054   5.078   3.686   2.343  2.8525 -0.3157 -1.5264
  608MOL0     H82055   4.963   3.545   2.327  0.9796 -0.4279  0.2974
  608MOL0     H82056   5.160   3.615   2.109 -3.3849  2.8602  1.8251
  608MOL0     H82057   5.073   3.470   2.116  3.0516  0.5377 -2.6043
  608MOL0     H82058   5.292   3.539   2.321  0.3027 -0.8498  0.3451
  608MOL0     H82059   5.204   3.385   2.306 -0.0186 -1.3127 -1.0052
  608MOL0     H82060   4.194   3.801   2.209  0.1366  0.3682  0.1381
  608MOL0     H82061   3.959   3.811   2.215 -0.1504 -0.2523 -1.9334
  608MOL0     H82062   3.540   4.204   2.414  2.6113  1.8747 -1.5392
  608MOL0     H82063   3.329   4.295   2.333 -1.0102 -0.9506 -0.2576
  608MOL0     H82064   2.013   4.778   1.896 -1.5915  2.0157  1.6061
  608MOL0     H82065   1.950   4.557   1.816 -1.1511  0.2015  0.8119
  608MOL0     H82066   1.699   4.186   1.976 -0.9877 -0.0270 -0.0440
  608MOL0     H82067   1.587   3.988   1.911  0.1300  0.4809  0.7290
  608MOL0     H82068   1.536   3.895   1.649 -2.6125 -1.2261 -1.9569
  608MOL0     H82069   1.505   3.736   1.700 -1.9516  3.2193  2.2400
  608MOL0     H82070   1.639   3.632   1.515  2.1256 -0.1201  1.6915
  608MOL0     H82071   1.740   3.775   1.507  1.1766 -1.0164  2.8182
  608MOL0     H82072   1.608   3.754   1.298 -2.0319 -0.8045 -0.6672
  608MOL0     H82073   1.546   3.899   1.381  0.1811 -0.2669  1.0859
  608MOL0     H82074   1.386   3.745   1.502  0.9876  0.7519  0.3047
  608MOL0     H82075   1.336   3.780   1.343 -0.8968 -0.6392  2.4679
  608MOL0     H82076   1.381   3.377   1.273  0.3583 -0.3544 -0.6268
  608MOL0     H82077   1.939   3.838   1.700 -1.1473 -0.8625 -1.6936
  608MOL0     H82078   2.126   3.987   1.665 -1.9234  1.1714 -0.5924
  608MOL0     H82079   2.138   4.137   1.779 -1.3016  1.0407 -2.4480
  608MOL0     H82080   2.144   3.974   1.842 -0.8733  1.3644  1.0522
  609MOL0     O82081   5.652  11.021   8.029 -0.1477 -0.5032  0.9185
  609MOL0     C82082   5.614  10.909   8.039  0.3625  0.4398  1.4764
  609MOL0     O82083   5.670  10.808   7.979 -0.1946  0.6603 -0.6796
  609MOL0     C82084   5.761  10.826   7.886  0.4073  0.3276  0.2948
  609MOL0     C82085   5.901  10.841   7.894 -0.7399  0.5503 -0.1116
  609MOL0     C82086   5.983  10.855   7.772 -0.0745 -0.4293  0.4840
  609MOL0     C82087   5.921  10.845   7.642 -0.3826  0.0140 -0.2806
  609MOL0     O82088   5.992  10.886   7.533  0.0449 -0.0246  0.0451
  609MOL0     C82089   6.011  10.780   7.436  0.8928 -0.8012  0.2012
  609MOL0     C82090   6.085  10.843   7.313 -0.0216  0.1293  0.8939
  609MOL0     C82091   6.134  10.736   7.215 -0.3555  0.3273  0.3226
  609MOL0     C82092   6.253  10.791   7.122  0.1718 -0.3348 -0.3054
  609MOL0     C82093   6.302  10.688   7.019 -0.2642 -0.3703  0.4895
  609MOL0     C82094   6.204  10.669   6.902 -0.0702  0.3970  0.1300
  609MOL0     C82095   6.218  10.538   6.820  0.2716 -0.0302  0.7570
  609MOL0     C82096   6.367  10.504   6.804 -0.0597 -0.4528  0.1997
  609MOL0     N82097   6.397  10.409   6.698  0.1131  0.2145 -0.2758
  609MOL0     C82098   6.517  10.372   6.644 -0.4731  0.1357 -0.1332
  609MOL0     C82099   6.502  10.268   6.566 -0.1556 -0.5096 -0.1601
  609MOL0     C82100   6.603  10.202   6.472 -0.6882 -0.3147  0.4942
  609MOL0     C82101   6.658  10.079   6.536  0.9146  0.3610  0.1529
  609MOL0     C82102   6.761  10.003   6.453  1.2105  0.0738  0.6700
  609MOL0     C82103   6.833   9.885   6.511 -0.1885  0.7623 -0.0788
  609MOL0     O82104   6.900   9.930   6.631  0.8229  0.0449 -0.4981
  609MOL0     C82105   7.014   9.994   6.633 -1.8540 -0.8886  0.0631
  609MOL0     C82106   7.071  10.026   6.763  0.5391  0.0570  0.5876
  609MOL0     C82107   7.196  10.074   6.778 -0.4808 -0.7054  0.4584
  609MOL0     C82108   7.281  10.090   6.663 -0.6890 -0.6058  0.4180
  609MOL0     C82109   7.423  10.124   6.682  0.7612  0.5911  0.2117
  609MOL0     O82110   7.484  10.169   6.571  0.1719  0.1413 -0.7469
  609MOL0     C82111   7.625  10.182   6.567 -0.1726 -0.2880  0.9548
  609MOL0     C82112   7.660  10.251   6.450  0.4116 -0.2720  0.4713
  609MOL0     C82113   7.794  10.252   6.405 -0.2034  0.3261 -0.0964
  609MOL0     C82114   7.894  10.198   6.486 -0.1432 -0.6235 -0.5397
  609MOL0     O82115   8.033  10.225   6.471  0.5861 -0.2476 -0.3530
  609MOL0     C82116   8.069  10.264   6.343 -0.3746  0.0508  0.6815
  609MOL0     C82117   8.218  10.232   6.324  0.1252  0.6813  0.7936
  609MOL0     C82118   8.312  10.327   6.398  0.7605 -0.0339 -0.0306
  609MOL0     C82119   8.454  10.301   6.360 -0.4141 -0.3010 -0.0575
  609MOL0     C82120   8.543  10.413   6.414  0.0487 -0.4925  0.1800
  609MOL0     C82121   8.692  10.374   6.403  0.0840  0.7988 -0.2732
  609MOL0     C82122   8.738  10.295   6.529 -0.3160 -0.3379 -0.6871
  609MOL0     C82123   8.849  10.187   6.499  0.9895 -0.5944 -0.3857
  609MOL0    Cl82124   8.753  10.057   6.415 -0.3352  0.3997 -0.3089
  609MOL0     C82125   7.853  10.138   6.611 -0.0277 -0.6150 -0.1603
  609MOL0     C82126   7.723  10.126   6.650  1.0994 -0.2392 -0.0900
  609MOL0     O82127   7.471  10.103   6.795  0.7359 -0.5170  0.0224
  609MOL0     C82128   7.228  10.065   6.541  0.3574 -0.6891 -0.1424
  609MOL0     C82129   7.097  10.024   6.526 -0.3302  0.9394  0.0667
  609MOL0     N82130   6.363  10.241   6.568 -0.0666  0.0120 -0.1009
  609MOL0     N82131   6.303  10.323   6.646  0.5903  0.5085  0.0620
  609MOL0     C82132   5.787  10.831   7.642  0.2044  0.5689 -0.4978
  609MOL0     C82133   5.704  10.823   7.760  0.7897 -0.1300  1.0896
  609MOL0     C82134   5.490  10.873   8.118  0.2182 -0.5257  0.4237
  609MOL0     C82135   5.432  10.747   8.084  0.0611 -0.0119 -0.7612
  609MOL0     C82136   5.325  10.691   8.163 -0.1348  0.0312  0.2913
  609MOL0     C82137   5.255  10.770   8.253 -0.4693  0.2594 -0.1496
  609MOL0     O82138   5.157  10.708   8.322 -0.0172  0.1573 -0.1626
  609MOL0     C82139   5.061  10.797   8.391  0.4823 -0.1373 -0.5122
  609MOL0     C82140   4.958  10.716   8.469  0.2302 -0.1620 -0.3463
  609MOL0     C82141   4.879  10.821   8.552 -0.2923 -0.6190 -0.0326
  609MOL0     C82142   4.735  10.768   8.591 -0.1002 -0.5195 -0.1042
  609MOL0     C82143   4.741  10.644   8.658  0.1086  0.3575 -0.3263
  609MOL0     C82144   4.749  10.533   8.706 -0.1413  0.4693  0.8692
  609MOL0     C82145   5.297  10.906   8.271  0.5604 -0.1874  0.6918
  609MOL0     C82146   5.418  10.956   8.209  1.2201 -0.2480 -0.4050
  609MOL0     C82147   5.452  11.093   8.241 -0.1376  0.0419  0.2158
  609MOL0     H82148   5.943  10.857   7.993 -1.3780  1.2672  0.0523
  609MOL0     H82149   6.090  10.871   7.778 -0.2727  1.8040 -0.9317
  609MOL0     H82150   6.086  10.715   7.483 -0.7204 -2.4713  0.5640
  609MOL0     H82151   5.926  10.715   7.415  1.3868 -0.9563 -1.4160
  609MOL0     H82152   6.167  10.910   7.341 -0.5868  1.8026 -1.1439
  609MOL0     H82153   6.019  10.914   7.262  1.1530  0.0687 -0.8145
  609MOL0     H82154   6.053  10.711   7.145 -0.1232  2.0710 -0.6451
  609MOL0     H82155   6.170  10.649   7.270  0.3962  0.9724  0.8875
  609MOL0     H82156   6.222  10.872   7.055  0.2541  1.9717  2.2616
  609MOL0     H82157   6.330  10.837   7.185  0.9135 -0.7517 -0.8971
  609MOL0     H82158   6.390  10.726   6.967 -3.1746  2.5669 -2.8101
  609MOL0     H82159   6.316  10.592   7.069 -1.9050  0.6258  3.1135
  609MOL0     H82160   6.100  10.677   6.936  0.5403  0.6236  2.0808
  609MOL0     H82161   6.214  10.752   6.831  0.9309  1.9229  1.9369
  609MOL0     H82162   6.168  10.569   6.728 -2.0969  1.5207  2.4266
  609MOL0     H82163   6.163  10.447   6.843  1.0092 -0.8905 -0.7652
  609MOL0     H82164   6.420  10.599   6.787 -0.6045  0.1050  1.4589
  609MOL0     H82165   6.411  10.463   6.895  2.1865  0.8602 -0.2291
  609MOL0     H82166   6.600  10.442   6.651 -2.3287  2.4388  0.2424
  609MOL0     H82167   6.556  10.170   6.378  1.0633  0.9755 -0.8817
  609MOL0     H82168   6.683  10.274   6.458 -0.7747 -0.5115 -1.2684
  609MOL0     H82169   6.704  10.110   6.630  0.4115  3.5222 -0.5161
  609MOL0     H82170   6.572  10.014   6.556  0.0947  1.2493 -0.3825
  609MOL0     H82171   6.836  10.082   6.444  0.0510  1.3733  1.8979
  609MOL0     H82172   6.712   9.979   6.358  0.1495  2.5486  0.5149
  609MOL0     H82173   6.899   9.847   6.432 -0.7010  1.9672 -1.1446
  609MOL0     H82174   6.754   9.812   6.529  0.5646  0.4263  2.1634
  609MOL0     H82175   7.000  10.014   6.843  1.0823 -0.1608  1.0424
  609MOL0     H82176   7.236  10.100   6.875  0.1288  1.6258 -0.3471
  609MOL0     H82177   7.589  10.291   6.378 -1.3687 -1.5194  1.4725
  609MOL0     H82178   7.803  10.305   6.311 -0.8376  0.2637 -0.1981
  609MOL0     H82179   8.010  10.212   6.267 -0.7149 -0.7687  1.4899
  609MOL0     H82180   8.059  10.371   6.324  3.2302  0.3357 -0.4428
  609MOL0     H82181   8.240  10.131   6.360  2.4257  1.7328  2.5957
  609MOL0     H82182   8.250  10.234   6.219  0.0897 -0.3933  0.7595
  609MOL0     H82183   8.279  10.431   6.398 -1.6263 -0.7213 -0.6823
  609MOL0     H82184   8.312  10.303   6.505 -0.0949 -0.4605 -0.1146
  609MOL0     H82185   8.472  10.310   6.252  4.3812 -2.6891  0.2856
  609MOL0     H82186   8.482  10.199   6.385 -1.2046 -0.2878  0.9634
  609MOL0     H82187   8.521  10.419   6.521  1.8942 -0.8308  0.6145
  609MOL0     H82188   8.507  10.507   6.371  2.6737  0.3208 -0.3888
  609MOL0     H82189   8.718  10.305   6.322  4.3073 -1.3632  2.5739
  609MOL0     H82190   8.756  10.462   6.395  2.9637 -1.2536 -1.9975
  609MOL0     H82191   8.648  10.251   6.573 -0.8356  0.5078 -0.8883
  609MOL0     H82192   8.769  10.374   6.597 -1.4328 -1.3849  1.1102
  609MOL0     H82193   8.919  10.221   6.422  2.7438  0.9522  1.7580
  609MOL0     H82194   8.904  10.167   6.591  1.3566  1.6781 -0.0403
  609MOL0     H82195   7.936  10.103   6.670 -0.6896 -0.6150  0.7953
  609MOL0     H82196   7.710  10.059   6.734  1.4194 -1.2552 -0.8403
  609MOL0     H82197   7.294  10.083   6.456  4.0437  1.2512  2.8227
  609MOL0     H82198   7.067  10.008   6.423 -2.3433  4.8836 -0.1653
  609MOL0     H82199   5.734  10.826   7.547  2.3274 -4.4039 -1.7862
  609MOL0     H82200   5.598  10.805   7.743  1.0135 -1.0423  0.5708
  609MOL0     H82201   5.475  10.686   8.006  0.1825  1.4697 -1.9098
  609MOL0     H82202   5.284  10.591   8.153 -0.5078  0.0377  1.5460
  609MOL0     H82203   5.015  10.866   8.319  4.3009 -0.2694 -3.4225
  609MOL0     H82204   5.123  10.863   8.453  0.9596  0.3238 -1.4403
  609MOL0     H82205   5.020  10.638   8.515  3.9616  1.9882 -1.2824
  609MOL0     H82206   4.893  10.659   8.402 -2.2117 -1.5687  2.9487
  609MOL0     H82207   4.857  10.908   8.491  2.2604 -0.0151 -0.2087
  609MOL0     H82208   4.923  10.853   8.647  0.8040 -0.9701 -0.4047
  609MOL0     H82209   4.687  10.832   8.666  1.4682 -0.4009  0.8462
  609MOL0     H82210   4.670  10.766   8.503  0.0324  1.9828 -0.3424
  609MOL0     H82211   4.734  10.437   8.751 -1.2814 -0.9507 -2.2589
  609MOL0     H82212   5.238  10.967   8.339 -2.8131  0.0784 -2.1848
  609MOL0     H82213   5.385  11.124   8.323 -0.8338 -3.1699  1.0093
  609MOL0     H82214   5.554  11.122   8.265  0.2931  0.1867 -1.6325
  609MOL0     H82215   5.432  11.162   8.158 -0.3351  1.5109  1.4278
  610MOL0     O82216   7.809   8.880   9.723 -0.3159 -0.4105  0.4846
  610MOL0     C82217   7.860   8.781   9.779 -0.4143  0.7650  0.1312
  610MOL0     O82218   7.823   8.746   9.907  0.1322  0.9198 -0.4470
  610MOL0     C82219   7.706   8.808   9.945 -0.8195  0.2273 -0.7391
  610MOL0     C82220   7.712   8.907  10.040  0.8036 -1.0490  0.3558
  610MOL0     C82221   7.591   8.944  10.109  0.6177 -1.4049  0.4903
  610MOL0     C82222   7.464   8.890  10.078  0.2619 -0.2582  0.4192
  610MOL0     O82223   7.348   8.946  10.115  0.1329  0.0277 -0.4592
  610MOL0     C82224   7.339   9.067  10.197  0.5974  0.4295 -0.5398
  610MOL0     C82225   7.194   9.101  10.252 -0.4605  0.1886 -0.1684
  610MOL0     C82226   7.080   9.073  10.151  0.3553 -0.5064  0.5745
  610MOL0     C82227   6.940   9.116  10.206 -0.0777  0.1902  0.7035
  610MOL0     C82228   6.836   9.090  10.098  0.2304  0.4615 -0.6081
  610MOL0     C82229   6.695   9.108  10.160 -0.1377  0.1382  0.5168
  610MOL0     C82230   6.589   9.099  10.060 -0.0609  0.2293  0.2233
  610MOL0     C82231   6.456   9.121  10.130 -0.3718 -0.3128  0.1186
  610MOL0     N82232   6.337   9.105  10.043  0.3199  0.2017 -0.1704
  610MOL0     C82233   6.321   9.153   9.915  0.1609  0.9725 -0.6706
  610MOL0     C82234   6.196   9.105   9.877  0.1003 -0.2185  0.2183
  610MOL0     C82235   6.131   9.116   9.746  0.5073 -0.3731  0.1908
  610MOL0     C82236   6.010   9.022   9.728  0.5579 -0.1602 -0.2231
  610MOL0     C82237   6.040   8.871   9.701  0.7672  0.5041  0.1072
  610MOL0     C82238   6.079   8.848   9.549 -0.6799  0.3632 -0.2280
  610MOL0     O82239   6.139   8.713   9.551 -0.2038 -0.6276  0.1257
  610MOL0     C82240   6.052   8.612   9.515 -0.3847  0.3620 -0.6903
  610MOL0     C82241   6.010   8.593   9.389 -0.4559 -0.7277  1.0372
  610MOL0     C82242   5.941   8.478   9.352 -0.0614 -0.2434 -0.2267
  610MOL0     C82243   5.888   8.396   9.458 -0.7141  0.6683 -0.8799
  610MOL0     C82244   5.784   8.299   9.424 -1.0500 -0.4998 -0.8093
  610MOL0     O82245   5.714   8.245   9.534  0.7766  0.1978  0.5936
  610MOL0     C82246   5.631   8.143   9.505 -1.0961  0.9344  0.7775
  610MOL0     C82247   5.666   8.004   9.524 -0.2713 -0.9861 -0.0823
  610MOL0     C82248   5.575   7.907   9.483 -0.5850  0.5136  1.1188
  610MOL0     C82249   5.453   7.934   9.406  0.9681  0.2289 -0.6154
  610MOL0     O82250   5.378   7.830   9.353 -0.8310 -0.2397 -0.1669
  610MOL0     C82251   5.302   7.749   9.441 -0.1560  0.0102 -0.1462
  610MOL0     C82252   5.179   7.686   9.386 -0.5409  0.7613  0.5006
  610MOL0     C82253   5.209   7.553   9.305 -1.1846 -0.4855  0.1319
  610MOL0     C82254   5.106   7.444   9.302  0.9672 -0.3065  0.6718
  610MOL0     C82255   5.097   7.380   9.161 -0.3180 -0.5896  0.7354
  610MOL0     C82256   5.052   7.239   9.163  0.0821 -0.7115  0.5361
  610MOL0     C82257   4.894   7.226   9.178  0.3284 -0.7132 -0.7511
  610MOL0     C82258   4.853   7.085   9.177  0.3464 -0.2816 -1.0693
  610MOL0    Cl82259   4.819   7.032   9.343 -0.2391 -0.1025  0.1794
  610MOL0     C82260   5.424   8.067   9.394 -0.1227  0.0302  0.0423
  610MOL0     C82261   5.509   8.163   9.442 -0.0047 -0.5998  0.2120
  610MOL0     O82262   5.777   8.265   9.309  0.3845 -0.4557  0.7825
  610MOL0     C82263   5.934   8.416   9.591 -0.4978 -0.1547  0.1513
  610MOL0     C82264   6.034   8.513   9.606  0.2158  0.1416  0.2399
  610MOL0     N82265   6.156   9.025   9.985  0.0791  0.1569  0.4194
  610MOL0     N82266   6.231   9.032  10.083  0.1850  0.2845  0.9781
  610MOL0     C82267   7.465   8.791   9.982 -0.8508 -0.2997  0.2041
  610MOL0     C82268   7.586   8.745   9.912 -1.1009  0.0467 -0.2691
  610MOL0     C82269   7.964   8.693   9.710 -0.6932  0.3487  0.6016
  610MOL0     C82270   7.994   8.564   9.768 -0.2883 -0.9125  0.4680
  610MOL0     C82271   8.091   8.486   9.713 -0.0091 -0.1178  0.0565
  610MOL0     C82272   8.169   8.520   9.605  0.6250 -0.5930  0.5200
  610MOL0     O82273   8.273   8.437   9.572  0.2679 -0.0851  0.3583
  610MOL0     C82274   8.366   8.454   9.458  0.3542 -0.6556 -0.2659
  610MOL0     C82275   8.496   8.538   9.510  0.6181 -0.2694 -0.0923
  610MOL0     C82276   8.626   8.498   9.441  0.3913 -0.2745  1.0560
  610MOL0     C82277   8.754   8.545   9.513 -0.0818 -1.6679  0.7941
  610MOL0     C82278   8.870   8.456   9.493  0.3947  0.1673  0.1637
  610MOL0     C82279   8.963   8.379   9.485 -0.1447 -0.2824  0.1726
  610MOL0     C82280   8.144   8.648   9.550 -0.5875  0.1617  0.7131
  610MOL0     C82281   8.042   8.732   9.595  0.4152  0.0666  0.2455
  610MOL0     C82282   8.033   8.872   9.532 -0.3795  0.7013 -0.4297
  610MOL0     H82283   7.808   8.944  10.074 -0.3870  1.4638  1.1981
  610MOL0     H82284   7.586   9.028  10.177  0.0039 -0.2148 -0.9748
  610MOL0     H82285   7.405   9.068  10.284  1.4340  0.7306 -1.1669
  610MOL0     H82286   7.366   9.153  10.135  2.4060 -0.4171 -0.9777
  610MOL0     H82287   7.187   9.206  10.280 -1.2282  0.2269 -0.4577
  610MOL0     H82288   7.155   9.038  10.332 -2.0341  1.8163  0.4164
  610MOL0     H82289   7.087   8.967  10.124 -0.8361  0.4888 -4.5334
  610MOL0     H82290   7.108   9.134  10.065 -1.4156  0.2886  0.5288
  610MOL0     H82291   6.921   9.047  10.288 -2.4853  1.8913  1.7083
  610MOL0     H82292   6.942   9.216  10.250  1.1272  1.0110 -1.1244
  610MOL0     H82293   6.847   9.165  10.018 -5.0643  0.6394 -1.5662
  610MOL0     H82294   6.856   8.993  10.052 -0.0036 -0.3484  0.9625
  610MOL0     H82295   6.687   9.043  10.248  0.3546  0.7821  1.0432
  610MOL0     H82296   6.682   9.208  10.202  0.1295 -1.1357  3.9886
  610MOL0     H82297   6.593   8.995  10.027  0.9179  0.1221  0.6215
  610MOL0     H82298   6.602   9.154   9.967 -3.7131 -2.4790 -2.1426
  610MOL0     H82299   6.459   9.040  10.204  1.0864  1.5293  2.2218
  610MOL0     H82300   6.446   9.213  10.190 -1.7740  0.3830 -1.1255
  610MOL0     H82301   6.394   9.214   9.861 -0.9007  2.9578  0.0226
  610MOL0     H82302   6.102   9.222   9.747 -0.8599 -0.4982  5.9686
  610MOL0     H82303   6.196   9.111   9.658 -0.2124 -0.5803 -0.3310
  610MOL0     H82304   5.955   9.032   9.822  2.9099 -2.1268  1.4853
  610MOL0     H82305   5.942   9.064   9.653  2.2033  1.3907 -0.9298
  610MOL0     H82306   5.941   8.829   9.716 -0.4854  2.9076 -0.9213
  610MOL0     H82307   6.112   8.826   9.771 -0.9457 -0.5566  1.2760
  610MOL0     H82308   6.161   8.912   9.517 -0.7864  0.7171  0.1949
  610MOL0     H82309   6.001   8.861   9.474 -0.4295 -0.1495 -0.5826
  610MOL0     H82310   6.028   8.680   9.327 -1.5211 -1.3676 -0.2342
  610MOL0     H82311   5.910   8.458   9.250 -0.1486  1.5096 -0.5748
  610MOL0     H82312   5.753   7.983   9.586 -1.2371 -0.5441  1.4896
  610MOL0     H82313   5.608   7.805   9.499  0.5091  0.3539 -1.5632
  610MOL0     H82314   5.377   7.677   9.477  1.1512  0.7050 -1.3804
  610MOL0     H82315   5.284   7.808   9.532  1.7979  1.4349 -0.6067
  610MOL0     H82316   5.109   7.669   9.468  0.1425  3.8837  1.9170
  610MOL0     H82317   5.136   7.760   9.318  1.8465 -0.3780 -2.5035
  610MOL0     H82318   5.239   7.579   9.203 -0.5067  0.4648  0.5607
  610MOL0     H82319   5.295   7.509   9.355 -1.9434 -0.9377  1.0780
  610MOL0     H82320   5.013   7.487   9.341 -0.7644 -4.1775  1.2783
  610MOL0     H82321   5.140   7.366   9.371  1.7642 -3.2085 -2.6993
  610MOL0     H82322   5.194   7.378   9.110 -0.0386  0.5391  1.1924
  610MOL0     H82323   5.025   7.434   9.100  0.6936 -1.7006 -1.5658
  610MOL0     H82324   5.076   7.197   9.066 -0.0273  2.5534 -1.0520
  610MOL0     H82325   5.105   7.173   9.232  2.5390 -1.6407 -2.0451
  610MOL0     H82326   4.853   7.276   9.090 -1.0180  1.3650  0.9427
  610MOL0     H82327   4.852   7.284   9.261  0.5965  1.1790 -1.8727
  610MOL0     H82328   4.763   7.071   9.117  2.0117 -0.6298 -3.6642
  610MOL0     H82329   4.939   7.033   9.134  3.0764  1.3660  1.9392
  610MOL0     H82330   5.331   8.086   9.342 -0.5388 -3.1741 -0.6226
  610MOL0     H82331   5.501   8.271   9.430  2.5407 -0.3703 -0.1159
  610MOL0     H82332   5.888   8.359   9.671 -1.0371 -0.2639 -0.2272
  610MOL0     H82333   6.083   8.522   9.702  2.2690 -0.6298 -0.6825
  610MOL0     H82334   7.368   8.748   9.962  0.3344 -2.9397 -0.3944
  610MOL0     H82335   7.575   8.672   9.832  2.0681  2.5508 -3.2858
  610MOL0     H82336   7.931   8.524   9.847 -3.3993  1.9507 -0.3308
  610MOL0     H82337   8.099   8.384   9.751 -5.3304 -1.1681 -0.8584
  610MOL0     H82338   8.319   8.524   9.388  0.1953  1.7962  2.1195
  610MOL0     H82339   8.408   8.365   9.411  2.4906  0.3859 -0.4292
  610MOL0     H82340   8.501   8.515   9.617 -2.7167  2.1750  0.7400
  610MOL0     H82341   8.471   8.644   9.515 -0.4363 -0.4636 -0.8749
  610MOL0     H82342   8.632   8.535   9.338  0.2162  0.1518  1.1915
  610MOL0     H82343   8.626   8.389   9.447 -0.4271 -0.2189  2.5471
  610MOL0     H82344   8.779   8.646   9.479  0.3125 -1.3010  2.1197
  610MOL0     H82345   8.738   8.557   9.621  2.3634 -1.1219  1.1425
  610MOL0     H82346   9.043   8.310   9.472  0.1945 -0.4628  2.6997
  610MOL0     H82347   8.225   8.683   9.487  0.1894 -1.1760  0.9253
  610MOL0     H82348   7.933   8.883   9.490  0.2921  0.9602 -1.9946
  610MOL0     H82349   8.052   8.940   9.616  0.6028 -0.1501  0.0624
  610MOL0     H82350   8.110   8.890   9.457 -0.4340 -2.2872 -1.3471
  611MOL0     O82351   7.916   9.057   9.221 -0.0874 -0.1074 -0.4149
  611MOL0     C82352   7.907   9.176   9.216 -0.5055  0.5261 -0.7716
  611MOL0     O82353   7.945   9.247   9.105 -0.3562  0.0497  0.0782
  611MOL0     C82354   7.978   9.190   8.988 -0.3134 -0.7884  0.5857
  611MOL0     C82355   8.099   9.128   8.966  0.0325  0.2717  0.7228
  611MOL0     C82356   8.126   9.065   8.838  0.2587 -0.6829  0.0864
  611MOL0     C82357   8.036   9.066   8.742  0.2194 -0.2480 -0.0411
  611MOL0     O82358   8.068   9.037   8.614  0.3205 -0.8320 -0.2619
  611MOL0     C82359   7.966   8.977   8.539  0.3517  0.0342  0.3364
  611MOL0     C82360   8.022   8.910   8.418 -0.0588 -0.7956  0.4060
  611MOL0     C82361   8.103   9.009   8.331  0.1748 -0.0266  0.4912
  611MOL0     C82362   8.158   8.951   8.197  0.2000  0.1480 -0.8269
  611MOL0     C82363   8.246   9.053   8.127  0.7895 -0.1144  0.2445
  611MOL0     C82364   8.372   8.979   8.074  0.7383 -0.1091 -0.2731
  611MOL0     C82365   8.477   9.076   8.003 -0.2098 -0.8109  0.0857
  611MOL0     C82366   8.569   9.152   8.092  0.1283 -0.6880 -0.2310
  611MOL0     N82367   8.667   9.228   8.015  0.1079  0.1572  0.8492
  611MOL0     C82368   8.772   9.175   7.938  0.8912  0.3280  0.8264
  611MOL0     C82369   8.863   9.274   7.912  0.3180 -0.4916  0.7342
  611MOL0     C82370   8.980   9.285   7.821  0.1351  0.2642  1.0530
  611MOL0     C82371   8.953   9.272   7.669 -0.4182  0.2667 -0.4267
  611MOL0     C82372   9.045   9.346   7.575 -0.6445  0.3946 -1.1179
  611MOL0     C82373   9.016   9.331   7.429  0.1146 -0.0735  1.1620
  611MOL0     O82374   9.079   9.217   7.376  0.0055 -1.1523 -0.6561
  611MOL0     C82375   9.038   9.187   7.244 -0.1338  0.1372 -0.1387
  611MOL0     C82376   9.066   9.058   7.200  0.5926  0.2487  0.1521
  611MOL0     C82377   9.021   9.009   7.078  0.2650 -0.2238 -0.2511
  611MOL0     C82378   8.933   9.086   6.991 -0.1910  1.1649  0.3715
  611MOL0     C82379   8.881   9.032   6.862  0.0254  0.5888  0.1800
  611MOL0     O82380   8.834   9.124   6.778 -0.3200  0.3474 -0.4517
  611MOL0     C82381   8.777   9.085   6.654 -0.0272  0.3228 -0.0830
  611MOL0     C82382   8.669   9.003   6.629  0.0799  0.0810  0.1197
  611MOL0     C82383   8.629   8.968   6.501 -0.3847 -0.1163  0.0051
  611MOL0     C82384   8.689   9.017   6.388  0.3068 -0.4861  0.0790
  611MOL0     O82385   8.648   8.995   6.259 -0.2899  0.0505  0.3546
  611MOL0     C82386   8.526   8.918   6.234  0.1794 -0.2490  0.4891
  611MOL0     C82387   8.508   8.904   6.085 -0.5968  0.1482  1.0085
  611MOL0     C82388   8.455   8.772   6.050 -0.4932  0.8020 -0.0222
  611MOL0     C82389   8.314   8.737   6.113 -1.0260 -0.2920  0.0929
  611MOL0     C82390   8.242   8.666   6.010 -0.0412 -0.2667  0.4779
  611MOL0     C82391   8.097   8.649   6.047 -0.5213  0.0910  0.0560
  611MOL0     C82392   8.023   8.539   5.963  0.7709 -1.0423 -1.3539
  611MOL0     C82393   8.093   8.404   5.975 -0.6757 -0.1623  0.1993
  611MOL0    Cl82394   8.108   8.349   6.150 -0.2737 -0.1063 -0.4213
  611MOL0     C82395   8.791   9.113   6.411  1.3186 -0.4007  0.6215
  611MOL0     C82396   8.839   9.142   6.543  0.6830  0.2473  0.6179
  611MOL0     O82397   8.894   8.915   6.831 -0.5660 -0.4300  0.1090
  611MOL0     C82398   8.908   9.218   7.029  0.4139  0.5453 -0.0476
  611MOL0     C82399   8.955   9.270   7.153  0.0429 -0.2927 -0.7684
  611MOL0     N82400   8.802   9.387   7.980  0.4458  0.3546  0.2600
  611MOL0     N82401   8.687   9.360   8.026 -1.8136  0.3346  0.2414
  611MOL0     C82402   7.908   9.128   8.771 -1.2331  0.8693  0.9436
  611MOL0     C82403   7.881   9.197   8.890 -0.3128 -0.2977 -0.2905
  611MOL0     C82404   7.856   9.249   9.338  0.0093  0.2977 -0.1204
  611MOL0     C82405   7.792   9.176   9.435 -0.3038 -0.0911 -0.5214
  611MOL0     C82406   7.734   9.222   9.553  0.5879 -0.5810  0.0323
  611MOL0     C82407   7.739   9.360   9.577  0.8181  0.6941  1.4334
  611MOL0     O82408   7.686   9.405   9.698  0.3647  0.3728 -0.0500
  611MOL0     C82409   7.724   9.536   9.753  0.9133  0.5456  0.3605
  611MOL0     C82410   7.848   9.528   9.839  0.1399  0.3986 -0.0186
  611MOL0     C82411   7.814   9.479   9.982  0.5803  0.4755 -0.4120
  611MOL0     C82412   7.743   9.339   9.991  0.0758 -0.7883 -0.0442
  611MOL0     C82413   7.748   9.270  10.125  0.7674 -0.0660  0.1651
  611MOL0     C82414   7.766   9.204  10.225  0.9390 -0.4662 -0.0663
  611MOL0     C82415   7.805   9.434   9.482 -0.2230  0.0378 -0.0180
  611MOL0     C82416   7.856   9.385   9.365 -0.8899 -0.0681  0.2991
  611MOL0     C82417   7.921   9.488   9.260  0.6097 -0.4877 -0.6685
  611MOL0     H82418   8.171   9.140   9.046  2.3915  3.6565 -1.6282
  611MOL0     H82419   8.231   9.046   8.818  0.0731 -2.2470  0.5077
  611MOL0     H82420   7.919   8.912   8.614  0.7236  1.9531  2.3169
  611MOL0     H82421   7.884   9.038   8.502 -1.0040 -2.6476 -1.4675
  611MOL0     H82422   7.940   8.878   8.353  0.6480  1.6361 -1.8635
  611MOL0     H82423   8.076   8.821   8.452  0.2414 -0.0589  1.9278
  611MOL0     H82424   8.189   9.041   8.390  1.6020 -2.5369 -0.0595
  611MOL0     H82425   8.051   9.100   8.300  1.6631  0.3088 -1.1333
  611MOL0     H82426   8.203   8.852   8.209 -2.3265 -1.3527 -2.6585
  611MOL0     H82427   8.067   8.928   8.140 -1.2208 -3.4746  2.4245
  611MOL0     H82428   8.189   9.108   8.052  0.0248  0.0019  0.9045
  611MOL0     H82429   8.262   9.144   8.186  0.6948  0.6338 -0.8310
  611MOL0     H82430   8.434   8.910   8.132 -0.5698 -0.6607  0.5071
  611MOL0     H82431   8.328   8.921   7.992 -1.7614  1.6409 -0.2802
  611MOL0     H82432   8.409   9.146   7.954 -1.2363 -1.7695  0.1274
  611MOL0     H82433   8.525   9.012   7.929 -1.5325 -3.5656  1.4682
  611MOL0     H82434   8.518   9.219   8.163 -1.8922  0.9261 -2.9929
  611MOL0     H82435   8.616   9.081   8.159  0.8113  1.1106  1.2957
  611MOL0     H82436   8.783   9.076   7.896  6.2333  1.0876 -0.2441
  611MOL0     H82437   9.018   9.387   7.830  0.5160  0.2477 -0.2468
  611MOL0     H82438   9.067   9.229   7.856  2.3288  0.9996 -2.6833
  611MOL0     H82439   8.957   9.168   7.636 -1.6697  0.1975 -0.4173
  611MOL0     H82440   8.849   9.301   7.650 -1.1927 -1.8887  0.1798
  611MOL0     H82441   9.145   9.306   7.596 -1.6418 -2.3102 -1.0889
  611MOL0     H82442   9.047   9.454   7.595  2.1302  0.4121 -1.0834
  611MOL0     H82443   9.028   9.424   7.372 -2.1859 -0.3237  0.1332
  611MOL0     H82444   8.909   9.315   7.416  0.4388  0.1650 -3.1643
  611MOL0     H82445   9.130   8.999   7.266  2.4840  3.3770  1.3459
  611MOL0     H82446   9.053   8.910   7.048 -0.2905 -0.0445 -1.5032
  611MOL0     H82447   8.614   8.959   6.712  1.3637 -0.1578  0.8789
  611MOL0     H82448   8.547   8.898   6.487 -1.5179  1.4037 -1.3106
  611MOL0     H82449   8.556   8.822   6.278  1.5447  0.0286  0.1979
  611MOL0     H82450   8.432   8.963   6.268 -0.6605  0.4208 -2.4285
  611MOL0     H82451   8.435   8.984   6.065  1.3644  2.1640  1.5564
  611MOL0     H82452   8.598   8.930   6.029 -1.4091  4.1951  1.2596
  611MOL0     H82453   8.456   8.756   5.942  1.1993  2.0746 -0.2333
  611MOL0     H82454   8.537   8.708   6.083 -0.4010  1.0133  0.1607
  611MOL0     H82455   8.264   8.821   6.163 -1.0922 -1.8428  2.8413
  611MOL0     H82456   8.325   8.658   6.188 -1.0550 -0.7657 -0.3992
  611MOL0     H82457   8.294   8.570   5.999 -1.5457 -0.9850 -0.9056
  611MOL0     H82458   8.254   8.716   5.914  0.6935  0.0332  0.7235
  611MOL0     H82459   8.090   8.629   6.154  2.0791  2.5869  0.8154
  611MOL0     H82460   8.049   8.747   6.035  1.0088  0.7838 -0.7051
  611MOL0     H82461   8.014   8.568   5.857 -0.8106 -0.1300 -1.0023
  611MOL0     H82462   7.924   8.522   6.006  0.7299  0.6645 -0.6941
  611MOL0     H82463   8.043   8.329   5.913  0.2526  1.0198 -2.1159
  611MOL0     H82464   8.186   8.405   5.918 -0.1180 -2.6974  0.9650
  611MOL0     H82465   8.835   9.146   6.317 -2.0502  0.5939 -0.7699
  611MOL0     H82466   8.938   9.184   6.555  1.0193 -0.2909 -0.2383
  611MOL0     H82467   8.847   9.272   6.957  1.3667 -1.5949 -2.6136
  611MOL0     H82468   8.926   9.365   7.196  1.3575 -1.3520  2.8263
  611MOL0     H82469   7.833   9.132   8.693 -0.5652 -0.2790  0.2119
  611MOL0     H82470   7.789   9.254   8.904 -0.4985 -1.2521  3.0904
  611MOL0     H82471   7.774   9.072   9.412  2.0289 -0.7468  0.2943
  611MOL0     H82472   7.703   9.159   9.636  1.7180 -1.1719  0.0289
  611MOL0     H82473   7.640   9.576   9.810 -0.3715 -1.1404 -0.2618
  611MOL0     H82474   7.743   9.618   9.682 -1.6883  2.7371  2.0141
  611MOL0     H82475   7.884   9.632   9.840 -0.2701  0.5480  1.5167
  611MOL0     H82476   7.925   9.468   9.789  0.6940  1.5999 -0.6746
  611MOL0     H82477   7.754   9.554  10.034  1.5832  2.0300 -1.4373
  611MOL0     H82478   7.910   9.466  10.034  2.1764  1.1092 -3.0608
  611MOL0     H82479   7.635   9.351   9.975  0.4612  0.1877 -2.3762
  611MOL0     H82480   7.788   9.270   9.919  0.1130 -1.9722  1.0825
  611MOL0     H82481   7.792   9.152  10.315  2.6553  1.0250  0.3454
  611MOL0     H82482   7.812   9.540   9.502  0.6067 -0.1583  0.8257
  611MOL0     H82483   7.932   9.584   9.309 -0.2654 -0.1069 -1.1891
  611MOL0     H82484   8.020   9.458   9.225  0.3126 -0.7677 -1.2898
  611MOL0     H82485   7.850   9.497   9.177  0.4171  0.9953 -0.3585
  612MOL0     O82486   2.175  10.024   9.389  1.2413 -0.2301 -0.1196
  612MOL0     C82487   2.067  10.078   9.419 -0.7776 -0.2746 -1.1254
  612MOL0     O82488   2.008  10.181   9.358 -0.4325  0.3884 -1.1043
  612MOL0     C82489   2.055  10.204   9.233 -0.1762 -0.1100  0.0431
  612MOL0     C82490   1.978  10.174   9.123  0.5109 -0.2108  0.6258
  612MOL0     C82491   2.019  10.209   8.998 -0.1145 -1.4261  0.7105
  612MOL0     C82492   2.145  10.269   8.972  1.3686 -0.0273  0.0587
  612MOL0     O82493   2.184  10.312   8.855 -0.1036 -0.2311  0.1087
  612MOL0     C82494   2.330  10.296   8.821  0.3336  0.4400 -1.0676
  612MOL0     C82495   2.333  10.302   8.672 -0.3529  0.2663  0.2157
  612MOL0     C82496   2.226  10.210   8.614  0.3675  1.0354 -0.1758
  612MOL0     C82497   2.247  10.189   8.469 -0.1510 -0.0917  0.1279
  612MOL0     C82498   2.149  10.082   8.428  0.2193 -0.1838 -0.4666
  612MOL0     C82499   2.008  10.149   8.414  0.1122 -0.3727  1.3836
  612MOL0     C82500   1.916  10.095   8.525 -0.5286 -0.1990 -0.6649
  612MOL0     C82501   1.775  10.152   8.514  0.1034 -0.1798 -0.2678
  612MOL0     N82502   1.773  10.299   8.514  0.1924  0.2185 -0.5051
  612MOL0     C82503   1.855  10.374   8.601 -0.0600  0.2483 -0.3274
  612MOL0     C82504   1.850  10.503   8.561  0.6025  0.3887  0.4765
  612MOL0     C82505   1.908  10.626   8.623  1.0803 -0.1312 -0.3594
  612MOL0     C82506   2.044  10.620   8.700  0.2291  0.1359  0.4739
  612MOL0     C82507   2.025  10.596   8.846  0.6019 -1.1601  0.3787
  612MOL0     C82508   1.982  10.719   8.920  0.3981  0.5155 -0.1306
  612MOL0     O82509   1.949  10.697   9.053 -0.4190  0.8204  0.3047
  612MOL0     C82510   1.841  10.626   9.113 -0.0592 -0.2029  0.9799
  612MOL0     C82511   1.855  10.521   9.203 -0.2111  0.3113  1.1412
  612MOL0     C82512   1.745  10.441   9.236  0.1463  0.5531  0.0193
  612MOL0     C82513   1.613  10.450   9.181 -0.3160 -0.6460 -0.2399
  612MOL0     C82514   1.503  10.349   9.199 -0.9031 -0.3189  0.7420
  612MOL0     O82515   1.383  10.389   9.162  0.4368  0.5862 -0.4309
  612MOL0     C82516   1.292  10.286   9.144  0.8915  0.1746  0.4115
  612MOL0     C82517   1.293  10.227   9.016  0.4139 -0.3896  1.3613
  612MOL0     C82518   1.182  10.155   8.971 -0.1905 -0.1152  0.4763
  612MOL0     C82519   1.074  10.133   9.042 -1.7497 -0.1075  0.5320
  612MOL0     O82520   0.979  10.055   8.984  0.1989 -0.0794  0.3552
  612MOL0     C82521   0.855  10.028   9.054 -0.2200 -0.5337 -1.6657
  612MOL0     C82522   0.770   9.914   8.989  0.1409  0.0337  0.2194
  612MOL0     C82523   0.801   9.894   8.848  0.5147  0.3258  0.2409
  612MOL0     C82524   0.708   9.779   8.796  0.3037  1.1563 -0.3473
  612MOL0     C82525   0.748   9.728   8.653  0.3791 -0.4321 -0.3701
  612MOL0     C82526   0.644   9.629   8.592  1.1498  0.4277 -0.3676
  612MOL0     C82527   0.686   9.594   8.456  0.5514 -0.7024  0.4528
  612MOL0     C82528   0.614   9.483   8.380 -0.0872 -0.6792  0.5377
  612MOL0    Cl82529   0.442   9.533   8.386  0.0732 -0.5770  0.0754
  612MOL0     C82530   1.071  10.191   9.177  0.2029 -0.6309  1.3771
  612MOL0     C82531   1.180  10.268   9.220  0.2579 -0.1876 -0.0808
  612MOL0     O82532   1.537  10.230   9.240  0.7587 -0.4038 -0.7986
  612MOL0     C82533   1.613  10.559   9.092  0.4849 -0.1236  0.2139
  612MOL0     C82534   1.716  10.647   9.062 -1.1839  0.8292  0.1939
  612MOL0     N82535   1.777  10.512   8.439  1.1977  0.6059 -0.3828
  612MOL0     N82536   1.721  10.389   8.416 -0.1275  0.8497  0.0506
  612MOL0     C82537   2.231  10.296   9.088 -0.4332 -0.0915  0.2034
  612MOL0     C82538   2.186  10.257   9.224  0.3923  0.1195  0.5874
  612MOL0     C82539   2.029  10.063   9.560  0.0794 -0.8819  0.4893
  612MOL0     C82540   2.130  10.087   9.660 -0.2135 -0.3450  0.0492
  612MOL0     C82541   2.107  10.087   9.799  0.6710  0.2582 -0.4138
  612MOL0     C82542   1.978  10.064   9.846  0.0550 -0.3889 -0.1126
  612MOL0     O82543   1.943  10.082   9.975  0.5672  0.4270 -0.2682
  612MOL0     C82544   2.047  10.051  10.068  0.1327  0.0949 -0.4477
  612MOL0     C82545   1.977  10.006  10.209 -0.1134  0.6870  0.8590
  612MOL0     C82546   1.908  10.126  10.268  0.1163 -1.0194 -0.3430
  612MOL0     C82547   1.861  10.098  10.413 -0.5757  0.5051 -0.1536
  612MOL0     C82548   1.780  10.214  10.459 -0.2871 -0.4983 -0.1571
  612MOL0     C82549   1.707  10.304  10.504 -0.1723 -1.0113 -0.0698
  612MOL0     C82550   1.875  10.032   9.760 -0.3357 -0.0473  0.3355
  612MOL0     C82551   1.900  10.033   9.618 -0.3602 -0.2166  0.0405
  612MOL0     C82552   1.798   9.989   9.520  0.1476 -0.5303 -0.3971
  612MOL0     H82553   1.883  10.124   9.137  0.2631 -0.8030 -2.5689
  612MOL0     H82554   1.947  10.194   8.919 -0.8239  0.6668  0.8814
  612MOL0     H82555   2.391  10.380   8.856  0.4993  0.5392 -1.5899
  612MOL0     H82556   2.378  10.209   8.868  1.7084  1.1137 -1.1488
  612MOL0     H82557   2.436  10.274   8.646 -0.8452 -1.1107 -0.3309
  612MOL0     H82558   2.311  10.399   8.626 -1.8984 -0.2402 -0.1777
  612MOL0     H82559   2.125  10.240   8.643 -0.0384 -1.1314  0.8998
  612MOL0     H82560   2.236  10.108   8.654  0.8197  0.9868 -0.4056
  612MOL0     H82561   2.242  10.282   8.411 -1.6129  0.2311  0.7387
  612MOL0     H82562   2.347  10.149   8.446 -0.4714 -2.2724  2.1759
  612MOL0     H82563   2.172  10.040   8.329  0.6793 -1.1930  0.0559
  612MOL0     H82564   2.144   9.997   8.497  2.9429 -0.5806 -0.6731
  612MOL0     H82565   2.010  10.259   8.419 -2.7297 -0.2152  0.5309
  612MOL0     H82566   1.964  10.120   8.319 -3.7472 -0.7058  3.1201
  612MOL0     H82567   1.962  10.119   8.622  0.4005 -0.0491 -1.1238
  612MOL0     H82568   1.910   9.988   8.502 -1.8422  0.1363 -2.0492
  612MOL0     H82569   1.728  10.105   8.427 -0.5709 -0.8284  0.4326
  612MOL0     H82570   1.721  10.116   8.602  0.7573  1.3121  0.7907
  612MOL0     H82571   1.911  10.341   8.687 -2.0389 -1.2454  0.4622
  612MOL0     H82572   1.904  10.687   8.533 -0.9454 -1.6056 -1.3494
  612MOL0     H82573   1.837  10.660   8.699  3.1016 -0.8440  1.9771
  612MOL0     H82574   2.111  10.544   8.660  0.4845  0.4550  0.2967
  612MOL0     H82575   2.102  10.712   8.691  3.3978 -1.8489 -1.1126
  612MOL0     H82576   2.116  10.581   8.905  1.0980  0.6177  0.1429
  612MOL0     H82577   1.954  10.515   8.864  0.1713 -0.8185  0.2419
  612MOL0     H82578   1.895  10.770   8.878  0.4067  0.4433 -0.2379
  612MOL0     H82579   2.056  10.800   8.913  0.4572  0.8355  3.0110
  612MOL0     H82580   1.950  10.493   9.247 -0.5040  2.4361  3.2733
  612MOL0     H82581   1.746  10.367   9.316 -0.8565  1.2616  0.7263
  612MOL0     H82582   1.388  10.238   8.964  1.8334  0.2028  3.8817
  612MOL0     H82583   1.203  10.131   8.867  3.2886  3.0970  0.2141
  612MOL0     H82584   0.869  10.004   9.160 -1.3462  0.1437 -1.3582
  612MOL0     H82585   0.810  10.127   9.046 -0.8517 -0.8798 -2.5213
  612MOL0     H82586   0.785   9.823   9.049 -1.4566  0.3868  1.2201
  612MOL0     H82587   0.664   9.936   9.002 -0.7624 -3.0240 -1.0346
  612MOL0     H82588   0.792   9.984   8.787 -1.3278 -1.2841 -2.0546
  612MOL0     H82589   0.904   9.857   8.839  1.3792  1.4747  3.7322
  612MOL0     H82590   0.602   9.805   8.786 -0.5651 -1.0655  1.8050
  612MOL0     H82591   0.713   9.694   8.866  1.9784 -0.1784 -2.0070
  612MOL0     H82592   0.836   9.663   8.652  0.0211 -1.0344  1.4814
  612MOL0     H82593   0.757   9.820   8.595  0.5393 -0.0645  0.2239
  612MOL0     H82594   0.647   9.540   8.657 -1.6958 -1.3301 -2.4179
  612MOL0     H82595   0.542   9.668   8.590  0.1149 -2.0468 -0.0957
  612MOL0     H82596   0.791   9.565   8.457  0.8628  0.0749 -2.1471
  612MOL0     H82597   0.686   9.684   8.394  0.6540 -0.4740  0.7844
  612MOL0     H82598   0.649   9.476   8.277  0.0525 -2.5487  0.6838
  612MOL0     H82599   0.627   9.396   8.444  2.4840 -0.2763  0.6537
  612MOL0     H82600   0.986  10.189   9.244 -0.6940  1.8221  0.4289
  612MOL0     H82601   1.179  10.322   9.314  1.9041 -0.5234  0.1467
  612MOL0     H82602   1.524  10.574   9.031  0.6714 -2.3850 -0.7392
  612MOL0     H82603   1.706  10.731   8.994  1.1927  1.0174 -0.0056
  612MOL0     H82604   2.310  10.370   9.079 -1.0968  0.8100  1.4729
  612MOL0     H82605   2.256  10.272   9.306  0.1964 -0.5854  0.8883
  612MOL0     H82606   2.230  10.121   9.635 -1.4413  2.5789 -1.4433
  612MOL0     H82607   2.185  10.124   9.865 -0.0423  2.4169 -0.7030
  612MOL0     H82608   2.106  10.138  10.096 -1.9788  1.0840  1.2474
  612MOL0     H82609   2.114   9.967  10.049 -0.8654 -0.9055  0.3188
  612MOL0     H82610   2.046   9.962  10.282 -1.9507 -1.9211  1.1547
  612MOL0     H82611   1.898   9.934  10.186  0.6942  0.6027 -2.0510
  612MOL0     H82612   1.813  10.144  10.217 -0.1127 -1.5447 -0.1058
  612MOL0     H82613   1.972  10.214  10.269 -0.5322 -0.4785  2.5471
  612MOL0     H82614   1.801  10.006  10.415 -3.1046  2.0396 -1.2268
  612MOL0     H82615   1.948  10.084  10.477  0.0706 -1.0008 -1.2812
  612MOL0     H82616   1.640  10.385  10.529 -1.5103 -2.0818 -0.0658
  612MOL0     H82617   1.772  10.037   9.794 -0.3103  2.4056  0.2349
  612MOL0     H82618   1.707  10.048   9.534  1.8089  2.2070 -0.5741
  612MOL0     H82619   1.830  10.009   9.418 -0.8525  1.5328 -0.3521
  612MOL0     H82620   1.790   9.881   9.540 -2.1613 -0.4769 -0.7793
  613MOL0     O82621   2.968  10.484   8.480  0.2584  0.0336 -0.6276
  613MOL0     C82622   2.864  10.519   8.430 -0.6649  0.9136  0.5994
  613MOL0     O82623   2.837  10.497   8.292 -0.0042  0.5203  0.4660
  613MOL0     C82624   2.913  10.409   8.217  1.0772 -0.1765 -0.8120
  613MOL0     C82625   2.954  10.434   8.086 -0.6090 -1.1571  0.3209
  613MOL0     C82626   2.976  10.330   7.992 -0.6482 -0.3240  0.3130
  613MOL0     C82627   2.979  10.202   8.035 -1.0598  0.4634  0.1142
  613MOL0     O82628   3.013  10.113   7.933 -0.4698  0.6638  0.3589
  613MOL0     C82629   2.996   9.974   7.969 -0.4477 -1.1830 -0.4448
  613MOL0     C82630   3.126   9.917   8.033 -0.3807  0.3085 -0.1120
  613MOL0     C82631   3.235   9.910   7.917 -0.4472  0.4056 -0.3117
  613MOL0     C82632   3.367   9.859   7.975  0.9497 -0.2783 -0.1049
  613MOL0     C82633   3.380   9.714   7.934 -0.7118 -0.6690  0.5068
  613MOL0     C82634   3.498   9.641   7.995 -0.9379 -0.1542  0.3354
  613MOL0     C82635   3.516   9.501   7.957 -0.1432  0.4624  0.5735
  613MOL0     C82636   3.664   9.455   7.981  1.1268 -0.6196 -0.0652
  613MOL0     N82637   3.690   9.322   7.934 -0.5515  0.5299 -0.0780
  613MOL0     C82638   3.599   9.247   7.853 -0.2751 -0.3111 -0.0696
  613MOL0     C82639   3.677   9.135   7.831 -0.5890 -1.0269  0.1935
  613MOL0     C82640   3.623   9.018   7.758  0.1766  0.1032  0.6971
  613MOL0     C82641   3.717   8.895   7.769  0.5660 -0.9086  0.4264
  613MOL0     C82642   3.690   8.798   7.884 -0.3614 -0.1140 -0.3037
  613MOL0     C82643   3.572   8.703   7.869  1.0040  1.0668  1.0809
  613MOL0     O82644   3.554   8.644   7.738  1.1620 -0.2052  0.0789
  613MOL0     C82645   3.645   8.559   7.677  0.4007  0.5728  0.3456
  613MOL0     C82646   3.677   8.571   7.543  0.8073  1.2051  0.1941
  613MOL0     C82647   3.782   8.485   7.490 -0.0847 -0.5242  0.8989
  613MOL0     C82648   3.832   8.378   7.565 -0.7412 -0.4431  0.5070
  613MOL0     C82649   3.922   8.274   7.495  0.6287 -0.0087  0.2644
  613MOL0     O82650   3.971   8.173   7.564 -0.2037 -1.8228  0.1987
  613MOL0     C82651   4.079   8.110   7.505 -0.1158  0.8526 -0.2328
  613MOL0     C82652   4.076   7.973   7.517  0.3821  0.3378  0.0055
  613MOL0     C82653   4.177   7.900   7.447 -0.0387 -0.3481 -0.8939
  613MOL0     C82654   4.290   7.967   7.394 -0.5776  0.2463  0.7964
  613MOL0     O82655   4.369   7.869   7.342  0.4544  0.0735 -0.1011
  613MOL0     C82656   4.498   7.922   7.293 -0.4248  0.3168  0.6268
  613MOL0     C82657   4.599   7.806   7.276 -0.6736 -0.6105 -0.1146
  613MOL0     C82658   4.684   7.774   7.396  0.6830  0.4360  0.8268
  613MOL0     C82659   4.589   7.720   7.501 -0.1627 -0.6420  0.5896
  613MOL0     C82660   4.658   7.722   7.642  0.9734  0.6380  0.8691
  613MOL0     C82661   4.702   7.577   7.686 -0.3391  0.0912  0.5406
  613MOL0     C82662   4.821   7.589   7.774 -0.6341  0.7606  0.1165
  613MOL0     C82663   4.867   7.451   7.838 -0.1158 -0.8104 -0.0648
  613MOL0    Cl82664   4.995   7.492   7.955 -0.5330  0.3777 -0.2443
  613MOL0     C82665   4.293   8.110   7.384  0.0855  0.0512  0.0788
  613MOL0     C82666   4.182   8.177   7.436  0.6027  0.7417  0.2311
  613MOL0     O82667   3.934   8.293   7.368  0.0587 -0.4927  0.1411
  613MOL0     C82668   3.798   8.370   7.696 -0.4536 -0.7759 -0.3744
  613MOL0     C82669   3.713   8.465   7.758  0.0805 -0.3592 -0.1741
  613MOL0     N82670   3.803   9.160   7.880 -0.1294  0.9277 -0.2244
  613MOL0     N82671   3.820   9.265   7.933 -0.3190  0.5058  0.2180
  613MOL0     C82672   2.969  10.169   8.174  0.9649 -0.2695 -0.4657
  613MOL0     C82673   2.932  10.276   8.265 -0.2319 -0.2945 -0.6608
  613MOL0     C82674   2.763  10.568   8.528  0.1576 -0.2515 -0.5851
  613MOL0     C82675   2.625  10.576   8.487 -0.7410  0.7222  0.1121
  613MOL0     C82676   2.534  10.633   8.570  0.1571 -0.2058  0.6372
  613MOL0     C82677   2.574  10.691   8.690 -0.5802  0.2393  0.6071
  613MOL0     O82678   2.475  10.753   8.760 -0.5731 -0.6520  0.0621
  613MOL0     C82679   2.489  10.746   8.907  0.0113 -1.0307  0.5662
  613MOL0     C82680   2.357  10.785   8.973 -0.4806  0.1512 -0.6665
  613MOL0     C82681   2.358  10.758   9.122  0.5176 -0.6316  0.5162
  613MOL0     C82682   2.361  10.885   9.192 -0.5276 -0.3490 -0.0451
  613MOL0     C82683   2.488  10.955   9.191 -0.6046 -0.3548  0.4159
  613MOL0     C82684   2.592  11.013   9.162 -0.1131 -0.1941 -0.7787
  613MOL0     C82685   2.703  10.686   8.735  0.1436  0.0368  0.3475
  613MOL0     C82686   2.798  10.624   8.654  0.3745 -0.5536  0.4290
  613MOL0     C82687   2.943  10.668   8.696 -0.2004 -0.1334  0.1795
  613MOL0     H82688   2.938  10.540   8.068 -1.6291 -0.1867  5.3541
  613MOL0     H82689   2.980  10.355   7.887 -0.2269  1.2015  0.6680
  613MOL0     H82690   2.915   9.972   8.043  1.0304  4.0766  1.7864
  613MOL0     H82691   2.967   9.921   7.878  2.8304 -1.6493 -1.3264
  613MOL0     H82692   3.115   9.820   8.081 -0.5138  1.4152  2.2546
  613MOL0     H82693   3.147   9.985   8.116 -1.8323  0.6169  0.0243
  613MOL0     H82694   3.253  10.007   7.869  1.8785  1.1833  1.9426
  613MOL0     H82695   3.190   9.838   7.847 -1.9626 -1.0506  2.0320
  613MOL0     H82696   3.446   9.921   7.931  0.3975  0.0486 -0.6420
  613MOL0     H82697   3.367   9.875   8.083 -1.5131 -0.6753  0.0087
  613MOL0     H82698   3.288   9.666   7.968 -1.1055  0.5421  1.2089
  613MOL0     H82699   3.390   9.711   7.825  2.0423 -1.5929  0.7027
  613MOL0     H82700   3.592   9.694   7.974 -0.5499 -1.1107 -0.4255
  613MOL0     H82701   3.488   9.651   8.103 -1.4995  0.2049  0.2549
  613MOL0     H82702   3.495   9.512   7.850  1.8244 -0.2098  0.0865
  613MOL0     H82703   3.443   9.437   8.008  0.0691  0.8130  1.3301
  613MOL0     H82704   3.731   9.522   7.926 -0.0210  0.5329 -0.1081
  613MOL0     H82705   3.696   9.462   8.086  1.5917  3.2025 -0.2969
  613MOL0     H82706   3.494   9.265   7.832  0.1470  1.1958 -1.0635
  613MOL0     H82707   3.526   8.991   7.799 -0.9542 -2.4471 -3.0819
  613MOL0     H82708   3.593   9.048   7.657 -0.6133  3.7839  1.8849
  613MOL0     H82709   3.708   8.845   7.672 -0.9935 -1.7781  0.9790
  613MOL0     H82710   3.819   8.933   7.781  1.9850 -3.9085 -1.0889
  613MOL0     H82711   3.675   8.856   7.975  0.2223 -1.8609  0.9745
  613MOL0     H82712   3.774   8.729   7.901 -1.4412 -1.1484  1.0999
  613MOL0     H82713   3.479   8.758   7.882  0.0271 -0.0220 -0.9325
  613MOL0     H82714   3.565   8.631   7.951 -0.0553 -1.1586 -0.8664
  613MOL0     H82715   3.630   8.655   7.493 -0.2477  0.9599  0.7436
  613MOL0     H82716   3.798   8.499   7.384 -2.3707  2.0324  0.7810
  613MOL0     H82717   4.001   7.913   7.568  1.2154 -0.3641  0.4351
  613MOL0     H82718   4.173   7.792   7.446  0.1524 -0.3517 -1.6705
  613MOL0     H82719   4.466   7.957   7.194 -0.4336  1.5828  1.0617
  613MOL0     H82720   4.530   8.008   7.353 -1.1902  0.6164  0.6231
  613MOL0     H82721   4.536   7.724   7.239 -1.8000  0.2245 -0.1124
  613MOL0     H82722   4.657   7.829   7.186 -1.8395  1.0277 -0.5069
  613MOL0     H82723   4.754   7.694   7.373  0.5198  0.7990 -1.0584
  613MOL0     H82724   4.723   7.867   7.439  0.3625  1.0069 -0.0966
  613MOL0     H82725   4.564   7.615   7.480  2.0164 -1.3115  1.0911
  613MOL0     H82726   4.497   7.777   7.518  1.3310  1.3525  2.5453
  613MOL0     H82727   4.582   7.745   7.717 -1.6240 -0.2708 -1.3013
  613MOL0     H82728   4.735   7.799   7.649  0.6614  1.1412 -0.9224
  613MOL0     H82729   4.628   7.528   7.749  2.3156  0.4714  4.2774
  613MOL0     H82730   4.735   7.512   7.605  1.1933  1.8255 -0.3136
  613MOL0     H82731   4.802   7.661   7.854  0.3437  0.0287  1.0199
  613MOL0     H82732   4.898   7.627   7.706  1.2746 -0.2574  1.6069
  613MOL0     H82733   4.795   7.391   7.895  2.5707 -1.3652  2.9952
  613MOL0     H82734   4.890   7.389   7.751  2.5971 -2.3281  1.6190
  613MOL0     H82735   4.375   8.162   7.336 -0.3113 -0.0698 -0.7637
  613MOL0     H82736   4.183   8.285   7.425  0.5429  0.7399  0.2077
  613MOL0     H82737   3.828   8.289   7.762 -0.3125 -1.6959 -1.5481
  613MOL0     H82738   3.707   8.473   7.866 -0.8259  1.0495 -0.2929
  613MOL0     H82739   2.966  10.069   8.215 -0.9058  0.6648  1.8602
  613MOL0     H82740   2.911  10.254   8.369  1.5840 -0.7956 -0.3622
  613MOL0     H82741   2.592  10.531   8.394 -1.0244 -4.6174  2.4143
  613MOL0     H82742   2.428  10.641   8.545 -0.0068 -3.8970 -0.5480
  613MOL0     H82743   2.562  10.820   8.940 -0.2781 -0.7598  0.6087
  613MOL0     H82744   2.515  10.645   8.941  0.3149 -1.2404 -0.2647
  613MOL0     H82745   2.292  10.716   8.919  0.2227 -2.5176  1.6642
  613MOL0     H82746   2.333  10.889   8.950  1.6461  0.7172 -0.4729
  613MOL0     H82747   2.447  10.702   9.154  0.1680 -0.8459  1.1316
  613MOL0     H82748   2.262  10.709   9.137 -0.4448  0.8539 -0.4893
  613MOL0     H82749   2.290  10.954   9.146 -1.1356  0.5746  2.1527
  613MOL0     H82750   2.331  10.855   9.293  0.9115 -0.3086  0.4192
  613MOL0     H82751   2.666  11.074   9.116  2.8747 -1.4396  2.0323
  613MOL0     H82752   2.735  10.727   8.830  0.0530  0.9400 -0.0031
  613MOL0     H82753   2.986  10.571   8.723 -2.2505 -1.4705 -1.0897
  613MOL0     H82754   2.997  10.713   8.612 -1.1499  1.7131  0.5118
  613MOL0     H82755   2.946  10.747   8.771 -0.7705  0.5223 -0.4733
  614MOL0     O82756  10.783   1.357   0.077  0.0382 -0.2971  0.2140
  614MOL0     C82757  10.670   1.395   0.097  0.6306 -0.1944  0.1174
  614MOL0     O82758  10.605   1.378   0.221  0.1477  0.1233 -0.1345
  614MOL0     C82759  10.661   1.331   0.338  1.0583 -0.6149  0.5953
  614MOL0     C82760  10.795   1.345   0.372 -0.2523  0.9423  0.9811
  614MOL0     C82761  10.852   1.283   0.486  1.0428 -0.7637 -0.9652
  614MOL0     C82762  10.771   1.215   0.577 -0.5589 -0.0653 -0.0908
  614MOL0     O82763  10.842   1.150   0.684  1.6941  0.3317  0.7738
  614MOL0     C82764  10.776   1.045   0.749 -1.4194 -0.6282 -0.0516
  614MOL0     C82765  10.701   1.099   0.868 -0.2451 -0.0260  0.2593
  614MOL0     C82766  10.675   0.992   0.966 -0.2358 -0.9249 -0.2049
  614MOL0     C82767  10.689   1.047   1.109  0.5884 -0.2411 -0.0576
  614MOL0     C82768  10.561   1.143   1.145  0.2716  0.2502  1.2214
  614MOL0     C82769  10.582   1.194   1.289 -0.2546 -0.4702  0.0537
  614MOL0     C82770  10.463   1.264   1.353  0.2875  0.1916  0.1888
  614MOL0     C82771  10.489   1.352   1.467 -0.1718  0.7120 -0.6316
  614MOL0     N82772  10.554   1.483   1.438 -0.1984  1.0102  0.0007
  614MOL0     C82773  10.505   1.581   1.351 -0.3248  0.3957  0.2335
  614MOL0     C82774  10.572   1.690   1.385 -0.8690 -0.1378 -0.3660
  614MOL0     C82775  10.543   1.826   1.330 -0.2578  0.4323 -0.6089
  614MOL0     C82776  10.522   1.945   1.442  0.2524  0.1800  0.0539
  614MOL0     C82777  10.504   2.090   1.390  0.3268 -0.3269  0.2683
  614MOL0     C82778  10.635   2.166   1.346 -0.4440 -0.0457 -0.2306
  614MOL0     O82779  10.703   2.107   1.233  0.0142 -0.1450  0.3672
  614MOL0     C82780  10.843   2.087   1.250  1.3517 -0.1722 -0.1677
  614MOL0     C82781  10.924   2.123   1.138  0.8081  0.1474 -0.7660
  614MOL0     C82782  11.058   2.075   1.139  0.1939  0.0995  0.8054
  614MOL0     C82783  11.103   1.991   1.235 -0.1101 -0.3105  0.2416
  614MOL0     C82784  11.233   1.927   1.217  0.0607 -0.3151  0.0930
  614MOL0     O82785  11.307   1.959   1.099 -0.7066  0.3570  0.1525
  614MOL0     C82786  11.422   1.883   1.082 -0.0857 -0.7480  0.6739
  614MOL0     C82787  11.406   1.753   1.042 -0.6144  0.7306  0.3672
  614MOL0     C82788  11.517   1.676   1.017 -1.4708 -1.2509  0.7036
  614MOL0     C82789  11.652   1.719   1.045  0.1921  0.4610 -0.4357
  614MOL0     O82790  11.752   1.632   1.018 -0.3710  0.1224 -0.3765
  614MOL0     C82791  11.865   1.620   1.115 -0.1340 -0.4055 -0.1500
  614MOL0     C82792  11.970   1.516   1.081  0.1383  0.4455  0.2050
  614MOL0     C82793  11.896   1.382   1.092  0.5638 -1.2004 -0.7417
  614MOL0     C82794  11.990   1.269   1.051  0.0069  0.6302 -1.1250
  614MOL0     C82795  11.931   1.132   1.090  0.9225  0.5341 -0.4437
  614MOL0     C82796  12.026   1.016   1.070 -0.6964  0.5574  0.4750
  614MOL0     C82797  11.972   0.876   1.122 -0.3943  0.0026 -0.4815
  614MOL0     C82798  12.007   0.762   1.025 -0.7885 -0.0579  0.5553
  614MOL0    Cl82799  12.182   0.755   1.000 -0.6175 -0.3766  0.0444
  614MOL0     C82800  11.668   1.850   1.097 -0.2179 -0.1711  0.4341
  614MOL0     C82801  11.553   1.935   1.109  0.3787 -0.4683 -0.1417
  614MOL0     O82802  11.273   1.854   1.317 -0.1664  0.1073 -1.0368
  614MOL0     C82803  11.021   1.959   1.349  0.0339 -0.4260 -0.4039
  614MOL0     C82804  10.896   2.010   1.359  0.0335  0.3186 -0.6637
  614MOL0     N82805  10.669   1.659   1.481 -0.4009 -0.6196  0.4722
  614MOL0     N82806  10.659   1.534   1.508 -0.0055  0.1121 -0.0297
  614MOL0     C82807  10.634   1.211   0.557  0.1566 -0.2014  0.8561
  614MOL0     C82808  10.580   1.260   0.434 -0.3446 -0.2575  0.7695
  614MOL0     C82809  10.590   1.471  -0.006  1.0764  0.3484  0.0892
  614MOL0     C82810  10.450   1.509   0.012 -0.1958 -0.4411  0.0101
  614MOL0     C82811  10.377   1.578  -0.086  0.2837  0.4404 -0.1264
  614MOL0     C82812  10.430   1.591  -0.219 -0.0524 -0.7400 -0.1779
  614MOL0     O82813  10.359   1.650  -0.316 -1.2845  1.0619  0.2356
  614MOL0     C82814  10.423   1.728  -0.420  0.6513  0.3001 -0.2197
  614MOL0     C82815  10.486   1.858  -0.370  0.4291 -0.1899 -0.4460
  614MOL0     C82816  10.385   1.958  -0.315 -0.6378  0.7472 -0.9138
  614MOL0     C82817  10.275   2.000  -0.408 -0.6836 -0.7078  0.5783
  614MOL0     C82818  10.207   2.107  -0.338 -0.1910  0.3717  0.1306
  614MOL0     C82819  10.158   2.198  -0.276 -0.0529  0.1957 -0.2134
  614MOL0     C82820  10.557   1.551  -0.242 -1.2902  0.0315  0.0733
  614MOL0     C82821  10.641   1.498  -0.135 -0.4730 -0.4916 -0.3009
  614MOL0     C82822  10.786   1.475  -0.181 -0.0725  0.7593  1.0032
  614MOL0     H82823  10.862   1.405   0.311 -3.6678  0.0955 -4.2058
  614MOL0     H82824  10.961   1.283   0.485  1.0474 -0.1678 -2.3924
  614MOL0     H82825  10.715   0.987   0.680  1.4375 -1.4187 -2.1346
  614MOL0     H82826  10.858   0.977   0.774 -0.2747 -0.4903 -2.9783
  614MOL0     H82827  10.604   1.134   0.833 -1.0358 -1.3739  1.0155
  614MOL0     H82828  10.755   1.184   0.911  0.7285 -0.0890 -0.7949
  614MOL0     H82829  10.748   0.912   0.954 -0.2698 -0.8946 -0.6227
  614MOL0     H82830  10.576   0.952   0.946 -0.9773  1.4782 -1.8612
  614MOL0     H82831  10.695   0.956   1.170  1.1254  1.6341  2.8712
  614MOL0     H82832  10.787   1.094   1.124  0.6487  0.7905 -2.9778
  614MOL0     H82833  10.562   1.232   1.083  2.5091  0.3827  1.3710
  614MOL0     H82834  10.466   1.088   1.143  0.2030  0.3036  2.1607
  614MOL0     H82835  10.612   1.106   1.348 -1.1872 -1.4789 -0.9215
  614MOL0     H82836  10.660   1.271   1.287 -1.4844  0.8249  0.3196
  614MOL0     H82837  10.408   1.177   1.390  3.0604 -2.0612 -0.6909
  614MOL0     H82838  10.414   1.312   1.267  1.2945  0.2024 -0.3948
  614MOL0     H82839  10.397   1.387   1.514 -0.0165 -0.3289  0.5042
  614MOL0     H82840  10.554   1.304   1.542 -1.1990  3.1257  1.9814
  614MOL0     H82841  10.420   1.560   1.287  0.3672  3.1753 -1.7996
  614MOL0     H82842  10.622   1.850   1.258  0.4323 -2.3790 -0.8921
  614MOL0     H82843  10.452   1.807   1.272 -0.0043 -0.9085 -0.6081
  614MOL0     H82844  10.439   1.913   1.506 -0.4296  1.9037  0.0912
  614MOL0     H82845  10.611   1.949   1.506 -0.3725  0.2267  0.9320
  614MOL0     H82846  10.465   2.146   1.476  0.9072 -2.4013  1.9744
  614MOL0     H82847  10.429   2.091   1.311 -1.1289  3.5556  1.4540
  614MOL0     H82848  10.707   2.177   1.427  0.1743  1.0639 -0.9021
  614MOL0     H82849  10.610   2.266   1.309 -1.9121 -0.0024  0.8040
  614MOL0     H82850  10.883   2.176   1.053  1.6569 -0.5021 -1.6108
  614MOL0     H82851  11.119   2.107   1.055 -2.9126 -1.8090 -2.4305
  614MOL0     H82852  11.309   1.708   1.023  0.2574 -1.9382  1.8289
  614MOL0     H82853  11.502   1.580   0.971 -1.5061 -1.0954  0.3891
  614MOL0     H82854  11.922   1.714   1.116 -0.6171 -0.1001  1.2735
  614MOL0     H82855  11.828   1.601   1.216  0.4055 -4.7173 -0.5856
  614MOL0     H82856  12.002   1.535   0.978  0.3718 -0.8006  0.0324
  614MOL0     H82857  12.049   1.525   1.157  1.0287 -2.6850 -0.2254
  614MOL0     H82858  11.865   1.373   1.196 -1.3095  1.4332 -0.9643
  614MOL0     H82859  11.805   1.387   1.031 -0.1858 -2.1246  0.2663
  614MOL0     H82860  12.082   1.276   1.111  0.8832  0.2715 -2.3924
  614MOL0     H82861  12.026   1.275   0.948  2.5778 -1.8406 -0.5022
  614MOL0     H82862  11.837   1.122   1.035 -1.3199 -1.9459  3.4119
  614MOL0     H82863  11.912   1.152   1.195 -1.6578  1.0755 -0.9613
  614MOL0     H82864  12.066   1.010   0.968  0.2781  0.3762  0.8520
  614MOL0     H82865  12.113   1.022   1.136  0.1567  1.3016 -0.6709
  614MOL0     H82866  11.865   0.895   1.132 -0.4998  0.0645 -1.6727
  614MOL0     H82867  12.030   0.865   1.215  1.6577 -0.1771 -1.7073
  614MOL0     H82868  11.976   0.668   1.073  0.2582  0.2148  1.8304
  614MOL0     H82869  11.944   0.778   0.937 -1.2555 -0.0576  0.8812
  614MOL0     H82870  11.768   1.887   1.118  0.7474 -1.8075 -1.0394
  614MOL0     H82871  11.559   2.040   1.135 -1.0899  0.4193 -2.9547
  614MOL0     H82872  11.063   1.900   1.430  1.0596  2.6780  1.4641
  614MOL0     H82873  10.835   1.984   1.444  0.0291 -0.9895 -1.0311
  614MOL0     H82874  10.561   1.169   0.626 -3.2067  0.2406 -2.0929
  614MOL0     H82875  10.473   1.254   0.418 -0.3206 -0.1036  0.5518
  614MOL0     H82876  10.397   1.492   0.105 -2.2754  0.4166 -0.9568
  614MOL0     H82877  10.274   1.600  -0.062  0.0277 -0.5693 -0.2591
  614MOL0     H82878  10.345   1.767  -0.486  0.2610 -0.0874  0.0117
  614MOL0     H82879  10.501   1.669  -0.469  1.1674 -0.7309  1.7574
  614MOL0     H82880  10.536   1.910  -0.453 -0.9285 -0.3172 -1.3689
  614MOL0     H82881  10.554   1.815  -0.297 -1.9847 -1.9582  0.8930
  614MOL0     H82882  10.435   2.043  -0.267 -0.8418  0.3510  0.0015
  614MOL0     H82883  10.346   1.905  -0.228  2.3083  1.0388  0.7084
  614MOL0     H82884  10.319   2.042  -0.499 -3.1394 -2.4024 -1.5314
  614MOL0     H82885  10.217   1.911  -0.434  0.0294 -1.4508  1.4408
  614MOL0     H82886  10.117   2.294  -0.250 -5.0497 -1.9933  1.3382
  614MOL0     H82887  10.595   1.539  -0.343 -1.8889  3.2460 -0.6396
  614MOL0     H82888  10.862   1.509  -0.109  0.7016  0.9856  0.0975
  614MOL0     H82889  10.802   1.367  -0.182 -0.6499  0.5691  3.6948
  614MOL0     H82890  10.810   1.539  -0.266 -1.2072  1.1447  0.9529
  615MOL0     O82891   3.056  10.609   9.528  0.0140 -0.2940  0.4136
  615MOL0     C82892   3.002  10.705   9.473 -0.2377 -0.2723  0.3127
  615MOL0     O82893   3.002  10.838   9.510 -0.6147  0.0092 -0.0218
  615MOL0     C82894   3.100  10.876   9.593  0.3282  0.1614  0.1369
  615MOL0     C82895   3.126  10.819   9.719  1.1585  0.1043 -0.1502
  615MOL0     C82896   3.240  10.868   9.798  0.3167  0.5719 -0.6029
  615MOL0     C82897   3.314  10.976   9.758  0.4233 -0.7673 -0.3053
  615MOL0     O82898   3.413  11.036   9.833 -0.1790 -0.7451 -0.1350
  615MOL0     C82899   3.475  10.970   9.947 -0.4713  0.4305  0.2766
  615MOL0     C82900   3.596  11.053  10.004 -0.1070 -0.0571 -0.0314
  615MOL0     C82901   3.566  11.192  10.047 -0.7958 -0.6156  0.3274
  615MOL0     C82902   3.462  11.208  10.153 -0.1266 -1.1635 -0.0303
  615MOL0     C82903   3.454  11.358  10.209 -0.5974 -0.4366  0.1225
  615MOL0     C82904   3.575  11.384  10.300 -0.6543 -0.5374 -1.2401
  615MOL0     C82905   3.526  11.480  10.411  0.1494 -0.4177 -0.3877
  615MOL0     C82906   3.615  11.477  10.537 -0.2527  0.2060 -0.4347
  615MOL0     N82907   3.610  11.345  10.603  0.6747 -0.3740 -0.7841
  615MOL0     C82908   3.509  11.279  10.674 -0.4629  0.1975 -0.7364
  615MOL0     C82909   3.548  11.155  10.701 -0.7430 -0.1718  0.2975
  615MOL0     C82910   3.467  11.053  10.778  0.3897 -1.3276  0.0270
  615MOL0     C82911   3.505  10.910  10.762 -0.5738  0.4118  0.3095
  615MOL0     C82912   3.401  10.834  10.835  0.0185 -0.5790 -0.2017
  615MOL0     C82913   3.440  10.689  10.826  0.8746  0.6551  0.0129
  615MOL0     O82914   3.577  10.664  10.855  0.9265  0.2475 -0.0844
  615MOL0     C82915   3.612  10.613  10.978  0.2269 -0.1020  0.3349
  615MOL0     C82916   3.736  10.553  10.990  0.2533 -0.2115 -0.8839
  615MOL0     C82917   3.782  10.514  11.115 -0.4857  0.5622  0.4898
  615MOL0     C82918   3.701  10.526  11.231 -0.4920  0.6952  0.9767
  615MOL0     C82919   3.738  10.469  11.363  1.1836 -0.7402  0.7793
  615MOL0     O82920   3.862  10.409  11.381  0.3016  0.9395  0.8171
  615MOL0     C82921   3.887  10.346  11.503  0.1538 -0.1762 -0.6185
  615MOL0     C82922   3.878  10.392  11.637  0.3897 -0.3783  0.1268
  615MOL0     C82923   3.901  10.304  11.743  0.3220 -0.8292  0.1848
  615MOL0     C82924   3.939  10.168  11.723 -0.8796  0.5526 -0.3650
  615MOL0     O82925   3.958  10.074  11.824  0.5965  0.0383 -0.6899
  615MOL0     C82926   4.102  10.060  11.857  0.6837 -0.6498  0.5217
  615MOL0     C82927   4.134  10.152  11.972  1.7935  0.5914 -0.5147
  615MOL0     C82928   4.272  10.160  12.020  0.3166 -0.1374 -0.3820
  615MOL0     C82929   4.359  10.241  11.930 -0.9334  0.7411  0.7053
  615MOL0     C82930   4.484  10.275  12.005 -0.2916  1.3073  0.0885
  615MOL0     C82931   4.571  10.371  11.925  1.3469  0.2222 -0.6498
  615MOL0     C82932   4.686  10.410  12.011  0.4557  0.0368  0.7928
  615MOL0     C82933   4.797  10.305  12.014  0.3603  0.5486 -0.2100
  615MOL0    Cl82934   4.936  10.398  12.091 -0.1633 -0.0335 -0.0581
  615MOL0     C82935   3.965  10.135  11.603 -0.5036  0.5210  0.2237
  615MOL0     C82936   3.930  10.216  11.486  0.6222  0.1967 -0.2121
  615MOL0     O82937   3.660  10.496  11.454 -0.0525  0.2212  0.2691
  615MOL0     C82938   3.587  10.584  11.215 -0.0015 -0.0004 -0.2401
  615MOL0     C82939   3.539  10.627  11.095 -0.7607 -0.3933 -0.0649
  615MOL0     N82940   3.665  11.136  10.629 -0.5024 -0.1651  0.3508
  615MOL0     N82941   3.702  11.250  10.580  0.2193  0.3939 -0.3010
  615MOL0     C82942   3.289  11.039   9.643  0.7234  1.1497  0.0070
  615MOL0     C82943   3.182  10.983   9.556 -0.2981  0.0446 -1.5593
  615MOL0     C82944   2.923  10.675   9.351  0.3675 -0.1673 -0.6646
  615MOL0     C82945   2.838  10.567   9.361  0.8035 -0.2275 -0.4087
  615MOL0     C82946   2.776  10.514   9.245  0.0930  0.7910  0.5673
  615MOL0     C82947   2.812  10.555   9.114 -0.8903 -0.1079  0.1352
  615MOL0     O82948   2.771  10.511   8.991 -0.0656 -0.0698  0.1475
  615MOL0     C82949   2.706  10.383   8.986  0.0259  0.9917 -1.0624
  615MOL0     C82950   2.688  10.324   8.849  0.2656 -0.3373 -0.0113
  615MOL0     C82951   2.826  10.267   8.809 -0.5753  0.1222  0.6970
  615MOL0     C82952   2.823  10.203   8.662 -0.5027 -0.1851  0.7868
  615MOL0     C82953   2.710  10.118   8.632  0.9496 -0.3729  0.0641
  615MOL0     C82954   2.623  10.047   8.595  0.5233 -0.3068 -0.6521
  615MOL0     C82955   2.901  10.660   9.107  0.2607 -0.0720 -0.0779
  615MOL0     C82956   2.954  10.727   9.224 -0.4666  0.0484  0.4216
  615MOL0     C82957   3.049  10.832   9.192 -0.1803 -0.0537 -0.5395
  615MOL0     H82958   3.060  10.740   9.754  2.1924 -0.8322 -0.2493
  615MOL0     H82959   3.257  10.812   9.890  2.7806 -0.2114 -1.4444
  615MOL0     H82960   3.395  10.959  10.020  0.5043 -0.1620  1.2778
  615MOL0     H82961   3.510  10.873   9.912  0.3052  1.3051 -1.5460
  615MOL0     H82962   3.672  11.040   9.927 -2.1806  2.7507 -2.7980
  615MOL0     H82963   3.649  11.004  10.086 -1.1562 -0.3919  0.4719
  615MOL0     H82964   3.543  11.248   9.956 -2.1244 -4.6464 -2.1273
  615MOL0     H82965   3.656  11.228  10.097 -0.3871 -0.1209 -0.7443
  615MOL0     H82966   3.368  11.184  10.101  0.4510 -2.2742 -0.5998
  615MOL0     H82967   3.482  11.140  10.237 -0.9518  0.4518  1.5529
  615MOL0     H82968   3.453  11.424  10.121 -0.4569 -1.6021 -0.7826
  615MOL0     H82969   3.359  11.371  10.261  0.8793  1.9241  2.4667
  615MOL0     H82970   3.625  11.291  10.328  0.7564  0.5780  0.1214
  615MOL0     H82971   3.653  11.441  10.249 -0.0504 -0.2242 -0.0065
  615MOL0     H82972   3.426  11.458  10.449 -0.2420  1.5073 -0.1612
  615MOL0     H82973   3.514  11.578  10.362 -0.2599  0.5366  1.5246
  615MOL0     H82974   3.718  11.494  10.506  1.3585 -2.4302  2.7301
  615MOL0     H82975   3.575  11.557  10.599  1.6069 -0.5068  1.8545
  615MOL0     H82976   3.413  11.317  10.706 -0.6068 -0.9374  0.2357
  615MOL0     H82977   3.476  11.071  10.885 -1.2590 -0.9078  0.1330
  615MOL0     H82978   3.360  11.076  10.767 -0.2398 -2.9219  2.1127
  615MOL0     H82979   3.508  10.886  10.655 -2.9667  4.1212 -0.7918
  615MOL0     H82980   3.605  10.912  10.805 -0.0198  1.6129 -0.9767
  615MOL0     H82981   3.305  10.840  10.783 -0.2917 -5.0152 -0.4823
  615MOL0     H82982   3.393  10.858  10.941  1.3443 -1.1107  0.0400
  615MOL0     H82983   3.424  10.661  10.722  0.9136  1.6929 -0.2819
  615MOL0     H82984   3.368  10.633  10.887  1.4182 -1.4349 -1.1539
  615MOL0     H82985   3.784  10.543  10.894  1.0254  2.4710 -0.8597
  615MOL0     H82986   3.877  10.463  11.119 -0.6180  0.3491  1.1275
  615MOL0     H82987   3.847  10.494  11.658 -0.3595 -0.7986  1.1334
  615MOL0     H82988   3.901  10.348  11.842  2.2725 -1.5292  0.5425
  615MOL0     H82989   4.109   9.955  11.886  0.3692 -0.3559  1.6992
  615MOL0     H82990   4.163  10.085  11.769 -0.8372  0.2808 -0.3124
  615MOL0     H82991   4.091  10.251  11.952 -1.4256 -0.7802 -0.9335
  615MOL0     H82992   4.065  10.136  12.055 -1.4245 -1.1856 -3.2654
  615MOL0     H82993   4.265  10.215  12.114  1.5639  1.9404 -1.4373
  615MOL0     H82994   4.308  10.058  12.036 -0.7632 -0.4500  0.2225
  615MOL0     H82995   4.315  10.338  11.907 -0.1559  1.1858  1.0376
  615MOL0     H82996   4.386  10.197  11.834 -2.7530  1.3966 -0.1479
  615MOL0     H82997   4.541  10.184  12.027  0.2330  1.7710  0.6885
  615MOL0     H82998   4.448  10.318  12.099 -3.0352 -1.8399  0.6757
  615MOL0     H82999   4.594  10.321  11.830 -2.9002  0.6611 -2.1356
  615MOL0     H83000   4.510  10.456  11.893  1.3524 -0.3913 -2.3928
  615MOL0     H83001   4.649  10.443  12.109 -0.4748  0.9807  0.1429
  615MOL0     H83002   4.725  10.503  11.968 -1.0785 -0.1997 -1.2718
  615MOL0     H83003   4.771  10.218  12.076 -1.3745 -0.8487 -2.7082
  615MOL0     H83004   4.827  10.280  11.912  1.7277  0.3579  0.2238
  615MOL0     H83005   4.009  10.039  11.583  2.2783  2.0489 -1.6274
  615MOL0     H83006   3.938  10.167  11.390  1.6990  0.1369 -0.1060
  615MOL0     H83007   3.512  10.599  11.292 -0.0594  1.2302 -0.5087
  615MOL0     H83008   3.444  10.679  11.090  0.1494  1.3792  0.0712
  615MOL0     H83009   3.345  11.122   9.602  1.0240  0.6655 -0.5902
  615MOL0     H83010   3.142  11.020   9.462 -2.5502  5.1369  0.9843
  615MOL0     H83011   2.806  10.530   9.457 -0.8117  2.9941  0.4262
  615MOL0     H83012   2.713  10.426   9.255  0.5000  0.6475  2.0494
  615MOL0     H83013   2.613  10.391   9.043  0.2982  1.2730 -0.6503
  615MOL0     H83014   2.773  10.320   9.045 -0.5107  1.5902  0.2379
  615MOL0     H83015   2.662  10.411   8.789  1.5893  0.8272  1.0231
  615MOL0     H83016   2.613  10.246   8.864  1.5284 -1.5583  0.2646
  615MOL0     H83017   2.848  10.186   8.880  6.6664 -2.7505 -3.7206
  615MOL0     H83018   2.899  10.345   8.830  0.7436 -0.7917 -0.3042
  615MOL0     H83019   2.811  10.284   8.589 -2.9209  1.3910  2.7742
  615MOL0     H83020   2.912  10.141   8.653  1.0616  1.8557  1.4068
  615MOL0     H83021   2.542   9.985   8.562  0.6275 -0.0276 -1.4666
  615MOL0     H83022   2.922  10.688   9.004  0.0969  0.1260 -0.0580
  615MOL0     H83023   3.089  10.873   9.285 -1.9888  3.0345 -0.9959
  615MOL0     H83024   3.141  10.807   9.137  1.9603  0.9269  2.3584
  615MOL0     H83025   3.001  10.919   9.147  0.1748 -1.1095 -3.1885
  616MOL0     O83026   2.673   6.463   6.900  0.0412 -0.5692 -0.0745
  616MOL0     C83027   2.775   6.516   6.939  0.0351  0.6393 -0.0197
  616MOL0     O83028   2.787   6.624   7.021 -0.7863 -0.0000  0.2802
  616MOL0     C83029   2.676   6.667   7.077  0.0728 -0.8186 -0.4745
  616MOL0     C83030   2.635   6.629   7.204 -0.2278  0.2468  0.2595
  616MOL0     C83031   2.516   6.671   7.261 -0.2614  0.0688 -0.2462
  616MOL0     C83032   2.431   6.751   7.186 -0.4656 -0.2636 -0.5335
  616MOL0     O83033   2.297   6.774   7.227 -0.3668 -0.0260  0.6499
  616MOL0     C83034   2.237   6.688   7.320  0.0972 -0.7173  0.2379
  616MOL0     C83035   2.095   6.724   7.360 -1.1765  0.4143  0.0008
  616MOL0     C83036   2.064   6.648   7.485 -0.6447 -0.3008  0.2200
  616MOL0     C83037   1.911   6.610   7.484  0.1586 -0.5521  1.1649
  616MOL0     C83038   1.817   6.735   7.467  0.9077  0.2368  0.1470
  616MOL0     C83039   1.675   6.709   7.491  0.8401 -0.2452  0.6001
  616MOL0     C83040   1.640   6.659   7.630 -0.4570  0.0505 -0.1476
  616MOL0     C83041   1.492   6.652   7.649 -0.1469  0.1201  0.7270
  616MOL0     N83042   1.470   6.565   7.761 -0.0133  0.5466  0.0407
  616MOL0     C83043   1.416   6.440   7.761  0.0227  0.3409 -0.1568
  616MOL0     C83044   1.371   6.410   7.886 -0.7471 -0.3675  0.1394
  616MOL0     C83045   1.318   6.286   7.949 -0.2192 -0.3632 -0.3110
  616MOL0     C83046   1.421   6.226   8.052 -0.7150 -0.4976  0.4761
  616MOL0     C83047   1.382   6.080   8.083  0.6531 -0.1876 -0.2736
  616MOL0     C83048   1.401   5.977   7.978  0.4609  0.0352 -0.3026
  616MOL0     O83049   1.537   5.972   7.935 -0.8135 -0.2755  1.3855
  616MOL0     C83050   1.580   6.029   7.815  1.0128  0.2139 -0.3458
  616MOL0     C83051   1.499   6.095   7.717 -0.2533 -0.2810  0.2629
  616MOL0     C83052   1.561   6.160   7.611 -0.0345 -0.3408  0.3903
  616MOL0     C83053   1.699   6.153   7.603 -0.1271 -1.2410  1.0635
  616MOL0     C83054   1.766   6.224   7.489 -0.1913  0.2102  0.5232
  616MOL0     O83055   1.696   6.247   7.372 -0.5199  0.7542 -0.8251
  616MOL0     C83056   1.744   6.314   7.266 -0.4306  0.7662 -0.4886
  616MOL0     C83057   1.865   6.278   7.198 -0.9039  0.3744 -0.3574
  616MOL0     C83058   1.912   6.359   7.100  0.2219  0.0308 -0.1935
  616MOL0     C83059   1.850   6.477   7.061 -0.4385 -0.5869 -0.2005
  616MOL0     O83060   1.895   6.579   6.975  0.8092  0.3843  0.5100
  616MOL0     C83061   2.003   6.539   6.884  0.5358  0.0800 -1.4727
  616MOL0     C83062   2.093   6.658   6.843 -0.4470  0.2812 -1.9955
  616MOL0     C83063   2.222   6.596   6.789 -0.4428  0.6345 -0.7474
  616MOL0     C83064   2.299   6.676   6.685 -0.3618 -0.3849  0.4687
  616MOL0     C83065   2.411   6.587   6.616 -0.1251 -0.3308  0.3309
  616MOL0     C83066   2.501   6.677   6.524  0.0515  0.3909 -0.5016
  616MOL0     C83067   2.567   6.611   6.403  0.9264 -0.0271  0.2911
  616MOL0     C83068   2.502   6.614   6.269 -0.3172  1.4408 -0.8585
  616MOL0    Cl83069   2.348   6.511   6.262 -0.1723 -0.3072  0.4595
  616MOL0     C83070   1.733   6.501   7.119 -0.3791  0.4595 -0.3574
  616MOL0     C83071   1.677   6.431   7.232  0.2370 -0.1802  1.4478
  616MOL0     O83072   1.882   6.247   7.506 -0.1481 -0.1384 -0.4010
  616MOL0     C83073   1.772   6.077   7.688  0.4140  0.4045  0.1736
  616MOL0     C83074   1.712   6.018   7.798 -0.0644  0.1205 -0.6204
  616MOL0     N83075   1.408   6.519   7.959 -0.4023 -0.2916 -0.0476
  616MOL0     N83076   1.463   6.609   7.886  0.2567 -0.4799  0.4742
  616MOL0     C83077   2.469   6.795   7.057 -0.5808  0.8155  0.2713
  616MOL0     C83078   2.598   6.759   7.006  0.6038  0.8328  0.1418
  616MOL0     C83079   2.909   6.474   6.895  0.6156 -0.4056 -0.0474
  616MOL0     C83080   3.020   6.481   6.982  0.2752  0.3646  0.4859
  616MOL0     C83081   3.150   6.473   6.936 -0.4930 -0.4287 -1.1866
  616MOL0     C83082   3.176   6.450   6.804 -0.4543  0.0082  0.7956
  616MOL0     O83083   3.306   6.429   6.784  0.3758  0.5598  0.8386
  616MOL0     C83084   3.358   6.414   6.645  0.3988 -0.1849 -0.4333
  616MOL0     C83085   3.507   6.410   6.636  0.8707 -0.1883 -0.6106
  616MOL0     C83086   3.557   6.456   6.500  0.9777  0.7551 -0.0928
  616MOL0     C83087   3.570   6.614   6.491 -0.0353 -0.2681 -0.2905
  616MOL0     C83088   3.464   6.682   6.415  0.4555 -0.0933 -0.4162
  616MOL0     C83089   3.373   6.749   6.370 -0.7174  0.3357 -0.3377
  616MOL0     C83090   3.074   6.433   6.706 -1.1163  0.5257 -0.6299
  616MOL0     C83091   2.938   6.451   6.756 -0.7678  0.4269  1.0555
  616MOL0     C83092   2.831   6.443   6.649 -0.2485 -0.6914 -1.0244
  616MOL0     H83093   2.701   6.560   7.255  1.8880  1.0123 -1.3130
  616MOL0     H83094   2.492   6.648   7.365 -0.1091  1.9937  0.2413
  616MOL0     H83095   2.232   6.587   7.278 -4.2809 -2.2335  3.6774
  616MOL0     H83096   2.286   6.689   7.418 -2.0256 -0.4775  1.3473
  616MOL0     H83097   2.047   6.674   7.276  0.1583  0.0046 -0.5422
  616MOL0     H83098   2.086   6.831   7.383 -2.2455  0.4342 -0.4589
  616MOL0     H83099   2.090   6.714   7.568  0.6747 -0.9534  0.3513
  616MOL0     H83100   2.124   6.559   7.504 -3.4527 -2.1732  0.8775
  616MOL0     H83101   1.897   6.531   7.410  2.3167  0.5749 -0.5601
  616MOL0     H83102   1.898   6.567   7.584  1.4168 -0.5888  1.3251
  616MOL0     H83103   1.867   6.813   7.525  1.9407  0.7094 -1.3229
  616MOL0     H83104   1.831   6.767   7.364  2.1559  1.8765  0.7914
  616MOL0     H83105   1.610   6.794   7.471 -0.5744 -1.7494 -1.6273
  616MOL0     H83106   1.645   6.630   7.422 -1.9926  2.3137 -1.3514
  616MOL0     H83107   1.673   6.727   7.709 -1.9181 -1.0393  1.4804
  616MOL0     H83108   1.690   6.564   7.650  0.4558  0.8998  1.9030
  616MOL0     H83109   1.449   6.752   7.660 -0.3254 -0.0627  1.7601
  616MOL0     H83110   1.444   6.603   7.564 -1.5795  1.2023  0.8772
  616MOL0     H83111   1.392   6.369   7.682  0.9255  2.8067 -2.8365
  616MOL0     H83112   1.224   6.308   8.000 -0.9250  1.1669 -2.1420
  616MOL0     H83113   1.296   6.212   7.872  2.6585 -3.6013  1.6781
  616MOL0     H83114   1.518   6.236   8.003  0.2955  0.9230  2.6112
  616MOL0     H83115   1.425   6.283   8.145  0.5096 -3.1063  2.1204
  616MOL0     H83116   1.276   6.083   8.110 -0.6092  0.5036 -4.6386
  616MOL0     H83117   1.451   6.044   8.160 -1.5813  2.4473  3.2948
  616MOL0     H83118   1.335   5.987   7.891  4.1770  2.6052 -3.1726
  616MOL0     H83119   1.367   5.882   8.020 -0.2852  1.2941  2.1414
  616MOL0     H83120   1.392   6.081   7.715 -0.5132  0.6722  3.1086
  616MOL0     H83121   1.505   6.202   7.529  0.7090 -1.6606 -0.8545
  616MOL0     H83122   1.926   6.197   7.238 -1.6442 -0.9951 -1.8593
  616MOL0     H83123   1.995   6.317   7.045  1.4450 -1.6621  2.7319
  616MOL0     H83124   2.070   6.479   6.947 -2.4034  0.2774  2.1300
  616MOL0     H83125   1.978   6.481   6.795  0.2027 -0.4827 -1.0199
  616MOL0     H83126   2.041   6.723   6.771 -0.6877  1.1421 -1.0669
  616MOL0     H83127   2.118   6.713   6.934 -0.4151 -0.5843 -1.4683
  616MOL0     H83128   2.292   6.567   6.868 -0.5871 -2.1628 -1.5496
  616MOL0     H83129   2.190   6.499   6.750 -1.1073  0.5951 -0.1234
  616MOL0     H83130   2.344   6.768   6.722 -0.0674 -0.5152  0.4369
  616MOL0     H83131   2.227   6.698   6.605 -2.3233 -1.8696  1.7222
  616MOL0     H83132   2.353   6.526   6.546 -0.6340  1.8498 -1.2851
  616MOL0     H83133   2.464   6.520   6.684 -5.7463 -3.0246  2.6506
  616MOL0     H83134   2.435   6.753   6.482 -0.4458  0.0518 -0.3500
  616MOL0     H83135   2.582   6.714   6.587 -0.6697  0.9645  0.1215
  616MOL0     H83136   2.594   6.508   6.429  1.0039 -0.2914 -0.7967
  616MOL0     H83137   2.661   6.665   6.392  0.1494  1.0063 -1.7382
  616MOL0     H83138   2.489   6.720   6.247  3.8106  1.8138 -2.3295
  616MOL0     H83139   2.569   6.580   6.189 -0.9224 -1.1025 -0.3833
  616MOL0     H83140   1.687   6.594   7.088 -1.1104  0.3822  0.4613
  616MOL0     H83141   1.586   6.462   7.282  0.2196  2.8695 -0.2643
  616MOL0     H83142   1.879   6.068   7.680  0.3397 -3.3292  1.1651
  616MOL0     H83143   1.764   5.961   7.874 -0.5553  0.4393 -0.0396
  616MOL0     H83144   2.394   6.843   6.995  1.1919  1.3779 -1.5661
  616MOL0     H83145   2.612   6.801   6.907 -1.1739 -1.0977 -1.0370
  616MOL0     H83146   3.003   6.491   7.088 -3.1466  3.1616 -0.1293
  616MOL0     H83147   3.240   6.490   6.994 -0.1968  1.1502 -2.0285
  616MOL0     H83148   3.320   6.499   6.586 -1.1304  2.3580  3.7156
  616MOL0     H83149   3.314   6.330   6.591  1.0046 -1.9929  1.7650
  616MOL0     H83150   3.543   6.309   6.655  2.3909 -0.4723 -4.1962
  616MOL0     H83151   3.547   6.483   6.708  2.0021 -1.2857 -0.0832
  616MOL0     H83152   3.487   6.423   6.424 -3.3861  0.5541  3.5863
  616MOL0     H83153   3.650   6.401   6.481 -0.0738 -2.0833  2.1653
  616MOL0     H83154   3.561   6.660   6.590  1.0622 -2.5050  0.9284
  616MOL0     H83155   3.666   6.634   6.441 -0.5941 -1.0152 -1.6945
  616MOL0     H83156   3.282   6.796   6.338 -0.1461  3.4846  2.1015
  616MOL0     H83157   3.104   6.421   6.603  0.5956  1.5236 -0.2735
  616MOL0     H83158   2.875   6.433   6.550  2.3299 -1.5616  0.1294
  616MOL0     H83159   2.768   6.355   6.662  1.3920 -1.4770  2.9270
  616MOL0     H83160   2.778   6.538   6.662  1.1786  0.1678 -1.2297
  617MOL0     O83161   6.815   8.213   9.035 -0.0503 -0.8432 -0.0567
  617MOL0     C83162   6.929   8.169   9.057  0.3319  0.3109 -1.2506
  617MOL0     O83163   7.041   8.239   9.013  0.3915 -0.1665  0.1503
  617MOL0     C83164   7.052   8.377   8.996  0.5953 -0.4185 -0.8374
  617MOL0     C83165   7.149   8.432   8.913  1.1261  0.4067 -0.9816
  617MOL0     C83166   7.167   8.564   8.902  1.0062  0.1794  1.3468
  617MOL0     C83167   7.085   8.652   8.968  0.3537 -0.3664  0.3848
  617MOL0     O83168   7.116   8.788   8.957  0.5592  0.0146  0.1342
  617MOL0     C83169   7.004   8.872   8.940  0.3056 -0.4116 -0.3112
  617MOL0     C83170   7.033   9.009   8.878 -0.0325 -0.7011 -1.0354
  617MOL0     C83171   6.980   9.123   8.969 -0.8796  0.2416 -0.1891
  617MOL0     C83172   7.018   9.252   8.896 -0.8472  1.0302  0.0765
  617MOL0     C83173   6.963   9.388   8.964 -0.1415  0.4919 -0.2042
  617MOL0     C83174   6.977   9.504   8.861  0.4405  0.0210 -0.6033
  617MOL0     C83175   6.922   9.639   8.926 -0.9698 -0.1699  0.7760
  617MOL0     C83176   6.897   9.762   8.841 -0.8961 -0.4720 -0.4991
  617MOL0     N83177   6.887   9.882   8.929 -0.3057  0.6113  0.4394
  617MOL0     C83178   6.974   9.982   8.952 -0.5890 -0.5490  0.0100
  617MOL0     C83179   6.915  10.071   9.025  0.0206 -0.8710 -0.1083
  617MOL0     C83180   6.987  10.201   9.061 -0.4781  0.3065  0.4968
  617MOL0     C83181   7.037  10.208   9.203  1.5213  0.0223 -0.1445
  617MOL0     C83182   7.065  10.356   9.236  0.4168 -0.5395 -0.1086
  617MOL0     C83183   7.100  10.374   9.386 -0.4217  0.6807  0.4057
  617MOL0     O83184   7.165  10.500   9.399  0.2378 -0.4482 -0.1386
  617MOL0     C83185   7.153  10.576   9.510 -0.0211 -0.8331  0.6224
  617MOL0     C83186   7.080  10.536   9.624 -0.6353  0.0668 -0.1818
  617MOL0     C83187   7.058  10.627   9.730 -0.1321  0.4331 -0.5159
  617MOL0     C83188   7.121  10.762   9.741  0.0825  0.1325 -0.4870
  617MOL0     C83189   7.105  10.856   9.854  0.5185  0.2207  0.4313
  617MOL0     O83190   7.037  10.804   9.965  0.6178  0.0543 -0.0435
  617MOL0     C83191   7.048  10.870  10.084 -0.4077  0.3075  0.0530
  617MOL0     C83192   7.165  10.884  10.162  1.0746 -0.1300  0.6137
  617MOL0     C83193   7.162  10.949  10.286  0.0759 -0.1802 -0.1420
  617MOL0     C83194   7.044  11.009  10.327  0.3781 -0.0062 -0.3694
  617MOL0     O83195   7.046  11.076  10.443  0.5911  0.8157  0.1729
  617MOL0     C83196   6.921  11.085  10.518  0.5238  0.3089 -0.4035
  617MOL0     C83197   6.932  11.125  10.659  0.0770 -0.1260  0.0090
  617MOL0     C83198   6.958  11.276  10.683 -0.1076  0.4663 -0.7460
  617MOL0     C83199   6.836  11.367  10.655  0.3598  0.5684 -0.3653
  617MOL0     C83200   6.745  11.399  10.783  1.0818  0.2066  0.2511
  617MOL0     C83201   6.621  11.473  10.733  1.1322  0.3485 -0.1280
  617MOL0     C83202   6.532  11.372  10.656  0.3670 -0.2856  0.3902
  617MOL0     C83203   6.403  11.435  10.617  0.6205 -0.7128 -0.1196
  617MOL0    Cl83204   6.423  11.543  10.468  0.3658  0.0238  0.2365
  617MOL0     C83205   6.931  11.000  10.240 -0.4704 -0.3944 -0.2028
  617MOL0     C83206   6.931  10.928  10.126  0.0399 -0.1200  0.0322
  617MOL0     O83207   7.146  10.976   9.854 -0.2392  0.5197 -0.2220
  617MOL0     C83208   7.204  10.791   9.629  0.5475 -0.1146 -0.0953
  617MOL0     C83209   7.198  10.707   9.509  0.1194  0.4724  0.6230
  617MOL0     N83210   6.791  10.036   9.049  0.0455 -0.3432  0.1909
  617MOL0     N83211   6.775   9.918   8.993 -0.1969 -1.0095  0.4967
  617MOL0     C83212   6.992   8.604   9.061  0.7061  1.6086  0.5082
  617MOL0     C83213   6.976   8.462   9.075  0.2993 -0.4728 -0.7459
  617MOL0     C83214   6.944   8.036   9.116  0.7255 -0.6911 -0.6543
  617MOL0     C83215   7.079   7.997   9.159  0.4114 -0.4124 -0.6654
  617MOL0     C83216   7.104   7.863   9.205  0.7814  0.8658  0.3169
  617MOL0     C83217   6.995   7.781   9.237  0.9678 -0.9001 -0.5934
  617MOL0     O83218   7.030   7.657   9.288  0.3579  0.8197 -0.2173
  617MOL0     C83219   7.017   7.658   9.432 -0.4264 -0.2747 -0.1250
  617MOL0     C83220   7.137   7.718   9.514 -0.2279 -0.4453 -0.1481
  617MOL0     C83221   7.280   7.692   9.463  0.2995 -0.2313  0.2581
  617MOL0     C83222   7.353   7.591   9.543 -0.5436 -0.2525  0.6122
  617MOL0     C83223   7.485   7.553   9.480 -0.4423 -0.8461 -0.3314
  617MOL0     C83224   7.600   7.530   9.437 -0.0318  0.1504 -0.4042
  617MOL0     C83225   6.866   7.813   9.185 -0.6763  0.1692 -1.4904
  617MOL0     C83226   6.843   7.943   9.126  1.2873 -0.0959 -0.2655
  617MOL0     C83227   6.705   7.967   9.069  0.4606 -0.4822  0.1574
  617MOL0     H83228   7.217   8.381   8.845 -0.3610 -1.5391 -1.1025
  617MOL0     H83229   7.239   8.597   8.827 -1.0913  1.0732 -0.3985
  617MOL0     H83230   6.928   8.815   8.885 -1.0124  0.4426  0.5596
  617MOL0     H83231   6.961   8.893   9.039  0.5193  0.5087 -0.4028
  617MOL0     H83232   6.991   9.016   8.777 -2.6941 -2.0427 -0.1172
  617MOL0     H83233   7.141   9.017   8.862  0.0689 -2.7475 -1.5468
  617MOL0     H83234   7.040   9.126   9.060 -0.9051 -0.4560 -0.1442
  617MOL0     H83235   6.872   9.120   8.985 -0.7689  0.2517  0.5878
  617MOL0     H83236   7.127   9.266   8.894 -0.2359 -2.4891  1.4082
  617MOL0     H83237   6.985   9.250   8.791 -1.6724  2.9884  0.2691
  617MOL0     H83238   6.856   9.386   8.985 -0.2555  2.3903 -0.4774
  617MOL0     H83239   7.026   9.406   9.053  2.2328 -2.4197 -1.1247
  617MOL0     H83240   7.082   9.518   8.832  0.8711 -1.3729  0.1335
  617MOL0     H83241   6.909   9.490   8.777 -3.0520  1.2963  1.7656
  617MOL0     H83242   6.996   9.674   9.000 -2.3665  1.4181  1.4740
  617MOL0     H83243   6.830   9.613   8.979  0.0031 -4.0496  0.9064
  617MOL0     H83244   6.977   9.794   8.774 -0.8675  0.4294 -0.0494
  617MOL0     H83245   6.810   9.747   8.777 -1.6954 -0.4954  0.5627
  617MOL0     H83246   7.071  10.003   8.908 -0.8504  2.6434  0.7160
  617MOL0     H83247   7.078  10.208   9.000 -0.8831 -1.4926 -0.3838
  617MOL0     H83248   6.923  10.284   9.030 -0.3474  0.2240 -0.0040
  617MOL0     H83249   6.968  10.153   9.268  4.3976  0.2100  3.3986
  617MOL0     H83250   7.131  10.151   9.207  1.5288 -0.0471 -1.0612
  617MOL0     H83251   6.975  10.413   9.212 -1.6437 -3.6418 -0.1854
  617MOL0     H83252   7.153  10.391   9.181  0.4830  0.2494  0.4793
  617MOL0     H83253   7.167  10.291   9.412  0.6552  1.9229  1.7083
  617MOL0     H83254   7.007  10.354   9.440  0.3760 -1.4025  1.1258
  617MOL0     H83255   7.025  10.442   9.627 -2.7219  1.2353  2.1278
  617MOL0     H83256   6.998  10.588   9.811 -1.9020  2.7890 -0.5890
  617MOL0     H83257   7.261  10.853  10.121  0.3627 -1.1319 -0.3701
  617MOL0     H83258   7.251  10.968  10.346  0.3240  1.1043 -0.8989
  617MOL0     H83259   6.866  11.167  10.472 -1.1004  0.9236  2.4005
  617MOL0     H83260   6.862  10.993  10.510  0.5977  0.2738 -0.5557
  617MOL0     H83261   6.843  11.093  10.713  1.8992 -2.0864  2.0627
  617MOL0     H83262   7.017  11.069  10.700  0.0864 -1.7434 -2.0800
  617MOL0     H83263   6.983  11.293  10.789  2.3927  1.5091 -1.4329
  617MOL0     H83264   7.035  11.303  10.610  0.9153  1.9037  0.7902
  617MOL0     H83265   6.780  11.335  10.567 -0.8166  1.7836 -0.0931
  617MOL0     H83266   6.880  11.463  10.627  1.5766 -0.1896 -1.1104
  617MOL0     H83267   6.796  11.451  10.865  1.7453  1.7558 -1.0890
  617MOL0     H83268   6.723  11.304  10.831  1.4619  0.5100  1.0523
  617MOL0     H83269   6.565  11.519  10.816 -2.3824 -0.9964 -1.5832
  617MOL0     H83270   6.655  11.548  10.661  3.4292  1.1577  1.6730
  617MOL0     H83271   6.503  11.291  10.724 -2.1956  1.1551  1.1487
  617MOL0     H83272   6.570  11.330  10.563 -2.5183  3.0295 -2.5770
  617MOL0     H83273   6.331  11.355  10.599 -2.4459  1.6269  0.9702
  617MOL0     H83274   6.361  11.490  10.701 -3.4608  2.5219 -3.8215
  617MOL0     H83275   6.834  11.034  10.275  0.8526 -0.2007  3.7228
  617MOL0     H83276   6.838  10.905  10.075  0.3531  0.9828 -1.0904
  617MOL0     H83277   7.240  10.893   9.617 -4.7868  1.8952 -1.8592
  617MOL0     H83278   7.227  10.745   9.411  1.2282  0.9674  1.1208
  617MOL0     H83279   6.937   8.662   9.134  0.4408 -0.5829  2.1530
  617MOL0     H83280   6.903   8.430   9.149  0.4988  1.1381  0.1985
  617MOL0     H83281   7.164   8.063   9.151  0.1421  0.2801  1.6214
  617MOL0     H83282   7.209   7.838   9.216  0.7361  0.0061 -1.0420
  617MOL0     H83283   7.031   7.557   9.470 -1.6723  0.7292  3.3925
  617MOL0     H83284   6.927   7.707   9.470 -1.7289 -1.1646 -1.9570
  617MOL0     H83285   7.122   7.699   9.620 -0.3957  3.4654  0.6718
  617MOL0     H83286   7.122   7.826   9.507  0.6232 -0.3693 -1.1491
  617MOL0     H83287   7.329   7.790   9.465  0.0429 -0.0999  0.1285
  617MOL0     H83288   7.271   7.675   9.355 -1.7446  2.8891 -0.2098
  617MOL0     H83289   7.382   7.641   9.636 -1.2054 -0.8818  1.1717
  617MOL0     H83290   7.303   7.495   9.560 -0.3959 -0.1461  1.6872
  617MOL0     H83291   7.705   7.530   9.416  0.5419 -0.2153  2.1529
  617MOL0     H83292   6.798   7.728   9.181  1.3791 -1.5893 -1.4483
  617MOL0     H83293   6.637   7.882   9.082 -0.9754  0.7243  0.8672
  617MOL0     H83294   6.658   8.048   9.125  1.9290  0.1357  0.5420
  617MOL0     H83295   6.716   7.983   8.962  2.6799 -1.8903  0.1155
  618MOL0     O83296  11.262   0.243  11.461  0.5052 -0.1989  0.5906
  618MOL0     C83297  11.234   0.312  11.559  0.1738 -0.0600 -0.6233
  618MOL0     O83298  11.323   0.355  11.654 -1.0843  0.1713 -0.1919
  618MOL0     C83299  11.440   0.286  11.660  0.1921 -0.6101  0.8828
  618MOL0     C83300  11.551   0.379  11.688  0.7874 -0.0509 -0.1489
  618MOL0     C83301  11.682   0.322  11.699 -0.1394  0.1301 -0.2646
  618MOL0     C83302  11.701   0.182  11.673 -1.0497 -1.4908  0.1129
  618MOL0     O83303  11.823   0.119  11.682  0.2228  0.3765  0.0231
  618MOL0     C83304  11.940   0.172  11.743 -0.2424  0.1927 -0.7488
  618MOL0     C83305  12.045   0.202  11.646 -0.3681 -0.4015 -0.6647
  618MOL0     C83306  12.113   0.079  11.583 -0.3998  0.6673  0.2483
  618MOL0     C83307  12.206   0.114  11.463 -0.4280  0.7356 -0.2176
  618MOL0     C83308  12.237  -0.015  11.384 -0.3612  0.5141  0.4579
  618MOL0     C83309  12.337   0.014  11.268  0.0868 -0.1078 -0.1891
  618MOL0     C83310  12.382  -0.112  11.189  0.0046  0.3599  0.0196
  618MOL0     C83311  12.287  -0.165  11.085  0.6310 -0.4360 -0.7053
  618MOL0     N83312  12.336  -0.289  11.035 -0.8271  0.6965  0.0959
  618MOL0     C83313  12.379  -0.321  10.902  0.4777 -0.0737  0.4231
  618MOL0     C83314  12.414  -0.456  10.913  0.8825 -0.6020  0.2559
  618MOL0     C83315  12.456  -0.561  10.809  0.2957 -0.4664 -0.4979
  618MOL0     C83316  12.346  -0.590  10.717 -0.5878 -0.0709  0.7292
  618MOL0     C83317  12.206  -0.625  10.773  0.3638  0.4088 -0.0552
  618MOL0     C83318  12.088  -0.570  10.688 -0.9880  0.5352  0.8738
  618MOL0     O83319  12.077  -0.427  10.704 -0.4561 -0.5232 -0.1187
  618MOL0     C83320  11.966  -0.361  10.667  0.9427 -0.3882 -0.4236
  618MOL0     C83321  11.865  -0.409  10.591  0.1081  0.6486  0.6695
  618MOL0     C83322  11.751  -0.329  10.559 -0.7361 -0.0264 -0.6836
  618MOL0     C83323  11.740  -0.196  10.601  0.6115 -0.0622  0.4776
  618MOL0     C83324  11.630  -0.108  10.555  0.5736 -0.7823  0.2020
  618MOL0     O83325  11.643   0.029  10.582 -0.4677  0.4345 -0.3848
  618MOL0     C83326  11.536   0.109  10.550 -0.3408  0.5000 -0.6028
  618MOL0     C83327  11.399   0.078  10.579  0.5658  0.1979 -0.0641
  618MOL0     C83328  11.297   0.160  10.539  0.2009  0.4706 -0.7412
  618MOL0     C83329  11.313   0.279  10.466 -0.4753 -0.2044 -0.1594
  618MOL0     O83330  11.204   0.342  10.412 -0.6708 -0.1400 -0.0147
  618MOL0     C83331  11.220   0.484  10.381  0.2371 -0.9063  0.2161
  618MOL0     C83332  11.097   0.539  10.305 -0.4317  0.0547 -0.1670
  618MOL0     C83333  10.963   0.508  10.382 -0.5253 -0.3053 -0.1542
  618MOL0     C83334  10.849   0.593  10.317  1.3591 -0.5647 -0.0064
  618MOL0     C83335  10.714   0.587  10.386 -0.4341  0.8757  0.1295
  618MOL0     C83336  10.598   0.650  10.315 -0.7433  0.6430  0.3145
  618MOL0     C83337  10.613   0.805  10.292 -0.3316  0.4388  0.0654
  618MOL0     C83338  10.512   0.856  10.196  1.3457  0.3666 -0.5325
  618MOL0    Cl83339  10.341   0.827  10.250  0.6525  0.4484 -0.3191
  618MOL0     C83340  11.451   0.307  10.439  0.0403  0.0814  0.0300
  618MOL0     C83341  11.567   0.225  10.479  0.2103  0.1725  0.5206
  618MOL0     O83342  11.532  -0.163  10.506 -1.3343 -0.0103  0.1615
  618MOL0     C83343  11.852  -0.150  10.668 -0.8202  0.1092  0.8027
  618MOL0     C83344  11.960  -0.224  10.707  0.4348  0.3487  0.1232
  618MOL0     N83345  12.401  -0.494  11.046  0.0266  0.0132 -0.3034
  618MOL0     N83346  12.348  -0.399  11.115 -0.1546  1.0575  0.0169
  618MOL0     C83347  11.596   0.096  11.649  0.0503 -0.5092 -0.7799
  618MOL0     C83348  11.464   0.149  11.640  0.7805  0.8307 -0.6484
  618MOL0     C83349  11.088   0.342  11.593  0.1745 -0.0219  0.0516
  618MOL0     C83350  10.986   0.276  11.534 -0.6052 -0.5585  0.4558
  618MOL0     C83351  10.851   0.297  11.561  0.9866 -0.0632  0.3945
  618MOL0     C83352  10.809   0.398  11.650 -0.2803 -0.4249  0.3547
  618MOL0     O83353  10.672   0.409  11.661 -0.0245 -0.4911 -0.9781
  618MOL0     C83354  10.611   0.535  11.711  0.3793 -0.3977  1.5201
  618MOL0     C83355  10.459   0.523  11.703  0.8512 -0.2505 -0.5227
  618MOL0     C83356  10.394   0.472  11.574  0.3302 -0.7624  0.2754
  618MOL0     C83357  10.229   0.490  11.558  1.0103 -0.2097  0.1046
  618MOL0     C83358  10.193   0.640  11.549  0.5546  1.1654  0.3017
  618MOL0     C83359  10.158   0.754  11.524 -0.3810  0.9286 -0.4777
  618MOL0     C83360  10.913   0.469  11.721 -0.1148  0.6462  0.1166
  618MOL0     C83361  11.046   0.437  11.697  0.3794  0.3329  0.4060
  618MOL0     C83362  11.141   0.520  11.786 -0.1376 -0.6945  0.2668
  618MOL0     H83363  11.527   0.480  11.721 -0.0081 -0.5140  0.7364
  618MOL0     H83364  11.767   0.389  11.712 -0.8346  1.0835 -0.5496
  618MOL0     H83365  11.924   0.265  11.799  1.5253  0.1634 -0.1529
  618MOL0     H83366  11.963   0.103  11.824  0.4820  1.6570  0.3548
  618MOL0     H83367  12.120   0.252  11.708  0.5848 -3.1509  0.5756
  618MOL0     H83368  12.009   0.264  11.564  3.1969 -0.3732 -2.4135
  618MOL0     H83369  12.045  -0.002  11.554  0.5179 -1.0834  2.6793
  618MOL0     H83370  12.171   0.034  11.664  1.7632 -1.5729 -2.3282
  618MOL0     H83371  12.164   0.188  11.394 -1.4963 -0.2810 -0.7077
  618MOL0     H83372  12.301   0.150  11.503  0.7217 -2.9683  0.7721
  618MOL0     H83373  12.296  -0.076  11.453 -1.0097  1.4545  1.8871
  618MOL0     H83374  12.138  -0.052  11.356 -0.0817  1.3347 -1.7714
  618MOL0     H83375  12.297   0.087  11.197 -1.2916 -2.8090 -2.4047
  618MOL0     H83376  12.426   0.064  11.306  1.4522  0.3942 -3.7214
  618MOL0     H83377  12.401  -0.188  11.266  0.7475  1.0828  0.5767
  618MOL0     H83378  12.468  -0.084  11.127  1.1531  1.7785  2.1112
  618MOL0     H83379  12.192  -0.173  11.139  0.8988 -1.9000 -0.4010
  618MOL0     H83380  12.267  -0.088  11.011  0.5033  0.5375  0.3239
  618MOL0     H83381  12.392  -0.265  10.811  0.4403  0.7892  0.9391
  618MOL0     H83382  12.547  -0.522  10.762  0.1312  2.9489  1.6475
  618MOL0     H83383  12.478  -0.646  10.875 -0.6770 -0.6229 -0.3566
  618MOL0     H83384  12.340  -0.503  10.650  1.8024  1.4316  2.3034
  618MOL0     H83385  12.377  -0.677  10.659  1.3049  1.7806 -1.2191
  618MOL0     H83386  12.197  -0.582  10.873  0.4846  0.6535 -0.1489
  618MOL0     H83387  12.197  -0.733  10.786  0.3525  0.1748 -1.7719
  618MOL0     H83388  11.999  -0.628  10.713 -1.6948  0.1768 -2.1189
  618MOL0     H83389  12.108  -0.596  10.583 -0.0545  0.1278  1.1395
  618MOL0     H83390  11.849  -0.506  10.543  0.2754 -0.6082  3.0074
  618MOL0     H83391  11.668  -0.369  10.503 -1.1104  0.3068 -0.3702
  618MOL0     H83392  11.370  -0.009  10.637 -0.5652 -1.1077 -2.4239
  618MOL0     H83393  11.197   0.121  10.559  0.5406  0.6496  1.5341
  618MOL0     H83394  11.247   0.544  10.468  1.1476 -0.8103 -0.1229
  618MOL0     H83395  11.297   0.491  10.304 -0.6165  0.2288 -0.5626
  618MOL0     H83396  11.111   0.646  10.289  1.4782 -0.3467 -1.5883
  618MOL0     H83397  11.085   0.494  10.206  3.1172  3.3409 -2.3534
  618MOL0     H83398  10.953   0.400  10.367  0.8227 -0.5221  0.4203
  618MOL0     H83399  10.980   0.542  10.485 -0.8981 -3.3817  1.0353
  618MOL0     H83400  10.831   0.567  10.212 -0.2181 -1.0898  0.3650
  618MOL0     H83401  10.892   0.693  10.327  2.9104 -1.2025  0.0685
  618MOL0     H83402  10.723   0.636  10.483 -2.0412 -0.0016  0.7550
  618MOL0     H83403  10.696   0.482  10.411 -1.0202  1.2850  1.4819
  618MOL0     H83404  10.581   0.596  10.221  1.0544 -1.1057  0.9336
  618MOL0     H83405  10.503   0.628  10.364 -1.2480 -2.1053 -1.6620
  618MOL0     H83406  10.712   0.814  10.247  0.0416  0.1021  0.7953
  618MOL0     H83407  10.623   0.855  10.388 -0.6831 -1.6578  1.2707
  618MOL0     H83408  10.526   0.964  10.185  1.4992  0.4418  0.3108
  618MOL0     H83409  10.533   0.810  10.100  2.0038  0.3570 -0.3863
  618MOL0     H83410  11.463   0.398  10.380 -0.3052  0.7878  1.0295
  618MOL0     H83411  11.670   0.254  10.457  0.1574 -0.2297 -0.2995
  618MOL0     H83412  11.857  -0.045  10.697 -0.8288  0.1451  0.6741
  618MOL0     H83413  12.030  -0.183  10.779 -0.2477  1.5303  0.1553
  618MOL0     H83414  11.605  -0.010  11.627 -2.5158 -0.2532 -3.8400
  618MOL0     H83415  11.387   0.075  11.624  2.4592 -1.1765  0.1019
  618MOL0     H83416  11.021   0.205  11.460  0.6329 -0.4923  0.9638
  618MOL0     H83417  10.783   0.242  11.496  3.0554 -1.7806 -0.4584
  618MOL0     H83418  10.650   0.607  11.638  3.9799 -1.0022  2.6639
  618MOL0     H83419  10.648   0.572  11.807  2.6260  1.7894 -0.0491
  618MOL0     H83420  10.417   0.617  11.739 -1.1263 -1.4190  0.3849
  618MOL0     H83421  10.428   0.446  11.775 -2.0826  0.3686 -0.9977
  618MOL0     H83422  10.400   0.363  11.568  0.2217 -0.8410  1.3937
  618MOL0     H83423  10.443   0.518  11.489 -0.9459 -0.0508 -0.1041
  618MOL0     H83424  10.185   0.454  11.465 -2.0041  1.0334  0.9400
  618MOL0     H83425  10.176   0.446  11.642  0.6575 -0.2618 -0.1440
  618MOL0     H83426  10.156   0.860  11.505 -2.5215  0.9842 -0.1872
  618MOL0     H83427  10.904   0.539  11.804  1.3841 -1.1095  1.8575
  618MOL0     H83428  11.100   0.607  11.837 -1.1847 -0.0636 -1.5544
  618MOL0     H83429  11.200   0.459  11.855  0.5012 -0.6146 -0.1957
  618MOL0     H83430  11.210   0.571  11.718 -0.7990 -0.6841 -0.4082
  619MOL0     O83431   0.333  10.397   9.518 -0.5267  0.3591 -0.5764
  619MOL0     C83432   0.434  10.352   9.575  0.8545  0.8006  0.2824
  619MOL0     O83433   0.508  10.243   9.528  0.2319 -0.1363  0.3622
  619MOL0     C83434   0.507  10.227   9.391  0.6802 -0.6280  0.0985
  619MOL0     C83435   0.571  10.325   9.313  0.2369  0.8745 -0.4022
  619MOL0     C83436   0.570  10.320   9.178 -0.1282  0.8338 -0.0710
  619MOL0     C83437   0.519  10.205   9.108 -0.6720  0.0482  0.1262
  619MOL0     O83438   0.513  10.193   8.968  0.4038 -0.1737 -0.7099
  619MOL0     C83439   0.457  10.306   8.899 -0.4298 -0.5095  0.1415
  619MOL0     C83440   0.321  10.350   8.946 -0.2579 -0.4023  0.3265
  619MOL0     C83441   0.260  10.445   8.848 -0.0893  0.2453  0.0056
  619MOL0     C83442   0.117  10.484   8.885 -0.9972  0.7467  0.3530
  619MOL0     C83443   0.062  10.581   8.787  0.7712  0.6264 -0.0757
  619MOL0     C83444   0.103  10.725   8.802  0.6045  1.1440 -0.4420
  619MOL0     C83445   0.055  10.812   8.685  0.4743  0.6745 -0.3859
  619MOL0     C83446  -0.088  10.862   8.705  0.1997  0.6111 -0.9640
  619MOL0     N83447  -0.115  10.951   8.587 -0.0310 -0.0156 -0.1126
  619MOL0     C83448  -0.105  11.086   8.597 -0.2501 -0.6662 -0.1748
  619MOL0     C83449  -0.173  11.133   8.495 -0.1757  0.5991 -0.1250
  619MOL0     C83450  -0.202  11.267   8.455 -0.5969 -0.3022  0.4364
  619MOL0     C83451  -0.329  11.317   8.511  0.8410  0.1639 -0.4393
  619MOL0     C83452  -0.396  11.433   8.456  0.1150 -0.1596 -0.2261
  619MOL0     C83453  -0.330  11.564   8.499  0.2695 -0.3041 -0.2528
  619MOL0     O83454  -0.213  11.587   8.422 -0.1834 -0.1619  0.6428
  619MOL0     C83455  -0.140  11.694   8.442 -0.0664  0.0059  0.0161
  619MOL0     C83456  -0.189  11.820   8.485  0.0872 -0.8792  0.6300
  619MOL0     C83457  -0.107  11.926   8.527 -0.1370 -0.7114 -0.1550
  619MOL0     C83458   0.029  11.898   8.523  0.0712  0.6509 -0.6274
  619MOL0     C83459   0.120  12.004   8.566  0.2021 -0.1585  0.8743
  619MOL0     O83460   0.244  11.963   8.591  0.5036 -0.1438 -0.6218
  619MOL0     C83461   0.327  12.050   8.653 -0.3277  0.0572  0.7323
  619MOL0     C83462   0.395  12.004   8.764  0.9468 -0.7499  0.3110
  619MOL0     C83463   0.479  12.096   8.836  0.1917 -0.2149 -0.5891
  619MOL0     C83464   0.496  12.226   8.794 -0.7898 -0.5505 -0.2274
  619MOL0     O83465   0.577  12.309   8.862  0.0385 -0.6101 -0.1376
  619MOL0     C83466   0.521  12.441   8.891 -0.3152  0.3745 -0.1972
  619MOL0     C83467   0.565  12.491   9.027  0.3439 -0.9614 -0.4031
  619MOL0     C83468   0.461  12.599   9.084 -0.0181  1.5561  1.3203
  619MOL0     C83469   0.512  12.675   9.204 -0.4727 -0.3751 -0.2613
  619MOL0     C83470   0.417  12.790   9.259 -0.2408 -0.5211  0.1205
  619MOL0     C83471   0.466  12.828   9.397  0.4823 -1.0946 -0.2020
  619MOL0     C83472   0.371  12.933   9.460  0.6256 -0.5486 -0.4479
  619MOL0     C83473   0.254  12.879   9.548  0.1351 -0.2847  0.0077
  619MOL0    Cl83474   0.315  12.811   9.703  0.5512 -0.1392  0.7024
  619MOL0     C83475   0.440  12.265   8.671  0.2940 -0.0605 -0.4257
  619MOL0     C83476   0.353  12.180   8.603  0.2380 -0.5722  1.0601
  619MOL0     O83477   0.079  12.120   8.590  0.0160 -0.3386  0.2070
  619MOL0     C83478   0.087  11.779   8.477  0.4472  0.0216  0.4278
  619MOL0     C83479   0.005  11.675   8.435  0.4825 -1.2200 -0.7798
  619MOL0     N83480  -0.217  11.024   8.424  0.0599 -0.7914  0.9958
  619MOL0     N83481  -0.177  10.913   8.476 -0.4926 -0.0620 -0.4614
  619MOL0     C83482   0.474  10.097   9.182 -1.0035  0.2930 -0.8261
  619MOL0     C83483   0.468  10.110   9.327 -0.3750  0.6810 -0.4043
  619MOL0     C83484   0.469  10.404   9.710  0.8479 -0.4352 -0.6929
  619MOL0     C83485   0.490  10.320   9.823  0.5496 -1.1095 -0.2805
  619MOL0     C83486   0.472  10.379   9.948  0.3533  0.7592 -0.0543
  619MOL0     C83487   0.470  10.514   9.970  0.1040  0.7771  0.9176
  619MOL0     O83488   0.473  10.555  10.100  0.3872 -0.0279 -0.7534
  619MOL0     C83489   0.592  10.621  10.145  0.3311 -0.6338  0.0046
  619MOL0     C83490   0.714  10.530  10.178  1.2567  0.4176 -0.5593
  619MOL0     C83491   0.837  10.603  10.197 -0.5367  0.2657 -0.9397
  619MOL0     C83492   0.963  10.512  10.212  0.2336  0.2661 -0.4650
  619MOL0     C83493   1.003  10.441  10.095 -0.1208  0.1480  0.1173
  619MOL0     C83494   1.004  10.370   9.995  0.3938 -0.5876  0.3603
  619MOL0     C83495   0.462  10.601   9.859  0.1044  0.4104 -0.8796
  619MOL0     C83496   0.457  10.548   9.734  0.6070 -0.2037  0.3206
  619MOL0     C83497   0.462  10.648   9.625 -0.1730  0.9387  0.1469
  619MOL0     H83498   0.621  10.403   9.368  0.3760 -0.5469  1.5926
  619MOL0     H83499   0.604  10.393   9.106 -0.0170  1.6724  0.8118
  619MOL0     H83500   0.517  10.397   8.897 -0.2354 -0.5980  1.4359
  619MOL0     H83501   0.459  10.282   8.792  3.1907  1.9553 -0.5274
  619MOL0     H83502   0.331  10.399   9.043  0.2108 -0.6067  0.3821
  619MOL0     H83503   0.247  10.271   8.957  1.3650 -1.8684  1.0627
  619MOL0     H83504   0.264  10.391   8.753 -0.6535  0.5961 -0.2281
  619MOL0     H83505   0.323  10.534   8.838 -0.0737  0.0704 -1.7975
  619MOL0     H83506   0.056  10.394   8.899  0.7010 -0.3268  1.1957
  619MOL0     H83507   0.126  10.544   8.976  4.3570  0.0797  0.5816
  619MOL0     H83508   0.075  10.546   8.684 -2.0408 -1.8026  0.2496
  619MOL0     H83509  -0.045  10.572   8.805  0.5679 -2.7948 -2.0501
  619MOL0     H83510   0.068  10.773   8.894  1.3939  1.6778 -0.4060
  619MOL0     H83511   0.212  10.737   8.800  0.3638  3.8130 -1.8814
  619MOL0     H83512   0.057  10.751   8.594  0.3092 -0.9569  0.6579
  619MOL0     H83513   0.131  10.890   8.675  0.1226  1.1671  0.6904
  619MOL0     H83514  -0.159  10.781   8.723 -0.7745  1.2738 -1.6645
  619MOL0     H83515  -0.095  10.920   8.798 -0.6747 -0.8080 -0.0976
  619MOL0     H83516  -0.069  11.142   8.682 -2.6821  0.5929  0.1024
  619MOL0     H83517  -0.129  11.342   8.486 -1.0791  1.4010 -2.1876
  619MOL0     H83518  -0.190  11.263   8.346  1.7873  0.1545  0.6149
  619MOL0     H83519  -0.392  11.230   8.492  0.3160  0.3253  0.5158
  619MOL0     H83520  -0.314  11.339   8.617 -0.2659  0.3914 -0.3177
  619MOL0     H83521  -0.504  11.430   8.475 -0.1514 -0.4143 -1.6629
  619MOL0     H83522  -0.389  11.430   8.347  0.1181  1.1732 -0.2880
  619MOL0     H83523  -0.316  11.581   8.606  0.4053 -0.4433 -0.2487
  619MOL0     H83524  -0.394  11.644   8.460  0.5829  0.1145  0.0741
  619MOL0     H83525  -0.296  11.837   8.488  0.0300 -1.1821  0.4159
  619MOL0     H83526  -0.143  12.023   8.559  1.6509  1.5512 -4.1953
  619MOL0     H83527   0.382  11.902   8.800  1.5959 -0.1147  2.5148
  619MOL0     H83528   0.527  12.069   8.929 -0.3110 -0.7007 -0.4655
  619MOL0     H83529   0.567  12.517   8.827  0.6791  1.6988  1.9953
  619MOL0     H83530   0.412  12.441   8.890 -0.3689  0.8890  1.6388
  619MOL0     H83531   0.590  12.420   9.106  2.4897  0.3647  0.2039
  619MOL0     H83532   0.658  12.548   9.014  1.2823 -1.8749  1.8584
  619MOL0     H83533   0.468  12.666   8.998  3.3733 -1.0082 -0.6568
  619MOL0     H83534   0.360  12.555   9.086  0.5462 -0.1716 -1.5769
  619MOL0     H83535   0.609  12.721   9.183  0.9143 -2.7680  0.5456
  619MOL0     H83536   0.530  12.607   9.287  0.5971  0.5675  0.3240
  619MOL0     H83537   0.315  12.753   9.272  0.5061 -2.2028  1.7575
  619MOL0     H83538   0.413  12.874   9.189 -3.8055  1.2333  2.0947
  619MOL0     H83539   0.477  12.743   9.466  2.8058  0.6856  1.8070
  619MOL0     H83540   0.557  12.887   9.386  0.7878 -1.8099 -1.6627
  619MOL0     H83541   0.331  12.999   9.383  0.3973 -0.4520 -0.2482
  619MOL0     H83542   0.420  13.006   9.525 -0.7622  0.2890 -0.2973
  619MOL0     H83543   0.186  12.957   9.583  1.3863  1.2937 -0.9363
  619MOL0     H83544   0.193  12.807   9.493  0.4024 -1.8586  1.6787
  619MOL0     H83545   0.454  12.369   8.642 -0.4838  0.0591 -0.3867
  619MOL0     H83546   0.314  12.207   8.505  3.6872  0.4840 -0.1783
  619MOL0     H83547   0.194  11.771   8.461 -0.0165 -1.2294 -2.6947
  619MOL0     H83548   0.055  11.590   8.389  2.5108  0.7123 -2.3570
  619MOL0     H83549   0.463  10.000   9.136  0.8511  0.4629 -1.6960
  619MOL0     H83550   0.434  10.027   9.388 -0.6477  2.1133  1.4840
  619MOL0     H83551   0.507  10.213   9.810  0.8054 -1.4277  2.2077
  619MOL0     H83552   0.471  10.307  10.029 -4.2658  1.3006  0.6077
  619MOL0     H83553   0.564  10.663  10.243  1.8414  0.0640  0.1623
  619MOL0     H83554   0.605  10.703  10.074 -1.0984  0.4124  0.8763
  619MOL0     H83555   0.726  10.458  10.096  1.2775 -0.4340  0.1726
  619MOL0     H83556   0.700  10.476  10.272 -1.9150  0.7844 -0.7324
  619MOL0     H83557   0.841  10.662  10.289  2.0883 -1.2401  0.0266
  619MOL0     H83558   0.851  10.658  10.104 -3.2266 -0.5980 -1.9535
  619MOL0     H83559   1.049  10.575  10.236  0.3739  0.0277 -0.3371
  619MOL0     H83560   0.945  10.437  10.290  1.4636 -0.6518 -1.0241
  619MOL0     H83561   0.997  10.317   9.902  1.2154  1.8349 -1.1643
  619MOL0     H83562   0.477  10.708   9.863 -2.7303  0.8405  0.0586
  619MOL0     H83563   0.548  10.619   9.564  0.3909 -1.6992  2.0143
  619MOL0     H83564   0.373  10.651   9.561  1.3359  0.4040 -2.0917
  619MOL0     H83565   0.489  10.746   9.664  1.8081  0.2582  0.5697
  620MOL0     O83566   9.356   5.224   2.051  0.3719  0.0167 -0.0143
  620MOL0     C83567   9.368   5.099   2.043 -0.4539  0.0352 -1.0031
  620MOL0     O83568   9.461   5.021   2.107  0.6003  0.3054  0.7216
  620MOL0     C83569   9.506   5.070   2.224 -0.2959 -0.3100  0.5955
  620MOL0     C83570   9.440   5.156   2.315 -0.6278 -0.4963  0.3692
  620MOL0     C83571   9.498   5.175   2.439  0.3058 -0.3284  0.2432
  620MOL0     C83572   9.617   5.112   2.471  0.4186  0.0725  0.0923
  620MOL0     O83573   9.692   5.142   2.589 -0.1276  0.1903 -0.3573
  620MOL0     C83574   9.620   5.188   2.706  0.2259  0.5779  0.3634
  620MOL0     C83575   9.676   5.323   2.758 -0.2268  0.1927 -0.4795
  620MOL0     C83576   9.705   5.422   2.650 -0.1383  0.1009  0.8556
  620MOL0     C83577   9.855   5.401   2.598  0.7052  0.5668 -0.8047
  620MOL0     C83578   9.899   5.476   2.470  0.5217  0.4875  0.1917
  620MOL0     C83579   9.880   5.390   2.345 -0.2131  0.4897 -0.0200
  620MOL0     C83580   9.936   5.459   2.219 -0.0610  0.6302 -0.4200
  620MOL0     C83581   9.920   5.379   2.095 -0.3901 -0.8516 -0.1640
  620MOL0     N83582   9.999   5.413   1.970 -0.0318  0.5086 -0.3377
  620MOL0     C83583   9.953   5.372   1.849  0.4717  0.0379 -0.5526
  620MOL0     C83584  10.051   5.397   1.757  0.5532  0.1695 -0.5413
  620MOL0     C83585  10.056   5.387   1.607  0.0559  0.3251 -0.2227
  620MOL0     C83586  10.140   5.268   1.558 -0.3455 -0.0775  0.3749
  620MOL0     C83587  10.072   5.133   1.591  0.9326  0.4637  0.7182
  620MOL0     C83588  10.121   5.025   1.487  0.9458 -0.0425  0.8148
  620MOL0     O83589  10.074   5.058   1.350 -0.1318  0.4640 -0.8056
  620MOL0     C83590  10.067   4.957   1.258  0.1854  0.3859 -0.0855
  620MOL0     C83591  10.168   4.865   1.231 -0.5840 -0.6370  0.6449
  620MOL0     C83592  10.154   4.763   1.140 -0.3678  0.4524  0.0153
  620MOL0     C83593  10.032   4.738   1.077  1.6001 -0.3449 -0.2259
  620MOL0     C83594  10.007   4.622   0.989  0.7872 -0.2041 -1.3376
  620MOL0     O83595  10.106   4.523   0.989 -0.5571 -0.4965  0.2986
  620MOL0     C83596  10.098   4.420   0.898  0.7042  0.4161 -0.3087
  620MOL0     C83597  10.088   4.446   0.763  0.0134 -0.5530  0.1215
  620MOL0     C83598  10.070   4.345   0.671  0.2937  0.5174  0.0463
  620MOL0     C83599  10.060   4.213   0.717  0.4093  0.6362 -0.6511
  620MOL0     O83600  10.012   4.112   0.643 -0.4256  0.2896  0.2362
  620MOL0     C83601   9.997   4.113   0.503  0.2772  0.0777  0.5449
  620MOL0     C83602  10.001   3.969   0.452 -0.6803  0.7334  0.1611
  620MOL0     C83603   9.906   3.869   0.531  0.4202  0.4669 -0.0596
  620MOL0     C83604   9.919   3.724   0.471  0.3717  0.2254  0.2936
  620MOL0     C83605   9.884   3.693   0.325 -1.5976 -0.0973  0.2779
  620MOL0     C83606   9.873   3.539   0.294 -0.3626 -0.0348  0.8255
  620MOL0     C83607  10.011   3.475   0.271  0.5609 -1.3838 -0.9647
  620MOL0     C83608  10.017   3.328   0.236  0.1746 -0.3127  0.1438
  620MOL0    Cl83609   9.925   3.292   0.088 -0.4117 -0.0982  0.1831
  620MOL0     C83610  10.082   4.183   0.850  0.2389 -0.9271 -0.9394
  620MOL0     C83611  10.102   4.292   0.940  0.1048 -0.1276 -0.4079
  620MOL0     O83612   9.893   4.618   0.932  0.3604 -0.8608  0.1733
  620MOL0     C83613   9.930   4.830   1.104  0.1909  0.7170 -0.1217
  620MOL0     C83614   9.943   4.940   1.188 -0.3302  0.4726  0.1518
  620MOL0     N83615  10.151   5.447   1.828  0.6009  0.4725  0.0277
  620MOL0     N83616  10.124   5.453   1.958 -0.1919 -0.6594  0.6224
  620MOL0     C83617   9.685   5.030   2.381  0.3394  0.0437  0.4120
  620MOL0     C83618   9.633   5.012   2.258 -0.8445 -0.2140  0.1897
  620MOL0     C83619   9.311   5.052   1.914  1.0601 -1.0788 -0.3209
  620MOL0     C83620   9.398   4.986   1.829  0.1524  1.0008  0.0560
  620MOL0     C83621   9.350   4.948   1.698  0.1662 -0.6087  0.7320
  620MOL0     C83622   9.223   4.994   1.646  1.6370  0.1142  0.3437
  620MOL0     O83623   9.173   4.992   1.520  0.4546  0.4060 -0.2182
  620MOL0     C83624   9.275   4.959   1.433  0.5348  1.0618  1.0108
  620MOL0     C83625   9.235   4.985   1.286  0.2429  0.1413 -0.7626
  620MOL0     C83626   9.088   4.949   1.254  0.6139  0.1369  0.0830
  620MOL0     C83627   9.043   5.000   1.113 -0.0327 -0.2482  0.0692
  620MOL0     C83628   8.927   4.940   1.053 -0.2015  1.0160 -0.2389
  620MOL0     C83629   8.825   4.888   1.005  0.4886  0.7401  1.2989
  620MOL0     C83630   9.136   5.038   1.748 -0.1314 -0.3063  0.6217
  620MOL0     C83631   9.177   5.075   1.869 -0.7513 -0.2250 -0.1434
  620MOL0     C83632   9.073   5.155   1.946  0.2003  0.1797  0.9453
  620MOL0     H83633   9.350   5.208   2.286 -1.0159 -1.8390 -0.9871
  620MOL0     H83634   9.440   5.246   2.497  0.4579  0.6314 -0.7333
  620MOL0     H83635   9.514   5.196   2.681  0.3304 -0.2444 -0.4286
  620MOL0     H83636   9.626   5.111   2.783  0.9436  0.0320 -0.2189
  620MOL0     H83637   9.772   5.305   2.807  1.0730  2.0111 -2.2153
  620MOL0     H83638   9.599   5.359   2.827  1.1355 -0.1106  1.2720
  620MOL0     H83639   9.697   5.523   2.690  0.7498 -0.1504  1.7343
  620MOL0     H83640   9.641   5.412   2.563 -0.5864  0.9652  1.0815
  620MOL0     H83641   9.918   5.438   2.679  0.9587 -3.1299  0.8962
  620MOL0     H83642   9.883   5.295   2.587 -1.3980 -0.0455 -0.6513
  620MOL0     H83643   9.851   5.574   2.462  3.4251  2.0629  0.5582
  620MOL0     H83644  10.006   5.501   2.474  0.7357 -0.4631  1.0848
  620MOL0     H83645   9.944   5.304   2.369  1.8345  1.8871 -0.1786
  620MOL0     H83646   9.780   5.348   2.333  0.0264 -0.2938  0.6193
  620MOL0     H83647  10.042   5.460   2.245 -0.8773  1.8129  3.4639
  620MOL0     H83648   9.908   5.564   2.205 -1.5044 -0.0592 -3.8272
  620MOL0     H83649   9.971   5.287   2.125  1.5734  1.0873  2.9698
  620MOL0     H83650   9.813   5.371   2.072 -0.2355  0.4519 -1.4696
  620MOL0     H83651   9.854   5.340   1.818 -0.4579  0.4813  1.7807
  620MOL0     H83652   9.952   5.389   1.575 -0.2665  2.2472  0.7698
  620MOL0     H83653  10.089   5.481   1.562  0.4017  0.3262  0.0281
  620MOL0     H83654  10.168   5.268   1.452 -2.3981 -6.0660 -0.5840
  620MOL0     H83655  10.234   5.274   1.615  1.7175 -3.3630 -2.2374
  620MOL0     H83656   9.966   5.142   1.614  1.0948  1.9937  1.0180
  620MOL0     H83657  10.107   5.099   1.689 -2.5784 -2.5989  1.1461
  620MOL0     H83658  10.089   4.923   1.511 -0.1034  0.0299 -0.1907
  620MOL0     H83659  10.230   5.030   1.485  0.9371  2.0931 -2.4849
  620MOL0     H83660  10.260   4.869   1.287 -1.7717  0.3708  2.6176
  620MOL0     H83661  10.235   4.692   1.123 -0.8279  0.7585 -4.7058
  620MOL0     H83662  10.090   4.550   0.732  0.0598 -1.0491 -1.6655
  620MOL0     H83663  10.040   4.368   0.569 -1.9464  1.7777  0.9086
  620MOL0     H83664   9.907   4.166   0.469  0.1646 -0.5027 -0.0824
  620MOL0     H83665  10.087   4.169   0.473  0.6904 -2.1578 -3.0270
  620MOL0     H83666   9.969   3.978   0.348 -1.4613  2.4919  0.5152
  620MOL0     H83667  10.105   3.937   0.458 -0.5018  1.5215  1.8173
  620MOL0     H83668   9.936   3.856   0.635 -3.0045 -0.8335  0.9031
  620MOL0     H83669   9.802   3.905   0.526  0.1018 -0.5030 -0.7994
  620MOL0     H83670   9.864   3.656   0.537  1.9859 -0.1058  1.3583
  620MOL0     H83671  10.027   3.709   0.475  1.2924  5.0745 -0.2789
  620MOL0     H83672   9.949   3.756   0.263  0.6195 -0.9355  1.6308
  620MOL0     H83673   9.787   3.739   0.305 -1.2104  0.5450 -0.1637
  620MOL0     H83674   9.822   3.486   0.375  0.9925  1.1226  2.4962
  620MOL0     H83675   9.820   3.536   0.199  2.1209 -0.0381 -0.6461
  620MOL0     H83676  10.064   3.494   0.365  2.7625  1.0474 -2.5582
  620MOL0     H83677  10.064   3.531   0.193  1.6583 -0.3498  0.4664
  620MOL0     H83678  10.123   3.308   0.219  0.0198  0.8516 -2.6875
  620MOL0     H83679   9.977   3.266   0.317  0.0393  2.1132  2.0605
  620MOL0     H83680  10.071   4.086   0.896  0.3301  0.0088  1.1648
  620MOL0     H83681  10.129   4.279   1.045  1.1254 -1.6116 -0.8180
  620MOL0     H83682   9.832   4.832   1.057 -0.4265  0.9307  1.1317
  620MOL0     H83683   9.859   5.008   1.202 -1.1480 -0.5992  0.6534
  620MOL0     H83684   9.769   4.983   2.431  0.6268 -1.2298 -1.1625
  620MOL0     H83685   9.680   4.950   2.182  1.0979 -0.5269  1.5754
  620MOL0     H83686   9.502   4.972   1.856 -0.6892 -1.8915  2.3117
  620MOL0     H83687   9.415   4.895   1.629  0.5814  0.7353  0.0621
  620MOL0     H83688   9.298   4.852   1.444 -0.1103  0.5235 -2.0333
  620MOL0     H83689   9.359   5.026   1.451  0.3680  1.5514  0.0056
  620MOL0     H83690   9.305   4.945   1.211 -1.2801 -0.4147 -1.9381
  620MOL0     H83691   9.249   5.093   1.279  0.8789  0.1747  0.6200
  620MOL0     H83692   9.028   4.979   1.340  2.8962  0.3770  1.6762
  620MOL0     H83693   9.080   4.842   1.232 -2.3506  0.5344 -1.1464
  620MOL0     H83694   9.033   5.109   1.109  1.9559  0.0681  1.7171
  620MOL0     H83695   9.124   4.966   1.048 -1.0051 -1.9696 -0.2875
  620MOL0     H83696   8.740   4.836   0.966  0.2636  2.2565 -0.3991
  620MOL0     H83697   9.041   5.086   1.725  1.7175  3.3597 -0.0410
  620MOL0     H83698   8.976   5.104   1.948 -1.1825  2.6100  0.0051
  620MOL0     H83699   9.115   5.190   2.041  1.1772  1.2233  0.1558
  620MOL0     H83700   9.051   5.249   1.895  3.7302  1.1803  0.9730
  621MOL0     O83701   6.332   2.734   9.750  0.1971 -0.3065  0.2691
  621MOL0     C83702   6.378   2.847   9.771  0.2532  0.4289  0.2909
  621MOL0     O83703   6.505   2.864   9.798 -0.6804 -0.2223 -0.5426
  621MOL0     C83704   6.586   2.755   9.783 -0.5775 -0.1005 -0.5450
  621MOL0     C83705   6.670   2.719   9.885  0.5365 -0.5307 -0.2016
  621MOL0     C83706   6.767   2.620   9.874  0.6611  0.7268 -0.0475
  621MOL0     C83707   6.779   2.538   9.765 -0.1569 -0.9022 -0.3706
  621MOL0     O83708   6.861   2.427   9.778 -0.2384  0.6774  0.2073
  621MOL0     C83709   6.792   2.301   9.731  0.6909 -0.6612 -0.2359
  621MOL0     C83710   6.852   2.190   9.824 -0.1985 -0.2447 -0.7312
  621MOL0     C83711   6.994   2.153   9.790 -0.3980  0.3108  0.5763
  621MOL0     C83712   7.046   2.025   9.861  0.1732  0.4498 -0.1799
  621MOL0     C83713   7.172   1.978   9.795  0.0851 -0.0691  0.3790
  621MOL0     C83714   7.195   1.831   9.821 -0.3065 -0.8325  0.1482
  621MOL0     C83715   7.242   1.802   9.964 -0.0963 -0.6743 -0.4627
  621MOL0     C83716   7.390   1.849   9.992 -0.3937 -0.4002  0.1878
  621MOL0     N83717   7.491   1.823   9.891  0.1165 -0.6754  0.1821
  621MOL0     C83718   7.566   1.917   9.822  0.4905  0.3256 -0.3921
  621MOL0     C83719   7.656   1.843   9.754 -0.8140  0.3742 -0.3999
  621MOL0     C83720   7.753   1.913   9.660 -0.0686 -0.8175  0.3785
  621MOL0     C83721   7.879   1.951   9.737 -0.1513  0.4687 -0.8056
  621MOL0     C83722   7.987   1.992   9.634  0.4373 -0.2173  0.5760
  621MOL0     C83723   8.036   1.873   9.537 -0.1385  0.1186 -1.1194
  621MOL0     O83724   8.144   1.931   9.461 -0.1843 -0.5247 -0.3751
  621MOL0     C83725   8.154   1.892   9.336  0.4523 -0.0267  0.3265
  621MOL0     C83726   8.136   1.975   9.219  0.8072  0.5841 -0.4456
  621MOL0     C83727   8.174   1.921   9.089  0.9664 -0.3650 -0.2007
  621MOL0     C83728   8.217   1.789   9.068  0.4524 -0.3353 -0.0489
  621MOL0     C83729   8.217   1.720   8.944  0.6424  0.2249 -0.5527
  621MOL0     O83730   8.250   1.587   8.939  0.0356 -0.0967  0.1575
  621MOL0     C83731   8.252   1.518   8.821 -0.8562 -0.0929 -0.9296
  621MOL0     C83732   8.295   1.566   8.699  0.0034 -0.0940  0.0408
  621MOL0     C83733   8.321   1.473   8.598  0.1034  0.1312  0.0549
  621MOL0     C83734   8.292   1.339   8.602 -0.9251  0.5252 -0.6065
  621MOL0     O83735   8.305   1.247   8.501  0.3848 -0.1313 -0.7248
  621MOL0     C83736   8.403   1.148   8.529 -0.7495  0.5179  0.0410
  621MOL0     C83737   8.459   1.070   8.397  0.1887  0.0007 -0.3645
  621MOL0     C83738   8.517   1.159   8.299 -0.1898 -0.4568  0.3578
  621MOL0     C83739   8.406   1.243   8.224 -0.2040  0.4150  0.3649
  621MOL0     C83740   8.431   1.259   8.080  0.2377  0.3160 -0.0801
  621MOL0     C83741   8.400   1.131   7.990 -0.6234  0.0907  0.5304
  621MOL0     C83742   8.260   1.081   7.995  0.1536 -0.4668 -0.2368
  621MOL0     C83743   8.227   0.986   7.881  0.5920  1.9022  0.0488
  621MOL0    Cl83744   8.314   0.826   7.886  0.1203 -0.0256  0.0683
  621MOL0     C83745   8.235   1.301   8.726 -0.6602 -1.1648 -0.0633
  621MOL0     C83746   8.204   1.384   8.836  0.0029  0.1803  0.6830
  621MOL0     O83747   8.165   1.776   8.846 -0.2026  0.0604 -0.5179
  621MOL0     C83748   8.228   1.712   9.178  0.4484  0.6798  0.0063
  621MOL0     C83749   8.202   1.763   9.308  0.0664 -1.0514  0.2663
  621MOL0     N83750   7.642   1.714   9.781 -0.6356  0.0696  0.3812
  621MOL0     N83751   7.535   1.700   9.859 -0.4896  0.0547 -0.1786
  621MOL0     C83752   6.710   2.582   9.645  0.3365  1.1189 -0.0795
  621MOL0     C83753   6.607   2.686   9.656 -0.1881 -0.6974 -0.0384
  621MOL0     C83754   6.273   2.950   9.780 -0.6596 -0.4215  0.3509
  621MOL0     C83755   6.136   2.903   9.789 -0.4455 -0.0772  0.1334
  621MOL0     C83756   6.037   2.997   9.799  1.0113  0.3879 -0.5969
  621MOL0     C83757   6.055   3.130   9.804 -0.2846  0.2984  0.1982
  621MOL0     O83758   5.940   3.200   9.822 -0.2937  0.2976 -0.0829
  621MOL0     C83759   5.952   3.345   9.828  0.1222  0.7331  0.2568
  621MOL0     C83760   5.978   3.388   9.977 -0.2743  0.5944  0.2371
  621MOL0     C83761   5.951   3.534   9.999  0.4007 -0.6637 -1.1339
  621MOL0     C83762   5.994   3.573  10.144 -0.4918  0.3268 -0.7690
  621MOL0     C83763   5.905   3.514  10.241  0.2712 -0.1869 -0.2955
  621MOL0     C83764   5.826   3.455  10.319 -1.1418 -0.2516  0.0424
  621MOL0     C83765   6.189   3.169   9.803 -0.2471  0.0439 -0.6255
  621MOL0     C83766   6.299   3.088   9.782  0.3612  0.0095  0.6589
  621MOL0     C83767   6.437   3.151   9.783 -0.4627 -0.7007 -0.5464
  621MOL0     H83768   6.648   2.782   9.970  1.9347  2.1352 -1.6519
  621MOL0     H83769   6.825   2.594   9.962 -0.2427  0.7781  0.5832
  621MOL0     H83770   6.686   2.308   9.755  0.7999 -0.1323  0.1265
  621MOL0     H83771   6.809   2.285   9.624  1.7537  0.0705 -0.1982
  621MOL0     H83772   6.801   2.094   9.817  1.7658 -1.3037 -1.2478
  621MOL0     H83773   6.844   2.225   9.927 -0.1789 -0.9247 -0.4910
  621MOL0     H83774   7.058   2.238   9.814  0.4845  1.1290 -3.8524
  621MOL0     H83775   7.004   2.147   9.681 -4.2963  0.3025  0.0711
  621MOL0     H83776   7.069   2.039   9.966 -0.5312 -1.1505  0.2156
  621MOL0     H83777   6.972   1.946   9.850 -1.1893  1.5366  0.8482
  621MOL0     H83778   7.149   1.986   9.688  0.5245 -0.5599  0.2438
  621MOL0     H83779   7.257   2.042   9.822 -0.4983  1.0441 -0.3184
  621MOL0     H83780   7.100   1.785   9.792 -1.4735  0.1210  2.2142
  621MOL0     H83781   7.268   1.794   9.749  0.4750 -1.7155  1.3514
  621MOL0     H83782   7.231   1.696   9.989 -0.8576 -0.2221  1.3052
  621MOL0     H83783   7.181   1.836  10.048  0.7142  0.5211 -0.3377
  621MOL0     H83784   7.393   1.956  10.014  0.5310 -1.0563  3.9474
  621MOL0     H83785   7.442   1.803  10.076  0.8333 -0.8205 -0.7697
  621MOL0     H83786   7.557   2.025   9.823  1.4077  0.4091 -0.7852
  621MOL0     H83787   7.771   1.843   9.578 -0.9323 -0.3677 -0.2102
  621MOL0     H83788   7.709   2.009   9.629  0.5670 -0.6602 -0.0580
  621MOL0     H83789   7.855   2.034   9.803  0.0766  0.2642 -0.4626
  621MOL0     H83790   7.907   1.864   9.798 -0.5301  0.4552 -0.6486
  621MOL0     H83791   8.071   2.045   9.679  0.2607  0.8523 -0.3219
  621MOL0     H83792   7.933   2.061   9.568  0.8726 -0.5720 -0.1620
  621MOL0     H83793   7.960   1.845   9.464  1.4475  2.1919 -3.7405
  621MOL0     H83794   8.066   1.789   9.601  2.4277  1.8209  0.0863
  621MOL0     H83795   8.100   2.077   9.229 -0.2948  0.0996  0.9942
  621MOL0     H83796   8.159   1.984   9.002  1.7374 -0.4747 -0.4199
  621MOL0     H83797   8.337   1.666   8.693 -2.5407  1.1304  1.1623
  621MOL0     H83798   8.373   1.507   8.510 -2.6548  2.2107 -0.9188
  621MOL0     H83799   8.483   1.195   8.587 -1.7202 -0.0739  1.9291
  621MOL0     H83800   8.357   1.068   8.588  0.3270 -0.7431 -0.7424
  621MOL0     H83801   8.530   0.990   8.419  2.2384  1.1848 -2.2939
  621MOL0     H83802   8.375   1.021   8.346 -0.1483 -1.5527  1.5601
  621MOL0     H83803   8.592   1.225   8.344  0.5771  1.6270 -3.4929
  621MOL0     H83804   8.574   1.097   8.230  0.0374  1.5818 -1.4150
  621MOL0     H83805   8.394   1.346   8.259 -2.2776  1.1140 -2.1216
  621MOL0     H83806   8.312   1.187   8.232  0.2817 -0.2397  1.7830
  621MOL0     H83807   8.536   1.287   8.067  0.0561  0.5282 -1.1908
  621MOL0     H83808   8.367   1.339   8.041  2.1169  2.7159  1.4382
  621MOL0     H83809   8.423   1.151   7.885  0.4006  3.9603  1.3210
  621MOL0     H83810   8.469   1.049   8.014 -0.3814 -0.9938 -3.2866
  621MOL0     H83811   8.197   1.168   7.977  2.9356  1.8296  0.3817
  621MOL0     H83812   8.248   1.024   8.088  1.2990  1.0008  0.8523
  621MOL0     H83813   8.118   0.975   7.882  0.7632 -0.0525  0.1200
  621MOL0     H83814   8.252   1.040   7.789  1.3050  0.7675 -0.4371
  621MOL0     H83815   8.215   1.195   8.739  1.9224 -1.3535  4.0459
  621MOL0     H83816   8.163   1.344   8.928 -3.7744 -0.8910 -1.2503
  621MOL0     H83817   8.252   1.606   9.178  2.1492  1.0244  1.1876
  621MOL0     H83818   8.223   1.689   9.385 -2.8735 -0.2767  2.0137
  621MOL0     H83819   6.731   2.520   9.558  5.2539  0.8625  1.0071
  621MOL0     H83820   6.544   2.714   9.572  1.5705  0.5731 -0.9851
  621MOL0     H83821   6.108   2.798   9.789  0.3856 -0.5046  5.0259
  621MOL0     H83822   5.935   2.962   9.803  0.5991  1.4804 -1.0729
  621MOL0     H83823   5.857   3.371   9.782  0.7403 -1.6819 -2.7216
  621MOL0     H83824   6.028   3.383   9.759 -2.6936 -0.9749 -4.1968
  621MOL0     H83825   6.083   3.363   9.998  0.0767  1.0743 -0.8732
  621MOL0     H83826   5.916   3.323  10.039 -2.2201  1.2380 -0.9402
  621MOL0     H83827   5.848   3.561   9.973  0.1561 -1.8663 -1.4989
  621MOL0     H83828   6.016   3.599   9.939  0.2411  0.9558  0.3936
  621MOL0     H83829   6.093   3.545  10.179 -2.1206 -2.5229  2.0528
  621MOL0     H83830   5.982   3.681  10.157  2.4430  0.5056  1.4119
  621MOL0     H83831   5.756   3.395  10.374 -0.4950 -0.6295  0.4666
  621MOL0     H83832   6.207   3.276   9.804 -2.5590  0.4861 -1.2961
  621MOL0     H83833   6.481   3.128   9.880 -0.4394 -0.3779 -0.4810
  621MOL0     H83834   6.506   3.101   9.715 -0.6406 -1.2703 -0.3148
  621MOL0     H83835   6.430   3.260   9.785 -1.6886 -0.7770  0.7112
  622MOL0     O83836   4.597   8.989   6.629 -0.8934  0.1935  0.1152
  622MOL0     C83837   4.718   9.009   6.664 -0.6507 -0.2440  0.5611
  622MOL0     O83838   4.756   9.023   6.799 -0.0909  0.8496  0.1086
  622MOL0     C83839   4.658   9.043   6.898 -0.5285  0.1505  0.1722
  622MOL0     C83840   4.603   9.163   6.928  0.0802 -0.5188  0.5495
  622MOL0     C83841   4.502   9.180   7.023 -0.3164 -0.0873  0.5978
  622MOL0     C83842   4.482   9.064   7.106  0.2647 -1.3419 -0.7600
  622MOL0     O83843   4.398   9.078   7.206 -0.0383  1.0514  0.0662
  622MOL0     C83844   4.297   8.976   7.215 -0.5866  0.1805 -0.6188
  622MOL0     C83845   4.198   9.006   7.340 -0.3007 -0.7923  0.2277
  622MOL0     C83846   4.172   9.164   7.354 -1.1511 -0.0396  0.7627
  622MOL0     C83847   4.072   9.182   7.459  0.5353  0.1175 -0.6491
  622MOL0     C83848   4.039   9.325   7.464  0.5781  1.5929  0.5173
  622MOL0     C83849   3.930   9.344   7.561 -1.5957  0.0110 -0.4035
  622MOL0     C83850   3.789   9.365   7.507  1.3213 -0.3155 -0.1852
  622MOL0     C83851   3.754   9.496   7.447 -0.5189  0.4148  0.5070
  622MOL0     N83852   3.742   9.603   7.546 -0.2355  0.7069  0.2441
  622MOL0     C83853   3.807   9.726   7.539 -0.3514 -0.0864  0.5457
  622MOL0     C83854   3.737   9.797   7.630  0.5524  0.5028  0.2403
  622MOL0     C83855   3.747   9.951   7.631  0.4764 -0.1062  0.7603
  622MOL0     C83856   3.605  10.012   7.580  0.1316  0.6583  0.9520
  622MOL0     C83857   3.625  10.163   7.531 -0.0851  0.4312 -0.1259
  622MOL0     C83858   3.511  10.216   7.442 -1.3750  0.7522  0.5580
  622MOL0     O83859   3.537  10.137   7.319  0.0597  0.2822  0.1492
  622MOL0     C83860   3.445  10.139   7.218 -0.0969  0.2569  0.5763
  622MOL0     C83861   3.483  10.087   7.097 -0.1424 -0.2155 -0.3230
  622MOL0     C83862   3.403  10.090   6.984  0.9046 -0.4909  0.4957
  622MOL0     C83863   3.269  10.139   6.991 -1.3834 -0.1563 -0.2822
  622MOL0     C83864   3.173  10.128   6.881 -0.5225 -0.1712  0.6075
  622MOL0     O83865   3.225  10.107   6.748  0.4930  1.0607 -0.8497
  622MOL0     C83866   3.126  10.109   6.651 -0.2438 -0.1992 -0.3129
  622MOL0     C83867   3.100  10.234   6.587  0.5941  0.0383  0.5018
  622MOL0     C83868   3.009  10.232   6.484  0.0972  0.0425  0.0136
  622MOL0     C83869   2.952  10.113   6.428  0.7459 -0.4715 -0.3151
  622MOL0     O83870   2.881  10.132   6.310  0.2198  0.6852  0.5185
  622MOL0     C83871   2.763  10.050   6.298 -0.0906  0.3574 -0.4427
  622MOL0     C83872   2.662  10.094   6.194  0.4410 -0.7591  0.2387
  622MOL0     C83873   2.602  10.234   6.232  0.7702 -0.0246  0.3182
  622MOL0     C83874   2.695  10.346   6.180 -0.0158 -0.4724  0.1379
  622MOL0     C83875   2.638  10.484   6.230 -0.1366 -0.2969  0.0324
  622MOL0     C83876   2.728  10.600   6.192 -0.3146 -0.0718 -0.8517
  622MOL0     C83877   2.663  10.733   6.255 -0.4382  1.5028 -0.0899
  622MOL0     C83878   2.689  10.844   6.162  0.7608 -0.1084  0.3860
  622MOL0    Cl83879   2.535  10.923   6.103 -0.2705  0.2518  0.2204
  622MOL0     C83880   2.968   9.994   6.496 -0.0757  0.0020 -0.2718
  622MOL0     C83881   3.058   9.990   6.608  0.3708 -0.1110  0.3824
  622MOL0     O83882   3.058  10.156   6.906  0.7090 -0.5204  1.1842
  622MOL0     C83883   3.227  10.193   7.121 -0.3309 -0.1428  0.3440
  622MOL0     C83884   3.315  10.187   7.228  0.0030 -0.3691  0.3501
  622MOL0     N83885   3.645   9.723   7.696  0.2439 -0.1019 -0.5936
  622MOL0     N83886   3.646   9.601   7.640  0.3312  0.1858  0.1131
  622MOL0     C83887   4.544   8.945   7.073  0.4642  0.7036  0.4066
  622MOL0     C83888   4.623   8.928   6.964 -0.1680 -0.8083 -0.5939
  622MOL0     C83889   4.820   9.055   6.566  0.7386 -0.0674  0.0808
  622MOL0     C83890   4.948   9.088   6.613 -0.4616  1.4670 -0.2415
  622MOL0     C83891   5.053   9.116   6.521  0.7526 -0.5448  0.2884
  622MOL0     C83892   5.025   9.141   6.386 -0.1783  1.3112 -0.7212
  622MOL0     O83893   5.135   9.186   6.322  0.3850  0.1038 -0.4416
  622MOL0     C83894   5.140   9.197   6.178 -0.5405 -0.2714 -0.8546
  622MOL0     C83895   5.159   9.060   6.111 -0.1478  0.1121 -1.3005
  622MOL0     C83896   5.184   9.082   5.961 -0.7342  0.3216  0.0769
  622MOL0     C83897   5.183   8.937   5.909 -0.0163 -0.0237  0.4392
  622MOL0     C83898   5.201   8.931   5.763  1.4470  0.5382  0.5301
  622MOL0     C83899   5.224   8.923   5.646  0.5851 -0.1443  0.3752
  622MOL0     C83900   4.904   9.116   6.337  0.7710  0.0108 -0.4698
  622MOL0     C83901   4.792   9.071   6.417 -0.4227 -1.0529  0.1093
  622MOL0     C83902   4.654   9.056   6.357 -0.0816  0.0379  0.4716
  622MOL0     H83903   4.640   9.244   6.867  1.4514 -1.0864  0.5741
  622MOL0     H83904   4.458   9.279   7.034  0.0646 -0.0349  1.7870
  622MOL0     H83905   4.232   8.962   7.128 -5.3908 -0.8055  2.7291
  622MOL0     H83906   4.350   8.884   7.241 -2.6347 -1.3093 -1.3810
  622MOL0     H83907   4.245   8.970   7.433  0.5028 -2.4817 -0.8000
  622MOL0     H83908   4.107   8.948   7.322 -0.0783 -1.4969  1.2386
  622MOL0     H83909   4.126   9.198   7.261  0.2530  2.1495  0.8020
  622MOL0     H83910   4.256   9.228   7.381 -2.1370  0.4198  2.9628
  622MOL0     H83911   3.978   9.131   7.433 -0.2442  2.3412 -2.6062
  622MOL0     H83912   4.112   9.151   7.556 -1.4313  0.4074  0.3094
  622MOL0     H83913   4.128   9.378   7.501  1.4191  0.7629 -0.2527
  622MOL0     H83914   4.013   9.382   7.374  2.3765  3.9614  1.3973
  622MOL0     H83915   3.926   9.273   7.645  2.0334  0.9296  0.7519
  622MOL0     H83916   3.965   9.436   7.608  1.1212 -0.2958 -1.6432
  622MOL0     H83917   3.710   9.345   7.580  2.3418  1.7246  1.5932
  622MOL0     H83918   3.767   9.285   7.436  0.7114  1.4219 -2.0525
  622MOL0     H83919   3.842   9.516   7.386  0.6873 -0.0951  2.0358
  622MOL0     H83920   3.663   9.491   7.385  0.2284 -0.0050 -0.5835
  622MOL0     H83921   3.872   9.765   7.461 -0.8720  0.9764  0.6190
  622MOL0     H83922   3.771   9.985   7.733 -0.8675 -0.1618  1.1234
  622MOL0     H83923   3.826   9.989   7.566 -0.8055 -0.2485 -0.9559
  622MOL0     H83924   3.570   9.952   7.496 -0.4104  1.4202  0.6186
  622MOL0     H83925   3.530   9.999   7.659 -0.1704  1.8488  0.8762
  622MOL0     H83926   3.715  10.172   7.471 -1.6067 -0.1914 -2.6588
  622MOL0     H83927   3.620  10.235   7.613 -0.2402  0.9181 -0.5599
  622MOL0     H83928   3.518  10.324   7.422  1.4136  0.4734 -0.4753
  622MOL0     H83929   3.411  10.200   7.483 -0.6142 -0.8080  1.9124
  622MOL0     H83930   3.583  10.046   7.093 -0.2476 -0.4606 -0.4367
  622MOL0     H83931   3.442  10.049   6.892 -1.7095 -1.3578 -0.3088
  622MOL0     H83932   3.140  10.325   6.629  0.7534  0.6076 -0.8189
  622MOL0     H83933   2.986  10.328   6.440 -1.5458  0.2853  1.2965
  622MOL0     H83934   2.803   9.953   6.266  0.5654 -0.0974  1.5977
  622MOL0     H83935   2.719  10.031   6.396  2.3656 -0.7665  0.5464
  622MOL0     H83936   2.703  10.105   6.093 -2.0493  0.3169 -0.7549
  622MOL0     H83937   2.586  10.015   6.183  0.1570 -0.6350  1.2201
  622MOL0     H83938   2.502  10.257   6.196  0.6550 -0.1345  0.5684
  622MOL0     H83939   2.600  10.250   6.340 -0.9148  1.7094  0.0770
  622MOL0     H83940   2.700  10.349   6.071  1.1214 -0.9675  0.1665
  622MOL0     H83941   2.796  10.332   6.220 -0.8626  0.7067  2.9504
  622MOL0     H83942   2.635  10.480   6.340 -0.5761 -2.8973 -0.0035
  622MOL0     H83943   2.542  10.519   6.190  0.3560  3.2846  1.6011
  622MOL0     H83944   2.833  10.583   6.215  0.6005  3.1893 -2.1321
  622MOL0     H83945   2.726  10.612   6.084  2.5366  1.6229 -0.8024
  622MOL0     H83946   2.708  10.746   6.354  0.4789  0.6256 -0.3668
  622MOL0     H83947   2.556  10.724   6.271 -0.2015 -0.9957  0.5354
  622MOL0     H83948   2.744  10.930   6.200 -2.0211  3.0405 -2.0970
  622MOL0     H83949   2.752  10.806   6.081 -0.0960 -4.0361  1.3350
  622MOL0     H83950   2.940   9.897   6.456 -2.4542  0.4279  0.2351
  622MOL0     H83951   3.069   9.891   6.651 -2.1716 -0.5560  0.1902
  622MOL0     H83952   3.124  10.221   7.139  0.5183  3.0039  0.9375
  622MOL0     H83953   3.275  10.233   7.318 -1.4457 -0.6517 -0.1248
  622MOL0     H83954   4.524   8.855   7.131  0.4849  0.0650 -0.5541
  622MOL0     H83955   4.670   8.836   6.932  0.0820 -1.0068  0.3281
  622MOL0     H83956   4.981   9.083   6.716  0.3739 -0.9031 -0.5537
  622MOL0     H83957   5.147   9.149   6.563  0.9206 -1.1202  0.3681
  622MOL0     H83958   5.231   9.250   6.149  2.4142 -3.1783  2.2476
  622MOL0     H83959   5.056   9.257   6.140 -0.8562 -1.0278 -1.3674
  622MOL0     H83960   5.064   9.007   6.129  1.5983 -2.4018  1.5728
  622MOL0     H83961   5.232   8.996   6.162  1.6863  1.1254 -2.5644
  622MOL0     H83962   5.281   9.132   5.958 -1.5280  1.8856 -1.9422
  622MOL0     H83963   5.111   9.144   5.908  0.2192  0.3828 -1.2014
  622MOL0     H83964   5.255   8.873   5.961  0.9158  0.5039 -0.1721
  622MOL0     H83965   5.089   8.893   5.945 -0.2111 -0.2468 -0.3277
  622MOL0     H83966   5.243   8.915   5.541 -1.0028  0.5052  0.0069
  622MOL0     H83967   4.889   9.110   6.229  1.9905 -5.4631 -0.6107
  622MOL0     H83968   4.571   9.114   6.398  0.1345 -0.1047  1.1246
  622MOL0     H83969   4.654   9.089   6.253  2.1861 -3.2582 -0.7489
  622MOL0     H83970   4.630   8.950   6.342  1.6573 -0.5677  1.6745
  623MOL0     O83971   0.747   7.294   0.192  0.2130 -0.5558  0.1837
  623MOL0     C83972   0.649   7.316   0.127  0.4432  0.4962 -0.0055
  623MOL0     O83973   0.573   7.430   0.140  0.3209 -0.2892 -0.2505
  623MOL0     C83974   0.594   7.518   0.241  1.1511 -0.4122  0.3564
  623MOL0     C83975   0.716   7.585   0.261  0.5811 -0.3614  0.8210
  623MOL0     C83976   0.727   7.680   0.365 -0.0470  0.3158  0.3784
  623MOL0     C83977   0.611   7.701   0.445  0.1138 -0.1634 -0.1431
  623MOL0     O83978   0.609   7.819   0.529  0.5134  0.1842 -0.3966
  623MOL0     C83979   0.715   7.913   0.529  0.0676  0.1327  0.4097
  623MOL0     C83980   0.665   8.036   0.617 -0.8081  0.4434 -0.3630
  623MOL0     C83981   0.571   8.134   0.546  0.9576  0.0249  0.3029
  623MOL0     C83982   0.583   8.270   0.624 -0.0972  1.1120  0.6919
  623MOL0     C83983   0.526   8.382   0.534 -0.3069 -0.2505 -0.7441
  623MOL0     C83984   0.482   8.512   0.609  0.3054 -0.1931  0.8136
  623MOL0     C83985   0.593   8.555   0.714  0.8726  0.7079  0.5919
  623MOL0     C83986   0.573   8.699   0.761 -0.2535  0.8773  0.4774
  623MOL0     N83987   0.612   8.719   0.897 -0.0304 -0.5063  0.9082
  623MOL0     C83988   0.735   8.779   0.924 -0.4282 -1.1077 -0.3719
  623MOL0     C83989   0.729   8.802   1.056 -0.3771 -0.2336 -0.7260
  623MOL0     C83990   0.838   8.882   1.142 -0.0880 -0.1297  0.7442
  623MOL0     C83991   0.915   8.790   1.232 -0.0172  0.4282 -0.3884
  623MOL0     C83992   0.829   8.761   1.354  0.2527 -0.1567 -0.4088
  623MOL0     C83993   0.904   8.692   1.465 -0.7789 -0.1542 -0.5692
  623MOL0     O83994   1.009   8.781   1.504 -0.1764 -0.3142 -0.7410
  623MOL0     C83995   1.091   8.744   1.605 -0.0023  0.5340 -0.0025
  623MOL0     C83996   1.205   8.827   1.619  1.2990  0.1736 -0.0128
  623MOL0     C83997   1.305   8.795   1.706 -0.9613 -0.0147 -0.2242
  623MOL0     C83998   1.295   8.681   1.796 -0.3902 -0.2773 -0.3174
  623MOL0     C83999   1.395   8.645   1.892  0.6876 -0.1941 -0.8824
  623MOL0     O84000   1.362   8.548   1.980 -0.0060 -1.0274  0.3866
  623MOL0     C84001   1.450   8.505   2.071 -1.1324 -0.5279  0.3987
  623MOL0     C84002   1.494   8.381   2.058 -0.0419 -0.2899 -0.3618
  623MOL0     C84003   1.562   8.321   2.167  0.4445 -0.1599 -1.2310
  623MOL0     C84004   1.588   8.390   2.289 -1.0296  0.9956 -0.6835
  623MOL0     O84005   1.648   8.305   2.383 -0.2198  0.8851  0.2303
  623MOL0     C84006   1.701   8.378   2.497 -0.5135 -0.1344 -0.1926
  623MOL0     C84007   1.764   8.279   2.606 -0.1159 -0.7112  1.1348
  623MOL0     C84008   1.660   8.246   2.717 -0.4662  0.1660  0.1104
  623MOL0     C84009   1.729   8.217   2.853 -0.6173 -0.8021  0.0259
  623MOL0     C84010   1.623   8.174   2.956  0.8859 -0.1425  0.5417
  623MOL0     C84011   1.669   8.133   3.094 -0.2173  0.3722 -0.0076
  623MOL0     C84012   1.720   8.241   3.178  0.7421  0.2201 -1.1826
  623MOL0     C84013   1.779   8.186   3.316  0.0992 -0.1840 -0.1604
  623MOL0    Cl84014   1.808   8.318   3.434  0.1610 -0.1393  0.1998
  623MOL0     C84015   1.546   8.520   2.300 -0.5155 -0.4820 -0.5857
  623MOL0     C84016   1.474   8.574   2.186  0.9271 -0.0477 -0.1967
  623MOL0     O84017   1.500   8.699   1.874  0.3176  0.4610 -0.3720
  623MOL0     C84018   1.178   8.610   1.791 -0.0118  0.7753  0.9301
  623MOL0     C84019   1.079   8.635   1.689 -0.8425  0.9374 -0.3616
  623MOL0     N84020   0.617   8.732   1.111 -0.3823  0.3816  0.4856
  623MOL0     N84021   0.549   8.683   1.012 -0.2373 -0.2540  0.6437
  623MOL0     C84022   0.494   7.629   0.436 -0.6680 -0.4642  0.1064
  623MOL0     C84023   0.481   7.534   0.340 -0.6779 -0.3093 -0.1434
  623MOL0     C84024   0.626   7.226   0.024  0.9339 -0.4883  0.9264
  623MOL0     C84025   0.553   7.115   0.044 -0.4450 -0.4601 -0.2717
  623MOL0     C84026   0.551   7.026  -0.054  0.1380 -0.0736 -0.9883
  623MOL0     C84027   0.600   7.042  -0.182  0.3201 -0.3881 -1.0801
  623MOL0     O84028   0.586   6.939  -0.270 -0.4467 -0.1914 -0.8047
  623MOL0     C84029   0.650   6.960  -0.400 -0.3475 -1.0023 -0.3161
  623MOL0     C84030   0.640   6.821  -0.472  0.2731  0.2894 -0.4574
  623MOL0     C84031   0.515   6.807  -0.557 -0.9884  0.3716 -0.3867
  623MOL0     C84032   0.385   6.770  -0.485 -0.4595 -0.0697  0.2396
  623MOL0     C84033   0.273   6.789  -0.577  0.3692 -0.5195 -0.9118
  623MOL0     C84034   0.184   6.793  -0.662 -0.5393  0.0421 -0.6169
  623MOL0     C84035   0.661   7.165  -0.203 -1.2278 -0.2562  0.5927
  623MOL0     C84036   0.675   7.263  -0.108 -0.0716  0.7228 -0.2620
  623MOL0     C84037   0.737   7.394  -0.140  0.0461  0.2447  0.2509
  623MOL0     H84038   0.798   7.564   0.193 -1.7590 -1.7375 -1.7784
  623MOL0     H84039   0.817   7.740   0.375  2.3387 -2.6008 -1.7657
  623MOL0     H84040   0.798   7.862   0.579  2.1173 -0.5035 -3.3151
  623MOL0     H84041   0.743   7.957   0.433  1.0243 -2.0588 -0.3825
  623MOL0     H84042   0.750   8.093   0.654  0.3745 -1.7252  0.3861
  623MOL0     H84043   0.610   7.994   0.701 -1.0573  0.7310 -0.3776
  623MOL0     H84044   0.471   8.094   0.561  2.0102 -2.2506  1.9984
  623MOL0     H84045   0.584   8.137   0.438 -1.7853 -0.2875 -0.1044
  623MOL0     H84046   0.516   8.262   0.710 -0.3130 -0.5776  0.4005
  623MOL0     H84047   0.686   8.291   0.654  1.1984 -1.2641 -1.6384
  623MOL0     H84048   0.598   8.423   0.462 -1.0255  1.6030 -0.4542
  623MOL0     H84049   0.446   8.344   0.470 -1.6352  0.9607  0.1225
  623MOL0     H84050   0.476   8.590   0.533  1.2789 -0.1832  0.7313
  623MOL0     H84051   0.386   8.510   0.661 -1.1310 -1.3957 -1.6646
  623MOL0     H84052   0.695   8.542   0.677 -0.3034  1.8983 -3.6070
  623MOL0     H84053   0.567   8.482   0.792 -2.1722 -0.5020 -1.3537
  623MOL0     H84054   0.617   8.765   0.686 -2.3192  0.0163 -1.6345
  623MOL0     H84055   0.468   8.726   0.750 -0.6423 -0.8320 -0.3480
  623MOL0     H84056   0.811   8.818   0.857 -0.7890 -0.2557 -0.3036
  623MOL0     H84057   0.908   8.935   1.077 -2.9414  2.3069 -0.5730
  623MOL0     H84058   0.781   8.963   1.187 -2.5042 -0.9904 -0.5448
  623MOL0     H84059   0.945   8.691   1.195  0.0137  0.4674 -0.4708
  623MOL0     H84060   1.005   8.851   1.245 -0.6176  0.8724  2.0953
  623MOL0     H84061   0.740   8.704   1.324 -0.3502  0.0880  0.8782
  623MOL0     H84062   0.802   8.859   1.392 -0.0151  0.4821 -2.1324
  623MOL0     H84063   0.947   8.601   1.421 -1.8005 -0.0366 -1.8961
  623MOL0     H84064   0.833   8.659   1.541 -2.5629  3.0814 -0.6646
  623MOL0     H84065   1.211   8.920   1.565  1.1100  0.4989  0.5229
  623MOL0     H84066   1.392   8.859   1.716 -0.0101 -1.1888 -0.7736
  623MOL0     H84067   1.472   8.323   1.969  1.3564 -0.7206 -0.4433
  623MOL0     H84068   1.597   8.222   2.141  2.9711 -0.0534  1.3133
  623MOL0     H84069   1.784   8.440   2.460  2.4531 -2.1696  2.5281
  623MOL0     H84070   1.615   8.434   2.535 -1.8818 -2.2456  0.0073
  623MOL0     H84071   1.792   8.183   2.563 -0.2415 -0.7395  1.1164
  623MOL0     H84072   1.862   8.308   2.646  0.4971 -0.3596 -0.5700
  623MOL0     H84073   1.588   8.329   2.723 -1.0474 -0.0555 -2.4865
  623MOL0     H84074   1.594   8.161   2.695 -1.3047  0.8007  0.1031
  623MOL0     H84075   1.787   8.308   2.867 -1.5714 -0.1045 -0.3861
  623MOL0     H84076   1.808   8.142   2.846 -0.8000 -1.1421  1.4258
  623MOL0     H84077   1.555   8.092   2.931  2.5799 -1.3374 -0.4159
  623MOL0     H84078   1.554   8.258   2.969  1.4994  0.4224  0.2368
  623MOL0     H84079   1.581   8.086   3.140 -0.9526 -0.0933 -1.8204
  623MOL0     H84080   1.743   8.052   3.092 -1.8301 -1.2085  1.0407
  623MOL0     H84081   1.627   8.291   3.207  0.4042 -0.0017 -1.8604
  623MOL0     H84082   1.799   8.305   3.138  2.6817 -1.3981 -0.1494
  623MOL0     H84083   1.736   8.092   3.353  1.5737 -0.8776 -0.1082
  623MOL0     H84084   1.885   8.158   3.307  0.0124 -0.0667 -1.8647
  623MOL0     H84085   1.546   8.586   2.386 -0.4950  0.7517 -1.5010
  623MOL0     H84086   1.425   8.670   2.192  1.6096  0.6184 -3.7152
  623MOL0     H84087   1.147   8.523   1.847 -4.0388  3.4118  3.3095
  623MOL0     H84088   1.002   8.560   1.703  0.4995 -0.3845  0.1018
  623MOL0     H84089   0.414   7.663   0.500  0.6341  1.7100  0.6564
  623MOL0     H84090   0.388   7.478   0.337 -1.1754  0.1798  3.1541
  623MOL0     H84091   0.507   7.103   0.141 -0.9081 -0.4873 -0.4920
  623MOL0     H84092   0.495   6.937  -0.026  0.2258  0.0719 -0.3427
  623MOL0     H84093   0.758   6.972  -0.386  0.3244 -5.0589 -0.6004
  623MOL0     H84094   0.605   7.036  -0.463  2.3781  1.0366  0.0169
  623MOL0     H84095   0.648   6.739  -0.399  2.6075 -1.1233 -2.1685
  623MOL0     H84096   0.721   6.800  -0.543 -0.1933 -1.7141 -0.4644
  623MOL0     H84097   0.530   6.725  -0.628  0.5348 -1.4527  1.9056
  623MOL0     H84098   0.496   6.901  -0.611 -2.5229  0.9215  1.0110
  623MOL0     H84099   0.396   6.666  -0.451 -0.0634  0.7163  2.7410
  623MOL0     H84100   0.379   6.842  -0.403 -0.0387  1.5576 -1.1109
  623MOL0     H84101   0.093   6.802  -0.717 -1.0825  0.2502  0.2982
  623MOL0     H84102   0.685   7.203  -0.301 -1.4441  0.2720  0.7421
  623MOL0     H84103   0.800   7.379  -0.228 -0.0131 -0.3606  0.3129
  623MOL0     H84104   0.651   7.454  -0.170  0.2534  0.1988 -0.4561
  623MOL0     H84105   0.780   7.436  -0.049  0.8995 -1.0653  0.4732
  624MOL0     O84106   1.656   3.601   4.523 -0.3913 -0.0002 -0.6083
  624MOL0     C84107   1.767   3.649   4.546  0.1708 -0.6725 -0.8071
  624MOL0     O84108   1.791   3.758   4.623 -0.1458 -0.4006 -0.1444
  624MOL0     C84109   1.694   3.794   4.712 -1.0167  0.1083  0.0333
  624MOL0     C84110   1.678   3.929   4.748  0.2895 -0.8369  0.0647
  624MOL0     C84111   1.600   3.968   4.854 -0.2266  0.8802 -0.7673
  624MOL0     C84112   1.539   3.871   4.930  0.5796  0.8144 -0.1402
  624MOL0     O84113   1.477   3.909   5.043 -0.4727 -0.2968 -0.1761
  624MOL0     C84114   1.334   3.943   5.021  0.1509 -1.4040 -0.1518
  624MOL0     C84115   1.245   3.811   5.003 -0.2884 -1.1600 -1.0061
  624MOL0     C84116   1.227   3.767   4.862 -0.4338  0.1448  0.9510
  624MOL0     C84117   1.131   3.650   4.846 -0.2137  0.2787  0.0827
  624MOL0     C84118   1.132   3.600   4.704  0.1305  0.0646  0.7311
  624MOL0     C84119   1.259   3.516   4.681  0.4383 -0.4628 -0.5173
  624MOL0     C84120   1.248   3.445   4.544 -1.0481 -0.6831  0.5782
  624MOL0     C84121   1.309   3.527   4.429  0.4647 -0.2805 -0.2163
  624MOL0     N84122   1.271   3.472   4.298  0.7672 -0.1927 -0.1822
  624MOL0     C84123   1.139   3.419   4.270 -0.6177 -0.3709 -0.5310
  624MOL0     C84124   1.135   3.422   4.133  0.3197  0.3932  0.9334
  624MOL0     C84125   1.018   3.415   4.040  0.5172 -0.2886  0.0437
  624MOL0     C84126   0.905   3.311   4.064  0.7900 -0.6550  1.0096
  624MOL0     C84127   0.945   3.154   4.048  0.8109 -0.2401 -0.1469
  624MOL0     C84128   1.057   3.103   4.143  0.9638 -0.7906 -1.6877
  624MOL0     O84129   0.993   3.097   4.271 -0.0151 -0.7603 -0.1001
  624MOL0     C84130   1.034   3.011   4.373 -0.6821 -0.2997  0.1491
  624MOL0     C84131   1.150   2.937   4.384 -1.2675 -0.1460 -0.6353
  624MOL0     C84132   1.164   2.852   4.500 -1.2636 -0.3568 -0.1991
  624MOL0     C84133   1.066   2.857   4.609 -0.2895 -0.8098 -0.1937
  624MOL0     C84134   1.095   2.780   4.732  0.5307  0.3462  0.1940
  624MOL0     O84135   1.007   2.787   4.827 -0.0336 -0.1416 -0.3993
  624MOL0     C84136   1.023   2.693   4.930  0.3373 -0.2328 -0.2974
  624MOL0     C84137   0.950   2.572   4.928 -0.4877 -0.5410 -1.1776
  624MOL0     C84138   0.967   2.479   5.028 -0.8694 -0.5157 -0.2465
  624MOL0     C84139   1.039   2.518   5.144 -0.9646  0.3004 -0.0774
  624MOL0     O84140   1.078   2.428   5.243 -0.0534 -0.6653 -0.6625
  624MOL0     C84141   0.986   2.321   5.260 -1.4386  0.0004 -0.3280
  624MOL0     C84142   0.999   2.286   5.409 -0.1012 -0.8783  0.2401
  624MOL0     C84143   0.973   2.140   5.437 -0.7040 -0.0860 -0.4814
  624MOL0     C84144   0.949   2.122   5.595  0.7012  0.0384 -0.0368
  624MOL0     C84145   1.075   2.142   5.672 -0.2200 -0.4697 -0.0908
  624MOL0     C84146   1.182   2.036   5.666 -0.1544 -0.9712  0.6012
  624MOL0     C84147   1.265   2.025   5.794  0.7102  0.0594 -0.0297
  624MOL0     C84148   1.318   1.891   5.812 -0.1606  0.2022 -0.4749
  624MOL0    Cl84149   1.196   1.762   5.822 -0.0097  0.1517  0.1175
  624MOL0     C84150   1.098   2.644   5.159  0.1167 -0.0475  1.1751
  624MOL0     C84151   1.095   2.723   5.038 -0.3406 -0.6097 -0.6987
  624MOL0     O84152   1.199   2.712   4.740  0.5440 -0.2944 -0.3821
  624MOL0     C84153   0.951   2.930   4.583 -0.3012  0.2617  0.3425
  624MOL0     C84154   0.931   2.994   4.467 -0.6946 -0.5949  0.4904
  624MOL0     N84155   1.265   3.448   4.089 -0.9950 -0.3757 -0.6861
  624MOL0     N84156   1.348   3.476   4.184  0.1396 -0.7668  1.1062
  624MOL0     C84157   1.572   3.734   4.904  0.3567  0.0294 -0.1328
  624MOL0     C84158   1.638   3.699   4.796  0.2302  0.1451 -0.0224
  624MOL0     C84159   1.891   3.573   4.499  0.5448 -0.9618 -0.3593
  624MOL0     C84160   2.009   3.606   4.572  0.9667  0.5476  0.2420
  624MOL0     C84161   2.119   3.531   4.550  1.0523 -0.5672  0.2723
  624MOL0     C84162   2.122   3.417   4.472  0.6882 -0.5853  0.6555
  624MOL0     O84163   2.236   3.346   4.450  0.9701  0.1323  0.0302
  624MOL0     C84164   2.319   3.338   4.564 -0.5695  0.6408 -0.2497
  624MOL0     C84165   2.416   3.223   4.547 -0.5820  0.3247  0.2012
  624MOL0     C84166   2.465   3.191   4.407  0.2137  0.1351 -0.0556
  624MOL0     C84167   2.583   3.094   4.398 -0.1209  0.2117 -0.5576
  624MOL0     C84168   2.541   2.954   4.424  0.0553  0.5741 -0.1381
  624MOL0     C84169   2.505   2.835   4.430 -0.4836 -0.1274 -0.4718
  624MOL0     C84170   2.009   3.391   4.398 -0.7111  0.4893  0.4391
  624MOL0     C84171   1.891   3.458   4.421 -0.7115  0.3219  0.0684
  624MOL0     C84172   1.772   3.428   4.342 -0.4619  0.0621  0.2072
  624MOL0     H84173   1.735   3.987   4.676  0.5703  0.7688  1.5368
  624MOL0     H84174   1.591   4.071   4.887  0.4868  1.5008 -2.4313
  624MOL0     H84175   1.307   3.998   5.112  2.1520  0.4322 -0.5897
  624MOL0     H84176   1.298   4.013   4.945 -2.2600 -0.2574  1.9020
  624MOL0     H84177   1.145   3.845   5.033  0.0610  1.9795 -2.9706
  624MOL0     H84178   1.275   3.730   5.070 -2.6281 -1.7565 -0.5598
  624MOL0     H84179   1.322   3.757   4.808  0.2150  1.1335  1.8727
  624MOL0     H84180   1.170   3.849   4.817 -0.2459  0.0405  0.5188
  624MOL0     H84181   1.172   3.571   4.910 -2.4484 -1.1566 -0.1446
  624MOL0     H84182   1.036   3.681   4.890  1.5922  2.4868  2.7741
  624MOL0     H84183   1.039   3.547   4.682  0.3992 -1.3575  2.8255
  624MOL0     H84184   1.133   3.689   4.639 -1.8937  0.7604  1.5429
  624MOL0     H84185   1.354   3.571   4.679  1.4921 -2.0185  1.7049
  624MOL0     H84186   1.265   3.444   4.763  0.1011  2.6489  2.4447
  624MOL0     H84187   1.144   3.418   4.526 -2.9633  2.8895  4.6001
  624MOL0     H84188   1.302   3.350   4.550 -2.4817 -1.4475  4.5454
  624MOL0     H84189   1.268   3.628   4.423 -1.1553 -0.9434 -0.9616
  624MOL0     H84190   1.418   3.532   4.443  0.4336 -3.0307  1.9301
  624MOL0     H84191   1.052   3.396   4.331 -0.7441  0.1239 -0.5243
  624MOL0     H84192   0.976   3.514   4.059 -1.4681 -0.6914 -1.8603
  624MOL0     H84193   1.056   3.415   3.937  0.1192  4.0656 -0.2862
  624MOL0     H84194   0.849   3.320   4.158 -1.9822 -1.4235 -0.4555
  624MOL0     H84195   0.825   3.334   3.993  1.7541 -1.4082 -0.3382
  624MOL0     H84196   0.974   3.141   3.944 -1.6758 -0.0299 -0.9417
  624MOL0     H84197   0.852   3.098   4.064 -0.4739  1.7190 -0.2743
  624MOL0     H84198   1.150   3.161   4.137  0.0832  0.4928 -4.1808
  624MOL0     H84199   1.082   2.997   4.134  1.3875 -1.2308  2.6029
  624MOL0     H84200   1.222   2.955   4.305 -1.2772 -1.4764 -0.9673
  624MOL0     H84201   1.258   2.799   4.511  0.0686  1.4921 -1.9551
  624MOL0     H84202   0.889   2.540   4.844  0.4132  0.9793 -2.4685
  624MOL0     H84203   0.930   2.378   5.017 -1.9983 -0.2525  1.0077
  624MOL0     H84204   0.881   2.349   5.243 -0.9728  0.6893 -2.3223
  624MOL0     H84205   1.018   2.238   5.196  1.5699 -1.3762  2.6526
  624MOL0     H84206   1.099   2.309   5.448  0.3018 -1.2033 -0.5942
  624MOL0     H84207   0.941   2.351   5.475  1.6834 -0.0074  1.0366
  624MOL0     H84208   0.875   2.114   5.397 -1.0761  2.2414 -1.2484
  624MOL0     H84209   1.056   2.084   5.394  0.8981  0.4613  1.7109
  624MOL0     H84210   0.907   2.025   5.621  0.4961  0.5073  1.4819
  624MOL0     H84211   0.873   2.186   5.641 -0.9127 -2.0279  0.3039
  624MOL0     H84212   1.030   2.128   5.771 -2.4050 -1.3546 -1.1475
  624MOL0     H84213   1.120   2.236   5.641 -3.6102  1.1095 -0.6179
  624MOL0     H84214   1.142   1.936   5.650  3.1710 -2.0575 -2.3547
  624MOL0     H84215   1.240   2.066   5.577  0.0300  2.4682  1.7403
  624MOL0     H84216   1.204   2.036   5.884 -3.0941 -0.8383 -2.2461
  624MOL0     H84217   1.347   2.096   5.809 -0.9634  2.4299 -1.3814
  624MOL0     H84218   1.391   1.861   5.736  1.2613 -1.0463  1.3121
  624MOL0     H84219   1.380   1.890   5.902  0.2474 -1.0044 -0.7449
  624MOL0     H84220   1.164   2.660   5.244  1.0325 -2.6090  1.0239
  624MOL0     H84221   1.145   2.820   5.035 -0.9889 -0.2707 -0.6786
  624MOL0     H84222   0.884   2.926   4.668 -1.9710 -0.8824 -0.9728
  624MOL0     H84223   0.847   3.062   4.453  0.6628  1.0507  0.0403
  624MOL0     H84224   1.527   3.658   4.966 -0.0377 -1.0289 -1.6715
  624MOL0     H84225   1.656   3.594   4.774  0.7057 -0.3913  2.5527
  624MOL0     H84226   2.013   3.699   4.628  1.3471  1.9252 -1.9789
  624MOL0     H84227   2.192   3.581   4.612 -1.7386  1.7417  1.9316
  624MOL0     H84228   2.267   3.315   4.657 -2.4282  1.3550 -1.0570
  624MOL0     H84229   2.376   3.431   4.566 -1.9208  1.5624 -2.0110
  624MOL0     H84230   2.372   3.129   4.582  1.3343 -0.2616  1.1519
  624MOL0     H84231   2.507   3.246   4.602 -1.6218  4.3984  0.5070
  624MOL0     H84232   2.486   3.285   4.355  1.1038  1.3609  2.3581
  624MOL0     H84233   2.387   3.137   4.354 -1.1337  2.7649 -0.9310
  624MOL0     H84234   2.608   3.101   4.292  1.7132  2.6370 -0.0580
  624MOL0     H84235   2.669   3.131   4.454 -0.1618  1.7642 -1.4605
  624MOL0     H84236   2.480   2.731   4.435  1.0579 -0.4879  0.6697
  624MOL0     H84237   2.010   3.306   4.330  2.8116 -2.5023  3.8227
  624MOL0     H84238   1.694   3.385   4.405  0.8358 -1.1366  1.0521
  624MOL0     H84239   1.749   3.522   4.290  0.1225 -0.3489 -0.8132
  624MOL0     H84240   1.802   3.355   4.267 -0.2923 -0.2790  0.6053
  625MOL0     O84241   5.962  10.222   0.708  0.7500 -0.2482  0.3404
  625MOL0     C84242   6.047  10.172   0.636  0.1008  1.1995  0.3426
  625MOL0     O84243   6.185  10.180   0.653 -0.3400 -0.3621 -0.5387
  625MOL0     C84244   6.231  10.263   0.747 -0.2156  0.1456  0.1139
  625MOL0     C84245   6.289  10.384   0.722  0.4820 -0.5370  0.6262
  625MOL0     C84246   6.333  10.475   0.827 -0.4410  0.8230  0.0877
  625MOL0     C84247   6.340  10.423   0.954 -0.0655 -0.8159  0.2545
  625MOL0     O84248   6.385  10.514   1.046 -0.7782  0.1991 -0.6331
  625MOL0     C84249   6.287  10.536   1.152  0.1663  0.5790  0.7827
  625MOL0     C84250   6.305  10.674   1.217  0.2135  0.6305  0.0359
  625MOL0     C84251   6.388  10.783   1.136  0.3596  1.0321  0.0544
  625MOL0     C84252   6.366  10.924   1.200 -0.2442 -0.1035 -0.0279
  625MOL0     C84253   6.410  10.942   1.338 -0.1964  0.0388 -0.5733
  625MOL0     C84254   6.431  11.096   1.368  0.1515 -0.7237 -0.5225
  625MOL0     C84255   6.462  11.130   1.509  0.0831 -0.4802 -0.2607
  625MOL0     C84256   6.593  11.070   1.567  1.1362  0.5708 -0.0035
  625MOL0     N84257   6.718  11.133   1.540  0.3068  0.0161 -0.7512
  625MOL0     C84258   6.821  11.155   1.633  0.0919  0.4248  0.5286
  625MOL0     C84259   6.916  11.227   1.557  0.5293  0.2023  0.6228
  625MOL0     C84260   7.060  11.274   1.607  0.0443  0.0501 -0.4249
  625MOL0     C84261   7.116  11.395   1.533  0.5575  0.0199  0.0158
  625MOL0     C84262   7.033  11.520   1.533  0.5050 -0.8701 -0.0330
  625MOL0     C84263   7.111  11.631   1.465 -0.2804 -0.2310 -0.3775
  625MOL0     O84264   7.028  11.743   1.423  0.2888  0.3917  0.1956
  625MOL0     C84265   7.082  11.866   1.469  0.2367  0.4433 -0.7771
  625MOL0     C84266   7.037  11.918   1.596 -0.2496  0.0818  0.5592
  625MOL0     C84267   7.077  12.043   1.635 -0.3270 -0.2932  0.4208
  625MOL0     C84268   7.170  12.107   1.551 -0.7565 -0.3827  0.8785
  625MOL0     C84269   7.210  12.248   1.595 -0.1524  0.1764  0.6878
  625MOL0     O84270   7.163  12.283   1.715 -0.5236 -0.8939  0.4786
  625MOL0     C84271   7.212  12.405   1.753  0.3727  0.1489  1.1039
  625MOL0     C84272   7.319  12.407   1.834 -0.4242 -0.6954  0.8024
  625MOL0     C84273   7.376  12.526   1.874 -0.6855 -0.0989 -0.4740
  625MOL0     C84274   7.306  12.645   1.851  0.0966  0.6694 -0.1495
  625MOL0     O84275   7.349  12.762   1.892 -0.1624  0.0459 -0.5628
  625MOL0     C84276   7.339  12.781   2.034 -0.2723 -0.0968 -0.4600
  625MOL0     C84277   7.250  12.902   2.081  0.0750  0.4331 -0.4599
  625MOL0     C84278   7.103  12.852   2.106 -0.3350  0.6867 -1.1557
  625MOL0     C84279   7.044  12.892   2.237  0.1770  1.3125 -0.1738
  625MOL0     C84280   6.894  12.889   2.237  0.7843 -0.2305  0.7418
  625MOL0     C84281   6.851  12.865   2.382  1.3366 -0.2489 -0.5122
  625MOL0     C84282   6.696  12.847   2.375  0.4639  0.1096 -0.1708
  625MOL0     C84283   6.631  12.868   2.511  0.7096  0.1965 -0.3032
  625MOL0    Cl84284   6.656  12.740   2.635  0.4104 -0.1317  0.0253
  625MOL0     C84285   7.194  12.643   1.766  0.9227  1.3280  0.4769
  625MOL0     C84286   7.140  12.522   1.724  0.1948 -0.2567 -0.1132
  625MOL0     O84287   7.281  12.315   1.518 -0.7364  0.2113 -0.6684
  625MOL0     C84288   7.217  12.062   1.426 -0.4409 -0.6599  0.7438
  625MOL0     C84289   7.170  11.935   1.382  0.3531 -0.4435 -0.2335
  625MOL0     N84290   6.858  11.258   1.436  0.4154 -0.0659  0.4475
  625MOL0     N84291   6.743  11.198   1.427  0.0092 -0.1765 -0.0157
  625MOL0     C84292   6.303  10.289   0.971 -0.7262  0.3773 -0.5868
  625MOL0     C84293   6.244  10.216   0.876  0.3461  1.2900  1.1715
  625MOL0     C84294   6.002  10.106   0.516 -0.3563  0.6612 -0.2507
  625MOL0     C84295   6.098  10.039   0.444  0.4700  0.2291  0.6155
  625MOL0     C84296   6.069   9.972   0.326 -0.5892 -0.7922 -0.4357
  625MOL0     C84297   5.947   9.982   0.263 -0.0503 -0.3161  0.8582
  625MOL0     O84298   5.928   9.933   0.134 -0.4901 -0.4575 -0.3096
  625MOL0     C84299   5.788   9.924   0.087  0.4860 -0.3953  0.3969
  625MOL0     C84300   5.785   9.895  -0.061  0.2566 -1.2478  0.6613
  625MOL0     C84301   5.901   9.958  -0.142 -0.4294  1.3218 -0.5161
  625MOL0     C84302   5.870   9.967  -0.294  0.2410  0.1394 -0.7431
  625MOL0     C84303   5.995   9.956  -0.372 -0.3673 -0.1911  0.3409
  625MOL0     C84304   6.102   9.947  -0.424  0.1110  0.8720 -0.3553
  625MOL0     C84305   5.851  10.054   0.345  0.2104 -0.6172  0.2002
  625MOL0     C84306   5.867  10.113   0.467  0.3416  0.3570 -0.2645
  625MOL0     C84307   5.756  10.197   0.521  0.3197 -0.5640  0.2580
  625MOL0     H84308   6.312  10.426   0.625 -0.6400  2.8686  1.6770
  625MOL0     H84309   6.368  10.574   0.798 -2.6427  1.5268 -0.3627
  625MOL0     H84310   6.185  10.535   1.112  1.3432 -0.4983 -2.5374
  625MOL0     H84311   6.300  10.453   1.222 -1.1065 -1.2929 -1.0609
  625MOL0     H84312   6.362  10.656   1.308  0.8688  0.5812 -0.3774
  625MOL0     H84313   6.210  10.722   1.242  0.3025  0.1053  1.4781
  625MOL0     H84314   6.363  10.789   1.029  0.3929  2.8854  0.1262
  625MOL0     H84315   6.491  10.748   1.125 -0.3929 -1.4503  0.2521
  625MOL0     H84316   6.413  11.002   1.139  2.0675 -1.7769 -0.5043
  625MOL0     H84317   6.262  10.958   1.192  0.0397  0.8238  0.0977
  625MOL0     H84318   6.340  10.896   1.408 -1.8919 -0.5896 -2.5938
  625MOL0     H84319   6.494  10.874   1.355 -3.1245 -4.0718 -1.0560
  625MOL0     H84320   6.526  11.121   1.320  0.4217  0.0354  0.3780
  625MOL0     H84321   6.350  11.158   1.328  0.3784 -0.4673 -0.5886
  625MOL0     H84322   6.376  11.086   1.561  0.5463 -0.1890  0.7722
  625MOL0     H84323   6.454  11.238   1.521 -0.7574 -0.6357  0.7687
  625MOL0     H84324   6.590  11.070   1.676  0.4730  0.3683 -0.0168
  625MOL0     H84325   6.611  10.967   1.535 -2.6849 -1.0149  2.3036
  625MOL0     H84326   6.829  11.099   1.725  0.9803  2.4202  1.7131
  625MOL0     H84327   7.069  11.311   1.709  1.5069  0.7123 -0.7782
  625MOL0     H84328   7.131  11.191   1.596 -1.4639 -1.5034  0.8367
  625MOL0     H84329   7.216  11.417   1.570  0.5265 -0.3951  0.3536
  625MOL0     H84330   7.126  11.350   1.434 -0.8637 -1.0566  0.3248
  625MOL0     H84331   7.012  11.546   1.637 -0.6179  1.2135 -0.7294
  625MOL0     H84332   6.945  11.500   1.472  1.0919  0.3922 -1.3659
  625MOL0     H84333   7.168  11.587   1.383  1.3501 -0.0194  0.5867
  625MOL0     H84334   7.187  11.649   1.542 -0.6015 -0.7490  0.0737
  625MOL0     H84335   6.976  11.860   1.664  0.7023 -1.9687 -0.2533
  625MOL0     H84336   7.048  12.069   1.736  1.7577  0.0558  0.9794
  625MOL0     H84337   7.382  12.321   1.851  0.8459  0.1578  0.5735
  625MOL0     H84338   7.466  12.518   1.933  0.0439  0.1604 -1.5306
  625MOL0     H84339   7.303  12.685   2.071 -1.2778  0.8289  1.0647
  625MOL0     H84340   7.430  12.774   2.093  0.0995 -1.1756 -1.1184
  625MOL0     H84341   7.287  12.949   2.172  0.8004  1.5492 -1.2904
  625MOL0     H84342   7.245  12.983   2.007  0.0423  3.0205  2.2120
  625MOL0     H84343   7.047  12.889   2.020  0.6654  0.5932 -1.8748
  625MOL0     H84344   7.102  12.743   2.104 -3.3689  0.6250 -3.8637
  625MOL0     H84345   7.072  12.994   2.265 -3.3296  2.5686 -0.6801
  625MOL0     H84346   7.081  12.816   2.306  3.2668  2.8287  0.0082
  625MOL0     H84347   6.863  12.797   2.186 -1.1781  0.0170  1.4025
  625MOL0     H84348   6.856  12.983   2.198  3.1527  1.9313  3.2262
  625MOL0     H84349   6.887  12.778   2.437 -0.0815 -1.2951 -1.1470
  625MOL0     H84350   6.873  12.956   2.437  1.0571  1.1942 -2.6602
  625MOL0     H84351   6.662  12.758   2.322 -0.5828  1.1167 -1.2516
  625MOL0     H84352   6.653  12.926   2.313 -2.3302 -0.9811  0.2477
  625MOL0     H84353   6.668  12.965   2.547  0.9585  0.3729 -1.0075
  625MOL0     H84354   6.523  12.878   2.495  0.4440  1.5017  1.9874
  625MOL0     H84355   7.135  12.733   1.751 -1.8426  0.0958  2.8455
  625MOL0     H84356   7.051  12.517   1.662  1.8043  0.3284 -2.6371
  625MOL0     H84357   7.278  12.116   1.354 -2.4410 -0.0416 -0.5485
  625MOL0     H84358   7.194  11.911   1.279  0.2112  1.9585 -0.8833
  625MOL0     H84359   6.306  10.239   1.067  0.1685 -2.9216 -2.1988
  625MOL0     H84360   6.199  10.119   0.899  0.2856  1.2161  0.7545
  625MOL0     H84361   6.204  10.033   0.466  1.1199 -0.0188 -2.2244
  625MOL0     H84362   6.150   9.915   0.282  0.7494 -0.5926  1.6202
  625MOL0     H84363   5.735  10.019   0.099  1.5811 -0.1342  4.4833
  625MOL0     H84364   5.724   9.845   0.127 -1.4813  0.7614 -0.2968
  625MOL0     H84365   5.699   9.949  -0.100  1.4552  0.2281 -0.0557
  625MOL0     H84366   5.758   9.790  -0.077 -1.2278 -0.6476 -1.0961
  625MOL0     H84367   5.987   9.893  -0.123 -1.8807 -1.6938 -3.1963
  625MOL0     H84368   5.922  10.054  -0.094  2.5830 -0.1936  1.4686
  625MOL0     H84369   5.796   9.892  -0.322 -0.6441 -0.4208  2.7245
  625MOL0     H84370   5.829  10.067  -0.315 -1.3802 -0.3192  0.0798
  625MOL0     H84371   6.195   9.949  -0.476  0.0763  1.1166 -0.4090
  625MOL0     H84372   5.755  10.068   0.296  1.0028  2.7446 -0.6183
  625MOL0     H84373   5.715  10.151   0.611 -2.2317 -2.7363 -1.8367
  625MOL0     H84374   5.802  10.294   0.542 -1.2184 -0.5407  4.3247
  625MOL0     H84375   5.680  10.208   0.443 -0.7698 -2.0981  1.0679
  626MOL0     O84376   3.963   9.589   1.679  0.5396  1.0840  0.3376
  626MOL0     C84377   3.859   9.634   1.638 -0.4199 -0.5110 -0.1430
  626MOL0     O84378   3.781   9.568   1.545  0.8033 -0.3180 -0.1536
  626MOL0     C84379   3.840   9.464   1.471  0.7044 -1.1554  0.3175
  626MOL0     C84380   3.854   9.330   1.523  0.3089 -0.4925  0.1118
  626MOL0     C84381   3.934   9.239   1.458  0.2219 -0.5552 -0.2970
  626MOL0     C84382   3.982   9.271   1.332  0.0973 -0.3213 -1.1828
  626MOL0     O84383   4.058   9.180   1.266  0.4209 -0.0728  0.3119
  626MOL0     C84384   4.158   9.235   1.175  0.0652  0.4000 -0.2754
  626MOL0     C84385   4.251   9.119   1.149  0.0787  0.1608  0.7214
  626MOL0     C84386   4.344   9.166   1.041 -1.0548 -0.8549  0.3871
  626MOL0     C84387   4.494   9.163   1.072  0.8656 -0.6170  1.1523
  626MOL0     C84388   4.580   9.221   0.955 -0.2273  0.4539  0.4297
  626MOL0     C84389   4.722   9.249   0.996  1.2965  0.4529 -0.4800
  626MOL0     C84390   4.797   9.317   0.882 -0.7825  0.2837 -0.1416
  626MOL0     C84391   4.940   9.274   0.889 -0.4608  0.7069  0.3523
  626MOL0     N84392   5.023   9.360   0.798 -1.4958 -0.1685 -1.7879
  626MOL0     C84393   5.010   9.348   0.664 -0.6922  0.0327 -1.1341
  626MOL0     C84394   5.097   9.445   0.622 -0.1380 -0.3191  0.1372
  626MOL0     C84395   5.125   9.489   0.483  0.1726 -0.4384 -1.6565
  626MOL0     C84396   5.007   9.494   0.385  0.7446  0.7317  0.3655
  626MOL0     C84397   5.027   9.567   0.251  1.2163  0.1970 -0.3491
  626MOL0     C84398   4.898   9.566   0.161  0.1878  0.1866 -1.0247
  626MOL0     O84399   4.888   9.432   0.108  0.3455  0.5320  0.5960
  626MOL0     C84400   4.769   9.401   0.043  0.0492  0.8366 -0.3367
  626MOL0     C84401   4.746   9.275   0.014 -0.1507  0.7575 -0.0757
  626MOL0     C84402   4.650   9.236  -0.085  0.4428  0.4408 -0.6555
  626MOL0     C84403   4.551   9.334  -0.119 -0.8890  0.0499  0.6172
  626MOL0     C84404   4.440   9.298  -0.206 -0.1503  0.4542 -0.2350
  626MOL0     O84405   4.441   9.183  -0.275 -0.0616  0.2390  0.3287
  626MOL0     C84406   4.330   9.167  -0.360  0.1195 -0.5622  0.2639
  626MOL0     C84407   4.198   9.140  -0.315  0.6762  0.2238 -0.2647
  626MOL0     C84408   4.089   9.107  -0.398  0.3089 -0.4449  0.0843
  626MOL0     C84409   4.111   9.080  -0.535  0.1766 -0.1065 -0.0624
  626MOL0     O84410   4.029   9.038  -0.628 -0.6040  0.5144  0.1388
  626MOL0     C84411   3.888   9.071  -0.614  0.9396  0.7962 -0.9067
  626MOL0     C84412   3.804   8.974  -0.699 -0.2404 -0.1000  0.3363
  626MOL0     C84413   3.656   9.015  -0.703 -1.0591 -0.3841 -0.4092
  626MOL0     C84414   3.577   8.938  -0.801  0.2081 -0.5878 -0.9511
  626MOL0     C84415   3.429   8.980  -0.790 -0.2831 -0.7131  0.1455
  626MOL0     C84416   3.338   8.903  -0.877 -0.9215 -0.0068  0.1006
  626MOL0     C84417   3.342   8.742  -0.870  0.6633 -2.3523 -0.1660
  626MOL0     C84418   3.240   8.676  -0.964  0.6281 -0.5142 -0.3217
  626MOL0    Cl84419   3.088   8.670  -0.883 -0.5364  0.0324  0.1435
  626MOL0     C84420   4.234   9.109  -0.582 -0.0591  0.4725 -0.4803
  626MOL0     C84421   4.350   9.159  -0.497 -0.6065  0.0219 -0.9182
  626MOL0     O84422   4.351   9.375  -0.206  1.0127  0.2651 -0.1480
  626MOL0     C84423   4.577   9.466  -0.076  0.1782 -0.2081 -1.2484
  626MOL0     C84424   4.687   9.498   0.003  0.0379  0.1371 -0.3822
  626MOL0     N84425   5.160   9.500   0.730  0.1227 -0.5930 -0.2677
  626MOL0     N84426   5.110   9.453   0.837  0.4402  0.7495  0.2403
  626MOL0     C84427   3.940   9.390   1.269  0.0353  0.3094 -0.7757
  626MOL0     C84428   3.883   9.494   1.339  0.4730 -0.7670  0.0910
  626MOL0     C84429   3.816   9.755   1.717  1.2258 -0.2385  0.2593
  626MOL0     C84430   3.741   9.860   1.647  0.0559 -0.7802 -0.5818
  626MOL0     C84431   3.694   9.977   1.718  0.4902 -0.1303 -0.9485
  626MOL0     C84432   3.712   9.993   1.855  0.1762 -0.0801  0.1677
  626MOL0     O84433   3.676  10.104   1.928 -0.1578 -0.9581  0.4668
  626MOL0     C84434   3.615  10.228   1.865  0.5326  0.1128  1.6827
  626MOL0     C84435   3.465  10.192   1.878 -0.2509 -0.1028 -0.1243
  626MOL0     C84436   3.400  10.244   1.746 -0.9158 -0.8713  0.6871
  626MOL0     C84437   3.410  10.401   1.711 -0.1466 -0.4349  0.2773
  626MOL0     C84438   3.478  10.422   1.582  0.1538 -0.6007  0.5164
  626MOL0     C84439   3.523  10.439   1.473 -0.2750 -0.0803  0.5298
  626MOL0     C84440   3.784   9.892   1.920  0.1732  0.1459  0.0106
  626MOL0     C84441   3.835   9.771   1.857  0.5359  0.3466  0.8397
  626MOL0     C84442   3.890   9.657   1.936 -0.0861  0.3268  0.2134
  626MOL0     H84443   3.820   9.297   1.620 -0.4838 -0.8019 -0.2612
  626MOL0     H84444   3.960   9.148   1.511  1.0817  0.2666  0.7407
  626MOL0     H84445   4.098   9.262   1.087  0.0905  1.0718 -0.0945
  626MOL0     H84446   4.207   9.324   1.215 -0.0185  0.7765 -0.9766
  626MOL0     H84447   4.201   9.026   1.120  2.9067 -1.0800 -0.6310
  626MOL0     H84448   4.318   9.110   1.236  0.4893  1.7830  0.5914
  626MOL0     H84449   4.318   9.262   0.995  0.3680 -0.7913 -0.3406
  626MOL0     H84450   4.324   9.087   0.967  1.4874 -1.3256  0.1221
  626MOL0     H84451   4.520   9.217   1.164  2.5848 -1.2460  1.0483
  626MOL0     H84452   4.526   9.060   1.086 -1.4519 -1.4704  0.6332
  626MOL0     H84453   4.573   9.156   0.867 -3.7768  0.3569  0.6163
  626MOL0     H84454   4.532   9.313   0.919  0.5098  0.9992  0.8268
  626MOL0     H84455   4.718   9.307   1.089 -2.7248 -0.2631 -0.0192
  626MOL0     H84456   4.769   9.154   1.022 -3.3872 -1.2371  3.3493
  626MOL0     H84457   4.805   9.424   0.903  0.6714  0.3695 -1.0315
  626MOL0     H84458   4.752   9.295   0.785 -0.4088 -1.4528  0.0362
  626MOL0     H84459   4.976   9.284   0.992 -0.9804  0.6463  0.5437
  626MOL0     H84460   4.953   9.172   0.853 -0.7688  0.8939 -0.2989
  626MOL0     H84461   4.938   9.299   0.600 -3.0264 -1.3018  2.1969
  626MOL0     H84462   5.164   9.591   0.488 -0.0232 -0.4043 -0.5439
  626MOL0     H84463   5.201   9.423   0.440 -0.1582 -2.7741  1.0731
  626MOL0     H84464   4.984   9.391   0.358  3.0957 -0.0931  1.2634
  626MOL0     H84465   4.925   9.530   0.448  0.9387  0.2749  0.8809
  626MOL0     H84466   5.110   9.523   0.194  0.5974 -0.0576 -1.0677
  626MOL0     H84467   5.062   9.668   0.278  1.6588 -0.5384  2.1264
  626MOL0     H84468   4.883   9.640   0.082 -1.3681  1.4500  0.3610
  626MOL0     H84469   4.807   9.585   0.218  1.5153  2.4125  0.5032
  626MOL0     H84470   4.808   9.191   0.043 -3.8745 -3.3289 -2.5798
  626MOL0     H84471   4.631   9.133  -0.113  1.8077 -0.2414  0.7498
  626MOL0     H84472   4.170   9.139  -0.210 -1.5842 -1.1698 -0.8021
  626MOL0     H84473   3.990   9.108  -0.353 -0.6056 -0.7224 -1.8481
  626MOL0     H84474   3.856   9.069  -0.510  0.1182 -1.8645 -1.1442
  626MOL0     H84475   3.863   9.173  -0.645 -2.6835 -0.0419 -1.0687
  626MOL0     H84476   3.862   8.988  -0.791 -1.8819  1.7602 -0.4817
  626MOL0     H84477   3.813   8.867  -0.674 -2.0266 -0.4316 -0.2870
  626MOL0     H84478   3.609   9.005  -0.605 -1.5306  0.8036 -0.4875
  626MOL0     H84479   3.639   9.119  -0.733 -3.5482 -1.0129 -1.4790
  626MOL0     H84480   3.594   8.831  -0.785  1.4463 -0.3880 -0.7649
  626MOL0     H84481   3.628   8.962  -0.895 -0.9108  2.7556 -0.8465
  626MOL0     H84482   3.418   9.086  -0.817  0.5084  0.2933  3.3306
  626MOL0     H84483   3.394   8.973  -0.687 -0.9798 -1.2209 -0.1180
  626MOL0     H84484   3.245   8.945  -0.838 -1.1430  0.1323 -0.5559
  626MOL0     H84485   3.358   8.943  -0.977 -2.5878 -1.0136 -0.6810
  626MOL0     H84486   3.322   8.736  -0.763  0.1791  2.7539  0.3095
  626MOL0     H84487   3.445   8.713  -0.891  1.1459 -0.7086 -0.2724
  626MOL0     H84488   3.238   8.742  -1.051  3.5458 -0.2777 -0.2916
  626MOL0     H84489   3.273   8.573  -0.980  1.0187 -0.6934  1.4290
  626MOL0     H84490   4.243   9.110  -0.690  0.1645 -1.2344 -0.5040
  626MOL0     H84491   4.437   9.200  -0.548 -0.5518  2.3587  0.8636
  626MOL0     H84492   4.503   9.542  -0.101 -2.4833 -2.1368  0.2325
  626MOL0     H84493   4.698   9.602   0.036 -1.2849  0.5349 -1.1592
  626MOL0     H84494   3.960   9.418   1.166 -0.4042 -1.6728 -1.4375
  626MOL0     H84495   3.871   9.595   1.300  2.7670  0.1585  1.5398
  626MOL0     H84496   3.735   9.849   1.539 -3.5124 -0.4672 -0.5352
  626MOL0     H84497   3.643  10.056   1.663  1.3144 -1.2374 -3.4670
  626MOL0     H84498   3.639  10.234   1.759  1.9640 -1.6717  1.8430
  626MOL0     H84499   3.646  10.323   1.908 -1.2398  0.9877  1.1037
  626MOL0     H84500   3.433  10.258   1.960 -1.3275 -0.7402 -0.0051
  626MOL0     H84501   3.441  10.086   1.896 -2.2802  0.6557  2.2316
  626MOL0     H84502   3.291  10.232   1.755 -0.9566 -2.2207 -1.0008
  626MOL0     H84503   3.428  10.182   1.660  0.4736 -0.1759  0.6130
  626MOL0     H84504   3.316  10.456   1.725  0.5110  0.8263 -0.0558
  626MOL0     H84505   3.473  10.451   1.785 -1.0886  1.4965 -0.1302
  626MOL0     H84506   3.566  10.459   1.377  0.6171  0.4428  1.0270
  626MOL0     H84507   3.802   9.905   2.026 -3.1624  1.7727  0.5278
  626MOL0     H84508   3.995   9.680   1.954  0.3021  1.9886 -3.3852
  626MOL0     H84509   3.839   9.655   2.033  0.4059  0.1201  0.4705
  626MOL0     H84510   3.888   9.558   1.889 -0.6739  1.1136 -1.4644
  627MOL0     O84511   2.558   6.630  10.387 -0.0656  0.0819  0.1427
  627MOL0     C84512   2.629   6.624  10.290  0.4370 -0.3549 -0.3817
  627MOL0     O84513   2.674   6.732  10.217 -0.2606  0.5825 -0.6486
  627MOL0     C84514   2.608   6.854  10.230  1.0678 -0.1375 -0.8341
  627MOL0     C84515   2.684   6.958  10.265  0.3301 -1.0750 -0.8351
  627MOL0     C84516   2.625   7.087  10.283  0.3388  0.1315 -0.0206
  627MOL0     C84517   2.481   7.100  10.281  0.3549 -0.1404  1.5711
  627MOL0     O84518   2.410   7.212  10.299 -0.0125 -0.5302 -0.1025
  627MOL0     C84519   2.465   7.319  10.380 -0.4119 -0.7635 -0.1802
  627MOL0     C84520   2.358   7.409  10.419 -0.3677  0.7773 -0.1228
  627MOL0     C84521   2.410   7.527  10.500  0.0236  0.4570  0.5630
  627MOL0     C84522   2.415   7.502  10.654 -0.0008  0.3662 -0.2121
  627MOL0     C84523   2.484   7.612  10.731 -0.4619 -0.6833 -0.4290
  627MOL0     C84524   2.466   7.596  10.882  0.8585  0.7245  0.5910
  627MOL0     C84525   2.526   7.704  10.963 -0.0026  0.0625 -0.6086
  627MOL0     C84526   2.685   7.719  10.955  0.0385  0.4149 -0.4417
  627MOL0     N84527   2.729   7.837  11.031  0.4321 -0.1807  0.0480
  627MOL0     C84528   2.698   7.878  11.165  0.5449 -0.2259  0.0135
  627MOL0     C84529   2.758   8.000  11.177  0.0520  0.1144  0.4260
  627MOL0     C84530   2.755   8.106  11.299 -0.1192  0.3747  0.8247
  627MOL0     C84531   2.612   8.163  11.301  0.2092  0.5013  0.5453
  627MOL0     C84532   2.548   8.228  11.181 -1.4736 -0.6295  0.0159
  627MOL0     C84533   2.635   8.345  11.124 -0.3306  0.0861 -0.0561
  627MOL0     O84534   2.691   8.427  11.224  0.3568  0.5381 -0.3809
  627MOL0     C84535   2.753   8.545  11.192 -0.7760 -0.0513 -0.2163
  627MOL0     C84536   2.771   8.639  11.298  0.9107 -1.5016  0.0695
  627MOL0     C84537   2.818   8.773  11.269 -0.8774  0.0755 -0.3718
  627MOL0     C84538   2.866   8.805  11.146  0.4179 -0.1583  0.1210
  627MOL0     C84539   2.929   8.937  11.116 -0.5279 -0.3545  0.6034
  627MOL0     O84540   3.002   8.944  10.994  0.3180 -0.9379  0.8745
  627MOL0     C84541   3.079   9.055  10.972  0.4775  0.2274 -0.0801
  627MOL0     C84542   3.052   9.137  10.864 -1.0425 -0.4117  0.5534
  627MOL0     C84543   3.144   9.227  10.824 -0.6877  0.5029 -0.4293
  627MOL0     C84544   3.252   9.265  10.910 -1.1464  0.0865  0.3448
  627MOL0     O84545   3.330   9.358  10.863  0.0724 -0.1155 -0.7384
  627MOL0     C84546   3.365   9.464  10.955  0.1953 -0.0940  0.0361
  627MOL0     C84547   3.497   9.446  11.033  0.7278 -0.4816  0.9141
  627MOL0     C84548   3.537   9.576  11.125 -1.2126  0.5647 -0.2032
  627MOL0     C84549   3.647   9.656  11.047  0.4171 -0.7584 -0.2461
  627MOL0     C84550   3.698   9.769  11.128 -1.0703 -0.2307  0.0616
  627MOL0     C84551   3.810   9.844  11.044  0.4401  0.0996 -0.4992
  627MOL0     C84552   3.883   9.950  11.126  0.2657 -0.3607 -0.9831
  627MOL0     C84553   3.936  10.055  11.032 -0.6429 -0.9532 -0.4399
  627MOL0    Cl84554   4.025  10.175  11.134  0.0822  0.3638 -0.0194
  627MOL0     C84555   3.271   9.195  11.026  0.2033  0.8844  0.7300
  627MOL0     C84556   3.180   9.093  11.058 -0.0169  0.3853  0.2822
  627MOL0     O84557   2.932   9.025  11.198 -0.9356 -0.2214 -0.0803
  627MOL0     C84558   2.851   8.706  11.042 -0.2333  0.3149 -0.1285
  627MOL0     C84559   2.792   8.587  11.062  0.5713  1.2161 -0.2833
  627MOL0     N84560   2.815   8.032  11.058 -0.1474 -0.7913  0.8898
  627MOL0     N84561   2.798   7.937  10.976  0.7904  0.5863  0.3800
  627MOL0     C84562   2.408   7.001  10.220 -0.2811 -0.4598  0.8037
  627MOL0     C84563   2.469   6.877  10.195  0.6158 -0.2037  0.0927
  627MOL0     C84564   2.675   6.491  10.239 -0.6994  0.6374  0.0376
  627MOL0     C84565   2.691   6.476  10.096 -0.6530 -0.3051  0.3335
  627MOL0     C84566   2.719   6.351  10.036  0.0910 -0.3631 -0.6829
  627MOL0     C84567   2.712   6.238  10.123 -0.3703  0.3619  0.3090
  627MOL0     O84568   2.726   6.102  10.082 -0.5496  0.0772  0.1667
  627MOL0     C84569   2.607   6.045  10.023 -0.5080  0.0653 -0.1141
  627MOL0     C84570   2.631   5.894   9.997  0.6940  0.5032 -0.1077
  627MOL0     C84571   2.658   5.826  10.134 -0.6372  0.1729 -1.0417
  627MOL0     C84572   2.677   5.677  10.124  0.0110 -0.4649 -0.4608
  627MOL0     C84573   2.561   5.618  10.077  0.4386  0.2861 -0.6491
  627MOL0     C84574   2.458   5.559  10.071  0.2549 -0.4485  0.5671
  627MOL0     C84575   2.707   6.250  10.257 -0.5929  0.1844 -0.5827
  627MOL0     C84576   2.693   6.376  10.320 -0.3045  0.0852 -0.5698
  627MOL0     C84577   2.703   6.380  10.472  0.2493  0.3658 -0.4878
  627MOL0     H84578   2.792   6.950  10.276  0.7472  2.9103 -0.6687
  627MOL0     H84579   2.701   7.158  10.313  1.2313 -1.0831  0.6854
  627MOL0     H84580   2.520   7.287  10.469  2.7032 -2.3124 -2.4545
  627MOL0     H84581   2.521   7.378  10.306 -0.6557 -1.8384 -1.2509
  627MOL0     H84582   2.284   7.348  10.471  2.5218 -3.1965 -0.2524
  627MOL0     H84583   2.318   7.447  10.324 -1.1122  2.9312  0.9593
  627MOL0     H84584   2.341   7.609  10.481  0.8087  1.5216  2.1274
  627MOL0     H84585   2.505   7.567  10.466 -1.0935  2.4662 -0.3866
  627MOL0     H84586   2.313   7.483  10.688  0.5999 -5.0916 -0.5879
  627MOL0     H84587   2.471   7.410  10.675 -1.6580 -0.4956  0.5670
  627MOL0     H84588   2.593   7.611  10.717 -0.4721  1.4897 -1.1284
  627MOL0     H84589   2.438   7.710  10.712 -1.6622 -1.3333 -0.9201
  627MOL0     H84590   2.360   7.591  10.907 -0.9838  1.7530 -5.3385
  627MOL0     H84591   2.521   7.505  10.907  2.3532  0.0302 -4.2510
  627MOL0     H84592   2.507   7.676  11.067  1.9787 -1.2697 -0.5507
  627MOL0     H84593   2.481   7.801  10.938 -0.3365  0.3684  1.0408
  627MOL0     H84594   2.740   7.636  11.001 -0.2975  1.0749  1.2144
  627MOL0     H84595   2.716   7.735  10.851 -1.3137  2.6037 -0.5744
  627MOL0     H84596   2.632   7.818  11.227  0.2344  1.0580  0.9525
  627MOL0     H84597   2.776   8.056  11.393 -1.0308  0.6504  1.1870
  627MOL0     H84598   2.830   8.184  11.280 -0.1439  0.1036 -0.4760
  627MOL0     H84599   2.560   8.073  11.334  0.3432 -0.7275 -2.3059
  627MOL0     H84600   2.620   8.237  11.382  1.4822 -1.0829  1.9479
  627MOL0     H84601   2.451   8.257  11.222 -1.8178 -2.8489  0.9630
  627MOL0     H84602   2.526   8.158  11.100 -0.3612 -0.9046 -0.0657
  627MOL0     H84603   2.575   8.405  11.055 -0.2206 -3.2641 -3.3906
  627MOL0     H84604   2.715   8.312  11.057 -2.3014 -0.4335 -2.3017
  627MOL0     H84605   2.733   8.626  11.398 -1.0542 -0.3702 -0.4699
  627MOL0     H84606   2.827   8.839  11.354 -0.1308 -0.0129 -0.3761
  627MOL0     H84607   2.981   9.098  10.791  0.2899 -3.2278  0.6334
  627MOL0     H84608   3.139   9.270  10.725  1.7084  0.4235 -0.6516
  627MOL0     H84609   3.355   9.557  10.899 -1.2423 -0.4878 -0.4103
  627MOL0     H84610   3.284   9.472  11.028 -3.3248 -0.6875 -3.4563
  627MOL0     H84611   3.484   9.358  11.096  0.1580 -1.5667 -0.6462
  627MOL0     H84612   3.579   9.420  10.965 -1.3148 -0.7431 -1.6177
  627MOL0     H84613   3.446   9.629  11.155 -3.1811 -1.1338 -2.6895
  627MOL0     H84614   3.583   9.535  11.215  1.8286 -0.4339 -2.0272
  627MOL0     H84615   3.591   9.705  10.966  0.0052  0.6852  0.8788
  627MOL0     H84616   3.728   9.590  11.016  1.2832 -0.1632  0.6839
  627MOL0     H84617   3.754   9.719  11.209  0.5723  0.5886 -0.5246
  627MOL0     H84618   3.615   9.836  11.153 -2.6574 -0.1000 -4.6742
  627MOL0     H84619   3.881   9.766  11.013 -0.0402 -0.4822 -0.1744
  627MOL0     H84620   3.766   9.889  10.955 -1.1493 -1.0057 -0.3141
  627MOL0     H84621   3.970   9.902  11.173  0.1199  0.8129  0.5581
  627MOL0     H84622   3.816   9.993  11.201 -0.7365 -1.7887 -1.0363
  627MOL0     H84623   4.002  10.015  10.954  0.8136  3.1607 -1.6264
  627MOL0     H84624   3.848  10.094  10.980 -0.5481 -1.2609 -0.8362
  627MOL0     H84625   3.360   9.202  11.088 -1.2087 -2.1250  3.4405
  627MOL0     H84626   3.198   9.036  11.149 -1.7034  3.0897  2.4285
  627MOL0     H84627   2.870   8.721  10.936 -0.1613 -0.6443 -0.2527
  627MOL0     H84628   2.799   8.520  10.977 -1.0231 -1.4910  1.5527
  627MOL0     H84629   2.309   7.032  10.188 -0.2035  0.1305  1.1134
  627MOL0     H84630   2.420   6.798  10.138  0.5529 -3.0211  3.6812
  627MOL0     H84631   2.692   6.558  10.025  1.5266 -0.1818  0.4357
  627MOL0     H84632   2.724   6.351   9.928  1.6634  1.7620 -0.6935
  627MOL0     H84633   2.584   6.092   9.927 -1.5283  2.2835  1.1057
  627MOL0     H84634   2.524   6.057  10.094  0.3550 -1.3521  1.2084
  627MOL0     H84635   2.710   5.890   9.922 -1.6697  2.2412 -2.8845
  627MOL0     H84636   2.546   5.847   9.947  0.8963 -2.4365  1.9902
  627MOL0     H84637   2.579   5.854  10.205  0.2644  3.7943 -1.2579
  627MOL0     H84638   2.753   5.871  10.161 -0.8370  0.8266 -1.4026
  627MOL0     H84639   2.761   5.650  10.060  1.2813 -0.4218  1.1205
  627MOL0     H84640   2.702   5.641  10.224  0.3480  0.9831  0.0063
  627MOL0     H84641   2.383   5.486  10.049  1.2420  0.1431 -7.3938
  627MOL0     H84642   2.717   6.157  10.313 -0.4836  1.2727  1.2738
  627MOL0     H84643   2.790   6.435  10.508  0.1399  0.5543 -0.5115
  627MOL0     H84644   2.613   6.430  10.509 -1.2362 -1.5982 -1.2706
  627MOL0     H84645   2.704   6.281  10.519  0.9694  1.6799  2.5448
  628MOL0     O84646   6.541   0.200   0.332 -0.1615 -0.2870  1.1126
  628MOL0     C84647   6.489   0.154   0.432 -0.6993  0.1839  0.0558
  628MOL0     O84648   6.419   0.037   0.430 -0.0413  0.9477 -0.4004
  628MOL0     C84649   6.422  -0.051   0.320 -0.4205  0.8901 -0.0505
  628MOL0     C84650   6.306  -0.121   0.282 -0.6076  0.8368  0.2231
  628MOL0     C84651   6.298  -0.206   0.167  0.5270 -0.0070 -1.4302
  628MOL0     C84652   6.414  -0.240   0.099  0.3652 -0.3478  0.2807
  628MOL0     O84653   6.396  -0.333   0.001 -0.0791 -0.9845  0.2508
  628MOL0     C84654   6.513  -0.375  -0.068  0.5228  0.3484  0.7203
  628MOL0     C84655   6.463  -0.469  -0.178  1.6871 -0.4994 -0.5001
  628MOL0     C84656   6.424  -0.388  -0.309  0.5605  0.7406 -0.0978
  628MOL0     C84657   6.527  -0.380  -0.428 -0.7641 -0.0969  0.3565
  628MOL0     C84658   6.554  -0.520  -0.482 -0.3163 -0.4704  1.1051
  628MOL0     C84659   6.643  -0.510  -0.609  0.0664 -0.6574  0.7466
  628MOL0     C84660   6.681  -0.640  -0.673  0.6151  0.1167  0.2863
  628MOL0     C84661   6.568  -0.740  -0.679 -0.3021  0.9054  1.1018
  628MOL0     N84662   6.601  -0.864  -0.751  0.2175 -0.2316 -0.8951
  628MOL0     C84663   6.724  -0.917  -0.753  1.4766  0.4846 -0.5926
  628MOL0     C84664   6.719  -1.027  -0.826  0.6161  0.4252  0.4380
  628MOL0     C84665   6.837  -1.123  -0.859  0.5835 -0.2841  0.3184
  628MOL0     C84666   6.925  -1.167  -0.738  0.2056  0.6369  0.2776
  628MOL0     C84667   7.060  -1.218  -0.788 -0.5230 -0.1433 -0.3050
  628MOL0     C84668   7.144  -1.258  -0.670  0.7740 -0.1919 -0.0813
  628MOL0     O84669   7.203  -1.138  -0.616  0.2404 -0.2384 -0.3596
  628MOL0     C84670   7.188  -1.117  -0.481  1.0999 -0.3936  0.2825
  628MOL0     C84671   7.156  -0.980  -0.440 -1.1819  1.0978  0.5504
  628MOL0     C84672   7.160  -0.955  -0.307 -1.2492  0.9973  0.2194
  628MOL0     C84673   7.161  -1.055  -0.208 -0.5541 -0.6677 -1.0067
  628MOL0     C84674   7.120  -1.033  -0.063 -1.5142  0.4302 -0.4756
  628MOL0     O84675   7.069  -0.912  -0.023 -0.1511  0.7179 -0.0618
  628MOL0     C84676   7.038  -0.905   0.110  0.1601  0.1469  0.8160
  628MOL0     C84677   6.963  -0.987   0.189 -0.3278  0.0506 -0.3349
  628MOL0     C84678   6.959  -0.980   0.328  0.1094  0.8130  1.1051
  628MOL0     C84679   7.035  -0.881   0.392  0.5510  0.1753  0.5109
  628MOL0     O84680   7.028  -0.849   0.523 -0.2406  0.3488 -0.2971
  628MOL0     C84681   6.889  -0.834   0.569 -0.3885 -0.2547  0.7862
  628MOL0     C84682   6.894  -0.794   0.711  0.1127  0.7076  0.0499
  628MOL0     C84683   6.980  -0.676   0.742  0.3896 -0.2204 -0.2339
  628MOL0     C84684   7.121  -0.715   0.789 -0.4865  0.2480  0.0905
  628MOL0     C84685   7.210  -0.596   0.786  0.4592  0.6217  0.0497
  628MOL0     C84686   7.354  -0.639   0.829 -0.0431 -0.7744 -0.1586
  628MOL0     C84687   7.369  -0.674   0.982 -0.8159  0.0662  0.2555
  628MOL0     C84688   7.390  -0.823   1.001  0.0889  0.8494  0.4727
  628MOL0    Cl84689   7.441  -0.862   1.170  0.1634 -0.5018 -0.0611
  628MOL0     C84690   7.106  -0.788   0.314  0.0337 -0.4748  0.0380
  628MOL0     C84691   7.112  -0.804   0.170 -0.2263  0.2273 -0.1062
  628MOL0     O84692   7.124  -1.133   0.010  0.0362 -0.4135 -0.3214
  628MOL0     C84693   7.183  -1.182  -0.254 -1.3535 -0.3525 -0.4693
  628MOL0     C84694   7.193  -1.216  -0.390 -0.1059  0.0667 -1.0233
  628MOL0     N84695   6.586  -1.049  -0.847 -0.2625  0.2157 -0.8350
  628MOL0     N84696   6.515  -0.950  -0.802 -0.2507 -0.2667  0.4442
  628MOL0     C84697   6.532  -0.178   0.138  0.2169 -0.3957  0.2888
  628MOL0     C84698   6.536  -0.075   0.243 -0.4313  0.1030  0.1465
  628MOL0     C84699   6.497   0.247   0.549 -0.0101 -0.0112 -1.2928
  628MOL0     C84700   6.515   0.183   0.675  0.5630  0.1033  0.3665
  628MOL0     C84701   6.507   0.261   0.787 -1.1854  0.0430 -0.3463
  628MOL0     C84702   6.506   0.398   0.786  0.9506  0.3193  0.1961
  628MOL0     O84703   6.501   0.475   0.902 -0.9566 -0.2815  1.1504
  628MOL0     C84704   6.447   0.433   1.022 -0.5596  1.7611  0.6006
  628MOL0     C84705   6.297   0.379   1.014  0.0879  0.0119 -0.2013
  628MOL0     C84706   6.200   0.501   1.000  0.0862 -0.3073  0.6662
  628MOL0     C84707   6.073   0.467   0.922 -1.0111 -0.0703  0.3608
  628MOL0     C84708   6.005   0.353   0.982 -1.1358  0.4372 -0.6304
  628MOL0     C84709   5.957   0.252   1.025 -0.0698  0.5960  1.0517
  628MOL0     C84710   6.490   0.465   0.669  1.0559  0.3687  0.2262
  628MOL0     C84711   6.484   0.394   0.547  0.2114  0.4565  0.2995
  628MOL0     C84712   6.452   0.470   0.421 -0.3964  0.3116 -0.4105
  628MOL0     H84713   6.201  -0.107   0.308 -0.8632  0.7854 -0.7403
  628MOL0     H84714   6.203  -0.256   0.148  1.7360 -2.5349 -1.2539
  628MOL0     H84715   6.571  -0.300  -0.124 -0.8709  0.7286 -0.2627
  628MOL0     H84716   6.579  -0.424   0.004 -0.6868 -1.3420  0.7400
  628MOL0     H84717   6.377  -0.527  -0.143  1.5952  0.9894  2.0400
  628MOL0     H84718   6.543  -0.540  -0.202  2.0601 -0.3847  0.3373
  628MOL0     H84719   6.400  -0.286  -0.277 -2.6442 -0.9531  3.7126
  628MOL0     H84720   6.326  -0.421  -0.343 -0.3954  0.6172  2.5484
  628MOL0     H84721   6.479  -0.317  -0.504 -0.5192 -0.9194 -0.4921
  628MOL0     H84722   6.622  -0.339  -0.394 -0.6777 -0.5093  0.6233
  628MOL0     H84723   6.615  -0.581  -0.416  2.9904  1.3880 -0.0084
  628MOL0     H84724   6.463  -0.576  -0.508  1.3252 -2.4953 -0.6541
  628MOL0     H84725   6.583  -0.456  -0.684 -1.6495  0.8096  3.0358
  628MOL0     H84726   6.733  -0.452  -0.587 -0.2002  0.6427 -1.3536
  628MOL0     H84727   6.770  -0.687  -0.631  1.7209  0.8655 -1.1506
  628MOL0     H84728   6.718  -0.619  -0.773  0.4965 -1.4809 -0.1188
  628MOL0     H84729   6.536  -0.768  -0.578  0.4882  2.8446  1.9409
  628MOL0     H84730   6.475  -0.709  -0.728  0.5385  1.4457 -0.2167
  628MOL0     H84731   6.817  -0.884  -0.707  2.3533  0.7019 -2.4611
  628MOL0     H84732   6.802  -1.204  -0.924  1.0800  0.3094 -0.7093
  628MOL0     H84733   6.905  -1.068  -0.924  0.5033 -1.8649 -1.1688
  628MOL0     H84734   6.941  -1.079  -0.675  0.5051  2.3086 -1.9981
  628MOL0     H84735   6.866  -1.244  -0.688  0.4203  0.3825  0.1398
  628MOL0     H84736   7.114  -1.139  -0.841  2.6692 -2.6808 -1.1714
  628MOL0     H84737   7.038  -1.307  -0.846 -4.4076  1.6055 -1.8075
  628MOL0     H84738   7.230  -1.317  -0.702  0.0892 -0.6347 -1.1600
  628MOL0     H84739   7.082  -1.315  -0.600  3.2105 -1.0752  1.5106
  628MOL0     H84740   7.142  -0.903  -0.516  1.9555  2.3305  1.0661
  628MOL0     H84741   7.163  -0.852  -0.274  0.3960  0.7253  1.0011
  628MOL0     H84742   6.896  -1.062   0.150 -2.5929  1.7469  0.0668
  628MOL0     H84743   6.893  -1.048   0.380  1.0129  1.4051  3.1034
  628MOL0     H84744   6.836  -0.760   0.509  0.3510 -0.5050 -0.1965
  628MOL0     H84745   6.833  -0.926   0.556  0.8564 -1.0827  1.0609
  628MOL0     H84746   6.789  -0.780   0.740  1.3288  0.7032  5.6238
  628MOL0     H84747   6.924  -0.884   0.766 -2.0932  0.2395  0.6043
  628MOL0     H84748   6.984  -0.616   0.651 -0.3986 -0.0081 -0.1361
  628MOL0     H84749   6.923  -0.622   0.818  2.7570  2.6564 -0.3156
  628MOL0     H84750   7.157  -0.791   0.719 -1.3326  1.1903 -1.4293
  628MOL0     H84751   7.118  -0.756   0.891  2.5871 -2.3536 -0.6941
  628MOL0     H84752   7.175  -0.517   0.853 -1.2635 -1.6028  1.9440
  628MOL0     H84753   7.223  -0.557   0.684 -2.0048  4.6212  1.0632
  628MOL0     H84754   7.376  -0.720   0.760  1.8621  1.0559 -1.8224
  628MOL0     H84755   7.402  -0.543   0.806 -1.3731  0.1099  0.5926
  628MOL0     H84756   7.281  -0.638   1.036 -1.1792  0.1407 -0.3754
  628MOL0     H84757   7.459  -0.626   1.021 -1.1307  0.5085  0.4394
  628MOL0     H84758   7.301  -0.879   0.971  0.6740 -1.0450  2.1045
  628MOL0     H84759   7.464  -0.851   0.926  0.1081  2.2086 -0.0460
  628MOL0     H84760   7.157  -0.708   0.367  0.6881 -0.4863 -0.5498
  628MOL0     H84761   7.170  -0.732   0.113 -2.2664  2.0342 -0.0012
  628MOL0     H84762   7.181  -1.264  -0.183  0.5610  0.4410  0.5655
  628MOL0     H84763   7.199  -1.323  -0.406  1.3931 -0.0081 -0.0808
  628MOL0     H84764   6.621  -0.185   0.076  1.0211  0.0250  1.3741
  628MOL0     H84765   6.627  -0.018   0.261  1.2776 -2.3295 -0.1980
  628MOL0     H84766   6.507   0.076   0.685 -4.4102  0.0958 -1.1245
  628MOL0     H84767   6.498   0.204   0.880  1.1378 -0.5061 -0.4114
  628MOL0     H84768   6.444   0.518   1.090 -3.4740  2.8664 -0.7619
  628MOL0     H84769   6.517   0.353   1.051 -3.4271 -1.3886 -0.5575
  628MOL0     H84770   6.267   0.311   1.095 -3.4679 -2.1425 -3.0164
  628MOL0     H84771   6.277   0.305   0.936 -0.1737  0.9186 -1.0065
  628MOL0     H84772   6.257   0.583   0.956  1.5051 -1.3616  0.4821
  628MOL0     H84773   6.152   0.534   1.093 -0.7644  2.2899 -0.5946
  628MOL0     H84774   6.019   0.561   0.913 -0.2687  0.5530  2.0192
  628MOL0     H84775   6.105   0.440   0.820  0.9677 -1.5785  1.2988
  628MOL0     H84776   5.924   0.154   1.053 -0.4340 -0.1259 -1.6649
  628MOL0     H84777   6.468   0.570   0.681 -2.0239 -0.2971  1.4434
  628MOL0     H84778   6.447   0.576   0.447  4.9812  0.9263 -0.7381
  628MOL0     H84779   6.535   0.467   0.349 -0.9753  0.1538 -1.0828
  628MOL0     H84780   6.367   0.425   0.368 -0.4465  1.4633 -1.3577
  629MOL0     O84781   5.565  11.072   9.877 -0.3167  0.4775 -0.2183
  629MOL0     C84782   5.447  11.092   9.857  0.8535 -1.4648  0.1595
  629MOL0     O84783   5.402  11.215   9.814 -0.0467  0.2877 -0.1384
  629MOL0     C84784   5.482  11.327   9.830 -0.0840  0.4385 -0.7448
  629MOL0     C84785   5.542  11.349   9.956 -0.6239 -0.0467 -0.7504
  629MOL0     C84786   5.629  11.458   9.966 -0.4940 -0.9485  0.2664
  629MOL0     C84787   5.668  11.537   9.851 -0.2455  0.4391 -0.6156
  629MOL0     O84788   5.751  11.642   9.843  0.2211  0.0001  0.3198
  629MOL0     C84789   5.750  11.734   9.954  0.2370 -0.8382  0.3091
  629MOL0     C84790   5.688  11.867   9.900  0.6564  0.4433  0.2430
  629MOL0     C84791   5.769  11.936   9.777  1.0867  0.1975 -1.1321
  629MOL0     C84792   5.774  12.088   9.773 -0.1441 -0.1410 -0.5229
  629MOL0     C84793   5.841  12.138   9.899 -0.0627 -0.2004  0.2325
  629MOL0     C84794   5.903  12.276   9.891 -0.0969 -0.4203 -0.1474
  629MOL0     C84795   5.908  12.341  10.030  0.1118 -0.3913  0.3280
  629MOL0     C84796   6.005  12.255  10.111 -0.2533  0.4793 -0.0600
  629MOL0     N84797   6.053  12.339  10.215  0.3352 -0.5169 -0.4498
  629MOL0     C84798   5.967  12.399  10.308 -0.5494 -0.8267  0.7931
  629MOL0     C84799   6.042  12.437  10.404  0.1603 -0.0173 -0.2004
  629MOL0     C84800   6.007  12.491  10.539  0.7258  0.3545  0.4100
  629MOL0     C84801   5.951  12.632  10.511  0.5985  1.3475  0.0193
  629MOL0     C84802   5.874  12.676  10.637  0.1365 -0.2413 -0.3587
  629MOL0     C84803   5.733  12.611  10.664 -0.0561  0.9628  0.7370
  629MOL0     O84804   5.699  12.662  10.794 -0.4473 -0.0760  0.2539
  629MOL0     C84805   5.572  12.664  10.848 -0.3999 -1.0042  0.4548
  629MOL0     C84806   5.454  12.625  10.786  0.2175 -0.1658 -0.3957
  629MOL0     C84807   5.326  12.641  10.852  0.6234  0.2741  0.1811
  629MOL0     C84808   5.312  12.696  10.979  0.0801 -0.3042 -0.2823
  629MOL0     C84809   5.181  12.733  11.035 -0.8878  0.0106  0.4304
  629MOL0     O84810   5.188  12.850  11.107 -0.8348  0.4423  0.0774
  629MOL0     C84811   5.081  12.920  11.143  0.6775  0.0481  0.6316
  629MOL0     C84812   5.092  12.994  11.268  0.7844  0.9585  0.5516
  629MOL0     C84813   4.981  13.049  11.325  0.6051  0.6207 -0.5286
  629MOL0     C84814   4.857  13.051  11.255  0.2452  0.0259  0.3604
  629MOL0     O84815   4.739  13.108  11.296  0.0557 -0.4622  0.2582
  629MOL0     C84816   4.745  13.240  11.360 -0.3800  0.3060  0.0162
  629MOL0     C84817   4.610  13.305  11.351  0.6348 -0.4014  0.6832
  629MOL0     C84818   4.611  13.454  11.391  0.1452  0.3458 -0.1328
  629MOL0     C84819   4.653  13.486  11.535 -1.2470  0.1416  0.4584
  629MOL0     C84820   4.662  13.630  11.546 -0.4037 -0.7864 -0.1059
  629MOL0     C84821   4.530  13.687  11.586 -0.4612  0.7625  0.0593
  629MOL0     C84822   4.516  13.842  11.560 -0.0522  0.1123  0.3310
  629MOL0     C84823   4.486  13.867  11.414  0.6542  0.1483 -0.3244
  629MOL0    Cl84824   4.318  13.788  11.393 -0.2661  0.0214 -0.0115
  629MOL0     C84825   4.844  12.981  11.127 -0.8151 -0.9764 -0.9100
  629MOL0     C84826   4.954  12.923  11.073  0.5774 -0.4739 -0.5088
  629MOL0     O84827   5.083  12.657  11.028 -1.1721 -0.7187 -0.6130
  629MOL0     C84828   5.434  12.738  11.037  0.1498 -0.0082  0.2099
  629MOL0     C84829   5.560  12.719  10.973 -0.6910  0.4084 -0.1745
  629MOL0     N84830   6.171  12.409  10.375 -0.3211  0.7478  0.1827
  629MOL0     N84831   6.182  12.344  10.265  0.4442  0.3809  0.7292
  629MOL0     C84832   5.608  11.510   9.729 -0.5159 -0.0784 -0.5295
  629MOL0     C84833   5.517  11.411   9.715 -0.0806 -0.0763 -0.2473
  629MOL0     C84834   5.353  10.983   9.881  0.4811 -0.4236 -0.0386
  629MOL0     C84835   5.246  10.972   9.789 -0.3401 -0.4770  0.1138
  629MOL0     C84836   5.164  10.864   9.795 -0.4311  0.4869  0.0219
  629MOL0     C84837   5.155  10.785   9.908 -0.5473 -0.8994  0.1925
  629MOL0     O84838   5.074  10.679   9.901 -0.7335 -0.2167 -0.6711
  629MOL0     C84839   4.944  10.699   9.842  0.5264  0.5385  0.7609
  629MOL0     C84840   4.842  10.586   9.879 -0.8766  0.1819 -0.4092
  629MOL0     C84841   4.900  10.450   9.855  0.0268 -0.4570  0.0465
  629MOL0     C84842   4.784  10.353   9.840  0.2930  0.1582  0.7951
  629MOL0     C84843   4.704  10.339   9.961 -0.2737 -0.1004 -0.9797
  629MOL0     C84844   4.646  10.347  10.075 -0.4027  0.3051 -0.0226
  629MOL0     C84845   5.247  10.802  10.013 -0.4989  0.1717  0.5735
  629MOL0     C84846   5.342  10.908  10.005 -0.0815 -0.0814  0.7727
  629MOL0     C84847   5.437  10.948  10.118  0.4612 -0.5240  0.1734
  629MOL0     H84848   5.508  11.297  10.045  2.3917  0.3906  0.8014
  629MOL0     H84849   5.657  11.488  10.066 -0.4546  3.4004 -0.8305
  629MOL0     H84850   5.691  11.704  10.042 -0.7914 -0.7380 -0.3285
  629MOL0     H84851   5.848  11.757   9.997  0.5281  2.1466 -1.6710
  629MOL0     H84852   5.683  11.936   9.985 -2.7119  0.5635  0.0643
  629MOL0     H84853   5.584  11.860   9.868  0.6026  2.4340 -0.1240
  629MOL0     H84854   5.720  11.909   9.682 -1.1985 -2.6525  0.6455
  629MOL0     H84855   5.867  11.889   9.764  0.5624 -0.6172 -2.3829
  629MOL0     H84856   5.846  12.116   9.696 -0.7961 -0.4036 -1.2400
  629MOL0     H84857   5.673  12.129   9.768 -0.9853 -2.0304 -0.0054
  629MOL0     H84858   5.772  12.131   9.983 -0.6337  0.2708 -0.1867
  629MOL0     H84859   5.921  12.067   9.922  0.4093  0.0872 -0.4720
  629MOL0     H84860   6.005  12.270   9.851  1.2592 -4.5606  3.2079
  629MOL0     H84861   5.838  12.340   9.831  1.6576 -0.3276 -2.0623
  629MOL0     H84862   5.811  12.341  10.082  0.0088 -0.3143  0.1380
  629MOL0     H84863   5.957  12.438  10.018 -0.2094 -0.5692 -5.8555
  629MOL0     H84864   5.967  12.166  10.162 -0.2132  0.3895 -0.1890
  629MOL0     H84865   6.091  12.238  10.047  0.8533 -2.1600  1.9483
  629MOL0     H84866   5.859  12.403  10.309 -0.6375 -2.3861  1.3670
  629MOL0     H84867   5.942  12.429  10.602  0.7382  1.3562  1.4377
  629MOL0     H84868   6.104  12.494  10.588  1.1000 -0.9093 -0.2101
  629MOL0     H84869   6.040  12.694  10.504  0.7793  1.2636  1.3475
  629MOL0     H84870   5.892  12.635  10.419 -0.7829  0.9375  0.8615
  629MOL0     H84871   5.856  12.783  10.621  3.2156  0.0621 -2.6500
  629MOL0     H84872   5.928  12.655  10.730 -0.8997 -3.8793 -0.4297
  629MOL0     H84873   5.747  12.503  10.648  1.3872  1.5479 -2.8524
  629MOL0     H84874   5.658  12.638  10.590  1.5066 -2.4913 -2.4286
  629MOL0     H84875   5.454  12.577  10.689  0.3961 -0.8706 -0.0529
  629MOL0     H84876   5.235  12.616  10.800  0.0673 -0.1729  1.3553
  629MOL0     H84877   5.187  13.005  11.318 -0.5222  2.6203  2.8574
  629MOL0     H84878   4.985  13.084  11.427 -0.8942 -2.0294  0.5274
  629MOL0     H84879   4.772  13.220  11.464 -3.8857  0.7527  1.1657
  629MOL0     H84880   4.816  13.300  11.303 -1.5809 -0.1653 -2.0945
  629MOL0     H84881   4.574  13.304  11.248  0.2474  3.1796  0.6624
  629MOL0     H84882   4.553  13.240  11.419 -0.4197  0.6164  0.8141
  629MOL0     H84883   4.678  13.507  11.324 -0.1388  2.0477  0.8684
  629MOL0     H84884   4.518  13.509  11.373  0.7744  0.4514 -3.7816
  629MOL0     H84885   4.757  13.456  11.548  0.1154  4.4389  1.1689
  629MOL0     H84886   4.590  13.430  11.605  1.6039 -3.4532  0.4025
  629MOL0     H84887   4.704  13.680  11.459  1.9391 -0.2095  1.2675
  629MOL0     H84888   4.728  13.660  11.628 -2.2225  2.5033  0.3498
  629MOL0     H84889   4.446  13.625  11.551  0.4107  0.0378 -0.8256
  629MOL0     H84890   4.525  13.675  11.694  3.3302 -0.2019  0.2708
  629MOL0     H84891   4.610  13.895  11.579 -0.1741 -0.4836  3.0432
  629MOL0     H84892   4.439  13.892  11.619 -0.2482 -0.6558  0.7386
  629MOL0     H84893   4.487  13.976  11.416  1.4713  0.2464  3.7461
  629MOL0     H84894   4.562  13.833  11.344 -0.3689 -1.2087 -0.8411
  629MOL0     H84895   4.753  12.984  11.068 -0.0133 -2.7360 -2.3041
  629MOL0     H84896   4.941  12.882  10.973 -1.7641  1.5720 -1.1428
  629MOL0     H84897   5.432  12.794  11.130  0.7004 -0.3380  0.4266
  629MOL0     H84898   5.652  12.755  11.019  0.0367 -1.3140 -0.2086
  629MOL0     H84899   5.631  11.574   9.644  0.3449 -1.3720 -1.2992
  629MOL0     H84900   5.465  11.404   9.620 -0.7970 -3.1819  0.2920
  629MOL0     H84901   5.243  11.030   9.697 -1.2530 -1.3248 -0.4026
  629MOL0     H84902   5.096  10.847   9.712  1.9367  0.6825 -2.0698
  629MOL0     H84903   4.957  10.699   9.734 -0.9731  1.8925  0.5494
  629MOL0     H84904   4.899  10.795   9.867 -2.3198 -0.4972  0.0197
  629MOL0     H84905   4.753  10.608   9.818  0.5558  0.6273 -2.4420
  629MOL0     H84906   4.806  10.593   9.982 -2.2325  1.7919 -0.9525
  629MOL0     H84907   4.965  10.428   9.940 -1.2099  0.4777  1.2801
  629MOL0     H84908   4.953  10.453   9.759  1.8953  1.1473  1.0410
  629MOL0     H84909   4.720  10.376   9.753 -1.3711  2.3459  2.4847
  629MOL0     H84910   4.837  10.261   9.812  1.8447  1.2264  0.0689
  629MOL0     H84911   4.592  10.365  10.166 -0.4223 -0.0562  0.0383
  629MOL0     H84912   5.243  10.750  10.108 -2.3886  1.7016  1.4005
  629MOL0     H84913   5.431  10.885  10.208  0.6098  1.7234  1.8233
  629MOL0     H84914   5.541  10.940  10.084  1.7752  1.6126  3.3265
  629MOL0     H84915   5.432  11.053  10.146  3.0795 -0.7342  1.6700
  630MOL0     O84916   6.536   7.798   5.419  0.0610  0.6414 -0.0326
  630MOL0     C84917   6.615   7.708   5.458  0.6167 -0.3584 -0.3694
  630MOL0     O84918   6.612   7.578   5.422 -0.2976  0.1730  0.9447
  630MOL0     C84919   6.546   7.536   5.310  0.5342  0.8416 -0.6405
  630MOL0     C84920   6.507   7.404   5.326  0.8371 -0.5363 -0.7367
  630MOL0     C84921   6.449   7.323   5.229 -0.5620  0.2112  0.6284
  630MOL0     C84922   6.423   7.381   5.102 -1.3491  0.3123 -0.3797
  630MOL0     O84923   6.376   7.289   5.018  0.7559 -0.4757  0.1599
  630MOL0     C84924   6.335   7.342   4.886 -0.4035  0.6480 -0.2051
  630MOL0     C84925   6.272   7.229   4.807  0.0081 -0.4743 -0.0398
  630MOL0     C84926   6.245   7.258   4.657 -0.3353 -0.2531  1.3996
  630MOL0     C84927   6.154   7.378   4.629  0.5888 -0.0403 -0.3147
  630MOL0     C84928   6.149   7.427   4.486  0.2915 -0.8980 -0.0318
  630MOL0     C84929   6.131   7.308   4.392  0.9719 -0.8332  0.0667
  630MOL0     C84930   6.122   7.341   4.246 -0.4104  0.1981  0.3047
  630MOL0     C84931   5.974   7.332   4.191  0.0271 -0.0155 -0.1323
  630MOL0     N84932   5.875   7.424   4.247  0.3976 -0.3938 -0.1450
  630MOL0     C84933   5.887   7.558   4.218 -0.4730  0.1333 -0.0720
  630MOL0     C84934   5.802   7.614   4.302  0.2464 -0.8661  0.2870
  630MOL0     C84935   5.786   7.762   4.323 -0.1849 -0.4770 -0.3080
  630MOL0     C84936   5.841   7.803   4.457  0.4404  0.1625  0.5177
  630MOL0     C84937   5.730   7.827   4.570  0.8351  0.2932 -0.2642
  630MOL0     C84938   5.804   7.897   4.689  0.7729  0.3217 -0.5624
  630MOL0     O84939   5.925   7.822   4.720 -0.0437  0.1313  0.0181
  630MOL0     C84940   5.951   7.778   4.847 -0.9127  0.8491 -0.2122
  630MOL0     C84941   5.857   7.762   4.944 -1.0660  0.2230 -0.2992
  630MOL0     C84942   5.894   7.718   5.071  0.3498 -0.3248  0.1069
  630MOL0     C84943   6.023   7.705   5.105 -0.3940 -0.2597 -0.9013
  630MOL0     C84944   6.055   7.666   5.248 -0.1004  0.1548 -0.5207
  630MOL0     O84945   6.165   7.580   5.255  0.0281  0.6830  0.3527
  630MOL0     C84946   6.196   7.524   5.370  0.1197  0.3374 -1.5465
  630MOL0     C84947   6.186   7.386   5.383 -0.4132 -0.7250 -0.6671
  630MOL0     C84948   6.211   7.322   5.502 -0.1927 -0.0310 -0.3074
  630MOL0     C84949   6.252   7.387   5.619 -0.0036 -0.3684  0.5899
  630MOL0     O84950   6.268   7.322   5.740  0.1889  0.5929 -0.1403
  630MOL0     C84951   6.235   7.380   5.869 -0.7262  0.5097  0.1859
  630MOL0     C84952   6.279   7.267   5.963  0.0878 -0.8874  0.6087
  630MOL0     C84953   6.241   7.307   6.106  0.1356 -0.1328  0.4041
  630MOL0     C84954   6.229   7.197   6.205  0.5327  0.4795  0.2410
  630MOL0     C84955   6.196   7.251   6.346 -0.6210 -0.1590  0.2096
  630MOL0     C84956   6.180   7.140   6.451  0.5228  0.1687  1.2716
  630MOL0     C84957   6.062   7.032   6.414  0.7420 -0.4430  1.4146
  630MOL0     C84958   5.918   7.099   6.438 -0.0808 -0.2004  0.2248
  630MOL0    Cl84959   5.874   7.098   6.608 -0.6020 -0.2109  0.4086
  630MOL0     C84960   6.266   7.525   5.605 -0.7052  0.4494 -0.2894
  630MOL0     C84961   6.248   7.589   5.481  0.6757 -0.9357  1.3750
  630MOL0     O84962   5.982   7.694   5.345 -0.2380 -0.1631  1.3066
  630MOL0     C84963   6.119   7.719   5.008 -0.2628  0.1686 -0.2859
  630MOL0     C84964   6.082   7.752   4.883  0.8720  0.3444 -0.0998
  630MOL0     N84965   5.734   7.513   4.376 -0.3769 -0.1305 -0.1109
  630MOL0     N84966   5.793   7.408   4.357  0.3213 -0.2879  0.2864
  630MOL0     C84967   6.441   7.519   5.085  0.2657  0.1430  0.0282
  630MOL0     C84968   6.507   7.598   5.187  0.2165 -0.6060  0.0041
  630MOL0     C84969   6.704   7.754   5.561  0.4790  0.3957  0.3825
  630MOL0     C84970   6.830   7.694   5.552  0.7423 -0.0349 -0.6570
  630MOL0     C84971   6.931   7.743   5.637 -0.2638 -0.1877  0.4915
  630MOL0     C84972   6.916   7.842   5.735 -0.3981 -0.1003  0.3337
  630MOL0     O84973   7.027   7.869   5.804 -0.7406 -0.3297 -0.3511
  630MOL0     C84974   7.020   7.973   5.908 -0.0415  0.1774 -0.7995
  630MOL0     C84975   7.150   7.960   5.996 -0.4047  0.1027 -0.9049
  630MOL0     C84976   7.271   7.902   5.932 -0.7884  1.0902  0.5967
  630MOL0     C84977   7.378   7.886   6.035 -0.3034  0.2161 -0.1575
  630MOL0     C84978   7.430   8.016   6.069 -0.6921  0.2049 -0.6990
  630MOL0     C84979   7.451   8.128   6.112  0.5157  0.5276  0.7422
  630MOL0     C84980   6.794   7.904   5.741 -0.5998  0.1621 -0.7980
  630MOL0     C84981   6.685   7.854   5.669  0.4724  0.0127 -0.2419
  630MOL0     C84982   6.556   7.925   5.676 -0.1696 -0.2371  0.1606
  630MOL0     H84983   6.522   7.360   5.424 -0.1672  2.2975  0.8012
  630MOL0     H84984   6.417   7.222   5.252  1.2091 -0.9498 -1.6350
  630MOL0     H84985   6.256   7.417   4.892 -3.2672 -2.1033 -0.8174
  630MOL0     H84986   6.424   7.380   4.835 -1.0938  2.3858 -0.1705
  630MOL0     H84987   6.180   7.208   4.864  1.6434 -3.3747  1.7730
  630MOL0     H84988   6.329   7.136   4.804  1.9100  0.3469  3.9557
  630MOL0     H84989   6.201   7.167   4.615 -1.0265  0.2097  1.1095
  630MOL0     H84990   6.338   7.286   4.607 -0.4891  0.4503  1.5062
  630MOL0     H84991   6.048   7.374   4.654  0.2614  0.2231 -1.5757
  630MOL0     H84992   6.192   7.452   4.701 -0.8742 -2.6886  3.5115
  630MOL0     H84993   6.077   7.506   4.461  1.0100  0.0624  0.8638
  630MOL0     H84994   6.248   7.470   4.470 -0.0779  0.6145  1.5113
  630MOL0     H84995   6.222   7.249   4.405  1.3811 -0.0280  1.0443
  630MOL0     H84996   6.041   7.254   4.423  0.5743 -0.4326 -0.3649
  630MOL0     H84997   6.181   7.263   4.197 -0.9735  0.4178 -0.7721
  630MOL0     H84998   6.171   7.435   4.215 -0.1863 -0.1811 -0.5286
  630MOL0     H84999   5.972   7.334   4.081 -0.2607  0.2854 -0.1224
  630MOL0     H85000   5.947   7.227   4.209 -0.6095 -0.0654 -1.2955
  630MOL0     H85001   5.958   7.613   4.156 -0.0144  3.8632  3.3491
  630MOL0     H85002   5.841   7.805   4.239  2.0854 -2.2390  0.1776
  630MOL0     H85003   5.679   7.786   4.320 -0.2295 -0.5601  0.4076
  630MOL0     H85004   5.918   7.734   4.492  0.7944  1.0023  1.4318
  630MOL0     H85005   5.889   7.901   4.449 -1.1783  1.1233  1.9392
  630MOL0     H85006   5.698   7.726   4.597  0.7514  0.0280 -1.3045
  630MOL0     H85007   5.641   7.881   4.537  0.2898  0.0409  0.7576
  630MOL0     H85008   5.741   7.913   4.777  2.4097  0.7175  0.5833
  630MOL0     H85009   5.824   7.995   4.646 -5.9910  1.8892 -1.2237
  630MOL0     H85010   5.753   7.771   4.916 -0.3429  4.0837 -2.4344
  630MOL0     H85011   5.817   7.697   5.145  0.4522 -0.4001  0.1910
  630MOL0     H85012   6.164   7.332   5.292 -2.2722  2.0503 -2.0228
  630MOL0     H85013   6.206   7.214   5.507 -0.3260  0.0255  2.7928
  630MOL0     H85014   6.302   7.465   5.886  1.1260 -0.9016  0.2427
  630MOL0     H85015   6.131   7.408   5.887 -1.0031 -1.2557  1.6954
  630MOL0     H85016   6.224   7.174   5.946 -0.3373 -0.7336  1.1028
  630MOL0     H85017   6.384   7.243   5.949  0.1818 -0.8036  1.1385
  630MOL0     H85018   6.314   7.374   6.152 -1.6065  1.2775  1.1949
  630MOL0     H85019   6.150   7.365   6.121  1.4260  1.8438  0.9806
  630MOL0     H85020   6.320   7.136   6.212  0.6332  0.2505 -2.1261
  630MOL0     H85021   6.147   7.132   6.174  0.0115 -0.3206  2.9852
  630MOL0     H85022   6.098   7.299   6.341 -2.2666 -2.6963  3.7045
  630MOL0     H85023   6.276   7.321   6.369  0.8608 -0.3364 -3.6446
  630MOL0     H85024   6.277   7.095   6.473  0.5929  0.9096  2.5350
  630MOL0     H85025   6.148   7.187   6.544 -1.8397  0.0712  0.5794
  630MOL0     H85026   6.072   6.958   6.493 -0.4176 -0.0452  1.9564
  630MOL0     H85027   6.059   6.983   6.316  1.1790  1.7575  0.2406
  630MOL0     H85028   5.907   7.193   6.383  0.5567  0.4385  1.1541
  630MOL0     H85029   5.850   7.024   6.397  1.1357 -2.0387  1.4334
  630MOL0     H85030   6.301   7.581   5.691  1.7527 -0.6885 -0.4698
  630MOL0     H85031   6.247   7.697   5.487 -0.2937 -0.8811  0.4610
  630MOL0     H85032   6.223   7.739   5.031 -1.3085  2.6074  2.9961
  630MOL0     H85033   6.165   7.760   4.814  0.1825  2.6641 -0.7540
  630MOL0     H85034   6.417   7.569   4.992 -0.9960 -4.8575 -2.6822
  630MOL0     H85035   6.532   7.701   5.168 -0.7160 -0.6108 -1.3879
  630MOL0     H85036   6.849   7.625   5.471 -0.6613  0.0185 -1.0592
  630MOL0     H85037   7.026   7.699   5.608  0.4244  1.5899 -0.1012
  630MOL0     H85038   6.931   7.947   5.967 -0.0541  2.4421  0.2985
  630MOL0     H85039   7.010   8.076   5.873 -1.6752  0.9925  1.7886
  630MOL0     H85040   7.124   7.879   6.065 -3.1529  1.1243 -0.6310
  630MOL0     H85041   7.159   8.051   6.054 -2.5722 -1.6112  2.4258
  630MOL0     H85042   7.296   7.980   5.859  2.2928 -0.5840 -0.3023
  630MOL0     H85043   7.242   7.809   5.883 -1.9561  2.3621 -1.2705
  630MOL0     H85044   7.346   7.845   6.131  1.7089  1.3444  1.0707
  630MOL0     H85045   7.455   7.814   6.005  1.2579  0.5741  2.6236
  630MOL0     H85046   7.482   8.221   6.155 -0.5498  0.7039  1.1564
  630MOL0     H85047   6.778   7.987   5.809  2.1209  0.4196 -0.3629
  630MOL0     H85048   6.561   8.001   5.598  1.9203 -0.2237  0.2494
  630MOL0     H85049   6.476   7.855   5.651  2.0201 -2.7509 -0.2490
  630MOL0     H85050   6.547   7.962   5.778  1.6439 -0.9009  0.6071
  631MOL0     O85051   1.059   7.944   4.406 -0.4946  0.1689  0.1148
  631MOL0     C85052   0.969   7.866   4.367  0.2068 -0.4036  0.4345
  631MOL0     O85053   0.916   7.867   4.242 -0.6961 -0.2977  0.0950
  631MOL0     C85054   0.901   7.984   4.170 -0.1188  0.7886  0.2507
  631MOL0     C85055   0.921   8.111   4.212 -0.2129 -0.8709  0.4790
  631MOL0     C85056   0.909   8.223   4.133 -0.8071 -0.4034  0.1905
  631MOL0     C85057   0.868   8.206   4.003  0.2127  0.2497  0.6876
  631MOL0     O85058   0.836   8.319   3.929 -0.1804 -0.2342 -0.5063
  631MOL0     C85059   0.882   8.318   3.793 -0.0997  0.0037 -0.0166
  631MOL0     C85060   0.846   8.448   3.715  0.1497  0.4070  0.7163
  631MOL0     C85061   0.688   8.461   3.713 -0.3587  0.4666 -0.3607
  631MOL0     C85062   0.648   8.603   3.670  0.5730 -0.3552  0.7635
  631MOL0     C85063   0.687   8.633   3.524 -0.1371 -0.3094  0.1166
  631MOL0     C85064   0.641   8.769   3.479  0.1319  0.9049 -1.2347
  631MOL0     C85065   0.683   8.795   3.337  0.2077 -0.4246 -0.0225
  631MOL0     C85066   0.629   8.927   3.283  0.0662 -0.9197  0.1870
  631MOL0     N85067   0.696   8.957   3.157  0.8404  0.3119  1.1533
  631MOL0     C85068   0.635   8.966   3.030 -0.0807  0.5601 -1.1146
  631MOL0     C85069   0.733   9.015   2.956  0.3158  0.6184  0.4801
  631MOL0     C85070   0.709   9.043   2.803  0.3219 -0.5304  0.2900
  631MOL0     C85071   0.644   9.175   2.762  0.8627  0.5808  0.1695
  631MOL0     C85072   0.676   9.300   2.843  0.0226 -0.5597 -0.1558
  631MOL0     C85073   0.818   9.343   2.835 -1.1216  0.5919  0.3324
  631MOL0     O85074   0.820   9.471   2.894 -1.0360 -0.4613  0.5568
  631MOL0     C85075   0.939   9.541   2.856  0.1967  0.4870  0.5224
  631MOL0     C85076   0.925   9.680   2.845 -0.5490 -0.3283  0.7514
  631MOL0     C85077   1.027   9.774   2.836  0.5013 -0.2364  0.2397
  631MOL0     C85078   1.155   9.724   2.803 -0.7082  0.1173  0.4455
  631MOL0     C85079   1.270   9.814   2.783 -0.4574 -0.4747  0.5517
  631MOL0     O85080   1.269   9.934   2.856  0.3426  0.0084 -0.4938
  631MOL0     C85081   1.386  10.003   2.873 -0.0753 -0.3368  0.7347
  631MOL0     C85082   1.437  10.075   2.765 -0.6265 -0.0752  0.1060
  631MOL0     C85083   1.557  10.148   2.777  0.6012  0.9217 -0.4701
  631MOL0     C85084   1.633  10.139   2.891 -0.8264  0.4928  0.6284
  631MOL0     O85085   1.762  10.194   2.904 -1.1852  0.6065 -0.1761
  631MOL0     C85086   1.829  10.255   2.793 -0.2915  1.6029  0.6585
  631MOL0     C85087   1.958  10.318   2.843  0.1203  0.3555 -0.6360
  631MOL0     C85088   2.069  10.212   2.851 -0.1785  0.1040 -0.0564
  631MOL0     C85089   2.204  10.260   2.912  0.2017  0.4183 -0.9421
  631MOL0     C85090   2.270  10.134   2.974 -0.6386  0.4059 -0.5287
  631MOL0     C85091   2.410  10.155   3.039 -0.2998  0.2305  1.0412
  631MOL0     C85092   2.482  10.035   3.103  0.0257 -0.4981 -0.6047
  631MOL0     C85093   2.619  10.075   3.168  0.6140 -0.4388  0.0893
  631MOL0    Cl85094   2.732  10.169   3.062 -0.3250  0.2383 -0.4862
  631MOL0     C85095   1.587  10.063   3.000  0.3074 -1.0064 -0.8460
  631MOL0     C85096   1.460  10.005   2.998 -0.5445  0.5980  0.3313
  631MOL0     O85097   1.370   9.783   2.713  0.4311  0.0042 -0.0129
  631MOL0     C85098   1.172   9.580   2.795 -0.9804 -0.5495  0.8515
  631MOL0     C85099   1.066   9.492   2.819  0.3622 -0.3252  0.5973
  631MOL0     N85100   0.839   9.043   3.033  0.0956 -0.1477 -0.7657
  631MOL0     N85101   0.823   8.994   3.152 -0.3475  0.7274  0.4015
  631MOL0     C85102   0.845   8.072   3.949 -0.4552 -0.3764 -0.0552
  631MOL0     C85103   0.862   7.966   4.045  0.3341 -0.1058  0.8744
  631MOL0     C85104   0.943   7.746   4.445 -0.1689 -0.6732 -0.0684
  631MOL0     C85105   0.802   7.705   4.450  0.1681 -0.9734  0.5916
  631MOL0     C85106   0.763   7.589   4.517 -0.2939 -0.0716  0.5227
  631MOL0     C85107   0.859   7.499   4.554 -0.0307  0.6423  0.5662
  631MOL0     O85108   0.822   7.389   4.626  0.9214 -0.5977  0.8226
  631MOL0     C85109   0.900   7.263   4.610 -0.9878 -0.2221 -0.4380
  631MOL0     C85110   0.989   7.252   4.732 -1.0789  0.3154  0.8360
  631MOL0     C85111   0.981   7.125   4.797 -0.9085 -1.8059 -0.3665
  631MOL0     C85112   1.111   7.093   4.873  0.6926  0.8450  1.0482
  631MOL0     C85113   1.122   6.978   4.975  0.5189  1.1392 -0.1088
  631MOL0     C85114   1.130   6.880   5.052 -0.7737 -1.3840 -0.7503
  631MOL0     C85115   0.994   7.528   4.544 -1.1462  0.1175  0.2016
  631MOL0     C85116   1.043   7.649   4.484  0.1399 -0.0662  0.7823
  631MOL0     C85117   1.179   7.664   4.435 -0.1422 -0.4015 -0.5004
  631MOL0     H85118   0.957   8.126   4.314 -0.6537  0.2617  0.4833
  631MOL0     H85119   0.925   8.317   4.185 -0.2376 -1.5971  2.3383
  631MOL0     H85120   0.990   8.319   3.809  0.1787  1.2133 -1.6658
  631MOL0     H85121   0.841   8.233   3.737  1.0212 -1.5950  1.4611
  631MOL0     H85122   0.897   8.453   3.619 -1.6793 -2.4415 -0.5343
  631MOL0     H85123   0.879   8.532   3.776 -2.3984  2.8244 -0.9997
  631MOL0     H85124   0.646   8.442   3.812 -1.9833 -2.0114 -1.4186
  631MOL0     H85125   0.647   8.396   3.636 -1.3928  1.9768 -1.1492
  631MOL0     H85126   0.540   8.622   3.674  0.9381  1.7012  2.1518
  631MOL0     H85127   0.680   8.685   3.735 -1.0486  1.1740 -0.2653
  631MOL0     H85128   0.795   8.621   3.513  0.0741 -0.9815  2.3357
  631MOL0     H85129   0.629   8.563   3.464 -2.0593  2.1727 -1.1540
  631MOL0     H85130   0.533   8.782   3.489  0.4761  2.4607  1.2137
  631MOL0     H85131   0.662   8.848   3.551 -0.0629  1.2226 -1.5256
  631MOL0     H85132   0.649   8.713   3.273  1.1365 -0.0834 -0.9836
  631MOL0     H85133   0.791   8.790   3.323  0.1074 -2.9011 -0.3218
  631MOL0     H85134   0.522   8.922   3.265 -0.0869 -1.7444  1.1754
  631MOL0     H85135   0.646   9.011   3.351  0.3024  1.1588 -2.3156
  631MOL0     H85136   0.532   8.938   3.010 -0.6293  0.8306  1.0482
  631MOL0     H85137   0.806   9.049   2.754  1.4022  2.6714  2.5153
  631MOL0     H85138   0.648   8.968   2.753  1.6173 -1.8090  0.5632
  631MOL0     H85139   0.678   9.191   2.659  2.4225 -0.7213  0.4242
  631MOL0     H85140   0.536   9.159   2.764  0.6113  2.1526  0.3003
  631MOL0     H85141   0.652   9.298   2.950 -0.2781  0.7577 -0.1768
  631MOL0     H85142   0.609   9.377   2.803  0.5026 -0.3839 -0.6259
  631MOL0     H85143   0.853   9.340   2.731 -5.5183  3.2898 -1.4834
  631MOL0     H85144   0.878   9.268   2.888 -0.5717 -0.6134 -1.8727
  631MOL0     H85145   0.827   9.721   2.868 -1.4247 -0.1294 -2.7807
  631MOL0     H85146   1.005   9.877   2.861 -1.2952 -0.3648 -0.6613
  631MOL0     H85147   1.367  10.080   2.682 -1.1221 -2.1081  0.3420
  631MOL0     H85148   1.581  10.199   2.685  1.8642 -2.9255 -2.4733
  631MOL0     H85149   1.861  10.192   2.710 -2.9962 -1.5108  1.7433
  631MOL0     H85150   1.756  10.322   2.745 -3.2908 -1.7378  0.1214
  631MOL0     H85151   1.994  10.375   2.756  1.3329  0.2150 -0.2386
  631MOL0     H85152   1.942  10.379   2.932  1.0527 -0.1463 -0.1023
  631MOL0     H85153   2.022  10.130   2.907  0.1043 -0.0001  0.0353
  631MOL0     H85154   2.095  10.157   2.761  1.0897 -1.1858  1.0457
  631MOL0     H85155   2.196  10.334   2.992  2.0244 -1.7561  1.4132
  631MOL0     H85156   2.275  10.300   2.839  2.6150 -2.9037 -0.6487
  631MOL0     H85157   2.265  10.049   2.905  1.1582  0.2445 -0.5224
  631MOL0     H85158   2.204  10.108   3.057 -0.3017  0.5125 -0.2229
  631MOL0     H85159   2.484  10.191   2.967 -2.6504  4.8990  0.5708
  631MOL0     H85160   2.405  10.243   3.104  2.4800 -0.9660  3.0427
  631MOL0     H85161   2.488   9.973   3.013 -2.8440 -0.2772 -1.0504
  631MOL0     H85162   2.414   9.988   3.174  2.6108 -1.2835  1.5076
  631MOL0     H85163   2.590  10.126   3.261 -2.6323  2.1688 -2.1026
  631MOL0     H85164   2.676   9.985   3.192  0.0437 -0.7523  0.3025
  631MOL0     H85165   1.642  10.068   3.094 -3.7711  0.1141  1.7342
  631MOL0     H85166   1.433   9.964   3.095 -1.1000  1.1312  0.4092
  631MOL0     H85167   1.271   9.545   2.769 -0.4634  1.1237  0.4333
  631MOL0     H85168   1.098   9.392   2.793  1.1146  0.1058 -0.2181
  631MOL0     H85169   0.803   8.049   3.852 -0.0150 -1.2135 -0.0568
  631MOL0     H85170   0.827   7.868   4.013 -4.2387  0.9876  1.8335
  631MOL0     H85171   0.730   7.773   4.406  0.9245  1.5270  2.9433
  631MOL0     H85172   0.657   7.567   4.525 -0.3551  0.1777  0.4207
  631MOL0     H85173   0.964   7.265   4.522 -0.1480 -3.6375 -0.0671
  631MOL0     H85174   0.838   7.172   4.607 -0.6218 -0.5717  1.2131
  631MOL0     H85175   0.959   7.331   4.801  1.7543  1.2512  1.1227
  631MOL0     H85176   1.093   7.276   4.711 -1.5569  2.4237  0.6429
  631MOL0     H85177   0.973   7.048   4.720  3.2640 -0.1362 -2.7919
  631MOL0     H85178   0.901   7.142   4.870  0.8912  1.8840  1.0064
  631MOL0     H85179   1.181   7.060   4.796 -1.2908 -1.7524  0.2032
  631MOL0     H85180   1.155   7.182   4.919  0.6226 -0.8378  4.6369
  631MOL0     H85181   1.146   6.801   5.122  2.4994 -0.0807  0.1714
  631MOL0     H85182   1.072   7.459   4.575  0.3377  1.4833 -0.3696
  631MOL0     H85183   1.190   7.714   4.339 -1.4707 -1.5935 -1.3114
  631MOL0     H85184   1.231   7.729   4.506 -2.1784  1.8750 -0.9557
  631MOL0     H85185   1.240   7.574   4.435  2.4398  1.1177 -3.7755
  632MOL0     O85186   6.137  10.138   8.924  0.5113  1.3552 -0.5696
  632MOL0     C85187   6.106  10.238   8.872 -0.4868  0.2434  0.2516
  632MOL0     O85188   6.001  10.314   8.909 -0.0225  0.2371 -0.0083
  632MOL0     C85189   5.918  10.296   9.024 -0.4524 -0.1049  1.0381
  632MOL0     C85190   5.963  10.260   9.149 -0.6201 -0.1694 -0.6148
  632MOL0     C85191   5.877  10.257   9.266 -0.2623 -0.5918  0.2783
  632MOL0     C85192   5.745  10.297   9.257  0.5820 -0.6768  0.2039
  632MOL0     O85193   5.655  10.263   9.352  0.0986 -0.0706 -0.4292
  632MOL0     C85194   5.538  10.200   9.302  0.6204 -0.4037  0.1112
  632MOL0     C85195   5.436  10.169   9.417 -0.5490  0.0721 -0.1305
  632MOL0     C85196   5.391  10.303   9.476 -0.4071  1.3540  0.0482
  632MOL0     C85197   5.319  10.282   9.617 -1.3505 -0.6381  0.0602
  632MOL0     C85198   5.240  10.403   9.666 -0.1352  0.3460 -0.3070
  632MOL0     C85199   5.292  10.541   9.633  0.9354  0.4319 -0.2778
  632MOL0     C85200   5.432  10.560   9.706 -0.3559  0.4418 -0.9655
  632MOL0     C85201   5.486  10.703   9.683 -0.0195  0.3595  0.4332
  632MOL0     N85202   5.456  10.750   9.546  0.8550  0.1990  0.2691
  632MOL0     C85203   5.536  10.783   9.443 -0.2489  0.4187 -0.7354
  632MOL0     C85204   5.464  10.843   9.352  0.1228  0.9741 -0.4575
  632MOL0     C85205   5.511  10.880   9.211  0.0053  0.7485  0.5379
  632MOL0     C85206   5.593  11.009   9.201 -0.2898 -0.1052 -0.1921
  632MOL0     C85207   5.517  11.141   9.183  0.3303 -0.8418 -0.7216
  632MOL0     C85208   5.606  11.263   9.132 -0.0553 -0.6885  1.1784
  632MOL0     O85209   5.538  11.354   9.033  0.6069 -0.4753 -1.0200
  632MOL0     C85210   5.571  11.486   9.013  0.2633  0.0259  0.2871
  632MOL0     C85211   5.683  11.543   9.076 -0.2906  0.2625  0.0830
  632MOL0     C85212   5.721  11.674   9.041  0.8916 -0.6518 -0.2175
  632MOL0     C85213   5.634  11.758   8.964  0.8672  0.7572  0.1555
  632MOL0     C85214   5.680  11.889   8.946 -0.6254 -1.2645  1.8498
  632MOL0     O85215   5.809  11.918   8.990  0.0385  1.0159  0.2867
  632MOL0     C85216   5.874  12.032   8.988 -0.2144  0.0408  0.0997
  632MOL0     C85217   6.017  12.016   8.989  1.5412 -0.2514 -0.8075
  632MOL0     C85218   6.108  12.120   9.017 -0.2094  0.8711  0.1245
  632MOL0     C85219   6.057  12.250   9.011 -0.2582  0.2582  0.4639
  632MOL0     O85220   6.135  12.361   9.020 -0.0241 -0.4468  0.5108
  632MOL0     C85221   6.279  12.364   9.057  0.8654 -0.0234  0.1495
  632MOL0     C85222   6.354  12.445   8.963  0.2380  0.2958  0.4748
  632MOL0     C85223   6.494  12.453   9.013 -0.3200  1.0552  0.7872
  632MOL0     C85224   6.578  12.489   8.890  0.1727 -0.2119 -0.4975
  632MOL0     C85225   6.719  12.514   8.947 -0.5944 -0.2669 -0.2631
  632MOL0     C85226   6.826  12.565   8.842  0.2243 -0.1214  0.4942
  632MOL0     C85227   6.792  12.699   8.776 -0.0602 -0.0097 -0.1489
  632MOL0     C85228   6.916  12.760   8.697  0.5055  0.1897  0.0379
  632MOL0    Cl85229   7.054  12.811   8.796 -0.2836  0.1956  0.1541
  632MOL0     C85230   5.918  12.268   8.989  0.1571 -0.2037 -0.6724
  632MOL0     C85231   5.825  12.158   8.979  0.5846 -0.0419  0.1627
  632MOL0     O85232   5.604  11.967   8.899 -0.2091 -0.0719  0.6119
  632MOL0     C85233   5.504  11.703   8.926  0.0475  0.1712  1.0016
  632MOL0     C85234   5.474  11.568   8.948  0.2007  0.7184 -0.1767
  632MOL0     N85235   5.338  10.853   9.396 -0.3408  0.1980 -0.1678
  632MOL0     N85236   5.330  10.795   9.507  0.9456 -0.6335  0.6335
  632MOL0     C85237   5.700  10.335   9.125 -0.4188 -0.3987 -1.0729
  632MOL0     C85238   5.785  10.332   9.014 -0.5884  0.4365  0.0787
  632MOL0     C85239   6.191  10.290   8.760 -0.2772  0.9029 -0.3823
  632MOL0     C85240   6.240  10.211   8.654  0.1543  0.7177  0.2670
  632MOL0     C85241   6.343  10.251   8.567 -0.0037  0.1560  0.3705
  632MOL0     C85242   6.369  10.387   8.572 -0.5967  0.2584  0.2993
  632MOL0     O85243   6.448  10.434   8.475 -0.0496 -0.3239  0.1791
  632MOL0     C85244   6.568  10.507   8.525  0.7898  0.8991 -0.1464
  632MOL0     C85245   6.680  10.531   8.430 -0.5748  0.4421 -0.9233
  632MOL0     C85246   6.628  10.612   8.309 -0.2739  0.5507 -1.8306
  632MOL0     C85247   6.748  10.670   8.225 -0.1677 -0.5254  0.1617
  632MOL0     C85248   6.692  10.771   8.136  0.1552 -1.6513 -0.4749
  632MOL0     C85249   6.651  10.851   8.054  0.4204 -1.3553 -0.0578
  632MOL0     C85250   6.315  10.467   8.671 -0.8611 -0.6902 -0.0159
  632MOL0     C85251   6.232  10.426   8.771 -0.4024 -0.2102 -0.5673
  632MOL0     C85252   6.208  10.518   8.885  0.6309 -0.3739 -0.2639
  632MOL0     H85253   6.068  10.233   9.155 -0.5869 -0.1516 -1.0733
  632MOL0     H85254   5.931  10.223   9.354  2.0814 -2.2771 -1.6548
  632MOL0     H85255   5.481  10.259   9.229  1.5101 -0.1618 -0.4034
  632MOL0     H85256   5.567  10.106   9.255  0.2681 -1.2035  1.4414
  632MOL0     H85257   5.504  10.119   9.487 -1.4477 -1.6137 -0.4111
  632MOL0     H85258   5.343  10.117   9.391 -2.0266  2.1362  0.7961
  632MOL0     H85259   5.309  10.345   9.416  0.5321  4.8062  0.9231
  632MOL0     H85260   5.473  10.374   9.487 -0.6459  1.5826  0.3854
  632MOL0     H85261   5.245  10.205   9.593  0.7498 -2.9116  0.4814
  632MOL0     H85262   5.396  10.240   9.683  0.6448 -1.5357 -2.6125
  632MOL0     H85263   5.140  10.393   9.622 -0.5774  1.9044  0.2859
  632MOL0     H85264   5.210  10.390   9.770 -2.4069 -3.7114 -1.2472
  632MOL0     H85265   5.309  10.529   9.526  1.9815 -2.7764  0.1198
  632MOL0     H85266   5.222  10.621   9.660  2.6546  1.5569  1.0973
  632MOL0     H85267   5.509  10.485   9.686 -0.9006 -1.6786  3.5613
  632MOL0     H85268   5.428  10.552   9.815  1.3914  2.1315 -0.7170
  632MOL0     H85269   5.431  10.769   9.750  0.6299  1.0003  0.3497
  632MOL0     H85270   5.593  10.702   9.706  0.0404  1.5906  0.2563
  632MOL0     H85271   5.644  10.772   9.440 -0.1453  1.3706 -0.8905
  632MOL0     H85272   5.568  10.791   9.183 -0.0769  0.2221  1.9307
  632MOL0     H85273   5.427  10.879   9.140  1.9403 -0.6221 -1.8864
  632MOL0     H85274   5.649  11.014   9.294 -2.5015  0.3977  1.2043
  632MOL0     H85275   5.657  10.996   9.114  1.1812 -3.0903  1.1934
  632MOL0     H85276   5.472  11.170   9.278 -1.6951 -2.3429 -1.1412
  632MOL0     H85277   5.437  11.119   9.112  0.1626 -2.4576 -0.0807
  632MOL0     H85278   5.696  11.224   9.084  2.2317  3.2765  1.8105
  632MOL0     H85279   5.633  11.306   9.229  2.0188  0.2087  0.2626
  632MOL0     H85280   5.750  11.472   9.124 -0.5506  0.4921  0.7786
  632MOL0     H85281   5.818  11.698   9.083  1.4489 -3.4507  0.2810
  632MOL0     H85282   6.051  11.914   8.996  2.1450  0.0629  2.9007
  632MOL0     H85283   6.215  12.102   9.022 -0.5784 -1.5916  4.9804
  632MOL0     H85284   6.275  12.421   9.151  1.0190  0.7292 -0.2975
  632MOL0     H85285   6.324  12.265   9.068  1.2159 -0.0152 -1.0711
  632MOL0     H85286   6.343  12.402   8.863  1.1997  0.8014  0.1315
  632MOL0     H85287   6.305  12.543   8.963  1.2053  0.8009  0.9339
  632MOL0     H85288   6.511  12.524   9.095  3.3686  2.0710 -0.6411
  632MOL0     H85289   6.516  12.353   9.051 -2.1943  0.5664  0.6988
  632MOL0     H85290   6.537  12.576   8.838  2.2043  0.0768 -1.7165
  632MOL0     H85291   6.581  12.402   8.823  1.4202 -0.5740 -0.0027
  632MOL0     H85292   6.758  12.425   8.996 -0.8024  0.6092  1.5828
  632MOL0     H85293   6.708  12.591   9.024 -0.7648 -1.6133  1.0969
  632MOL0     H85294   6.921  12.580   8.894 -0.3230 -0.5164  1.6409
  632MOL0     H85295   6.851  12.489   8.767 -0.7035  1.4990 -1.5378
  632MOL0     H85296   6.780  12.772   8.857  0.3393  0.1981 -0.2763
  632MOL0     H85297   6.698  12.689   8.721  0.2256  1.9909 -1.0669
  632MOL0     H85298   6.963  12.692   8.625  1.3308  0.0223  0.7252
  632MOL0     H85299   6.884  12.852   8.645 -3.9146 -2.0028 -1.6366
  632MOL0     H85300   5.881  12.369   8.976 -0.2613 -0.2064  0.4054
  632MOL0     H85301   5.721  12.183   8.965  1.1332  0.6332 -3.7640
  632MOL0     H85302   5.436  11.759   8.863 -1.3645 -2.3188  0.1810
  632MOL0     H85303   5.392  11.506   8.914  0.5616  0.2659 -0.2259
  632MOL0     H85304   5.598  10.357   9.094 -0.2308 -0.9476 -2.1423
  632MOL0     H85305   5.738  10.374   8.926  2.9076 -0.6046 -2.5320
  632MOL0     H85306   6.198  10.111   8.645  1.0450  0.2703  1.0138
  632MOL0     H85307   6.400  10.184   8.502  0.0764 -1.1693  1.7594
  632MOL0     H85308   6.604  10.453   8.613 -0.5731 -0.5490 -0.4398
  632MOL0     H85309   6.532  10.605   8.559  2.0568  1.3454 -0.0353
  632MOL0     H85310   6.737  10.438   8.416  1.5068  1.4282  0.5520
  632MOL0     H85311   6.747  10.596   8.485  0.9786 -2.0392  0.3079
  632MOL0     H85312   6.563  10.688   8.353  1.0226  0.1265  1.0545
  632MOL0     H85313   6.581  10.545   8.237  0.3305 -2.1887  0.1500
  632MOL0     H85314   6.806  10.718   8.304 -0.7475 -2.1892  1.6711
  632MOL0     H85315   6.812  10.599   8.172  0.8578 -0.4888  1.3049
  632MOL0     H85316   6.611  10.922   7.985  2.2466  0.7866  0.9663
  632MOL0     H85317   6.338  10.573   8.660 -1.6990 -0.7828 -3.7159
  632MOL0     H85318   6.281  10.600   8.881 -1.5328  1.5863 -2.5682
  632MOL0     H85319   6.118  10.572   8.856  2.1838  1.4627 -2.0103
  632MOL0     H85320   6.203  10.481   8.988  3.6820 -0.4983 -0.0631
  633MOL0     O85321   2.758  10.869   5.579  0.5168 -1.0109 -0.1711
  633MOL0     C85322   2.750  10.918   5.692 -0.5082  0.9501 -1.0473
  633MOL0     O85323   2.715  10.843   5.802 -0.1857 -0.1626  0.6329
  633MOL0     C85324   2.682  10.718   5.781  0.2775 -0.2931 -0.2888
  633MOL0     C85325   2.775  10.615   5.792  0.0061  0.4902  0.4366
  633MOL0     C85326   2.736  10.482   5.799  0.8082 -0.4513 -0.8957
  633MOL0     C85327   2.594  10.449   5.778  0.5419  0.1950  0.2376
  633MOL0     O85328   2.566  10.311   5.777 -0.7719  0.0606  0.9063
  633MOL0     C85329   2.449  10.272   5.711 -0.3013  0.3234 -0.4822
  633MOL0     C85330   2.431  10.119   5.704  0.0533 -0.1288 -0.4479
  633MOL0     C85331   2.295  10.094   5.636  0.0106 -0.0190 -1.0552
  633MOL0     C85332   2.291   9.947   5.579  0.3905  1.3416 -0.4410
  633MOL0     C85333   2.264   9.841   5.686  0.3417 -0.3192 -0.4864
  633MOL0     C85334   2.204   9.717   5.627  0.2672 -1.1066 -0.5089
  633MOL0     C85335   2.277   9.651   5.512 -0.2518 -1.4094 -0.4135
  633MOL0     C85336   2.419   9.623   5.554  0.8323  0.3352 -0.2998
  633MOL0     N85337   2.445   9.483   5.507 -0.5377  0.8074  0.3928
  633MOL0     C85338   2.483   9.455   5.382  0.2528 -0.7557 -0.5516
  633MOL0     C85339   2.475   9.318   5.370 -0.1407  0.0054 -0.3866
  633MOL0     C85340   2.515   9.251   5.243  0.4323 -0.1581  0.3608
  633MOL0     C85341   2.669   9.243   5.233  0.1651 -0.5830 -0.0468
  633MOL0     C85342   2.750   9.360   5.176 -1.1307 -0.6236 -0.4026
  633MOL0     C85343   2.903   9.349   5.207 -0.5981  0.5697 -0.0956
  633MOL0     O85344   2.934   9.366   5.344 -0.2826  0.0022 -0.0607
  633MOL0     C85345   3.038   9.443   5.365 -0.3780 -0.1133 -0.3514
  633MOL0     C85346   3.169   9.422   5.302  0.3112 -0.1635  0.4213
  633MOL0     C85347   3.282   9.500   5.340 -0.3525 -0.0281 -0.2070
  633MOL0     C85348   3.263   9.599   5.435 -0.3935 -0.2186 -0.6927
  633MOL0     C85349   3.373   9.688   5.463 -0.1949 -0.6674  0.0253
  633MOL0     O85350   3.506   9.640   5.444 -0.4061 -0.0072 -0.5818
  633MOL0     C85351   3.612   9.713   5.498 -0.1038  0.3922 -0.2428
  633MOL0     C85352   3.703   9.770   5.414  0.2620 -0.5338  0.4460
  633MOL0     C85353   3.809   9.845   5.462  0.0704 -0.5844  0.5004
  633MOL0     C85354   3.819   9.856   5.607  0.3566  0.1331 -0.0165
  633MOL0     O85355   3.927   9.931   5.655 -0.1051 -0.2822  0.8368
  633MOL0     C85356   3.921   9.974   5.792 -0.4245  0.1306 -0.2685
  633MOL0     C85357   4.027  10.086   5.806  0.5010 -0.1782  0.0968
  633MOL0     C85358   3.957  10.209   5.768  1.1209  0.4635  0.0119
  633MOL0     C85359   4.051  10.322   5.812 -0.4766 -0.5944 -0.5839
  633MOL0     C85360   3.981  10.459   5.778  0.8068 -0.1340 -0.0562
  633MOL0     C85361   3.894  10.505   5.896  1.0251 -1.5806  0.4348
  633MOL0     C85362   3.802  10.633   5.861  0.1243 -0.5932  0.8862
  633MOL0     C85363   3.713  10.606   5.734 -0.1828  1.4592  0.9250
  633MOL0    Cl85364   3.612  10.459   5.772  0.2522  0.0611  0.6239
  633MOL0     C85365   3.722   9.801   5.695  0.1263  0.0348 -0.1055
  633MOL0     C85366   3.620   9.743   5.633  0.0695  0.4624  0.5328
  633MOL0     O85367   3.344   9.802   5.503  0.3759 -0.2560  0.4652
  633MOL0     C85368   3.138   9.626   5.491  0.1567 -0.0978  0.1786
  633MOL0     C85369   3.026   9.548   5.461  1.4414  0.1496  0.3553
  633MOL0     N85370   2.421   9.265   5.484  0.8884 -0.2692  0.4181
  633MOL0     N85371   2.413   9.362   5.562  0.6009 -0.4756  0.1306
  633MOL0     C85372   2.507  10.556   5.761 -0.2728  0.5883 -1.0493
  633MOL0     C85373   2.552  10.687   5.750  0.5065  0.2911 -0.2820
  633MOL0     C85374   2.778  11.064   5.705 -0.2985 -1.2243 -0.5720
  633MOL0     C85375   2.705  11.139   5.798 -0.4787 -0.1211  0.6356
  633MOL0     C85376   2.723  11.276   5.810 -0.2674 -0.2579 -0.2603
  633MOL0     C85377   2.814  11.351   5.719  0.3186  0.2931 -0.7036
  633MOL0     O85378   2.819  11.486   5.731  0.1117  0.1921 -0.0347
  633MOL0     C85379   2.922  11.564   5.663 -0.1284  0.3668  0.1070
  633MOL0     C85380   2.884  11.711   5.702 -0.4735 -0.8340 -0.1263
  633MOL0     C85381   2.962  11.754   5.824  0.4676  0.4985 -1.4656
  633MOL0     C85382   2.951  11.905   5.867 -0.3300 -0.0910  0.0860
  633MOL0     C85383   3.004  11.992   5.757 -0.0036 -0.6518 -0.6701
  633MOL0     C85384   3.045  12.065   5.670 -0.5627 -0.3112 -0.0647
  633MOL0     C85385   2.888  11.273   5.627 -0.1472  1.3954 -1.5658
  633MOL0     C85386   2.874  11.133   5.624  0.6848  0.3672 -0.1778
  633MOL0     C85387   2.976  11.060   5.535  0.5018 -0.6411  0.1622
  633MOL0     H85388   2.881  10.633   5.808 -0.5970  3.7632  1.5862
  633MOL0     H85389   2.799  10.396   5.821  1.2861  0.6455  2.5944
  633MOL0     H85390   2.365  10.310   5.770 -0.4279 -0.6440 -0.0286
  633MOL0     H85391   2.442  10.320   5.613 -4.4629  2.0084  0.3994
  633MOL0     H85392   2.443  10.069   5.801 -2.9681  1.1463  0.6896
  633MOL0     H85393   2.514  10.076   5.646  0.5359 -0.1266  0.2328
  633MOL0     H85394   2.295  10.168   5.555 -0.9228  0.1581 -0.9036
  633MOL0     H85395   2.210  10.112   5.702 -0.6236  0.7667 -2.0553
  633MOL0     H85396   2.201   9.939   5.517 -1.0986  0.8693  1.6350
  633MOL0     H85397   2.377   9.920   5.518 -0.9683 -1.9308 -1.1232
  633MOL0     H85398   2.355   9.812   5.740  0.6876  0.2218 -0.7781
  633MOL0     H85399   2.196   9.883   5.761 -0.5514  1.1299 -2.0489
  633MOL0     H85400   2.207   9.653   5.716 -0.5432  0.9442  1.0681
  633MOL0     H85401   2.106   9.752   5.592  0.3242 -0.6361 -0.2023
  633MOL0     H85402   2.277   9.692   5.410 -0.8509  0.6499  0.3838
  633MOL0     H85403   2.222   9.556   5.515  0.4208 -1.7919  0.0183
  633MOL0     H85404   2.487   9.696   5.508  0.2102  0.4104 -1.1265
  633MOL0     H85405   2.432   9.620   5.662 -1.4402 -0.7580 -0.0017
  633MOL0     H85406   2.504   9.525   5.302 -0.1098 -1.4867 -1.3037
  633MOL0     H85407   2.480   9.149   5.226  4.0371 -1.3017 -1.1499
  633MOL0     H85408   2.473   9.306   5.157 -1.6252  1.3022  2.1747
  633MOL0     H85409   2.710   9.223   5.333  2.6223 -0.9612 -1.0507
  633MOL0     H85410   2.702   9.161   5.169  3.0037  0.7584 -0.4617
  633MOL0     H85411   2.715   9.449   5.229  0.7517 -0.3343  0.4516
  633MOL0     H85412   2.735   9.363   5.068 -3.3090 -1.3032 -0.1674
  633MOL0     H85413   2.947   9.434   5.154 -0.4037  1.7100  1.8017
  633MOL0     H85414   2.939   9.248   5.187 -1.4048  0.4255 -0.9140
  633MOL0     H85415   3.174   9.351   5.220 -3.3933  0.2972 -0.4157
  633MOL0     H85416   3.376   9.467   5.298 -0.3582  1.1582 -1.1845
  633MOL0     H85417   3.700   9.744   5.309 -1.0465  2.5908 -0.4125
  633MOL0     H85418   3.885   9.896   5.403 -3.3542  4.6792 -0.0465
  633MOL0     H85419   3.823  10.006   5.830 -0.2246 -3.1808  3.7110
  633MOL0     H85420   3.957   9.889   5.851  0.9783 -0.3673 -1.7648
  633MOL0     H85421   4.053  10.092   5.912 -0.1565 -0.0454  0.2528
  633MOL0     H85422   4.115  10.065   5.745  1.4003 -4.1521  2.4000
  633MOL0     H85423   3.941  10.218   5.660  1.0077  0.2932  0.0158
  633MOL0     H85424   3.866  10.214   5.828  1.0434  2.3640 -0.2110
  633MOL0     H85425   4.140  10.310   5.750 -0.9678  1.4662 -1.8173
  633MOL0     H85426   4.078  10.313   5.917 -1.7570 -2.5523 -0.3756
  633MOL0     H85427   3.917  10.446   5.691 -0.6530  0.1578  0.9275
  633MOL0     H85428   4.056  10.536   5.757 -0.2951  0.9349 -0.2627
  633MOL0     H85429   3.834  10.422   5.934 -1.0928 -0.5451 -0.5187
  633MOL0     H85430   3.963  10.530   5.978  1.0149 -0.1702  0.0519
  633MOL0     H85431   3.853  10.730   5.858 -3.1849  1.2785  0.1129
  633MOL0     H85432   3.742  10.653   5.950 -0.1107  0.6764  0.4608
  633MOL0     H85433   3.641  10.686   5.711 -1.4639 -0.3699 -2.0352
  633MOL0     H85434   3.784  10.597   5.652 -0.8987 -2.4112  0.5333
  633MOL0     H85435   3.721   9.819   5.802 -1.0243  1.2756 -0.2952
  633MOL0     H85436   3.541   9.701   5.695 -1.8792 -1.3057 -2.8360
  633MOL0     H85437   3.126   9.719   5.544  0.5007  1.0527 -1.6582
  633MOL0     H85438   2.932   9.557   5.515  0.2072  3.9129 -2.0405
  633MOL0     H85439   2.400  10.540   5.762  0.0607 -2.0910  0.3269
  633MOL0     H85440   2.477  10.766   5.747 -1.2439 -1.3268 -1.8849
  633MOL0     H85441   2.639  11.088   5.867 -0.6819 -0.3363  0.2817
  633MOL0     H85442   2.648  11.328   5.869  0.1130  0.6387 -0.5523
  633MOL0     H85443   2.901  11.561   5.555  0.2854 -2.6356  0.0272
  633MOL0     H85444   3.024  11.530   5.683 -0.7461 -0.5416  1.8554
  633MOL0     H85445   2.775  11.711   5.695 -0.5729 -3.9747  0.0945
  633MOL0     H85446   2.927  11.765   5.617 -0.9625 -1.5998 -0.8685
  633MOL0     H85447   3.063  11.716   5.809 -0.5531 -2.6740 -1.2633
  633MOL0     H85448   2.913  11.694   5.902  2.3350  3.6357  2.4310
  633MOL0     H85449   2.846  11.932   5.880  0.5716  3.1781  1.6719
  633MOL0     H85450   3.006  11.918   5.961  0.8273 -0.8886 -0.4464
  633MOL0     H85451   3.062  12.128   5.585  0.7500 -0.3223  0.1724
  633MOL0     H85452   2.964  11.309   5.558 -0.1720 -0.1747 -2.4619
  633MOL0     H85453   2.936  11.046   5.434  2.5423  1.2172 -1.0111
  633MOL0     H85454   3.070  11.115   5.547  0.7915 -0.5511 -2.0602
  633MOL0     H85455   3.009  10.961   5.568  0.6595  0.1959  2.7435
  634MOL0     O85456   3.962   1.889   6.535 -0.9969 -0.0429 -0.2737
  634MOL0     C85457   3.852   1.866   6.502 -0.8968  0.2035  1.1411
  634MOL0     O85458   3.786   1.927   6.406  0.6462  0.0275  1.2474
  634MOL0     C85459   3.847   2.018   6.324 -0.1643 -0.1368 -0.2561
  634MOL0     C85460   3.938   2.112   6.364 -0.0504 -0.3621  0.2122
  634MOL0     C85461   4.000   2.206   6.283  0.3777 -1.1169  0.8996
  634MOL0     C85462   3.964   2.198   6.149  0.1466 -0.5462 -0.9651
  634MOL0     O85463   4.008   2.298   6.065 -0.4997 -0.3298 -0.5636
  634MOL0     C85464   4.053   2.259   5.932 -0.3185 -0.7358  0.2405
  634MOL0     C85465   4.137   2.375   5.889  0.6601 -0.5698  0.4206
  634MOL0     C85466   4.286   2.358   5.925 -0.0157  0.2939 -0.4201
  634MOL0     C85467   4.372   2.480   5.889  0.2719 -0.0097  0.7011
  634MOL0     C85468   4.517   2.472   5.949 -0.1311  0.2303  0.1801
  634MOL0     C85469   4.529   2.487   6.099  0.0450 -0.4577  0.1052
  634MOL0     C85470   4.451   2.606   6.155  0.5075 -0.0007  0.6385
  634MOL0     C85471   4.516   2.654   6.287 -0.7031 -0.9007 -0.2305
  634MOL0     N85472   4.637   2.732   6.262  0.0060 -0.5780 -0.0178
  634MOL0     C85473   4.633   2.856   6.192  0.4210 -0.5720 -1.2767
  634MOL0     C85474   4.755   2.920   6.219 -0.4945  0.1084 -0.2901
  634MOL0     C85475   4.802   3.057   6.171  0.2085  0.1570  0.4492
  634MOL0     C85476   4.794   3.064   6.024 -1.0600 -0.6362 -0.1438
  634MOL0     C85477   4.854   3.194   5.965 -0.2575 -0.6401  0.1291
  634MOL0     C85478   4.789   3.229   5.826  0.0254  1.0743 -0.0309
  634MOL0     O85479   4.829   3.352   5.777  0.8297 -0.1057  0.0663
  634MOL0     C85480   4.772   3.403   5.665  0.5979  0.0192  0.6811
  634MOL0     C85481   4.795   3.542   5.639 -0.4309  0.5468  0.2755
  634MOL0     C85482   4.745   3.611   5.532  0.4176  0.0655 -0.3023
  634MOL0     C85483   4.660   3.542   5.439  0.5202 -0.4032 -0.5206
  634MOL0     C85484   4.609   3.611   5.316 -0.2610  0.0088 -2.1209
  634MOL0     O85485   4.632   3.746   5.300 -0.0128  0.0252  0.2771
  634MOL0     C85486   4.633   3.807   5.176  0.1716 -0.9844  0.5432
  634MOL0     C85487   4.653   3.752   5.057  0.2923  0.0476  0.0945
  634MOL0     C85488   4.663   3.816   4.940 -0.0715 -0.7139  0.0299
  634MOL0     C85489   4.655   3.954   4.934 -0.2046  0.1132  0.2293
  634MOL0     O85490   4.694   4.007   4.818  1.1579 -0.1229  1.0069
  634MOL0     C85491   4.634   4.135   4.780  0.3696 -0.1968  0.2114
  634MOL0     C85492   4.531   4.108   4.660  0.0768 -1.2006  0.2118
  634MOL0     C85493   4.600   4.109   4.519 -0.6314 -0.8385 -0.1251
  634MOL0     C85494   4.713   3.998   4.498 -0.2257 -0.3201 -0.6162
  634MOL0     C85495   4.786   4.024   4.368  0.1620  0.0924  0.5841
  634MOL0     C85496   4.704   3.979   4.247 -0.2845  0.2944  1.0225
  634MOL0     C85497   4.634   3.848   4.254  0.7945  0.1798  1.5619
  634MOL0     C85498   4.583   3.794   4.118  0.0017  0.0510 -0.4955
  634MOL0    Cl85499   4.736   3.753   4.036  0.7291  0.5475  0.3908
  634MOL0     C85500   4.626   4.020   5.055 -0.4122  0.2698  0.3631
  634MOL0     C85501   4.630   3.950   5.174  0.4445 -0.0859  0.7354
  634MOL0     O85502   4.555   3.537   5.234  0.4914  0.7336  0.2754
  634MOL0     C85503   4.630   3.408   5.463  0.2476 -0.2452  0.7540
  634MOL0     C85504   4.685   3.333   5.564  0.2375 -0.0031 -0.2477
  634MOL0     N85505   4.830   2.826   6.290 -0.7123  0.9297 -0.3108
  634MOL0     N85506   4.762   2.728   6.321 -0.9000  0.9784 -0.9611
  634MOL0     C85507   3.873   2.101   6.097  1.0679  0.4448  0.4577
  634MOL0     C85508   3.816   2.015   6.188 -0.7170 -0.5790 -0.8431
  634MOL0     C85509   3.783   1.780   6.593 -0.2564  0.1776  0.0030
  634MOL0     C85510   3.644   1.799   6.617  0.3383 -0.2662 -1.0161
  634MOL0     C85511   3.563   1.718   6.708  0.4044 -0.8270 -0.4581
  634MOL0     C85512   3.630   1.626   6.788  0.6713 -0.8211  0.4099
  634MOL0     O85513   3.565   1.550   6.890 -0.2275 -0.5157 -0.6232
  634MOL0     C85514   3.487   1.439   6.838  0.5762 -0.6036 -0.9393
  634MOL0     C85515   3.343   1.464   6.791 -0.1527  0.3435  0.0683
  634MOL0     C85516   3.248   1.500   6.910 -0.2749 -0.3224  0.3781
  634MOL0     C85517   3.133   1.584   6.856  0.5533  1.2382  0.1777
  634MOL0     C85518   3.060   1.521   6.740  0.5575 -0.6806 -0.4044
  634MOL0     C85519   2.997   1.465   6.659 -0.5441  0.0444  0.5445
  634MOL0     C85520   3.765   1.596   6.765  0.6941  0.2865  0.1961
  634MOL0     C85521   3.838   1.670   6.660 -0.4257  0.2809 -0.1384
  634MOL0     C85522   3.964   1.609   6.627  0.0017 -0.0787  0.5966
  634MOL0     H85523   3.968   2.115   6.469  2.1428  2.6777 -0.3532
  634MOL0     H85524   4.071   2.280   6.317 -1.5402  1.8425 -1.1069
  634MOL0     H85525   4.110   2.166   5.933 -1.4129 -1.5280 -2.2777
  634MOL0     H85526   3.970   2.243   5.863  0.2674 -1.1612 -0.3732
  634MOL0     H85527   4.101   2.461   5.945  3.1385 -0.0209  1.3108
  634MOL0     H85528   4.114   2.416   5.790  1.3942  1.1720  0.9295
  634MOL0     H85529   4.329   2.277   5.864 -0.3790 -0.0498 -0.2251
  634MOL0     H85530   4.306   2.337   6.030  0.4208 -0.4816 -0.6453
  634MOL0     H85531   4.395   2.478   5.782 -1.3973  2.0165  0.2458
  634MOL0     H85532   4.311   2.569   5.901 -0.4646  0.2089 -3.1854
  634MOL0     H85533   4.556   2.378   5.910 -2.2324  0.7157 -3.5905
  634MOL0     H85534   4.572   2.556   5.906  0.9858 -1.2512 -1.3912
  634MOL0     H85535   4.497   2.398   6.154 -0.2387 -0.0058  0.6888
  634MOL0     H85536   4.636   2.498   6.119  0.0527 -1.8299  0.9668
  634MOL0     H85537   4.352   2.568   6.183 -0.9912 -0.0760 -3.9759
  634MOL0     H85538   4.434   2.680   6.077 -3.3964 -0.3349  0.9871
  634MOL0     H85539   4.440   2.711   6.341  0.4917 -0.1182  0.6810
  634MOL0     H85540   4.548   2.564   6.341  0.6556 -0.2381  0.1176
  634MOL0     H85541   4.551   2.903   6.139 -0.4218 -0.6617 -0.0901
  634MOL0     H85542   4.740   3.123   6.232 -0.2033 -1.0332  1.3650
  634MOL0     H85543   4.904   3.081   6.201  0.2373  3.1693 -1.6196
  634MOL0     H85544   4.852   2.978   5.989 -2.5102 -1.1171 -1.4544
  634MOL0     H85545   4.693   3.055   5.982 -1.2571 -3.6873  0.7645
  634MOL0     H85546   4.963   3.191   5.970  0.1682  4.8497  1.2283
  634MOL0     H85547   4.827   3.271   6.038 -0.6456 -0.0304 -0.6481
  634MOL0     H85548   4.680   3.218   5.828  0.2799 -2.7522 -0.7526
  634MOL0     H85549   4.818   3.153   5.753 -2.3137  1.6889 -1.7449
  634MOL0     H85550   4.844   3.596   5.720  1.1670 -0.1571 -0.1662
  634MOL0     H85551   4.766   3.717   5.532  0.7907 -0.0015 -1.0288
  634MOL0     H85552   4.673   3.646   5.051 -1.7762 -0.3345 -0.7834
  634MOL0     H85553   4.673   3.765   4.845 -0.1939 -0.7839  0.0535
  634MOL0     H85554   4.573   4.178   4.861  1.1910 -1.3247  1.4576
  634MOL0     H85555   4.702   4.215   4.750 -1.2608  0.9381 -0.6308
  634MOL0     H85556   4.484   4.012   4.683 -1.5377 -0.4952 -0.0373
  634MOL0     H85557   4.456   4.186   4.673  0.6201 -0.9976  2.7111
  634MOL0     H85558   4.521   4.101   4.444 -0.2751 -0.9302 -0.4881
  634MOL0     H85559   4.649   4.204   4.500 -5.2102  1.4610 -2.0025
  634MOL0     H85560   4.657   3.903   4.498 -1.8202  0.5835 -0.5053
  634MOL0     H85561   4.783   4.003   4.582 -0.5962  0.4610 -0.3494
  634MOL0     H85562   4.883   3.972   4.372  0.0202 -0.3277 -0.7539
  634MOL0     H85563   4.799   4.128   4.339 -2.1891 -0.7783 -4.8055
  634MOL0     H85564   4.628   4.051   4.216  0.7504  1.3524  0.9005
  634MOL0     H85565   4.783   3.988   4.173 -0.8921  0.4131  0.3785
  634MOL0     H85566   4.542   3.853   4.313  0.1885 -0.3283  0.6852
  634MOL0     H85567   4.705   3.781   4.305  2.2969  0.3859 -0.1603
  634MOL0     H85568   4.527   3.701   4.126  0.3309 -0.1538 -0.5654
  634MOL0     H85569   4.527   3.873   4.068 -0.2178 -0.2703 -0.7544
  634MOL0     H85570   4.622   4.129   5.060  2.8763  0.4564  5.0933
  634MOL0     H85571   4.619   3.989   5.274  1.6663  0.1797  0.7842
  634MOL0     H85572   4.554   3.362   5.400 -2.1529  3.0191  1.0002
  634MOL0     H85573   4.651   3.231   5.575  1.5062 -0.3470  0.7569
  634MOL0     H85574   3.853   2.079   5.992  0.1092 -0.1680  0.7532
  634MOL0     H85575   3.745   1.941   6.150 -1.6046 -0.5821  0.7481
  634MOL0     H85576   3.588   1.870   6.558 -1.6757  0.7640  1.9079
  634MOL0     H85577   3.456   1.737   6.713 -0.3924 -3.8213 -2.8708
  634MOL0     H85578   3.473   1.364   6.916 -0.8586 -2.1314 -2.5816
  634MOL0     H85579   3.544   1.389   6.759  0.1624 -0.9601 -1.0176
  634MOL0     H85580   3.292   1.382   6.741 -1.6309  1.6630 -0.6851
  634MOL0     H85581   3.340   1.538   6.711  2.3611 -1.0074 -1.3926
  634MOL0     H85582   3.298   1.553   6.992 -0.5629  0.1699  0.2386
  634MOL0     H85583   3.221   1.406   6.959  0.3706 -0.8804 -0.3106
  634MOL0     H85584   3.060   1.600   6.937  0.1723  1.0827 -0.1308
  634MOL0     H85585   3.177   1.679   6.825 -0.0457  1.4251 -0.1126
  634MOL0     H85586   2.918   1.417   6.604 -2.6370  0.1581  3.2359
  634MOL0     H85587   3.806   1.509   6.815 -1.1912 -1.0635 -0.4716
  634MOL0     H85588   4.049   1.648   6.685 -0.2520  0.9818  0.2791
  634MOL0     H85589   3.953   1.502   6.647 -1.9291  0.4593  2.8974
  634MOL0     H85590   3.989   1.623   6.521 -0.9038  1.0610  0.5159
  635MOL0     O85591   1.468   0.046   4.645  0.8558 -0.5301  0.2725
  635MOL0     C85592   1.412   0.148   4.599 -0.5800  0.4898 -0.7238
  635MOL0     O85593   1.392   0.160   4.466 -0.1030 -0.2727 -0.2050
  635MOL0     C85594   1.479   0.085   4.387  0.7415 -0.8415 -0.0980
  635MOL0     C85595   1.435   0.008   4.288 -0.3933  0.1587  0.3751
  635MOL0     C85596   1.516  -0.078   4.211  0.0379 -0.4011 -0.0139
  635MOL0     C85597   1.652  -0.084   4.252  0.0482  0.1106 -0.2639
  635MOL0     O85598   1.718  -0.176   4.178  0.2024  0.0297 -0.1500
  635MOL0     C85599   1.782  -0.269   4.266  1.0277 -0.0036 -0.6178
  635MOL0     C85600   1.842  -0.376   4.173  0.4925  0.3003  0.5696
  635MOL0     C85601   1.945  -0.476   4.224 -1.0256  0.2755  0.0896
  635MOL0     C85602   1.882  -0.590   4.299  0.3765  0.6369 -0.4273
  635MOL0     C85603   1.965  -0.715   4.342  0.2046  0.6166  0.0493
  635MOL0     C85604   2.015  -0.792   4.222 -1.0863 -0.1721  0.1038
  635MOL0     C85605   2.159  -0.851   4.238  0.3786 -0.2775  1.1048
  635MOL0     C85606   2.180  -0.984   4.158  0.2699  0.9277 -0.3039
  635MOL0     N85607   2.316  -1.045   4.187  0.3217  0.2425 -0.3022
  635MOL0     C85608   2.343  -1.177   4.195  0.4545 -0.8242  0.2606
  635MOL0     C85609   2.479  -1.185   4.179 -0.1493  0.0981 -0.9010
  635MOL0     C85610   2.557  -1.316   4.206 -0.0529 -0.6122  0.4985
  635MOL0     C85611   2.559  -1.402   4.088 -0.8669 -0.0884  0.0352
  635MOL0     C85612   2.636  -1.534   4.120  0.0476  0.9107  0.4816
  635MOL0     C85613   2.621  -1.649   4.015 -0.0449  1.1683  1.1949
  635MOL0     O85614   2.508  -1.731   4.032  0.3399 -0.3580  0.8007
  635MOL0     C85615   2.516  -1.857   3.961  0.5999  0.2714 -0.5720
  635MOL0     C85616   2.560  -1.857   3.825  0.2201  0.5290 -0.1711
  635MOL0     C85617   2.557  -1.974   3.750  0.2281  0.4363 -0.7816
  635MOL0     C85618   2.509  -2.099   3.816  0.5206  0.6028  0.1688
  635MOL0     C85619   2.511  -2.227   3.749  0.2720  0.6905 -0.3012
  635MOL0     O85620   2.429  -2.324   3.790 -1.1717 -0.1417 -0.2337
  635MOL0     C85621   2.412  -2.445   3.717  0.8988  0.1472 -0.4062
  635MOL0     C85622   2.425  -2.557   3.796 -0.1973  0.3862 -0.0927
  635MOL0     C85623   2.411  -2.692   3.751 -0.0965 -0.6498 -0.2696
  635MOL0     C85624   2.381  -2.711   3.611  0.4719  0.0344  0.0571
  635MOL0     O85625   2.343  -2.837   3.566 -0.4521 -0.0118  0.7842
  635MOL0     C85626   2.265  -2.856   3.452 -0.3855  0.8491 -0.1737
  635MOL0     C85627   2.343  -2.940   3.355  0.8107 -0.0829 -0.4932
  635MOL0     C85628   2.250  -3.051   3.297 -0.0379 -0.7308  0.3728
  635MOL0     C85629   2.315  -3.115   3.179  0.1695 -0.0479  1.4545
  635MOL0     C85630   2.207  -3.197   3.096  0.5816  0.6540 -0.3469
  635MOL0     C85631   2.278  -3.251   2.976  0.1914  0.2423 -0.1977
  635MOL0     C85632   2.169  -3.307   2.878  0.0919 -0.0438 -0.1937
  635MOL0     C85633   2.227  -3.388   2.764  0.1284  0.3984  0.7765
  635MOL0    Cl85634   2.282  -3.542   2.828 -0.0867 -0.0920 -0.0700
  635MOL0     C85635   2.363  -2.589   3.536 -0.4563  0.1451 -0.2106
  635MOL0     C85636   2.378  -2.458   3.583  0.8362 -0.0746  0.1025
  635MOL0     O85637   2.589  -2.232   3.655  0.0916  0.0414 -1.2866
  635MOL0     C85638   2.473  -2.094   3.955  0.3413  0.5522  0.4234
  635MOL0     C85639   2.477  -1.973   4.022 -0.4995  0.3797 -0.2648
  635MOL0     N85640   2.532  -1.055   4.166 -0.5455  0.5157  0.1438
  635MOL0     N85641   2.433  -0.976   4.170 -0.1074 -0.4956  0.5452
  635MOL0     C85642   1.706   0.007   4.342 -1.0896  0.2448 -0.6146
  635MOL0     C85643   1.617   0.091   4.403 -0.4717 -0.4572  0.5577
  635MOL0     C85644   1.366   0.244   4.703  0.4222  0.1416  0.2308
  635MOL0     C85645   1.251   0.309   4.659  0.6259 -0.1724 -0.2113
  635MOL0     C85646   1.181   0.395   4.743 -1.1175 -0.7005  0.5720
  635MOL0     C85647   1.240   0.432   4.862  0.7352  0.0865 -0.3807
  635MOL0     O85648   1.186   0.546   4.913 -0.1523 -0.2619 -0.2702
  635MOL0     C85649   1.214   0.579   5.054 -0.2858  0.0133 -0.0403
  635MOL0     C85650   1.127   0.697   5.091 -0.8914 -1.0061  0.1245
  635MOL0     C85651   0.980   0.687   5.049 -0.0655  0.7454  0.5914
  635MOL0     C85652   0.890   0.793   5.119  0.9834 -0.6696  0.8952
  635MOL0     C85653   0.909   0.935   5.084 -0.0531 -0.9056  1.2846
  635MOL0     C85654   0.937   1.049   5.069  0.1360 -1.0922  0.2267
  635MOL0     C85655   1.350   0.362   4.914 -0.4106 -1.1944  0.2103
  635MOL0     C85656   1.411   0.262   4.835 -0.2180  0.7380  0.1940
  635MOL0     C85657   1.537   0.187   4.888 -0.4385  0.2043  0.3540
  635MOL0     H85658   1.331   0.007   4.257 -0.1087  2.4244 -0.8758
  635MOL0     H85659   1.460  -0.129   4.133 -1.9016 -1.9147  2.2174
  635MOL0     H85660   1.859  -0.213   4.319  1.3978 -1.5493  0.5255
  635MOL0     H85661   1.716  -0.316   4.339  1.6844  0.5398  0.3388
  635MOL0     H85662   1.887  -0.347   4.078 -1.7903  0.7637 -0.4253
  635MOL0     H85663   1.760  -0.439   4.137  0.7796  0.6433 -0.7361
  635MOL0     H85664   1.998  -0.420   4.302 -0.8799  1.6849 -0.9893
  635MOL0     H85665   2.026  -0.500   4.155 -1.4797  0.5537 -0.5533
  635MOL0     H85666   1.830  -0.550   4.386  2.0566  3.8230 -0.7597
  635MOL0     H85667   1.795  -0.629   4.245  1.1779 -1.3984 -0.3482
  635MOL0     H85668   2.049  -0.670   4.397  2.3657 -1.4780 -1.3192
  635MOL0     H85669   1.909  -0.772   4.416 -0.0140  0.1556 -0.4647
  635MOL0     H85670   1.953  -0.882   4.217 -2.0004  0.4787 -0.6281
  635MOL0     H85671   1.997  -0.735   4.130 -0.6281  1.4246  0.9627
  635MOL0     H85672   2.170  -0.873   4.344  3.5752 -1.4539  0.6271
  635MOL0     H85673   2.238  -0.788   4.197 -0.6021  2.0237  2.5313
  635MOL0     H85674   2.103  -1.059   4.180  1.5510  0.0633  1.4867
  635MOL0     H85675   2.168  -0.968   4.051  1.7251  0.5094 -0.5547
  635MOL0     H85676   2.276  -1.261   4.211 -2.7793  1.8192  2.0065
  635MOL0     H85677   2.658  -1.293   4.243 -0.2322 -1.2336  1.3964
  635MOL0     H85678   2.510  -1.379   4.282  1.9563 -0.9471  1.5489
  635MOL0     H85679   2.454  -1.413   4.059 -1.1255  2.1054 -0.0017
  635MOL0     H85680   2.607  -1.343   4.010 -2.6930  3.2428  1.2022
  635MOL0     H85681   2.607  -1.581   4.214 -1.9601  3.3750  1.2065
  635MOL0     H85682   2.742  -1.509   4.106  0.2143 -0.2168 -0.4828
  635MOL0     H85683   2.710  -1.713   4.015  1.4012  2.8957 -2.3870
  635MOL0     H85684   2.623  -1.609   3.913  0.4261 -1.0535  0.2736
  635MOL0     H85685   2.602  -1.763   3.789  1.5507 -0.0048 -0.0695
  635MOL0     H85686   2.596  -1.982   3.649  0.9623  2.2926 -0.6798
  635MOL0     H85687   2.444  -2.537   3.901  3.8060 -0.7357 -0.4393
  635MOL0     H85688   2.434  -2.776   3.815  1.4371  0.7755  1.1473
  635MOL0     H85689   2.176  -2.912   3.483 -1.7779  1.8581 -2.1427
  635MOL0     H85690   2.211  -2.778   3.398 -3.6029 -2.4399 -2.1708
  635MOL0     H85691   2.394  -2.873   3.285  0.8216  0.3152 -0.1161
  635MOL0     H85692   2.433  -2.984   3.400  2.5016  2.3041 -1.3097
  635MOL0     H85693   2.237  -3.136   3.365  0.1549  0.4788  1.9825
  635MOL0     H85694   2.150  -3.018   3.266  0.2668  0.3980  0.5557
  635MOL0     H85695   2.397  -3.179   3.213  1.1124 -0.1290 -0.7773
  635MOL0     H85696   2.351  -3.035   3.114 -0.6364 -0.7134  0.1565
  635MOL0     H85697   2.123  -3.128   3.088 -0.6508 -0.3540  2.4983
  635MOL0     H85698   2.174  -3.284   3.153  1.5544  1.3558  1.3677
  635MOL0     H85699   2.323  -3.174   2.913  0.5012 -0.7347 -1.1966
  635MOL0     H85700   2.349  -3.327   3.010  1.6447  1.1574 -1.0912
  635MOL0     H85701   2.107  -3.228   2.835  0.2324  0.6640  0.8454
  635MOL0     H85702   2.100  -3.367   2.938 -0.7446  1.9896  1.0108
  635MOL0     H85703   2.146  -3.387   2.690  0.0788 -0.0239  0.8200
  635MOL0     H85704   2.318  -3.345   2.721  0.1578 -0.1480  0.2790
  635MOL0     H85705   2.302  -2.599   3.447 -1.6923 -0.1907  0.6569
  635MOL0     H85706   2.361  -2.365   3.530  1.4791 -1.0477 -1.8963
  635MOL0     H85707   2.429  -2.180   4.006 -0.5368  0.5455 -0.3359
  635MOL0     H85708   2.465  -1.979   4.129  2.2064 -1.3573  0.0544
  635MOL0     H85709   1.812   0.020   4.359 -1.3288 -0.4143  1.7285
  635MOL0     H85710   1.657   0.156   4.480  0.9132  0.5658 -0.9491
  635MOL0     H85711   1.215   0.302   4.557 -0.3651 -1.3123  0.1889
  635MOL0     H85712   1.099   0.445   4.693 -1.6665 -3.4104 -1.4543
  635MOL0     H85713   1.317   0.603   5.084 -0.4401  1.5260 -0.6465
  635MOL0     H85714   1.183   0.495   5.118 -0.1606  1.0583  1.4572
  635MOL0     H85715   1.164   0.789   5.045 -1.2897 -1.9720 -2.2988
  635MOL0     H85716   1.129   0.704   5.200 -0.7013  0.4289  0.0451
  635MOL0     H85717   0.940   0.586   5.059  1.6684 -0.1622 -0.9360
  635MOL0     H85718   0.987   0.708   4.942 -2.5122 -0.0349  0.2195
  635MOL0     H85719   0.785   0.773   5.095  1.1703  0.9729 -1.7360
  635MOL0     H85720   0.902   0.780   5.227  2.9366  1.1629  0.9680
  635MOL0     H85721   0.951   1.155   5.057  1.0878 -1.3966 -1.7892
  635MOL0     H85722   1.399   0.374   5.010  1.3954 -1.2172 -0.6688
  635MOL0     H85723   1.522   0.079   4.895  2.0968 -0.1987  0.7532
  635MOL0     H85724   1.626   0.205   4.827 -1.0438  1.2691 -0.2398
  635MOL0     H85725   1.560   0.220   4.989 -0.6482 -1.5460  1.0111
  636MOL0     O85726   6.928   7.234   3.042 -0.2141 -0.0748 -0.1223
  636MOL0     C85727   6.840   7.304   3.093  0.2299 -0.1923  0.4941
  636MOL0     O85728   6.825   7.437   3.071  1.1103 -0.2065  0.1739
  636MOL0     C85729   6.926   7.496   3.003  1.1603  0.5773 -1.1656
  636MOL0     C85730   6.916   7.499   2.864 -0.1957 -0.3233  0.4412
  636MOL0     C85731   7.030   7.543   2.798 -0.9169  0.3507 -0.1884
  636MOL0     C85732   7.139   7.601   2.858  0.2763  0.5419  0.6464
  636MOL0     O85733   7.235   7.658   2.776 -0.1864 -0.0039  0.2063
  636MOL0     C85734   7.291   7.783   2.832  0.6134 -0.1468  0.5928
  636MOL0     C85735   7.335   7.883   2.730 -0.4801  0.7290 -0.3198
  636MOL0     C85736   7.433   7.837   2.620  0.1898  1.0748 -0.0737
  636MOL0     C85737   7.504   7.946   2.526  0.2847  0.1722 -0.3468
  636MOL0     C85738   7.414   8.025   2.431  0.3966  0.0212 -0.2571
  636MOL0     C85739   7.298   7.939   2.390  0.0599 -0.6801 -1.8953
  636MOL0     C85740   7.199   8.002   2.296  0.2795 -0.4449 -0.2417
  636MOL0     C85741   7.128   7.904   2.207  0.4797 -0.4261  0.6283
  636MOL0     N85742   7.032   7.971   2.114  0.3860  0.1665  0.1644
  636MOL0     C85743   6.921   8.048   2.157  0.4470 -0.0255 -0.5247
  636MOL0     C85744   6.874   8.113   2.047 -0.4500 -0.1026 -0.5990
  636MOL0     C85745   6.755   8.212   2.045 -0.1602  0.3944 -0.9135
  636MOL0     C85746   6.789   8.333   2.138 -1.0243 -0.4944 -0.8092
  636MOL0     C85747   6.882   8.419   2.052 -0.3565  0.7573  0.0155
  636MOL0     C85748   6.935   8.549   2.111 -0.7934 -0.3228  0.3270
  636MOL0     O85749   6.824   8.628   2.151  0.1011  0.1444 -0.0897
  636MOL0     C85750   6.828   8.763   2.166  1.2900 -0.6058 -0.5194
  636MOL0     C85751   6.792   8.835   2.280  0.0801  0.4512  0.0266
  636MOL0     C85752   6.770   8.973   2.269  0.2309 -0.6625  0.2021
  636MOL0     C85753   6.810   9.047   2.151  0.7713  0.6851  0.6986
  636MOL0     C85754   6.799   9.198   2.144 -1.2827 -0.1503 -1.0820
  636MOL0     O85755   6.808   9.256   2.262  0.4258  0.5772 -0.3173
  636MOL0     C85756   6.771   9.382   2.287  0.3082  0.4756  0.8853
  636MOL0     C85757   6.852   9.484   2.245 -0.6609 -0.5185 -1.6081
  636MOL0     C85758   6.812   9.619   2.270 -0.9776 -0.3059  0.2751
  636MOL0     C85759   6.703   9.643   2.350 -0.1086  0.6158 -0.6538
  636MOL0     O85760   6.692   9.771   2.394  0.2426 -0.4483 -0.1236
  636MOL0     C85761   6.565   9.822   2.456  0.2856 -0.0571 -0.3355
  636MOL0     C85762   6.571   9.794   2.605  0.1103 -0.0138 -0.1152
  636MOL0     C85763   6.681   9.882   2.664  0.2203 -0.5516  0.1954
  636MOL0     C85764   6.671   9.865   2.821  0.0818  0.0303 -0.6073
  636MOL0     C85765   6.791   9.946   2.883  0.8620 -0.1378 -0.4406
  636MOL0     C85766   6.812   9.902   3.025 -0.1541 -0.6652  0.7273
  636MOL0     C85767   6.878   9.754   3.050  0.5329  0.2964  1.1413
  636MOL0     C85768   6.884   9.718   3.201  0.0357  0.3955 -0.1068
  636MOL0    Cl85769   6.930   9.543   3.243 -0.2918  0.1987  0.0068
  636MOL0     C85770   6.613   9.537   2.379  0.2621  0.3737  0.3709
  636MOL0     C85771   6.655   9.404   2.356 -0.4603 -0.0920 -0.6246
  636MOL0     O85772   6.782   9.255   2.033  0.5703 -0.1849  0.1677
  636MOL0     C85773   6.837   8.963   2.038 -0.6736 -0.7377  0.4764
  636MOL0     C85774   6.847   8.825   2.043  0.2851 -0.3878  0.7448
  636MOL0     N85775   6.962   8.078   1.943 -0.5802  0.8637 -0.6297
  636MOL0     N85776   7.059   7.999   1.989  0.0457  0.0092 -1.0516
  636MOL0     C85777   7.147   7.588   3.001  0.0464 -0.4360 -0.1288
  636MOL0     C85778   7.038   7.547   3.070 -0.4122 -0.0172 -0.1768
  636MOL0     C85779   6.723   7.233   3.159 -0.5049  0.0650 -0.6292
  636MOL0     C85780   6.608   7.311   3.187  0.2081 -0.6296  0.4781
  636MOL0     C85781   6.500   7.242   3.246 -0.1699 -0.3366 -0.5187
  636MOL0     C85782   6.510   7.112   3.292 -0.3171  0.6187  0.2003
  636MOL0     O85783   6.410   7.052   3.361 -0.2094  0.5670  0.0382
  636MOL0     C85784   6.299   7.015   3.277  0.3710  0.6594 -0.5079
  636MOL0     C85785   6.248   6.868   3.319 -0.8228 -0.4315 -0.1011
  636MOL0     C85786   6.356   6.765   3.291 -1.1354  0.1937  0.0219
  636MOL0     C85787   6.328   6.618   3.320 -0.3466 -0.1240 -1.1182
  636MOL0     C85788   6.204   6.565   3.266  0.1003  0.2864  0.3772
  636MOL0     C85789   6.105   6.506   3.234 -0.0239 -0.0831  0.2925
  636MOL0     C85790   6.626   7.047   3.266 -0.6147 -0.7049 -0.8230
  636MOL0     C85791   6.733   7.100   3.207  0.3649 -0.3927 -0.2657
  636MOL0     C85792   6.851   7.014   3.202 -0.3689 -0.2729  0.4220
  636MOL0     H85793   6.826   7.464   2.814  0.0092 -0.9010  0.4587
  636MOL0     H85794   7.023   7.537   2.690 -0.5874 -1.8814 -0.1246
  636MOL0     H85795   7.219   7.835   2.895  0.2494  0.3530 -0.2212
  636MOL0     H85796   7.371   7.750   2.899 -0.2567 -1.7202  0.9067
  636MOL0     H85797   7.392   7.961   2.781 -0.6094  0.2094  0.6449
  636MOL0     H85798   7.248   7.932   2.687 -1.0347 -1.1046 -1.4119
  636MOL0     H85799   7.369   7.764   2.570 -0.4378  0.0910  2.0080
  636MOL0     H85800   7.506   7.772   2.669 -0.1089  1.5262  0.9997
  636MOL0     H85801   7.552   8.018   2.593 -1.9371  3.0766 -1.6788
  636MOL0     H85802   7.571   7.885   2.465  0.1982 -0.6518  0.3572
  636MOL0     H85803   7.382   8.112   2.489 -1.5175 -1.0198  0.3182
  636MOL0     H85804   7.478   8.046   2.345 -0.4977 -2.3248 -1.5661
  636MOL0     H85805   7.342   7.849   2.346  0.7815 -1.8769  1.0590
  636MOL0     H85806   7.242   7.922   2.482  0.4028 -0.2263 -1.5972
  636MOL0     H85807   7.252   8.076   2.234 -2.6129  0.7548 -1.4901
  636MOL0     H85808   7.135   8.064   2.359 -1.0191  0.2043 -2.0980
  636MOL0     H85809   7.199   7.851   2.143 -0.2572 -2.3668  1.3609
  636MOL0     H85810   7.070   7.828   2.259 -1.9490 -0.3580 -1.7615
  636MOL0     H85811   6.893   8.060   2.261 -1.6734 -2.1384 -0.7421
  636MOL0     H85812   6.737   8.250   1.944 -0.9012  2.4896 -0.0689
  636MOL0     H85813   6.665   8.178   2.098  2.1591  0.2189  3.3381
  636MOL0     H85814   6.696   8.382   2.169  1.1665  1.8280  2.8838
  636MOL0     H85815   6.843   8.302   2.229 -1.8697  0.8374  0.1774
  636MOL0     H85816   6.853   8.431   1.947  1.5604 -0.5481 -0.7409
  636MOL0     H85817   6.966   8.351   2.031 -2.1525 -0.9544 -2.1165
  636MOL0     H85818   7.013   8.587   2.045  1.8536 -4.9703  0.3564
  636MOL0     H85819   6.993   8.525   2.201 -1.4421 -0.1358  0.8124
  636MOL0     H85820   6.775   8.780   2.372  0.8128  1.4320  0.7614
  636MOL0     H85821   6.759   9.028   2.362 -2.5784  1.8051 -1.4163
  636MOL0     H85822   6.939   9.465   2.182  1.4688  0.8718  0.7206
  636MOL0     H85823   6.868   9.705   2.232 -1.2333  0.7265  2.1224
  636MOL0     H85824   6.543   9.929   2.450 -1.4127 -0.1271  2.6826
  636MOL0     H85825   6.479   9.766   2.417  0.7733 -1.7440  0.8678
  636MOL0     H85826   6.471   9.820   2.640  1.1739  1.3815  2.1714
  636MOL0     H85827   6.598   9.688   2.611 -0.0242 -0.0040  1.0207
  636MOL0     H85828   6.773   9.828   2.638 -1.5141 -2.9958 -1.2995
  636MOL0     H85829   6.674   9.989   2.641 -1.3746  0.4795  4.5916
  636MOL0     H85830   6.673   9.757   2.840 -2.3467 -0.2774 -1.8140
  636MOL0     H85831   6.574   9.898   2.859  0.0874 -1.0667  0.4376
  636MOL0     H85832   6.756  10.049   2.889 -1.3578 -0.9199  2.0005
  636MOL0     H85833   6.881   9.928   2.823  1.7226 -1.2753  1.1042
  636MOL0     H85834   6.888   9.968   3.070 -1.8250  1.4651  0.5729
  636MOL0     H85835   6.714   9.904   3.073 -1.8846  0.0020 -2.5084
  636MOL0     H85836   6.972   9.741   2.994  0.7345  0.6523  1.3927
  636MOL0     H85837   6.814   9.676   3.009  1.2812 -0.3925  1.2585
  636MOL0     H85838   6.958   9.779   3.253  2.0341 -1.7095 -0.2991
  636MOL0     H85839   6.786   9.741   3.243  1.2247  3.5961  1.1917
  636MOL0     H85840   6.531   9.561   2.445 -1.0136 -1.7961 -0.3023
  636MOL0     H85841   6.599   9.320   2.397  1.6385 -0.1959  2.3545
  636MOL0     H85842   6.842   9.009   1.939 -1.8184 -1.5860  0.0097
  636MOL0     H85843   6.843   8.767   1.951  1.4301  0.2732  0.2438
  636MOL0     H85844   7.231   7.632   3.053 -0.1028  1.9447 -1.7535
  636MOL0     H85845   7.037   7.547   3.179  0.2728 -0.1152 -0.1652
  636MOL0     H85846   6.600   7.417   3.168  0.9604 -0.2753  1.9390
  636MOL0     H85847   6.402   7.286   3.265  0.2217 -0.1860  1.4150
  636MOL0     H85848   6.332   7.011   3.173 -2.8238 -6.0335 -1.8473
  636MOL0     H85849   6.214   7.083   3.282 -0.0859  0.0447  0.4078
  636MOL0     H85850   6.164   6.840   3.255 -0.6628 -0.0126 -0.4931
  636MOL0     H85851   6.219   6.873   3.425  0.7010  2.5475  0.2700
  636MOL0     H85852   6.451   6.785   3.342 -2.4091  0.6356  2.3644
  636MOL0     H85853   6.378   6.778   3.184  0.3537  0.3007  0.3172
  636MOL0     H85854   6.413   6.555   3.292  0.0393 -0.6141  0.9825
  636MOL0     H85855   6.329   6.623   3.429  1.2243 -1.1960 -1.0511
  636MOL0     H85856   6.019   6.453   3.198  0.9354 -0.9236 -0.8335
  636MOL0     H85857   6.637   6.949   3.311 -2.4651 -1.2173 -1.4039
  636MOL0     H85858   6.834   6.922   3.259  0.1539 -1.5058 -1.3321
  636MOL0     H85859   6.865   6.977   3.100 -0.3757  0.9538 -0.0454
  636MOL0     H85860   6.945   7.059   3.235  0.7564 -1.0562 -1.5429
  637MOL0     O85861   5.512   5.172   0.329  0.3662 -0.2908 -0.1980
  637MOL0     C85862   5.614   5.174   0.265 -0.5133 -0.7835  0.1914
  637MOL0     O85863   5.628   5.231   0.139  0.2067  0.5419  0.0812
  637MOL0     C85864   5.530   5.300   0.079 -0.7811  0.4377  0.3801
  637MOL0     C85865   5.538   5.308  -0.066  1.0093  0.4978 -0.2255
  637MOL0     C85866   5.438   5.368  -0.151 -1.0401  0.1830 -0.2455
  637MOL0     C85867   5.339   5.448  -0.091 -0.7445  0.4557  0.0203
  637MOL0     O85868   5.255   5.510  -0.177  0.0888 -0.4025 -0.5180
  637MOL0     C85869   5.129   5.539  -0.122  0.2660 -1.3036  0.9643
  637MOL0     C85870   5.030   5.565  -0.234 -0.3447  0.1498 -0.1895
  637MOL0     C85871   4.886   5.570  -0.194 -0.4779  0.4751 -0.2015
  637MOL0     C85872   4.821   5.701  -0.235  0.4585 -0.5996 -0.2520
  637MOL0     C85873   4.674   5.719  -0.201 -0.1569 -0.3629 -0.1385
  637MOL0     C85874   4.580   5.631  -0.284 -0.4477 -0.3225  0.1457
  637MOL0     C85875   4.427   5.675  -0.288 -0.1799 -0.2320  0.6223
  637MOL0     C85876   4.339   5.642  -0.409  0.1710  0.0890 -0.6678
  637MOL0     N85877   4.198   5.666  -0.378  0.3416  0.3015  0.0184
  637MOL0     C85878   4.135   5.627  -0.268  1.1402 -0.3186 -0.1223
  637MOL0     C85879   4.007   5.666  -0.284 -0.1112  0.5715  0.1112
  637MOL0     C85880   3.895   5.667  -0.176  0.6447 -0.1181 -0.1372
  637MOL0     C85881   3.908   5.806  -0.105  0.7138 -0.9260  0.6722
  637MOL0     C85882   3.832   5.792   0.030  0.6794  0.1647  0.6479
  637MOL0     C85883   3.826   5.932   0.094 -0.1188  0.2530  0.1775
  637MOL0     O85884   3.746   5.909   0.210 -0.4643 -0.2219 -0.2149
  637MOL0     C85885   3.748   5.992   0.322  0.0326  0.0824  0.1515
  637MOL0     C85886   3.827   6.108   0.327  0.9768 -0.1743  0.6416
  637MOL0     C85887   3.822   6.188   0.441 -0.4452 -0.0302 -0.5150
  637MOL0     C85888   3.751   6.151   0.550 -0.2381  1.1620  0.6184
  637MOL0     C85889   3.757   6.226   0.673 -0.5335 -0.1044  0.2610
  637MOL0     O85890   3.692   6.170   0.779 -0.1557  0.1037  0.3777
  637MOL0     C85891   3.691   6.227   0.907  0.3765 -0.6379  0.2654
  637MOL0     C85892   3.642   6.150   1.018 -0.0066  2.1132  0.0733
  637MOL0     C85893   3.620   6.199   1.138 -0.2529 -0.7679 -0.6736
  637MOL0     C85894   3.666   6.322   1.177 -0.1919 -0.5146 -0.0786
  637MOL0     O85895   3.649   6.342   1.309  0.9304  0.1555  0.0242
  637MOL0     C85896   3.725   6.255   1.395  0.2051  0.5711  0.1729
  637MOL0     C85897   3.685   6.274   1.546  0.2308  0.3964  0.1047
  637MOL0     C85898   3.756   6.395   1.608 -0.7266 -0.2739 -0.2920
  637MOL0     C85899   3.692   6.412   1.747 -0.3798 -0.6629  0.6382
  637MOL0     C85900   3.761   6.525   1.824 -0.5496 -0.1179 -0.2778
  637MOL0     C85901   3.745   6.671   1.765  0.0004  0.9679 -0.9272
  637MOL0     C85902   3.608   6.714   1.733  0.1153 -0.8392 -0.1634
  637MOL0     C85903   3.606   6.845   1.666 -0.0178 -0.1257 -1.0041
  637MOL0    Cl85904   3.436   6.891   1.657  0.1308  0.3271  0.6420
  637MOL0     C85905   3.732   6.403   1.078  0.1156  0.3326 -0.2963
  637MOL0     C85906   3.746   6.355   0.950  1.1007  0.1241  1.0166
  637MOL0     O85907   3.834   6.324   0.684  0.1236  0.8514  1.0535
  637MOL0     C85908   3.674   6.035   0.542  0.0520  0.2426 -0.7193
  637MOL0     C85909   3.672   5.952   0.433  0.0232 -0.0045 -0.1746
  637MOL0     N85910   3.996   5.735  -0.406 -0.7227 -0.6501 -0.0754
  637MOL0     N85911   4.114   5.732  -0.468 -1.0623 -0.1529 -0.1736
  637MOL0     C85912   5.334   5.442   0.055 -0.1932 -0.7321  0.2804
  637MOL0     C85913   5.427   5.375   0.135 -0.2854 -1.0596 -0.1251
  637MOL0     C85914   5.730   5.106   0.319 -1.6528  0.5904 -0.2728
  637MOL0     C85915   5.855   5.174   0.301 -1.0509  1.2369 -0.5914
  637MOL0     C85916   5.979   5.112   0.343  0.6584 -0.4716  0.6267
  637MOL0     C85917   5.976   4.988   0.396  0.3741  0.3614 -0.0370
  637MOL0     O85918   6.097   4.936   0.438 -0.8122  0.0425 -0.8078
  637MOL0     C85919   6.119   4.799   0.484 -0.5228 -0.4878 -0.2014
  637MOL0     C85920   6.272   4.793   0.489 -0.3954  0.2698  0.7471
  637MOL0     C85921   6.354   4.916   0.551 -0.8485 -0.1399 -0.5260
  637MOL0     C85922   6.339   4.922   0.704 -0.3992 -0.1866  0.0111
  637MOL0     C85923   6.383   5.054   0.750  0.0776  0.3768 -0.1166
  637MOL0     C85924   6.413   5.169   0.758 -0.2599 -0.1803 -0.2520
  637MOL0     C85925   5.846   4.921   0.410 -0.4824  0.6423  0.0856
  637MOL0     C85926   5.726   4.978   0.377 -0.8382  0.6622  0.2560
  637MOL0     C85927   5.606   4.900   0.401  0.2262 -0.6691  0.8518
  637MOL0     H85928   5.622   5.252  -0.106  1.8873  0.4909  1.5087
  637MOL0     H85929   5.449   5.346  -0.257  1.8777  0.1993 -0.0475
  637MOL0     H85930   5.081   5.458  -0.066  0.8803 -0.3642  2.9361
  637MOL0     H85931   5.131   5.625  -0.055  1.3247 -0.3586 -0.2196
  637MOL0     H85932   5.041   5.477  -0.298 -0.7347  0.2366 -0.3792
  637MOL0     H85933   5.058   5.656  -0.287 -0.6477  1.7781  2.2727
  637MOL0     H85934   4.871   5.563  -0.086 -1.3970  0.9056 -0.2897
  637MOL0     H85935   4.823   5.494  -0.241  0.2955 -0.1925 -0.1772
  637MOL0     H85936   4.879   5.778  -0.184 -0.1033 -0.4798  0.2157
  637MOL0     H85937   4.845   5.713  -0.341  0.5669  1.9294  0.0065
  637MOL0     H85938   4.663   5.692  -0.096 -3.3107  0.6233 -0.1109
  637MOL0     H85939   4.637   5.822  -0.203  1.5931  0.3697  1.9691
  637MOL0     H85940   4.613   5.633  -0.388  3.1691 -0.9742  1.1348
  637MOL0     H85941   4.579   5.529  -0.244 -2.4497 -0.1533  0.6466
  637MOL0     H85942   4.431   5.781  -0.314  1.4287 -0.7023 -1.4215
  637MOL0     H85943   4.374   5.661  -0.194 -1.6709  0.1506 -0.1358
  637MOL0     H85944   4.361   5.707  -0.495  0.0175  2.4274  0.9758
  637MOL0     H85945   4.353   5.539  -0.442  0.0973 -0.0608 -0.2342
  637MOL0     H85946   4.177   5.576  -0.181  1.7077  2.3240  1.2555
  637MOL0     H85947   3.794   5.652  -0.216  1.6659 -3.5657 -1.8223
  637MOL0     H85948   3.919   5.587  -0.106  1.8511 -0.0639 -0.4605
  637MOL0     H85949   4.016   5.824  -0.096  1.3733 -3.0287 -1.8332
  637MOL0     H85950   3.853   5.882  -0.162  0.7897 -0.1736  1.5751
  637MOL0     H85951   3.879   5.716   0.094  0.7741  0.5829  1.0764
  637MOL0     H85952   3.728   5.763   0.013  0.8436  1.6376 -4.7955
  637MOL0     H85953   3.763   5.993   0.029 -0.6457  2.0471  2.2589
  637MOL0     H85954   3.923   5.981   0.110 -1.1744  1.6843  2.8826
  637MOL0     H85955   3.886   6.147   0.245  1.2784 -1.6062  0.1563
  637MOL0     H85956   3.872   6.283   0.454 -0.5280 -0.3335  2.5522
  637MOL0     H85957   3.613   6.048   0.994  2.6253  0.8546  1.7103
  637MOL0     H85958   3.572   6.142   1.217 -0.1789 -3.3069 -2.3545
  637MOL0     H85959   3.717   6.151   1.360 -0.7050  1.2243 -1.6968
  637MOL0     H85960   3.829   6.281   1.377 -0.4986  2.6379 -1.2755
  637MOL0     H85961   3.577   6.262   1.555  0.5322 -1.2493  2.1649
  637MOL0     H85962   3.735   6.195   1.602  0.1814  0.4339  0.2018
  637MOL0     H85963   3.862   6.372   1.615 -0.6862  0.3406  2.0232
  637MOL0     H85964   3.746   6.482   1.543  0.8261 -0.0438 -0.2479
  637MOL0     H85965   3.703   6.316   1.798 -1.8488 -1.1641  0.0776
  637MOL0     H85966   3.585   6.433   1.732  0.1963  2.7247  0.5350
  637MOL0     H85967   3.864   6.491   1.833 -0.1783  1.1303  0.3381
  637MOL0     H85968   3.719   6.514   1.925  0.9666 -1.1078  0.2703
  637MOL0     H85969   3.768   6.743   1.845 -1.2451  0.8120 -0.3934
  637MOL0     H85970   3.808   6.684   1.677  1.4704  1.5351  0.1614
  637MOL0     H85971   3.566   6.710   1.834 -1.3865 -1.6943 -0.7993
  637MOL0     H85972   3.559   6.647   1.662 -0.6371  0.3813 -0.8368
  637MOL0     H85973   3.661   6.925   1.717 -1.4465  0.0083  0.3708
  637MOL0     H85974   3.652   6.838   1.567 -0.1044 -0.2234 -1.0373
  637MOL0     H85975   3.770   6.494   1.124  2.8293 -0.2158 -1.2278
  637MOL0     H85976   3.785   6.435   0.888 -0.5173  2.1565  2.5030
  637MOL0     H85977   3.610   5.995   0.621  2.2597 -1.1626  0.4493
  637MOL0     H85978   3.619   5.858   0.427 -1.8867  1.0662 -0.8093
  637MOL0     H85979   5.262   5.506   0.105 -1.3511  1.7630 -4.0746
  637MOL0     H85980   5.410   5.394   0.240  0.6356  0.1044 -0.1709
  637MOL0     H85981   5.861   5.260   0.236 -2.9909 -0.6536 -3.5045
  637MOL0     H85982   6.075   5.161   0.334  0.7158  0.6506  4.9634
  637MOL0     H85983   6.072   4.730   0.415 -0.9685 -1.4744  1.0516
  637MOL0     H85984   6.073   4.790   0.583 -2.1764 -0.0347 -0.8973
  637MOL0     H85985   6.302   4.778   0.385 -0.7510 -0.8487  0.7884
  637MOL0     H85986   6.300   4.707   0.550 -3.2763  0.0767  1.9425
  637MOL0     H85987   6.315   5.009   0.509  1.4142  0.3675 -1.6594
  637MOL0     H85988   6.462   4.917   0.535 -1.1482 -0.7101 -3.0599
  637MOL0     H85989   6.237   4.910   0.741  0.2289 -2.7294  1.0906
  637MOL0     H85990   6.412   4.849   0.739  1.8950  2.6482  1.6431
  637MOL0     H85991   6.443   5.271   0.749  2.0165 -0.7487  0.3426
  637MOL0     H85992   5.855   4.819   0.448  2.3619  1.5797  2.3325
  637MOL0     H85993   5.554   4.942   0.488  1.7982  0.8980  1.0880
  637MOL0     H85994   5.540   4.917   0.315  0.1397 -0.0255  1.0411
  637MOL0     H85995   5.620   4.792   0.405  1.3602 -0.5278  0.8082
  638MOL0     O85996   0.459   3.043   2.312 -0.7825 -0.8701 -0.0749
  638MOL0     C85997   0.462   3.158   2.363 -1.2139  0.0223  0.4292
  638MOL0     O85998   0.391   3.264   2.312  0.2334 -0.4627 -0.1400
  638MOL0     C85999   0.314   3.257   2.200  0.5800 -0.4699 -0.1921
  638MOL0     C86000   0.188   3.311   2.217 -0.3541  0.5029 -0.5095
  638MOL0     C86001   0.108   3.333   2.108  0.5154  0.3150  0.2836
  638MOL0     C86002   0.147   3.299   1.982  0.0485 -0.6405  0.1769
  638MOL0     O86003   0.067   3.313   1.868 -0.1186 -0.3141 -0.4907
  638MOL0     C86004  -0.026   3.423   1.873  0.2541 -0.9941  0.0850
  638MOL0     C86005  -0.050   3.471   1.728 -0.5683 -1.0143  0.4189
  638MOL0     C86006  -0.142   3.607   1.732 -0.3158 -0.7374 -0.8589
  638MOL0     C86007  -0.210   3.628   1.594  1.0544  0.3441 -0.0583
  638MOL0     C86008  -0.330   3.540   1.565  1.0608 -0.2673 -0.1955
  638MOL0     C86009  -0.463   3.589   1.506 -0.2188 -0.6407  0.0989
  638MOL0     C86010  -0.561   3.476   1.472  1.1608  0.4944 -1.2916
  638MOL0     C86011  -0.518   3.411   1.338  0.0880 -0.3984 -0.1224
  638MOL0     N86012  -0.617   3.315   1.309 -0.7911 -0.1344  0.9582
  638MOL0     C86013  -0.657   3.291   1.181 -0.0401  0.1138  0.4821
  638MOL0     C86014  -0.766   3.211   1.199 -0.6702 -0.8382  1.0985
  638MOL0     C86015  -0.882   3.183   1.096 -0.7256  1.1623 -0.1889
  638MOL0     C86016  -0.888   3.036   1.051 -0.6826 -0.1831  0.5002
  638MOL0     C86017  -0.761   2.988   0.962 -1.1805  0.4254  0.2183
  638MOL0     C86018  -0.727   3.084   0.852  0.3019 -0.5940  0.6953
  638MOL0     O86019  -0.626   3.032   0.759 -0.3532 -0.1166  0.3339
  638MOL0     C86020  -0.492   3.032   0.803 -0.2807  0.1003 -0.3972
  638MOL0     C86021  -0.449   3.106   0.909  0.3726  0.8350  0.9085
  638MOL0     C86022  -0.320   3.114   0.937 -1.1317  0.1742  0.2579
  638MOL0     C86023  -0.223   3.031   0.880  1.1498  0.4400  0.3845
  638MOL0     C86024  -0.081   3.042   0.929 -0.2538 -0.2823  1.4976
  638MOL0     O86025   0.023   3.001   0.843 -0.2401  0.6326 -0.3264
  638MOL0     C86026   0.151   3.014   0.880  0.1832  0.2174  0.0314
  638MOL0     C86027   0.203   3.097   0.973  0.2623 -0.3112  0.2640
  638MOL0     C86028   0.340   3.094   1.020 -0.5068  0.6234  0.1800
  638MOL0     C86029   0.427   2.999   0.954  0.4564  0.4660 -0.9636
  638MOL0     O86030   0.554   2.971   0.990 -0.1637  0.5536 -0.2854
  638MOL0     C86031   0.621   3.066   1.074  0.3181 -0.4581  0.7357
  638MOL0     C86032   0.762   3.028   1.062  0.6697 -0.6607 -0.1550
  638MOL0     C86033   0.814   3.056   0.922 -0.6882  0.0588  0.3580
  638MOL0     C86034   0.775   3.192   0.858 -0.4866 -0.1341  0.1413
  638MOL0     C86035   0.882   3.227   0.751  0.6801 -1.0854  0.2430
  638MOL0     C86036   0.925   3.119   0.658 -0.2210 -1.0795  0.5159
  638MOL0     C86037   1.009   3.175   0.541  0.3293 -0.8785 -0.4361
  638MOL0     C86038   1.072   3.059   0.460  0.5816 -0.3850  0.5918
  638MOL0    Cl86039   0.948   2.968   0.358  0.2359 -0.1619  0.1076
  638MOL0     C86040   0.376   2.928   0.843 -0.4365  0.6423 -0.4018
  638MOL0     C86041   0.242   2.937   0.807  0.5954 -0.4265 -0.2201
  638MOL0     O86042  -0.073   3.094   1.043  0.2547  0.1606 -0.4074
  638MOL0     C86043  -0.254   2.957   0.772 -0.5813 -0.3390 -0.5321
  638MOL0     C86044  -0.390   2.969   0.729 -0.8085 -0.4981 -0.4532
  638MOL0     N86045  -0.771   3.167   1.330 -0.1258  0.1146  0.0074
  638MOL0     N86046  -0.684   3.236   1.402 -0.2225 -0.0161  0.2289
  638MOL0     C86047   0.269   3.241   1.964 -0.5568 -0.1677 -1.1002
  638MOL0     C86048   0.358   3.221   2.077 -0.7182 -0.2918  0.9182
  638MOL0     C86049   0.521   3.193   2.489  0.1027  1.0915 -0.6543
  638MOL0     C86050   0.479   3.126   2.607 -0.1216 -0.5109 -0.8355
  638MOL0     C86051   0.548   3.150   2.729  0.8813  0.1299 -0.3270
  638MOL0     C86052   0.651   3.239   2.736 -0.7501  1.1519 -0.2993
  638MOL0     O86053   0.712   3.271   2.858 -0.4082  0.4810  0.2656
  638MOL0     C86054   0.751   3.158   2.943  1.0439 -0.4819  1.2403
  638MOL0     C86055   0.772   3.215   3.080 -0.1834  0.2296 -0.7300
  638MOL0     C86056   0.629   3.242   3.144 -0.7638  0.3223  1.1564
  638MOL0     C86057   0.618   3.286   3.288 -1.1273  1.2796 -0.4481
  638MOL0     C86058   0.636   3.154   3.368  0.1387  0.1192  0.6949
  638MOL0     C86059   0.634   3.044   3.414  0.2046 -0.7135 -0.9047
  638MOL0     C86060   0.678   3.313   2.618  1.0548 -0.0416  0.5785
  638MOL0     C86061   0.613   3.293   2.497 -0.1299  0.4776  0.4608
  638MOL0     C86062   0.660   3.381   2.381  0.6397 -0.3150  0.4760
  638MOL0     H86063   0.159   3.334   2.319 -0.3716 -0.2971 -0.3256
  638MOL0     H86064   0.010   3.368   2.137 -0.1158  0.1316 -1.4717
  638MOL0     H86065  -0.117   3.385   1.920 -0.5992 -1.4228 -1.7820
  638MOL0     H86066   0.015   3.509   1.927  3.6579  1.8629 -5.9838
  638MOL0     H86067  -0.088   3.392   1.663 -4.7519 -0.9283  2.4413
  638MOL0     H86068   0.049   3.492   1.686 -1.6083 -0.7761 -2.0939
  638MOL0     H86069  -0.078   3.694   1.745 -0.2326 -0.7630 -1.0828
  638MOL0     H86070  -0.207   3.597   1.819  1.1282  0.0028  0.3507
  638MOL0     H86071  -0.236   3.733   1.578 -0.7784  0.0777  0.8624
  638MOL0     H86072  -0.141   3.600   1.514  1.4362  2.0975 -0.3763
  638MOL0     H86073  -0.290   3.474   1.487 -0.7972 -1.1812 -0.4455
  638MOL0     H86074  -0.369   3.497   1.658  0.7488  3.4451  1.5412
  638MOL0     H86075  -0.502   3.651   1.587  4.1193  1.4252  0.8959
  638MOL0     H86076  -0.444   3.653   1.419  0.4916  0.4718  1.0510
  638MOL0     H86077  -0.667   3.505   1.472  0.2615 -2.3194  1.1119
  638MOL0     H86078  -0.549   3.396   1.545  1.4473  0.5723 -1.2538
  638MOL0     H86079  -0.523   3.489   1.261  0.8681  0.4372  0.6538
  638MOL0     H86080  -0.418   3.367   1.345 -0.1905 -1.9306 -3.5031
  638MOL0     H86081  -0.641   3.351   1.093  4.4379 -0.4742  0.6663
  638MOL0     H86082  -0.979   3.205   1.140 -0.4712 -0.2156  1.1240
  638MOL0     H86083  -0.863   3.245   1.007  0.1434  1.6475  0.3154
  638MOL0     H86084  -0.898   2.981   1.146 -0.0192  0.8603  1.2015
  638MOL0     H86085  -0.984   3.024   1.000 -0.8420 -0.6443  0.8997
  638MOL0     H86086  -0.783   2.889   0.923 -0.6492 -0.8696  2.9397
  638MOL0     H86087  -0.668   2.972   1.018 -0.2719  0.4398 -1.2339
  638MOL0     H86088  -0.698   3.181   0.892 -1.9544  1.5935 -2.4918
  638MOL0     H86089  -0.822   3.105   0.802  2.8212  3.4516 -3.1767
  638MOL0     H86090  -0.511   3.173   0.967  1.6088  3.1155 -0.2590
  638MOL0     H86091  -0.284   3.181   1.014  1.6328  0.2734 -1.0068
  638MOL0     H86092   0.146   3.173   1.026  1.5543  1.5512 -0.9075
  638MOL0     H86093   0.365   3.162   1.100  2.1638 -1.3519  1.1544
  638MOL0     H86094   0.606   3.170   1.046  0.1235  0.0845  2.7276
  638MOL0     H86095   0.594   3.060   1.179  0.6818  0.4965  0.8911
  638MOL0     H86096   0.814   3.099   1.127  1.5938 -1.0838 -0.4100
  638MOL0     H86097   0.774   2.922   1.086  1.4759 -0.4120  0.5881
  638MOL0     H86098   0.924   3.059   0.925 -0.5360  1.8760 -2.9813
  638MOL0     H86099   0.783   2.974   0.857 -1.1441  0.2458  0.3378
  638MOL0     H86100   0.782   3.267   0.937  2.1792 -1.0842  0.9021
  638MOL0     H86101   0.677   3.190   0.809 -0.3195  2.6882 -0.4668
  638MOL0     H86102   0.976   3.254   0.801 -0.5258  4.3512  0.2440
  638MOL0     H86103   0.851   3.313   0.690  3.6825  0.8029  1.1770
  638MOL0     H86104   0.991   3.051   0.713  2.2452  1.1126  0.4616
  638MOL0     H86105   0.835   3.075   0.614 -0.7908  0.6773 -0.1395
  638MOL0     H86106   1.092   3.241   0.567 -1.3796  0.7416  1.2569
  638MOL0     H86107   0.942   3.228   0.473  3.0356  2.3250 -0.8298
  638MOL0     H86108   1.154   3.087   0.392  0.2500 -6.1430 -2.9431
  638MOL0     H86109   1.127   2.989   0.524 -0.2457  1.5499  3.5849
  638MOL0     H86110   0.454   2.882   0.783  1.1889  0.6531  1.6236
  638MOL0     H86111   0.208   2.860   0.739 -0.9089  1.1970 -1.3936
  638MOL0     H86112  -0.178   2.898   0.721 -1.4342 -1.8749 -0.1124
  638MOL0     H86113  -0.418   2.925   0.634  0.4831  0.0425 -1.1135
  638MOL0     H86114   0.305   3.217   1.865 -1.9964  0.6119 -1.8486
  638MOL0     H86115   0.461   3.190   2.064 -0.6604  0.7778 -1.8986
  638MOL0     H86116   0.396   3.057   2.598  0.7400 -1.6480 -0.3866
  638MOL0     H86117   0.502   3.109   2.818 -1.0866  1.3314 -0.7368
  638MOL0     H86118   0.846   3.120   2.904  2.7987  3.5586  1.0902
  638MOL0     H86119   0.676   3.078   2.951  1.5947 -1.1569 -0.0818
  638MOL0     H86120   0.830   3.308   3.079  1.5625 -0.8078 -1.7540
  638MOL0     H86121   0.829   3.139   3.135 -0.6031  0.1362 -0.4231
  638MOL0     H86122   0.573   3.148   3.135 -2.9245  1.6274 -0.1274
  638MOL0     H86123   0.574   3.315   3.084  3.5885  2.6152 -0.4553
  638MOL0     H86124   0.691   3.366   3.300 -2.5151  2.3820  1.0233
  638MOL0     H86125   0.518   3.320   3.315 -2.8074 -2.5784 -1.1665
  638MOL0     H86126   0.629   2.951   3.467 -1.1334  1.2502  2.7237
  638MOL0     H86127   0.755   3.389   2.619  2.6010 -1.3051 -3.1321
  638MOL0     H86128   0.755   3.433   2.400 -0.2987  1.3044  0.9495
  638MOL0     H86129   0.676   3.323   2.290  1.2206  1.4891 -0.6422
  638MOL0     H86130   0.587   3.460   2.363  1.5993  0.2207 -1.2996
  639MOL0     O86131   6.426   5.570   8.513 -0.2023  0.1697 -0.5486
  639MOL0     C86132   6.458   5.508   8.610  0.4640  0.5274  0.2196
  639MOL0     O86133   6.417   5.387   8.637  0.5516  0.5275  0.0939
  639MOL0     C86134   6.293   5.340   8.594 -0.3103 -0.1389 -0.3625
  639MOL0     C86135   6.170   5.404   8.602 -1.0823 -0.2801 -0.5100
  639MOL0     C86136   6.055   5.342   8.561  0.6067 -0.3739  0.1299
  639MOL0     C86137   6.056   5.214   8.503 -0.6898 -0.3591 -0.5501
  639MOL0     O86138   5.959   5.147   8.430  0.0748  0.2853  0.2946
  639MOL0     C86139   5.851   5.230   8.383  1.1998 -0.6742  0.4258
  639MOL0     C86140   5.761   5.133   8.310  0.6937  0.1426  1.2833
  639MOL0     C86141   5.692   5.022   8.407 -0.6427  0.5519 -0.1969
  639MOL0     C86142   5.660   4.890   8.343 -0.7826  0.1571 -0.0883
  639MOL0     C86143   5.590   4.902   8.206  0.8142  0.0573 -0.5041
  639MOL0     C86144   5.570   4.753   8.152 -0.4337 -0.1165 -0.4389
  639MOL0     C86145   5.547   4.739   8.006 -0.3900 -0.1803  0.5301
  639MOL0     C86146   5.566   4.588   7.966  0.2395  0.0918  0.9948
  639MOL0     N86147   5.607   4.576   7.826  0.5018  0.8104 -0.3008
  639MOL0     C86148   5.735   4.578   7.773 -0.3884  0.1048  0.5149
  639MOL0     C86149   5.717   4.558   7.647 -0.2688 -0.0246  0.5201
  639MOL0     C86150   5.839   4.540   7.557 -0.0222  0.4786  0.1920
  639MOL0     C86151   5.959   4.459   7.618 -0.5358 -0.7689  0.5127
  639MOL0     C86152   5.916   4.315   7.651 -0.5854 -0.0215 -0.3899
  639MOL0     C86153   6.022   4.236   7.731 -1.0381 -0.6859 -0.4922
  639MOL0     O86154   6.072   4.301   7.856 -0.5683  0.5549  0.1345
  639MOL0     C86155   6.003   4.276   7.971 -0.2119 -0.5695 -1.2892
  639MOL0     C86156   5.930   4.381   8.037 -0.3790  0.2721  0.5725
  639MOL0     C86157   5.854   4.360   8.155 -0.7991  0.2836  0.5363
  639MOL0     C86158   5.859   4.234   8.214 -1.0752 -0.6064  0.6383
  639MOL0     C86159   5.788   4.219   8.340  0.5838  0.0812 -0.3167
  639MOL0     O86160   5.826   4.118   8.419  0.2219 -0.5998  0.4054
  639MOL0     C86161   5.760   4.090   8.548  0.8699  0.5239  0.5031
  639MOL0     C86162   5.654   4.165   8.616 -0.8134  0.4140  0.3717
  639MOL0     C86163   5.622   4.128   8.744  0.5280 -0.3131  1.2037
  639MOL0     C86164   5.671   4.017   8.808 -0.7822 -0.1512  0.5131
  639MOL0     O86165   5.635   3.983   8.930  0.5033  0.8882 -0.6415
  639MOL0     C86166   5.579   3.851   8.949  0.0530 -0.3687  0.0247
  639MOL0     C86167   5.423   3.857   8.953  0.1467  0.2500  0.9051
  639MOL0     C86168   5.359   3.975   9.030 -0.6808 -0.0572 -0.5697
  639MOL0     C86169   5.218   3.992   8.966 -0.1888 -0.4744 -0.3787
  639MOL0     C86170   5.129   4.080   9.070 -1.7023  0.8525  0.1104
  639MOL0     C86171   4.988   4.098   9.025 -0.0488 -0.5694 -0.7799
  639MOL0     C86172   4.910   3.972   8.993  0.1282 -0.0684  0.1838
  639MOL0     C86173   4.892   3.872   9.109 -1.1209  0.1002  0.8456
  639MOL0    Cl86174   4.807   3.720   9.041  0.2999 -0.1866 -0.0118
  639MOL0     C86175   5.763   3.936   8.742  0.4314  0.2110 -1.5915
  639MOL0     C86176   5.802   3.966   8.609 -0.9513 -0.1883  0.6116
  639MOL0     O86177   5.697   4.297   8.367  0.6169 -0.3460 -0.2297
  639MOL0     C86178   5.930   4.128   8.158 -0.1538 -0.1453 -1.0920
  639MOL0     C86179   6.004   4.151   8.035 -0.8859  0.1676 -0.1211
  639MOL0     N86180   5.584   4.565   7.613 -1.5284  0.7879  0.8702
  639MOL0     N86181   5.520   4.562   7.725  0.3154  0.4104 -0.7314
  639MOL0     C86182   6.174   5.140   8.506 -0.4422  0.0519 -0.2605
  639MOL0     C86183   6.288   5.205   8.555 -0.2193  0.4776  0.1711
  639MOL0     C86184   6.586   5.561   8.676 -0.3121  0.5887 -0.4700
  639MOL0     C86185   6.593   5.705   8.693  1.2953 -0.4501 -0.1714
  639MOL0     C86186   6.706   5.763   8.737  0.7272 -0.7320 -0.6831
  639MOL0     C86187   6.808   5.683   8.779  0.2934 -0.3418 -0.5740
  639MOL0     O86188   6.923   5.748   8.814  0.0685 -0.3551  0.4295
  639MOL0     C86189   6.924   5.786   8.952 -0.4071 -0.6412  0.7039
  639MOL0     C86190   7.064   5.795   9.001  0.5980 -1.0995 -0.1076
  639MOL0     C86191   7.149   5.915   8.945  0.6995  0.0753  0.2863
  639MOL0     C86192   7.285   5.933   8.990 -0.1568  0.2972  0.0207
  639MOL0     C86193   7.296   5.954   9.139  0.0887 -0.1447 -0.2536
  639MOL0     C86194   7.281   5.962   9.255 -1.1747 -0.1426 -0.3203
  639MOL0     C86195   6.803   5.545   8.766  0.1025  0.1521 -0.6273
  639MOL0     C86196   6.690   5.479   8.717 -0.0611  0.1429  0.1564
  639MOL0     C86197   6.701   5.327   8.699  0.4911 -0.5640 -0.2221
  639MOL0     H86198   6.171   5.506   8.639 -2.8837  0.4074 -2.1778
  639MOL0     H86199   5.964   5.400   8.562  0.1348 -0.9529 -2.2198
  639MOL0     H86200   5.794   5.277   8.464  0.6916 -1.7385  0.6964
  639MOL0     H86201   5.886   5.307   8.314  2.1344 -0.1176  1.4830
  639MOL0     H86202   5.818   5.085   8.229 -0.6619 -1.3803  1.1893
  639MOL0     H86203   5.679   5.192   8.270 -0.0618 -1.2502  0.6955
  639MOL0     H86204   5.606   5.080   8.441  0.8957  3.0791 -0.3862
  639MOL0     H86205   5.750   5.003   8.498  0.5179  0.8584 -0.8543
  639MOL0     H86206   5.753   4.835   8.328 -0.7229  0.4638 -0.8935
  639MOL0     H86207   5.608   4.819   8.409  2.6729  1.0081  3.9519
  639MOL0     H86208   5.489   4.943   8.207  1.1277  0.8699 -1.0907
  639MOL0     H86209   5.655   4.955   8.137  3.0478 -2.7761 -0.7831
  639MOL0     H86210   5.655   4.692   8.181 -0.9191 -1.1238 -1.0743
  639MOL0     H86211   5.487   4.716   8.213  2.2314 -0.8031  3.0708
  639MOL0     H86212   5.621   4.806   7.960 -2.1625  0.9993 -0.7293
  639MOL0     H86213   5.451   4.787   7.984  0.7179  2.2805  0.6958
  639MOL0     H86214   5.627   4.520   8.025  1.8849 -1.4310 -2.1728
  639MOL0     H86215   5.461   4.557   7.966 -0.0170  0.6804 -1.9224
  639MOL0     H86216   5.829   4.593   7.825 -2.0030  2.3105  3.0955
  639MOL0     H86217   5.824   4.489   7.462 -0.7546  0.0052  0.5552
  639MOL0     H86218   5.863   4.644   7.531 -2.2210  0.6630 -1.3677
  639MOL0     H86219   6.035   4.443   7.541 -1.2258  0.1591 -0.3889
  639MOL0     H86220   6.007   4.507   7.704 -0.4310 -0.5325  0.3220
  639MOL0     H86221   5.893   4.265   7.557 -1.5945 -1.2448  0.4763
  639MOL0     H86222   5.828   4.314   7.715  0.8410  1.0825  1.7182
  639MOL0     H86223   6.111   4.215   7.671  2.2301  2.3328  2.7671
  639MOL0     H86224   5.965   4.146   7.755  1.1773 -2.3234 -1.0352
  639MOL0     H86225   5.953   4.477   7.993  0.5789  0.4929  1.5406
  639MOL0     H86226   5.794   4.443   8.189 -0.4155  1.5005 -1.5908
  639MOL0     H86227   5.614   4.263   8.593  0.7463  0.9565 -0.1999
  639MOL0     H86228   5.549   4.195   8.788  0.4453 -0.3585  1.1352
  639MOL0     H86229   5.608   3.772   8.879 -0.2393  0.6289 -1.2767
  639MOL0     H86230   5.619   3.823   9.047  1.2157 -1.5184 -0.7458
  639MOL0     H86231   5.381   3.847   8.852  0.8732  1.9681  0.3858
  639MOL0     H86232   5.399   3.764   9.005  1.0919 -1.8728 -2.1617
  639MOL0     H86233   5.358   3.965   9.139 -0.8718  1.6675 -0.3808
  639MOL0     H86234   5.422   4.064   9.026  0.5006 -0.9109 -1.9889
  639MOL0     H86235   5.177   3.890   8.962  0.9485 -0.9603 -0.0996
  639MOL0     H86236   5.214   4.035   8.866 -2.1260 -5.2900 -2.7122
  639MOL0     H86237   5.178   4.175   9.093 -2.3481  0.8954  1.4496
  639MOL0     H86238   5.138   4.041   9.172  1.4245  0.9013 -0.0419
  639MOL0     H86239   4.939   4.160   9.100  2.5470  0.2903  0.3207
  639MOL0     H86240   4.987   4.159   8.934 -3.8756 -0.4635 -0.8475
  639MOL0     H86241   4.957   3.924   8.906 -0.6971 -1.1416  0.3045
  639MOL0     H86242   4.811   3.992   8.949 -0.3331  0.9315  1.6021
  639MOL0     H86243   4.987   3.841   9.152 -1.4326 -0.9858  0.7783
  639MOL0     H86244   4.827   3.919   9.184  0.3451 -0.2149  2.3666
  639MOL0     H86245   5.792   3.848   8.799 -1.5975  0.8596  0.6007
  639MOL0     H86246   5.863   3.890   8.561 -0.4552 -0.4504  1.6378
  639MOL0     H86247   5.931   4.031   8.206  0.2764 -1.0129 -2.7754
  639MOL0     H86248   6.060   4.070   7.992  0.2291  0.3070  1.0155
  639MOL0     H86249   6.185   5.043   8.459 -3.1298  0.3237 -1.6448
  639MOL0     H86250   6.379   5.147   8.553 -0.6492 -0.1981 -1.1172
  639MOL0     H86251   6.521   5.776   8.654  0.6046 -1.6609 -1.1954
  639MOL0     H86252   6.733   5.868   8.738  0.1374 -0.5396  2.2902
  639MOL0     H86253   6.876   5.703   9.003 -2.0880  0.5691  1.1799
  639MOL0     H86254   6.868   5.880   8.958 -0.3062 -0.5178 -0.1074
  639MOL0     H86255   7.121   5.712   8.960  0.9337 -0.7453 -0.3633
  639MOL0     H86256   7.051   5.795   9.110 -1.9305 -0.6768 -0.3473
  639MOL0     H86257   7.087   6.005   8.956 -0.3841 -0.4998 -0.8750
  639MOL0     H86258   7.153   5.905   8.836 -0.8153 -1.0191  0.3026
  639MOL0     H86259   7.350   5.852   8.959 -2.6318 -2.4506  1.4307
  639MOL0     H86260   7.317   6.023   8.936  0.2945 -0.8177 -1.6324
  639MOL0     H86261   7.290   5.977   9.361 -0.8710 -1.5041 -0.1441
  639MOL0     H86262   6.879   5.480   8.808 -1.7682 -1.1709  0.9341
  639MOL0     H86263   6.604   5.276   8.699  0.9496 -2.1076 -5.4857
  639MOL0     H86264   6.751   5.308   8.603 -0.3543 -2.2611 -0.3692
  639MOL0     H86265   6.745   5.286   8.791 -1.1391  1.7595  1.7040
  640MOL0     O86266  11.446   3.073   3.783 -0.6640 -0.9069 -0.5392
  640MOL0     C86267  11.392   3.176   3.827 -0.5402  0.6946  1.3625
  640MOL0     O86268  11.291   3.235   3.760 -0.0082 -0.3302  0.2725
  640MOL0     C86269  11.239   3.178   3.647 -0.6858  0.3131  0.2974
  640MOL0     C86270  11.160   3.067   3.669 -0.4414 -0.2581 -0.5065
  640MOL0     C86271  11.136   2.981   3.561  0.4322  0.0048  0.0084
  640MOL0     C86272  11.178   3.007   3.422 -0.2647  0.6013 -0.3146
  640MOL0     O86273  11.158   2.922   3.311  0.4226 -0.4101 -0.5306
  640MOL0     C86274  11.115   2.789   3.351  0.2191 -0.5025 -0.4747
  640MOL0     C86275  11.162   2.701   3.237 -0.1523 -0.0622 -0.1639
  640MOL0     C86276  11.313   2.686   3.229  0.4036  0.2073 -0.0553
  640MOL0     C86277  11.389   2.804   3.165 -0.4686 -0.0619  0.0254
  640MOL0     C86278  11.520   2.749   3.115 -0.0896 -0.0556 -0.2929
  640MOL0     C86279  11.593   2.859   3.032 -0.3734  0.6640  0.4980
  640MOL0     C86280  11.732   2.805   3.010  0.1976  0.0278 -0.3568
  640MOL0     C86281  11.842   2.911   2.967  0.3198 -0.4740  0.2512
  640MOL0     N86282  11.849   3.027   3.058  0.4015  0.7149 -0.7567
  640MOL0     C86283  11.850   3.006   3.199  0.2321 -0.1261 -0.1848
  640MOL0     C86284  11.824   3.128   3.242 -0.9455 -0.7726 -0.4487
  640MOL0     C86285  11.793   3.162   3.386 -0.5707 -0.4605  0.3421
  640MOL0     C86286  11.651   3.126   3.415 -0.6745 -0.2424  0.8728
  640MOL0     C86287  11.608   2.982   3.432 -0.3473 -0.2656 -0.4889
  640MOL0     C86288  11.665   2.931   3.555  0.3167 -0.0134 -0.0256
  640MOL0     O86289  11.787   2.855   3.534 -0.1812 -0.3406 -0.0213
  640MOL0     C86290  11.864   2.844   3.647 -1.2531 -0.5301 -0.6550
  640MOL0     C86291  11.827   2.848   3.786  0.5249  0.4281  0.0943
  640MOL0     C86292  11.922   2.807   3.885 -0.1063  0.6112 -0.3345
  640MOL0     C86293  12.054   2.768   3.857 -0.6987  0.4219 -0.4105
  640MOL0     C86294  12.155   2.717   3.960  0.0923  0.6874  0.4853
  640MOL0     O86295  12.284   2.695   3.919 -0.9771 -0.2102  0.7821
  640MOL0     C86296  12.361   2.631   4.011 -0.6553  0.5141  0.6677
  640MOL0     C86297  12.343   2.491   4.033 -0.3770  0.1900 -0.4007
  640MOL0     C86298  12.417   2.439   4.128 -0.4838 -0.4193 -0.0901
  640MOL0     C86299  12.524   2.502   4.193 -0.1715 -0.9597 -0.2233
  640MOL0     O86300  12.598   2.432   4.280  0.1843 -0.9457  0.4878
  640MOL0     C86301  12.633   2.501   4.401 -0.7152 -0.0689  0.5106
  640MOL0     C86302  12.589   2.415   4.517 -0.1312  0.6360 -0.7697
  640MOL0     C86303  12.716   2.351   4.585 -0.2085 -0.2792  0.7319
  640MOL0     C86304  12.679   2.289   4.719  1.1733  0.2980  0.6153
  640MOL0     C86305  12.793   2.270   4.820  1.1579  0.0775 -1.5696
  640MOL0     C86306  12.912   2.183   4.775  1.2632 -0.7472  0.1906
  640MOL0     C86307  12.874   2.044   4.727 -0.3477 -0.3132 -1.1541
  640MOL0     C86308  12.993   1.975   4.665 -0.6191 -0.9114 -0.1972
  640MOL0    Cl86309  13.122   1.973   4.784 -0.4832 -0.0766 -0.3545
  640MOL0     C86310  12.546   2.641   4.165 -0.0311 -0.0730 -0.5284
  640MOL0     C86311  12.459   2.706   4.079  0.3125  0.8388 -0.2866
  640MOL0     O86312  12.117   2.689   4.076  0.7504 -0.0338 -0.2139
  640MOL0     C86313  12.087   2.763   3.718 -0.1515  0.4939 -0.9911
  640MOL0     C86314  11.994   2.799   3.619 -0.1033  0.7316 -0.0079
  640MOL0     N86315  11.816   3.216   3.136  0.1667  0.0283 -0.5542
  640MOL0     N86316  11.834   3.153   3.022  0.4813 -1.3986 -1.0024
  640MOL0     C86317  11.243   3.128   3.409 -0.5922  0.6458  0.2585
  640MOL0     C86318  11.277   3.207   3.514  0.9294 -0.3426  0.0941
  640MOL0     C86319  11.449   3.224   3.958  0.5455 -0.6116 -0.4047
  640MOL0     C86320  11.585   3.195   3.987  0.5364 -1.0398  0.4429
  640MOL0     C86321  11.640   3.242   4.102  0.1890 -0.8809 -1.1596
  640MOL0     C86322  11.568   3.316   4.198 -0.1208  0.6386 -0.7492
  640MOL0     O86323  11.647   3.356   4.296 -0.7027 -0.6580 -0.6946
  640MOL0     C86324  11.577   3.384   4.418  0.5268  0.3992 -1.3200
  640MOL0     C86325  11.662   3.340   4.536  1.2343  1.1529 -0.1227
  640MOL0     C86326  11.584   3.348   4.668 -0.2484 -0.2897 -0.8336
  640MOL0     C86327  11.680   3.329   4.784  0.9423  0.3179 -0.6518
  640MOL0     C86328  11.704   3.466   4.824 -0.8080 -0.2952  0.0708
  640MOL0     C86329  11.733   3.586   4.849 -0.4426  0.5398  0.1228
  640MOL0     C86330  11.435   3.343   4.175  0.3246 -0.3335  0.6051
  640MOL0     C86331  11.377   3.297   4.058  0.1156  0.6536  0.8970
  640MOL0     C86332  11.240   3.346   4.038 -0.2358  0.6081 -0.5260
  640MOL0     H86333  11.135   3.040   3.771 -2.1652 -3.6020 -1.6424
  640MOL0     H86334  11.074   2.893   3.579 -1.3988  1.4810  1.2317
  640MOL0     H86335  11.151   2.763   3.451 -0.3557  1.2756  0.2267
  640MOL0     H86336  11.006   2.783   3.351  0.2783 -2.4380  0.8590
  640MOL0     H86337  11.115   2.722   3.140  0.1511 -4.7380 -1.6099
  640MOL0     H86338  11.124   2.599   3.251  0.5616 -0.3529 -0.3014
  640MOL0     H86339  11.327   2.587   3.183 -3.4807 -0.4339 -0.1451
  640MOL0     H86340  11.348   2.682   3.332 -1.7808 -3.8044  0.7268
  640MOL0     H86341  11.321   2.844   3.089 -1.0915 -2.6724 -0.9065
  640MOL0     H86342  11.418   2.883   3.236  1.3545  1.0879 -1.8598
  640MOL0     H86343  11.575   2.701   3.195  1.2106  1.8594  0.0352
  640MOL0     H86344  11.503   2.672   3.039 -1.8760 -1.1758  1.1689
  640MOL0     H86345  11.545   2.877   2.935 -0.7737 -1.8629  0.1624
  640MOL0     H86346  11.603   2.952   3.088 -0.7810  1.7485 -1.1445
  640MOL0     H86347  11.732   2.727   2.934  0.0688  1.3544 -1.7900
  640MOL0     H86348  11.773   2.757   3.099 -0.6238  0.8967  0.5076
  640MOL0     H86349  11.938   2.861   2.949 -1.2241 -2.8590 -2.0182
  640MOL0     H86350  11.815   2.945   2.867  0.2976  1.9927  1.0374
  640MOL0     H86351  11.822   2.920   3.259 -2.1701  1.1249  0.6343
  640MOL0     H86352  11.874   3.119   3.447  0.5427 -1.8064 -1.9655
  640MOL0     H86353  11.806   3.270   3.395  3.7893 -0.4653 -2.5778
  640MOL0     H86354  11.623   3.191   3.499 -1.7892 -1.1319  1.2176
  640MOL0     H86355  11.597   3.162   3.327  2.8049  0.8107 -1.0470
  640MOL0     H86356  11.646   2.930   3.344  2.1865  2.5075 -1.2006
  640MOL0     H86357  11.499   2.985   3.444 -0.4856  2.0125 -1.7581
  640MOL0     H86358  11.584   2.874   3.600  0.3297  0.6368  0.8502
  640MOL0     H86359  11.673   3.014   3.626 -3.0896 -0.0432  0.5868
  640MOL0     H86360  11.721   2.868   3.798  0.8729  3.5541 -1.0868
  640MOL0     H86361  11.876   2.798   3.983 -1.7272  4.1097 -0.6111
  640MOL0     H86362  12.267   2.441   3.974 -0.4530  0.2179 -0.3259
  640MOL0     H86363  12.399   2.334   4.147 -1.6987 -0.6455 -2.1839
  640MOL0     H86364  12.738   2.527   4.414  0.2345 -2.5101 -1.4502
  640MOL0     H86365  12.582   2.597   4.411 -1.0671 -0.3402  1.4497
  640MOL0     H86366  12.535   2.483   4.584 -0.7067  1.7105 -2.2810
  640MOL0     H86367  12.509   2.343   4.493 -0.6436  1.1365 -0.5849
  640MOL0     H86368  12.750   2.280   4.509 -1.1425  0.1174 -0.0857
  640MOL0     H86369  12.790   2.429   4.602 -1.2871  1.5174 -2.1215
  640MOL0     H86370  12.630   2.191   4.715  1.3951  0.2300 -1.0808
  640MOL0     H86371  12.589   2.342   4.753  0.4623 -0.7988  0.4796
  640MOL0     H86372  12.753   2.226   4.911  0.3808  2.6572 -0.5703
  640MOL0     H86373  12.826   2.366   4.860 -2.3191  0.2506  1.3233
  640MOL0     H86374  12.967   2.235   4.696  1.8003 -3.1036 -1.0760
  640MOL0     H86375  12.980   2.185   4.860  0.2434  0.4077  1.0212
  640MOL0     H86376  12.788   2.049   4.660 -2.3794  0.1386  1.3495
  640MOL0     H86377  12.851   1.985   4.816  0.6511  0.0804 -0.6165
  640MOL0     H86378  12.961   1.876   4.633  2.4327 -1.6593 -1.3054
  640MOL0     H86379  13.035   2.035   4.584  1.6577 -3.2627 -0.8631
  640MOL0     H86380  12.615   2.684   4.237  2.2440 -0.7429 -2.1838
  640MOL0     H86381  12.467   2.813   4.062  1.2537  0.6811 -0.8983
  640MOL0     H86382  12.185   2.728   3.688 -0.2221 -0.1294 -0.5163
  640MOL0     H86383  12.021   2.807   3.514 -1.5024  1.0740 -0.3586
  640MOL0     H86384  11.290   3.172   3.322 -0.2873 -3.3843 -1.8415
  640MOL0     H86385  11.352   3.284   3.497 -1.3431  2.2140  0.9606
  640MOL0     H86386  11.641   3.122   3.929  0.8836 -1.9112  1.8353
  640MOL0     H86387  11.740   3.214   4.136 -0.6503 -1.4711  1.0387
  640MOL0     H86388  11.490   3.319   4.419 -0.0354  1.1330  0.3691
  640MOL0     H86389  11.531   3.483   4.432  0.8152  0.1605  2.0776
  640MOL0     H86390  11.749   3.405   4.542  3.6531 -1.7978 -0.6254
  640MOL0     H86391  11.694   3.238   4.511 -1.2913  0.6687 -1.7809
  640MOL0     H86392  11.509   3.269   4.676 -1.3886  0.6094 -2.1984
  640MOL0     H86393  11.540   3.448   4.680  2.8359  0.9953  1.0194
  640MOL0     H86394  11.640   3.261   4.859  4.3624 -2.1380 -0.8238
  640MOL0     H86395  11.774   3.287   4.746  0.2022 -0.8360 -1.2854
  640MOL0     H86396  11.752   3.692   4.853  2.3976  0.0734  1.0802
  640MOL0     H86397  11.373   3.399   4.244 -1.6215 -0.8884 -0.6071
  640MOL0     H86398  11.184   3.252   4.047  2.4561 -0.9574  1.2781
  640MOL0     H86399  11.200   3.424   4.102 -3.2622 -1.8284  0.8151
  640MOL0     H86400  11.226   3.379   3.934  0.3857 -0.5312 -0.9958
  641MOL0     O86401   3.587   9.975   5.957 -1.3986  0.0504 -0.7078
  641MOL0     C86402   3.507  10.046   6.027 -0.8741  0.5532 -0.6632
  641MOL0     O86403   3.542  10.143   6.114 -0.0809  0.1262  0.8719
  641MOL0     C86404   3.675  10.155   6.152 -1.2591 -0.0354  0.3197
  641MOL0     C86405   3.744  10.279   6.142 -0.0755  0.1484  0.0605
  641MOL0     C86406   3.871  10.304   6.180  1.1381 -0.1188  0.2172
  641MOL0     C86407   3.947  10.196   6.230  0.0300  0.0554 -0.9462
  641MOL0     O86408   4.077  10.209   6.277  0.3849  0.0749 -0.0357
  641MOL0     C86409   4.106  10.344   6.315  0.2037  0.5577 -0.3841
  641MOL0     C86410   4.225  10.343   6.418 -0.4826 -0.7230  0.4548
  641MOL0     C86411   4.281  10.490   6.427  0.5608  0.1413 -0.5228
  641MOL0     C86412   4.397  10.512   6.528 -0.6115  0.5963 -0.0437
  641MOL0     C86413   4.443  10.652   6.526  0.3462 -0.4301 -0.5096
  641MOL0     C86414   4.527  10.696   6.406  0.0559 -0.5383  0.1656
  641MOL0     C86415   4.589  10.830   6.440 -0.2538  0.1846  0.0133
  641MOL0     C86416   4.686  10.883   6.341 -0.7150  0.2245  0.2366
  641MOL0     N86417   4.621  10.971   6.247  0.4207 -0.4086 -0.1614
  641MOL0     C86418   4.538  10.914   6.148 -0.5166 -0.4126 -0.6044
  641MOL0     C86419   4.541  11.017   6.052  0.5791 -0.6705 -0.0719
  641MOL0     C86420   4.479  11.021   5.918  0.2898 -0.2730  1.4365
  641MOL0     C86421   4.567  11.086   5.809  0.8949 -0.8395  0.0240
  641MOL0     C86422   4.492  11.116   5.682 -0.2965 -0.4723 -0.5520
  641MOL0     C86423   4.597  11.176   5.580 -0.4249  0.7155 -0.0014
  641MOL0     O86424   4.668  11.294   5.628 -0.3207  0.2318  0.6105
  641MOL0     C86425   4.603  11.402   5.675 -1.3283  0.0493  0.0481
  641MOL0     C86426   4.661  11.457   5.789 -0.4124  0.0572  0.8618
  641MOL0     C86427   4.598  11.557   5.860  0.0207 -0.1057  0.3536
  641MOL0     C86428   4.487  11.620   5.818  0.7874  1.1492 -0.5780
  641MOL0     C86429   4.425  11.736   5.893 -0.2137 -0.1997 -0.6197
  641MOL0     O86430   4.512  11.800   5.972  0.3900  0.5890 -0.2940
  641MOL0     C86431   4.470  11.902   6.039 -0.6229  0.6164  0.1861
  641MOL0     C86432   4.429  11.888   6.173  0.2413 -0.1673  0.2670
  641MOL0     C86433   4.386  12.007   6.237  0.4792  0.1738 -0.2431
  641MOL0     C86434   4.401  12.136   6.187 -0.1526 -0.3549  0.5949
  641MOL0     O86435   4.350  12.239   6.257 -0.3028 -0.9184  0.5551
  641MOL0     C86436   4.290  12.343   6.180 -0.0042  0.6485 -0.5887
  641MOL0     C86437   4.192  12.431   6.271  0.3922 -0.4521  0.7949
  641MOL0     C86438   4.071  12.361   6.330  0.0749 -0.6897  0.1102
  641MOL0     C86439   3.987  12.453   6.418 -1.0362  0.9931  0.8786
  641MOL0     C86440   3.879  12.359   6.487  0.5266 -1.6138 -0.5432
  641MOL0     C86441   3.788  12.444   6.588 -0.1150 -0.0025 -0.2234
  641MOL0     C86442   3.657  12.369   6.594 -0.3758 -1.0391  0.1004
  641MOL0     C86443   3.592  12.404   6.728  0.1771  0.8967  0.8927
  641MOL0    Cl86444   3.577  12.585   6.741 -0.0599 -0.3514 -0.0139
  641MOL0     C86445   4.440  12.145   6.054 -0.4479 -1.0237  0.1574
  641MOL0     C86446   4.473  12.026   5.982 -0.4168 -0.2788  0.5163
  641MOL0     O86447   4.308  11.772   5.876 -0.7840  0.5713 -0.5546
  641MOL0     C86448   4.428  11.574   5.705 -0.4310 -0.6349  0.3164
  641MOL0     C86449   4.485  11.469   5.634  0.5686  1.0990 -0.2158
  641MOL0     N86450   4.619  11.126   6.088 -0.3221  0.6691 -0.6925
  641MOL0     N86451   4.667  11.100   6.203 -0.0887 -0.7574 -0.6355
  641MOL0     C86452   3.886  10.068   6.248  0.5709  1.6347  0.1720
  641MOL0     C86453   3.749  10.054   6.220 -0.4903  0.0478 -0.6386
  641MOL0     C86454   3.360  10.026   6.016 -0.1394  0.2219  0.8105
  641MOL0     C86455   3.306   9.987   5.897 -0.0659 -0.6059  0.4321
  641MOL0     C86456   3.182   9.959   5.867  0.3062 -0.1001 -1.1645
  641MOL0     C86457   3.084   9.965   5.971 -1.2113  0.4965  0.0217
  641MOL0     O86458   2.951   9.952   5.960 -0.1818 -0.7538  0.2422
  641MOL0     C86459   2.893  10.019   5.847 -0.4462  0.9668  0.3872
  641MOL0     C86460   2.746   9.961   5.819  0.1379 -0.6522  0.2471
  641MOL0     C86461   2.745   9.814   5.841 -0.5059  0.4689  0.5653
  641MOL0     C86462   2.789   9.746   5.708 -0.3562  0.9927  0.0603
  641MOL0     C86463   2.740   9.610   5.705  0.1393  0.7731  0.5679
  641MOL0     C86464   2.685   9.495   5.694 -1.3275 -0.1961  0.6133
  641MOL0     C86465   3.133  10.001   6.102  0.0163  0.3635  0.3751
  641MOL0     C86466   3.266  10.031   6.130 -0.3143  0.3996  0.3815
  641MOL0     C86467   3.306  10.059   6.272  0.7301  0.8732  0.5015
  641MOL0     H86468   3.683  10.361   6.105 -1.2773 -0.4056  0.7663
  641MOL0     H86469   3.916  10.402   6.168  0.9245 -0.0470  0.0006
  641MOL0     H86470   4.135  10.405   6.229  2.6350  1.5730  1.0490
  641MOL0     H86471   4.029  10.384   6.381 -0.1485  1.1877 -1.1574
  641MOL0     H86472   4.308  10.278   6.390  2.5909  2.3878  1.6892
  641MOL0     H86473   4.194  10.300   6.514  0.5614 -0.7229  0.8051
  641MOL0     H86474   4.210  10.571   6.447  2.1692  1.7558 -1.0189
  641MOL0     H86475   4.338  10.504   6.334 -1.6635  0.1708 -1.9571
  641MOL0     H86476   4.351  10.483   6.623 -3.0956 -2.0575 -1.8724
  641MOL0     H86477   4.484  10.446   6.519  0.0303  0.6084  4.1778
  641MOL0     H86478   4.347  10.705   6.524  0.6541  0.1040 -1.1529
  641MOL0     H86479   4.502  10.673   6.615 -0.0302  0.9761 -0.5634
  641MOL0     H86480   4.612  10.630   6.386  0.5915 -0.3574  1.6884
  641MOL0     H86481   4.466  10.715   6.318  2.5178  0.4188 -1.4190
  641MOL0     H86482   4.640  10.832   6.536 -1.7477  2.2771  0.8298
  641MOL0     H86483   4.504  10.898   6.437  0.6692  1.3449 -1.6764
  641MOL0     H86484   4.761  10.943   6.392  2.5200 -4.3862  1.4923
  641MOL0     H86485   4.734  10.800   6.289 -1.3174 -0.8776  1.3767
  641MOL0     H86486   4.490  10.818   6.144 -3.8104  0.7788  3.2513
  641MOL0     H86487   4.479  10.915   5.892  3.1209 -0.6330  2.5051
  641MOL0     H86488   4.376  11.058   5.918 -0.8041 -3.0624  1.5045
  641MOL0     H86489   4.606  11.184   5.841  3.7605  0.0542 -5.0584
  641MOL0     H86490   4.642  11.008   5.797  1.7633  0.0971 -0.8413
  641MOL0     H86491   4.406  11.183   5.696 -0.7437 -0.8346 -1.4696
  641MOL0     H86492   4.459  11.022   5.639 -2.1963 -0.4759  0.8082
  641MOL0     H86493   4.541  11.201   5.490 -1.4562  1.0359  0.7236
  641MOL0     H86494   4.674  11.101   5.557 -2.4949 -1.8823  0.9963
  641MOL0     H86495   4.742  11.408   5.842 -0.6897 -0.0193  1.2259
  641MOL0     H86496   4.642  11.587   5.955 -0.3471 -1.5127  0.9972
  641MOL0     H86497   4.414  11.789   6.215 -0.2952 -1.5275 -2.8507
  641MOL0     H86498   4.348  12.004   6.339 -1.6151 -1.2730 -0.9997
  641MOL0     H86499   4.369  12.411   6.147  0.4792  1.3182  1.7284
  641MOL0     H86500   4.229  12.297   6.102 -0.9713 -1.2559  1.2054
  641MOL0     H86501   4.251  12.476   6.352  2.9760 -1.5733 -0.3522
  641MOL0     H86502   4.154  12.509   6.205  0.8914 -1.5695 -0.8818
  641MOL0     H86503   4.013  12.313   6.250  1.5811 -0.2245 -1.3131
  641MOL0     H86504   4.111  12.284   6.395  2.4357 -0.5703 -1.0998
  641MOL0     H86505   3.953  12.535   6.352  0.0225 -0.2200 -1.2726
  641MOL0     H86506   4.047  12.496   6.498  1.7677 -1.3719  0.1948
  641MOL0     H86507   3.926  12.274   6.538 -0.6214 -1.9689 -0.0395
  641MOL0     H86508   3.819  12.306   6.413  0.3435 -0.4882 -1.2108
  641MOL0     H86509   3.841  12.445   6.684  1.3880 -3.3344 -0.8733
  641MOL0     H86510   3.775  12.544   6.544 -0.2627 -0.8428 -2.1551
  641MOL0     H86511   3.676  12.262   6.604 -1.0940 -1.3694 -1.7821
  641MOL0     H86512   3.593  12.383   6.507  1.5457  0.4764 -1.1427
  641MOL0     H86513   3.491  12.361   6.719  1.4313 -2.1399  0.2463
  641MOL0     H86514   3.650  12.355   6.807  1.1199 -0.7288 -0.7289
  641MOL0     H86515   4.463  12.237   6.002  3.3268 -0.8238  1.8702
  641MOL0     H86516   4.498  12.032   5.877 -0.8662  2.1695  0.4880
  641MOL0     H86517   4.345  11.629   5.662 -0.0643 -0.0469  0.3486
  641MOL0     H86518   4.439  11.425   5.546  0.3506  2.4250 -0.7788
  641MOL0     H86519   3.945   9.984   6.284  0.2644  1.6293  0.6611
  641MOL0     H86520   3.701   9.963   6.253  0.0359  0.6693  2.0832
  641MOL0     H86521   3.370   9.996   5.810  1.5576 -2.1353  1.4062
  641MOL0     H86522   3.152   9.923   5.769 -2.1980 -0.4953 -0.3193
  641MOL0     H86523   2.950  10.012   5.754  0.0190  0.8773  0.6766
  641MOL0     H86524   2.890  10.124   5.876 -0.1251  1.5512 -1.5125
  641MOL0     H86525   2.701   9.998   5.726 -0.3089  3.1123  1.7538
  641MOL0     H86526   2.676  10.016   5.882 -1.7373 -1.4611 -1.0388
  641MOL0     H86527   2.645   9.779   5.868  1.0636 -2.0488  3.7569
  641MOL0     H86528   2.811   9.762   5.911 -1.6033 -1.7279  0.0574
  641MOL0     H86529   2.730   9.806   5.638  1.7825  1.3684 -1.5239
  641MOL0     H86530   2.895   9.765   5.685 -0.2164 -0.3578 -0.5022
  641MOL0     H86531   2.648   9.400   5.664 -1.3349  0.0436 -0.1530
  641MOL0     H86532   3.066  10.009   6.187 -0.7540  3.7020 -0.4008
  641MOL0     H86533   3.232  10.034   6.349 -0.5604 -2.8608 -1.6715
  641MOL0     H86534   3.395  10.006   6.307 -0.8365 -2.5244 -0.2933
  641MOL0     H86535   3.315  10.168   6.284 -1.1093  1.0123  1.0055
  642MOL0     O86536   4.344   1.706   9.193 -0.3330  0.0036 -0.4673
  642MOL0     C86537   4.351   1.820   9.238 -0.2283 -0.2851  0.4219
  642MOL0     O86538   4.460   1.896   9.235 -0.0668 -0.2239 -0.1264
  642MOL0     C86539   4.584   1.834   9.238  0.2040  0.2854 -0.0420
  642MOL0     C86540   4.657   1.805   9.116  0.6794  0.3236  0.0682
  642MOL0     C86541   4.779   1.740   9.127  0.9141 -0.4229 -0.2874
  642MOL0     C86542   4.831   1.708   9.248  0.5349 -0.6490  0.6074
  642MOL0     O86543   4.959   1.656   9.236  0.3396 -0.4739  0.8911
  642MOL0     C86544   4.979   1.545   9.313 -0.0201  1.0505 -0.7298
  642MOL0     C86545   5.116   1.490   9.298  0.6343  1.0174  0.1845
  642MOL0     C86546   5.124   1.340   9.361  0.1658 -0.3914 -0.2694
  642MOL0     C86547   5.259   1.269   9.332 -0.0410  0.3524 -0.3365
  642MOL0     C86548   5.273   1.126   9.388  0.4199 -0.1527  0.4739
  642MOL0     C86549   5.412   1.082   9.349 -0.1683  1.0649 -0.6505
  642MOL0     C86550   5.535   1.175   9.391  0.3844  0.6700  0.8478
  642MOL0     C86551   5.672   1.121   9.348  0.4540 -0.3354  0.4221
  642MOL0     N86552   5.721   0.991   9.419  0.9100 -0.2037 -0.4553
  642MOL0     C86553   5.824   0.921   9.373  0.4361 -0.0695  0.6177
  642MOL0     C86554   5.869   0.846   9.475  0.5544 -0.2162  0.7303
  642MOL0     C86555   5.961   0.729   9.455  0.0215 -0.4001 -0.7758
  642MOL0     C86556   5.934   0.642   9.333 -0.5675  0.0178 -0.1200
  642MOL0     C86557   5.801   0.571   9.338 -0.3396  0.0399  0.0014
  642MOL0     C86558   5.817   0.436   9.414  0.0102 -0.5202 -1.2628
  642MOL0     O86559   5.890   0.355   9.329 -0.6457 -0.6199  0.1296
  642MOL0     C86560   5.918   0.225   9.361 -0.1633  1.1569  0.0154
  642MOL0     C86561   6.003   0.148   9.271 -0.5897 -1.5530  0.7349
  642MOL0     C86562   6.018   0.012   9.286  0.0968  0.3085 -0.2675
  642MOL0     C86563   5.948  -0.051   9.396 -0.5385  0.4813  0.2154
  642MOL0     C86564   5.991  -0.199   9.404 -0.0567 -0.8728 -0.8280
  642MOL0     O86565   5.911  -0.268   9.483  0.5558 -0.2944  0.0359
  642MOL0     C86566   5.922  -0.401   9.504  0.1084  0.8069  0.7110
  642MOL0     C86567   5.980  -0.500   9.421  0.7836 -0.6326 -0.2967
  642MOL0     C86568   5.957  -0.635   9.460  0.0960  0.1513 -0.1890
  642MOL0     C86569   5.891  -0.672   9.573 -0.3299 -0.6905 -0.4093
  642MOL0     O86570   5.869  -0.803   9.627  0.0706 -0.3538 -0.2945
  642MOL0     C86571   5.874  -0.918   9.536  0.2719 -0.1058  0.2929
  642MOL0     C86572   5.860  -1.057   9.607 -1.0746 -0.2746 -0.1404
  642MOL0     C86573   5.920  -1.077   9.744  0.8705 -0.0009  1.0116
  642MOL0     C86574   5.843  -1.182   9.826  0.3664 -0.0036 -0.0837
  642MOL0     C86575   5.831  -1.314   9.747  0.0624  0.2340 -0.5863
  642MOL0     C86576   5.800  -1.442   9.827 -0.2539  0.8064  0.3312
  642MOL0     C86577   5.715  -1.552   9.761  0.8459 -1.1758 -0.3781
  642MOL0     C86578   5.794  -1.623   9.652 -0.5838  0.1378 -0.2679
  642MOL0    Cl86579   5.886  -1.738   9.751 -0.4856  0.0098  0.2409
  642MOL0     C86580   5.838  -0.568   9.653  0.3738 -0.1395 -1.6565
  642MOL0     C86581   5.850  -0.436   9.616  0.1742  0.1560 -0.0079
  642MOL0     O86582   6.095  -0.246   9.352 -0.0258  0.8505  0.4996
  642MOL0     C86583   5.855   0.016   9.473 -0.2781 -0.0991  0.2350
  642MOL0     C86584   5.843   0.158   9.455  0.1531 -0.2257  0.9976
  642MOL0     N86585   5.795   0.883   9.587  0.0535  0.2153  0.7006
  642MOL0     N86586   5.716   0.978   9.556 -0.6093  0.3892  0.1397
  642MOL0     C86587   4.758   1.731   9.366  0.4076 -0.2466  0.1725
  642MOL0     C86588   4.622   1.782   9.353 -0.3099 -0.4835  0.1144
  642MOL0     C86589   4.230   1.905   9.252 -0.5094  0.0144  0.0074
  642MOL0     C86590   4.235   1.994   9.359  0.0574  0.0014  0.4834
  642MOL0     C86591   4.132   2.072   9.389  0.8507 -0.1265  0.8400
  642MOL0     C86592   4.011   2.062   9.328 -0.1346 -0.0711  0.3065
  642MOL0     O86593   3.914   2.137   9.385  0.2334  0.0819  0.8267
  642MOL0     C86594   3.788   2.154   9.316 -1.1649 -0.1490 -0.0746
  642MOL0     C86595   3.689   2.206   9.422  0.5558 -0.1173  1.5934
  642MOL0     C86596   3.755   2.305   9.523  0.0876 -0.4027  0.3450
  642MOL0     C86597   3.832   2.420   9.461  0.8873 -0.2445  0.3350
  642MOL0     C86598   3.983   2.413   9.455  0.5882 -0.2107  0.5744
  642MOL0     C86599   4.104   2.413   9.441  0.2958 -0.7370  0.1666
  642MOL0     C86600   3.999   1.961   9.232 -0.2912  0.0151 -1.1651
  642MOL0     C86601   4.105   1.876   9.188 -0.2715 -0.2532 -0.7684
  642MOL0     C86602   4.081   1.775   9.082 -0.2680  0.6381  0.8762
  642MOL0     H86603   4.631   1.835   9.014 -0.9390 -1.6329 -0.1597
  642MOL0     H86604   4.834   1.722   9.035 -0.2503 -1.1730 -0.8691
  642MOL0     H86605   4.949   1.558   9.418  1.9775 -1.8048  0.3072
  642MOL0     H86606   4.907   1.467   9.289 -1.1335  1.0963  2.0652
  642MOL0     H86607   5.190   1.559   9.341  0.5802  1.2385 -0.0771
  642MOL0     H86608   5.142   1.482   9.192 -1.0320  1.0690 -0.2522
  642MOL0     H86609   5.039   1.279   9.328 -0.1674  0.2161 -0.5421
  642MOL0     H86610   5.105   1.348   9.468 -1.3222 -1.0310 -0.4686
  642MOL0     H86611   5.284   1.266   9.226  4.4803 -1.3602  0.5545
  642MOL0     H86612   5.334   1.339   9.370  2.8560 -2.7267  0.0676
  642MOL0     H86613   5.255   1.131   9.496 -1.0461  0.1238  0.2342
  642MOL0     H86614   5.193   1.059   9.355  0.6958 -0.5136  0.5272
  642MOL0     H86615   5.429   0.985   9.396  2.1182  1.7674  0.1028
  642MOL0     H86616   5.417   1.061   9.242 -0.8473  1.1007 -0.6914
  642MOL0     H86617   5.527   1.193   9.499  1.8456 -2.2708  1.5458
  642MOL0     H86618   5.533   1.275   9.347  0.2796  1.5163  2.6771
  642MOL0     H86619   5.679   1.092   9.242  3.0576 -4.9416  1.5639
  642MOL0     H86620   5.745   1.201   9.359 -1.2465  1.6397 -1.6422
  642MOL0     H86621   5.849   0.929   9.268 -0.7855 -0.9646  0.2297
  642MOL0     H86622   6.061   0.765   9.430  0.7285 -1.6268  0.1592
  642MOL0     H86623   5.951   0.664   9.542 -0.5376 -0.0146 -0.5414
  642MOL0     H86624   5.927   0.713   9.250 -3.9935 -0.2811 -0.2213
  642MOL0     H86625   6.017   0.572   9.318  2.9429  3.5820  0.7313
  642MOL0     H86626   5.760   0.558   9.238  0.7582  0.6359 -0.5418
  642MOL0     H86627   5.721   0.633   9.380  2.0318  1.4069  2.8581
  642MOL0     H86628   5.715   0.399   9.408 -2.0350  4.3284 -0.9287
  642MOL0     H86629   5.860   0.446   9.515  0.1598 -0.2901 -1.3490
  642MOL0     H86630   6.048   0.198   9.185 -2.1128  1.9389  1.7502
  642MOL0     H86631   6.094  -0.035   9.225  2.2554  1.4136  1.4537
  642MOL0     H86632   6.032  -0.487   9.328  0.9028 -3.0094 -0.6302
  642MOL0     H86633   6.004  -0.717   9.406 -2.2789 -2.4869  1.4795
  642MOL0     H86634   5.813  -0.914   9.446  0.3258  0.4595  0.2758
  642MOL0     H86635   5.976  -0.925   9.497  1.6684 -1.7565  3.8092
  642MOL0     H86636   5.750  -1.058   9.615 -1.2272  0.9402 -1.4733
  642MOL0     H86637   5.882  -1.141   9.541 -2.5496 -0.5348 -0.3368
  642MOL0     H86638   6.028  -1.091   9.749  0.7625 -1.3777  0.2249
  642MOL0     H86639   5.920  -0.979   9.791  1.6547  0.5058 -0.0105
  642MOL0     H86640   5.740  -1.149   9.848 -0.6912 -1.2905 -2.6849
  642MOL0     H86641   5.876  -1.196   9.929 -1.8927  2.0171  1.0248
  642MOL0     H86642   5.920  -1.336   9.687 -0.0034 -1.5219 -0.0839
  642MOL0     H86643   5.754  -1.295   9.672  0.8821  1.0834 -1.2469
  642MOL0     H86644   5.892  -1.485   9.868 -1.4345 -1.6798  0.5146
  642MOL0     H86645   5.743  -1.417   9.917 -2.0631 -3.9559  0.7537
  642MOL0     H86646   5.625  -1.508   9.717 -0.8617 -1.3848  2.5876
  642MOL0     H86647   5.680  -1.632   9.827 -1.0129 -0.7465 -0.7766
  642MOL0     H86648   5.736  -1.684   9.583  2.1248  1.0454 -3.6645
  642MOL0     H86649   5.854  -1.552   9.594 -0.2916  0.4940  0.4570
  642MOL0     H86650   5.782  -0.585   9.745  0.2409 -0.4613 -1.7946
  642MOL0     H86651   5.816  -0.357   9.682  1.1967 -1.7953  3.1079
  642MOL0     H86652   5.799  -0.037   9.549  0.0184 -0.2390  0.3590
  642MOL0     H86653   5.770   0.218   9.507  0.6849  0.3861  1.0569
  642MOL0     H86654   4.797   1.704   9.464 -0.5127  0.3554  0.7311
  642MOL0     H86655   4.558   1.795   9.440  0.5861  0.9351  0.5893
  642MOL0     H86656   4.327   2.001   9.415 -0.4067 -1.7825  1.5707
  642MOL0     H86657   4.137   2.142   9.471  2.5066 -0.9023  1.4310
  642MOL0     H86658   3.743   2.064   9.274 -1.1773 -0.0432 -0.2871
  642MOL0     H86659   3.797   2.228   9.237  0.1860  1.3962  1.4407
  642MOL0     H86660   3.660   2.120   9.483  2.9008 -1.7788  0.5393
  642MOL0     H86661   3.603   2.261   9.382  2.2979  0.8923 -1.0803
  642MOL0     H86662   3.830   2.264   9.592  0.6455  0.2892  0.1704
  642MOL0     H86663   3.675   2.358   9.576 -0.9728 -0.3124 -1.2859
  642MOL0     H86664   3.784   2.446   9.366 -0.4224 -1.6229  0.5662
  642MOL0     H86665   3.797   2.505   9.520 -0.4334 -0.9164  0.5664
  642MOL0     H86666   4.208   2.395   9.426  0.2560 -0.0291 -1.0934
  642MOL0     H86667   3.899   1.942   9.194 -0.1245  0.0741 -1.6365
  642MOL0     H86668   4.165   1.777   9.013 -1.2043 -0.4724 -0.3624
  642MOL0     H86669   4.077   1.674   9.124  0.2779  0.5392  0.6869
  642MOL0     H86670   3.985   1.796   9.035  0.1784  0.7987  0.0325
  643MOL0     O86671   6.471   5.510   2.226  0.3427 -1.2222 -0.4323
  643MOL0     C86672   6.468   5.422   2.138  0.7175  0.5385  0.1699
  643MOL0     O86673   6.511   5.288   2.150 -0.2995  0.6626  0.8272
  643MOL0     C86674   6.558   5.225   2.262  0.2956 -0.5592 -0.5162
  643MOL0     C86675   6.623   5.284   2.365 -0.2246 -0.0733 -0.3512
  643MOL0     C86676   6.678   5.209   2.468  1.0937  1.3024 -1.0641
  643MOL0     C86677   6.670   5.068   2.466  0.7678  0.8031  0.0687
  643MOL0     O86678   6.724   4.985   2.555 -0.1684 -0.5017 -0.3628
  643MOL0     C86679   6.822   4.890   2.505  0.6797  0.1845  0.5220
  643MOL0     C86680   6.908   4.836   2.614 -0.2824  0.1914 -0.7963
  643MOL0     C86681   7.054   4.833   2.588 -1.3666  0.2604 -1.0830
  643MOL0     C86682   7.137   4.790   2.706  0.0054  0.8040  1.0057
  643MOL0     C86683   7.284   4.797   2.671  0.3218  0.0259 -0.2094
  643MOL0     C86684   7.349   4.928   2.624  0.2207 -0.0315 -0.0658
  643MOL0     C86685   7.489   4.907   2.565  0.6862  0.8834  0.2106
  643MOL0     C86686   7.545   5.031   2.499 -0.5944 -0.1408 -0.8886
  643MOL0     N86687   7.695   5.030   2.489  0.1711 -0.5468  0.5039
  643MOL0     C86688   7.778   4.923   2.472  0.0878  0.4351  0.0081
  643MOL0     C86689   7.898   4.973   2.436 -0.5658  0.5292  0.0164
  643MOL0     C86690   8.025   4.890   2.393  1.1194  0.3732 -0.4159
  643MOL0     C86691   8.008   4.801   2.258 -0.4158  0.1130  0.7300
  643MOL0     C86692   7.895   4.841   2.155 -0.4743  1.2740  1.0891
  643MOL0     C86693   7.932   4.981   2.101 -0.8212 -0.4718  0.2757
  643MOL0     O86694   7.873   5.007   1.973 -0.3297  0.6925 -0.6983
  643MOL0     C86695   7.929   5.103   1.890 -0.2702  0.1475  0.7562
  643MOL0     C86696   8.022   5.204   1.931 -0.2804  0.9877 -0.6810
  643MOL0     C86697   8.068   5.296   1.844 -0.3894  0.2402 -0.6071
  643MOL0     C86698   8.039   5.280   1.706  1.1026  0.1357  0.2217
  643MOL0     C86699   8.086   5.396   1.609 -0.6876  0.1625 -0.6434
  643MOL0     O86700   8.050   5.380   1.478 -0.2628 -0.2430  0.0366
  643MOL0     C86701   8.097   5.450   1.361  0.2242  0.4865  0.3033
  643MOL0     C86702   8.209   5.527   1.345 -0.1078 -0.4172 -0.6917
  643MOL0     C86703   8.238   5.599   1.230  0.5029  0.0620  0.4099
  643MOL0     C86704   8.135   5.620   1.136 -0.6388  0.9478  0.1301
  643MOL0     O86705   8.162   5.691   1.021 -0.1961  0.0023  0.2743
  643MOL0     C86706   8.171   5.611   0.909 -0.8773 -1.3201 -0.1679
  643MOL0     C86707   8.267   5.675   0.802 -0.1500 -0.0575  0.3065
  643MOL0     C86708   8.248   5.590   0.673 -0.2381 -0.7431 -0.4672
  643MOL0     C86709   8.324   5.460   0.676  0.5268  0.4318  0.0420
  643MOL0     C86710   8.269   5.368   0.567  0.3353  0.3533  1.2487
  643MOL0     C86711   8.337   5.230   0.574 -0.8056  0.2687  0.9022
  643MOL0     C86712   8.374   5.184   0.422 -0.1504 -0.2512  0.1217
  643MOL0     C86713   8.402   5.040   0.408  1.1637  0.7565  0.1227
  643MOL0    Cl86714   8.265   4.931   0.470 -0.0507  0.0180  0.0790
  643MOL0     C86715   8.026   5.531   1.140  0.3996 -0.2267 -0.5930
  643MOL0     C86716   8.005   5.452   1.247 -0.2443 -0.1558 -0.4733
  643MOL0     O86717   8.146   5.495   1.655  0.1201  0.0258  0.5592
  643MOL0     C86718   7.947   5.179   1.660  1.0844  0.0673 -0.1630
  643MOL0     C86719   7.897   5.094   1.754 -0.5052  1.2293 -0.1504
  643MOL0     N86720   7.896   5.111   2.447  0.3418  0.2764 -0.2582
  643MOL0     N86721   7.775   5.145   2.477  0.5574 -0.2519 -0.6607
  643MOL0     C86722   6.595   5.008   2.358  0.1367  0.2398  0.4556
  643MOL0     C86723   6.534   5.085   2.266  0.4761  0.5970  0.2778
  643MOL0     C86724   6.403   5.468   2.005  0.2552 -0.4217 -0.1798
  643MOL0     C86725   6.433   5.391   1.895 -0.1675  0.5163 -0.3767
  643MOL0     C86726   6.363   5.400   1.771  0.2287  0.3630 -0.4077
  643MOL0     C86727   6.281   5.500   1.744  0.8699  1.2187  1.1403
  643MOL0     O86728   6.220   5.492   1.620 -0.0547 -0.1224  0.0746
  643MOL0     C86729   6.149   5.610   1.567 -0.6086 -0.4141 -0.8059
  643MOL0     C86730   6.228   5.722   1.530  0.0236 -0.5755  0.0772
  643MOL0     C86731   6.320   5.698   1.406  0.5955  0.6973 -0.7393
  643MOL0     C86732   6.388   5.828   1.366  0.6932  0.1549 -0.0889
  643MOL0     C86733   6.303   5.932   1.317  0.6716  0.7537 -0.4527
  643MOL0     C86734   6.212   6.011   1.306 -0.0091 -0.0883 -0.7041
  643MOL0     C86735   6.252   5.589   1.848 -0.6123 -1.1582  0.0394
  643MOL0     C86736   6.312   5.579   1.979 -0.4650  0.5129  0.9603
  643MOL0     C86737   6.256   5.666   2.089 -0.0905 -0.2012 -0.6433
  643MOL0     H86738   6.647   5.390   2.366 -1.2947  0.2406  2.4311
  643MOL0     H86739   6.737   5.243   2.552 -1.2317  0.3132  1.1080
  643MOL0     H86740   6.757   4.809   2.469 -1.2510  0.6619  2.7741
  643MOL0     H86741   6.885   4.929   2.424  1.2750 -0.1443  0.8244
  643MOL0     H86742   6.870   4.737   2.642 -0.1041  1.1417  3.3942
  643MOL0     H86743   6.894   4.905   2.697  3.1802  1.5273 -1.1665
  643MOL0     H86744   7.076   4.939   2.574 -1.4138  0.7064  1.7251
  643MOL0     H86745   7.071   4.775   2.497  1.1585  0.4457 -0.7857
  643MOL0     H86746   7.120   4.861   2.788 -0.6158  1.4701  0.3203
  643MOL0     H86747   7.092   4.695   2.737 -1.6936  1.1509 -0.2527
  643MOL0     H86748   7.341   4.763   2.758 -1.3015  1.5174  1.5701
  643MOL0     H86749   7.299   4.730   2.587  0.1592  1.0766 -1.0938
  643MOL0     H86750   7.305   4.976   2.536  3.2529  1.9691 -0.6882
  643MOL0     H86751   7.348   5.001   2.705 -7.2073 -2.3211  2.7246
  643MOL0     H86752   7.482   4.840   2.479 -0.3510  1.0126  0.1776
  643MOL0     H86753   7.558   4.873   2.642  0.5100  0.4659  0.1854
  643MOL0     H86754   7.496   5.031   2.402 -0.1951 -0.7014 -1.0953
  643MOL0     H86755   7.515   5.119   2.556 -0.4321  1.4069 -3.0606
  643MOL0     H86756   7.757   4.817   2.470  1.3333  0.1752 -2.1444
  643MOL0     H86757   8.105   4.964   2.381  0.2990  1.1334 -1.2652
  643MOL0     H86758   8.055   4.815   2.468  2.3614  0.1182 -1.1449
  643MOL0     H86759   8.100   4.818   2.201 -1.8742 -0.8895 -2.1481
  643MOL0     H86760   8.013   4.693   2.271 -1.3922 -0.4663 -2.6720
  643MOL0     H86761   7.795   4.836   2.199 -1.0657 -2.4938 -0.2683
  643MOL0     H86762   7.884   4.777   2.067  0.6125  0.4605  1.5081
  643MOL0     H86763   8.041   4.992   2.091 -0.5626 -0.6439  2.4585
  643MOL0     H86764   7.895   5.064   2.162  2.6329  2.4214 -1.1877
  643MOL0     H86765   8.049   5.200   2.036  0.3768  0.2379 -0.8716
  643MOL0     H86766   8.130   5.384   1.861  0.6361 -0.3094 -1.4001
  643MOL0     H86767   8.272   5.531   1.433  2.7804 -1.1540 -2.6027
  643MOL0     H86768   8.332   5.653   1.226  1.2308 -0.9502  2.5870
  643MOL0     H86769   8.196   5.507   0.932 -0.3968 -1.7148 -2.3413
  643MOL0     H86770   8.067   5.615   0.876 -1.2938  2.1372  1.1571
  643MOL0     H86771   8.235   5.779   0.787  0.4434  0.0882  0.0442
  643MOL0     H86772   8.372   5.671   0.833  1.0144 -1.8772 -3.4216
  643MOL0     H86773   8.140   5.585   0.657 -1.8201  7.4949  2.7550
  643MOL0     H86774   8.281   5.654   0.591 -0.7543 -0.0094 -0.1079
  643MOL0     H86775   8.324   5.425   0.780 -1.6815 -2.2504 -0.7197
  643MOL0     H86776   8.432   5.465   0.658  0.4723  2.8003  0.0741
  643MOL0     H86777   8.291   5.406   0.467 -2.5780 -2.2653 -0.5669
  643MOL0     H86778   8.161   5.352   0.565  0.2787  0.6138  1.9308
  643MOL0     H86779   8.426   5.238   0.636  1.1341 -0.9001 -1.5802
  643MOL0     H86780   8.274   5.156   0.624  0.0050  0.3823  2.1321
  643MOL0     H86781   8.461   5.242   0.392 -2.3899  2.0072 -2.6452
  643MOL0     H86782   8.291   5.210   0.356 -2.1991  0.3171  2.7349
  643MOL0     H86783   8.406   5.012   0.302 -1.9524  1.5773 -0.3139
  643MOL0     H86784   8.500   5.019   0.452 -0.2175 -0.8982  2.6091
  643MOL0     H86785   7.953   5.540   1.060 -0.4556  2.3147  0.3775
  643MOL0     H86786   7.913   5.396   1.241 -1.9537  2.4175  0.3018
  643MOL0     H86787   7.915   5.163   1.558 -2.9989 -0.3942  0.9985
  643MOL0     H86788   7.835   5.011   1.721  0.3894 -0.2043  1.6058
  643MOL0     H86789   6.577   4.901   2.358 -0.4178  0.3248  0.8971
  643MOL0     H86790   6.474   5.036   2.189  0.8762  0.4594  0.0511
  643MOL0     H86791   6.505   5.311   1.908 -0.7105  0.0301 -0.3170
  643MOL0     H86792   6.382   5.325   1.695  1.0061 -2.1250  2.0253
  643MOL0     H86793   6.083   5.633   1.651 -0.8435 -1.7681 -0.5989
  643MOL0     H86794   6.081   5.572   1.490 -0.7414 -3.9381  0.8139
  643MOL0     H86795   6.297   5.756   1.609  0.0719  1.8058 -0.9095
  643MOL0     H86796   6.162   5.806   1.505  2.1970  0.6917 -1.7148
  643MOL0     H86797   6.259   5.655   1.326 -4.2607 -0.3564  3.0836
  643MOL0     H86798   6.400   5.629   1.434 -1.1400 -1.0308  0.2664
  643MOL0     H86799   6.443   5.877   1.446  0.3166 -2.1139  1.6644
  643MOL0     H86800   6.466   5.802   1.294 -0.9643 -1.6094 -1.3643
  643MOL0     H86801   6.146   6.094   1.321  0.1809  0.1021 -0.9091
  643MOL0     H86802   6.178   5.667   1.836 -0.6921 -1.4509 -1.5446
  643MOL0     H86803   6.216   5.607   2.172  2.9661  2.0034  2.7272
  643MOL0     H86804   6.337   5.728   2.129 -0.2316  0.6809 -1.6790
  643MOL0     H86805   6.184   5.731   2.039 -1.5840 -2.5810 -1.7316
  644MOL0     O86806   4.492   0.744   1.201  0.2487  0.3200 -0.0092
  644MOL0     C86807   4.459   0.816   1.108 -0.5124  0.2704 -0.5339
  644MOL0     O86808   4.336   0.837   1.065  0.0906  0.2638 -0.0752
  644MOL0     C86809   4.227   0.795   1.142 -0.1850  0.1871  0.1306
  644MOL0     C86810   4.225   0.742   1.280  0.3620  0.3426  0.1116
  644MOL0     C86811   4.101   0.686   1.333  0.0163 -0.1432 -0.2867
  644MOL0     C86812   3.990   0.702   1.256  0.7129  0.3046  0.7057
  644MOL0     O86813   3.864   0.676   1.317  0.4432  0.0473  0.2606
  644MOL0     C86814   3.854   0.560   1.382  0.2977 -0.1770  0.2901
  644MOL0     C86815   3.702   0.520   1.401 -0.1883  0.7333 -0.1002
  644MOL0     C86816   3.651   0.460   1.270  0.4814  0.8043  0.8711
  644MOL0     C86817   3.492   0.450   1.276  0.3892  0.1023  0.0765
  644MOL0     C86818   3.441   0.399   1.131  0.6509 -0.0405 -0.2921
  644MOL0     C86819   3.298   0.342   1.132  0.6374  0.7002 -1.1244
  644MOL0     C86820   3.181   0.430   1.176 -0.1896 -0.8650  0.1364
  644MOL0     C86821   3.156   0.565   1.096 -0.5737  0.5453 -1.3539
  644MOL0     N86822   3.102   0.539   0.963  0.2419  0.0353  0.2387
  644MOL0     C86823   3.172   0.535   0.851 -0.3332  0.2622 -0.0474
  644MOL0     C86824   3.086   0.487   0.753 -0.7382  0.0118  0.0305
  644MOL0     C86825   3.109   0.457   0.606  0.2502 -0.2223  0.1303
  644MOL0     C86826   3.045   0.318   0.562 -0.4404  0.4961  0.6459
  644MOL0     C86827   3.042   0.280   0.410 -1.1288  0.6937 -0.6533
  644MOL0     C86828   2.970   0.154   0.384 -0.2109  0.4310 -0.2227
  644MOL0     O86829   2.960   0.123   0.242  0.7049  1.0443 -0.5768
  644MOL0     C86830   2.907   0.003   0.215  0.8874  0.5350  0.2217
  644MOL0     C86831   2.773  -0.017   0.235  0.0499 -0.3273 -0.2826
  644MOL0     C86832   2.710  -0.134   0.184 -0.5931  0.1455 -0.0063
  644MOL0     C86833   2.791  -0.235   0.126  0.1164 -0.6022 -0.0744
  644MOL0     C86834   2.726  -0.373   0.093  0.6283 -0.2438 -0.4483
  644MOL0     O86835   2.779  -0.454  -0.002  0.1901  0.7643 -0.6443
  644MOL0     C86836   2.727  -0.582  -0.009 -0.7459 -0.4721 -0.2085
  644MOL0     C86837   2.806  -0.692   0.051  0.2915  0.1805  0.7643
  644MOL0     C86838   2.748  -0.820   0.043 -0.8390 -0.8255  0.0229
  644MOL0     C86839   2.622  -0.839  -0.022  0.1887 -0.5597 -0.1738
  644MOL0     O86840   2.564  -0.964  -0.001  0.4577  0.0530  0.3575
  644MOL0     C86841   2.424  -0.974  -0.005 -0.0500  0.2439 -0.4572
  644MOL0     C86842   2.374  -0.912   0.128 -0.3564  0.1970  0.3732
  644MOL0     C86843   2.244  -0.969   0.178 -0.3193 -0.5068 -0.3931
  644MOL0     C86844   2.241  -0.981   0.331 -0.6494  0.2684  0.3769
  644MOL0     C86845   2.107  -1.050   0.380  0.2179 -0.0119 -0.0280
  644MOL0     C86846   2.109  -1.207   0.368 -0.3013  0.2883 -0.0740
  644MOL0     C86847   1.996  -1.274   0.449  0.9664  0.5847 -0.0674
  644MOL0     C86848   1.988  -1.419   0.390 -0.6192  0.8166  0.6367
  644MOL0    Cl86849   2.136  -1.523   0.409  0.0106 -0.0591 -0.0490
  644MOL0     C86850   2.563  -0.726  -0.099 -0.9049  1.2508  0.4438
  644MOL0     C86851   2.622  -0.602  -0.091  0.0727 -0.3536 -0.2009
  644MOL0     O86852   2.625  -0.402   0.160  0.8420 -0.3242 -0.2519
  644MOL0     C86853   2.927  -0.215   0.096  0.3996 -0.0088 -0.2565
  644MOL0     C86854   2.980  -0.099   0.150  0.1225  0.4244 -0.4543
  644MOL0     N86855   2.960   0.470   0.817  0.6955 -0.1937  1.3788
  644MOL0     N86856   2.971   0.514   0.931  0.3972 -0.1024 -1.2534
  644MOL0     C86857   3.985   0.760   1.126  0.0218  0.3550 -0.6433
  644MOL0     C86858   4.105   0.799   1.064  0.2354 -0.4616  1.0975
  644MOL0     C86859   4.576   0.866   1.031 -0.4607  0.0968 -1.2555
  644MOL0     C86860   4.693   0.888   1.107 -0.0067 -0.4690 -1.0584
  644MOL0     C86861   4.804   0.948   1.049  0.2530 -0.5968  0.3518
  644MOL0     C86862   4.808   0.977   0.918  0.6812  0.1714  0.7319
  644MOL0     O86863   4.924   1.029   0.871 -0.3842 -0.0123  0.7939
  644MOL0     C86864   4.933   1.092   0.748  0.3368 -0.6384  0.4410
  644MOL0     C86865   4.991   1.011   0.633  0.1283  0.0879 -0.1885
  644MOL0     C86866   5.125   0.939   0.673 -1.0825  0.4094 -0.1295
  644MOL0     C86867   5.160   0.853   0.546  0.2559 -0.0595 -0.0486
  644MOL0     C86868   5.299   0.810   0.549 -0.5616 -0.5022 -0.9706
  644MOL0     C86869   5.403   0.764   0.575  0.4246  0.0018 -0.3794
  644MOL0     C86870   4.695   0.952   0.836 -0.4465  0.8745 -0.7073
  644MOL0     C86871   4.583   0.879   0.885  0.2879  0.3213 -0.0347
  644MOL0     C86872   4.458   0.847   0.808 -0.1613 -0.4046 -0.3850
  644MOL0     H86873   4.314   0.744   1.342  1.2494 -0.4087 -1.0997
  644MOL0     H86874   4.087   0.648   1.434  2.1919  0.3750  0.2538
  644MOL0     H86875   3.894   0.473   1.329  1.6673 -0.2128  1.3216
  644MOL0     H86876   3.904   0.546   1.478  2.3138 -4.1452 -1.0927
  644MOL0     H86877   3.647   0.611   1.427  1.6376  2.0278 -0.5810
  644MOL0     H86878   3.674   0.446   1.476 -4.4256  1.6237 -0.5007
  644MOL0     H86879   3.707   0.367   1.263  0.7665  0.9294  1.4516
  644MOL0     H86880   3.670   0.513   1.176  0.1864 -0.9007 -0.1768
  644MOL0     H86881   3.462   0.389   1.362 -1.0005  2.8058  1.6509
  644MOL0     H86882   3.458   0.554   1.284 -0.8883 -0.4047  1.7555
  644MOL0     H86883   3.451   0.473   1.051  1.5444 -1.4115 -1.4956
  644MOL0     H86884   3.505   0.315   1.102 -0.8154 -1.1780 -0.3037
  644MOL0     H86885   3.270   0.314   1.030  0.1645  1.9398 -1.3517
  644MOL0     H86886   3.294   0.253   1.196  0.7576  2.5015  1.5169
  644MOL0     H86887   3.190   0.453   1.283 -0.1630  2.0206 -0.4017
  644MOL0     H86888   3.086   0.377   1.165 -2.0777  1.5847  2.9442
  644MOL0     H86889   3.095   0.630   1.160 -1.0256  2.1948 -3.3735
  644MOL0     H86890   3.251   0.619   1.090 -0.6818  1.4829  2.6390
  644MOL0     H86891   3.266   0.583   0.829 -0.4214  0.1397 -0.6975
  644MOL0     H86892   3.077   0.539   0.542  2.1944  2.5463  2.4539
  644MOL0     H86893   3.218   0.447   0.596  0.0535 -0.2334 -3.1613
  644MOL0     H86894   3.092   0.236   0.616 -0.0980  1.2519  1.5063
  644MOL0     H86895   2.941   0.327   0.596  0.1519  0.9958  2.4217
  644MOL0     H86896   3.146   0.268   0.381 -0.4056 -0.6206  2.1426
  644MOL0     H86897   2.993   0.359   0.352  0.5524 -0.0036 -3.1626
  644MOL0     H86898   2.869   0.166   0.425  0.2657 -0.4965  1.3031
  644MOL0     H86899   3.018   0.067   0.428 -0.7190 -0.3415 -1.1506
  644MOL0     H86900   2.718   0.066   0.277  0.6844  0.7952 -1.5886
  644MOL0     H86901   2.603  -0.143   0.196 -0.4108 -1.4194  0.7811
  644MOL0     H86902   2.891  -0.672   0.115  1.9489 -3.1321 -0.1778
  644MOL0     H86903   2.808  -0.902   0.081  0.2535  0.3285  0.8816
  644MOL0     H86904   2.375  -0.930  -0.093 -2.8958 -2.1240 -0.2221
  644MOL0     H86905   2.398  -1.080  -0.008  2.4078 -0.3904 -0.6339
  644MOL0     H86906   2.443  -0.926   0.211 -1.7151  0.4284  1.5739
  644MOL0     H86907   2.360  -0.804   0.114  1.0814  0.5556  1.5090
  644MOL0     H86908   2.168  -0.895   0.151 -0.1049 -0.4425 -0.8324
  644MOL0     H86909   2.217  -1.068   0.139 -0.8836 -0.3350 -0.4390
  644MOL0     H86910   2.236  -0.875   0.356 -0.9129  0.2876  0.2544
  644MOL0     H86911   2.332  -1.027   0.370  1.0661  2.4011 -0.8870
  644MOL0     H86912   2.016  -1.010   0.334 -1.6821 -1.3579  2.3005
  644MOL0     H86913   2.092  -1.035   0.488 -0.9689  0.5316 -0.2548
  644MOL0     H86914   2.102  -1.227   0.261  0.7801  0.3020 -0.1663
  644MOL0     H86915   2.197  -1.250   0.417 -1.1570 -2.6301 -0.9008
  644MOL0     H86916   1.897  -1.228   0.443 -0.0815 -1.7248 -2.1045
  644MOL0     H86917   2.028  -1.277   0.554  3.1421 -1.1374 -0.7032
  644MOL0     H86918   1.911  -1.480   0.438  0.3436 -1.2597 -0.3124
  644MOL0     H86919   1.972  -1.419   0.282 -0.5653  3.8085  0.5600
  644MOL0     H86920   2.469  -0.733  -0.152 -1.0231  1.3791  0.6305
  644MOL0     H86921   2.583  -0.513  -0.141 -2.6233 -0.3430  1.6718
  644MOL0     H86922   2.984  -0.295   0.050 -2.5800 -1.6701 -1.2518
  644MOL0     H86923   3.079  -0.073   0.116  0.7154 -3.0193 -1.7413
  644MOL0     H86924   3.884   0.785   1.093 -0.7553  0.4018  1.5787
  644MOL0     H86925   4.104   0.825   0.958  0.4035 -2.2228  0.6258
  644MOL0     H86926   4.689   0.865   1.213  3.5056 -0.1648 -0.7475
  644MOL0     H86927   4.893   0.959   1.110  0.7228  0.6668 -0.5300
  644MOL0     H86928   4.995   1.182   0.760  1.4078 -0.9388 -2.1151
  644MOL0     H86929   4.836   1.137   0.722  2.0559  2.7492 -0.7664
  644MOL0     H86930   5.008   1.072   0.544  3.4505 -1.1786 -0.5602
  644MOL0     H86931   4.920   0.940   0.592  0.4169  0.5576 -1.5495
  644MOL0     H86932   5.113   0.866   0.753 -3.4872  2.3224  1.4090
  644MOL0     H86933   5.210   1.003   0.696 -0.7638  0.3966 -1.2185
  644MOL0     H86934   5.090   0.769   0.544  0.5366 -0.2992 -1.6488
  644MOL0     H86935   5.147   0.910   0.453  5.4875 -0.7316 -1.5262
  644MOL0     H86936   5.492   0.709   0.596  1.5288  1.6869 -0.4609
  644MOL0     H86937   4.687   0.973   0.730 -0.2169 -1.6933 -1.2843
  644MOL0     H86938   4.412   0.751   0.832 -0.5570 -0.7164 -2.2733
  644MOL0     H86939   4.384   0.928   0.819  0.1616 -0.1197 -0.2724
  644MOL0     H86940   4.481   0.844   0.701 -1.1158  2.1321 -0.7537
  645MOL0     O86941   3.042   8.030   6.361  0.3319  0.7682 -0.4336
  645MOL0     C86942   3.116   7.929   6.362 -0.4100 -0.8107  0.0124
  645MOL0     O86943   3.231   7.913   6.288  0.3225  0.3295 -0.4769
  645MOL0     C86944   3.276   8.028   6.218  0.0784  0.3223  0.9815
  645MOL0     C86945   3.207   8.084   6.109 -0.6116  1.0601 -0.0426
  645MOL0     C86946   3.259   8.193   6.043 -0.2583  0.8625  0.3047
  645MOL0     C86947   3.374   8.256   6.081  0.6686 -0.4155  0.9486
  645MOL0     O86948   3.412   8.369   6.008  0.2335  0.0689  0.5622
  645MOL0     C86949   3.425   8.364   5.863  0.2791  0.4878 -0.9259
  645MOL0     C86950   3.413   8.494   5.785  0.7406  0.1015  0.7046
  645MOL0     C86951   3.454   8.623   5.860 -1.1412 -0.0235 -0.1251
  645MOL0     C86952   3.446   8.752   5.779  0.5918 -0.0487 -0.8625
  645MOL0     C86953   3.516   8.870   5.846  0.1722  0.4709 -1.2516
  645MOL0     C86954   3.474   8.886   5.998 -0.1469 -0.6853  0.6278
  645MOL0     C86955   3.536   9.019   6.055 -0.5378  0.1081 -0.2972
  645MOL0     C86956   3.680   8.997   6.097 -0.7830  0.5608 -0.5563
  645MOL0     N86957   3.751   9.111   6.159  0.2942  1.8075 -1.3015
  645MOL0     C86958   3.822   9.200   6.087 -0.4697  0.4592 -0.2260
  645MOL0     C86959   3.862   9.288   6.179  0.0409  0.1975  0.7568
  645MOL0     C86960   3.959   9.399   6.148 -0.5048  0.9772  0.1548
  645MOL0     C86961   4.099   9.347   6.181  1.2449 -0.2443  0.6658
  645MOL0     C86962   4.124   9.300   6.320 -0.2239  0.8967 -0.3021
  645MOL0     C86963   4.256   9.228   6.333 -1.3562 -1.1049 -0.7715
  645MOL0     O86964   4.368   9.320   6.312 -0.0358 -0.1320  0.3203
  645MOL0     C86965   4.399   9.436   6.380  0.7884  0.1016  0.0281
  645MOL0     C86966   4.482   9.533   6.318 -0.4576 -1.0964  0.1613
  645MOL0     C86967   4.531   9.647   6.393  0.3242  0.3063  0.4264
  645MOL0     C86968   4.488   9.678   6.524  0.2904  0.3423 -0.3678
  645MOL0     C86969   4.548   9.783   6.601  0.5203  0.9853 -0.5566
  645MOL0     O86970   4.629   9.882   6.547 -0.1445 -0.0691  0.7752
  645MOL0     C86971   4.646  10.008   6.609  0.5911 -0.8174 -0.5741
  645MOL0     C86972   4.542  10.098   6.647  0.2072 -0.1842 -0.0984
  645MOL0     C86973   4.574  10.225   6.696 -0.5590  0.4167 -0.1989
  645MOL0     C86974   4.709  10.261   6.699 -0.4850 -0.4337  0.1345
  645MOL0     O86975   4.750  10.385   6.730 -0.2977  0.6077 -0.8129
  645MOL0     C86976   4.680  10.476   6.815 -0.0975  0.7377 -0.8484
  645MOL0     C86977   4.770  10.580   6.858  0.4774 -0.6263 -0.4987
  645MOL0     C86978   4.828  10.669   6.744  0.9031  0.3294 -0.5041
  645MOL0     C86979   4.914  10.772   6.810  0.1232  0.0481 -0.3664
  645MOL0     C86980   4.939  10.905   6.737 -0.0554 -0.0998 -1.3508
  645MOL0     C86981   5.030  10.908   6.621  0.3021 -0.2105  0.3564
  645MOL0     C86982   5.183  10.872   6.674  0.6746  0.4355 -0.1654
  645MOL0     C86983   5.236  10.974   6.778 -0.0940  0.9542  0.1097
  645MOL0    Cl86984   5.246  11.130   6.701 -0.3385 -0.1393 -0.1170
  645MOL0     C86985   4.814  10.168   6.672  0.5943  1.2554  0.3010
  645MOL0     C86986   4.777  10.039   6.630 -0.6049  0.1476 -0.3645
  645MOL0     O86987   4.501   9.789   6.715  0.1285 -0.4881 -0.9589
  645MOL0     C86988   4.395   9.588   6.579 -0.1252 -0.2457  0.6827
  645MOL0     C86989   4.349   9.474   6.510 -0.7752 -0.9621  0.1860
  645MOL0     N86990   3.805   9.257   6.303  0.3168  0.2737  1.0301
  645MOL0     N86991   3.746   9.146   6.289  0.4744  0.6240 -1.1398
  645MOL0     C86992   3.449   8.206   6.181 -0.3099 -0.1319 -0.2618
  645MOL0     C86993   3.404   8.088   6.246  0.2145 -0.5481  0.1192
  645MOL0     C86994   3.095   7.832   6.473  0.4433  0.0180 -0.3116
  645MOL0     C86995   3.201   7.746   6.497 -0.0278  0.1185  0.2064
  645MOL0     C86996   3.205   7.658   6.602  0.8093 -0.0161 -0.4143
  645MOL0     C86997   3.092   7.641   6.686  0.0623 -0.3293 -0.2864
  645MOL0     O86998   3.071   7.552   6.784 -0.1766  0.3231 -0.2397
  645MOL0     C86999   3.026   7.434   6.723  0.3310  0.2524 -0.6900
  645MOL0     C87000   2.977   7.339   6.830  0.5562  0.2201  0.2280
  645MOL0     C87001   2.850   7.381   6.906  0.6895  0.8716  1.4336
  645MOL0     C87002   2.854   7.295   7.042  0.1846 -1.0737  0.9861
  645MOL0     C87003   2.761   7.360   7.133 -0.4724  0.0451 -0.0133
  645MOL0     C87004   2.689   7.401   7.216 -0.4799  0.5471  0.1706
  645MOL0     C87005   2.979   7.721   6.663 -0.3534  0.3055 -0.3286
  645MOL0     C87006   2.979   7.815   6.559 -1.0904 -0.2127  0.4465
  645MOL0     C87007   2.853   7.892   6.541  0.0936  0.3953 -0.2292
  645MOL0     H87008   3.107   8.054   6.080 -0.5762 -1.1451  1.9099
  645MOL0     H87009   3.198   8.216   5.956 -0.8713  1.2363  0.8263
  645MOL0     H87010   3.523   8.318   5.844 -0.6942 -1.6649 -1.0819
  645MOL0     H87011   3.352   8.305   5.807 -1.4585  3.4645 -2.0273
  645MOL0     H87012   3.307   8.503   5.761  0.0026  1.3642  3.8749
  645MOL0     H87013   3.472   8.481   5.694  0.1567  1.3807  0.1173
  645MOL0     H87014   3.563   8.618   5.869 -1.1305  0.6581  0.2186
  645MOL0     H87015   3.410   8.633   5.960  1.1521  1.4319  0.8295
  645MOL0     H87016   3.485   8.744   5.677  0.0165  0.4961 -1.1298
  645MOL0     H87017   3.341   8.783   5.777  0.4143  0.0813  2.8233
  645MOL0     H87018   3.620   8.843   5.826  0.5727  0.5622  0.5530
  645MOL0     H87019   3.495   8.968   5.800  3.0792  2.5862  1.5107
  645MOL0     H87020   3.366   8.887   6.012 -0.0293 -2.0422  1.9478
  645MOL0     H87021   3.508   8.801   6.058  0.1939  0.7937  2.6501
  645MOL0     H87022   3.485   9.046   6.148 -4.4295 -1.3865 -1.7687
  645MOL0     H87023   3.521   9.103   5.987 -1.9063  1.0805  1.1374
  645MOL0     H87024   3.684   8.919   6.174  2.0200  3.3836  2.4875
  645MOL0     H87025   3.740   8.953   6.017  1.6348  2.0566  0.3158
  645MOL0     H87026   3.871   9.194   5.991  1.7323  2.4193  0.6818
  645MOL0     H87027   3.950   9.430   6.044 -0.1504 -3.1064 -1.2961
  645MOL0     H87028   3.930   9.475   6.220  0.8234  0.0394  1.7537
  645MOL0     H87029   4.134   9.280   6.101  3.0136 -0.2373  1.3830
  645MOL0     H87030   4.153   9.441   6.167 -0.5826  0.4707 -2.7277
  645MOL0     H87031   4.050   9.225   6.349  1.1842 -2.6188 -4.7308
  645MOL0     H87032   4.123   9.382   6.393  3.8599  0.8450  0.0505
  645MOL0     H87033   4.265   9.142   6.265  0.5353 -2.9553  1.6444
  645MOL0     H87034   4.259   9.193   6.436 -1.7323  1.0345  0.0205
  645MOL0     H87035   4.511   9.536   6.214 -0.8111 -1.9705  0.0306
  645MOL0     H87036   4.602   9.712   6.343  2.0847 -1.4475  0.5456
  645MOL0     H87037   4.439  10.078   6.623  0.1173 -1.6634  1.3027
  645MOL0     H87038   4.495  10.291   6.729 -0.5163 -0.5665  2.0838
  645MOL0     H87039   4.588  10.519   6.774 -0.7991  1.3970  1.3105
  645MOL0     H87040   4.656  10.418   6.904 -0.4226 -0.7724 -1.8648
  645MOL0     H87041   4.707  10.639   6.925 -0.8069 -1.2615 -1.1110
  645MOL0     H87042   4.855  10.541   6.914 -0.2416 -0.8685  0.4562
  645MOL0     H87043   4.882  10.606   6.673  2.1304  1.1455 -0.3487
  645MOL0     H87044   4.752  10.713   6.680  0.2385 -1.0531 -0.6833
  645MOL0     H87045   5.010  10.726   6.836  1.7958  3.0622 -0.7170
  645MOL0     H87046   4.872  10.799   6.907  0.4698 -0.8849  0.0538
  645MOL0     H87047   4.974  10.978   6.811 -1.0922 -2.5762  1.7981
  645MOL0     H87048   4.845  10.933   6.689 -1.9432 -3.8448 -0.2545
  645MOL0     H87049   4.992  10.838   6.546 -1.6914  2.4841 -1.2951
  645MOL0     H87050   5.036  11.008   6.577  1.6917 -1.3170 -2.2094
  645MOL0     H87051   5.245  10.857   6.585 -0.0374 -2.1311 -0.3233
  645MOL0     H87052   5.188  10.776   6.727 -1.4296  1.4364  2.0506
  645MOL0     H87053   5.169  10.968   6.864  0.4684 -2.4366  0.4453
  645MOL0     H87054   5.335  10.945   6.814  0.1641  1.9000  0.1843
  645MOL0     H87055   4.919  10.188   6.694  2.3402 -1.7538 -3.8662
  645MOL0     H87056   4.848   9.960   6.609  0.6718  0.6887  1.7122
  645MOL0     H87057   4.350   9.603   6.676 -2.1435 -3.8035  0.4988
  645MOL0     H87058   4.293   9.400   6.567  2.4730 -3.4351  0.4895
  645MOL0     H87059   3.552   8.233   6.202  1.6031 -3.8887 -3.4646
  645MOL0     H87060   3.445   8.035   6.332 -3.1034 -1.7251  1.1239
  645MOL0     H87061   3.295   7.747   6.443 -0.1595  0.8496 -0.0238
  645MOL0     H87062   3.292   7.596   6.620  1.1409 -0.2944 -2.6735
  645MOL0     H87063   3.112   7.385   6.677 -0.0597  0.5544 -1.7595
  645MOL0     H87064   2.953   7.447   6.642  2.1544 -1.3261 -2.7182
  645MOL0     H87065   3.056   7.334   6.906  0.2249 -1.1940  0.5120
  645MOL0     H87066   2.961   7.237   6.792 -2.3582  0.6138  0.1817
  645MOL0     H87067   2.757   7.360   6.852  1.6257  0.8878 -0.2747
  645MOL0     H87068   2.848   7.490   6.920 -1.5664  1.5447 -2.5227
  645MOL0     H87069   2.838   7.188   7.024  0.0552 -0.4905 -3.3272
  645MOL0     H87070   2.949   7.302   7.096 -0.0959  0.0794  1.3457
  645MOL0     H87071   2.617   7.421   7.294 -0.8251  1.5896 -0.3880
  645MOL0     H87072   2.900   7.723   6.738 -3.1197  1.2661 -3.0804
  645MOL0     H87073   2.796   7.861   6.453  0.6143 -3.1665  0.5597
  645MOL0     H87074   2.801   7.869   6.635  3.3981  2.8834  2.4879
  645MOL0     H87075   2.863   8.001   6.529  3.4105  0.1682 -0.5266
  646MOL0     O87076   4.322   0.297   9.755  0.0548  0.3671  0.3785
  646MOL0     C87077   4.296   0.255   9.868  0.2470  0.1071 -0.5956
  646MOL0     O87078   4.284   0.127   9.900 -0.4156  0.1296 -0.0033
  646MOL0     C87079   4.290   0.035   9.803 -0.2889  0.8459 -0.5969
  646MOL0     C87080   4.415  -0.030   9.806  0.7255 -0.2508  0.3510
  646MOL0     C87081   4.449  -0.131   9.718  1.1805 -0.9740  0.1834
  646MOL0     C87082   4.355  -0.183   9.625 -0.2537  0.2157  0.1793
  646MOL0     O87083   4.389  -0.294   9.549  0.3573  0.2830 -0.9274
  646MOL0     C87084   4.280  -0.388   9.533 -0.3236 -0.1037  0.2852
  646MOL0     C87085   4.342  -0.532   9.509 -0.1066  0.8353  0.2036
  646MOL0     C87086   4.232  -0.631   9.500  1.2466 -0.2586  0.3584
  646MOL0     C87087   4.290  -0.762   9.444  0.3366 -0.2153  0.2560
  646MOL0     C87088   4.202  -0.886   9.461  0.1416 -0.2471  0.4216
  646MOL0     C87089   4.254  -1.016   9.385 -0.2497  0.1635 -0.9094
  646MOL0     C87090   4.181  -1.136   9.432 -0.8531 -0.6721 -0.5327
  646MOL0     C87091   4.251  -1.263   9.359  0.3913 -0.1965 -0.4199
  646MOL0     N87092   4.221  -1.386   9.438  0.6171 -0.2620  1.2505
  646MOL0     C87093   4.135  -1.479   9.402  0.0523 -0.5703 -0.0946
  646MOL0     C87094   4.101  -1.550   9.509 -0.7941 -0.2718 -0.7241
  646MOL0     C87095   4.013  -1.675   9.503 -0.1854  0.1012 -1.1694
  646MOL0     C87096   3.887  -1.663   9.604  0.8426  0.0165 -1.2632
  646MOL0     C87097   3.833  -1.798   9.629  1.1010  0.4734 -0.0467
  646MOL0     C87098   3.802  -1.872   9.500  0.0063  0.0717 -0.0791
  646MOL0     O87099   3.680  -1.825   9.438  0.2889 -0.3610 -0.0467
  646MOL0     C87100   3.564  -1.897   9.436  0.5056 -0.1402  0.0793
  646MOL0     C87101   3.447  -1.846   9.492  0.1657  0.0258 -0.6320
  646MOL0     C87102   3.339  -1.921   9.490 -0.0666  0.5029 -0.0033
  646MOL0     C87103   3.332  -2.042   9.419  0.8047  0.0789 -0.5117
  646MOL0     C87104   3.215  -2.124   9.406  0.2820  0.7593 -0.5011
  646MOL0     O87105   3.211  -2.197   9.296  0.3389  0.0751  0.1561
  646MOL0     C87106   3.099  -2.277   9.271 -0.2919  0.7396 -0.8036
  646MOL0     C87107   2.965  -2.252   9.306  0.2932  0.6508  0.5391
  646MOL0     C87108   2.862  -2.349   9.286 -0.1804  0.4790  0.9649
  646MOL0     C87109   2.894  -2.476   9.230  0.3111 -0.6679 -0.5607
  646MOL0     O87110   2.783  -2.559   9.197  0.0778  0.1627  0.2496
  646MOL0     C87111   2.723  -2.513   9.070 -0.1086  0.3675 -0.8250
  646MOL0     C87112   2.608  -2.592   9.039  0.4809  0.9841  0.0079
  646MOL0     C87113   2.541  -2.571   8.902  0.1013 -0.3982 -0.2526
  646MOL0     C87114   2.507  -2.432   8.877 -0.9862 -0.2120  0.2124
  646MOL0     C87115   2.401  -2.430   8.774 -0.4559  0.2629 -0.2244
  646MOL0     C87116   2.336  -2.290   8.777  0.3750 -1.6860  0.0240
  646MOL0     C87117   2.223  -2.286   8.670 -0.1745  0.1006 -0.4392
  646MOL0     C87118   2.278  -2.283   8.524  0.3471 -0.5724 -0.7324
  646MOL0    Cl87119   2.127  -2.273   8.424  0.0382  0.7476 -0.1476
  646MOL0     C87120   3.021  -2.503   9.199 -0.5129  0.8975 -0.9297
  646MOL0     C87121   3.126  -2.416   9.229 -0.2827 -1.2117 -0.2356
  646MOL0     O87122   3.133  -2.124   9.500 -0.0692 -0.6123  0.4528
  646MOL0     C87123   3.443  -2.088   9.357 -0.0218 -0.3402 -0.5041
  646MOL0     C87124   3.564  -2.014   9.355 -0.5357  0.0812  0.2828
  646MOL0     N87125   4.179  -1.506   9.616  0.6115  0.0108  0.2063
  646MOL0     N87126   4.254  -1.415   9.558  0.3334 -0.2124 -0.2378
  646MOL0     C87127   4.230  -0.115   9.615 -0.7140  0.9239 -0.3849
  646MOL0     C87128   4.203  -0.007   9.699  0.0933 -0.4671 -1.0714
  646MOL0     C87129   4.258   0.351   9.974 -0.4690  0.4580  0.9830
  646MOL0     C87130   4.150   0.439   9.952 -0.4952  0.6155  0.5502
  646MOL0     C87131   4.099   0.525  10.047 -0.0713  0.4276 -0.2663
  646MOL0     C87132   4.174   0.533  10.160  0.6105 -0.3670 -0.9532
  646MOL0     O87133   4.129   0.631  10.252 -0.6693  0.1026  0.7477
  646MOL0     C87134   4.160   0.625  10.394 -0.1471  0.1287  0.4101
  646MOL0     C87135   4.251   0.731  10.443  0.7365  0.1326  0.1816
  646MOL0     C87136   4.405   0.708  10.433  0.2475 -0.1291 -0.4805
  646MOL0     C87137   4.475   0.832  10.490 -0.2129  0.0377 -0.5951
  646MOL0     C87138   4.611   0.851  10.445 -1.1227 -0.4324  0.5405
  646MOL0     C87139   4.726   0.857  10.400  1.5452 -0.3147  0.5114
  646MOL0     C87140   4.283   0.454  10.190  0.4860 -0.2245 -0.2993
  646MOL0     C87141   4.320   0.366  10.095 -0.0647 -0.1931  0.1151
  646MOL0     C87142   4.441   0.278  10.135  0.4186  0.3344 -0.1098
  646MOL0     H87143   4.477   0.009   9.887  3.4040  1.8017 -2.4353
  646MOL0     H87144   4.552  -0.164   9.723  1.8699  1.1272  0.8865
  646MOL0     H87145   4.221  -0.397   9.625 -1.6689 -1.2832 -0.6432
  646MOL0     H87146   4.213  -0.369   9.448 -0.4660  1.5828  0.7334
  646MOL0     H87147   4.420  -0.543   9.585 -0.2874  0.3469  0.3223
  646MOL0     H87148   4.396  -0.526   9.414 -0.4692  1.1371  0.0164
  646MOL0     H87149   4.143  -0.604   9.442 -1.5756 -0.4945  4.1520
  646MOL0     H87150   4.196  -0.643   9.603 -0.7965 -2.2406 -0.4817
  646MOL0     H87151   4.317  -0.737   9.342  2.5606 -0.2899  0.7880
  646MOL0     H87152   4.388  -0.781   9.487  0.5805  1.1210  0.3388
  646MOL0     H87153   4.211  -0.917   9.566  0.9074 -0.6046  0.2569
  646MOL0     H87154   4.096  -0.870   9.440  0.7201  0.6999 -2.0136
  646MOL0     H87155   4.245  -1.012   9.276 -0.9380 -0.5182 -0.8889
  646MOL0     H87156   4.352  -1.040   9.426 -1.7586 -1.1995  2.2790
  646MOL0     H87157   4.072  -1.138   9.419 -0.9683 -4.3779 -0.0732
  646MOL0     H87158   4.199  -1.132   9.540  0.7588  2.7936 -0.8211
  646MOL0     H87159   4.211  -1.260   9.257 -1.1139 -0.1965  0.1566
  646MOL0     H87160   4.360  -1.256   9.352  0.2896  0.8676 -1.1235
  646MOL0     H87161   4.102  -1.493   9.300 -2.6922  1.3221  0.4153
  646MOL0     H87162   3.966  -1.682   9.404 -0.7633 -1.4037 -0.8099
  646MOL0     H87163   4.082  -1.756   9.527 -0.9497 -0.1358  0.3090
  646MOL0     H87164   3.928  -1.631   9.700  1.2899 -2.7180 -0.4534
  646MOL0     H87165   3.806  -1.595   9.575  1.1129  0.7351 -0.3890
  646MOL0     H87166   3.752  -1.800   9.703  1.7772  2.2592  0.8140
  646MOL0     H87167   3.920  -1.843   9.676  2.3503  4.0156  1.3986
  646MOL0     H87168   3.800  -1.979   9.525  0.4082  0.0629 -0.0640
  646MOL0     H87169   3.879  -1.864   9.422 -1.3010  0.4813 -1.3824
  646MOL0     H87170   3.442  -1.758   9.555 -6.0991 -0.5835  0.3736
  646MOL0     H87171   3.254  -1.879   9.542 -1.0032  0.4354 -1.4213
  646MOL0     H87172   2.935  -2.157   9.350 -3.4281  0.0558 -0.3381
  646MOL0     H87173   2.764  -2.337   9.331  1.0667  0.5432  3.8719
  646MOL0     H87174   2.697  -2.406   9.069 -1.8940 -0.0200  0.3946
  646MOL0     H87175   2.800  -2.524   8.993  0.3696  0.6596 -0.3889
  646MOL0     H87176   2.626  -2.700   9.040 -2.7324  0.3166  2.8697
  646MOL0     H87177   2.538  -2.568   9.119 -1.2252 -0.7239 -0.8900
  646MOL0     H87178   2.599  -2.601   8.814 -1.7045  0.7842 -1.9415
  646MOL0     H87179   2.451  -2.633   8.909  1.3859 -2.4603 -1.1188
  646MOL0     H87180   2.594  -2.376   8.842 -1.3864  1.2570  1.4473
  646MOL0     H87181   2.467  -2.379   8.964 -1.4117  0.3569 -0.3120
  646MOL0     H87182   2.324  -2.502   8.799 -0.5457 -0.5068 -2.4898
  646MOL0     H87183   2.444  -2.459   8.678  2.1132 -0.5763  1.0828
  646MOL0     H87184   2.293  -2.268   8.875 -0.0838 -0.0800 -0.5081
  646MOL0     H87185   2.409  -2.214   8.749 -1.8811  0.8704  0.6948
  646MOL0     H87186   2.162  -2.196   8.685  1.9922  1.9318 -1.7775
  646MOL0     H87187   2.152  -2.367   8.685 -1.2357  1.5510  4.1283
  646MOL0     H87188   2.339  -2.197   8.498 -0.4805  0.4645  0.5900
  646MOL0     H87189   2.324  -2.378   8.497  0.1695 -0.6498 -0.7692
  646MOL0     H87190   3.046  -2.605   9.173  1.8669  1.1518  0.1186
  646MOL0     H87191   3.233  -2.434   9.217  0.9753  2.8994  2.4879
  646MOL0     H87192   3.441  -2.188   9.314  3.4312 -1.3407  1.3148
  646MOL0     H87193   3.654  -2.048   9.306 -0.5489  0.9165 -0.3424
  646MOL0     H87194   4.158  -0.156   9.544  0.9881 -2.0495 -0.5893
  646MOL0     H87195   4.105   0.038   9.695 -0.0959 -0.8746 -1.0279
  646MOL0     H87196   4.096   0.431   9.858 -1.5854  1.1036  1.1181
  646MOL0     H87197   4.003   0.571  10.023  0.6104  1.5626 -0.9245
  646MOL0     H87198   4.194   0.530  10.437 -1.1455 -0.6946 -0.5416
  646MOL0     H87199   4.055   0.627  10.427 -2.0949  0.7412 -4.8819
  646MOL0     H87200   4.225   0.741  10.549 -3.2652  1.5621 -0.7579
  646MOL0     H87201   4.214   0.830  10.415 -2.2741 -0.7171  0.8094
  646MOL0     H87202   4.436   0.696  10.329  2.0611 -0.8414  0.1001
  646MOL0     H87203   4.421   0.621  10.497 -0.6678 -1.5409 -2.0834
  646MOL0     H87204   4.424   0.923  10.459  0.5465  0.8789  0.5491
  646MOL0     H87205   4.474   0.826  10.599 -1.3804 -1.1025 -0.6377
  646MOL0     H87206   4.823   0.843  10.358  0.6190 -0.8420 -1.5850
  646MOL0     H87207   4.350   0.463  10.274  1.8780  0.4109 -1.4296
  646MOL0     H87208   4.481   0.304  10.234 -1.1197  0.3473  0.5381
  646MOL0     H87209   4.409   0.174  10.140  2.3317 -0.2624  3.2660
  646MOL0     H87210   4.522   0.284  10.062 -1.7872 -0.7771 -2.7757
  647MOL0     O87211   9.788   0.641   7.019  0.4353  0.0426  1.2015
  647MOL0     C87212   9.897   0.584   7.039  0.7171 -0.3275 -0.1355
  647MOL0     O87213   9.994   0.624   7.130 -0.5825 -0.7996  0.2055
  647MOL0     C87214   9.963   0.736   7.198  0.1123 -0.5859  0.2837
  647MOL0     C87215   9.876   0.734   7.303 -1.0906 -0.2068  1.2693
  647MOL0     C87216   9.843   0.860   7.368 -0.0107 -0.2461  0.1615
  647MOL0     C87217   9.899   0.977   7.329 -0.3318 -0.1191 -1.3349
  647MOL0     O87218   9.873   1.099   7.394 -0.2278 -0.6440 -0.0033
  647MOL0     C87219   9.977   1.199   7.417 -0.3998  0.6047  0.1509
  647MOL0     C87220   9.924   1.307   7.511 -0.1367  0.3298  0.1021
  647MOL0     C87221   9.847   1.428   7.451 -0.8629 -0.0308  0.2633
  647MOL0     C87222   9.712   1.373   7.411 -0.6492 -1.0985 -0.5652
  647MOL0     C87223   9.627   1.494   7.351  0.3290 -0.3373  0.0807
  647MOL0     C87224   9.495   1.441   7.321  0.4536  1.4125  0.0083
  647MOL0     C87225   9.391   1.538   7.263  0.2850  0.2985  0.4093
  647MOL0     C87226   9.248   1.491   7.259  0.4774 -0.1380 -0.2821
  647MOL0     N87227   9.220   1.361   7.204 -0.1957 -0.7027 -0.3304
  647MOL0     C87228   9.219   1.244   7.282 -0.7585  0.3067  0.0345
  647MOL0     C87229   9.206   1.144   7.193  0.6030 -0.0851  1.0202
  647MOL0     C87230   9.199   0.999   7.222 -0.5755  0.5138  0.6120
  647MOL0     C87231   9.330   0.952   7.303  0.4752 -0.0485 -0.8698
  647MOL0     C87232   9.456   0.944   7.220  0.2891  1.0452  1.0875
  647MOL0     C87233   9.470   0.804   7.156  0.5785  0.1222 -0.3267
  647MOL0     O87234   9.466   0.695   7.252 -0.3220 -0.3745  0.0344
  647MOL0     C87235   9.489   0.574   7.205  0.2315  0.4417  0.5998
  647MOL0     C87236   9.527   0.492   7.298 -0.1668  0.6143  0.1192
  647MOL0     C87237   9.532   0.351   7.283  0.4696 -0.2549 -0.7659
  647MOL0     C87238   9.498   0.289   7.164  0.0841 -0.4508 -0.7632
  647MOL0     C87239   9.492   0.147   7.147 -0.6159 -1.4120 -0.0377
  647MOL0     O87240   9.461   0.108   7.022 -0.1891  0.1447 -0.1159
  647MOL0     C87241   9.464  -0.025   6.989  0.0742  0.3268  0.8204
  647MOL0     C87242   9.353  -0.086   6.917 -0.2832  0.1145 -0.7061
  647MOL0     C87243   9.367  -0.218   6.866 -0.4525  0.1119  0.2314
  647MOL0     C87244   9.486  -0.287   6.890 -0.9160  0.5589 -0.0022
  647MOL0     O87245   9.490  -0.416   6.844  0.3150 -0.4033  0.0231
  647MOL0     C87246   9.583  -0.507   6.905 -0.8767 -0.3673 -0.2681
  647MOL0     C87247   9.543  -0.645   6.867 -0.6141  0.9543 -0.7152
  647MOL0     C87248   9.611  -0.745   6.966 -0.6343 -0.3600 -0.1739
  647MOL0     C87249   9.578  -0.889   6.932 -0.3625 -0.1422 -0.0586
  647MOL0     C87250   9.663  -0.992   7.003  0.3021 -0.6858  1.2228
  647MOL0     C87251   9.814  -0.982   6.971  0.1068 -0.0014 -0.7902
  647MOL0     C87252   9.880  -1.119   6.944  0.4054  0.1355  0.1988
  647MOL0     C87253  10.026  -1.107   7.008 -0.0804  1.3129 -0.9480
  647MOL0    Cl87254  10.122  -0.972   6.937 -0.2251  0.4548 -0.0036
  647MOL0     C87255   9.587  -0.227   6.960  0.5610  0.4017 -0.3442
  647MOL0     C87256   9.578  -0.096   7.002  0.3440 -0.0302 -0.6466
  647MOL0     O87257   9.533   0.081   7.247  0.8231  0.0982  0.3169
  647MOL0     C87258   9.462   0.382   7.062 -0.0200 -0.7041  1.1879
  647MOL0     C87259   9.478   0.522   7.072 -0.5459 -0.1138  0.5169
  647MOL0     N87260   9.171   1.199   7.070 -0.2401 -0.2056  0.6033
  647MOL0     N87261   9.169   1.323   7.081 -0.1185  0.7220 -0.7367
  647MOL0     C87262   9.989   0.975   7.230 -0.5521  0.0396  0.3582
  647MOL0     C87263  10.024   0.860   7.169 -0.2833  0.6031 -0.2617
  647MOL0     C87264   9.925   0.466   6.959 -0.0128 -0.0402  0.1590
  647MOL0     C87265   9.908   0.335   7.007 -0.0560  0.5160  0.2802
  647MOL0     C87266   9.934   0.222   6.933 -1.0220 -0.0820 -0.3451
  647MOL0     C87267   9.975   0.238   6.794  0.0146  0.6407  0.1513
  647MOL0     O87268   9.990   0.142   6.702  0.3214 -0.1835  0.5076
  647MOL0     C87269   9.929   0.010   6.699 -0.3193 -0.0120  0.3807
  647MOL0     C87270   9.777   0.036   6.703 -0.1853  0.2195  0.2335
  647MOL0     C87271   9.702   0.114   6.594  0.5117  0.0276 -0.2793
  647MOL0     C87272   9.766   0.088   6.451 -0.4826  0.5907 -0.8231
  647MOL0     C87273   9.675   0.092   6.335  0.3250  0.1396 -0.9637
  647MOL0     C87274   9.578   0.103   6.260  0.1235  0.3887  0.1959
  647MOL0     C87275  10.002   0.363   6.749 -0.8799  0.5872 -0.3372
  647MOL0     C87276   9.983   0.475   6.830 -0.5334  0.6770 -0.0142
  647MOL0     C87277  10.011   0.611   6.763 -0.3666 -0.6771  0.0067
  647MOL0     H87278   9.835   0.640   7.337 -4.0723 -1.3154 -4.3266
  647MOL0     H87279   9.768   0.863   7.447  0.1359 -3.5013  0.5435
  647MOL0     H87280  10.063   1.154   7.468 -0.3563 -1.4211 -1.5610
  647MOL0     H87281  10.008   1.247   7.324  0.0784  2.2492  1.1150
  647MOL0     H87282  10.008   1.353   7.564 -1.2229  1.8556  0.5412
  647MOL0     H87283   9.864   1.261   7.590  1.9350 -1.3131  0.8105
  647MOL0     H87284   9.904   1.459   7.363  2.0313 -0.1359  1.9723
  647MOL0     H87285   9.845   1.501   7.532  2.7575  1.0441 -0.4182
  647MOL0     H87286   9.719   1.285   7.346  1.2277 -1.4207  0.0139
  647MOL0     H87287   9.659   1.338   7.501 -0.3505 -0.8327 -0.2876
  647MOL0     H87288   9.621   1.576   7.422  2.7395 -1.1600  1.3361
  647MOL0     H87289   9.661   1.524   7.252  0.3813  0.5407  0.3588
  647MOL0     H87290   9.497   1.359   7.249  1.8034  0.1139  1.4445
  647MOL0     H87291   9.463   1.398   7.416  1.4699  0.5969 -0.0082
  647MOL0     H87292   9.437   1.565   7.167  2.2674 -1.0428  0.9094
  647MOL0     H87293   9.392   1.630   7.322  2.4245 -0.5237  1.7809
  647MOL0     H87294   9.226   1.502   7.365  4.6276  0.0952  0.7072
  647MOL0     H87295   9.181   1.562   7.208 -0.9378 -1.4960 -0.3850
  647MOL0     H87296   9.234   1.221   7.387 -0.2533  0.0829 -0.0862
  647MOL0     H87297   9.108   0.985   7.282 -1.5955  1.8590 -0.5299
  647MOL0     H87298   9.191   0.946   7.126  1.1497 -3.6157  2.5067
  647MOL0     H87299   9.336   1.017   7.391  2.1916 -1.0444 -0.2040
  647MOL0     H87300   9.304   0.853   7.340  3.7580  0.2760  3.0714
  647MOL0     H87301   9.546   0.964   7.278  1.0551 -1.7313  1.0217
  647MOL0     H87302   9.451   1.015   7.138  2.8822 -1.0096 -1.0393
  647MOL0     H87303   9.555   0.788   7.089  1.4072 -0.9599  0.9347
  647MOL0     H87304   9.384   0.788   7.091 -1.2642 -0.4309  2.1052
  647MOL0     H87305   9.541   0.525   7.400 -1.2940  0.3153  0.3780
  647MOL0     H87306   9.560   0.292   7.369  1.2820  0.2511 -0.6714
  647MOL0     H87307   9.259  -0.034   6.904 -0.6871 -0.1062  1.0869
  647MOL0     H87308   9.284  -0.244   6.801 -0.6601  0.6612  0.2762
  647MOL0     H87309   9.683  -0.478   6.872 -1.7355  0.7660 -2.0260
  647MOL0     H87310   9.565  -0.500   7.012  1.7027 -2.2111  0.3979
  647MOL0     H87311   9.435  -0.658   6.881 -0.5988 -0.7098 -1.8406
  647MOL0     H87312   9.564  -0.666   6.761  0.0481 -1.7036 -0.1118
  647MOL0     H87313   9.718  -0.725   6.974  0.0106 -3.1877 -0.5790
  647MOL0     H87314   9.570  -0.729   7.066 -0.0083  1.6935 -0.2005
  647MOL0     H87315   9.601  -0.899   6.826  0.6644 -2.4470  0.3183
  647MOL0     H87316   9.470  -0.905   6.945 -1.1165  1.5461 -3.3091
  647MOL0     H87317   9.614  -1.084   6.969 -2.6181  2.1576 -3.4255
  647MOL0     H87318   9.648  -0.975   7.110  0.3275 -2.3256  1.5044
  647MOL0     H87319   9.826  -0.911   6.888 -5.8537  0.0727 -2.0969
  647MOL0     H87320   9.845  -0.934   7.064  0.2066 -1.7138  0.0809
  647MOL0     H87321   9.860  -1.152   6.842 -1.1435 -3.1816  1.4430
  647MOL0     H87322   9.824  -1.190   7.006 -1.1855  1.4066  0.3063
  647MOL0     H87323  10.030  -1.103   7.117 -1.0262 -1.1079 -0.7531
  647MOL0     H87324  10.074  -1.203   6.985 -2.5384 -0.6434  1.4147
  647MOL0     H87325   9.683  -0.277   6.970 -0.2312 -1.5909 -1.9474
  647MOL0     H87326   9.667  -0.049   7.044  0.7768  0.5739 -2.1695
  647MOL0     H87327   9.425   0.338   6.970  0.7290 -1.1213  1.0792
  647MOL0     H87328   9.456   0.589   6.989  1.1624  1.6710  1.4199
  647MOL0     H87329  10.049   1.058   7.194 -1.8177  1.6199  1.7355
  647MOL0     H87330  10.089   0.860   7.081  0.2710 -2.7461  0.0210
  647MOL0     H87331   9.878   0.320   7.110  1.0494 -1.5886  0.3408
  647MOL0     H87332   9.915   0.129   6.984 -0.8333  1.0501  1.9253
  647MOL0     H87333   9.959  -0.050   6.785  0.6034  1.7728  1.3522
  647MOL0     H87334   9.961  -0.043   6.609  3.3397 -1.0965  2.1077
  647MOL0     H87335   9.738   0.067   6.800 -0.4770 -0.3780  0.3129
  647MOL0     H87336   9.739  -0.066   6.691 -2.3725  1.2860 -4.4628
  647MOL0     H87337   9.710   0.220   6.621  1.3710 -0.2428  0.5883
  647MOL0     H87338   9.595   0.094   6.589  0.3796  0.1228  1.3674
  647MOL0     H87339   9.836   0.170   6.434  1.4742 -0.0489  2.9764
  647MOL0     H87340   9.826  -0.004   6.448  2.2306  2.2024  0.0116
  647MOL0     H87341   9.500   0.115   6.187 -0.6470 -2.5197  0.4079
  647MOL0     H87342  10.034   0.372   6.645  3.0089 -0.0411  0.6516
  647MOL0     H87343  10.048   0.591   6.662  1.3308  0.4023  0.3727
  647MOL0     H87344   9.913   0.660   6.758 -1.3674 -2.1158  3.0467
  647MOL0     H87345  10.090   0.666   6.814 -0.6377  1.3776 -1.6646
  648MOL0     O87346   2.173   6.625   5.726  0.1509 -0.1953 -0.4990
  648MOL0     C87347   2.260   6.606   5.811 -0.9986 -1.2061  0.2325
  648MOL0     O87348   2.307   6.701   5.905  0.4674 -0.5970 -0.2622
  648MOL0     C87349   2.263   6.824   5.913 -0.8471  0.8377  0.0815
  648MOL0     C87350   2.239   6.868   6.041 -0.0927 -0.6762 -0.3344
  648MOL0     C87351   2.189   7.006   6.062 -0.2748  0.6222  0.4256
  648MOL0     C87352   2.154   7.071   5.943  0.7947  0.0888 -0.0935
  648MOL0     O87353   2.092   7.192   5.971  0.4223  0.0078  0.7398
  648MOL0     C87354   2.065   7.287   5.868 -0.2140 -0.1219 -0.6322
  648MOL0     C87355   1.920   7.322   5.876 -0.2508 -0.0607 -0.0505
  648MOL0     C87356   1.837   7.235   5.784 -1.0447 -0.1099  0.3185
  648MOL0     C87357   1.699   7.215   5.838  0.4862  0.5915 -0.4949
  648MOL0     C87358   1.595   7.151   5.737  0.1875 -1.1660 -0.6287
  648MOL0     C87359   1.469   7.099   5.810  0.5778 -0.7695  1.0942
  648MOL0     C87360   1.373   7.039   5.713 -0.5986 -0.0693  0.3280
  648MOL0     C87361   1.265   6.955   5.778 -0.5826  0.4377 -0.6441
  648MOL0     N87362   1.314   6.860   5.881  1.0010 -0.4081 -0.1250
  648MOL0     C87363   1.349   6.731   5.851 -0.0018 -0.9006  0.1665
  648MOL0     C87364   1.354   6.660   5.964 -0.1871  0.6194  0.1343
  648MOL0     C87365   1.390   6.521   5.979  0.9655  0.5155  0.3952
  648MOL0     C87366   1.278   6.450   6.061  0.7049 -0.1276 -0.2961
  648MOL0     C87367   1.239   6.318   5.993 -0.2599 -0.4030  0.3417
  648MOL0     C87368   1.357   6.223   5.967 -0.8577  0.3118 -0.4184
  648MOL0     O87369   1.438   6.201   6.076 -0.0899 -0.1673  0.0300
  648MOL0     C87370   1.381   6.101   6.151 -0.0030 -0.4029 -0.1764
  648MOL0     C87371   1.402   5.966   6.132  0.5244  1.2088 -0.9402
  648MOL0     C87372   1.345   5.877   6.222 -0.2894 -0.1314  0.0115
  648MOL0     C87373   1.265   5.912   6.335 -0.6492 -0.9307  0.0697
  648MOL0     C87374   1.222   5.822   6.441 -0.4087 -0.3540  0.4887
  648MOL0     O87375   1.149   5.867   6.547  0.6107  0.2795  1.1874
  648MOL0     C87376   1.111   5.773   6.628  0.4860  0.7297 -0.7051
  648MOL0     C87377   0.986   5.716   6.613 -0.2123  0.5221 -0.0954
  648MOL0     C87378   0.946   5.620   6.701  0.0573  1.0818  1.2553
  648MOL0     C87379   1.022   5.579   6.819  0.4638 -0.4778  0.7023
  648MOL0     O87380   0.968   5.489   6.911  0.0523  0.3612 -0.0712
  648MOL0     C87381   1.034   5.470   7.030  0.0454  0.2606  0.6359
  648MOL0     C87382   0.962   5.386   7.142  0.0551 -0.1363  0.7197
  648MOL0     C87383   1.007   5.430   7.272  0.0934  0.5566 -0.6897
  648MOL0     C87384   0.932   5.377   7.395  0.2842 -0.6312  0.3393
  648MOL0     C87385   0.961   5.456   7.529 -0.1370 -1.4040 -0.0832
  648MOL0     C87386   1.109   5.470   7.568 -0.5762  0.9375  0.1379
  648MOL0     C87387   1.129   5.546   7.706  0.3581  0.7877  0.1641
  648MOL0     C87388   1.068   5.495   7.842 -1.2592 -0.0367  0.0980
  648MOL0    Cl87389   1.112   5.594   7.980  0.1845  0.2571 -0.3657
  648MOL0     C87390   1.146   5.632   6.831 -0.3790  0.4091 -0.0681
  648MOL0     C87391   1.192   5.728   6.734  0.5480  0.1132 -1.3228
  648MOL0     O87392   1.246   5.702   6.406  0.2215 -0.2733 -0.1262
  648MOL0     C87393   1.240   6.049   6.342  0.1192 -0.7461  0.4222
  648MOL0     C87394   1.302   6.140   6.258 -0.8136  0.6025  0.7760
  648MOL0     N87395   1.320   6.746   6.070  0.5922 -0.6862 -0.3497
  648MOL0     N87396   1.294   6.862   6.013  0.1345  0.4571 -0.8075
  648MOL0     C87397   2.196   7.027   5.811 -0.4760 -0.4020 -0.2378
  648MOL0     C87398   2.244   6.895   5.799 -0.7942 -0.2147  0.1791
  648MOL0     C87399   2.329   6.470   5.803  0.1392 -0.8107 -0.5041
  648MOL0     C87400   2.442   6.449   5.884 -0.7927  0.1588 -0.0358
  648MOL0     C87401   2.519   6.335   5.872  0.2136 -0.4993 -0.7159
  648MOL0     C87402   2.473   6.231   5.789  0.3000 -0.3344  0.4207
  648MOL0     O87403   2.542   6.117   5.763 -0.2207  0.7297 -0.5424
  648MOL0     C87404   2.664   6.093   5.829 -0.3708 -0.5342 -0.2394
  648MOL0     C87405   2.692   5.945   5.807  0.0460 -0.0316 -0.1017
  648MOL0     C87406   2.849   5.909   5.794  0.3301 -0.0181  0.5065
  648MOL0     C87407   2.875   5.830   5.661  0.2702 -0.0362  0.2738
  648MOL0     C87408   3.013   5.774   5.658  0.3600 -0.2969 -0.7128
  648MOL0     C87409   3.132   5.741   5.672  0.9532 -0.3724 -0.2464
  648MOL0     C87410   2.355   6.245   5.721  0.2402  0.0589  0.2539
  648MOL0     C87411   2.274   6.356   5.723  0.2284  0.3127 -0.3900
  648MOL0     C87412   2.146   6.361   5.635  0.2667  0.1854  0.3286
  648MOL0     H87413   2.280   6.819   6.128  0.7945 -1.3429 -1.1037
  648MOL0     H87414   2.185   7.049   6.161 -1.3377 -0.1152  0.7163
  648MOL0     H87415   2.123   7.378   5.882 -1.2314  0.3756  0.5196
  648MOL0     H87416   2.090   7.254   5.767  0.1574  1.4738 -1.0888
  648MOL0     H87417   1.900   7.428   5.862 -0.4738  0.1372  1.5811
  648MOL0     H87418   1.890   7.303   5.980  0.3389  2.0976  0.5626
  648MOL0     H87419   1.884   7.137   5.778  0.8510  0.8431 -1.9637
  648MOL0     H87420   1.831   7.279   5.684 -2.4559 -1.2660 -0.1332
  648MOL0     H87421   1.703   7.148   5.924 -2.8672 -0.6269 -1.1352
  648MOL0     H87422   1.655   7.310   5.870 -0.4715  0.2381 -0.6981
  648MOL0     H87423   1.562   7.229   5.668 -2.1972 -1.3195  0.2348
  648MOL0     H87424   1.638   7.066   5.682  1.9835 -0.8300  0.1988
  648MOL0     H87425   1.499   7.015   5.874 -0.5825  0.2203  3.0178
  648MOL0     H87426   1.425   7.185   5.862  2.7054  1.5674 -0.7232
  648MOL0     H87427   1.435   6.979   5.645  1.9989  3.9185 -1.2560
  648MOL0     H87428   1.319   7.109   5.649  0.3930  0.7604  0.3623
  648MOL0     H87429   1.191   7.016   5.831 -2.4113 -3.7604  2.2223
  648MOL0     H87430   1.205   6.898   5.707  1.0468 -1.1269 -0.8426
  648MOL0     H87431   1.364   6.688   5.752 -1.7363 -1.6124  0.1743
  648MOL0     H87432   1.391   6.482   5.877 -3.8130 -0.6374  0.5244
  648MOL0     H87433   1.493   6.505   6.014  1.7942  0.3613 -1.9584
  648MOL0     H87434   1.313   6.439   6.164  1.8985 -1.6187 -0.8160
  648MOL0     H87435   1.188   6.511   6.073  0.3175 -0.1490 -2.6799
  648MOL0     H87436   1.174   6.326   5.905 -1.0881 -0.8029  0.8998
  648MOL0     H87437   1.179   6.281   6.076 -0.5746 -0.8131 -0.0601
  648MOL0     H87438   1.429   6.252   5.890  2.8853 -3.6189  1.2268
  648MOL0     H87439   1.312   6.134   5.923  0.2176 -0.6281  0.3230
  648MOL0     H87440   1.477   5.928   6.064  3.2073  1.0744  1.8440
  648MOL0     H87441   1.367   5.771   6.212 -3.9626 -1.1333  0.9005
  648MOL0     H87442   0.918   5.737   6.530 -0.2503 -2.0339 -0.7828
  648MOL0     H87443   0.849   5.579   6.676  0.6827 -0.0368  0.5972
  648MOL0     H87444   1.120   5.405   7.013 -0.4620 -0.2411 -0.1072
  648MOL0     H87445   1.071   5.564   7.072  1.6802 -0.0265 -0.0823
  648MOL0     H87446   0.855   5.404   7.144  0.2418  1.3157 -0.6942
  648MOL0     H87447   0.968   5.277   7.131  0.9812 -0.2911  2.3641
  648MOL0     H87448   1.114   5.409   7.273 -0.1483 -1.1625  2.3422
  648MOL0     H87449   0.981   5.536   7.276  1.2660  0.9093 -1.7916
  648MOL0     H87450   0.957   5.274   7.424 -2.7224 -1.1678  1.4193
  648MOL0     H87451   0.824   5.361   7.391  0.2114 -0.2634  0.7705
  648MOL0     H87452   0.909   5.409   7.612 -1.4742 -4.4080 -2.3868
  648MOL0     H87453   0.918   5.556   7.531 -0.2472 -1.3366  4.5478
  648MOL0     H87454   1.148   5.368   7.580 -0.3919  0.9294 -0.4922
  648MOL0     H87455   1.168   5.523   7.493  1.2552  2.2539  2.3703
  648MOL0     H87456   1.105   5.650   7.682  0.7799  0.4049 -2.1066
  648MOL0     H87457   1.237   5.546   7.720  0.4336  0.0914 -0.3710
  648MOL0     H87458   0.963   5.525   7.835 -1.5993 -0.4004  2.7297
  648MOL0     H87459   1.078   5.388   7.865  3.2606  0.3056  0.5745
  648MOL0     H87460   1.214   5.591   6.906 -1.2474 -1.5708 -0.2911
  648MOL0     H87461   1.285   5.784   6.745  1.5587 -1.6676 -0.2414
  648MOL0     H87462   1.176   6.087   6.421  1.2030  1.6887  0.2140
  648MOL0     H87463   1.282   6.246   6.263 -1.3654  0.5134  0.5557
  648MOL0     H87464   2.192   7.089   5.722 -0.3179 -1.8588 -1.2925
  648MOL0     H87465   2.274   6.854   5.703 -0.3256 -0.1997  0.3157
  648MOL0     H87466   2.490   6.529   5.940  0.4788 -0.2630 -0.4849
  648MOL0     H87467   2.604   6.318   5.938  0.2973  2.1769 -0.0265
  648MOL0     H87468   2.655   6.106   5.937 -1.2456 -1.4848 -0.1782
  648MOL0     H87469   2.737   6.161   5.783  0.7674 -1.1378  0.6138
  648MOL0     H87470   2.636   5.916   5.717  2.2231  1.8524 -2.2149
  648MOL0     H87471   2.655   5.899   5.899 -0.5537  2.0306  0.7522
  648MOL0     H87472   2.869   5.858   5.889 -1.7446  2.2322  2.2768
  648MOL0     H87473   2.901   6.004   5.790  1.9135 -0.9004 -1.6981
  648MOL0     H87474   2.798   5.752   5.662 -1.0934  1.2468 -0.6871
  648MOL0     H87475   2.858   5.889   5.571 -2.2154 -1.2228 -0.0945
  648MOL0     H87476   3.236   5.715   5.670  1.0628  0.0928 -1.2047
  648MOL0     H87477   2.323   6.160   5.661 -1.8999  1.0020 -0.0549
  648MOL0     H87478   2.129   6.265   5.585 -1.5008  1.5627 -1.9296
  648MOL0     H87479   2.063   6.382   5.703  0.3324  1.2542  0.1000
  648MOL0     H87480   2.147   6.435   5.555 -0.1117  1.2849  1.3102
  649MOL0     O87481  11.135   7.408  11.406  0.3082 -0.1652  0.0765
  649MOL0     C87482  11.214   7.420  11.317 -0.5741  1.1559  0.2944
  649MOL0     O87483  11.185   7.405  11.183  0.3674  0.6874  0.3685
  649MOL0     C87484  11.050   7.365  11.146 -1.1437 -0.1614 -0.3812
  649MOL0     C87485  10.998   7.419  11.026 -0.1711 -0.3799  0.9000
  649MOL0     C87486  10.878   7.371  10.973 -0.4834 -0.0980 -0.7778
  649MOL0     C87487  10.807   7.269  11.034  0.2030 -0.7757 -0.5884
  649MOL0     O87488  10.685   7.217  10.991  0.2673 -0.9275  0.1699
  649MOL0     C87489  10.604   7.297  10.902  0.7867 -0.3163 -0.6132
  649MOL0     C87490  10.485   7.221  10.847 -0.3554  0.0642  0.0265
  649MOL0     C87491  10.373   7.304  10.785  0.0389  0.4730  0.3570
  649MOL0     C87492  10.291   7.381  10.889  0.3580  0.6451  0.0371
  649MOL0     C87493  10.188   7.474  10.822 -0.0976 -1.8717  0.3404
  649MOL0     C87494  10.119   7.575  10.916  0.5680  0.0839  0.0618
  649MOL0     C87495  10.034   7.667  10.848 -0.6590  0.5360  0.9955
  649MOL0     C87496   9.890   7.610  10.816  0.4243 -1.0021  0.3100
  649MOL0     N87497   9.818   7.709  10.733 -0.3451 -0.2799  0.5562
  649MOL0     C87498   9.814   7.846  10.759  0.4055  0.7005  0.6212
  649MOL0     C87499   9.768   7.902  10.650 -0.3236  0.1939  0.4500
  649MOL0     C87500   9.752   8.052  10.634  0.4403  0.4826 -0.3043
  649MOL0     C87501   9.671   8.110  10.747 -0.5276 -0.3558  0.1823
  649MOL0     C87502   9.593   8.224  10.689  0.9588 -0.5811 -0.5364
  649MOL0     C87503   9.516   8.300  10.796  0.2437  1.0632  0.2795
  649MOL0     O87504   9.408   8.204  10.847  0.1816 -1.4040  0.0837
  649MOL0     C87505   9.293   8.186  10.772  0.1198  0.6408 -0.1042
  649MOL0     C87506   9.202   8.097  10.829 -0.0729 -0.7964  0.5188
  649MOL0     C87507   9.089   8.062  10.757 -0.2972 -0.6668  0.3278
  649MOL0     C87508   9.059   8.109  10.628 -0.4319  0.2966  0.5098
  649MOL0     C87509   8.952   8.051  10.553  0.0047  0.0044  1.1518
  649MOL0     O87510   8.931   8.089  10.421 -0.3251 -0.3146 -0.2552
  649MOL0     C87511   8.819   8.051  10.355  0.0536  0.9413 -0.1551
  649MOL0     C87512   8.808   7.926  10.296  0.0749 -0.1695 -0.4282
  649MOL0     C87513   8.682   7.866  10.274 -0.3127 -0.5794  0.7339
  649MOL0     C87514   8.574   7.952  10.285  0.4575 -0.0503 -0.2992
  649MOL0     O87515   8.455   7.900  10.256 -0.5678 -0.9819  0.6854
  649MOL0     C87516   8.352   7.991  10.195 -0.2191  0.2234  0.7643
  649MOL0     C87517   8.393   8.031  10.051 -0.6417 -0.4210  0.4326
  649MOL0     C87518   8.273   8.096   9.991  0.0336  1.1396 -0.0485
  649MOL0     C87519   8.269   8.092   9.839 -0.0171 -0.0788 -0.1802
  649MOL0     C87520   8.215   7.960   9.777  0.7086 -1.5509 -0.2392
  649MOL0     C87521   8.210   7.965   9.623 -0.1196 -0.4649 -0.4504
  649MOL0     C87522   8.329   8.039   9.554 -0.2747 -0.3851  0.1749
  649MOL0     C87523   8.472   7.977   9.563  0.5744 -0.4438  0.9655
  649MOL0    Cl87524   8.590   8.048   9.441  0.1290 -0.4420 -0.5361
  649MOL0     C87525   8.586   8.083  10.324 -0.2288 -0.3832  0.0287
  649MOL0     C87526   8.706   8.134  10.366 -0.2833 -0.6126 -0.0095
  649MOL0     O87527   8.881   7.973  10.609 -0.0923  0.3544  0.9888
  649MOL0     C87528   9.158   8.195  10.571 -0.0958 -0.8090  0.1397
  649MOL0     C87529   9.278   8.230  10.641  1.0841 -0.2709  0.3816
  649MOL0     N87530   9.746   7.801  10.554  0.4479  0.0564 -0.2699
  649MOL0     N87531   9.760   7.692  10.611  0.9335 -0.2480  0.2374
  649MOL0     C87532  10.854   7.221  11.155  0.7069 -1.5318 -0.4673
  649MOL0     C87533  10.969   7.272  11.210  0.2885  0.3607  0.2621
  649MOL0     C87534  11.355   7.477  11.343 -0.9978 -0.2148  0.6033
  649MOL0     C87535  11.440   7.527  11.229  0.6936  0.3956 -0.7786
  649MOL0     C87536  11.560   7.584  11.259  0.3361 -0.4726 -0.5647
  649MOL0     C87537  11.614   7.601  11.384 -0.0490 -0.8135  0.6712
  649MOL0     O87538  11.730   7.661  11.410  1.0964 -0.4496 -0.3665
  649MOL0     C87539  11.781   7.736  11.313  0.5240 -0.1081  0.7687
  649MOL0     C87540  11.890   7.831  11.376 -0.9316 -0.0635  0.2088
  649MOL0     C87541  12.012   7.743  11.428  0.5436 -0.2082  0.5264
  649MOL0     C87542  12.130   7.819  11.490 -0.9260  0.2835 -0.3762
  649MOL0     C87543  12.103   7.882  11.623  0.1409  1.6555 -0.1799
  649MOL0     C87544  12.079   7.924  11.732 -0.3007 -0.5368 -0.3476
  649MOL0     C87545  11.536   7.555  11.487  0.6773  0.8841 -0.3910
  649MOL0     C87546  11.413   7.487  11.470  0.4437 -0.2334 -0.2435
  649MOL0     C87547  11.339   7.431  11.591  0.5205 -0.1935  0.2855
  649MOL0     H87548  11.049   7.493  10.966 -0.3454  0.0593  1.2916
  649MOL0     H87549  10.845   7.393  10.872 -0.5074  0.9759 -0.5435
  649MOL0     H87550  10.563   7.381  10.959  2.1432  0.1992 -0.3368
  649MOL0     H87551  10.669   7.323  10.817 -0.2838  2.8989 -0.5840
  649MOL0     H87552  10.432   7.150  10.913  2.1690 -4.2476 -2.1567
  649MOL0     H87553  10.528   7.156  10.771  2.5827  2.3681 -0.4416
  649MOL0     H87554  10.311   7.231  10.731  0.7564 -0.6324  0.9758
  649MOL0     H87555  10.405   7.374  10.708  0.2509 -1.6667 -1.6171
  649MOL0     H87556  10.248   7.305  10.954  1.7586  0.4544  0.7883
  649MOL0     H87557  10.365   7.431  10.952  1.5172  1.1275 -1.6135
  649MOL0     H87558  10.243   7.523  10.741  0.6963  0.1434  2.0172
  649MOL0     H87559  10.108   7.416  10.775 -0.1206 -1.2647 -0.3899
  649MOL0     H87560  10.060   7.513  10.984  1.1752 -0.5142  0.0587
  649MOL0     H87561  10.189   7.629  10.981 -0.0849 -0.0536  0.8906
  649MOL0     H87562  10.083   7.691  10.753  1.3658 -2.0816  1.2716
  649MOL0     H87563  10.021   7.762  10.901  0.7383 -0.5200  3.3800
  649MOL0     H87564   9.893   7.517  10.758  3.4943  0.0087 -1.3893
  649MOL0     H87565   9.834   7.605  10.910  0.7651  2.0544  0.7745
  649MOL0     H87566   9.835   7.903  10.849  3.2057  3.2550 -1.4821
  649MOL0     H87567   9.846   8.108  10.638  0.5744  0.1953  2.2409
  649MOL0     H87568   9.704   8.063  10.536 -0.2523 -0.9997 -0.1553
  649MOL0     H87569   9.599   8.037  10.784  0.7269 -3.5904 -3.0903
  649MOL0     H87570   9.743   8.141  10.824 -0.8941 -2.8875  1.6757
  649MOL0     H87571   9.529   8.190  10.606  0.8779  0.4195 -0.8930
  649MOL0     H87572   9.668   8.299  10.662  1.3809 -0.8194 -0.0387
  649MOL0     H87573   9.482   8.401  10.773  0.2087  1.2217  1.0086
  649MOL0     H87574   9.592   8.311  10.874  1.6099  0.4035 -0.8877
  649MOL0     H87575   9.224   8.070  10.932 -4.0027 -1.4108  1.3294
  649MOL0     H87576   9.030   7.988  10.810  0.9377 -1.3714  0.7405
  649MOL0     H87577   8.899   7.868  10.287 -0.1327 -0.6208  0.2978
  649MOL0     H87578   8.664   7.762  10.247  1.7495 -0.5988 -0.7707
  649MOL0     H87579   8.254   7.943  10.197 -1.4932  2.6733  0.9952
  649MOL0     H87580   8.324   8.078  10.256  1.6740  0.8071  0.8872
  649MOL0     H87581   8.469   8.109  10.045 -1.6394  0.4909 -1.0422
  649MOL0     H87582   8.417   7.943   9.990  4.7781  1.4081 -0.6807
  649MOL0     H87583   8.180   8.058  10.036  1.0066 -2.0397 -0.4983
  649MOL0     H87584   8.284   8.199  10.025  0.9285  0.2067  2.7867
  649MOL0     H87585   8.369   8.120   9.805 -0.3460  1.8357  0.2711
  649MOL0     H87586   8.199   8.175   9.824 -0.3098 -0.0784  1.0874
  649MOL0     H87587   8.117   7.920   9.806  0.3463 -1.9296 -1.9042
  649MOL0     H87588   8.283   7.879   9.805  0.1437 -1.9162  0.1213
  649MOL0     H87589   8.199   7.862   9.587  2.0918 -1.5247  1.6650
  649MOL0     H87590   8.128   8.028   9.586  1.7835  2.1740 -0.4519
  649MOL0     H87591   8.339   8.141   9.593  0.8954 -0.1392 -0.7077
  649MOL0     H87592   8.278   8.043   9.457 -4.7027 -2.0093  2.1672
  649MOL0     H87593   8.499   7.981   9.668  0.8259 -0.6400  0.9081
  649MOL0     H87594   8.454   7.871   9.541 -1.7870  0.1621 -0.4937
  649MOL0     H87595   8.496   8.142  10.342 -0.9831 -1.9826  1.8895
  649MOL0     H87596   8.713   8.237  10.399  1.7011 -1.5199  2.8610
  649MOL0     H87597   9.141   8.247  10.478  1.5750  0.5013  0.5337
  649MOL0     H87598   9.347   8.295  10.588  2.6869  0.0649  2.7398
  649MOL0     H87599  10.803   7.149  11.219 -2.2618  3.7490  4.0395
  649MOL0     H87600  11.006   7.241  11.307  2.2376  1.6665 -0.0262
  649MOL0     H87601  11.400   7.522  11.129  1.1446 -4.0318 -0.9419
  649MOL0     H87602  11.624   7.604  11.173  0.5833  0.0708 -0.2583
  649MOL0     H87603  11.708   7.803  11.266  1.4690  0.3725 -0.0649
  649MOL0     H87604  11.824   7.677  11.231  2.1862 -0.9433  2.1905
  649MOL0     H87605  11.839   7.881  11.458 -0.1454  3.4822 -1.3000
  649MOL0     H87606  11.930   7.890  11.293 -1.3391 -1.7739 -1.2916
  649MOL0     H87607  12.048   7.679  11.347  0.9211  0.0730  0.4678
  649MOL0     H87608  11.994   7.666  11.503  0.0514 -2.3946 -1.7344
  649MOL0     H87609  12.221   7.759  11.500 -0.5556  0.4601 -2.2593
  649MOL0     H87610  12.154   7.898  11.418 -2.5089  2.5911  1.4757
  649MOL0     H87611  12.050   7.951  11.832 -3.7738  2.2818 -1.9085
  649MOL0     H87612  11.578   7.548  11.586  1.4516  2.6863 -0.5576
  649MOL0     H87613  11.310   7.325  11.584 -1.2822  0.1120  2.2606
  649MOL0     H87614  11.392   7.448  11.685  2.7465  0.2757 -0.9820
  649MOL0     H87615  11.245   7.486  11.603 -0.0266 -0.5545 -1.8102
  650MOL0     O87616   6.847   7.557  10.102 -0.0909 -0.3051  0.3405
  650MOL0     C87617   6.914   7.559  10.000  0.1779  0.9522  0.1881
  650MOL0     O87618   6.943   7.670   9.924 -0.2684 -0.0118  0.4141
  650MOL0     C87619   6.891   7.795   9.948  0.2637  0.4853 -0.0753
  650MOL0     C87620   6.762   7.823   9.997 -0.2937  0.0754 -0.0496
  650MOL0     C87621   6.696   7.949   9.985  0.0883  0.5327 -0.2120
  650MOL0     C87622   6.760   8.051   9.925  1.3148 -0.9577 -0.5853
  650MOL0     O87623   6.686   8.155   9.883 -0.0757  0.1681  0.0093
  650MOL0     C87624   6.728   8.292   9.889  0.1023  0.4483  0.5731
  650MOL0     C87625   6.617   8.377   9.834 -0.3678 -0.4189  0.6099
  650MOL0     C87626   6.657   8.529   9.835 -0.2097  1.0589 -0.7664
  650MOL0     C87627   6.548   8.612   9.771 -0.4573  0.0411  0.0773
  650MOL0     C87628   6.556   8.760   9.812 -0.3949 -0.3452 -0.6578
  650MOL0     C87629   6.458   8.846   9.737 -0.5316 -0.2204 -0.5291
  650MOL0     C87630   6.487   8.862   9.587  1.2336  0.4019  0.1906
  650MOL0     C87631   6.625   8.922   9.551 -0.6831  0.5221  0.5915
  650MOL0     N87632   6.639   9.048   9.616 -0.9886  1.2701 -0.0063
  650MOL0     C87633   6.604   9.174   9.570  0.7674  0.3086 -0.7434
  650MOL0     C87634   6.694   9.259   9.642 -0.0802 -0.1634 -0.4343
  650MOL0     C87635   6.688   9.410   9.651  0.4650  1.1072 -0.6040
  650MOL0     C87636   6.635   9.468   9.519 -1.6778 -0.7076  0.6204
  650MOL0     C87637   6.697   9.609   9.502 -0.1007 -0.9049  0.2084
  650MOL0     C87638   6.641   9.691   9.381 -0.0054 -0.5424  0.1326
  650MOL0     O87639   6.503   9.682   9.367  0.3636 -0.2214 -0.6890
  650MOL0     C87640   6.455   9.706   9.239  1.4364 -0.4990 -0.5630
  650MOL0     C87641   6.502   9.814   9.160 -0.3744 -0.1021 -0.5972
  650MOL0     C87642   6.453   9.852   9.040  0.3910 -0.8333  0.2203
  650MOL0     C87643   6.336   9.780   8.990 -0.4653 -0.0704  0.3858
  650MOL0     C87644   6.279   9.817   8.853 -0.8995 -0.5876 -0.3505
  650MOL0     O87645   6.197   9.727   8.787 -0.1978  0.2061 -0.6142
  650MOL0     C87646   6.155   9.769   8.661  0.5625 -0.6235  0.3646
  650MOL0     C87647   6.078   9.886   8.644 -0.3197 -0.5441 -0.3016
  650MOL0     C87648   6.022   9.917   8.519 -0.5101  0.3460 -0.6392
  650MOL0     C87649   6.048   9.834   8.416 -0.4865 -0.0259 -0.0612
  650MOL0     O87650   5.996   9.851   8.293 -0.3145 -0.7917 -0.8302
  650MOL0     C87651   5.853   9.883   8.287 -0.3456  0.6038  0.0812
  650MOL0     C87652   5.770   9.772   8.354  0.5792  0.5313 -0.0145
  650MOL0     C87653   5.785   9.630   8.290 -0.5753 -0.0047  0.4887
  650MOL0     C87654   5.663   9.541   8.297 -0.5581  0.0153 -1.0606
  650MOL0     C87655   5.673   9.430   8.186 -0.7239  0.5788  0.2408
  650MOL0     C87656   5.545   9.345   8.171 -0.4530  1.0710  0.0102
  650MOL0     C87657   5.585   9.205   8.134  0.2959 -0.2826 -0.0251
  650MOL0     C87658   5.461   9.145   8.089  0.0258  0.9164  0.9049
  650MOL0    Cl87659   5.509   8.986   8.041  0.1610 -0.1627 -0.6212
  650MOL0     C87660   6.127   9.717   8.425 -0.4207 -0.3677 -0.0210
  650MOL0     C87661   6.173   9.682   8.554  0.6629  1.0072  0.5269
  650MOL0     O87662   6.300   9.929   8.818 -0.1726  0.4042  0.5510
  650MOL0     C87663   6.282   9.674   9.072 -0.0383  0.7374  0.1684
  650MOL0     C87664   6.336   9.654   9.195  0.0577  0.0495  0.0173
  650MOL0     N87665   6.779   9.186   9.726 -0.4045  0.1842 -0.5278
  650MOL0     N87666   6.742   9.065   9.698 -0.3003 -0.1693 -0.2402
  650MOL0     C87667   6.897   8.038   9.891 -0.5182  0.3768 -0.2248
  650MOL0     C87668   6.963   7.911   9.900 -0.6590 -0.8494  0.5873
  650MOL0     C87669   6.974   7.434   9.955  0.4930  0.3269  0.8262
  650MOL0     C87670   6.963   7.401   9.815  0.1561 -0.2726  0.6768
  650MOL0     C87671   7.019   7.298   9.757  0.4829 -0.5156  0.5433
  650MOL0     C87672   7.087   7.203   9.837 -0.7299  0.6607 -0.4219
  650MOL0     O87673   7.142   7.101   9.761 -0.0156  1.3855 -0.4301
  650MOL0     C87674   7.243   7.014   9.813 -0.4087  0.2229  0.9494
  650MOL0     C87675   7.374   7.022   9.725  0.3052 -1.3473 -0.3351
  650MOL0     C87676   7.386   7.181   9.702 -0.7851 -0.3034  0.0301
  650MOL0     C87677   7.500   7.211   9.617 -0.1590 -0.1125  0.1150
  650MOL0     C87678   7.634   7.199   9.681 -0.2029 -0.6889 -0.5442
  650MOL0     C87679   7.733   7.192   9.744 -0.2857 -0.6637  0.5041
  650MOL0     C87680   7.079   7.214   9.979  0.7351  0.0948 -0.3116
  650MOL0     C87681   7.025   7.330  10.043 -0.5812  0.0114  0.8433
  650MOL0     C87682   7.024   7.324  10.190  1.1183 -0.2315 -1.0317
  650MOL0     H87683   6.704   7.747  10.050  1.6791 -0.9752  0.7090
  650MOL0     H87684   6.598   7.960  10.031  0.6246  2.4129  0.5623
  650MOL0     H87685   6.760   8.327   9.988 -0.1106 -2.0803  1.6083
  650MOL0     H87686   6.819   8.299   9.829  0.8749  1.3570  1.7775
  650MOL0     H87687   6.531   8.375   9.901  0.0594  1.9803  1.3254
  650MOL0     H87688   6.587   8.330   9.740  0.3936  0.3837 -0.0576
  650MOL0     H87689   6.744   8.550   9.773  2.4267 -0.1670  2.2161
  650MOL0     H87690   6.679   8.561   9.938 -0.5959 -1.7334  0.2594
  650MOL0     H87691   6.562   8.585   9.666  1.4849 -0.0516  0.3213
  650MOL0     H87692   6.453   8.574   9.807  0.6807  1.6677  5.8778
  650MOL0     H87693   6.557   8.758   9.921 -0.7889  2.0113 -0.5447
  650MOL0     H87694   6.651   8.806   9.781  0.8890 -2.9088 -0.7502
  650MOL0     H87695   6.359   8.806   9.758  0.5000 -1.2017  3.2113
  650MOL0     H87696   6.471   8.944   9.784  2.3641  0.1669 -1.8972
  650MOL0     H87697   6.412   8.928   9.543  1.3807 -0.3904 -1.3188
  650MOL0     H87698   6.475   8.761   9.548 -1.6662 -0.9699  4.0454
  650MOL0     H87699   6.700   8.852   9.589 -0.3237  0.0927 -0.8415
  650MOL0     H87700   6.636   8.936   9.443 -0.5653 -0.5350  0.4590
  650MOL0     H87701   6.515   9.203   9.516  0.6657  0.3165 -0.5754
  650MOL0     H87702   6.611   9.446   9.721  1.1979  1.4809  0.0214
  650MOL0     H87703   6.786   9.450   9.678  1.7576 -2.2677  0.2071
  650MOL0     H87704   6.670   9.403   9.438 -1.9077  0.8112 -0.7303
  650MOL0     H87705   6.526   9.463   9.512 -1.9963  0.8123  3.1818
  650MOL0     H87706   6.805   9.597   9.494  0.0055  0.5211 -1.2605
  650MOL0     H87707   6.679   9.655   9.600 -0.7597 -0.0096 -0.3155
  650MOL0     H87708   6.701   9.648   9.299 -0.8414  0.1319 -0.8578
  650MOL0     H87709   6.671   9.796   9.382  0.8568 -0.7817  1.6661
  650MOL0     H87710   6.590   9.865   9.198 -1.6716  0.7474  1.4939
  650MOL0     H87711   6.474   9.945   8.988 -0.2860 -0.5446  0.4514
  650MOL0     H87712   6.061   9.962   8.720  3.2164 -1.2187  1.3602
  650MOL0     H87713   5.961  10.002   8.490  0.6672  0.2912 -3.5699
  650MOL0     H87714   5.832   9.976   8.341  4.0765  1.5526  0.5626
  650MOL0     H87715   5.820   9.911   8.187 -0.3232  1.1612  0.2230
  650MOL0     H87716   5.787   9.768   8.462 -1.1174 -1.4910  0.2578
  650MOL0     H87717   5.665   9.797   8.334 -1.7200 -4.7785  3.0690
  650MOL0     H87718   5.819   9.639   8.186  1.5935  0.1271  1.1535
  650MOL0     H87719   5.873   9.581   8.334 -0.9146 -0.9270  0.1527
  650MOL0     H87720   5.570   9.594   8.275 -0.7233 -0.6110 -1.9232
  650MOL0     H87721   5.658   9.499   8.398 -1.0179  0.5364 -0.8654
  650MOL0     H87722   5.749   9.365   8.230 -1.7016  0.4903  1.8715
  650MOL0     H87723   5.707   9.465   8.088 -2.1144  0.5196 -0.2836
  650MOL0     H87724   5.486   9.356   8.263  3.5785 -2.4043  3.4832
  650MOL0     H87725   5.487   9.390   8.091 -1.3996  1.2656  0.7784
  650MOL0     H87726   5.628   9.160   8.224  0.3959  0.6132  0.3861
  650MOL0     H87727   5.671   9.207   8.066  1.1819  0.4316  1.0799
  650MOL0     H87728   5.399   9.127   8.178  3.0831 -2.1545  2.6665
  650MOL0     H87729   5.422   9.196   8.001  2.1206 -0.4051 -0.9035
  650MOL0     H87730   6.137   9.644   8.346  0.3772  1.4322 -1.6759
  650MOL0     H87731   6.204   9.580   8.575  1.3740  1.2192  0.5201
  650MOL0     H87732   6.190   9.619   9.056 -1.1067  1.9761  1.6987
  650MOL0     H87733   6.282   9.582   9.256  0.2204  2.6244  3.5595
  650MOL0     H87734   6.956   8.110   9.835 -0.2627 -0.4465 -1.0413
  650MOL0     H87735   7.060   7.896   9.854 -1.3158 -1.6725 -0.5891
  650MOL0     H87736   6.920   7.466   9.739 -1.2251 -2.2883 -0.3718
  650MOL0     H87737   7.007   7.272   9.652  0.7085  0.9718  0.1339
  650MOL0     H87738   7.215   6.908   9.811 -0.0497  0.1081 -2.0216
  650MOL0     H87739   7.265   7.042   9.917 -1.2784 -1.5358  1.6458
  650MOL0     H87740   7.354   6.981   9.626 -0.9070  1.1912 -1.2463
  650MOL0     H87741   7.465   6.986   9.774  0.8367  1.0025  0.5423
  650MOL0     H87742   7.398   7.240   9.793  0.0365  0.6753 -0.6961
  650MOL0     H87743   7.298   7.224   9.653 -0.8203  0.5547  0.8145
  650MOL0     H87744   7.497   7.153   9.524 -2.8762  3.6115 -2.4491
  650MOL0     H87745   7.479   7.317   9.595 -1.3913  0.0532  1.9048
  650MOL0     H87746   7.817   7.168   9.807 -0.3144 -2.9315 -0.2467
  650MOL0     H87747   7.107   7.125  10.034 -0.6238 -1.0468 -1.4160
  650MOL0     H87748   6.930   7.362  10.233  0.7331 -1.3570 -0.8576
  650MOL0     H87749   7.030   7.220  10.223  0.5678 -0.8784 -2.8478
  650MOL0     H87750   7.111   7.375  10.233  0.0137 -0.2427  1.4390
  651MOL0     O87751  11.336   6.985   3.897 -0.3493  0.4113  0.6272
  651MOL0     C87752  11.404   7.077   3.937  0.7892  0.4869  0.2676
  651MOL0     O87753  11.453   7.091   4.067 -0.1699  0.1449  0.1787
  651MOL0     C87754  11.451   6.991   4.158  0.3362  0.7490 -0.3699
  651MOL0     C87755  11.452   6.854   4.126  0.9255 -0.7948  0.9284
  651MOL0     C87756  11.445   6.757   4.220 -1.3070 -0.0056 -0.5443
  651MOL0     C87757  11.461   6.793   4.360 -0.5242 -0.6203  0.1734
  651MOL0     O87758  11.468   6.699   4.463  0.9731 -0.0313 -0.2116
  651MOL0     C87759  11.455   6.557   4.441 -0.1122 -0.5855 -0.2466
  651MOL0     C87760  11.427   6.476   4.575 -0.7828  0.1479 -0.3240
  651MOL0     C87761  11.426   6.330   4.535 -0.0098 -0.1984  0.3303
  651MOL0     C87762  11.288   6.302   4.483  0.7293  0.2907  0.5622
  651MOL0     C87763  11.279   6.204   4.366  0.0917 -0.0624  1.3216
  651MOL0     C87764  11.313   6.062   4.401  0.4337  1.1925 -0.4015
  651MOL0     C87765  11.315   5.968   4.281  0.8736 -0.0129  0.7598
  651MOL0     C87766  11.165   5.918   4.262 -0.3959  1.1941  0.2954
  651MOL0     N87767  11.141   5.866   4.119 -0.5040 -0.9142 -1.0405
  651MOL0     C87768  11.206   5.761   4.068  0.5458 -0.5393  0.1157
  651MOL0     C87769  11.187   5.768   3.934  0.8900  0.0216 -0.7607
  651MOL0     C87770  11.201   5.673   3.829  0.7598  0.5387  0.7596
  651MOL0     C87771  11.124   5.549   3.856 -0.3992  0.3600 -1.0065
  651MOL0     C87772  10.976   5.573   3.869 -0.0065 -0.8133  0.4387
  651MOL0     C87773  10.902   5.650   3.745 -0.5115  1.1482 -1.4478
  651MOL0     O87774  10.762   5.655   3.763  0.0509  0.6833  0.5552
  651MOL0     C87775  10.710   5.716   3.871 -0.2216 -0.0907 -0.2514
  651MOL0     C87776  10.764   5.832   3.933 -0.0134 -0.3613  0.3628
  651MOL0     C87777  10.688   5.879   4.036  0.0466 -0.1389 -0.2914
  651MOL0     C87778  10.565   5.825   4.083 -0.0863 -0.5555 -0.2778
  651MOL0     C87779  10.483   5.894   4.194 -0.1047 -0.1405 -0.3513
  651MOL0     O87780  10.518   6.025   4.216 -0.5554 -0.6543  0.1104
  651MOL0     C87781  10.452   6.102   4.304 -0.1810 -0.2337 -0.8528
  651MOL0     C87782  10.312   6.129   4.286 -0.6588  0.3875 -0.3035
  651MOL0     C87783  10.231   6.203   4.368 -0.1063  0.2867  0.3486
  651MOL0     C87784  10.285   6.261   4.479  1.0476 -0.2667  0.1139
  651MOL0     O87785  10.199   6.351   4.545  0.7800 -0.5483 -0.2345
  651MOL0     C87786  10.218   6.378   4.679 -0.7296  0.3938  0.0166
  651MOL0     C87787  10.276   6.516   4.694 -0.5365  0.2160  0.5577
  651MOL0     C87788  10.306   6.550   4.838 -0.6292  0.1075  0.6652
  651MOL0     C87789  10.439   6.482   4.880  0.7464 -0.2960 -0.2387
  651MOL0     C87790  10.486   6.530   5.013 -0.2433  0.0011 -0.3846
  651MOL0     C87791  10.564   6.410   5.066 -0.3836  0.3916  0.8566
  651MOL0     C87792  10.601   6.435   5.209 -0.5332 -0.0401 -0.7899
  651MOL0     C87793  10.501   6.369   5.302  0.1241 -0.4335  0.4738
  651MOL0    Cl87794  10.547   6.198   5.350 -0.1264  0.1970 -0.0523
  651MOL0     C87795  10.422   6.244   4.507  0.7385 -0.1700  0.6639
  651MOL0     C87796  10.500   6.163   4.423  0.0492  0.0167 -0.5215
  651MOL0     O87797  10.386   5.837   4.248  0.1769  0.8366 -0.3420
  651MOL0     C87798  10.517   5.712   4.024  0.3226 -0.2141  0.2664
  651MOL0     C87799  10.588   5.650   3.915 -0.2021  0.7517 -0.5871
  651MOL0     N87800  11.112   5.877   3.911  0.1049  0.0140  0.7021
  651MOL0     N87801  11.088   5.938   4.024 -0.8661  0.2233  0.4257
  651MOL0     C87802  11.474   6.924   4.394  0.3753 -1.0193 -0.1217
  651MOL0     C87803  11.461   7.018   4.292  0.1446 -0.8531  0.0133
  651MOL0     C87804  11.443   7.177   3.836  0.6061 -0.1924  0.8862
  651MOL0     C87805  11.562   7.248   3.852 -0.5316 -0.8214  0.4030
  651MOL0     C87806  11.598   7.349   3.766 -0.2261  1.4383  0.3428
  651MOL0     C87807  11.522   7.386   3.652  1.3529 -0.3516  0.2415
  651MOL0     O87808  11.567   7.461   3.552  0.1570 -0.1673  0.8746
  651MOL0     C87809  11.499   7.578   3.538  0.0013 -0.5877  0.3582
  651MOL0     C87810  11.562   7.710   3.586  0.4491  0.2394 -1.1101
  651MOL0     C87811  11.555   7.725   3.733  0.2279  0.0783 -0.1098
  651MOL0     C87812  11.423   7.767   3.790 -0.2846  0.0414 -0.3197
  651MOL0     C87813  11.436   7.771   3.944 -0.2787  0.5067  0.0002
  651MOL0     C87814  11.434   7.752   4.066  0.7831  0.3888 -0.1003
  651MOL0     C87815  11.399   7.321   3.633 -0.0114 -0.0110 -0.0702
  651MOL0     C87816  11.360   7.218   3.726  0.3689  0.3041 -0.6179
  651MOL0     C87817  11.215   7.171   3.713 -0.6570  0.2652  0.2526
  651MOL0     H87818  11.445   6.829   4.020 -2.8696  4.7269 -0.5598
  651MOL0     H87819  11.444   6.653   4.190 -0.2001 -0.0244 -0.5837
  651MOL0     H87820  11.376   6.539   4.368 -3.5423  0.1232  2.9529
  651MOL0     H87821  11.545   6.513   4.398 -0.1656 -1.0194  0.0662
  651MOL0     H87822  11.332   6.509   4.617 -0.3878  0.1872  0.5678
  651MOL0     H87823  11.507   6.491   4.649 -0.4566 -0.8452 -0.4512
  651MOL0     H87824  11.453   6.268   4.621  0.9499  2.6303  2.2448
  651MOL0     H87825  11.497   6.316   4.454  1.5824  0.7720  1.5029
  651MOL0     H87826  11.220   6.271   4.563  1.2680 -0.2148  0.8308
  651MOL0     H87827  11.237   6.392   4.448  0.0817 -1.2870 -2.9642
  651MOL0     H87828  11.175   6.207   4.332  0.1687  0.1700  1.1061
  651MOL0     H87829  11.341   6.228   4.279  3.2213  0.2771  3.4901
  651MOL0     H87830  11.406   6.070   4.457 -0.7699  1.4705  1.6762
  651MOL0     H87831  11.230   6.029   4.466 -0.1824 -0.1693 -1.8108
  651MOL0     H87832  11.387   5.886   4.287 -1.6133 -2.2796  1.9930
  651MOL0     H87833  11.327   6.029   4.191 -2.5952 -0.3445 -0.1046
  651MOL0     H87834  11.137   5.855   4.346 -1.4163  0.2455 -0.7234
  651MOL0     H87835  11.108   6.011   4.268 -2.3043  0.0443  0.6699
  651MOL0     H87836  11.256   5.685   4.126 -0.3346  0.5755  2.4623
  651MOL0     H87837  11.163   5.716   3.737 -0.5380 -4.3282 -1.3091
  651MOL0     H87838  11.309   5.656   3.816  0.9648  2.7640 -0.9376
  651MOL0     H87839  11.141   5.476   3.776 -1.5953  0.1358 -1.0678
  651MOL0     H87840  11.169   5.501   3.943  2.1418 -0.0664 -2.4438
  651MOL0     H87841  10.974   5.642   3.953 -1.6114  1.5538 -1.3914
  651MOL0     H87842  10.920   5.482   3.891 -1.2508  0.0813  1.1171
  651MOL0     H87843  10.942   5.598   3.657  1.6201 -0.6999  0.4936
  651MOL0     H87844  10.940   5.752   3.739 -0.9588  1.5676  1.5895
  651MOL0     H87845  10.862   5.871   3.907  0.4083 -0.1235  2.1742
  651MOL0     H87846  10.727   5.970   4.080  0.5009  0.5114 -1.9760
  651MOL0     H87847  10.265   6.087   4.198  0.9555  0.1159 -1.0618
  651MOL0     H87848  10.128   6.219   4.337 -0.4231 -1.6611  0.2903
  651MOL0     H87849  10.128   6.365   4.740 -0.2821 -0.6776  0.4717
  651MOL0     H87850  10.282   6.304   4.729 -0.6088  0.8214  0.5078
  651MOL0     H87851  10.367   6.524   4.634 -0.8688 -1.0736 -0.1600
  651MOL0     H87852  10.193   6.573   4.653  0.3337  1.3189  0.2799
  651MOL0     H87853  10.310   6.659   4.846  1.1135  0.4859 -3.0225
  651MOL0     H87854  10.221   6.532   4.904  0.0747 -1.5522  1.1749
  651MOL0     H87855  10.510   6.526   4.809  0.8250  1.1660  0.6980
  651MOL0     H87856  10.426   6.374   4.870 -1.3432  0.0258 -1.5703
  651MOL0     H87857  10.394   6.546   5.070 -0.8745 -0.5559 -1.2114
  651MOL0     H87858  10.539   6.625   5.011 -0.0982 -0.0297  0.9640
  651MOL0     H87859  10.506   6.318   5.053  1.7429 -0.8243 -0.7090
  651MOL0     H87860  10.658   6.398   5.011  0.8444  2.7954  2.2782
  651MOL0     H87861  10.614   6.542   5.227  2.2782 -0.0168 -2.3581
  651MOL0     H87862  10.701   6.394   5.227  0.2268  0.8561 -2.6981
  651MOL0     H87863  10.492   6.427   5.395 -2.3437 -2.6611  1.7602
  651MOL0     H87864  10.405   6.366   5.252  0.4766 -1.7672 -0.1519
  651MOL0     H87865  10.467   6.296   4.592  1.8050  1.9254 -1.0656
  651MOL0     H87866  10.603   6.141   4.450  0.1217  0.2490 -0.6028
  651MOL0     H87867  10.425   5.667   4.060 -2.8088  3.1850 -2.7599
  651MOL0     H87868  10.564   5.557   3.866  0.0883 -0.1234  0.8849
  651MOL0     H87869  11.511   6.972   4.484  1.8600 -1.9228 -0.2142
  651MOL0     H87870  11.462   7.119   4.331 -2.1735 -1.1975  1.1441
  651MOL0     H87871  11.616   7.224   3.944  1.4345  6.0696  1.6713
  651MOL0     H87872  11.697   7.394   3.775  0.6413 -0.6168  2.0304
  651MOL0     H87873  11.405   7.565   3.593  0.5009 -2.4668  0.8588
  651MOL0     H87874  11.479   7.587   3.431  2.0658  0.8037  0.0495
  651MOL0     H87875  11.493   7.780   3.537 -4.5483 -4.3328 -1.4729
  651MOL0     H87876  11.663   7.708   3.543  1.4710 -1.1267  1.1820
  651MOL0     H87877  11.621   7.807   3.763 -0.8527  2.1482 -3.0007
  651MOL0     H87878  11.584   7.629   3.778 -3.3162 -0.8015  0.5471
  651MOL0     H87879  11.404   7.870   3.760  0.3944 -0.7201 -3.8101
  651MOL0     H87880  11.337   7.702   3.773  0.5950 -0.7526 -2.0281
  651MOL0     H87881  11.442   7.760   4.173  0.5784  1.3189 -0.1474
  651MOL0     H87882  11.323   7.356   3.564  0.8902  4.0695  0.7646
  651MOL0     H87883  11.215   7.081   3.652 -2.9735 -0.4521  1.2193
  651MOL0     H87884  11.174   7.132   3.807 -3.5284  0.7318 -0.7143
  651MOL0     H87885  11.149   7.252   3.680  4.1637  4.6229 -0.1417
  652MOL0     O87886  10.299   9.710   2.235 -0.4162  0.3894  0.9662
  652MOL0     C87887  10.242   9.797   2.296  0.5376  0.6964  0.2221
  652MOL0     O87888  10.132   9.850   2.259 -0.7414  0.3618 -1.1138
  652MOL0     C87889  10.047   9.785   2.173  0.0692 -0.8232 -0.2056
  652MOL0     C87890   9.984   9.857   2.069 -0.7577 -0.1214 -0.2897
  652MOL0     C87891   9.893   9.802   1.979 -0.4233  0.4766  0.3604
  652MOL0     C87892   9.857   9.669   2.002 -0.5165  0.6752  1.0897
  652MOL0     O87893   9.759   9.596   1.929 -0.1335  0.8098 -0.0224
  652MOL0     C87894   9.698   9.655   1.818  0.5364 -0.4142  0.9489
  652MOL0     C87895   9.659   9.551   1.709 -0.3001  0.3671  0.4132
  652MOL0     C87896   9.783   9.463   1.666  0.2493  0.2054 -0.1359
  652MOL0     C87897   9.798   9.422   1.521  0.0795 -0.4469  0.4877
  652MOL0     C87898   9.926   9.340   1.503 -0.5066 -1.5426 -0.9962
  652MOL0     C87899   9.902   9.196   1.566  0.2819 -0.9910 -0.0093
  652MOL0     C87900  10.040   9.137   1.588  0.6758 -0.3891 -0.8808
  652MOL0     C87901  10.130   9.134   1.471 -0.1432  0.2881  0.2266
  652MOL0     N87902  10.230   9.025   1.491  0.4916  0.2244 -0.4855
  652MOL0     C87903  10.211   8.891   1.490  1.1020  1.0069  0.5831
  652MOL0     C87904  10.334   8.830   1.470 -0.0252 -0.6144 -0.1479
  652MOL0     C87905  10.347   8.682   1.501  0.2787  0.5507 -0.4391
  652MOL0     C87906  10.450   8.599   1.432  0.4659 -0.0735  0.7286
  652MOL0     C87907  10.455   8.455   1.480 -0.2430 -0.1494  0.0492
  652MOL0     C87908  10.575   8.393   1.404 -0.3077  0.6046  0.0265
  652MOL0     O87909  10.585   8.255   1.443  0.9666 -0.2239 -0.2293
  652MOL0     C87910  10.673   8.215   1.541 -0.5358  0.3382 -0.0514
  652MOL0     C87911  10.661   8.086   1.586  0.5537  0.4139 -0.2341
  652MOL0     C87912  10.751   8.017   1.678  1.0141 -0.1563  0.1884
  652MOL0     C87913  10.843   8.101   1.746  0.4202  0.1932 -0.0930
  652MOL0     C87914  10.944   8.056   1.847  0.2819  0.8910  0.0101
  652MOL0     O87915  10.924   7.928   1.898 -0.1282  0.4555 -0.0698
  652MOL0     C87916  11.032   7.889   1.986  0.6786  0.5902  0.3857
  652MOL0     C87917  11.129   7.805   1.938 -0.0495 -0.1164 -0.9550
  652MOL0     C87918  11.240   7.764   2.014  0.1308 -0.1988 -0.3129
  652MOL0     C87919  11.249   7.812   2.145  0.7746 -1.0012 -0.2506
  652MOL0     O87920  11.362   7.811   2.216 -0.6682 -0.2059 -0.0731
  652MOL0     C87921  11.494   7.772   2.156  0.4269  0.3608 -0.0866
  652MOL0     C87922  11.541   7.877   2.067  0.0113  0.7775  0.6649
  652MOL0     C87923  11.662   7.959   2.128  0.6814  0.1978  0.2178
  652MOL0     C87924  11.794   7.890   2.125 -0.4565  0.2315 -0.4031
  652MOL0     C87925  11.911   7.979   2.178 -0.3973  0.2656  0.1140
  652MOL0     C87926  12.053   7.918   2.164  0.3973  0.9350 -0.2291
  652MOL0     C87927  12.161   7.982   2.254  0.2402  0.4974  0.1525
  652MOL0     C87928  12.290   7.893   2.270 -0.0318 -0.6773  1.1972
  652MOL0    Cl87929  12.397   7.974   2.376 -0.1639 -0.1307 -0.5492
  652MOL0     C87930  11.151   7.901   2.193  0.9819 -0.2156 -0.7140
  652MOL0     C87931  11.039   7.939   2.118  0.1421 -0.7724  0.0522
  652MOL0     O87932  11.038   8.129   1.880  0.0199 -0.1845 -0.3255
  652MOL0     C87933  10.846   8.234   1.709  0.1843  0.9068  0.3620
  652MOL0     C87934  10.760   8.290   1.614 -0.6244  0.7634 -0.0502
  652MOL0     N87935  10.423   8.929   1.463  0.5604 -0.4855  0.6028
  652MOL0     N87936  10.368   9.039   1.479  0.1093 -0.0577  0.0118
  652MOL0     C87937   9.916   9.596   2.102 -0.7471  0.2099 -1.0930
  652MOL0     C87938  10.005   9.657   2.185 -0.5098 -0.1124  0.0682
  652MOL0     C87939  10.287   9.849   2.420 -0.3792 -0.1334 -0.0168
  652MOL0     C87940  10.191   9.915   2.514 -0.0591 -0.1945 -0.0366
  652MOL0     C87941  10.227   9.977   2.631  0.2701 -0.2464 -0.6465
  652MOL0     C87942  10.359   9.965   2.680 -0.1006  0.1488  1.0629
  652MOL0     O87943  10.403  10.004   2.804  0.0667  0.0153  0.2615
  652MOL0     C87944  10.451   9.901   2.891 -0.3532  0.4519  0.7577
  652MOL0     C87945  10.448   9.934   3.034  0.0901 -0.0409  0.6843
  652MOL0     C87946  10.484   9.817   3.129 -0.2292 -0.4723 -0.0174
  652MOL0     C87947  10.395   9.693   3.114 -0.2628 -0.3226 -0.6365
  652MOL0     C87948  10.253   9.730   3.145 -0.3495 -0.0406 -0.0519
  652MOL0     C87949  10.134   9.715   3.161  0.3334  0.8503 -0.2140
  652MOL0     C87950  10.452   9.910   2.583  0.5488  0.0833 -0.2224
  652MOL0     C87951  10.423   9.857   2.457 -0.3510  0.4195 -0.5358
  652MOL0     C87952  10.534   9.809   2.360  0.1699 -0.4573  0.0762
  652MOL0     H87953  10.006   9.963   2.062  0.6393 -0.2430  1.4497
  652MOL0     H87954   9.834   9.858   1.908 -1.5057  0.6295  1.3608
  652MOL0     H87955   9.607   9.711   1.843  0.3140 -1.1938  1.9787
  652MOL0     H87956   9.767   9.726   1.772 -3.5288  1.6995 -2.7133
  652MOL0     H87957   9.610   9.609   1.630 -0.7313 -2.1415 -1.2929
  652MOL0     H87958   9.587   9.481   1.752 -0.5991  0.8321  0.6765
  652MOL0     H87959   9.780   9.371   1.723  2.0441 -0.1466 -0.5380
  652MOL0     H87960   9.873   9.518   1.696 -0.1351  1.4368 -1.1088
  652MOL0     H87961   9.709   9.371   1.483 -0.3919  1.2272 -0.7900
  652MOL0     H87962   9.788   9.510   1.457  0.2002  0.1526  1.2698
  652MOL0     H87963   9.961   9.331   1.400  0.4708  1.5776 -1.0414
  652MOL0     H87964  10.009   9.393   1.552  0.9145 -2.7755 -1.9699
  652MOL0     H87965   9.838   9.191   1.655 -0.8657 -0.0320 -0.7452
  652MOL0     H87966   9.846   9.139   1.491  2.0446 -1.0853 -1.3012
  652MOL0     H87967  10.022   9.035   1.624 -0.1518 -0.1388 -0.5605
  652MOL0     H87968  10.097   9.192   1.664  0.1585 -1.2485  0.1652
  652MOL0     H87969  10.075   9.118   1.378 -2.3863  5.5872  0.3116
  652MOL0     H87970  10.188   9.224   1.448 -1.1860  0.7024 -0.8647
  652MOL0     H87971  10.116   8.840   1.501  0.5370  1.4393 -1.6941
  652MOL0     H87972  10.357   8.679   1.610 -1.9507 -0.4383 -0.2065
  652MOL0     H87973  10.255   8.629   1.474  0.3466  1.7571 -3.4718
  652MOL0     H87974  10.457   8.612   1.323 -0.1820  2.9642  0.9481
  652MOL0     H87975  10.539   8.652   1.466 -0.6906  1.6924  1.1464
  652MOL0     H87976  10.373   8.387   1.454 -0.1976  0.0513 -0.6551
  652MOL0     H87977  10.467   8.468   1.588 -2.3453 -0.3099  0.3355
  652MOL0     H87978  10.663   8.451   1.432 -2.3884  2.0550  4.4850
  652MOL0     H87979  10.561   8.385   1.296  0.9576 -1.3125 -0.0473
  652MOL0     H87980  10.588   8.026   1.533  0.9414 -1.1156  0.8661
  652MOL0     H87981  10.732   7.912   1.699 -1.1287 -0.1508 -1.3888
  652MOL0     H87982  11.127   7.756   1.841 -1.5871 -0.7624 -0.6291
  652MOL0     H87983  11.311   7.689   1.983  2.9137  1.4970  1.5112
  652MOL0     H87984  11.565   7.767   2.239  1.3837 -1.8317 -0.9782
  652MOL0     H87985  11.492   7.671   2.113 -0.7411 -0.3866  1.5899
  652MOL0     H87986  11.575   7.839   1.970 -0.7015  2.3340 -0.2320
  652MOL0     H87987  11.461   7.949   2.046 -0.9976 -0.6511 -0.6378
  652MOL0     H87988  11.662   8.055   2.076 -2.0705  2.5158  4.0308
  652MOL0     H87989  11.641   7.985   2.232  0.7784  1.3727 -0.0498
  652MOL0     H87990  11.827   7.853   2.028 -1.8997  1.5792 -1.4561
  652MOL0     H87991  11.790   7.802   2.191 -0.9476  0.5610  0.0194
  652MOL0     H87992  11.887   8.004   2.282  0.6304  2.1118 -0.0485
  652MOL0     H87993  11.913   8.076   2.127 -2.0910 -0.4459 -1.4490
  652MOL0     H87994  12.040   7.812   2.188  1.2855  0.3662 -2.1454
  652MOL0     H87995  12.095   7.917   2.064  0.0115  2.1650 -0.4207
  652MOL0     H87996  12.119   7.999   2.354  1.1240  0.5001  0.5279
  652MOL0     H87997  12.188   8.078   2.210 -0.9986  1.2133  0.8807
  652MOL0     H87998  12.268   7.796   2.316  1.0269 -0.2922  2.5919
  652MOL0     H87999  12.329   7.865   2.173  0.0506  3.1612 -0.0433
  652MOL0     H88000  11.155   7.933   2.297  2.8425  2.6237 -1.5450
  652MOL0     H88001  10.970   8.014   2.153 -1.0305 -1.4922 -0.6425
  652MOL0     H88002  10.921   8.306   1.739  1.0672 -0.0896  0.6381
  652MOL0     H88003  10.747   8.398   1.619  0.2469  0.8376  2.8781
  652MOL0     H88004   9.911   9.488   2.118 -0.9375  0.4827  0.8850
  652MOL0     H88005  10.044   9.586   2.257 -2.4706 -1.3206  0.0118
  652MOL0     H88006  10.089   9.927   2.481 -0.2815 -1.6840  0.0529
  652MOL0     H88007  10.150  10.026   2.688  0.3679  1.1190 -1.6355
  652MOL0     H88008  10.550   9.886   2.845 -1.4944  0.6041 -1.9490
  652MOL0     H88009  10.394   9.812   2.864 -2.2383  2.2948 -1.8519
  652MOL0     H88010  10.350   9.975   3.062  0.6549  1.5542  0.4512
  652MOL0     H88011  10.513  10.019   3.057  0.4787 -0.3595  0.7733
  652MOL0     H88012  10.459   9.856   3.228 -2.7825  0.9718 -1.1279
  652MOL0     H88013  10.591   9.795   3.126 -0.3628 -1.2894  0.8276
  652MOL0     H88014  10.405   9.645   3.016 -2.9042 -0.3504 -0.9661
  652MOL0     H88015  10.437   9.614   3.178  3.0339  0.5806 -1.4898
  652MOL0     H88016  10.028   9.702   3.160  0.4483 -0.1631 -0.1009
  652MOL0     H88017  10.554   9.920   2.619  1.1973 -0.4555 -1.8189
  652MOL0     H88018  10.539   9.881   2.278  0.0992  0.8085  1.1407
  652MOL0     H88019  10.628   9.830   2.412  0.5428 -3.4221  0.8027
  652MOL0     H88020  10.531   9.708   2.317 -0.6409 -0.2039 -0.4829
  653MOL0     O88021   8.942   9.857   2.568  0.7312  0.3050  0.2281
  653MOL0     C88022   8.974   9.966   2.522 -0.3883  0.6939 -0.3160
  653MOL0     O88023   8.934  10.091   2.562  0.2569  0.3093 -0.3991
  653MOL0     C88024   8.844  10.079   2.663 -0.7580 -0.0927 -0.5069
  653MOL0     C88025   8.709  10.085   2.642  0.6546  0.1195 -0.3003
  653MOL0     C88026   8.615  10.065   2.741  0.0782 -0.4279 -0.1340
  653MOL0     C88027   8.657  10.031   2.872 -0.4210 -0.4563 -0.4953
  653MOL0     O88028   8.556   9.982   2.957 -0.3934  0.5365  0.4413
  653MOL0     C88029   8.555  10.057   3.079  0.5134 -0.6185 -0.0437
  653MOL0     C88030   8.411  10.103   3.107 -0.6718  0.7513 -0.7049
  653MOL0     C88031   8.351  10.176   2.983 -0.4360  0.2948 -0.3316
  653MOL0     C88032   8.247  10.276   3.022 -0.3338  0.4382 -1.1715
  653MOL0     C88033   8.117  10.202   3.067 -0.0779  0.7098  0.3400
  653MOL0     C88034   8.000  10.303   3.098 -0.1099  0.4454 -0.4966
  653MOL0     C88035   7.871  10.232   3.125  0.0428 -0.1031  0.2146
  653MOL0     C88036   7.758  10.326   3.178  0.0486  0.6791  0.6602
  653MOL0     N88037   7.626  10.278   3.137 -0.6712  0.3762  0.4785
  653MOL0     C88038   7.579  10.270   3.009 -0.7579  0.1279 -0.8320
  653MOL0     C88039   7.450  10.233   3.029  0.2378  0.1477 -1.0280
  653MOL0     C88040   7.354  10.202   2.914 -0.6112 -0.4749  0.1338
  653MOL0     C88041   7.383  10.070   2.842  0.7525  0.7308  0.1974
  653MOL0     C88042   7.352   9.959   2.949 -0.2707 -0.7854 -0.2260
  653MOL0     C88043   7.433   9.837   2.938  0.6097 -0.5767 -0.1077
  653MOL0     O88044   7.378   9.728   3.020  0.7008 -0.3855 -0.0874
  653MOL0     C88045   7.368   9.594   2.972  0.0063 -0.1254  0.8333
  653MOL0     C88046   7.460   9.536   2.893  0.7938 -0.4022  0.5397
  653MOL0     C88047   7.463   9.390   2.877  1.3444 -0.5645 -0.3491
  653MOL0     C88048   7.347   9.327   2.913  0.9061 -0.3860  0.0847
  653MOL0     C88049   7.318   9.192   2.855 -0.0752 -0.8516 -0.6288
  653MOL0     O88050   7.190   9.147   2.881 -0.2791 -0.2938  0.3056
  653MOL0     C88051   7.153   9.019   2.838  0.7687  0.5426  0.7307
  653MOL0     C88052   7.235   8.905   2.830  0.2723 -0.5882  0.0728
  653MOL0     C88053   7.183   8.787   2.773 -0.0403 -0.5625 -0.3713
  653MOL0     C88054   7.051   8.773   2.742  0.3782 -0.4703 -0.2620
  653MOL0     O88055   7.004   8.656   2.684  0.1744 -0.1677  0.8798
  653MOL0     C88056   6.886   8.589   2.737  0.3981  0.6162  0.7370
  653MOL0     C88057   6.905   8.545   2.884  0.6179  0.7801  0.8179
  653MOL0     C88058   6.801   8.438   2.923  0.1478 -0.6258 -0.1495
  653MOL0     C88059   6.833   8.372   3.055 -0.8019 -0.0108 -0.6787
  653MOL0     C88060   6.738   8.252   3.091 -0.2699  0.4713  0.0485
  653MOL0     C88061   6.788   8.125   3.016 -0.3796  0.7295  0.0260
  653MOL0     C88062   6.706   7.998   3.032  0.6190  0.6279  0.1832
  653MOL0     C88063   6.772   7.862   3.003 -0.6200 -0.9325 -0.3571
  653MOL0    Cl88064   6.660   7.722   3.003 -0.0467  0.2892 -0.9141
  653MOL0     C88065   6.962   8.880   2.769  0.4567  0.4843  0.1000
  653MOL0     C88066   7.017   8.996   2.810  0.2167  0.5204 -0.2325
  653MOL0     O88067   7.411   9.131   2.799 -0.2087  0.1185 -0.2797
  653MOL0     C88068   7.254   9.392   2.989 -0.0465 -0.1229 -1.8400
  653MOL0     C88069   7.262   9.525   3.019 -0.0630 -0.6346 -0.0670
  653MOL0     N88070   7.424  10.218   3.165  0.2588 -0.2127 -0.2961
  653MOL0     N88071   7.528  10.255   3.226 -0.3626 -0.5064  0.2961
  653MOL0     C88072   8.797  10.027   2.903 -0.1780 -0.3849  0.3595
  653MOL0     C88073   8.890  10.052   2.794 -0.3238  0.0932 -0.4971
  653MOL0     C88074   9.050   9.969   2.391  0.3429  0.1547  0.1727
  653MOL0     C88075   9.130  10.084   2.372 -0.0710 -0.2128 -0.5266
  653MOL0     C88076   9.188  10.120   2.254 -0.4768 -0.5074  0.0521
  653MOL0     C88077   9.185  10.016   2.146 -0.0579 -0.1949 -0.2915
  653MOL0     O88078   9.233  10.026   2.017 -0.2264 -0.3196  0.0860
  653MOL0     C88079   9.271  10.150   1.956 -0.3996  0.2986  0.2174
  653MOL0     C88080   9.412  10.137   1.891 -0.0793 -0.2342 -0.4511
  653MOL0     C88081   9.415  10.034   1.779  0.5546  0.8371 -0.4904
  653MOL0     C88082   9.304  10.029   1.676 -0.0344 -0.1526  0.1839
  653MOL0     C88083   9.350   9.963   1.556 -0.0815  0.2771 -0.3159
  653MOL0     C88084   9.393   9.920   1.442 -0.5702  0.1921 -0.5759
  653MOL0     C88085   9.113   9.900   2.170  0.9830  1.0580  0.0502
  653MOL0     C88086   9.046   9.876   2.286  0.5543 -0.1993  0.1708
  653MOL0     C88087   8.964   9.753   2.304 -0.5904 -0.4532 -0.7177
  653MOL0     H88088   8.679  10.099   2.538  0.3140  1.8782  0.0081
  653MOL0     H88089   8.511  10.060   2.710  0.2494 -0.0331 -0.7924
  653MOL0     H88090   8.577   9.989   3.162 -0.5201  0.8063  1.4581
  653MOL0     H88091   8.626  10.139   3.067 -0.8237  0.4969 -0.6220
  653MOL0     H88092   8.411  10.158   3.202 -3.2580 -1.6632  0.8455
  653MOL0     H88093   8.356  10.015   3.140 -0.8173  1.1166  0.0644
  653MOL0     H88094   8.328  10.103   2.906 -0.2881 -2.4351  2.0248
  653MOL0     H88095   8.439  10.229   2.945  0.1028 -1.5992 -1.8706
  653MOL0     H88096   8.290  10.326   3.109 -2.7192  1.6064 -0.5609
  653MOL0     H88097   8.230  10.345   2.939 -0.7874  0.7327 -0.8388
  653MOL0     H88098   8.071  10.139   2.990 -0.6738 -0.0923  1.3289
  653MOL0     H88099   8.133  10.147   3.160 -1.1836  2.4541  1.6305
  653MOL0     H88100   8.018  10.366   3.186 -2.1429 -0.5856  0.7367
  653MOL0     H88101   7.981  10.369   3.013 -3.3748 -0.7021 -0.8304
  653MOL0     H88102   7.885  10.157   3.203 -1.0565 -1.1311 -0.5432
  653MOL0     H88103   7.850  10.167   3.040  4.0057 -2.5546  0.8816
  653MOL0     H88104   7.766  10.347   3.285 -0.7658  1.8180  0.5125
  653MOL0     H88105   7.758  10.420   3.122 -1.3138 -0.2407 -0.9780
  653MOL0     H88106   7.629  10.264   2.913  0.6387 -3.2868 -0.0499
  653MOL0     H88107   7.259  10.193   2.967  0.6226 -0.4800  2.5026
  653MOL0     H88108   7.360  10.286   2.844  1.3595  0.2117  1.0582
  653MOL0     H88109   7.316  10.056   2.758 -0.9038 -1.9643  1.7881
  653MOL0     H88110   7.486  10.062   2.806  0.4892 -1.6343 -0.2324
  653MOL0     H88111   7.246   9.932   2.947 -0.5625  0.2651 -2.5535
  653MOL0     H88112   7.376   9.996   3.049 -2.4353  1.3824 -0.4114
  653MOL0     H88113   7.540   9.850   2.960  0.2970  1.7882  0.2420
  653MOL0     H88114   7.418   9.801   2.836  2.1423  3.0164 -1.7827
  653MOL0     H88115   7.547   9.581   2.845  0.3897  0.6186  0.7419
  653MOL0     H88116   7.543   9.358   2.810  0.7846 -3.3493  0.1762
  653MOL0     H88117   7.336   8.915   2.869 -0.3993  2.1078  1.3991
  653MOL0     H88118   7.245   8.705   2.738  0.4504 -1.0833  1.5634
  653MOL0     H88119   6.793   8.644   2.725  0.9094  1.4728  0.6210
  653MOL0     H88120   6.871   8.500   2.675 -0.6782  1.3311 -0.0515
  653MOL0     H88121   7.007   8.506   2.897 -0.0554 -0.0776  4.5067
  653MOL0     H88122   6.894   8.635   2.945  2.2874  1.4559  0.1886
  653MOL0     H88123   6.709   8.496   2.933  1.0966  1.2556 -1.6296
  653MOL0     H88124   6.786   8.370   2.838 -2.7770 -0.0562 -0.1910
  653MOL0     H88125   6.821   8.446   3.134  3.9466  0.3474  0.0271
  653MOL0     H88126   6.936   8.336   3.057  0.9741  4.4050 -0.4752
  653MOL0     H88127   6.639   8.287   3.058 -0.3064 -0.5979 -1.0340
  653MOL0     H88128   6.736   8.231   3.198 -1.9123  1.9425  0.3481
  653MOL0     H88129   6.779   8.142   2.909  0.8251 -2.4319 -0.6899
  653MOL0     H88130   6.893   8.104   3.040 -0.9925 -0.8659  1.4774
  653MOL0     H88131   6.615   8.002   2.972  1.6887  0.8092 -1.4985
  653MOL0     H88132   6.667   8.005   3.134 -1.7993 -0.6928 -0.5696
  653MOL0     H88133   6.796   7.878   2.897 -0.8739  3.8248  0.0789
  653MOL0     H88134   6.858   7.832   3.063 -0.3130 -1.4937 -1.0604
  653MOL0     H88135   6.860   8.868   2.735  1.2770  0.3914 -2.5057
  653MOL0     H88136   6.960   9.087   2.822  0.1114  0.2450  1.7115
  653MOL0     H88137   7.159   9.345   3.012 -1.0454  2.3922 -0.5147
  653MOL0     H88138   7.185   9.574   3.077  0.9006  0.3566  0.4185
  653MOL0     H88139   8.838  10.014   3.003  0.0683  0.6753  0.4127
  653MOL0     H88140   8.998  10.045   2.806 -0.2845 -1.3435 -1.4811
  653MOL0     H88141   9.166  10.153   2.448  3.2896  0.1074 -2.2494
  653MOL0     H88142   9.232  10.219   2.239 -0.5293 -0.3145  1.0956
  653MOL0     H88143   9.266  10.233   2.027  0.3925 -2.6773  4.0994
  653MOL0     H88144   9.206  10.165   1.870  3.4970  2.3722 -2.6733
  653MOL0     H88145   9.487  10.102   1.962 -0.6526 -1.5852 -0.4650
  653MOL0     H88146   9.437  10.235   1.849 -2.9374  1.2753  1.0611
  653MOL0     H88147   9.428   9.940   1.832 -1.3538  0.8681  0.1159
  653MOL0     H88148   9.516  10.040   1.739  0.6581 -5.8086 -2.2503
  653MOL0     H88149   9.208   9.994   1.713 -2.0903  2.5236 -2.1898
  653MOL0     H88150   9.286  10.131   1.642 -2.6363  0.1069  2.1365
  653MOL0     H88151   9.416   9.864   1.355 -2.1812 -1.0914 -0.2096
  653MOL0     H88152   9.107   9.822   2.095 -2.2855 -0.9176  2.1294
  653MOL0     H88153   8.868   9.776   2.351 -0.4499  1.0986 -1.1298
  653MOL0     H88154   8.951   9.709   2.205 -1.1487 -1.1114 -0.3618
  653MOL0     H88155   9.009   9.679   2.371 -3.2226 -0.3924  1.2924
  654MOL0     O88156   9.455   9.127   7.130  0.3086  0.6597  0.4513
  654MOL0     C88157   9.511   9.051   7.052  0.6209  0.0503  0.9854
  654MOL0     O88158   9.642   9.025   7.051  0.5629  0.3991  0.1312
  654MOL0     C88159   9.731   9.111   7.116  0.2022  0.3551  0.1022
  654MOL0     C88160   9.848   9.052   7.171  0.3738 -0.2021  0.1541
  654MOL0     C88161   9.953   9.128   7.233 -0.1865 -0.3520 -0.5577
  654MOL0     C88162   9.943   9.267   7.219  0.1035 -0.2529 -1.1077
  654MOL0     O88163  10.035   9.349   7.278  0.6408  0.9303 -0.3497
  654MOL0     C88164  10.164   9.292   7.287 -0.1758  0.7020 -0.6207
  654MOL0     C88165  10.258   9.388   7.357 -0.4224  0.5620 -0.1025
  654MOL0     C88166  10.394   9.341   7.328  0.3795  0.1558 -0.8351
  654MOL0     C88167  10.494   9.432   7.408 -0.1068 -0.2330 -0.3041
  654MOL0     C88168  10.469   9.463   7.563  0.0257 -0.7239 -0.8505
  654MOL0     C88169  10.601   9.507   7.629  1.0251 -0.0438 -0.1928
  654MOL0     C88170  10.576   9.560   7.761 -0.2142 -1.0688  0.4627
  654MOL0     C88171  10.574   9.718   7.768  0.4173  0.6114  0.2173
  654MOL0     N88172  10.454   9.773   7.701 -0.6344  0.8076 -0.1518
  654MOL0     C88173  10.326   9.764   7.744 -0.5657 -0.0254  0.4062
  654MOL0     C88174  10.256   9.786   7.633  0.2686 -0.0071 -0.6503
  654MOL0     C88175  10.103   9.767   7.637  0.1728 -0.0947 -0.2586
  654MOL0     C88176  10.076   9.616   7.618 -0.9580 -0.4086  0.4667
  654MOL0     C88177   9.932   9.579   7.589  0.4415  0.0078  0.2840
  654MOL0     C88178   9.904   9.428   7.583 -0.2284  0.5535 -0.8868
  654MOL0     O88179   9.763   9.416   7.561 -0.4911 -0.0365  0.0442
  654MOL0     C88180   9.695   9.294   7.544 -1.1435 -0.7001  0.9655
  654MOL0     C88181   9.572   9.284   7.476 -0.4488 -0.7788  0.1193
  654MOL0     C88182   9.501   9.167   7.441 -0.9218 -0.5462 -0.6513
  654MOL0     C88183   9.562   9.039   7.475 -0.4434 -0.0558 -0.0994
  654MOL0     C88184   9.514   8.898   7.429  0.1656 -0.0119 -0.7765
  654MOL0     O88185   9.410   8.891   7.337 -1.0411  0.2525  0.2150
  654MOL0     C88186   9.360   8.766   7.307 -0.8173  0.3112  1.0781
  654MOL0     C88187   9.327   8.741   7.167  0.8638 -0.5635 -0.6674
  654MOL0     C88188   9.265   8.614   7.136 -0.1156 -0.7480 -0.8778
  654MOL0     C88189   9.226   8.514   7.232 -0.6947 -0.5857  0.1817
  654MOL0     O88190   9.177   8.394   7.190  0.4049  0.3672 -0.3112
  654MOL0     C88191   9.145   8.300   7.296  0.2156  0.5913  0.0305
  654MOL0     C88192   9.077   8.177   7.242  0.9390 -0.1283  0.0391
  654MOL0     C88193   8.943   8.208   7.193 -0.4089  0.4064  0.5573
  654MOL0     C88194   8.866   8.082   7.133 -0.5834 -0.2933 -0.1613
  654MOL0     C88195   8.725   8.119   7.083 -0.3276  0.7188  0.0443
  654MOL0     C88196   8.642   7.989   7.075  0.2490 -0.7259  0.1567
  654MOL0     C88197   8.507   8.027   7.013  0.2164  0.1862 -0.6338
  654MOL0     C88198   8.518   8.018   6.866  0.3755  0.2741  0.2653
  654MOL0    Cl88199   8.351   7.982   6.807  0.1743  0.0857  0.6875
  654MOL0     C88200   9.247   8.557   7.364  0.4749  0.8047  0.3137
  654MOL0     C88201   9.301   8.679   7.398 -0.0508 -0.4440  0.5354
  654MOL0     O88202   9.571   8.807   7.479 -0.2263 -0.4473  0.6538
  654MOL0     C88203   9.682   9.052   7.542 -0.1366  0.1099 -0.0127
  654MOL0     C88204   9.753   9.171   7.577  0.1180 -0.6837 -0.9773
  654MOL0     N88205  10.330   9.853   7.538  0.2717  0.2797 -0.5823
  654MOL0     N88206  10.457   9.846   7.582 -0.3103  0.6275  0.8181
  654MOL0     C88207   9.825   9.328   7.163 -0.5866  1.1555  1.4310
  654MOL0     C88208   9.720   9.248   7.109  0.1075  0.2180  1.7967
  654MOL0     C88209   9.429   8.982   6.944 -0.6233  0.2583  0.4460
  654MOL0     C88210   9.305   9.040   6.908 -0.7336  0.5207 -0.4219
  654MOL0     C88211   9.233   8.994   6.798 -0.8570  0.8534  0.6431
  654MOL0     C88212   9.271   8.877   6.727  0.1750  1.0417  0.6738
  654MOL0     O88213   9.211   8.838   6.603  0.6101 -0.5679  0.1209
  654MOL0     C88214   9.259   8.726   6.531 -0.0778  0.4060  0.3216
  654MOL0     C88215   9.174   8.742   6.396 -0.1115  1.0742  0.7138
  654MOL0     C88216   9.025   8.757   6.406  0.4193  0.0700  0.5134
  654MOL0     C88217   8.967   8.751   6.265  0.9028  0.2777  0.8038
  654MOL0     C88218   9.011   8.850   6.168 -0.5543  0.4981  0.3626
  654MOL0     C88219   9.039   8.936   6.093 -0.6982 -0.9006 -0.2707
  654MOL0     C88220   9.386   8.815   6.772 -0.4946 -0.5180 -0.1895
  654MOL0     C88221   9.471   8.869   6.866  0.0158  0.3558  0.7928
  654MOL0     C88222   9.599   8.790   6.888  0.5514 -0.1582  0.0549
  654MOL0     H88223   9.837   8.944   7.167 -1.2365 -0.0280 -1.3658
  654MOL0     H88224  10.034   9.076   7.283 -0.0543  1.2794  1.0333
  654MOL0     H88225  10.157   9.201   7.346 -3.6964 -0.0356 -1.9680
  654MOL0     H88226  10.204   9.262   7.189 -1.4203 -1.8897 -0.4082
  654MOL0     H88227  10.240   9.386   7.465 -1.1630 -1.5664 -0.2164
  654MOL0     H88228  10.238   9.486   7.314 -1.6304  1.1885  1.8016
  654MOL0     H88229  10.425   9.354   7.223  1.1015 -0.6571 -0.7371
  654MOL0     H88230  10.408   9.234   7.341 -0.6614  0.3620  2.9031
  654MOL0     H88231  10.596   9.391   7.401  0.0992 -0.4021  2.5473
  654MOL0     H88232  10.505   9.523   7.349  2.3293 -1.3348 -1.7114
  654MOL0     H88233  10.390   9.536   7.583 -2.2702 -2.6868 -2.1541
  654MOL0     H88234  10.408   9.386   7.612 -4.6592  1.7199 -2.2849
  654MOL0     H88235  10.641   9.405   7.638  0.9099 -0.0131  0.7497
  654MOL0     H88236  10.665   9.583   7.584  1.2636 -0.3235 -0.3311
  654MOL0     H88237  10.663   9.529   7.820  1.6370  1.4522 -0.7151
  654MOL0     H88238  10.492   9.523   7.820  0.7502 -0.7655  2.1153
  654MOL0     H88239  10.558   9.739   7.874 -1.7486  0.1956  0.0248
  654MOL0     H88240  10.668   9.755   7.726  0.5834 -1.1049 -1.0410
  654MOL0     H88241  10.299   9.724   7.840  1.1506 -0.0751  0.9094
  654MOL0     H88242  10.057   9.795   7.733  1.7321 -1.3466  0.9068
  654MOL0     H88243  10.060   9.819   7.551  1.7085  1.3618 -0.1924
  654MOL0     H88244  10.143   9.560   7.553  2.6428  0.4242  3.1785
  654MOL0     H88245  10.097   9.583   7.720 -0.3563 -1.0242  0.1470
  654MOL0     H88246   9.900   9.621   7.493  1.3379  0.6142  0.2401
  654MOL0     H88247   9.874   9.616   7.674  0.8498  2.2248 -0.3297
  654MOL0     H88248   9.933   9.383   7.678 -4.6232 -1.5642 -0.3170
  654MOL0     H88249   9.958   9.384   7.498 -2.7470  0.3084 -2.4716
  654MOL0     H88250   9.519   9.372   7.440 -1.4308 -1.8601 -1.1968
  654MOL0     H88251   9.409   9.160   7.383 -0.1500  0.9724 -2.1637
  654MOL0     H88252   9.344   8.820   7.095 -3.3340  0.0629 -1.2239
  654MOL0     H88253   9.248   8.582   7.034 -1.0278  0.0170 -0.9871
  654MOL0     H88254   9.235   8.269   7.350 -0.0376 -2.4265 -1.1035
  654MOL0     H88255   9.083   8.342   7.376  0.1502 -1.4280  1.1223
  654MOL0     H88256   9.139   8.142   7.159  0.7002  0.9053 -0.5899
  654MOL0     H88257   9.075   8.109   7.327  2.1443  2.3383  2.1864
  654MOL0     H88258   8.880   8.247   7.273 -0.2394 -3.0563  2.5953
  654MOL0     H88259   8.946   8.266   7.100  0.2460  0.7429  0.7874
  654MOL0     H88260   8.867   8.002   7.208 -2.1776  0.6017  0.8824
  654MOL0     H88261   8.914   8.025   7.053  1.1796 -0.9168  1.2698
  654MOL0     H88262   8.732   8.165   6.984  1.7182 -1.0242 -0.6966
  654MOL0     H88263   8.684   8.194   7.152  0.2526  0.4372  0.7035
  654MOL0     H88264   8.684   7.910   7.011 -1.2231 -0.4455 -1.2020
  654MOL0     H88265   8.631   7.942   7.173  0.6845  0.0957  0.6159
  654MOL0     H88266   8.462   8.123   7.039  0.4497  0.1793 -0.2056
  654MOL0     H88267   8.436   7.947   7.037  0.5780  0.0456 -0.0184
  654MOL0     H88268   8.557   8.115   6.834  1.1286  0.6174  2.1229
  654MOL0     H88269   8.600   7.957   6.827  1.1395  0.0026  2.2150
  654MOL0     H88270   9.207   8.496   7.444  0.8199  2.6423  1.9712
  654MOL0     H88271   9.320   8.707   7.501 -0.1801  2.2454 -0.0833
  654MOL0     H88272   9.721   8.961   7.585 -4.2637 -2.1611 -0.5679
  654MOL0     H88273   9.844   9.165   7.635  0.3963 -0.2096 -1.3605
  654MOL0     H88274   9.821   9.435   7.178  1.8374  1.3693  0.9658
  654MOL0     H88275   9.635   9.293   7.058  1.5082  0.1833 -0.7169
  654MOL0     H88276   9.277   9.125   6.969  0.1875 -0.3102  1.2227
  654MOL0     H88277   9.144   9.037   6.755 -0.9414  1.9391  1.8714
  654MOL0     H88278   9.236   8.635   6.586 -0.6826  1.2806  1.5606
  654MOL0     H88279   9.368   8.736   6.524 -0.1251  2.4619  1.7244
  654MOL0     H88280   9.200   8.664   6.323 -0.6033  0.7253  0.9032
  654MOL0     H88281   9.215   8.833   6.351  1.0037  0.7346  1.0143
  654MOL0     H88282   8.986   8.844   6.459 -1.7450 -1.0791  0.9307
  654MOL0     H88283   8.990   8.664   6.452  0.4667 -1.3084 -2.0461
  654MOL0     H88284   9.013   8.663   6.218 -0.1700 -0.5066  1.1599
  654MOL0     H88285   8.858   8.752   6.271  0.7660 -2.1061 -0.1081
  654MOL0     H88286   9.062   9.030   6.045 -1.2864  0.3073  1.7113
  654MOL0     H88287   9.415   8.725   6.718 -3.4568 -1.1478 -0.9327
  654MOL0     H88288   9.592   8.694   6.836  2.1599 -0.8926  1.1124
  654MOL0     H88289   9.684   8.839   6.839  1.1652  2.8143  3.6778
  654MOL0     H88290   9.616   8.771   6.994 -0.1792 -4.4822 -0.4216
  655MOL0     O88291   8.225   2.777   5.536 -0.0692  0.1161  0.6064
  655MOL0     C88292   8.170   2.883   5.501  0.3906  0.5165  0.9265
  655MOL0     O88293   8.082   2.888   5.390 -0.6262 -0.1623  0.2289
  655MOL0     C88294   8.092   2.813   5.272  0.0599 -0.0425  0.3049
  655MOL0     C88295   7.995   2.854   5.181 -0.0759 -0.8648  0.1118
  655MOL0     C88296   7.996   2.805   5.054 -0.1177  0.2054  0.0476
  655MOL0     C88297   8.090   2.701   5.018 -0.8042 -0.9124 -0.1556
  655MOL0     O88298   8.079   2.645   4.901 -0.2119 -0.1706 -0.1681
  655MOL0     C88299   8.050   2.501   4.907  0.9547 -0.2774 -0.0188
  655MOL0     C88300   8.041   2.436   4.768 -0.2179  0.1740 -0.0390
  655MOL0     C88301   8.176   2.460   4.693  0.5121  0.0822 -0.0378
  655MOL0     C88302   8.282   2.357   4.735 -0.8502 -0.2098  0.3955
  655MOL0     C88303   8.248   2.213   4.683  0.5226 -1.1307  0.5671
  655MOL0     C88304   8.333   2.101   4.730  0.4178 -0.8692  0.0710
  655MOL0     C88305   8.490   2.115   4.726  0.6718 -0.5163  0.1421
  655MOL0     C88306   8.538   2.078   4.590  0.0037 -0.3093  0.0306
  655MOL0     N88307   8.502   2.173   4.481  0.1336 -0.0471  0.2158
  655MOL0     C88308   8.559   2.301   4.461 -0.0006  1.2201  0.1965
  655MOL0     C88309   8.512   2.340   4.338 -0.1840  0.4605 -0.4550
  655MOL0     C88310   8.528   2.470   4.268 -0.2921 -0.1446  0.8045
  655MOL0     C88311   8.664   2.533   4.298 -0.5581  0.5188 -1.1041
  655MOL0     C88312   8.780   2.450   4.246  0.1240 -0.4516  0.5501
  655MOL0     C88313   8.908   2.466   4.322 -0.1703 -0.3323  0.0182
  655MOL0     O88314   9.011   2.421   4.239 -0.0875  0.1493 -0.1778
  655MOL0     C88315   9.130   2.431   4.301 -0.3475 -0.1106 -0.4705
  655MOL0     C88316   9.197   2.555   4.301  0.5214  0.2573  0.1389
  655MOL0     C88317   9.296   2.588   4.396  1.0313 -0.2662 -0.1143
  655MOL0     C88318   9.330   2.484   4.488 -0.3416 -0.6707 -0.3816
  655MOL0     C88319   9.421   2.507   4.598 -0.6736  0.6496  0.2602
  655MOL0     O88320   9.498   2.391   4.626 -0.8191  0.4579 -0.4466
  655MOL0     C88321   9.587   2.395   4.729 -0.8188  0.5191 -0.6649
  655MOL0     C88322   9.555   2.366   4.862 -0.4271  0.1423  0.8423
  655MOL0     C88323   9.660   2.363   4.960  0.2402  0.3757  0.3443
  655MOL0     C88324   9.786   2.406   4.927  0.4781  1.0280 -0.7905
  655MOL0     O88325   9.873   2.425   5.040  0.2141  0.3736  0.9311
  655MOL0     C88326  10.012   2.433   5.019  0.3918  0.0470 -0.6818
  655MOL0     C88327  10.064   2.573   5.027  0.3490 -1.3178 -0.4790
  655MOL0     C88328  10.088   2.625   5.169 -0.6317  0.2043  0.2098
  655MOL0     C88329  10.215   2.568   5.223  0.7364  0.2910 -0.5161
  655MOL0     C88330  10.239   2.613   5.363 -0.5317 -0.0419  0.8097
  655MOL0     C88331  10.356   2.546   5.426 -0.1011 -0.0294  0.9228
  655MOL0     C88332  10.366   2.580   5.572  0.4843 -0.4320 -0.4046
  655MOL0     C88333  10.489   2.524   5.636 -0.1701 -0.5466 -1.9128
  655MOL0    Cl88334  10.454   2.535   5.811  0.4717 -0.4478 -0.1150
  655MOL0     C88335   9.815   2.445   4.798 -0.3787 -0.3553 -0.8600
  655MOL0     C88336   9.714   2.430   4.699  0.6656  0.6050 -0.2501
  655MOL0     O88337   9.429   2.615   4.655 -0.4617  0.0607  0.3615
  655MOL0     C88338   9.273   2.360   4.480  0.7614  0.8423 -1.3342
  655MOL0     C88339   9.162   2.329   4.396 -0.0816  0.0549 -1.1298
  655MOL0     N88340   8.439   2.236   4.280  0.5851 -0.1070 -0.4200
  655MOL0     N88341   8.429   2.138   4.368  0.0047 -0.5592 -0.6795
  655MOL0     C88342   8.183   2.662   5.112  0.0271 -0.1394  0.1221
  655MOL0     C88343   8.186   2.710   5.239  0.1401 -0.7897 -0.5421
  655MOL0     C88344   8.191   3.011   5.583  0.5420  0.2283 -0.0817
  655MOL0     C88345   8.256   2.998   5.703 -0.2145  0.1164  0.6918
  655MOL0     C88346   8.292   3.109   5.784 -0.0512  0.1926  0.8866
  655MOL0     C88347   8.255   3.233   5.749  0.3805  0.1581  0.5438
  655MOL0     O88348   8.286   3.324   5.837  0.2091 -0.3736 -0.3452
  655MOL0     C88349   8.284   3.459   5.792  0.0154 -0.2457 -0.3292
  655MOL0     C88350   8.419   3.506   5.736  0.7271 -0.3615  0.5852
  655MOL0     C88351   8.406   3.662   5.724 -0.3507  0.3948  0.1171
  655MOL0     C88352   8.361   3.740   5.849 -0.3451  0.4649 -0.0196
  655MOL0     C88353   8.446   3.692   5.957 -0.1013  0.2558 -0.2506
  655MOL0     C88354   8.519   3.660   6.050  0.9333 -2.1972 -0.0863
  655MOL0     C88355   8.189   3.251   5.622  0.2858 -0.2837 -0.9279
  655MOL0     C88356   8.158   3.144   5.547  0.0149  0.3300  0.3288
  655MOL0     C88357   8.081   3.179   5.417  1.2924 -0.7252  0.3303
  655MOL0     H88358   7.908   2.915   5.203 -0.3460 -0.0089 -2.8371
  655MOL0     H88359   7.919   2.840   4.986 -1.4927  0.7422  1.7826
  655MOL0     H88360   8.126   2.457   4.973 -0.3699 -1.1966  0.9403
  655MOL0     H88361   7.953   2.499   4.958 -0.6369  0.1113 -2.8392
  655MOL0     H88362   7.964   2.489   4.712  0.7179 -0.6680 -2.2179
  655MOL0     H88363   8.015   2.329   4.770  2.1752 -0.4486  0.3796
  655MOL0     H88364   8.201   2.566   4.698 -0.7873  0.3739  0.7108
  655MOL0     H88365   8.151   2.440   4.589 -2.2069 -0.2839  0.6120
  655MOL0     H88366   8.379   2.385   4.692 -0.0889 -1.0673  1.5160
  655MOL0     H88367   8.277   2.361   4.844 -4.6975  6.6407  0.5442
  655MOL0     H88368   8.144   2.188   4.708  0.8420 -1.9304  1.1361
  655MOL0     H88369   8.268   2.217   4.576  2.9955 -3.6437  0.8225
  655MOL0     H88370   8.310   2.090   4.837 -2.2903  3.7997  0.2018
  655MOL0     H88371   8.293   2.008   4.689  0.9084 -0.2588 -1.8682
  655MOL0     H88372   8.528   2.034   4.790  0.7532 -1.2777 -0.8492
  655MOL0     H88373   8.518   2.217   4.754 -2.3314 -0.0016  1.6806
  655MOL0     H88374   8.645   2.058   4.582  0.1329 -0.0466  1.0628
  655MOL0     H88375   8.497   1.982   4.557  1.7424 -0.7640 -0.9515
  655MOL0     H88376   8.620   2.365   4.524  1.4008 -0.8304  1.0387
  655MOL0     H88377   8.512   2.460   4.160  4.0054 -2.5510  0.1650
  655MOL0     H88378   8.448   2.537   4.300  0.8983  1.0810  1.3128
  655MOL0     H88379   8.676   2.638   4.269  3.1834  1.1927  2.0230
  655MOL0     H88380   8.679   2.537   4.406 -2.3330  0.1344 -0.8095
  655MOL0     H88381   8.788   2.490   4.144  1.6243  1.1328  1.2389
  655MOL0     H88382   8.748   2.346   4.241  0.0908 -0.4351 -3.6383
  655MOL0     H88383   8.902   2.404   4.413  1.0779 -5.0786 -2.7558
  655MOL0     H88384   8.919   2.572   4.347 -0.9223 -0.8100  2.7173
  655MOL0     H88385   9.148   2.633   4.243  0.4480  1.0328  1.2227
  655MOL0     H88386   9.341   2.686   4.400 -1.6058  1.0832 -1.1780
  655MOL0     H88387   9.453   2.340   4.890 -0.2429  0.0038  1.4048
  655MOL0     H88388   9.635   2.332   5.060 -0.9123  0.1810  0.0102
  655MOL0     H88389  10.064   2.380   5.100 -1.4714  1.2532  1.4294
  655MOL0     H88390  10.037   2.372   4.932  0.0038 -1.4049  0.1705
  655MOL0     H88391  10.166   2.571   4.988  2.3934  0.7618  4.0303
  655MOL0     H88392   9.996   2.631   4.963 -0.8594 -0.4593  1.4943
  655MOL0     H88393  10.097   2.733   5.151  0.9519 -0.0281 -0.6196
  655MOL0     H88394  10.003   2.602   5.233  1.5507  1.1050  3.7201
  655MOL0     H88395  10.297   2.607   5.162  1.7432 -0.0352  0.6097
  655MOL0     H88396  10.222   2.461   5.202 -0.2610 -0.3002  1.8747
  655MOL0     H88397  10.147   2.588   5.417 -0.7306  0.0384  0.5087
  655MOL0     H88398  10.266   2.719   5.371 -0.1508 -0.1519  1.0416
  655MOL0     H88399  10.335   2.440   5.408 -3.0971  0.7900 -1.2044
  655MOL0     H88400  10.453   2.569   5.380  0.7335  0.1862  2.6994
  655MOL0     H88401  10.276   2.543   5.622  0.0297 -0.6212 -1.3520
  655MOL0     H88402  10.381   2.688   5.580  1.9875 -0.6423 -0.0725
  655MOL0     H88403  10.520   2.423   5.607  1.4509 -0.4779 -0.5343
  655MOL0     H88404  10.568   2.591   5.602 -0.0880 -0.4313 -1.4976
  655MOL0     H88405   9.917   2.479   4.779  0.3933 -0.9980  1.6764
  655MOL0     H88406   9.747   2.442   4.596 -1.9983  1.4365 -1.0856
  655MOL0     H88407   9.292   2.288   4.560  0.3681 -2.1328 -3.7522
  655MOL0     H88408   9.113   2.233   4.388  0.9752 -0.5346 -0.6858
  655MOL0     H88409   8.271   2.606   5.080  0.1286  0.6212 -0.9639
  655MOL0     H88410   8.264   2.685   5.310 -3.0497 -0.1213  3.5932
  655MOL0     H88411   8.281   2.903   5.748 -1.0116 -2.1618 -3.2312
  655MOL0     H88412   8.353   3.090   5.871  1.9633  0.0033 -0.5023
  655MOL0     H88413   8.267   3.516   5.884 -0.1172 -1.6386  0.5307
  655MOL0     H88414   8.197   3.494   5.735  1.2593  0.8679 -1.6387
  655MOL0     H88415   8.420   3.450   5.642  0.5978 -1.1761  1.0555
  655MOL0     H88416   8.512   3.493   5.794  0.1641 -3.9015  0.8867
  655MOL0     H88417   8.328   3.687   5.651 -0.6061 -0.3830  0.1192
  655MOL0     H88418   8.498   3.696   5.676 -1.2863  0.1186 -1.9709
  655MOL0     H88419   8.380   3.847   5.839  0.8509  0.3232  0.5085
  655MOL0     H88420   8.253   3.730   5.863 -0.5653  1.2397 -1.0333
  655MOL0     H88421   8.566   3.631   6.142  1.2026 -2.3450 -0.2663
  655MOL0     H88422   8.153   3.348   5.589 -0.5405 -0.5640 -0.8583
  655MOL0     H88423   7.982   3.135   5.404  2.5507 -3.3612 -1.4010
  655MOL0     H88424   8.060   3.286   5.412  2.6146 -0.3877  1.2679
  655MOL0     H88425   8.141   3.153   5.329  2.8259 -2.2318  1.7424
  656MOL0     O88426   2.117   0.840   2.333 -0.0330 -0.5085 -0.2830
  656MOL0     C88427   2.183   0.943   2.351 -0.8445  0.5153 -0.3871
  656MOL0     O88428   2.127   1.067   2.369  0.5727  1.0260 -0.5801
  656MOL0     C88429   1.997   1.075   2.353 -1.4197  0.0505 -0.1717
  656MOL0     C88430   1.938   1.114   2.236  0.5745  0.0825 -0.3369
  656MOL0     C88431   1.800   1.123   2.223  0.7143 -1.1653 -0.9513
  656MOL0     C88432   1.720   1.103   2.335 -0.1178  0.4501 -0.1737
  656MOL0     O88433   1.587   1.112   2.304  0.4431 -0.6097 -0.2749
  656MOL0     C88434   1.491   1.149   2.407 -0.3228 -0.0497  0.5867
  656MOL0     C88435   1.442   1.031   2.498  0.0155  0.1970 -0.4531
  656MOL0     C88436   1.347   1.071   2.616 -1.0516  0.7112 -0.3358
  656MOL0     C88437   1.218   0.996   2.617 -0.2732  0.3132  0.4407
  656MOL0     C88438   1.120   1.084   2.695 -0.2309 -0.7337  1.2086
  656MOL0     C88439   0.981   1.021   2.681 -0.0847 -0.4899 -0.2706
  656MOL0     C88440   0.881   1.121   2.743  0.6470  0.0890 -0.8559
  656MOL0     C88441   0.732   1.091   2.721 -0.1768 -0.4971 -0.9419
  656MOL0     N88442   0.635   1.188   2.786 -0.5863  0.2531 -0.0555
  656MOL0     C88443   0.655   1.327   2.808  0.3614 -0.2929 -0.1100
  656MOL0     C88444   0.551   1.365   2.891 -0.1350  0.0329 -0.2765
  656MOL0     C88445   0.502   1.494   2.954 -0.4888  0.1253 -0.4708
  656MOL0     C88446   0.493   1.616   2.865  1.0631 -0.0113  0.9849
  656MOL0     C88447   0.432   1.598   2.726  0.0490  0.5696 -0.7445
  656MOL0     C88448   0.274   1.597   2.715 -1.0043 -0.1660  0.5253
  656MOL0     O88449   0.225   1.700   2.805 -0.1230  0.7181 -0.7552
  656MOL0     C88450   0.093   1.725   2.809 -0.8558  0.3011 -0.6425
  656MOL0     C88451   0.051   1.839   2.882 -0.1241  0.7841 -0.2266
  656MOL0     C88452  -0.085   1.874   2.891  0.3767 -0.4774  0.6794
  656MOL0     C88453  -0.185   1.795   2.822  0.6717  0.1181  0.0082
  656MOL0     C88454  -0.324   1.815   2.846 -0.0586 -0.2239  0.3371
  656MOL0     O88455  -0.404   1.707   2.811  0.1457 -0.4563  0.6743
  656MOL0     C88456  -0.544   1.720   2.807  0.4910  0.0651  0.6642
  656MOL0     C88457  -0.611   1.601   2.777 -0.0912  1.1169  0.3161
  656MOL0     C88458  -0.744   1.588   2.788  0.2259 -0.0027 -0.6827
  656MOL0     C88459  -0.826   1.698   2.808  0.1621  0.6567 -0.7076
  656MOL0     O88460  -0.962   1.690   2.799  0.0768  1.1332  0.3744
  656MOL0     C88461  -1.037   1.577   2.746 -0.4595 -0.5359 -0.1647
  656MOL0     C88462  -1.179   1.600   2.781  0.0344 -0.8384  0.2097
  656MOL0     C88463  -1.278   1.495   2.729  1.2125 -0.6078  0.4305
  656MOL0     C88464  -1.267   1.347   2.797 -0.5112  1.0374  0.1948
  656MOL0     C88465  -1.350   1.246   2.705 -0.1225  0.2094 -0.6832
  656MOL0     C88466  -1.502   1.241   2.754  0.2710 -0.4783  0.8455
  656MOL0     C88467  -1.575   1.176   2.637 -0.0243  0.3490 -0.5123
  656MOL0     C88468  -1.726   1.188   2.647  0.1782  1.2322  0.4459
  656MOL0    Cl88469  -1.786   1.100   2.503  0.3320 -0.1731  0.5385
  656MOL0     C88470  -0.764   1.832   2.818  0.2755  0.3226  0.3713
  656MOL0     C88471  -0.627   1.835   2.817 -0.1376  0.1783  0.2360
  656MOL0     O88472  -0.355   1.923   2.891 -0.0466 -0.0827  0.4042
  656MOL0     C88473  -0.134   1.686   2.746 -0.5896  0.6884  0.2659
  656MOL0     C88474  -0.003   1.655   2.733 -0.5925 -0.0437 -0.0587
  656MOL0     N88475   0.465   1.254   2.895  0.1100 -0.2477  1.0931
  656MOL0     N88476   0.516   1.152   2.834  0.2541 -0.2855 -0.3772
  656MOL0     C88477   1.779   1.065   2.456 -0.0421  0.1656  0.4781
  656MOL0     C88478   1.913   1.056   2.465  1.0669  0.9178 -0.2224
  656MOL0     C88479   2.332   0.925   2.354  0.2772  0.7497  0.5899
  656MOL0     C88480   2.410   1.027   2.418  0.6761 -0.1114  0.0036
  656MOL0     C88481   2.546   1.023   2.430  0.4887 -0.5900  0.6877
  656MOL0     C88482   2.610   0.916   2.364  0.1475 -0.6046  0.2153
  656MOL0     O88483   2.747   0.918   2.369 -0.4997 -0.1471 -0.5194
  656MOL0     C88484   2.822   0.802   2.376 -0.5582 -0.3302 -0.5542
  656MOL0     C88485   2.842   0.747   2.522  0.7039 -0.0729 -0.1942
  656MOL0     C88486   2.715   0.725   2.603 -0.1348 -0.0267  0.4580
  656MOL0     C88487   2.739   0.669   2.743 -0.5139  0.8572 -0.7601
  656MOL0     C88488   2.838   0.566   2.769  0.2371 -0.2166  0.2497
  656MOL0     C88489   2.903   0.473   2.802 -1.0580  1.2578  0.0237
  656MOL0     C88490   2.540   0.815   2.305 -0.7110  0.4533 -0.1951
  656MOL0     C88491   2.402   0.819   2.301  0.3759  0.0227 -0.1646
  656MOL0     C88492   2.337   0.727   2.196  0.2527  0.3168  0.2327
  656MOL0     H88493   2.001   1.135   2.150  3.2319  2.3069  1.9281
  656MOL0     H88494   1.773   1.147   2.121  2.6939 -2.3296 -1.8172
  656MOL0     H88495   1.530   1.226   2.473  1.8240 -2.1123  1.8868
  656MOL0     H88496   1.409   1.189   2.347  2.5250  4.1756 -0.8999
  656MOL0     H88497   1.530   0.986   2.543  0.9525  1.1965 -1.2354
  656MOL0     H88498   1.404   0.951   2.433 -1.2747  1.2025 -0.9903
  656MOL0     H88499   1.338   1.179   2.604 -3.7657  0.4818 -0.9248
  656MOL0     H88500   1.412   1.045   2.701  2.6008  1.0528 -2.7676
  656MOL0     H88501   1.177   0.990   2.516 -1.3313  1.1660  0.8085
  656MOL0     H88502   1.227   0.893   2.653  1.3402 -0.5688 -2.1785
  656MOL0     H88503   1.152   1.100   2.799 -0.2632 -2.0227  1.4331
  656MOL0     H88504   1.121   1.184   2.650 -2.9856 -2.2347 -2.7381
  656MOL0     H88505   0.958   1.015   2.575  0.8341  1.5534 -0.6226
  656MOL0     H88506   0.979   0.932   2.745  1.7862 -0.8712 -0.7012
  656MOL0     H88507   0.909   1.220   2.707  1.0647  0.3121  0.0564
  656MOL0     H88508   0.898   1.132   2.851  1.3968  0.6881 -1.0313
  656MOL0     H88509   0.709   1.109   2.615 -1.9759  0.5424 -0.4251
  656MOL0     H88510   0.701   0.990   2.752 -3.5943  0.9378  0.9315
  656MOL0     H88511   0.741   1.389   2.787 -0.0195 -0.2407 -1.6551
  656MOL0     H88512   0.399   1.474   2.985 -0.6379 -2.2431 -2.2423
  656MOL0     H88513   0.572   1.521   3.034  0.2132 -0.2975 -0.9345
  656MOL0     H88514   0.429   1.682   2.924 -1.6890 -1.1878 -0.5458
  656MOL0     H88515   0.593   1.662   2.857  1.0930 -0.0087  1.3320
  656MOL0     H88516   0.475   1.508   2.682  0.7552 -0.2792  1.5990
  656MOL0     H88517   0.481   1.673   2.663  3.3444 -0.7492  0.0786
  656MOL0     H88518   0.241   1.495   2.734  1.5566 -1.4046 -1.1221
  656MOL0     H88519   0.237   1.616   2.614  0.8463 -0.0723 -0.1731
  656MOL0     H88520   0.124   1.892   2.944 -0.1787 -1.2513  1.7066
  656MOL0     H88521  -0.115   1.950   2.963 -0.3511  1.7957 -1.8667
  656MOL0     H88522  -0.543   1.519   2.758 -0.5625  1.3317 -2.9135
  656MOL0     H88523  -0.779   1.489   2.760 -4.1492  0.9628  0.6128
  656MOL0     H88524  -1.009   1.563   2.641  1.0210  2.2183 -0.2390
  656MOL0     H88525  -1.006   1.490   2.805 -2.3518 -0.0634  1.6289
  656MOL0     H88526  -1.195   1.613   2.888 -0.3163 -0.6051  0.1329
  656MOL0     H88527  -1.223   1.691   2.739 -0.4335 -1.1912 -0.0843
  656MOL0     H88528  -1.380   1.528   2.753  1.1178 -1.0209  0.6141
  656MOL0     H88529  -1.286   1.497   2.620 -1.9067 -0.0516  0.5717
  656MOL0     H88530  -1.298   1.364   2.900 -2.9314  0.8704 -0.4391
  656MOL0     H88531  -1.164   1.311   2.807  1.7599  6.4384 -0.1879
  656MOL0     H88532  -1.310   1.147   2.727  0.0213  0.9198  3.1199
  656MOL0     H88533  -1.337   1.286   2.604  3.0753 -0.3977 -0.6333
  656MOL0     H88534  -1.514   1.172   2.838 -0.3612 -1.4374 -0.0006
  656MOL0     H88535  -1.544   1.340   2.773 -0.9913 -0.8794  0.2903
  656MOL0     H88536  -1.551   1.070   2.631  0.9617  0.5411 -0.1277
  656MOL0     H88537  -1.536   1.217   2.543  0.5245 -1.1657 -0.9616
  656MOL0     H88538  -1.774   1.136   2.730  1.4594  1.0615  1.1212
  656MOL0     H88539  -1.758   1.292   2.646 -1.2877  0.8191 -1.5286
  656MOL0     H88540  -0.821   1.924   2.819  0.0507  0.1889 -0.0295
  656MOL0     H88541  -0.589   1.937   2.819 -0.8951  0.4634  2.5551
  656MOL0     H88542  -0.205   1.625   2.691 -0.4143 -0.2805  1.0691
  656MOL0     H88543   0.028   1.569   2.674 -1.9066 -0.6264  0.0689
  656MOL0     H88544   1.725   1.024   2.541 -1.3872  0.9404  0.0248
  656MOL0     H88545   1.968   1.030   2.555  2.6439 -0.0039 -1.4048
  656MOL0     H88546   2.359   1.111   2.465 -0.1556  0.4421 -1.7994
  656MOL0     H88547   2.603   1.106   2.469  0.2854 -2.5658  6.0828
  656MOL0     H88548   2.921   0.830   2.341  1.8923 -2.1409  4.0999
  656MOL0     H88549   2.783   0.730   2.303 -3.3017  0.4347  0.0158
  656MOL0     H88550   2.909   0.802   2.589 -1.7985  0.4904  2.0259
  656MOL0     H88551   2.883   0.647   2.507 -0.4820 -0.4157 -1.3093
  656MOL0     H88552   2.645   0.663   2.546 -1.8068  0.8378  1.4962
  656MOL0     H88553   2.662   0.820   2.604  1.9072  1.1836 -0.4922
  656MOL0     H88554   2.753   0.747   2.818  1.0341 -1.7735  1.8988
  656MOL0     H88555   2.637   0.631   2.755 -0.0723 -1.6497 -3.6553
  656MOL0     H88556   2.976   0.395   2.815 -2.8932 -1.2907 -3.2545
  656MOL0     H88557   2.583   0.721   2.271 -3.0093 -1.3705  1.6311
  656MOL0     H88558   2.417   0.672   2.146  2.8836  2.1748  2.1649
  656MOL0     H88559   2.264   0.657   2.239 -1.6161  0.9936 -1.6168
  656MOL0     H88560   2.275   0.777   2.121  0.3912  1.8122  1.0883
  657MOL0     O88561   9.652   9.393   8.728  0.7301 -0.5879 -0.4759
  657MOL0     C88562   9.627   9.282   8.765  0.1296 -0.4008 -1.3029
  657MOL0     O88563   9.627   9.243   8.896  0.4323  0.3633  0.0631
  657MOL0     C88564   9.653   9.331   8.992  0.3005 -0.3414 -0.1879
  657MOL0     C88565   9.553   9.411   9.045  0.7087 -0.1202  0.0609
  657MOL0     C88566   9.587   9.507   9.140  0.0610 -0.1707  1.0148
  657MOL0     C88567   9.713   9.524   9.183 -1.3336 -0.5480  0.2040
  657MOL0     O88568   9.733   9.633   9.269 -0.2495  0.2345 -0.5023
  657MOL0     C88569   9.832   9.736   9.258  0.5512  0.7513 -0.2411
  657MOL0     C88570   9.790   9.869   9.311  0.5404 -0.2645 -0.4770
  657MOL0     C88571   9.914   9.969   9.328  0.2742 -1.1737  0.0690
  657MOL0     C88572   9.947   9.967   9.474  0.2648 -0.2433 -0.4211
  657MOL0     C88573  10.063  10.061   9.516  1.5885 -0.3679 -0.2115
  657MOL0     C88574  10.197   9.998   9.491 -0.1906 -0.7189 -0.5219
  657MOL0     C88575  10.305  10.107   9.501  0.4863  0.3065 -0.2664
  657MOL0     C88576  10.333  10.170   9.361  0.5043  0.1032  0.0624
  657MOL0     N88577  10.381  10.310   9.388 -0.4615  0.1690 -0.5568
  657MOL0     C88578  10.467  10.348   9.489  0.1333 -0.4269  0.6129
  657MOL0     C88579  10.471  10.481   9.492 -0.5073  0.0315  0.0986
  657MOL0     C88580  10.523  10.573   9.592 -1.1928 -0.9036 -0.9371
  657MOL0     C88581  10.402  10.651   9.661  0.1512  0.6169  0.4028
  657MOL0     C88582  10.452  10.741   9.772  0.2276 -1.6274 -0.5145
  657MOL0     C88583  10.517  10.865   9.714 -0.3642  0.4579  0.6697
  657MOL0     O88584  10.419  10.955   9.654 -0.4351 -0.0319  0.5690
  657MOL0     C88585  10.468  11.016   9.545 -0.0177 -0.6630  0.1525
  657MOL0     C88586  10.439  10.969   9.412  0.1916 -0.5275 -1.0278
  657MOL0     C88587  10.480  11.038   9.303  0.2262  0.0084 -0.7391
  657MOL0     C88588  10.570  11.143   9.314 -1.0743 -0.0781  0.2558
  657MOL0     C88589  10.619  11.217   9.190  0.5854  0.3012 -0.1214
  657MOL0     O88590  10.665  11.338   9.203  0.5231  0.1247 -0.4138
  657MOL0     C88591  10.733  11.412   9.108 -0.1053  0.3493 -0.6292
  657MOL0     C88592  10.694  11.550   9.092  0.2412 -0.7156  0.1085
  657MOL0     C88593  10.768  11.626   8.998 -0.7973  0.3404  0.3040
  657MOL0     C88594  10.879  11.575   8.933 -0.3476 -0.0991 -0.6357
  657MOL0     O88595  10.958  11.656   8.867 -0.0263 -0.5528 -0.3059
  657MOL0     C88596  11.032  11.761   8.929 -0.2207 -0.0362 -0.9484
  657MOL0     C88597  11.155  11.713   9.000  0.0392 -0.4138  0.7687
  657MOL0     C88598  11.261  11.665   8.891  0.4312  0.5244  0.6154
  657MOL0     C88599  11.400  11.670   8.943 -0.0518 -0.2521 -0.1533
  657MOL0     C88600  11.510  11.634   8.839 -0.3115 -1.0264 -0.0082
  657MOL0     C88601  11.657  11.670   8.878 -0.3964 -0.3387 -0.0012
  657MOL0     C88602  11.685  11.624   9.020 -0.1299  0.2738 -0.0538
  657MOL0     C88603  11.836  11.641   9.057 -0.2488  0.1651 -0.0309
  657MOL0    Cl88604  11.873  11.817   9.075  0.2808  0.4192 -0.1817
  657MOL0     C88605  10.921  11.440   8.949  0.0928  0.5770 -0.4444
  657MOL0     C88606  10.841  11.357   9.033  0.2351 -0.7751  0.0783
  657MOL0     O88607  10.631  11.145   9.088  0.0944 -0.3068 -0.6105
  657MOL0     C88608  10.602  11.187   9.437 -0.0746  0.3531 -0.1751
  657MOL0     C88609  10.560  11.127   9.555  0.0529  0.7695 -0.2702
  657MOL0     N88610  10.406  10.526   9.380  0.0701 -0.7111  0.5880
  657MOL0     N88611  10.352  10.418   9.317  0.3101  0.7395 -0.6172
  657MOL0     C88612   9.822   9.454   9.121  0.0633  0.6816  0.1320
  657MOL0     C88613   9.781   9.349   9.029 -0.5591 -0.0758 -0.8011
  657MOL0     C88614   9.590   9.170   8.673 -0.7271  1.3079  0.3678
  657MOL0     C88615   9.500   9.068   8.715  0.1467 -0.1857  0.1284
  657MOL0     C88616   9.464   8.962   8.638  0.3001 -0.3188  0.4205
  657MOL0     C88617   9.516   8.952   8.511  0.1349  1.0392  0.8380
  657MOL0     O88618   9.482   8.862   8.417  0.1118  1.1316  0.1961
  657MOL0     C88619   9.411   8.747   8.456  0.2566  0.0525 -0.7315
  657MOL0     C88620   9.417   8.634   8.355  0.5786 -0.9891 -0.3002
  657MOL0     C88621   9.544   8.617   8.286  0.3823  0.7318 -0.2099
  657MOL0     C88622   9.643   8.563   8.383 -0.4010 -0.3559  0.1851
  657MOL0     C88623   9.758   8.489   8.320 -0.0662  0.9039 -0.0330
  657MOL0     C88624   9.840   8.447   8.244 -0.0997  0.3480  0.3195
  657MOL0     C88625   9.604   9.046   8.466 -0.2309  0.1072 -0.2557
  657MOL0     C88626   9.646   9.151   8.544  0.2502 -0.6730 -0.6734
  657MOL0     C88627   9.755   9.243   8.506 -0.0018  0.0903  0.9689
  657MOL0     H88628   9.452   9.390   9.011  0.8146 -1.1773  0.3572
  657MOL0     H88629   9.528   9.591   9.174 -1.1815 -0.9430  0.8089
  657MOL0     H88630   9.921   9.708   9.314 -2.2637 -2.2481  3.2125
  657MOL0     H88631   9.855   9.756   9.153  1.3236 -1.1451 -0.4683
  657MOL0     H88632   9.740   9.840   9.404  2.3432  0.5857  0.8278
  657MOL0     H88633   9.713   9.916   9.250 -0.3535  0.9670  1.4741
  657MOL0     H88634   9.898  10.074   9.299 -0.8142 -1.8416 -1.9781
  657MOL0     H88635  10.002   9.938   9.271  0.2493 -1.1073 -0.0059
  657MOL0     H88636   9.853   9.997   9.521  1.2435  1.8242  0.3568
  657MOL0     H88637   9.955   9.867   9.518 -1.1967 -0.1173  0.1854
  657MOL0     H88638  10.047  10.161   9.476 -1.2225 -0.4799  0.4628
  657MOL0     H88639  10.045  10.070   9.624  1.3051 -0.7937 -0.2216
  657MOL0     H88640  10.223   9.931   9.573  0.5459  0.5333  0.3077
  657MOL0     H88641  10.190   9.937   9.401 -2.8017 -1.6415  0.2397
  657MOL0     H88642  10.400  10.062   9.531 -0.6383 -1.7498  0.3940
  657MOL0     H88643  10.268  10.180   9.573  1.6386 -1.6285  2.4178
  657MOL0     H88644  10.405  10.115   9.301 -1.6961 -1.3451 -1.3669
  657MOL0     H88645  10.245  10.181   9.297  1.3994  0.3991 -1.1525
  657MOL0     H88646  10.500  10.284   9.571 -1.4433 -2.2838 -0.1362
  657MOL0     H88647  10.588  10.512   9.655  1.1707 -1.7970 -3.9694
  657MOL0     H88648  10.593  10.646   9.550 -1.5432  1.7664  2.6887
  657MOL0     H88649  10.353  10.714   9.585  2.2215  0.3016 -1.2738
  657MOL0     H88650  10.330  10.580   9.703 -0.7976 -0.0175 -2.0813
  657MOL0     H88651  10.530  10.692   9.832  3.1060 -0.1232 -2.7517
  657MOL0     H88652  10.376  10.790   9.834 -0.6320  0.7710 -3.2176
  657MOL0     H88653  10.591  10.828   9.642  0.1684 -0.0202  1.4520
  657MOL0     H88654  10.585  10.918   9.782  0.0724  1.2332 -0.3286
  657MOL0     H88655  10.384  10.876   9.412  4.4001 -3.3250  1.5049
  657MOL0     H88656  10.456  11.030   9.198 -1.0374  1.6377 -0.6301
  657MOL0     H88657  10.623  11.606   9.151 -2.4214  1.3968 -4.5192
  657MOL0     H88658  10.737  11.729   8.983 -0.1256  0.2197 -2.3535
  657MOL0     H88659  11.055  11.831   8.849 -0.2507  2.6609  1.2299
  657MOL0     H88660  10.971  11.808   9.007 -3.2121  0.2932 -3.3086
  657MOL0     H88661  11.193  11.798   9.057 -3.1681 -0.1871  2.8399
  657MOL0     H88662  11.125  11.633   9.069 -0.3454 -2.0181 -1.1837
  657MOL0     H88663  11.231  11.571   8.845  1.4437 -0.5516  2.0665
  657MOL0     H88664  11.257  11.736   8.808 -0.5513  1.2809  1.2805
  657MOL0     H88665  11.395  11.595   9.022 -2.3410 -0.6860 -0.6164
  657MOL0     H88666  11.426  11.770   8.980 -1.0950 -1.3364  4.0653
  657MOL0     H88667  11.506  11.697   8.749  1.6317 -0.3603  0.3291
  657MOL0     H88668  11.498  11.533   8.800 -2.0168 -0.3872 -1.2846
  657MOL0     H88669  11.725  11.629   8.803 -2.3931  1.2458 -2.8854
  657MOL0     H88670  11.680  11.776   8.873  1.2353 -0.7062 -1.1944
  657MOL0     H88671  11.662  11.518   9.033  1.1786  0.0473  0.6147
  657MOL0     H88672  11.633  11.686   9.094  1.3724  4.2234 -2.0005
  657MOL0     H88673  11.852  11.591   9.153  0.4935 -3.1530 -1.7332
  657MOL0     H88674  11.907  11.605   8.982 -0.1426  2.2408 -1.0067
  657MOL0     H88675  11.005  11.408   8.888  1.2009  1.9990  0.2821
  657MOL0     H88676  10.856  11.250   9.043 -0.5842 -0.7521  2.0632
  657MOL0     H88677  10.667  11.273   9.448  0.3953 -0.1009  0.7380
  657MOL0     H88678  10.590  11.157   9.655  2.7160 -1.9478 -0.1119
  657MOL0     H88679   9.919   9.485   9.160  0.3838  2.8361 -2.1513
  657MOL0     H88680   9.873   9.303   8.995  1.8017  3.5374  0.0164
  657MOL0     H88681   9.472   9.078   8.820  1.9427 -0.0681  0.6357
  657MOL0     H88682   9.404   8.880   8.675 -0.4561  0.0218 -0.0323
  657MOL0     H88683   9.306   8.767   8.479  1.2419  1.3093  3.4719
  657MOL0     H88684   9.443   8.704   8.551 -0.7385 -1.7651 -1.1631
  657MOL0     H88685   9.334   8.654   8.287  1.4886  2.5355 -0.6149
  657MOL0     H88686   9.388   8.547   8.415 -0.9236  0.2082  0.7990
  657MOL0     H88687   9.570   8.710   8.235 -0.0190  2.3659  2.4054
  657MOL0     H88688   9.524   8.544   8.207  0.3526  2.0020 -1.4222
  657MOL0     H88689   9.683   8.641   8.448  2.7337  0.1684 -2.1324
  657MOL0     H88690   9.594   8.492   8.449  2.1112 -2.3888  0.0229
  657MOL0     H88691   9.927   8.417   8.188 -0.9576 -2.4268  0.3201
  657MOL0     H88692   9.625   9.049   8.359  1.0621 -1.4316 -0.0777
  657MOL0     H88693   9.836   9.233   8.578 -0.1805  1.6591  1.4246
  657MOL0     H88694   9.800   9.218   8.410 -2.3420 -1.0984  0.0952
  657MOL0     H88695   9.720   9.345   8.485 -1.4849 -0.8445 -1.6080
  658MOL0     O88696   5.922   4.243   9.187 -0.1944  0.3041  0.4766
  658MOL0     C88697   5.827   4.266   9.118  0.0378 -0.2783 -0.0953
  658MOL0     O88698   5.835   4.327   8.997  0.0666  0.2527  0.1368
  658MOL0     C88699   5.959   4.324   8.935  0.0948  0.2110  0.5360
  658MOL0     C88700   6.083   4.362   8.988  0.1289  0.6250 -0.2859
  658MOL0     C88701   6.201   4.361   8.913 -0.0632  1.0909  0.2180
  658MOL0     C88702   6.202   4.342   8.772  1.3710 -0.3498  0.4572
  658MOL0     O88703   6.311   4.370   8.696  0.3548 -0.2175  0.4855
  658MOL0     C88704   6.348   4.278   8.602  0.8141 -0.4164  0.1929
  658MOL0     C88705   6.302   4.321   8.463  0.4213 -0.3655  0.6440
  658MOL0     C88706   6.331   4.223   8.355 -0.3117  0.4350  0.4319
  658MOL0     C88707   6.305   4.269   8.212 -1.1945  0.6105  0.3492
  658MOL0     C88708   6.383   4.400   8.175  0.0334  1.3250  0.4090
  658MOL0     C88709   6.342   4.443   8.029  0.3560 -0.0565  0.8504
  658MOL0     C88710   6.426   4.549   7.974  0.1262 -0.8004 -0.2532
  658MOL0     C88711   6.424   4.682   8.045 -0.6352 -1.1105 -0.7558
  658MOL0     N88712   6.518   4.691   8.153  0.8430 -1.0016 -0.3432
  658MOL0     C88713   6.634   4.623   8.167 -0.6306  0.7090 -0.2517
  658MOL0     C88714   6.682   4.684   8.279 -0.0045  0.8591  0.3974
  658MOL0     C88715   6.820   4.646   8.317 -0.9950 -0.1319 -0.7852
  658MOL0     C88716   6.820   4.524   8.409 -0.2912  0.0852 -0.4415
  658MOL0     C88717   6.808   4.560   8.556 -0.2273  0.5777 -0.1259
  658MOL0     C88718   6.944   4.607   8.633 -0.3740  0.2452 -0.0203
  658MOL0     O88719   7.015   4.716   8.572 -0.5960  0.8271 -0.1522
  658MOL0     C88720   7.149   4.695   8.553  0.6361 -0.0912  0.2113
  658MOL0     C88721   7.186   4.637   8.431  0.2949  0.5572 -0.5749
  658MOL0     C88722   7.319   4.611   8.404 -0.8614  0.0162 -0.3236
  658MOL0     C88723   7.419   4.663   8.490  0.0956 -0.3488  0.4063
  658MOL0     C88724   7.562   4.651   8.457  0.1736  0.8399  0.1812
  658MOL0     O88725   7.643   4.723   8.532  0.4122  0.2805 -0.2692
  658MOL0     C88726   7.782   4.730   8.507 -0.3356 -0.0183  1.1592
  658MOL0     C88727   7.865   4.715   8.385  0.3576  0.2849  0.2548
  658MOL0     C88728   8.000   4.706   8.372  0.0195 -1.3939  0.0500
  658MOL0     C88729   8.080   4.718   8.488 -0.0521 -0.6017 -0.6387
  658MOL0     O88730   8.222   4.711   8.480  0.9497  0.0027 -0.3452
  658MOL0     C88731   8.301   4.701   8.354  0.3491  0.1920  1.3183
  658MOL0     C88732   8.445   4.755   8.377  0.5215  0.2142  0.3183
  658MOL0     C88733   8.532   4.640   8.436 -0.2649  0.2881 -0.0131
  658MOL0     C88734   8.682   4.658   8.402  0.5129 -0.4654  0.1616
  658MOL0     C88735   8.770   4.597   8.505  0.7578  0.0620 -0.9024
  658MOL0     C88736   8.904   4.567   8.435  0.1262  0.6412 -0.3432
  658MOL0     C88737   9.000   4.543   8.553  0.4703 -0.4033  0.7389
  658MOL0     C88738   9.140   4.496   8.514  0.5706 -0.0368  0.4954
  658MOL0    Cl88739   9.238   4.466   8.654  0.0222 -0.1276 -0.0837
  658MOL0     C88740   8.009   4.735   8.608  1.4591  0.1479 -0.0290
  658MOL0     C88741   7.866   4.732   8.620 -0.0859 -0.0824 -0.6242
  658MOL0     O88742   7.600   4.585   8.360 -0.0356  0.3009 -0.5087
  658MOL0     C88743   7.378   4.717   8.614 -0.5509  0.4672 -1.0154
  658MOL0     C88744   7.245   4.715   8.653 -0.7409 -0.0720  0.2011
  658MOL0     N88745   6.595   4.781   8.332  0.0550  0.8364 -0.2883
  658MOL0     N88746   6.500   4.785   8.255  0.8071  0.4190 -0.2976
  658MOL0     C88747   6.079   4.304   8.717 -1.0339  0.5759  0.4234
  658MOL0     C88748   5.966   4.290   8.795 -0.1798  0.4344 -0.9610
  658MOL0     C88749   5.703   4.243   9.188 -0.0307 -0.2974 -0.9577
  658MOL0     C88750   5.607   4.342   9.153  0.7890 -0.8501  0.2602
  658MOL0     C88751   5.479   4.338   9.216 -0.1380 -0.0582 -0.6855
  658MOL0     C88752   5.456   4.250   9.331  0.2886 -0.5507 -0.3174
  658MOL0     O88753   5.331   4.248   9.399 -0.8278  0.1079  0.6643
  658MOL0     C88754   5.313   4.360   9.486  0.5740  0.6120  0.4521
  658MOL0     C88755   5.227   4.306   9.589  0.1428  0.0419 -0.5750
  658MOL0     C88756   5.297   4.222   9.700  0.8357 -0.5544 -0.9335
  658MOL0     C88757   5.250   4.264   9.843  0.0660 -0.0875  0.2681
  658MOL0     C88758   5.300   4.390   9.898 -0.2181 -0.9542  0.2776
  658MOL0     C88759   5.352   4.497   9.927  0.7999 -1.0310  0.4914
  658MOL0     C88760   5.542   4.139   9.340 -0.2799  0.2375 -0.4116
  658MOL0     C88761   5.664   4.140   9.266 -1.7682 -1.2669  0.2354
  658MOL0     C88762   5.739   4.006   9.266  0.0537 -0.3253  0.0248
  658MOL0     H88763   6.095   4.386   9.093  1.9010 -1.5582  0.1113
  658MOL0     H88764   6.288   4.399   8.966  1.0029  0.0486 -0.7230
  658MOL0     H88765   6.457   4.282   8.600  0.7773  2.5212  0.0764
  658MOL0     H88766   6.302   4.181   8.624 -2.3188  0.4475 -1.8762
  658MOL0     H88767   6.360   4.413   8.449  1.0890 -0.6663  1.3092
  658MOL0     H88768   6.196   4.345   8.467  0.1687 -1.0034 -1.3316
  658MOL0     H88769   6.266   4.137   8.375 -0.7923  0.8418  0.6501
  658MOL0     H88770   6.436   4.192   8.358 -0.4509 -0.9052 -3.2423
  658MOL0     H88771   6.320   4.200   8.128  0.5507  0.6386  0.6106
  658MOL0     H88772   6.197   4.290   8.207 -1.3075 -0.0267 -0.1010
  658MOL0     H88773   6.354   4.479   8.245  0.4387  2.2854 -0.4800
  658MOL0     H88774   6.489   4.375   8.187 -0.2557  0.5662  1.5318
  658MOL0     H88775   6.351   4.365   7.952  1.4632  1.8779 -1.1217
  658MOL0     H88776   6.240   4.481   8.029 -0.4188 -1.8948  3.2355
  658MOL0     H88777   6.387   4.582   7.877  1.9191 -0.7337 -0.9893
  658MOL0     H88778   6.528   4.516   7.953  0.2923 -0.4540  0.0193
  658MOL0     H88779   6.456   4.764   7.980 -0.5129  0.4299  1.1248
  658MOL0     H88780   6.325   4.712   8.082  0.0503  1.2621 -0.6373
  658MOL0     H88781   6.687   4.552   8.105 -1.2713  1.9573 -2.3486
  658MOL0     H88782   6.879   4.610   8.233  0.7193 -2.1183  1.1240
  658MOL0     H88783   6.877   4.726   8.364 -0.1385  0.3602 -2.5822
  658MOL0     H88784   6.738   4.459   8.377  2.0921 -1.8352 -3.1124
  658MOL0     H88785   6.912   4.468   8.391  0.0286  1.4107 -3.6029
  658MOL0     H88786   6.772   4.471   8.609  1.1726 -0.6735 -1.1837
  658MOL0     H88787   6.735   4.639   8.574 -1.6550 -0.6945 -0.0669
  658MOL0     H88788   7.018   4.529   8.655 -0.2655  0.8493  1.9285
  658MOL0     H88789   6.903   4.646   8.727 -2.0194  2.2074 -1.4534
  658MOL0     H88790   7.110   4.598   8.364  0.2464  2.7298 -1.9055
  658MOL0     H88791   7.350   4.554   8.317  0.0098 -2.3999  1.4731
  658MOL0     H88792   7.810   4.708   8.291 -1.6016 -2.1593  1.4729
  658MOL0     H88793   8.050   4.682   8.279  2.3007  0.6358  0.6554
  658MOL0     H88794   8.306   4.596   8.324  2.2566  0.4851  0.4134
  658MOL0     H88795   8.252   4.757   8.273  0.5520  0.3435  1.2973
  658MOL0     H88796   8.490   4.783   8.281  0.5299 -0.1953  0.2013
  658MOL0     H88797   8.444   4.834   8.452  0.0825 -1.6028  2.3043
  658MOL0     H88798   8.514   4.639   8.544 -1.1390  0.6715 -0.1405
  658MOL0     H88799   8.502   4.541   8.401  0.5100 -0.3002  0.9775
  658MOL0     H88800   8.702   4.765   8.393 -2.1482  0.1471  0.7123
  658MOL0     H88801   8.709   4.605   8.310 -0.6405  1.2333 -1.2008
  658MOL0     H88802   8.731   4.510   8.559  0.9702  0.6884  0.2920
  658MOL0     H88803   8.779   4.677   8.578 -1.5412 -2.6004  2.6298
  658MOL0     H88804   8.880   4.471   8.388  1.7678 -1.4520  2.7863
  658MOL0     H88805   8.942   4.639   8.361  0.9619 -0.0150 -0.5666
  658MOL0     H88806   8.945   4.471   8.616 -1.2146 -1.9926 -2.2785
  658MOL0     H88807   9.019   4.638   8.604  1.9591  0.0903 -0.6725
  658MOL0     H88808   9.147   4.404   8.454 -2.6389 -0.7861  1.0889
  658MOL0     H88809   9.190   4.578   8.462 -1.7671 -0.3128 -2.4355
  658MOL0     H88810   8.073   4.739   8.695  1.2089 -0.1043  0.1709
  658MOL0     H88811   7.816   4.741   8.716  2.2305  1.6296  0.5284
  658MOL0     H88812   7.453   4.737   8.690  0.0666  1.3233 -1.8240
  658MOL0     H88813   7.215   4.750   8.751 -2.2525 -0.7183 -0.0004
  658MOL0     H88814   6.068   4.274   8.613  1.7432  2.2944 -0.4512
  658MOL0     H88815   5.871   4.255   8.755 -0.4729 -0.6180  0.5613
  658MOL0     H88816   5.620   4.417   9.075  2.6263  1.0145  2.2217
  658MOL0     H88817   5.402   4.407   9.185  0.2121  0.6503 -0.0100
  658MOL0     H88818   5.275   4.449   9.437  1.0431 -0.2914 -1.6658
  658MOL0     H88819   5.401   4.397   9.540  0.1321 -2.5705  3.7856
  658MOL0     H88820   5.138   4.257   9.547  0.4440 -0.1188 -1.0340
  658MOL0     H88821   5.174   4.389   9.637 -1.0766 -1.6093  1.0860
  658MOL0     H88822   5.406   4.227   9.692  0.7278  0.5403 -2.0420
  658MOL0     H88823   5.261   4.120   9.681 -2.6496  0.2159  0.8574
  658MOL0     H88824   5.141   4.269   9.840 -0.0121 -1.2032  0.7281
  658MOL0     H88825   5.272   4.171   9.897 -3.3298 -1.4034 -0.3777
  658MOL0     H88826   5.413   4.581   9.954 -1.1115 -0.0636  2.0900
  658MOL0     H88827   5.520   4.058   9.409  1.0161  1.6100  1.7324
  658MOL0     H88828   5.673   3.920   9.260  0.1214 -0.3124 -1.2267
  658MOL0     H88829   5.804   4.003   9.178 -2.1676  0.6045 -1.7643
  658MOL0     H88830   5.814   3.998   9.345  1.1119 -0.3353 -0.9504
  659MOL0     O88831   7.296   6.085   6.160  0.2745  0.9898  0.0115
  659MOL0     C88832   7.348   5.984   6.109 -0.1436 -0.2139 -0.2582
  659MOL0     O88833   7.478   5.970   6.089  0.1760 -0.7029  0.1409
  659MOL0     C88834   7.559   6.084   6.074  0.7104  0.4628 -0.1695
  659MOL0     C88835   7.519   6.221   6.067 -0.6943  0.3606 -1.1530
  659MOL0     C88836   7.618   6.318   6.042  0.3016  0.2175 -0.4000
  659MOL0     C88837   7.743   6.289   6.013 -0.4644  0.3403  1.2203
  659MOL0     O88838   7.839   6.373   5.959 -0.3370 -0.3398  0.4291
  659MOL0     C88839   7.796   6.453   5.847  0.5977  0.1500 -0.3243
  659MOL0     C88840   7.911   6.481   5.752 -0.2752  0.0974  0.6113
  659MOL0     C88841   7.855   6.525   5.610 -0.1322 -0.2910 -0.4754
  659MOL0     C88842   7.827   6.674   5.601  0.0203 -0.7775  0.6151
  659MOL0     C88843   7.727   6.739   5.687 -0.1048  0.1324  0.2347
  659MOL0     C88844   7.589   6.682   5.664 -0.1100 -0.1362  0.3331
  659MOL0     C88845   7.485   6.752   5.749  0.3695  0.1420  0.5459
  659MOL0     C88846   7.415   6.672   5.850 -0.4611  0.3155  0.0364
  659MOL0     N88847   7.321   6.566   5.821  0.0937 -0.7443 -0.1677
  659MOL0     C88848   7.212   6.581   5.742  0.7703  0.5008  0.2002
  659MOL0     C88849   7.139   6.468   5.779  1.0391  0.1744 -0.1719
  659MOL0     C88850   7.004   6.423   5.726 -0.5465 -0.4840 -0.2012
  659MOL0     C88851   6.881   6.494   5.777  0.1665 -0.4579 -0.0039
  659MOL0     C88852   6.738   6.435   5.781 -0.4177  1.3387  0.2535
  659MOL0     C88853   6.640   6.517   5.857  0.9770 -0.4178 -0.1670
  659MOL0     O88854   6.511   6.449   5.853  0.3025 -0.1618  1.1180
  659MOL0     C88855   6.399   6.484   5.778  0.1748  0.0364  0.3152
  659MOL0     C88856   6.407   6.564   5.661  0.5328  0.3160 -0.1785
  659MOL0     C88857   6.282   6.591   5.591 -0.2990 -1.1535  0.3544
  659MOL0     C88858   6.161   6.534   5.634 -0.7337  0.1591  0.9229
  659MOL0     C88859   6.036   6.572   5.562 -0.9468 -0.8479 -0.8213
  659MOL0     O88860   5.918   6.512   5.607 -0.2220 -0.6217 -0.5245
  659MOL0     C88861   5.817   6.524   5.525  0.1022  0.3991 -0.6368
  659MOL0     C88862   5.762   6.398   5.494  0.4651 -0.2793  0.6899
  659MOL0     C88863   5.643   6.387   5.415 -0.0614 -0.5761  1.0025
  659MOL0     C88864   5.593   6.504   5.359  0.0189  0.7496  0.2647
  659MOL0     O88865   5.480   6.503   5.277  1.0634 -0.5543  0.0182
  659MOL0     C88866   5.398   6.390   5.250  0.9071 -0.0743 -0.1142
  659MOL0     C88867   5.281   6.437   5.168  0.1329  0.4357  0.0850
  659MOL0     C88868   5.183   6.516   5.252  0.0669  0.1955 -0.5917
  659MOL0     C88869   5.076   6.589   5.171  0.0178 -0.3461  0.1858
  659MOL0     C88870   5.001   6.691   5.274 -0.0798  0.6348 -0.1564
  659MOL0     C88871   5.044   6.831   5.286  0.1536  0.2922 -0.5032
  659MOL0     C88872   4.946   6.904   5.374  0.0565 -0.0482 -0.8158
  659MOL0     C88873   4.972   7.059   5.383 -0.1327  1.1612  0.1030
  659MOL0    Cl88874   5.149   7.110   5.397  0.1934 -0.3671  0.0245
  659MOL0     C88875   5.641   6.628   5.392  0.3641 -0.0250 -0.3574
  659MOL0     C88876   5.753   6.640   5.483  0.3936  0.2937 -0.1714
  659MOL0     O88877   6.040   6.646   5.467 -0.0839 -0.9518  1.0109
  659MOL0     C88878   6.166   6.452   5.751 -1.0497 -0.4619 -0.1337
  659MOL0     C88879   6.286   6.426   5.819  0.4865 -0.1532  0.5417
  659MOL0     N88880   7.210   6.389   5.866  0.3472 -0.2439  0.6631
  659MOL0     N88881   7.315   6.458   5.897  0.6804 -0.1590  0.4676
  659MOL0     C88882   7.786   6.154   6.032 -0.8468 -0.2766  1.4799
  659MOL0     C88883   7.691   6.044   6.048  0.1533 -1.0009  0.1392
  659MOL0     C88884   7.257   5.873   6.058  0.2144  0.8629  0.3783
  659MOL0     C88885   7.276   5.833   5.928 -0.8701  0.3090  0.5162
  659MOL0     C88886   7.186   5.742   5.869  0.4210 -0.4680 -0.1615
  659MOL0     C88887   7.076   5.691   5.939 -0.3540  0.2991  0.5473
  659MOL0     O88888   6.996   5.602   5.874  0.5183 -0.0701  0.2611
  659MOL0     C88889   6.928   5.501   5.951 -0.2511 -0.3533 -0.6355
  659MOL0     C88890   6.816   5.418   5.874  0.0785  0.2453  0.1441
  659MOL0     C88891   6.884   5.307   5.792  0.8884 -0.0665  0.2156
  659MOL0     C88892   6.960   5.376   5.670  0.5068  0.0742 -0.7988
  659MOL0     C88893   6.994   5.278   5.574 -0.2760  0.9227  0.4093
  659MOL0     C88894   7.015   5.204   5.479  0.2127  0.1223  0.4553
  659MOL0     C88895   7.060   5.734   6.070 -0.4795  0.1556 -0.6677
  659MOL0     C88896   7.148   5.818   6.128 -0.6454 -0.5863 -0.1632
  659MOL0     C88897   7.129   5.872   6.270 -0.0295 -0.3771 -0.4007
  659MOL0     H88898   7.416   6.252   6.053 -0.9097 -0.0925 -0.5780
  659MOL0     H88899   7.593   6.423   6.031  1.0230  0.7197  2.1182
  659MOL0     H88900   7.719   6.407   5.783 -1.2748  1.3143  1.0062
  659MOL0     H88901   7.752   6.544   5.888  0.6866  1.1706 -2.3512
  659MOL0     H88902   7.967   6.388   5.748 -0.0078  0.0882  3.1195
  659MOL0     H88903   7.979   6.555   5.793  0.8798 -0.2731 -0.5827
  659MOL0     H88904   7.761   6.474   5.585 -0.4901  0.3455 -0.4540
  659MOL0     H88905   7.931   6.497   5.537  2.4632 -0.7801  2.2199
  659MOL0     H88906   7.926   6.716   5.619 -0.6264  1.6651 -0.9921
  659MOL0     H88907   7.806   6.695   5.496 -1.0469  0.1533  0.9898
  659MOL0     H88908   7.764   6.720   5.789  0.8277 -3.1122 -0.5972
  659MOL0     H88909   7.729   6.843   5.655  0.0094  0.8825  2.4650
  659MOL0     H88910   7.560   6.696   5.560 -0.7055 -2.2453  0.1670
  659MOL0     H88911   7.578   6.574   5.682 -1.8258  0.4418  3.5439
  659MOL0     H88912   7.411   6.795   5.681 -0.1178  0.0974  1.0394
  659MOL0     H88913   7.540   6.834   5.798  2.3777  1.1885 -3.1283
  659MOL0     H88914   7.491   6.631   5.917  2.8564 -1.2668 -4.2247
  659MOL0     H88915   7.353   6.738   5.912 -2.4359 -0.0786 -1.4166
  659MOL0     H88916   7.182   6.654   5.668 -2.2983  0.8699  1.6413
  659MOL0     H88917   7.001   6.440   5.618 -1.8743  1.1139  0.0557
  659MOL0     H88918   7.005   6.315   5.747  0.4003 -0.4848 -0.2224
  659MOL0     H88919   6.900   6.502   5.885 -0.4288 -1.5335  0.1899
  659MOL0     H88920   6.873   6.597   5.740  2.3174 -1.1318 -2.6177
  659MOL0     H88921   6.740   6.332   5.817 -2.1931 -0.1133 -3.2327
  659MOL0     H88922   6.701   6.439   5.678 -1.4051  0.1389  0.5383
  659MOL0     H88923   6.641   6.611   5.802 -0.3027 -1.8721 -2.8625
  659MOL0     H88924   6.670   6.537   5.961  2.1722 -5.1605  0.6332
  659MOL0     H88925   6.494   6.613   5.618 -1.1594  1.0818 -3.0051
  659MOL0     H88926   6.288   6.660   5.508 -2.6389 -0.2733  0.8353
  659MOL0     H88927   5.811   6.312   5.538 -3.7925 -2.4252  1.7436
  659MOL0     H88928   5.600   6.287   5.412 -2.4681  0.3869  0.9237
  659MOL0     H88929   5.454   6.314   5.195 -0.7141 -0.4607 -1.3049
  659MOL0     H88930   5.351   6.345   5.339  0.0926 -2.6697 -1.7450
  659MOL0     H88931   5.318   6.486   5.077  0.1510 -0.1662 -0.2390
  659MOL0     H88932   5.228   6.346   5.139  0.7713  0.0001  0.2580
  659MOL0     H88933   5.136   6.462   5.335 -4.5036  4.4628  0.1155
  659MOL0     H88934   5.239   6.594   5.303 -1.3343 -1.4899  4.0103
  659MOL0     H88935   5.009   6.512   5.132 -0.7107 -0.2344  1.1750
  659MOL0     H88936   5.117   6.641   5.084  0.6747  1.7562  1.6740
  659MOL0     H88937   4.995   6.641   5.371 -0.6343  2.4407  0.7778
  659MOL0     H88938   4.900   6.704   5.233 -0.6005  1.4960  1.3279
  659MOL0     H88939   5.145   6.835   5.327 -0.8664  1.9442  2.0846
  659MOL0     H88940   5.052   6.867   5.183 -0.0398  0.4297 -0.4713
  659MOL0     H88941   4.946   6.868   5.478  2.3504  1.2179 -0.2899
  659MOL0     H88942   4.848   6.887   5.329 -1.0372  2.3935  0.3842
  659MOL0     H88943   4.928   7.107   5.295 -3.3010 -0.0209  0.9055
  659MOL0     H88944   4.916   7.094   5.470  0.6447 -0.1557  1.1808
  659MOL0     H88945   5.605   6.719   5.346  0.8885  0.5513  0.3393
  659MOL0     H88946   5.794   6.731   5.525 -2.5409  1.6534 -0.0268
  659MOL0     H88947   6.072   6.410   5.784 -1.0037  0.8970  1.9154
  659MOL0     H88948   6.281   6.376   5.916  1.0023 -0.9802  0.1533
  659MOL0     H88949   7.889   6.136   6.004 -0.3513  0.1687  2.9476
  659MOL0     H88950   7.724   5.941   6.042 -1.5122 -1.4924 -1.2111
  659MOL0     H88951   7.352   5.871   5.860  0.8074 -2.8913  0.3968
  659MOL0     H88952   7.202   5.703   5.769  0.6606  0.2347 -0.4103
  659MOL0     H88953   6.872   5.542   6.035 -0.6247  0.2805 -1.1801
  659MOL0     H88954   7.007   5.437   5.992  0.0555 -0.4119 -1.2951
  659MOL0     H88955   6.748   5.486   5.822 -0.0065 -0.6069 -0.8919
  659MOL0     H88956   6.755   5.362   5.944  0.0169 -0.6245 -0.5792
  659MOL0     H88957   6.814   5.235   5.749 -0.2232  0.2417  1.4481
  659MOL0     H88958   6.958   5.260   5.858  2.0865 -0.8995 -1.6480
  659MOL0     H88959   6.894   5.441   5.612 -0.1094  0.2750  0.0980
  659MOL0     H88960   7.045   5.433   5.708  1.2410 -0.9169 -0.9331
  659MOL0     H88961   7.033   5.133   5.401  2.5988  1.7312 -0.5774
  659MOL0     H88962   6.980   5.714   6.141 -1.2516  1.9706 -0.9463
  659MOL0     H88963   7.076   5.790   6.320 -1.9561 -0.9782 -3.1496
  659MOL0     H88964   7.222   5.882   6.327  0.1713  1.1302 -0.9650
  659MOL0     H88965   7.070   5.960   6.295  0.8731 -0.5614  2.7864
  660MOL0     O88966   1.074   0.724   3.232  1.1909  0.3896  0.3520
  660MOL0     C88967   1.000   0.815   3.204  0.0380  0.6716 -0.8586
  660MOL0     O88968   1.044   0.948   3.193  0.3152  0.3369 -0.9072
  660MOL0     C88969   1.180   0.972   3.177  0.0044 -0.6396  0.1797
  660MOL0     C88970   1.259   1.024   3.282  0.5582  0.4556 -0.0250
  660MOL0     C88971   1.398   1.043   3.272  0.7712 -0.0699  0.0613
  660MOL0     C88972   1.451   1.026   3.140 -0.0579 -0.7429 -0.8568
  660MOL0     O88973   1.580   1.073   3.134  0.9906  0.7861  0.5176
  660MOL0     C88974   1.631   1.084   3.004 -0.2003  0.2054 -0.3219
  660MOL0     C88975   1.642   1.226   2.974  0.3441 -0.7082  0.2771
  660MOL0     C88976   1.503   1.286   2.957 -0.3087 -0.7724 -0.2001
  660MOL0     C88977   1.531   1.431   2.908 -0.3272  0.0886  0.4592
  660MOL0     C88978   1.402   1.486   2.855  0.4276  0.1024 -0.4363
  660MOL0     C88979   1.295   1.490   2.967  0.7969  0.3700  0.0080
  660MOL0     C88980   1.192   1.371   2.978  0.1230 -0.0113  0.2693
  660MOL0     C88981   1.059   1.419   3.049  0.3265  0.2655  0.3761
  660MOL0     N88982   1.002   1.549   3.004  0.9837  0.3650  0.2642
  660MOL0     C88983   1.042   1.676   3.042  1.6493  0.1037  0.7419
  660MOL0     C88984   0.945   1.763   2.991  0.3007  0.5516 -0.4384
  660MOL0     C88985   0.967   1.908   2.994 -0.1000 -0.2052  0.4705
  660MOL0     C88986   0.840   1.981   2.980  0.2464  0.2860  1.1143
  660MOL0     C88987   0.866   2.136   2.963  0.0921  0.7498 -0.5482
  660MOL0     C88988   0.743   2.221   2.911  0.2555 -0.8794  0.7197
  660MOL0     O88989   0.744   2.205   2.767 -0.0059 -0.2270 -0.0832
  660MOL0     C88990   0.623   2.192   2.702  0.5135  0.2773 -0.5124
  660MOL0     C88991   0.575   2.063   2.658 -0.2732  0.0086  0.5038
  660MOL0     C88992   0.450   2.051   2.595 -0.6427  0.8367 -0.1314
  660MOL0     C88993   0.367   2.166   2.581 -0.8213 -1.0193 -0.5369
  660MOL0     C88994   0.231   2.159   2.519  0.2257  0.3427  0.2016
  660MOL0     O88995   0.149   2.268   2.500 -0.8108 -0.4348 -0.2496
  660MOL0     C88996   0.014   2.260   2.502 -0.9575 -0.4485 -0.0600
  660MOL0     C88997  -0.054   2.384   2.475 -0.4028 -0.0761  0.6512
  660MOL0     C88998  -0.196   2.389   2.473  0.4450 -0.2810 -0.2678
  660MOL0     C88999  -0.272   2.271   2.498 -0.5159  0.1689  0.0617
  660MOL0     O89000  -0.408   2.267   2.483  0.3952 -0.4007  0.0081
  660MOL0     C89001  -0.483   2.286   2.610  0.0971 -1.2818  0.8077
  660MOL0     C89002  -0.638   2.302   2.584 -0.7861 -0.0065  0.4397
  660MOL0     C89003  -0.713   2.176   2.559  0.1122  0.0474 -0.8959
  660MOL0     C89004  -0.682   2.084   2.440  0.2016  1.1327 -1.0771
  660MOL0     C89005  -0.773   1.957   2.451  0.2826  0.1562 -0.7657
  660MOL0     C89006  -0.928   1.979   2.483  0.7320 -0.5458  0.5757
  660MOL0     C89007  -1.032   1.870   2.430 -0.0664  0.5804  0.1717
  660MOL0     C89008  -1.126   1.916   2.323 -0.2290  0.5755 -0.6084
  660MOL0    Cl89009  -1.240   2.023   2.404  0.1714  0.1245 -0.5697
  660MOL0     C89010  -0.201   2.152   2.535  0.4345  0.0210 -0.7218
  660MOL0     C89011  -0.063   2.150   2.549 -0.7864  0.6249  1.1424
  660MOL0     O89012   0.207   2.039   2.483 -0.4062 -0.4108  0.8017
  660MOL0     C89013   0.409   2.289   2.629 -0.0694  0.0387 -0.5436
  660MOL0     C89014   0.532   2.298   2.696 -0.5118  0.3728  0.7257
  660MOL0     N89015   0.851   1.693   2.923 -0.2484  0.6608 -0.2536
  660MOL0     N89016   0.887   1.568   2.928  0.1821 -0.3491  0.0838
  660MOL0     C89017   1.373   0.974   3.037 -0.2528 -0.0600 -0.1295
  660MOL0     C89018   1.244   0.935   3.055 -0.5560  0.1040  0.1691
  660MOL0     C89019   0.855   0.781   3.190 -0.2831  0.2646  0.5806
  660MOL0     C89020   0.806   0.859   3.088  0.2656  0.3909  0.5097
  660MOL0     C89021   0.675   0.859   3.048 -0.8066 -0.7590 -0.3489
  660MOL0     C89022   0.587   0.774   3.123 -0.3994 -0.3169 -0.1655
  660MOL0     O89023   0.462   0.771   3.074 -0.0713  0.7467  0.1226
  660MOL0     C89024   0.366   0.700   3.151 -0.1935  0.0568  1.0071
  660MOL0     C89025   0.220   0.687   3.100  0.5050 -0.1873 -0.1679
  660MOL0     C89026   0.140   0.808   3.054 -0.1693 -0.4797 -0.2965
  660MOL0     C89027   0.182   0.933   3.136  0.6207  0.1516 -0.1198
  660MOL0     C89028   0.080   1.038   3.112 -0.0321 -0.1309  0.0409
  660MOL0     C89029   0.001   1.128   3.098 -1.0512 -0.4343  0.3204
  660MOL0     C89030   0.636   0.703   3.240 -0.2046  0.0340  0.4890
  660MOL0     C89031   0.776   0.699   3.272  0.0252 -0.2701  0.4573
  660MOL0     C89032   0.806   0.619   3.395 -1.1560 -0.4472  0.7770
  660MOL0     H89033   1.200   1.043   3.371 -0.0193  1.6891 -0.6418
  660MOL0     H89034   1.461   1.099   3.341  4.1367  1.0133 -3.5253
  660MOL0     H89035   1.726   1.030   2.997 -0.2318  0.3101 -2.3975
  660MOL0     H89036   1.577   1.039   2.920 -0.2016  1.6991 -1.1632
  660MOL0     H89037   1.692   1.219   2.877 -1.9345 -1.3388 -0.8997
  660MOL0     H89038   1.695   1.285   3.050  0.1545  0.2510 -0.3212
  660MOL0     H89039   1.449   1.287   3.052 -0.2759 -0.9389 -0.1786
  660MOL0     H89040   1.442   1.234   2.882 -0.0740 -1.3475  0.0014
  660MOL0     H89041   1.571   1.496   2.986  2.1851  0.6036 -1.1537
  660MOL0     H89042   1.614   1.432   2.836 -1.0667  0.4417 -0.4114
  660MOL0     H89043   1.417   1.590   2.825  1.1016  0.2500  0.3721
  660MOL0     H89044   1.369   1.427   2.768 -2.2867  0.7229  0.0699
  660MOL0     H89045   1.352   1.503   3.059 -0.7597  2.0676  0.7941
  660MOL0     H89046   1.242   1.584   2.947 -0.9982  0.2409  3.4326
  660MOL0     H89047   1.240   1.290   3.034 -1.2731 -0.7492  0.4317
  660MOL0     H89048   1.175   1.334   2.877 -0.1814 -0.6391  0.5411
  660MOL0     H89049   0.985   1.339   3.040 -1.0477  1.3668  1.3904
  660MOL0     H89050   1.080   1.430   3.156 -0.8775 -0.4053  0.6948
  660MOL0     H89051   1.125   1.706   3.104  2.9536 -1.3437 -0.2376
  660MOL0     H89052   1.019   1.940   3.085  0.3966 -1.2347  0.5647
  660MOL0     H89053   1.038   1.918   2.912  0.4545 -0.6464  0.8879
  660MOL0     H89054   0.790   1.934   2.895  2.5867 -2.8973  1.3228
  660MOL0     H89055   0.765   1.965   3.058 -1.3574 -1.3017 -0.6201
  660MOL0     H89056   0.963   2.150   2.914  1.3682 -0.8504  1.3416
  660MOL0     H89057   0.871   2.179   3.064  0.5991 -3.0493  1.2209
  660MOL0     H89058   0.756   2.327   2.935 -0.4702 -1.4079  4.0254
  660MOL0     H89059   0.650   2.197   2.962 -0.0700  0.9621  1.0666
  660MOL0     H89060   0.650   1.985   2.665  0.8716  0.8071 -2.0724
  660MOL0     H89061   0.410   1.955   2.563 -0.1279  0.8255 -0.7687
  660MOL0     H89062   0.010   2.466   2.443  3.3275 -2.5892  1.0661
  660MOL0     H89063  -0.250   2.481   2.451 -1.3641 -1.2531 -0.0865
  660MOL0     H89064  -0.465   2.205   2.682  0.7677 -0.1754  1.9120
  660MOL0     H89065  -0.453   2.376   2.663  1.1653 -0.6384 -0.8006
  660MOL0     H89066  -0.684   2.350   2.671  1.3271  3.7678 -0.2680
  660MOL0     H89067  -0.657   2.368   2.499  2.3263  0.0294 -0.3652
  660MOL0     H89068  -0.704   2.120   2.652 -0.5543  1.0788 -0.1946
  660MOL0     H89069  -0.816   2.213   2.562  0.5138  1.1707 -0.1854
  660MOL0     H89070  -0.576   2.058   2.440  0.1964  1.0770  0.0534
  660MOL0     H89071  -0.716   2.134   2.349  0.9692 -0.5384 -2.3358
  660MOL0     H89072  -0.726   1.903   2.535  1.3618  2.0256 -0.1079
  660MOL0     H89073  -0.759   1.894   2.363 -3.6364 -5.7753  2.1924
  660MOL0     H89074  -0.942   1.994   2.591 -0.2505 -2.2524  0.7194
  660MOL0     H89075  -0.962   2.067   2.428 -2.1399 -1.0454  1.4240
  660MOL0     H89076  -1.089   1.838   2.518 -2.7838 -0.9065 -1.9884
  660MOL0     H89077  -0.965   1.791   2.396  1.4780  1.2694  1.4622
  660MOL0     H89078  -1.065   1.978   2.256  3.0063 -0.4811  1.1429
  660MOL0     H89079  -1.184   1.839   2.272  1.2520 -2.0176  1.4049
  660MOL0     H89080  -0.246   2.055   2.553 -1.5269  1.2580  1.6756
  660MOL0     H89081  -0.021   2.058   2.587 -3.4394 -1.4896 -0.6172
  660MOL0     H89082   0.340   2.373   2.630 -1.1020 -0.7946 -0.3154
  660MOL0     H89083   0.551   2.397   2.738 -0.7959  0.0577  1.6342
  660MOL0     H89084   1.401   0.952   2.935  1.4649  0.8856  0.1068
  660MOL0     H89085   1.193   0.889   2.971  0.1717  0.1932 -0.3342
  660MOL0     H89086   0.865   0.910   3.013 -0.2479 -2.3080 -1.9185
  660MOL0     H89087   0.635   0.916   2.965  1.0941  0.7800 -0.2914
  660MOL0     H89088   0.363   0.744   3.251  0.5751  0.2215  0.9617
  660MOL0     H89089   0.400   0.599   3.175 -1.9822 -1.1261 -0.9924
  660MOL0     H89090   0.156   0.642   3.177 -3.2040  4.1672 -0.2398
  660MOL0     H89091   0.222   0.614   3.018 -4.8985 -0.8701 -0.0865
  660MOL0     H89092   0.031   0.808   3.061 -0.1140  0.1810  0.7491
  660MOL0     H89093   0.162   0.830   2.949 -2.1120  1.0361 -0.4520
  660MOL0     H89094   0.181   0.917   3.244 -2.6942 -1.4430 -0.2559
  660MOL0     H89095   0.280   0.967   3.102  0.1278  1.7604 -0.0310
  660MOL0     H89096  -0.052   1.221   3.094  2.7235  1.9016 -0.9727
  660MOL0     H89097   0.572   0.646   3.306 -1.0660 -1.3774 -1.4688
  660MOL0     H89098   0.881   0.540   3.384 -0.0529 -0.0956  4.3823
  660MOL0     H89099   0.862   0.670   3.474 -0.8097 -0.4138  0.5152
  660MOL0     H89100   0.714   0.575   3.434 -1.5682  0.1405  0.4767
  661MOL0     O89101   4.543   8.176   7.027 -0.9168  0.2611 -0.2717
  661MOL0     C89102   4.578   8.230   6.918  0.0546  0.1497  0.3316
  661MOL0     O89103   4.522   8.329   6.861  0.2300  0.3005 -0.0409
  661MOL0     C89104   4.415   8.403   6.911  0.0146 -0.7302 -0.4997
  661MOL0     C89105   4.290   8.412   6.851 -0.8412 -0.4946 -0.1240
  661MOL0     C89106   4.189   8.486   6.913  0.3694  0.5714  0.5097
  661MOL0     C89107   4.214   8.564   7.024 -0.1582 -0.5619  0.0480
  661MOL0     O89108   4.110   8.630   7.079 -0.5365  0.2171  0.0431
  661MOL0     C89109   4.023   8.710   6.994 -0.4169  0.2361  0.3656
  661MOL0     C89110   3.950   8.801   7.094 -0.7400 -0.0482  0.6118
  661MOL0     C89111   3.839   8.877   7.022 -0.2592  0.6946 -0.0332
  661MOL0     C89112   3.807   9.007   7.096 -1.0372  1.0528 -0.7863
  661MOL0     C89113   3.888   9.134   7.040 -0.0215  0.5671  1.0298
  661MOL0     C89114   3.873   9.251   7.128 -0.8853 -0.6655 -0.4527
  661MOL0     C89115   3.727   9.294   7.130 -0.6857  0.1148 -0.6900
  661MOL0     C89116   3.710   9.409   7.034  0.0005 -0.1977  0.6478
  661MOL0     N89117   3.575   9.463   7.022 -0.0539  0.3338 -0.3694
  661MOL0     C89118   3.554   9.595   7.009 -0.3684 -0.2313 -0.8655
  661MOL0     C89119   3.425   9.614   6.972 -0.0773 -0.0653  0.0122
  661MOL0     C89120   3.367   9.753   6.942 -0.0853  0.1681  0.2733
  661MOL0     C89121   3.296   9.755   6.805 -0.3893  0.5926 -0.2227
  661MOL0     C89122   3.398   9.757   6.694 -0.5958 -0.7244  0.7615
  661MOL0     C89123   3.324   9.768   6.552  0.0596 -0.1604  1.1628
  661MOL0     O89124   3.243   9.654   6.546 -0.0256  0.0713 -1.0711
  661MOL0     C89125   3.187   9.623   6.429  0.5756  0.3701 -0.1937
  661MOL0     C89126   3.110   9.513   6.429 -0.2283  0.9473 -0.7767
  661MOL0     C89127   3.036   9.463   6.319  0.4607  0.2641 -0.7938
  661MOL0     C89128   3.038   9.522   6.191  0.1027 -0.5309  0.7708
  661MOL0     C89129   2.958   9.474   6.084  0.7177 -0.2417 -0.5714
  661MOL0     O89130   2.924   9.350   6.082  0.1023  0.6536 -0.1866
  661MOL0     C89131   2.866   9.287   5.971  0.8031 -0.8701  0.1359
  661MOL0     C89132   2.798   9.170   5.972  0.7012 -0.6109 -0.4616
  661MOL0     C89133   2.777   9.085   5.856  1.6257 -0.3773  0.7356
  661MOL0     C89134   2.821   9.125   5.730 -0.6283  0.3165 -0.5569
  661MOL0     O89135   2.791   9.069   5.610 -1.4785  0.1213  0.0035
  661MOL0     C89136   2.755   8.935   5.595  0.3820 -0.3359  0.7480
  661MOL0     C89137   2.633   8.943   5.508  0.3771  0.2830 -0.1659
  661MOL0     C89138   2.509   8.961   5.601 -1.0545 -0.5419  0.2087
  661MOL0     C89139   2.377   8.950   5.522  0.7254 -0.2631  0.1256
  661MOL0     C89140   2.341   8.806   5.462 -0.9342 -0.6695  0.1031
  661MOL0     C89141   2.284   8.717   5.564  0.9722 -0.9999 -0.7486
  661MOL0     C89142   2.372   8.633   5.662 -0.4947 -0.1698  0.4412
  661MOL0     C89143   2.304   8.604   5.794 -0.6995  0.6065 -0.3214
  661MOL0    Cl89144   2.403   8.489   5.898 -0.2360  0.5285 -0.0852
  661MOL0     C89145   2.894   9.242   5.730 -0.6119 -0.0922 -0.0962
  661MOL0     C89146   2.919   9.315   5.842  0.1805 -0.1462 -0.2910
  661MOL0     O89147   2.927   9.559   5.994  0.1533  0.4278 -0.4836
  661MOL0     C89148   3.118   9.643   6.193 -0.9005  0.5921  0.8704
  661MOL0     C89149   3.186   9.695   6.307 -0.3364 -0.3524 -0.7274
  661MOL0     N89150   3.369   9.490   6.958  0.3273  0.3025  0.1041
  661MOL0     N89151   3.459   9.403   6.978 -0.6415 -0.1002  0.0037
  661MOL0     C89152   4.343   8.568   7.079  0.3382  0.7551 -0.6589
  661MOL0     C89153   4.442   8.491   7.018  0.1310  0.5021  0.7639
  661MOL0     C89154   4.691   8.186   6.828  0.0808  0.5494 -0.4697
  661MOL0     C89155   4.686   8.198   6.682 -0.3016 -0.0778 -0.3966
  661MOL0     C89156   4.790   8.152   6.602  0.1317 -0.4088  0.2116
  661MOL0     C89157   4.910   8.099   6.656  0.6661 -0.6567  0.5807
  661MOL0     O89158   5.018   8.051   6.588 -0.4040 -0.0595  0.3130
  661MOL0     C89159   5.034   8.067   6.445 -0.4280  0.2522  1.0505
  661MOL0     C89160   5.182   8.022   6.412  0.1146  0.7913 -0.6857
  661MOL0     C89161   5.202   7.880   6.458  0.1117 -0.6215 -0.0761
  661MOL0     C89162   5.283   7.797   6.351 -0.0631  0.2144 -0.8742
  661MOL0     C89163   5.227   7.793   6.220 -0.2010  0.0744  0.4684
  661MOL0     C89164   5.173   7.793   6.114  0.6307  0.0703 -0.5260
  661MOL0     C89165   4.916   8.083   6.796 -0.5374 -1.4679 -0.4055
  661MOL0     C89166   4.817   8.136   6.885  0.5959  0.0693 -0.9251
  661MOL0     C89167   4.829   8.127   7.032 -1.0418  0.0533  0.3092
  661MOL0     H89168   4.280   8.361   6.756 -2.3109  0.6294 -0.6061
  661MOL0     H89169   4.092   8.475   6.867  0.1618 -0.3992  1.1416
  661MOL0     H89170   4.085   8.772   6.928 -0.3242 -0.7142 -0.4683
  661MOL0     H89171   3.945   8.657   6.940 -1.4727  1.8948  0.1900
  661MOL0     H89172   4.013   8.873   7.147 -1.0893  0.0350  0.9163
  661MOL0     H89173   3.907   8.726   7.161 -0.5647 -0.8649 -0.1785
  661MOL0     H89174   3.756   8.806   7.028  0.3726 -0.0311  0.3431
  661MOL0     H89175   3.886   8.898   6.926  1.6873 -1.5263  0.3590
  661MOL0     H89176   3.701   9.031   7.082 -1.2997  1.0647  0.9978
  661MOL0     H89177   3.834   9.003   7.202  1.9021  2.1597 -1.3869
  661MOL0     H89178   3.993   9.102   7.044  0.0658  0.9342  1.9470
  661MOL0     H89179   3.855   9.154   6.937 -2.9848  2.3899  2.2165
  661MOL0     H89180   3.899   9.208   7.226  0.7565  1.8608  0.3209
  661MOL0     H89181   3.939   9.335   7.105 -0.7045 -0.0658  1.9470
  661MOL0     H89182   3.696   9.337   7.225 -2.1078  1.4867 -1.7271
  661MOL0     H89183   3.657   9.211   7.112  2.1616 -2.3433 -1.3172
  661MOL0     H89184   3.778   9.480   7.082 -1.6996  1.1568  1.1238
  661MOL0     H89185   3.754   9.386   6.936 -0.3274 -1.4769  0.7785
  661MOL0     H89186   3.628   9.671   7.028 -1.5161  0.3729  1.7434
  661MOL0     H89187   3.297   9.779   7.022 -1.5983  0.3625 -1.0695
  661MOL0     H89188   3.447   9.827   6.949  0.9283 -0.4867 -2.6717
  661MOL0     H89189   3.235   9.664   6.805  0.8595 -0.2856 -0.2042
  661MOL0     H89190   3.216   9.828   6.794 -0.3299  0.2932 -4.1191
  661MOL0     H89191   3.451   9.661   6.691 -0.6407 -0.9105  3.6259
  661MOL0     H89192   3.474   9.836   6.705 -2.8238  1.6628  0.0867
  661MOL0     H89193   3.397   9.745   6.474 -2.3742 -4.0970 -0.2458
  661MOL0     H89194   3.263   9.859   6.545 -0.2488 -0.4069  0.6537
  661MOL0     H89195   3.095   9.454   6.519 -0.4618 -2.1539 -2.6745
  661MOL0     H89196   2.980   9.372   6.339  1.1070  0.4705  2.4599
  661MOL0     H89197   2.756   9.138   6.067  1.3831  2.6190  1.0734
  661MOL0     H89198   2.717   8.997   5.876  1.0547  0.0017  0.7134
  661MOL0     H89199   2.837   8.884   5.544  0.5049 -0.3633  0.9716
  661MOL0     H89200   2.746   8.883   5.691  1.3834 -0.3921  0.8211
  661MOL0     H89201   2.651   9.023   5.436  3.8415  2.0578  2.3476
  661MOL0     H89202   2.626   8.846   5.459 -3.6646  0.6432 -0.6631
  661MOL0     H89203   2.495   8.892   5.685 -0.9358  0.0290  0.7078
  661MOL0     H89204   2.518   9.061   5.645  0.8591  0.0383 -1.3866
  661MOL0     H89205   2.387   9.018   5.438 -5.2229  1.9968  0.7713
  661MOL0     H89206   2.290   8.981   5.580 -0.4409 -0.3562 -1.5155
  661MOL0     H89207   2.437   8.759   5.440 -1.9674 -3.2079  0.6978
  661MOL0     H89208   2.284   8.806   5.369 -2.3207 -2.3351  0.8908
  661MOL0     H89209   2.216   8.778   5.625 -0.7743 -1.3857 -2.2276
  661MOL0     H89210   2.227   8.645   5.504 -3.9267 -0.3287  2.4847
  661MOL0     H89211   2.474   8.671   5.671  0.0748 -0.9193 -2.0582
  661MOL0     H89212   2.386   8.532   5.623  2.0652  0.5930 -0.8222
  661MOL0     H89213   2.291   8.698   5.849  0.4658  1.0598 -0.7778
  661MOL0     H89214   2.207   8.563   5.767 -0.2895 -0.1603 -0.6907
  661MOL0     H89215   2.941   9.269   5.636  2.0127  1.3898  1.5110
  661MOL0     H89216   2.975   9.406   5.824 -1.9970  1.0197 -1.6676
  661MOL0     H89217   3.113   9.705   6.103 -0.2649 -1.8432 -0.9663
  661MOL0     H89218   3.244   9.786   6.304  0.5406 -0.8830 -0.3075
  661MOL0     H89219   4.373   8.625   7.167 -2.4609 -0.4616  1.2241
  661MOL0     H89220   4.539   8.488   7.067 -0.1805 -0.3068  1.3508
  661MOL0     H89221   4.590   8.231   6.644 -1.6572  1.6016  3.9346
  661MOL0     H89222   4.761   8.177   6.500 -0.8548 -0.3219  0.5020
  661MOL0     H89223   5.016   8.170   6.412  0.0760 -0.7154 -2.6915
  661MOL0     H89224   4.973   7.990   6.399 -0.5272 -0.5560  2.4679
  661MOL0     H89225   5.250   8.084   6.470 -0.5676  0.7251  0.1977
  661MOL0     H89226   5.186   8.035   6.303  1.9020 -0.8689 -0.8768
  661MOL0     H89227   5.103   7.841   6.482 -0.0567 -1.3244 -1.7827
  661MOL0     H89228   5.261   7.891   6.549  0.7049  0.3741 -0.5576
  661MOL0     H89229   5.386   7.830   6.340 -0.6913  2.0519 -1.6611
  661MOL0     H89230   5.275   7.691   6.375 -2.0126 -0.0457 -2.4388
  661MOL0     H89231   5.138   7.786   6.013  0.8135 -1.1695 -0.5155
  661MOL0     H89232   5.007   8.050   6.846 -1.0764 -2.2716  0.0794
  661MOL0     H89233   4.927   8.087   7.060 -1.0478 -0.8761 -0.8928
  661MOL0     H89234   4.824   8.231   7.064  1.8072 -0.1488  1.7598
  661MOL0     H89235   4.750   8.061   7.070  0.9055 -2.0175  1.0128
  662MOL0     O89236   9.357   9.888   8.250  0.4409  0.6570 -1.0478
  662MOL0     C89237   9.428   9.784   8.232 -0.2631  0.2966 -0.4689
  662MOL0     O89238   9.422   9.700   8.124  0.1975 -0.4896  0.6985
  662MOL0     C89239   9.315   9.706   8.036  0.0590 -0.4694  0.2384
  662MOL0     C89240   9.328   9.738   7.901  0.8735  1.0777  0.4433
  662MOL0     C89241   9.216   9.729   7.808 -0.1192  0.2451 -0.3758
  662MOL0     C89242   9.082   9.710   7.861 -0.6663  0.4842  0.4452
  662MOL0     O89243   8.985   9.730   7.762  1.1029  0.2625 -0.8745
  662MOL0     C89244   8.846   9.706   7.805 -0.8250 -0.4557 -0.6526
  662MOL0     C89245   8.800   9.841   7.882  0.3111  0.5808 -0.4933
  662MOL0     C89246   8.788   9.973   7.796  0.1308 -0.5878  0.5221
  662MOL0     C89247   8.721  10.103   7.864 -0.1906  0.2619  0.1283
  662MOL0     C89248   8.617  10.157   7.765  1.1955  0.2143  0.4172
  662MOL0     C89249   8.540  10.287   7.820  1.1056  0.1186 -0.3073
  662MOL0     C89250   8.471  10.361   7.698 -0.4024  0.1086 -0.5449
  662MOL0     C89251   8.362  10.451   7.764 -0.0387 -0.2452  0.7152
  662MOL0     N89252   8.417  10.573   7.830  0.1788  0.1581 -0.2683
  662MOL0     C89253   8.469  10.599   7.960  0.0412 -0.8573  0.1806
  662MOL0     C89254   8.482  10.731   7.960  0.6717 -0.0627 -0.2808
  662MOL0     C89255   8.513  10.811   8.087 -0.2644 -0.1577  0.1024
  662MOL0     C89256   8.646  10.803   8.148  0.6232  0.5210  0.2116
  662MOL0     C89257   8.741  10.883   8.055 -1.1178 -0.0096 -0.0320
  662MOL0     C89258   8.892  10.875   8.100  0.4896  0.4680  0.2600
  662MOL0     O89259   8.961  10.764   8.042 -0.2909 -0.6830  0.2965
  662MOL0     C89260   9.065  10.718   8.104 -0.7720 -0.1735 -1.2055
  662MOL0     C89261   9.103  10.583   8.082 -0.1235  0.1528 -0.1437
  662MOL0     C89262   9.202  10.521   8.143  0.3882  1.1727  0.1572
  662MOL0     C89263   9.282  10.593   8.238 -0.2778 -0.0124  0.0361
  662MOL0     C89264   9.388  10.526   8.314  0.5585 -0.4758  0.6265
  662MOL0     O89265   9.362  10.390   8.346  0.5403 -0.6957 -0.1658
  662MOL0     C89266   9.476  10.327   8.389  0.0963 -0.5067  0.9216
  662MOL0     C89267   9.560  10.252   8.301  0.9660  0.4399  0.5535
  662MOL0     C89268   9.673  10.194   8.358 -0.1003  0.0494  0.9481
  662MOL0     C89269   9.707  10.200   8.495  0.1740  1.2121  0.4337
  662MOL0     O89270   9.805  10.123   8.553 -0.0475 -0.1333  1.0807
  662MOL0     C89271   9.860  10.008   8.475 -0.2516  0.1201  0.1780
  662MOL0     C89272   9.971  10.040   8.369  0.4208 -0.4179 -0.1416
  662MOL0     C89273  10.109  10.064   8.425  0.1006  0.4387 -0.1745
  662MOL0     C89274  10.178   9.948   8.495 -0.2573 -0.6396 -0.0010
  662MOL0     C89275  10.315  10.003   8.550  0.4752 -0.2747  0.0721
  662MOL0     C89276  10.282  10.098   8.664 -0.1569  0.6163 -0.7247
  662MOL0     C89277  10.399  10.127   8.746  0.2267  0.2314 -0.1956
  662MOL0     C89278  10.410  10.251   8.823  0.2939 -1.2254  0.3612
  662MOL0    Cl89279  10.443  10.373   8.711  0.4158  0.2787 -0.4849
  662MOL0     C89280   9.627  10.271   8.583  0.2083  1.2128  0.3473
  662MOL0     C89281   9.515  10.340   8.535 -0.5050 -0.2989  0.8813
  662MOL0     O89282   9.477  10.589   8.374 -0.1679  0.5969  0.3031
  662MOL0     C89283   9.261  10.731   8.254  0.2228 -0.1005  0.1508
  662MOL0     C89284   9.148  10.796   8.195 -0.3306  0.2034 -0.0366
  662MOL0     N89285   8.461  10.785   7.834  0.5387  0.2522  0.3609
  662MOL0     N89286   8.416  10.692   7.761 -0.4804 -0.6410  0.1829
  662MOL0     C89287   9.071   9.678   7.996 -0.0385 -0.3298 -0.0483
  662MOL0     C89288   9.186   9.678   8.079  0.3804  0.5445  0.3546
  662MOL0     C89289   9.536   9.762   8.334 -0.6617 -0.3696 -0.4744
  662MOL0     C89290   9.629   9.669   8.296 -0.1987  0.4915 -0.2272
  662MOL0     C89291   9.732   9.634   8.382 -0.0938 -0.8340  0.3985
  662MOL0     C89292   9.727   9.687   8.517  0.1708  0.7215  0.4476
  662MOL0     O89293   9.826   9.635   8.600 -0.1228  0.2581 -0.1213
  662MOL0     C89294   9.830   9.665   8.746  0.7166 -1.1675  0.2301
  662MOL0     C89295   9.926   9.596   8.833 -0.1606 -0.5815 -0.3510
  662MOL0     C89296  10.076   9.622   8.790 -0.8084 -0.0941  0.7018
  662MOL0     C89297  10.158   9.530   8.870 -0.2826  0.0615 -1.2434
  662MOL0     C89298  10.303   9.525   8.847 -0.9063 -0.3321 -0.0638
  662MOL0     C89299  10.423   9.535   8.817  0.4683  0.1987 -0.7877
  662MOL0     C89300   9.636   9.788   8.555 -1.2333 -0.3746 -0.3843
  662MOL0     C89301   9.542   9.827   8.464  0.3739 -0.4260  0.9158
  662MOL0     C89302   9.456   9.950   8.502  0.4833  1.2684  1.2515
  662MOL0     H89303   9.425   9.748   7.853  0.1686 -0.1017 -1.3037
  662MOL0     H89304   9.230   9.743   7.701  2.8174  2.6428  0.1858
  662MOL0     H89305   8.790   9.677   7.716  1.9457 -3.2933 -1.6751
  662MOL0     H89306   8.849   9.620   7.872 -1.3983  0.0589  0.0536
  662MOL0     H89307   8.868   9.858   7.966 -2.9637 -1.3373  2.9074
  662MOL0     H89308   8.703   9.821   7.930 -1.1914  1.1569 -3.1083
  662MOL0     H89309   8.727   9.948   7.709  0.3293  0.0423  0.1941
  662MOL0     H89310   8.882  10.005   7.749 -0.9718  1.1897 -0.5673
  662MOL0     H89311   8.679  10.067   7.958 -0.3281  1.4726  0.5411
  662MOL0     H89312   8.799  10.179   7.875  0.4028  0.1457 -2.4677
  662MOL0     H89313   8.665  10.190   7.672 -1.1251  3.6333  0.2491
  662MOL0     H89314   8.543  10.078   7.750  1.2228  0.4990 -1.4079
  662MOL0     H89315   8.463  10.265   7.894  0.8560  0.5072 -0.4481
  662MOL0     H89316   8.602  10.363   7.868 -2.0083  2.2613  0.6470
  662MOL0     H89317   8.421  10.284   7.637  0.1066 -2.0927  1.6590
  662MOL0     H89318   8.540  10.423   7.640 -1.5983  1.2094 -0.8446
  662MOL0     H89319   8.298  10.483   7.681 -2.2217 -3.0391  1.2073
  662MOL0     H89320   8.313  10.391   7.840 -1.6580  0.1848  0.0454
  662MOL0     H89321   8.471  10.537   8.049 -2.5493  1.3073  1.9151
  662MOL0     H89322   8.491  10.916   8.067 -0.1580 -0.7213 -3.6521
  662MOL0     H89323   8.438  10.779   8.160  0.3740 -1.0299  0.3925
  662MOL0     H89324   8.659  10.860   8.241  2.4437  1.0158 -0.2921
  662MOL0     H89325   8.678  10.701   8.170 -1.2970 -0.1442  0.0967
  662MOL0     H89326   8.709  10.988   8.056 -0.6340  0.1370  0.3022
  662MOL0     H89327   8.747  10.839   7.955 -1.5458 -0.5191  0.1621
  662MOL0     H89328   8.885  10.868   8.209 -0.3438 -0.9150  0.1347
  662MOL0     H89329   8.947  10.964   8.069  0.4388  1.3549  2.5053
  662MOL0     H89330   9.044  10.532   8.007  1.9416  0.0555 -1.7911
  662MOL0     H89331   9.224  10.415   8.128 -0.2178  1.0416  0.1875
  662MOL0     H89332   9.549  10.263   8.194  1.9504  1.3810  0.5316
  662MOL0     H89333   9.740  10.142   8.291 -0.3909 -1.6673  1.9508
  662MOL0     H89334   9.889   9.941   8.556 -2.9822 -0.5142  0.7198
  662MOL0     H89335   9.776   9.956   8.428  0.4912 -0.1457 -0.8986
  662MOL0     H89336   9.971   9.968   8.287 -0.7984  0.2410 -0.7503
  662MOL0     H89337   9.929  10.129   8.323 -2.9610 -1.5668  0.4519
  662MOL0     H89338  10.174  10.107   8.349 -0.4521 -0.0534 -0.9416
  662MOL0     H89339  10.102  10.138   8.506  1.5887  0.9866 -0.5270
  662MOL0     H89340  10.214   9.891   8.409 -0.8018 -1.8524  0.5659
  662MOL0     H89341  10.104   9.897   8.557 -1.9285  4.4557  2.8403
  662MOL0     H89342  10.361  10.048   8.461  2.9915 -4.2763 -0.9446
  662MOL0     H89343  10.384   9.929   8.592  0.4815  0.1919  0.8939
  662MOL0     H89344  10.255  10.196   8.623  1.5562  1.5368  0.2160
  662MOL0     H89345  10.197  10.061   8.722  0.4996 -1.5915 -1.0966
  662MOL0     H89346  10.488  10.121   8.682 -0.2599 -5.1344 -0.8171
  662MOL0     H89347  10.415  10.045   8.818 -0.2920 -0.9815 -1.4211
  662MOL0     H89348  10.318  10.276   8.876 -0.5477  2.5452 -2.4672
  662MOL0     H89349  10.489  10.245   8.899  0.6066 -0.2842  0.1230
  662MOL0     H89350   9.659  10.273   8.687 -0.0362 -4.3338  0.8163
  662MOL0     H89351   9.440  10.404   8.580 -2.3282 -0.7018 -1.3776
  662MOL0     H89352   9.329  10.776   8.325  0.3611 -0.3029  0.1482
  662MOL0     H89353   9.119  10.896   8.226 -0.7146 -0.5677  2.2105
  662MOL0     H89354   8.972   9.661   8.038  0.1514  0.2618  0.6694
  662MOL0     H89355   9.193   9.656   8.185  1.0160 -2.0521 -0.1579
  662MOL0     H89356   9.639   9.623   8.198  0.0781 -2.7562  1.1803
  662MOL0     H89357   9.809   9.565   8.347  0.5461  0.9953 -2.0827
  662MOL0     H89358   9.732   9.653   8.793 -0.8003 -1.4221 -2.7257
  662MOL0     H89359   9.857   9.771   8.756 -0.3027 -0.7338 -1.2355
  662MOL0     H89360   9.907   9.488   8.827  2.5160 -1.2618  1.4904
  662MOL0     H89361   9.912   9.636   8.934  1.0340  0.6112 -0.6369
  662MOL0     H89362  10.107   9.726   8.801  1.6509 -0.6036 -0.5556
  662MOL0     H89363  10.097   9.600   8.684  0.6983 -0.1307  0.9835
  662MOL0     H89364  10.146   9.542   8.978  1.0125 -4.2077 -0.3994
  662MOL0     H89365  10.110   9.431   8.870 -1.8469  0.6711  2.2224
  662MOL0     H89366  10.520   9.554   8.776  1.7658  3.9745  3.2557
  662MOL0     H89367   9.646   9.834   8.652  2.0116  2.1514 -1.7631
  662MOL0     H89368   9.468  10.025   8.423  0.3062 -0.0210 -0.0337
  662MOL0     H89369   9.350   9.926   8.510 -0.3935  3.1546 -2.5311
  662MOL0     H89370   9.487   9.989   8.599  1.2862 -1.5740  2.2422
  663MOL0     O89371   7.090  11.248   7.733 -1.2861  0.2266 -0.5410
  663MOL0     C89372   7.159  11.202   7.825  0.6323  0.0834 -0.9667
  663MOL0     O89373   7.282  11.147   7.819 -0.1124 -0.4757  0.9843
  663MOL0     C89374   7.349  11.139   7.693  0.1825  0.4584 -0.8871
  663MOL0     C89375   7.381  11.014   7.664  0.1719  0.7074 -0.6242
  663MOL0     C89376   7.447  10.974   7.553 -0.5593 -0.0447 -0.5536
  663MOL0     C89377   7.507  11.079   7.478  1.3461  0.2036  0.0255
  663MOL0     O89378   7.565  11.061   7.359 -0.0056  1.0270 -0.0992
  663MOL0     C89379   7.637  10.939   7.340  0.4287  0.6729  0.1231
  663MOL0     C89380   7.758  10.945   7.258  0.2826  0.5696  0.6863
  663MOL0     C89381   7.818  10.809   7.224 -0.4534  0.2638  0.0882
  663MOL0     C89382   7.975  10.810   7.207  1.1077 -0.4647 -0.4408
  663MOL0     C89383   7.997  10.660   7.178 -0.4097 -0.9644 -0.0627
  663MOL0     C89384   8.154  10.637   7.182 -0.4444 -0.4007  0.1883
  663MOL0     C89385   8.201  10.511   7.110 -0.0245 -0.4776 -0.2901
  663MOL0     C89386   8.171  10.370   7.167  0.4422 -0.9101  0.9173
  663MOL0     N89387   8.017  10.341   7.167  0.1622  1.1001 -0.2803
  663MOL0     C89388   7.949  10.321   7.056 -0.2106  0.0242 -0.8283
  663MOL0     C89389   7.820  10.325   7.087  0.4537 -0.4090 -0.2541
  663MOL0     C89390   7.719  10.313   6.977  0.2697 -0.7805  0.2742
  663MOL0     C89391   7.577  10.308   7.025 -0.6662 -0.2753  0.0363
  663MOL0     C89392   7.552  10.171   7.094 -0.0553  0.9066 -0.2265
  663MOL0     C89393   7.416  10.141   7.165  0.6521  0.1671  0.3868
  663MOL0     O89394   7.375  10.270   7.226 -0.5437  0.4036 -0.4522
  663MOL0     C89395   7.239  10.294   7.257 -0.8431 -0.3029  0.0805
  663MOL0     C89396   7.202  10.428   7.272 -0.2029 -0.7305  0.3380
  663MOL0     C89397   7.062  10.465   7.295 -0.2648 -0.3969 -0.3564
  663MOL0     C89398   6.967  10.369   7.316 -0.7479 -0.4439 -1.1232
  663MOL0     C89399   6.827  10.396   7.360  0.0016  0.3178 -0.0151
  663MOL0     O89400   6.776  10.510   7.317  0.3076  0.0696 -0.6471
  663MOL0     C89401   6.674  10.579   7.390 -0.4799  0.8957  0.5300
  663MOL0     C89402   6.671  10.563   7.531  0.9670 -0.8527 -0.1619
  663MOL0     C89403   6.582  10.637   7.608 -1.1752  1.0661 -0.1907
  663MOL0     C89404   6.486  10.730   7.556 -0.8529  0.5536  0.0388
  663MOL0     O89405   6.397  10.796   7.638 -0.5554  0.4200 -0.1268
  663MOL0     C89406   6.422  10.937   7.633  0.3712 -0.2299 -1.0497
  663MOL0     C89407   6.564  10.978   7.682  0.1096  0.4496 -0.2121
  663MOL0     C89408   6.598  11.129   7.660 -0.0771 -0.6350 -0.2667
  663MOL0     C89409   6.729  11.181   7.708 -0.0364 -0.1314  0.2290
  663MOL0     C89410   6.747  11.340   7.702  0.6243  1.3641  0.2325
  663MOL0     C89411   6.804  11.385   7.570 -0.7051  0.1096 -0.2251
  663MOL0     C89412   6.828  11.545   7.580  0.1642  0.7164 -0.3624
  663MOL0     C89413   6.733  11.613   7.479 -0.9100 -0.1480  0.2239
  663MOL0    Cl89414   6.564  11.604   7.532 -0.3478  0.4474 -0.5127
  663MOL0     C89415   6.493  10.746   7.417 -0.6662 -0.4587  0.1342
  663MOL0     C89416   6.580  10.671   7.339  0.4611  0.4072  0.3485
  663MOL0     O89417   6.763  10.311   7.420  0.8342 -0.0066 -0.0822
  663MOL0     C89418   7.012  10.235   7.324 -1.7026 -0.5107 -0.4722
  663MOL0     C89419   7.146  10.201   7.292  0.1286 -0.8071 -1.0655
  663MOL0     N89420   7.804  10.342   7.218 -0.7302 -0.5051  0.8630
  663MOL0     N89421   7.927  10.350   7.270 -0.1078 -0.3744  0.5818
  663MOL0     C89422   7.468  11.211   7.497 -0.7641  0.2902 -0.0066
  663MOL0     C89423   7.397  11.237   7.607 -0.2075 -0.8783 -0.7666
  663MOL0     C89424   7.088  11.212   7.960  0.8712  0.7801 -0.1758
  663MOL0     C89425   6.988  11.113   7.987  0.5556  0.1757 -0.9145
  663MOL0     C89426   6.930  11.100   8.118  0.7078 -0.7415  0.1646
  663MOL0     C89427   6.972  11.192   8.213  0.3056 -0.4649 -0.1874
  663MOL0     O89428   6.933  11.194   8.350 -0.0646 -0.3716 -0.2684
  663MOL0     C89429   6.838  11.112   8.414  0.1273  0.2293 -0.0671
  663MOL0     C89430   6.869  10.974   8.458  0.0625 -0.5939  1.0099
  663MOL0     C89431   7.017  10.958   8.524  0.0278  0.4867  0.0972
  663MOL0     C89432   7.048  10.818   8.576 -0.8083 -0.0687  0.0935
  663MOL0     C89433   7.174  10.819   8.643  0.4968  0.8272  0.1522
  663MOL0     C89434   7.262  10.838   8.717 -1.6665  0.1252  0.0559
  663MOL0     C89435   7.060  11.294   8.185 -0.2245  0.1260 -1.1915
  663MOL0     C89436   7.121  11.308   8.060  0.8389  0.0849  0.4357
  663MOL0     C89437   7.213  11.416   8.017  0.4054 -0.1551  0.5918
  663MOL0     H89438   7.356  10.942   7.742 -0.4193  2.2583  0.6576
  663MOL0     H89439   7.459  10.870   7.526 -0.5569 -0.9201  2.5260
  663MOL0     H89440   7.664  10.897   7.438 -1.5437 -0.5784  0.1921
  663MOL0     H89441   7.568  10.863   7.302  1.6054  0.0179 -0.7718
  663MOL0     H89442   7.829  10.998   7.321 -0.2917  1.1978  0.8076
  663MOL0     H89443   7.729  11.003   7.170  0.7487  1.0481  0.8452
  663MOL0     H89444   7.767  10.773   7.134  1.8089  3.0051 -2.4968
  663MOL0     H89445   7.798  10.736   7.303  1.7790  0.3681  0.8171
  663MOL0     H89446   8.013  10.868   7.123  2.8023 -0.7915  0.0710
  663MOL0     H89447   8.025  10.846   7.297 -0.2862  2.3227 -0.6687
  663MOL0     H89448   7.937  10.601   7.248 -2.7963  1.0274 -0.2913
  663MOL0     H89449   7.957  10.653   7.077  0.0450  1.0319 -0.4190
  663MOL0     H89450   8.198  10.723   7.131  0.9005 -0.7212  0.7638
  663MOL0     H89451   8.192  10.644   7.284  0.4860 -0.3428 -0.1519
  663MOL0     H89452   8.309  10.509   7.093 -0.1315 -0.2982 -1.0113
  663MOL0     H89453   8.147  10.522   7.016  0.3248  1.5940 -0.2971
  663MOL0     H89454   8.217  10.291   7.106  0.1357 -0.0669 -0.4443
  663MOL0     H89455   8.200  10.356   7.272  0.7055 -3.8227  0.5402
  663MOL0     H89456   7.990  10.309   6.956 -0.0032 -1.8933 -0.5487
  663MOL0     H89457   7.724  10.398   6.908  0.1523 -1.8548 -1.1035
  663MOL0     H89458   7.737  10.222   6.920  1.1723 -0.4744  0.0580
  663MOL0     H89459   7.553  10.397   7.084  0.6125  0.4766 -0.5106
  663MOL0     H89460   7.520  10.312   6.932  1.1375  0.0593 -1.1263
  663MOL0     H89461   7.625  10.151   7.173  1.4729 -1.7913 -2.1486
  663MOL0     H89462   7.566  10.093   7.018 -0.2804  0.3736  0.2709
  663MOL0     H89463   7.426  10.061   7.238 -2.1387  2.4662  3.5857
  663MOL0     H89464   7.348  10.105   7.087  2.2832 -1.7381 -0.2423
  663MOL0     H89465   7.286  10.492   7.249  1.5317 -2.6214  1.1597
  663MOL0     H89466   7.042  10.571   7.312  2.2276 -0.0981  1.2938
  663MOL0     H89467   6.730  10.489   7.583  0.5632 -0.4273  0.9271
  663MOL0     H89468   6.584  10.616   7.715  3.5596  0.5743 -0.1528
  663MOL0     H89469   6.399  10.969   7.531 -0.7022  3.3006  0.1342
  663MOL0     H89470   6.343  10.985   7.691  1.5429 -1.7730  2.0601
  663MOL0     H89471   6.561  10.952   7.788  1.2161 -1.7830 -0.6768
  663MOL0     H89472   6.641  10.920   7.630  0.5392  0.0487  0.8515
  663MOL0     H89473   6.598  11.142   7.551  0.0257 -1.6043 -0.3966
  663MOL0     H89474   6.519  11.187   7.707 -2.2539 -1.9287 -2.0893
  663MOL0     H89475   6.814  11.131   7.661  0.5149 -0.1662  1.2328
  663MOL0     H89476   6.733  11.155   7.814  2.7956  1.0150  0.5009
  663MOL0     H89477   6.818  11.367   7.781  2.1215 -1.7127  0.0897
  663MOL0     H89478   6.646  11.376   7.722  0.2617  0.1352  0.7335
  663MOL0     H89479   6.900  11.337   7.547 -1.6925 -1.8095 -0.6036
  663MOL0     H89480   6.728  11.362   7.495  0.4796  1.7997 -2.0413
  663MOL0     H89481   6.936  11.544   7.563  0.5729  0.6801  1.9846
  663MOL0     H89482   6.810  11.582   7.681  0.4164 -0.7847  0.2722
  663MOL0     H89483   6.755  11.720   7.477 -3.5670  0.4424 -1.2714
  663MOL0     H89484   6.738  11.566   7.381 -3.0529  0.4445 -0.2076
  663MOL0     H89485   6.423  10.800   7.354  2.9210 -0.6533 -4.6573
  663MOL0     H89486   6.578  10.690   7.232 -0.8505  0.2797  0.3361
  663MOL0     H89487   6.943  10.154   7.343 -2.0834 -0.0125  0.3201
  663MOL0     H89488   7.168  10.094   7.292 -1.5063 -1.1678 -0.6632
  663MOL0     H89489   7.494  11.298   7.437 -2.8972  1.8202  1.1652
  663MOL0     H89490   7.382  11.344   7.617  1.3191 -0.3535 -3.2034
  663MOL0     H89491   6.968  11.033   7.916  0.2491 -0.5420 -0.0362
  663MOL0     H89492   6.865  11.017   8.144 -0.8834  0.7736  1.2939
  663MOL0     H89493   6.743  11.096   8.363 -0.8700  0.0176  1.7674
  663MOL0     H89494   6.808  11.173   8.500 -1.4725  3.6265 -2.7872
  663MOL0     H89495   6.868  10.929   8.359  1.9317  0.3058  0.5369
  663MOL0     H89496   6.789  10.925   8.514 -1.8929  2.0593  0.6869
  663MOL0     H89497   7.023  11.038   8.598 -1.5264 -0.2424  1.0497
  663MOL0     H89498   7.101  10.979   8.456  0.3643 -2.1743 -0.4106
  663MOL0     H89499   6.959  10.776   8.624 -1.7467 -0.6389 -2.0427
  663MOL0     H89500   7.070  10.744   8.499 -0.3799 -0.2043  0.3458
  663MOL0     H89501   7.341  10.873   8.781 -2.4835  1.2960  0.4652
  663MOL0     H89502   7.077  11.357   8.272  3.1670 -2.1902  0.0684
  663MOL0     H89503   7.249  11.488   8.090 -0.7081  0.4608  0.5618
  663MOL0     H89504   7.300  11.368   7.971 -0.2444  0.2592 -1.1451
  663MOL0     H89505   7.168  11.470   7.933 -1.3046 -0.8901  0.9777
  664MOL0     O89506   0.236  10.917   5.270  0.2075 -0.1747  0.0408
  664MOL0     C89507   0.215  10.891   5.387  0.1435 -0.6548  0.3276
  664MOL0     O89508   0.121  10.796   5.436 -0.3603  0.5826  0.3662
  664MOL0     C89509   0.046  10.700   5.367 -0.0779 -0.2417 -0.0602
  664MOL0     C89510  -0.083  10.679   5.399  0.2092  0.6089 -0.5268
  664MOL0     C89511  -0.166  10.581   5.339  0.5246 -0.5351  0.1005
  664MOL0     C89512  -0.114  10.489   5.246 -0.5193 -0.4200 -0.6226
  664MOL0     O89513  -0.196  10.386   5.211  0.3440 -0.2903 -0.1719
  664MOL0     C89514  -0.170  10.319   5.089  0.5745 -0.1225 -0.3955
  664MOL0     C89515  -0.258  10.204   5.095  0.5168 -0.0678  0.2806
  664MOL0     C89516  -0.272  10.123   4.964  0.6229  0.2951  0.1969
  664MOL0     C89517  -0.220   9.981   4.969  0.7615  0.5604  0.1436
  664MOL0     C89518  -0.283   9.896   4.852 -0.4449  0.0714 -0.0294
  664MOL0     C89519  -0.193   9.783   4.810 -0.6745  0.1050 -0.1662
  664MOL0     C89520  -0.139   9.686   4.925  0.1375 -0.3081  0.5412
  664MOL0     C89521  -0.038   9.588   4.870 -0.9763 -0.3644 -0.2253
  664MOL0     N89522   0.011   9.502   4.979  0.2558 -0.5827 -0.4630
  664MOL0     C89523  -0.020   9.372   5.016 -0.1620  0.1392 -0.5670
  664MOL0     C89524   0.054   9.350   5.124 -0.5537 -0.2498 -0.3301
  664MOL0     C89525   0.023   9.232   5.223  1.5245  0.5437 -0.4604
  664MOL0     C89526   0.136   9.136   5.248  0.0057 -0.4374  0.9114
  664MOL0     C89527   0.200   9.093   5.118 -0.2367 -0.7001  0.2013
  664MOL0     C89528   0.294   8.979   5.138  0.1809 -0.6077  0.2833
  664MOL0     O89529   0.227   8.864   5.194 -0.2091 -0.1556  0.2218
  664MOL0     C89530   0.291   8.755   5.239 -0.5184  0.3745  0.2059
  664MOL0     C89531   0.425   8.745   5.254 -0.6137  0.0948  0.2201
  664MOL0     C89532   0.479   8.635   5.321 -0.9229  0.3802  0.5924
  664MOL0     C89533   0.398   8.527   5.370  0.8825  0.4064 -0.0515
  664MOL0     C89534   0.456   8.413   5.453  0.4605 -0.2377 -0.0196
  664MOL0     O89535   0.585   8.385   5.430 -0.1788  1.1425 -0.1732
  664MOL0     C89536   0.625   8.261   5.478 -0.2592 -0.1966  0.3318
  664MOL0     C89537   0.671   8.245   5.605  0.1762 -0.2367  0.0542
  664MOL0     C89538   0.749   8.138   5.633  0.2000  0.2783  0.4492
  664MOL0     C89539   0.765   8.034   5.548 -0.3894  0.8475 -0.1932
  664MOL0     O89540   0.840   7.919   5.573 -0.0806 -0.4227 -0.4937
  664MOL0     C89541   0.886   7.882   5.713 -0.3396  0.1592 -0.0486
  664MOL0     C89542   0.952   7.748   5.728 -0.0575  0.4728  0.0471
  664MOL0     C89543   0.851   7.640   5.719 -0.2503  0.2786 -0.1870
  664MOL0     C89544   0.772   7.627   5.587  1.1370  0.2940  0.4265
  664MOL0     C89545   0.713   7.484   5.573  0.7095  0.5572 -0.3677
  664MOL0     C89546   0.574   7.481   5.630  0.3012  0.7084 -0.3351
  664MOL0     C89547   0.577   7.407   5.766  0.4779  0.0294 -0.0322
  664MOL0     C89548   0.591   7.257   5.749  0.5753 -0.4316 -0.0144
  664MOL0    Cl89549   0.440   7.206   5.658  0.1028 -0.1461 -0.0497
  664MOL0     C89550   0.707   8.042   5.424 -0.6671  0.2394  0.8218
  664MOL0     C89551   0.642   8.161   5.385 -0.3836 -0.1841  0.1194
  664MOL0     O89552   0.383   8.369   5.548 -0.1871 -0.0311  0.2677
  664MOL0     C89553   0.270   8.535   5.342  0.1965  0.4107  0.2325
  664MOL0     C89554   0.207   8.650   5.284 -0.2311  0.1021  0.1059
  664MOL0     N89555   0.137   9.461   5.148  0.3516  0.0853  0.1474
  664MOL0     N89556   0.111   9.540   5.056 -0.0174 -0.0498  0.6084
  664MOL0     C89557   0.023  10.498   5.221  0.3181  0.3002 -1.0752
  664MOL0     C89558   0.093  10.606   5.276 -0.8331 -0.1772  0.9128
  664MOL0     C89559   0.286  10.974   5.482 -0.5830 -0.8848  0.7537
  664MOL0     C89560   0.230  11.002   5.606  0.7962 -1.0849  0.1535
  664MOL0     C89561   0.299  11.076   5.697  0.3062  0.0957  0.7173
  664MOL0     C89562   0.422  11.126   5.669 -0.3296  0.0987  0.1297
  664MOL0     O89563   0.496  11.216   5.748  0.7827 -0.2955  0.3706
  664MOL0     C89564   0.436  11.286   5.856 -0.3772 -0.2216  0.2149
  664MOL0     C89565   0.438  11.226   6.002  0.1261  0.7757 -0.4042
  664MOL0     C89566   0.373  11.316   6.107 -0.7348  1.0163 -0.1662
  664MOL0     C89567   0.310  11.222   6.203  1.0738  0.1843 -0.0538
  664MOL0     C89568   0.406  11.147   6.285 -0.6044  0.5643  0.6010
  664MOL0     C89569   0.493  11.070   6.327 -0.2504 -0.1899  0.5137
  664MOL0     C89570   0.472  11.102   5.548 -0.5829 -0.1239 -0.0412
  664MOL0     C89571   0.413  11.036   5.449  0.0832  0.2434  0.2715
  664MOL0     C89572   0.498  11.002   5.323 -0.3491  0.5757 -0.6830
  664MOL0     H89573  -0.134  10.740   5.473  2.6925  1.5854  0.4832
  664MOL0     H89574  -0.266  10.572   5.380 -0.3484 -2.9142 -2.2417
  664MOL0     H89575  -0.200  10.386   5.008 -3.3382 -1.2516 -0.0775
  664MOL0     H89576  -0.065  10.289   5.078  0.6911 -0.1341  0.6159
  664MOL0     H89577  -0.357  10.243   5.123  0.5964 -0.2824  0.8777
  664MOL0     H89578  -0.231  10.145   5.183 -1.8752  1.1294  1.9573
  664MOL0     H89579  -0.210  10.166   4.885  0.9986  0.9157  0.8186
  664MOL0     H89580  -0.374  10.131   4.927  0.8000  2.2927 -0.0160
  664MOL0     H89581  -0.111   9.981   4.962  0.6882  0.5662 -1.4217
  664MOL0     H89582  -0.244   9.941   5.068 -1.3513  1.3585  0.0092
  664MOL0     H89583  -0.373   9.855   4.898 -0.6088  0.7066  0.2278
  664MOL0     H89584  -0.307   9.956   4.764 -0.2501  3.8666  2.2769
  664MOL0     H89585  -0.233   9.725   4.727 -1.1862  0.5216 -0.2187
  664MOL0     H89586  -0.102   9.823   4.766  1.2776 -2.4763  1.2417
  664MOL0     H89587  -0.218   9.624   4.968  0.0936  0.3177  1.3735
  664MOL0     H89588  -0.083   9.752   4.991  4.2986  0.3627 -3.1540
  664MOL0     H89589  -0.080   9.523   4.792 -0.8850 -0.9497  0.2091
  664MOL0     H89590   0.054   9.631   4.829 -1.8352 -1.7192 -4.0316
  664MOL0     H89591  -0.103   9.319   4.970 -1.0595  3.0903 -2.6256
  664MOL0     H89592  -0.005   9.279   5.317 -1.7812  0.1951 -1.1662
  664MOL0     H89593  -0.068   9.186   5.183  0.6247  1.4663  0.4656
  664MOL0     H89594   0.213   9.175   5.316 -0.6891  1.4676  0.6855
  664MOL0     H89595   0.088   9.046   5.289 -1.9984  1.9067  4.2876
  664MOL0     H89596   0.258   9.174   5.074  0.2336 -3.2960 -4.6375
  664MOL0     H89597   0.123   9.055   5.050  1.5179 -2.4451 -0.9217
  664MOL0     H89598   0.378   9.021   5.194  1.2310  1.0390 -2.3180
  664MOL0     H89599   0.340   8.961   5.040  1.4512  0.4999  0.6406
  664MOL0     H89600   0.492   8.823   5.220 -2.1430  0.6214 -1.7376
  664MOL0     H89601   0.587   8.632   5.320 -0.8528  1.7200 -1.5713
  664MOL0     H89602   0.667   8.331   5.671  1.1177  1.6611 -2.2170
  664MOL0     H89603   0.791   8.132   5.733  1.0100  1.7435  0.2288
  664MOL0     H89604   0.968   7.951   5.734 -1.9310  2.1973 -0.1443
  664MOL0     H89605   0.806   7.878   5.789 -1.0397  2.8331 -0.5470
  664MOL0     H89606   1.031   7.749   5.652 -1.8366  1.1121 -1.8746
  664MOL0     H89607   0.996   7.739   5.828 -0.1678  1.0011  0.1477
  664MOL0     H89608   0.909   7.549   5.733 -0.2906  0.3171  0.2406
  664MOL0     H89609   0.777   7.648   5.799 -1.8571 -1.6112 -1.3929
  664MOL0     H89610   0.842   7.649   5.506 -0.0121  0.0327 -0.6716
  664MOL0     H89611   0.695   7.704   5.576  1.7572  0.7521 -1.0181
  664MOL0     H89612   0.778   7.403   5.606 -0.4834 -0.7587 -1.1171
  664MOL0     H89613   0.703   7.468   5.465  3.9945 -4.1986 -0.2406
  664MOL0     H89614   0.547   7.586   5.648  1.8825  1.5495 -2.3825
  664MOL0     H89615   0.498   7.438   5.564 -1.2264 -0.3892  2.0163
  664MOL0     H89616   0.480   7.425   5.812  0.4635  2.3606 -0.8533
  664MOL0     H89617   0.647   7.455   5.835 -0.5802  1.1361  0.2951
  664MOL0     H89618   0.676   7.229   5.687 -0.7338 -0.3425 -1.9426
  664MOL0     H89619   0.579   7.205   5.845 -0.2530  1.2835  0.8421
  664MOL0     H89620   0.707   7.956   5.359 -0.8887 -1.3051  2.7753
  664MOL0     H89621   0.602   8.158   5.284 -0.7251  0.1839  0.2384
  664MOL0     H89622   0.199   8.456   5.366  0.0320 -0.3523 -2.3705
  664MOL0     H89623   0.102   8.656   5.258 -0.0318 -1.9520 -1.4327
  664MOL0     H89624   0.078  10.418   5.174  1.2902  0.1097  0.3149
  664MOL0     H89625   0.200  10.616   5.258 -0.8869 -1.2451 -0.0643
  664MOL0     H89626   0.133  10.963   5.636  0.4290  0.9972  1.9447
  664MOL0     H89627   0.256  11.090   5.795  3.9002  1.9030  2.2216
  664MOL0     H89628   0.330  11.286   5.826 -0.3959  0.8362  0.2361
  664MOL0     H89629   0.478  11.386   5.847 -1.4151  0.1160 -1.4640
  664MOL0     H89630   0.540  11.205   6.035 -0.6153  0.3095  1.7717
  664MOL0     H89631   0.403  11.123   6.008 -0.1744  0.9533  1.4347
  664MOL0     H89632   0.289  11.372   6.066 -3.1843 -0.5720  2.2975
  664MOL0     H89633   0.454  11.376   6.149  0.8638 -1.3402  0.3364
  664MOL0     H89634   0.252  11.286   6.271  2.3037 -0.3040  1.5155
  664MOL0     H89635   0.242  11.150   6.157  0.6253 -1.3057  2.7290
  664MOL0     H89636   0.565  10.997   6.359 -3.2384 -2.9779  1.4292
  664MOL0     H89637   0.570  11.143   5.522 -0.6750  0.6332  0.7652
  664MOL0     H89638   0.584  11.068   5.338  0.7860 -0.6615 -1.4627
  664MOL0     H89639   0.526  10.897   5.336 -2.0241  0.1095 -0.6088
  664MOL0     H89640   0.439  11.020   5.233 -0.2996 -0.6142 -0.9777
  665MOL0     O89641   5.960   4.338  10.869 -0.1410  0.1076 -0.7344
  665MOL0     C89642   6.050   4.413  10.830  0.2192  1.0490 -0.7407
  665MOL0     O89643   6.105   4.513  10.903  0.0492 -0.3926  0.5586
  665MOL0     C89644   6.054   4.530  11.025  1.0520  0.0206 -1.0350
  665MOL0     C89645   5.909   4.548  11.040 -0.5108  0.2140 -0.7665
  665MOL0     C89646   5.860   4.579  11.167  1.5371  0.0813 -0.1236
  665MOL0     C89647   5.948   4.582  11.280  0.0050  0.3826  0.6852
  665MOL0     O89648   5.910   4.579  11.408 -0.2919 -0.0946  0.1168
  665MOL0     C89649   5.773   4.555  11.445  0.2297 -0.1305  0.8426
  665MOL0     C89650   5.749   4.590  11.588 -0.0461 -0.1752  0.2349
  665MOL0     C89651   5.604   4.612  11.627 -0.2829 -1.1328 -0.1692
  665MOL0     C89652   5.555   4.752  11.576 -0.3572 -0.7695 -0.4150
  665MOL0     C89653   5.414   4.784  11.588 -0.2387 -0.3178  1.0213
  665MOL0     C89654   5.393   4.915  11.507  0.3541  0.0165  0.1546
  665MOL0     C89655   5.244   4.955  11.493 -0.4359 -0.4502  0.0983
  665MOL0     C89656   5.220   5.100  11.450  0.2889 -0.4555  0.1966
  665MOL0     N89657   5.069   5.143  11.442  0.5820  0.2542 -0.0834
  665MOL0     C89658   4.989   5.197  11.549  0.7745 -0.3108  0.6241
  665MOL0     C89659   4.863   5.210  11.498 -0.5617  0.2980 -0.8805
  665MOL0     C89660   4.745   5.277  11.561  0.7565  0.2861 -0.3681
  665MOL0     C89661   4.692   5.229  11.696 -0.1901  0.1449  0.0114
  665MOL0     C89662   4.656   5.078  11.688 -0.2431  0.0761  0.5441
  665MOL0     C89663   4.613   5.012  11.818  0.0601  0.0905  1.0451
  665MOL0     O89664   4.727   5.013  11.908  0.1109 -0.1942 -0.3943
  665MOL0     C89665   4.819   4.909  11.924  0.3223 -0.3913  0.1899
  665MOL0     C89666   4.910   4.922  12.029  0.3565 -0.7682  0.4432
  665MOL0     C89667   5.010   4.838  12.053 -0.7792  0.4851  0.5988
  665MOL0     C89668   5.020   4.715  11.981 -0.7219 -0.2123  0.8888
  665MOL0     C89669   5.132   4.624  12.003 -0.1938 -0.0777 -0.6408
  665MOL0     O89670   5.192   4.655  12.125 -0.3387  0.2114  0.1113
  665MOL0     C89671   5.283   4.559  12.164 -0.4742 -0.1500  0.1105
  665MOL0     C89672   5.411   4.598  12.140 -0.3172  0.6985  0.3135
  665MOL0     C89673   5.521   4.510  12.166 -0.0237  0.4995  0.2409
  665MOL0     C89674   5.491   4.382  12.233  0.6586 -0.2139  0.2929
  665MOL0     O89675   5.598   4.298  12.233 -0.1778  0.1070 -0.3240
  665MOL0     C89676   5.581   4.175  12.298 -0.2769  0.7534  0.0540
  665MOL0     C89677   5.701   4.077  12.285  0.0439 -0.7287 -0.6118
  665MOL0     C89678   5.844   4.118  12.302 -1.2504 -0.2845 -0.2486
  665MOL0     C89679   5.937   4.002  12.262 -0.7434  0.3461  0.3734
  665MOL0     C89680   6.073   3.996  12.329  0.3023  0.1220  0.5367
  665MOL0     C89681   6.144   3.861  12.310  0.7297  0.4498  0.4063
  665MOL0     C89682   6.284   3.865  12.245 -0.0201 -0.5021  0.4743
  665MOL0     C89683   6.394   3.835  12.341  0.4028 -0.5781 -0.4166
  665MOL0    Cl89684   6.362   3.651  12.382 -0.1775  0.0739 -0.2218
  665MOL0     C89685   5.353   4.352  12.265  0.4401  0.1120  0.8078
  665MOL0     C89686   5.256   4.443  12.225  0.0077 -0.3241 -1.0673
  665MOL0     O89687   5.170   4.535  11.926 -0.1116 -0.1792 -0.0607
  665MOL0     C89688   4.930   4.696  11.876  0.0532  0.5292  0.8168
  665MOL0     C89689   4.825   4.793  11.848 -0.8620 -0.0460  0.9251
  665MOL0     N89690   4.870   5.178  11.366  0.8201 -0.3806  0.1393
  665MOL0     N89691   4.986   5.142  11.329 -0.3633 -0.3293 -0.7802
  665MOL0     C89692   6.081   4.553  11.264  0.0391 -0.7106 -0.2590
  665MOL0     C89693   6.136   4.532  11.140 -0.5305  0.0705  0.9276
  665MOL0     C89694   6.107   4.397  10.690  0.8226 -0.5076  0.1724
  665MOL0     C89695   6.249   4.416  10.663  0.1775  0.0636 -0.2444
  665MOL0     C89696   6.303   4.384  10.538 -0.3931  0.6051 -1.2367
  665MOL0     C89697   6.225   4.346  10.432 -0.1813  0.2779  0.4433
  665MOL0     O89698   6.287   4.308  10.310  0.0025  0.2746 -0.0738
  665MOL0     C89699   6.206   4.301  10.194 -0.0782 -0.0578 -0.8910
  665MOL0     C89700   6.296   4.299  10.069 -0.4197 -0.2482 -0.5594
  665MOL0     C89701   6.210   4.273   9.945 -0.0422  0.4557  1.5959
  665MOL0     C89702   6.127   4.387   9.904 -1.2858 -0.4096 -0.9434
  665MOL0     C89703   6.073   4.346   9.776  0.3452  0.5214 -0.3355
  665MOL0     C89704   6.033   4.305   9.677 -0.1691 -0.4919 -0.1333
  665MOL0     C89705   6.089   4.347  10.450  0.6802 -0.5827 -0.7169
  665MOL0     C89706   6.022   4.381  10.581 -0.5677 -0.3346  0.7229
  665MOL0     C89707   5.872   4.358  10.585  0.6924  0.1589  0.3748
  665MOL0     H89708   5.839   4.544  10.957  0.3257  1.1963 -1.5482
  665MOL0     H89709   5.754   4.600  11.175  1.9404  2.9352 -1.0017
  665MOL0     H89710   5.705   4.615  11.384 -0.5273 -1.4870  0.3034
  665MOL0     H89711   5.734   4.457  11.415 -1.4622  0.6777  0.2882
  665MOL0     H89712   5.819   4.673  11.606 -2.0545  1.4734  0.8012
  665MOL0     H89713   5.784   4.507  11.650  2.6241  0.7097  0.0449
  665MOL0     H89714   5.588   4.609  11.735 -2.6168 -1.8981 -0.4889
  665MOL0     H89715   5.552   4.523  11.592 -3.1452 -1.1195  3.5184
  665MOL0     H89716   5.620   4.827  11.623  0.9577 -1.0212 -1.7385
  665MOL0     H89717   5.590   4.767  11.473  1.2589  1.5429  0.3705
  665MOL0     H89718   5.361   4.699  11.544  2.7035 -1.5856 -0.3665
  665MOL0     H89719   5.375   4.799  11.689 -0.2677  0.9597  0.8427
  665MOL0     H89720   5.440   4.999  11.561 -1.4184  0.4585  1.0858
  665MOL0     H89721   5.436   4.905  11.407  2.1736 -0.7256  0.9679
  665MOL0     H89722   5.196   4.939  11.590 -1.5037  1.5742 -0.0559
  665MOL0     H89723   5.198   4.889  11.419  0.9064 -0.2310 -0.9758
  665MOL0     H89724   5.268   5.171  11.517 -2.7899  3.1643 -1.0746
  665MOL0     H89725   5.260   5.118  11.350 -1.5525  0.5440 -0.4061
  665MOL0     H89726   5.031   5.227  11.645  5.4638 -1.7115 -0.7275
  665MOL0     H89727   4.766   5.382  11.584 -1.1842  0.4671  0.8388
  665MOL0     H89728   4.662   5.280  11.490  1.1599  1.8420 -0.8010
  665MOL0     H89729   4.772   5.232  11.771 -1.1583  1.1102  1.0425
  665MOL0     H89730   4.604   5.289  11.723 -2.8645 -3.8310  1.0895
  665MOL0     H89731   4.742   5.017  11.658 -0.1615  0.6823 -0.4967
  665MOL0     H89732   4.582   5.057  11.610 -0.5082  0.8245  0.5807
  665MOL0     H89733   4.577   4.909  11.805 -1.2195  0.3052  2.5337
  665MOL0     H89734   4.530   5.073  11.854 -2.7484 -2.1832 -1.1386
  665MOL0     H89735   4.890   5.017  12.076  0.9738  0.3472 -1.4562
  665MOL0     H89736   5.070   4.863  12.141 -4.2923  0.8819  3.0793
  665MOL0     H89737   5.443   4.692  12.097  1.1720 -0.1769 -0.5890
  665MOL0     H89738   5.626   4.533  12.154 -0.3485  2.0821  0.2815
  665MOL0     H89739   5.562   4.190  12.405  3.1920 -1.9451  1.2593
  665MOL0     H89740   5.496   4.124  12.253 -0.2415  1.5722 -0.9631
  665MOL0     H89741   5.695   3.989  12.350  4.3745 -0.1935  0.8318
  665MOL0     H89742   5.689   4.046  12.181  0.2342 -0.8323 -0.6033
  665MOL0     H89743   5.868   4.201  12.235  0.8879 -0.2659  0.4544
  665MOL0     H89744   5.855   4.137  12.409 -0.4999 -1.0522 -0.1794
  665MOL0     H89745   5.954   4.009  12.154 -1.6876 -0.8274  0.1276
  665MOL0     H89746   5.882   3.912  12.291  1.0438 -0.1765  2.3936
  665MOL0     H89747   6.070   4.029  12.433  4.7624 -2.6542  1.8675
  665MOL0     H89748   6.137   4.072  12.283  2.1923 -0.8964  1.3374
  665MOL0     H89749   6.151   3.818  12.411 -3.8579  3.5062  2.3130
  665MOL0     H89750   6.077   3.801  12.247 -0.6558  2.1041  0.2502
  665MOL0     H89751   6.310   3.964  12.207 -1.5130  0.6625  2.2949
  665MOL0     H89752   6.293   3.814  12.149 -0.8611  1.2907 -0.6265
  665MOL0     H89753   6.491   3.855  12.295  1.3978  1.0865  2.2128
  665MOL0     H89754   6.366   3.909  12.417  0.1029  2.4458 -3.2155
  665MOL0     H89755   5.319   4.263  12.316 -2.0174 -0.2254 -1.2411
  665MOL0     H89756   5.153   4.422  12.252  0.5027 -0.5321  0.8120
  665MOL0     H89757   4.936   4.607  11.815 -1.7145  0.8455  0.1269
  665MOL0     H89758   4.771   4.777  11.755  0.4051  0.6067  0.0539
  665MOL0     H89759   6.151   4.543  11.347  0.7755 -2.3564 -1.0388
  665MOL0     H89760   6.243   4.538  11.126 -0.7362  1.8680 -0.1662
  665MOL0     H89761   6.312   4.440  10.748 -1.6909 -0.9267  1.5267
  665MOL0     H89762   6.411   4.384  10.522  0.0165 -1.6768  0.9224
  665MOL0     H89763   6.149   4.395  10.189  1.6662  1.1508  0.7544
  665MOL0     H89764   6.135   4.218  10.198 -0.2026  0.0157 -1.4099
  665MOL0     H89765   6.375   4.223  10.076 -0.4877 -0.1956  0.9482
  665MOL0     H89766   6.341   4.398  10.065 -0.8583 -0.0435 -0.4574
  665MOL0     H89767   6.146   4.188   9.972  0.0697  0.3573  1.5499
  665MOL0     H89768   6.274   4.238   9.863 -2.6795  0.8074 -0.7575
  665MOL0     H89769   6.058   4.415   9.983  0.6986 -0.0321  0.7426
  665MOL0     H89770   6.194   4.472   9.891 -0.1215 -0.9617  1.0100
  665MOL0     H89771   5.987   4.261   9.591 -1.5436 -2.6164  1.5864
  665MOL0     H89772   6.017   4.327  10.371 -0.7940  3.4084 -0.6010
  665MOL0     H89773   5.824   4.361  10.487  0.9790 -1.6517  0.1528
  665MOL0     H89774   5.845   4.262  10.631  1.1881 -1.2583 -2.1363
  665MOL0     H89775   5.829   4.437  10.648 -0.3356  1.1077 -1.4541
  666MOL0     O89776   0.895   3.686   2.413  0.4183 -0.1577 -0.1126
  666MOL0     C89777   1.006   3.673   2.361  0.9513  0.0960 -0.3813
  666MOL0     O89778   1.117   3.618   2.417  0.0002  0.4566 -0.6548
  666MOL0     C89779   1.106   3.591   2.558  0.0487 -0.0443 -0.1467
  666MOL0     C89780   1.071   3.461   2.604  0.4167 -0.2878 -0.5141
  666MOL0     C89781   1.032   3.432   2.741 -0.1890 -0.0923  0.4225
  666MOL0     C89782   1.056   3.538   2.834 -0.7588  0.0656  0.6676
  666MOL0     O89783   1.029   3.520   2.968 -0.2332  0.0296  0.3800
  666MOL0     C89784   1.150   3.521   3.061  0.4487  0.5106 -0.0402
  666MOL0     C89785   1.155   3.410   3.172  0.4339  0.4033  0.5245
  666MOL0     C89786   1.156   3.269   3.109  0.3674  0.4196  0.2313
  666MOL0     C89787   1.107   3.175   3.216 -0.3060  1.0167 -1.3111
  666MOL0     C89788   1.093   3.032   3.163 -0.0753  0.1091 -0.0586
  666MOL0     C89789   1.230   2.967   3.154  0.4170 -0.4687 -0.3074
  666MOL0     C89790   1.227   2.819   3.175  0.0884  0.2581  0.3299
  666MOL0     C89791   1.371   2.761   3.197 -0.5188  0.0626  0.7957
  666MOL0     N89792   1.431   2.788   3.324  0.0293 -0.3998 -0.7563
  666MOL0     C89793   1.487   2.686   3.401 -0.6184 -0.9807  0.5428
  666MOL0     C89794   1.580   2.744   3.476 -0.1623 -0.3892 -0.9954
  666MOL0     C89795   1.675   2.677   3.569 -0.2061  0.0917  0.2996
  666MOL0     C89796   1.674   2.768   3.693  0.1930  0.0931  0.0385
  666MOL0     C89797   1.778   2.716   3.794 -0.3577  0.7652 -0.1376
  666MOL0     C89798   1.794   2.802   3.908  0.0104  0.4447  0.5853
  666MOL0     O89799   1.785   2.731   4.028 -0.7576 -0.1298 -0.3883
  666MOL0     C89800   1.899   2.692   4.108  0.1543  0.4097  1.0737
  666MOL0     C89801   2.033   2.732   4.082  0.0009  0.9771  0.2794
  666MOL0     C89802   2.139   2.710   4.160 -0.7852  0.0792  0.1386
  666MOL0     C89803   2.115   2.638   4.282 -0.4173  0.6558  0.1173
  666MOL0     C89804   2.228   2.595   4.364 -1.8882  0.2038 -0.6294
  666MOL0     O89805   2.205   2.603   4.503 -0.0748 -0.4218 -0.3565
  666MOL0     C89806   2.302   2.561   4.585 -0.9575 -0.1139 -0.1440
  666MOL0     C89807   2.326   2.637   4.697  0.1173 -0.7990  0.1196
  666MOL0     C89808   2.411   2.591   4.794  0.0343 -0.6791 -0.3146
  666MOL0     C89809   2.470   2.464   4.793  0.6002 -0.6888 -0.1626
  666MOL0     O89810   2.513   2.411   4.907 -0.2665  0.0802 -0.0875
  666MOL0     C89811   2.655   2.411   4.929  0.0384 -0.5617 -0.0930
  666MOL0     C89812   2.664   2.304   5.029 -0.0105  0.4051 -0.9340
  666MOL0     C89813   2.601   2.336   5.156  0.9011  0.6689 -0.9546
  666MOL0     C89814   2.577   2.224   5.258 -0.4467  0.4863  0.6680
  666MOL0     C89815   2.518   2.279   5.388 -0.1110  0.3723 -2.1521
  666MOL0     C89816   2.375   2.325   5.373  0.0353  0.3052  0.4528
  666MOL0     C89817   2.266   2.226   5.341 -0.0326 -0.2092 -0.8855
  666MOL0     C89818   2.231   2.131   5.452 -0.5413  1.7636 -1.3629
  666MOL0    Cl89819   2.103   2.026   5.384  0.4820 -0.2323 -0.1542
  666MOL0     C89820   2.444   2.390   4.673 -0.3231  0.2488 -0.1297
  666MOL0     C89821   2.363   2.439   4.567 -0.8109  0.5555 -0.2400
  666MOL0     O89822   2.336   2.556   4.310 -0.1127  0.2473  0.5167
  666MOL0     C89823   1.983   2.605   4.318 -0.5621  0.5429  0.1838
  666MOL0     C89824   1.874   2.628   4.227 -0.7165  0.0166 -0.3964
  666MOL0     N89825   1.586   2.876   3.437 -0.1799 -0.5327  0.7183
  666MOL0     N89826   1.508   2.893   3.348  0.0946 -0.0780 -0.3614
  666MOL0     C89827   1.095   3.670   2.785 -1.1321  0.0034 -0.7682
  666MOL0     C89828   1.112   3.697   2.646 -0.0424  0.2921 -0.2485
  666MOL0     C89829   1.017   3.702   2.209  0.3406 -0.0529 -0.3317
  666MOL0     C89830   1.139   3.728   2.167 -0.2085  0.4535 -0.3149
  666MOL0     C89831   1.154   3.739   2.027 -0.1078  0.0571  0.4047
  666MOL0     C89832   1.048   3.743   1.933  0.5740 -0.1901  0.5115
  666MOL0     O89833   1.080   3.784   1.804  0.2432 -0.0611  0.7567
  666MOL0     C89834   1.142   3.673   1.741 -0.3743 -0.3804 -0.2975
  666MOL0     C89835   1.099   3.666   1.597  0.4243 -0.7532  0.7083
  666MOL0     C89836   0.955   3.630   1.582 -0.0977  0.7229  0.4191
  666MOL0     C89837   0.915   3.650   1.439  1.1916  0.4921  0.6529
  666MOL0     C89838   0.779   3.708   1.432  0.1034  0.9545 -0.2894
  666MOL0     C89839   0.671   3.754   1.428  0.1895  0.7854  0.0809
  666MOL0     C89840   0.917   3.738   1.986 -0.6052 -0.1404  0.0548
  666MOL0     C89841   0.901   3.725   2.122 -0.6205  0.4139 -0.0560
  666MOL0     C89842   0.761   3.699   2.158  0.3239  0.2242 -0.8092
  666MOL0     H89843   1.055   3.387   2.526  0.5885  0.8136 -1.6274
  666MOL0     H89844   0.967   3.348   2.763 -2.5614  2.0248  2.1946
  666MOL0     H89845   1.240   3.503   3.001  0.5717 -0.1015  0.3107
  666MOL0     H89846   1.149   3.618   3.112 -1.4392  0.5983 -0.1756
  666MOL0     H89847   1.072   3.428   3.240 -1.7708  0.6035 -2.0345
  666MOL0     H89848   1.250   3.425   3.225  1.6858  1.9838 -1.9603
  666MOL0     H89849   1.257   3.236   3.084  0.4537  0.3894  0.6160
  666MOL0     H89850   1.081   3.259   3.029  0.0387 -1.9212  0.7724
  666MOL0     H89851   1.182   3.186   3.295  0.7209  0.6211 -2.2109
  666MOL0     H89852   1.007   3.197   3.255 -1.2321 -0.4095 -2.7549
  666MOL0     H89853   1.029   2.981   3.236  0.2272  0.1450  0.2325
  666MOL0     H89854   1.058   3.014   3.061  3.1481  3.0213 -1.9044
  666MOL0     H89855   1.278   2.970   3.056  5.7571 -0.7572  1.9158
  666MOL0     H89856   1.293   3.024   3.224 -2.4898 -0.2363  2.3174
  666MOL0     H89857   1.170   2.766   3.098  1.9400 -0.4532 -0.6107
  666MOL0     H89858   1.167   2.797   3.264 -1.1517 -1.4445 -0.8472
  666MOL0     H89859   1.358   2.653   3.189 -1.9454  0.3103 -1.0706
  666MOL0     H89860   1.436   2.781   3.112 -1.8257 -0.6335 -0.4134
  666MOL0     H89861   1.460   2.581   3.405 -3.1086 -0.6532 -3.2685
  666MOL0     H89862   1.638   2.574   3.578  4.3887 -2.1456 -2.6943
  666MOL0     H89863   1.777   2.668   3.532  2.1015  0.2113  5.7297
  666MOL0     H89864   1.697   2.871   3.665 -2.0514  0.6163 -0.0748
  666MOL0     H89865   1.574   2.771   3.738 -1.8627 -2.2124 -3.8680
  666MOL0     H89866   1.870   2.709   3.735 -0.6303 -0.3076 -0.4396
  666MOL0     H89867   1.745   2.619   3.830  0.8160  1.1007  2.0036
  666MOL0     H89868   1.709   2.871   3.914  0.2912  1.4292 -3.6430
  666MOL0     H89869   1.890   2.853   3.895 -0.3491  0.3326 -4.4776
  666MOL0     H89870   2.058   2.779   3.987  1.3475  2.0662  1.1303
  666MOL0     H89871   2.233   2.753   4.128 -1.1295  0.5710 -0.2149
  666MOL0     H89872   2.273   2.730   4.708  2.2673  0.5815 -0.4991
  666MOL0     H89873   2.429   2.653   4.882  1.9695 -2.2408  0.4653
  666MOL0     H89874   2.694   2.376   4.833 -1.0219  0.4364 -0.9176
  666MOL0     H89875   2.706   2.497   4.973 -2.7543 -0.0121  2.3641
  666MOL0     H89876   2.622   2.217   4.977 -2.7593  0.5831  0.7447
  666MOL0     H89877   2.768   2.270   5.036  0.3409  1.7806  1.8481
  666MOL0     H89878   2.647   2.421   5.207 -0.7726  0.9285  0.1888
  666MOL0     H89879   2.508   2.385   5.127  0.1403 -1.6431 -2.7645
  666MOL0     H89880   2.675   2.178   5.274  0.2403  1.3328 -0.8514
  666MOL0     H89881   2.502   2.157   5.213 -2.1915  0.9314  2.7633
  666MOL0     H89882   2.586   2.356   5.427  1.2531 -1.5926 -0.4766
  666MOL0     H89883   2.532   2.211   5.472  3.8553  2.7999 -0.5272
  666MOL0     H89884   2.342   2.350   5.474  0.0150  0.6672  0.3570
  666MOL0     H89885   2.369   2.404   5.297 -2.4246 -1.1496 -1.0334
  666MOL0     H89886   2.303   2.173   5.253  1.4673  2.7735 -2.2195
  666MOL0     H89887   2.179   2.283   5.307 -0.8543 -2.0647 -2.0001
  666MOL0     H89888   2.317   2.077   5.490 -3.7562 -1.1929  2.5978
  666MOL0     H89889   2.200   2.182   5.544  4.2655  2.0510  0.3919
  666MOL0     H89890   2.486   2.292   4.655 -2.4953 -0.5811 -1.0128
  666MOL0     H89891   2.346   2.388   4.473  1.6668  0.4228 -0.6831
  666MOL0     H89892   1.954   2.562   4.413 -0.9764 -0.2022 -0.2724
  666MOL0     H89893   1.776   2.586   4.247 -0.9085  1.1844  1.3781
  666MOL0     H89894   1.101   3.759   2.846 -1.7662  0.5295 -1.4562
  666MOL0     H89895   1.135   3.796   2.608 -1.7163  1.1931  0.9762
  666MOL0     H89896   1.226   3.742   2.230 -0.5347  1.2496 -0.0338
  666MOL0     H89897   1.249   3.747   1.976 -0.8204  1.2336 -0.7947
  666MOL0     H89898   1.125   3.580   1.797 -0.3100 -1.2308 -1.6554
  666MOL0     H89899   1.249   3.693   1.752 -0.6279  0.2492  1.2614
  666MOL0     H89900   1.160   3.593   1.543  1.0946 -0.3218  0.8677
  666MOL0     H89901   1.131   3.759   1.549 -1.8571 -0.6448 -0.7186
  666MOL0     H89902   0.899   3.696   1.649 -1.8211 -1.2156  1.0070
  666MOL0     H89903   0.947   3.523   1.605 -1.9881  1.1589  2.0912
  666MOL0     H89904   0.981   3.714   1.381  1.0415 -0.2669 -0.3862
  666MOL0     H89905   0.912   3.552   1.390  0.3922  1.6976 -1.8702
  666MOL0     H89906   0.571   3.794   1.430 -0.5041 -0.8344 -0.3137
  666MOL0     H89907   0.828   3.746   1.925 -1.6077 -1.7255  1.2338
  666MOL0     H89908   0.730   3.603   2.200 -1.7813  0.4357 -1.7606
  666MOL0     H89909   0.737   3.764   2.243  1.4196  2.4638 -2.1205
  666MOL0     H89910   0.692   3.737   2.083 -2.3394  4.2791  3.1569
  667MOL0     O89911   5.572   5.092   4.488  0.4537  0.2088 -1.1991
  667MOL0     C89912   5.538   5.034   4.587 -0.2900 -0.2284 -0.9744
  667MOL0     O89913   5.415   5.052   4.654  1.1799 -0.4346 -0.2331
  667MOL0     C89914   5.325   5.140   4.605 -0.1539  0.5006 -0.2900
  667MOL0     C89915   5.290   5.156   4.475  0.4158  0.5245  0.6392
  667MOL0     C89916   5.187   5.250   4.435 -0.6002  0.5759 -0.0410
  667MOL0     C89917   5.121   5.328   4.530 -0.0048 -0.3009 -0.6468
  667MOL0     O89918   5.034   5.425   4.485  0.2339  0.0919 -0.6673
  667MOL0     C89919   4.961   5.522   4.566 -0.0979 -0.4151  0.2461
  667MOL0     C89920   4.830   5.451   4.595 -0.8217 -0.4996  0.5611
  667MOL0     C89921   4.732   5.555   4.647 -0.1975 -0.0317  1.3824
  667MOL0     C89922   4.682   5.653   4.543  0.7374  0.1091 -0.0349
  667MOL0     C89923   4.546   5.728   4.578  0.1280  0.6245  0.1536
  667MOL0     C89924   4.553   5.805   4.707  0.3948  0.3977 -0.4248
  667MOL0     C89925   4.415   5.845   4.756  0.0132  0.5218  0.0142
  667MOL0     C89926   4.412   5.826   4.905 -0.1365 -0.8798  0.7292
  667MOL0     N89927   4.325   5.924   4.979  0.2453 -0.1644  0.0644
  667MOL0     C89928   4.319   6.053   4.948 -1.5060 -0.5165 -0.8290
  667MOL0     C89929   4.216   6.090   5.024  0.2606  0.3306  0.9827
  667MOL0     C89930   4.160   6.220   5.011 -0.0104 -0.4473  0.0020
  667MOL0     C89931   4.007   6.198   5.001  0.7068 -0.0574  0.3179
  667MOL0     C89932   3.946   6.333   4.956 -0.0320 -0.7992  0.8257
  667MOL0     C89933   3.790   6.327   4.943  0.0668  0.5807 -1.0084
  667MOL0     O89934   3.732   6.339   5.077  0.3949 -0.3513  0.9210
  667MOL0     C89935   3.598   6.374   5.095  0.3191 -0.3048 -0.5946
  667MOL0     C89936   3.567   6.441   5.211 -0.3430 -0.4317 -0.4913
  667MOL0     C89937   3.441   6.492   5.246  0.6950  0.1753 -0.1912
  667MOL0     C89938   3.337   6.480   5.157  0.1969  0.4658  0.2768
  667MOL0     C89939   3.203   6.529   5.190  0.8271 -0.6223 -0.0586
  667MOL0     O89940   3.111   6.533   5.080 -0.3543 -0.1675 -0.6015
  667MOL0     C89941   2.986   6.592   5.108 -1.7031  0.1167  0.5330
  667MOL0     C89942   2.888   6.509   5.142 -0.3859  0.2178 -0.0409
  667MOL0     C89943   2.762   6.561   5.159  0.6093  0.5299 -0.4684
  667MOL0     C89944   2.737   6.694   5.160  0.6001  0.7469 -0.4497
  667MOL0     O89945   2.608   6.726   5.203  0.2431 -0.3428 -0.6604
  667MOL0     C89946   2.578   6.868   5.215  0.7907 -0.3128  0.3159
  667MOL0     C89947   2.435   6.878   5.255  0.2138 -0.3890 -0.3836
  667MOL0     C89948   2.382   7.010   5.308  0.5272 -0.4876  0.6017
  667MOL0     C89949   2.235   7.009   5.333 -0.3322  0.4892 -0.7707
  667MOL0     C89950   2.184   7.148   5.375 -0.7948  0.0378 -1.0531
  667MOL0     C89951   2.240   7.265   5.300  0.0455 -0.1239  0.6014
  667MOL0     C89952   2.193   7.252   5.153 -0.0439 -0.6365 -0.7056
  667MOL0     C89953   2.229   7.388   5.078 -0.0197 -0.6852 -0.8078
  667MOL0    Cl89954   2.192   7.367   4.903  0.0692  0.3162 -0.3661
  667MOL0     C89955   2.831   6.778   5.116 -0.2907  0.3525  0.2737
  667MOL0     C89956   2.962   6.730   5.086  0.9495 -0.3239 -0.7649
  667MOL0     O89957   3.187   6.585   5.295  0.7029  0.2298 -0.2786
  667MOL0     C89958   3.363   6.418   5.034  0.1485  0.0635  0.8679
  667MOL0     C89959   3.491   6.363   5.002 -0.4993  0.8818 -0.4965
  667MOL0     N89960   4.160   5.992   5.098 -0.2225  0.7338  0.6289
  667MOL0     N89961   4.228   5.883   5.067  0.3655 -0.6084  0.6607
  667MOL0     C89962   5.163   5.315   4.661 -1.6878 -0.3047 -0.9848
  667MOL0     C89963   5.266   5.225   4.701 -0.2043 -0.7369 -0.0825
  667MOL0     C89964   5.633   4.923   4.635  0.4772  0.0926  0.3620
  667MOL0     C89965   5.576   4.814   4.702 -0.3269  0.1650  0.7973
  667MOL0     C89966   5.651   4.709   4.754  0.4180 -0.0491 -0.2613
  667MOL0     C89967   5.792   4.714   4.735 -0.0700  0.1012 -0.3522
  667MOL0     O89968   5.879   4.631   4.803 -0.8179  0.6779  0.6629
  667MOL0     C89969   5.849   4.494   4.827 -0.1731 -0.4179  0.3901
  667MOL0     C89970   5.958   4.438   4.914 -0.6219  0.0683  0.5925
  667MOL0     C89971   5.932   4.293   4.958  0.0874 -0.8356 -0.4293
  667MOL0     C89972   5.802   4.272   5.025  0.3918  0.4960  0.2801
  667MOL0     C89973   5.803   4.136   5.055  0.8845 -0.3615  0.3109
  667MOL0     C89974   5.823   4.013   5.055  0.4442 -0.6652 -0.6719
  667MOL0     C89975   5.846   4.822   4.673 -0.5695  0.0111  0.1733
  667MOL0     C89976   5.774   4.925   4.615 -0.2909  0.6886 -0.4083
  667MOL0     C89977   5.854   5.036   4.573 -0.4685  0.1433  0.8226
  667MOL0     H89978   5.336   5.097   4.396  0.2528  2.3087 -0.8489
  667MOL0     H89979   5.157   5.266   4.332  1.1381  0.6370 -0.5599
  667MOL0     H89980   5.021   5.548   4.654  3.7930 -1.4334 -1.8778
  667MOL0     H89981   4.949   5.603   4.493 -0.4223 -1.4567 -0.8708
  667MOL0     H89982   4.843   5.380   4.677 -0.8765  0.2956  1.2718
  667MOL0     H89983   4.784   5.402   4.509 -1.2910  1.8382 -0.6193
  667MOL0     H89984   4.771   5.608   4.734  3.7514  0.5483 -0.5505
  667MOL0     H89985   4.649   5.501   4.695 -0.9256 -0.5862 -0.4205
  667MOL0     H89986   4.756   5.729   4.514  1.3732 -0.7131 -0.6286
  667MOL0     H89987   4.672   5.602   4.447  1.3789  1.3875 -0.8061
  667MOL0     H89988   4.513   5.779   4.487  1.2096  2.4562  0.7423
  667MOL0     H89989   4.472   5.655   4.611  0.1423 -0.1484 -1.4091
  667MOL0     H89990   4.594   5.740   4.786 -2.4128 -1.0145 -0.0023
  667MOL0     H89991   4.618   5.892   4.692  4.0035 -2.0583 -0.4795
  667MOL0     H89992   4.343   5.781   4.706  3.0061 -1.1072 -2.5796
  667MOL0     H89993   4.395   5.952   4.744 -0.2321  0.6409  1.3293
  667MOL0     H89994   4.389   5.721   4.923  0.0880 -0.8178  1.3886
  667MOL0     H89995   4.507   5.841   4.956  1.6044 -1.8365 -2.0397
  667MOL0     H89996   4.379   6.116   4.884  1.3676 -2.2835 -0.0236
  667MOL0     H89997   4.184   6.272   5.104  0.2266 -0.7590  0.1167
  667MOL0     H89998   4.201   6.277   4.927  0.0504 -0.9829 -0.3365
  667MOL0     H89999   3.991   6.118   4.928  3.6350 -2.0072  1.5988
  667MOL0     H90000   3.962   6.165   5.095 -3.3949  1.9932 -0.6865
  667MOL0     H90001   3.972   6.360   4.853 -1.3233 -2.1332  0.1144
  667MOL0     H90002   3.981   6.417   5.017  0.1661 -0.2440 -0.0378
  667MOL0     H90003   3.760   6.232   4.898  0.7205  0.0801 -0.4160
  667MOL0     H90004   3.762   6.404   4.870  0.1982 -1.6493 -3.5860
  667MOL0     H90005   3.635   6.438   5.295 -0.9631  0.7408  0.0733
  667MOL0     H90006   3.440   6.538   5.344 -0.7398 -0.0522 -0.0766
  667MOL0     H90007   2.909   6.403   5.137 -0.2565  0.0833  2.2889
  667MOL0     H90008   2.682   6.488   5.168  0.5328  0.6798  0.1045
  667MOL0     H90009   2.656   6.912   5.277 -1.8781  0.8045  3.1194
  667MOL0     H90010   2.582   6.911   5.114  1.1994  0.2069  0.5526
  667MOL0     H90011   2.369   6.847   5.173  0.8687 -1.2041 -0.6123
  667MOL0     H90012   2.425   6.804   5.334 -0.7859 -3.9888 -3.5950
  667MOL0     H90013   2.438   7.021   5.401  1.9908 -1.1682 -0.1480
  667MOL0     H90014   2.416   7.082   5.233  3.7638 -1.9915  0.4489
  667MOL0     H90015   2.211   6.939   5.414  2.6361  0.2347  0.0261
  667MOL0     H90016   2.179   6.986   5.242 -2.0809  2.0972 -0.1559
  667MOL0     H90017   2.223   7.162   5.476  0.3765  2.0757 -1.7257
  667MOL0     H90018   2.080   7.158   5.405  0.1065  0.9718  2.1698
  667MOL0     H90019   2.201   7.351   5.354 -4.7477 -0.5481 -1.7236
  667MOL0     H90020   2.349   7.272   5.308  0.0633 -0.1818  0.4147
  667MOL0     H90021   2.087   7.231   5.138 -0.1054 -2.0766  1.4072
  667MOL0     H90022   2.236   7.164   5.105 -2.5335 -2.9005  0.9078
  667MOL0     H90023   2.171   7.473   5.117 -0.6292 -1.3159 -0.3183
  667MOL0     H90024   2.338   7.391   5.083  0.0222 -0.0340 -1.7713
  667MOL0     H90025   2.822   6.886   5.114 -1.0851  0.3227 -2.8837
  667MOL0     H90026   3.035   6.805   5.057  2.3604 -1.6280 -0.7495
  667MOL0     H90027   3.285   6.392   4.963  0.9868 -2.9438  0.9204
  667MOL0     H90028   3.517   6.309   4.912  0.3077 -0.7718  0.6824
  667MOL0     H90029   5.125   5.372   4.745  1.9811  0.4519  0.3576
  667MOL0     H90030   5.285   5.218   4.807  4.4679  1.3432 -0.4877
  667MOL0     H90031   5.471   4.822   4.731 -0.3078  3.5487  0.3032
  667MOL0     H90032   5.598   4.631   4.807  2.0890 -2.0945 -1.4520
  667MOL0     H90033   5.859   4.434   4.735 -2.7820 -2.3847  1.2631
  667MOL0     H90034   5.750   4.493   4.874 -0.7004 -0.0102 -0.6750
  667MOL0     H90035   5.984   4.513   4.989 -3.3121  1.6317  0.0740
  667MOL0     H90036   6.046   4.438   4.849  0.1651  1.8555  1.5743
  667MOL0     H90037   6.017   4.261   5.019  1.5427  0.4354 -1.6975
  667MOL0     H90038   5.943   4.228   4.870  0.2937 -0.2564 -0.8310
  667MOL0     H90039   5.799   4.325   5.120  0.9990  3.1507 -1.1074
  667MOL0     H90040   5.717   4.293   4.959  0.2882 -1.5942 -0.3302
  667MOL0     H90041   5.856   3.911   5.059  2.1767 -0.2264 -2.2067
  667MOL0     H90042   5.954   4.826   4.668 -0.5325 -1.7458 -1.0872
  667MOL0     H90043   5.962   5.035   4.589 -0.1800  1.7994 -0.6567
  667MOL0     H90044   5.836   5.050   4.465  2.1825  2.9505  0.6132
  667MOL0     H90045   5.816   5.123   4.629 -1.5831  1.2672 -1.5104
  668MOL0     O90046   4.690  10.358   9.405 -0.4675 -1.1299  0.0941
  668MOL0     C90047   4.801  10.348   9.459  1.1056 -0.0091 -0.5860
  668MOL0     O90048   4.897  10.438   9.459  0.2435  0.1749 -0.9777
  668MOL0     C90049   4.884  10.577   9.449  0.7303  0.5921 -0.1412
  668MOL0     C90050   4.984  10.654   9.408 -0.4001  0.2478 -0.1755
  668MOL0     C90051   4.979  10.791   9.415 -1.1296  0.4307 -1.0146
  668MOL0     C90052   4.871  10.855   9.478  1.1922 -0.2180 -0.5869
  668MOL0     O90053   4.861  10.994   9.489  0.5211 -0.1307 -0.1584
  668MOL0     C90054   4.732  11.052   9.527 -0.3310  0.1861 -0.0531
  668MOL0     C90055   4.721  11.051   9.679  0.4611 -0.1266  0.3742
  668MOL0     C90056   4.826  11.155   9.730 -1.0933 -0.3828 -1.0123
  668MOL0     C90057   4.822  11.166   9.884 -0.0300  0.7640  0.2436
  668MOL0     C90058   4.903  11.280   9.931  0.4109  0.3421  0.5979
  668MOL0     C90059   5.048  11.250   9.901 -1.4303 -0.3908 -0.4193
  668MOL0     C90060   5.145  11.349   9.968 -0.1167 -0.3057 -0.2122
  668MOL0     C90061   5.141  11.491   9.911  0.1310 -1.1045 -0.4448
  668MOL0     N90062   5.038  11.577   9.956 -0.6702  0.8598 -0.7845
  668MOL0     C90063   5.011  11.598  10.096  0.6868 -1.9970  0.0190
  668MOL0     C90064   4.906  11.682  10.093  0.4396 -0.2654  0.1132
  668MOL0     C90065   4.828  11.731  10.217 -0.3190  0.2749 -0.3364
  668MOL0     C90066   4.892  11.846  10.288 -0.1089  0.7026 -0.2367
  668MOL0     C90067   4.783  11.915  10.383 -0.3308  0.3496 -0.4327
  668MOL0     C90068   4.805  11.909  10.530 -0.7054  1.3887  0.2434
  668MOL0     O90069   4.772  11.777  10.578 -0.7435  0.5608  0.2466
  668MOL0     C90070   4.789  11.743  10.710 -0.7453  0.3831  0.4397
  668MOL0     C90071   4.762  11.613  10.746  0.7992 -0.5634 -0.5516
  668MOL0     C90072   4.763  11.573  10.880  0.6526  0.2873  0.5888
  668MOL0     C90073   4.790  11.667  10.982  0.1975  0.4076 -1.1951
  668MOL0     C90074   4.787  11.626  11.127 -1.1259  0.2700 -0.1365
  668MOL0     O90075   4.709  11.514  11.150 -0.9381  0.2787  0.0368
  668MOL0     C90076   4.753  11.448  11.261 -0.3822  0.7332 -0.3757
  668MOL0     C90077   4.835  11.345  11.246 -0.1690 -0.2613  0.1552
  668MOL0     C90078   4.877  11.280  11.364  0.1374 -0.3905 -0.7915
  668MOL0     C90079   4.842  11.322  11.496 -0.9900  0.3366  0.3258
  668MOL0     O90080   4.889  11.251  11.603  0.2416  0.3225  0.0496
  668MOL0     C90081   4.852  11.276  11.740 -0.1555  0.2202  0.5320
  668MOL0     C90082   4.902  11.158  11.813 -0.4174 -0.2276 -0.2666
  668MOL0     C90083   5.046  11.155  11.791 -0.4464  0.0757 -0.3939
  668MOL0     C90084   5.118  11.040  11.864 -0.0871 -0.4407  0.6649
  668MOL0     C90085   5.257  11.014  11.798 -0.2834 -0.4203  0.2978
  668MOL0     C90086   5.336  10.916  11.888  0.3739 -0.6293  0.2207
  668MOL0     C90087   5.454  10.862  11.807  1.2767 -0.1822 -0.6002
  668MOL0     C90088   5.404  10.745  11.728  0.4757  0.1700 -0.3415
  668MOL0    Cl90089   5.351  10.609  11.825  0.1676  0.0122  0.5901
  668MOL0     C90090   4.754  11.441  11.502 -0.1638  0.0518 -0.2917
  668MOL0     C90091   4.705  11.491  11.387 -0.5463 -0.6873 -0.3261
  668MOL0     O90092   4.869  11.678  11.204  0.0881  0.5002 -0.0492
  668MOL0     C90093   4.821  11.798  10.948 -0.1772  0.3294 -0.0561
  668MOL0     C90094   4.818  11.829  10.812 -1.0522  0.8487 -0.8474
  668MOL0     N90095   4.860  11.696   9.957  1.0669  0.1700 -0.7333
  668MOL0     N90096   4.940  11.628   9.882 -0.3540 -0.5789 -1.1572
  668MOL0     C90097   4.762  10.770   9.512  0.3990  0.2172  1.1297
  668MOL0     C90098   4.772  10.632   9.498 -0.1285  0.9904  0.4472
  668MOL0     C90099   4.846  10.202   9.488 -0.1034 -0.1480 -0.1923
  668MOL0     C90100   4.987  10.173   9.480  0.4966 -0.4710  0.1441
  668MOL0     C90101   5.020  10.037   9.483 -0.6203 -0.5091  0.1741
  668MOL0     C90102   4.927   9.936   9.483 -0.7153  0.6713  0.2440
  668MOL0     O90103   4.978   9.806   9.484 -0.0642 -0.8490  0.8470
  668MOL0     C90104   4.892   9.693   9.471 -0.2619 -0.3473  0.0511
  668MOL0     C90105   4.988   9.579   9.455 -0.4880  0.4253  0.0643
  668MOL0     C90106   5.082   9.548   9.563 -0.6176  0.3121  0.5988
  668MOL0     C90107   5.231   9.592   9.552  0.0341  0.0874  0.4110
  668MOL0     C90108   5.303   9.580   9.675  0.4999 -0.2839 -1.0959
  668MOL0     C90109   5.390   9.582   9.756 -0.6680  1.4966  0.2897
  668MOL0     C90110   4.797   9.966   9.505  0.0371 -0.7847 -0.8436
  668MOL0     C90111   4.747  10.098   9.503  0.6073  1.2132  0.5319
  668MOL0     C90112   4.596  10.117   9.515 -0.0138  0.7796 -0.3640
  668MOL0     H90113   5.070  10.605   9.364  0.2357 -0.1875  1.4837
  668MOL0     H90114   5.066  10.846   9.379  0.2706  0.9448  2.7418
  668MOL0     H90115   4.719  11.156   9.496 -1.0327  0.1173 -0.0176
  668MOL0     H90116   4.653  11.000   9.472 -3.0516  3.4822  0.3527
  668MOL0     H90117   4.737  10.953   9.725 -3.5116 -1.4355 -0.6536
  668MOL0     H90118   4.623  11.087   9.710  0.4043 -1.6440  2.1871
  668MOL0     H90119   4.806  11.257   9.694 -1.5304 -0.3314 -0.6432
  668MOL0     H90120   4.928  11.124   9.708 -0.3438 -0.3869  2.0252
  668MOL0     H90121   4.717  11.172   9.914 -0.2804 -2.0270  0.1701
  668MOL0     H90122   4.862  11.076   9.933  1.5886  1.9248  1.1407
  668MOL0     H90123   4.875  11.373   9.881  1.0906  0.9841  1.3795
  668MOL0     H90124   4.885  11.282  10.039 -0.2886 -1.2629  0.5301
  668MOL0     H90125   5.061  11.156   9.955 -1.2961  0.2329  0.6768
  668MOL0     H90126   5.077  11.241   9.796  0.4036  1.5908 -0.1685
  668MOL0     H90127   5.249  11.315   9.959  0.9429  2.3289  0.9834
  668MOL0     H90128   5.127  11.360  10.075  2.9952  0.0654  0.3730
  668MOL0     H90129   5.232  11.540   9.945 -0.7800 -0.3940  1.0842
  668MOL0     H90130   5.141  11.492   9.802  1.7307 -0.7761 -0.4658
  668MOL0     H90131   5.056  11.570  10.191  0.8822  1.3763  1.0549
  668MOL0     H90132   4.734  11.767  10.173 -0.6016  1.1965  0.9696
  668MOL0     H90133   4.810  11.646  10.282  0.2684 -0.0507 -0.5905
  668MOL0     H90134   4.979  11.811  10.346  0.4687  2.2470 -0.1299
  668MOL0     H90135   4.919  11.928  10.220 -4.0715  3.0625  0.7191
  668MOL0     H90136   4.683  11.885  10.349 -0.3440 -0.0072 -0.0816
  668MOL0     H90137   4.799  12.021  10.360 -1.0198  0.2678 -1.3708
  668MOL0     H90138   4.735  11.977  10.580  0.7110  1.1151  2.7712
  668MOL0     H90139   4.907  11.930  10.563  0.8664 -2.9215 -1.1805
  668MOL0     H90140   4.718  11.545  10.674 -0.3303  1.2915 -1.6924
  668MOL0     H90141   4.729  11.472  10.901  0.5682 -0.0506 -1.0346
  668MOL0     H90142   4.866  11.306  11.150  3.2220 -2.4456  1.9225
  668MOL0     H90143   4.941  11.193  11.353  1.4577  0.8804 -5.3537
  668MOL0     H90144   4.892  11.371  11.775  1.5374  1.0238 -3.1015
  668MOL0     H90145   4.743  11.271  11.734 -0.0545 -2.0736 -0.4242
  668MOL0     H90146   4.888  11.179  11.919 -3.2360 -1.0199 -0.3995
  668MOL0     H90147   4.862  11.060  11.787  0.3190  0.3512 -4.2029
  668MOL0     H90148   5.084  11.158  11.688  1.4423 -0.7726  0.2238
  668MOL0     H90149   5.098  11.246  11.823  2.2093 -1.5067  0.0962
  668MOL0     H90150   5.067  10.944  11.852  1.4425 -1.4237  1.6710
  668MOL0     H90151   5.128  11.059  11.971 -1.2082 -0.4718  0.7971
  668MOL0     H90152   5.301  11.113  11.782  1.5380 -0.6487  3.1618
  668MOL0     H90153   5.238  10.974  11.698  0.0628 -0.4153  0.2306
  668MOL0     H90154   5.360  10.958  11.987 -0.4465  0.7810 -0.1518
  668MOL0     H90155   5.261  10.841  11.914 -2.2646  0.5541 -3.2553
  668MOL0     H90156   5.526  10.832  11.885  0.0984  1.3696  1.1663
  668MOL0     H90157   5.514  10.936  11.753 -0.6782 -0.1689 -2.9107
  668MOL0     H90158   5.328  10.780  11.657 -0.0592  0.3716  0.3202
  668MOL0     H90159   5.480  10.712  11.657  1.0174  1.8207 -0.5700
  668MOL0     H90160   4.722  11.485  11.596  0.5621 -2.2812  1.1292
  668MOL0     H90161   4.644  11.580  11.377 -3.1915 -2.4702 -0.8842
  668MOL0     H90162   4.866  11.873  11.012  0.1520  2.4291 -2.6132
  668MOL0     H90163   4.825  11.934  10.784 -1.0287  0.5740 -1.9111
  668MOL0     H90164   4.667  10.816   9.537  0.1947  0.6288 -0.3285
  668MOL0     H90165   4.696  10.570   9.543  0.4998 -0.8054 -0.8393
  668MOL0     H90166   5.060  10.252   9.466 -1.0811  0.9533 -0.3100
  668MOL0     H90167   5.121  10.012   9.451 -0.2762 -0.7918  1.4261
  668MOL0     H90168   4.835   9.709   9.380  0.0635 -1.3157 -0.3340
  668MOL0     H90169   4.834   9.677   9.562  2.5191  0.5655  2.1437
  668MOL0     H90170   5.049   9.589   9.365  2.8282 -3.1421  1.6429
  668MOL0     H90171   4.925   9.490   9.448  1.2838 -0.7473 -2.4427
  668MOL0     H90172   5.078   9.440   9.576 -0.1121  0.3423  1.0109
  668MOL0     H90173   5.026   9.582   9.651 -3.3640  0.5021 -1.0950
  668MOL0     H90174   5.292   9.532   9.484  0.9150  0.6498  0.7024
  668MOL0     H90175   5.237   9.698   9.528 -1.0040 -0.0163 -0.3887
  668MOL0     H90176   5.478   9.598   9.814 -0.6303  1.3512  0.2733
  668MOL0     H90177   4.734   9.879   9.520 -1.0279  0.5556  5.5300
  668MOL0     H90178   4.543  10.028   9.551  2.3832  0.8319  3.9405
  668MOL0     H90179   4.569  10.202   9.578 -3.7954 -0.0500 -0.6046
  668MOL0     H90180   4.543  10.132   9.420 -2.0398 -3.3033 -0.0897
  669MOL0     O90181   9.659   5.225   4.680  0.5668 -0.0511 -0.3245
  669MOL0     C90182   9.694   5.322   4.616 -0.1396  0.4748 -0.3077
  669MOL0     O90183   9.621   5.367   4.506 -0.5062  0.5615  0.6805
  669MOL0     C90184   9.499   5.314   4.480  0.3466  0.4168 -0.7447
  669MOL0     C90185   9.382   5.386   4.484 -0.1249  0.3562 -0.2087
  669MOL0     C90186   9.252   5.336   4.450 -0.2062  0.5682 -0.6197
  669MOL0     C90187   9.239   5.203   4.416 -0.0274 -0.1021 -0.1878
  669MOL0     O90188   9.119   5.162   4.382 -0.0647 -0.0791  0.8903
  669MOL0     C90189   9.089   5.017   4.386  0.1393 -0.9896 -0.4945
  669MOL0     C90190   9.093   4.952   4.517  0.7298 -0.2220 -0.3173
  669MOL0     C90191   9.021   4.823   4.497  0.0648 -0.1599  0.4047
  669MOL0     C90192   9.028   4.730   4.627 -0.1756  0.1751 -0.5584
  669MOL0     C90193   8.901   4.636   4.630 -0.5166 -1.1443  0.6363
  669MOL0     C90194   8.875   4.566   4.763 -0.2771 -0.7038  0.4402
  669MOL0     C90195   8.771   4.457   4.749 -0.4319 -0.2049 -0.3551
  669MOL0     C90196   8.631   4.502   4.701 -0.4226 -0.9669  0.0447
  669MOL0     N90197   8.544   4.550   4.805  0.5866  0.1105 -0.5190
  669MOL0     C90198   8.525   4.496   4.931  0.7800 -0.3121 -0.4673
  669MOL0     C90199   8.446   4.577   5.003 -0.0933  0.3295  0.4727
  669MOL0     C90200   8.426   4.554   5.147  0.5046 -0.2755  0.0787
  669MOL0     C90201   8.276   4.578   5.179  0.2026  0.7523 -0.1684
  669MOL0     C90202   8.253   4.575   5.330  0.0529 -0.0473 -0.3169
  669MOL0     C90203   8.314   4.466   5.416 -0.1747 -0.3032  0.2566
  669MOL0     O90204   8.276   4.469   5.549  0.4239  0.4630  0.2435
  669MOL0     C90205   8.218   4.352   5.591  0.4684 -0.7341 -0.1122
  669MOL0     C90206   8.260   4.311   5.713  0.5865  0.1708 -0.5578
  669MOL0     C90207   8.205   4.201   5.766 -0.1569 -0.0426 -0.0816
  669MOL0     C90208   8.124   4.121   5.691  0.1780  0.0046  0.6927
  669MOL0     C90209   8.074   3.986   5.746 -0.0293  0.4480  0.6217
  669MOL0     O90210   7.988   3.909   5.659 -0.0689 -0.0507  0.2331
  669MOL0     C90211   7.915   3.813   5.723 -0.9764  0.4425  0.0727
  669MOL0     C90212   7.775   3.829   5.733 -1.0080 -0.8104 -0.9992
  669MOL0     C90213   7.698   3.729   5.774 -1.1260 -0.2222  0.9547
  669MOL0     C90214   7.747   3.600   5.802 -0.3147  1.3239  0.1808
  669MOL0     O90215   7.667   3.495   5.847 -0.2145  0.5355 -0.7133
  669MOL0     C90216   7.525   3.534   5.862 -1.5567 -0.0471 -0.5642
  669MOL0     C90217   7.445   3.413   5.914  0.4678  0.2416  0.2168
  669MOL0     C90218   7.294   3.443   5.925  0.6376 -0.6390  0.8408
  669MOL0     C90219   7.209   3.311   5.928 -0.6435 -0.2398  0.5222
  669MOL0     C90220   7.056   3.328   5.916 -0.9174 -0.3386 -0.0369
  669MOL0     C90221   6.972   3.199   5.937  1.0428 -0.6225  0.1378
  669MOL0     C90222   6.922   3.178   6.079 -0.2963  0.0216 -0.2945
  669MOL0     C90223   6.828   3.064   6.093  0.2242  0.9385  0.1072
  669MOL0    Cl90224   6.683   3.065   5.995  0.1941 -0.0076 -0.4733
  669MOL0     C90225   7.887   3.575   5.790 -0.2234 -0.3725 -1.3006
  669MOL0     C90226   7.969   3.684   5.749 -0.0286 -0.2042 -0.4645
  669MOL0     O90227   8.115   3.943   5.854 -0.0786 -0.6772  0.7173
  669MOL0     C90228   8.083   4.169   5.572  0.6794  0.7764 -0.8768
  669MOL0     C90229   8.120   4.283   5.524 -0.0237 -1.2464 -0.8890
  669MOL0     N90230   8.414   4.693   4.928 -0.5666  0.5831 -0.1360
  669MOL0     N90231   8.466   4.666   4.808 -0.6183 -0.2406  0.6339
  669MOL0     C90232   9.361   5.124   4.404  0.6744  0.4600  1.1940
  669MOL0     C90233   9.481   5.185   4.434  0.4057  1.0838  0.4698
  669MOL0     C90234   9.830   5.376   4.626  0.4035  0.0008 -0.4938
  669MOL0     C90235   9.878   5.467   4.529  0.1600 -0.0747  0.7926
  669MOL0     C90236  10.000   5.516   4.528 -1.1859  0.6032 -0.3434
  669MOL0     C90237  10.083   5.501   4.637 -0.1066 -0.4425 -0.2533
  669MOL0     O90238  10.209   5.554   4.662  0.4573 -0.3827  0.2631
  669MOL0     C90239  10.258   5.650   4.569 -0.3229 -0.2856 -0.3426
  669MOL0     C90240  10.386   5.704   4.631  0.8164  0.1638 -0.2631
  669MOL0     C90241  10.489   5.731   4.529 -0.1543  0.1805  0.2396
  669MOL0     C90242  10.628   5.683   4.578  0.2526 -1.0004  0.3998
  669MOL0     C90243  10.742   5.717   4.486 -1.1538  0.6340  0.4170
  669MOL0     C90244  10.823   5.748   4.398 -0.3388  0.3129  0.7586
  669MOL0     C90245  10.037   5.429   4.747  0.3105  0.2895  0.0362
  669MOL0     C90246   9.911   5.366   4.752 -0.6796 -0.0587 -0.6621
  669MOL0     C90247   9.885   5.286   4.884  0.2117 -0.5398  1.1584
  669MOL0     H90248   9.385   5.493   4.503  0.9453  0.6408 -1.8587
  669MOL0     H90249   9.169   5.406   4.453  1.1513  2.2368  1.7973
  669MOL0     H90250   8.989   5.014   4.341 -0.7980 -0.2880  1.4248
  669MOL0     H90251   9.160   4.968   4.319  0.3115 -1.6290  0.1462
  669MOL0     H90252   9.050   5.018   4.594 -0.4476 -3.2794  1.8675
  669MOL0     H90253   9.195   4.923   4.543  0.2386 -3.3624 -1.4577
  669MOL0     H90254   9.076   4.766   4.422  0.7589  0.0219  0.7712
  669MOL0     H90255   8.918   4.845   4.466 -0.3165  2.0338  2.8786
  669MOL0     H90256   9.120   4.674   4.646  0.1252 -0.0134 -2.4347
  669MOL0     H90257   9.031   4.798   4.713  0.6242 -0.6147  0.0655
  669MOL0     H90258   8.817   4.701   4.603  0.1819 -0.1641  0.7452
  669MOL0     H90259   8.917   4.556   4.557  5.1744  1.1143 -1.1637
  669MOL0     H90260   8.962   4.510   4.797  2.3882  2.6091 -0.4523
  669MOL0     H90261   8.839   4.637   4.838  2.6769  0.0790  1.2427
  669MOL0     H90262   8.770   4.404   4.844 -4.2031  0.5297  0.1824
  669MOL0     H90263   8.808   4.379   4.682 -1.9874 -0.9175 -0.4320
  669MOL0     H90264   8.637   4.584   4.629 -2.7490  3.0427  3.8829
  669MOL0     H90265   8.588   4.416   4.650  0.1390  0.7682 -3.7309
  669MOL0     H90266   8.558   4.397   4.960 -2.3691 -1.2298  0.4228
  669MOL0     H90267   8.463   4.455   5.172  2.3928 -0.6654 -3.5434
  669MOL0     H90268   8.488   4.631   5.195 -0.6293  0.8106 -0.1444
  669MOL0     H90269   8.230   4.667   5.134  1.8838  1.5979 -0.3069
  669MOL0     H90270   8.222   4.490   5.143 -1.2267  0.1651  3.0116
  669MOL0     H90271   8.145   4.584   5.346  0.4043 -0.0548  2.6337
  669MOL0     H90272   8.292   4.666   5.377  2.3363 -1.8563  1.5907
  669MOL0     H90273   8.421   4.488   5.405 -0.7663  2.4946 -0.6921
  669MOL0     H90274   8.314   4.365   5.376  1.0463 -0.3059  0.2133
  669MOL0     H90275   8.327   4.374   5.772  1.9621 -1.4706 -0.2811
  669MOL0     H90276   8.213   4.171   5.870  4.8716 -3.0483 -0.9765
  669MOL0     H90277   7.731   3.926   5.709 -0.5426 -0.5039 -0.6216
  669MOL0     H90278   7.593   3.754   5.784 -0.8417  0.7700  1.4726
  669MOL0     H90279   7.511   3.621   5.927 -1.2724 -0.4154 -0.0024
  669MOL0     H90280   7.482   3.561   5.765 -0.8336  0.2456 -0.8096
  669MOL0     H90281   7.449   3.336   5.837 -1.6432  1.3522 -1.0911
  669MOL0     H90282   7.473   3.396   6.018 -4.5061  3.2685  2.4545
  669MOL0     H90283   7.277   3.493   6.021 -0.3873  1.2174 -0.2266
  669MOL0     H90284   7.258   3.517   5.852 -1.5098 -3.2027 -0.8992
  669MOL0     H90285   7.228   3.279   6.031 -0.4886  0.2120  0.6368
  669MOL0     H90286   7.246   3.241   5.851  0.1136 -0.2418  0.8781
  669MOL0     H90287   7.034   3.361   5.814  3.3127  2.1076 -0.3711
  669MOL0     H90288   7.026   3.401   5.991  2.9666  1.6865 -0.1820
  669MOL0     H90289   6.888   3.205   5.867  2.8779  0.2161 -2.1261
  669MOL0     H90290   7.032   3.116   5.900 -0.0359 -1.1750 -0.4209
  669MOL0     H90291   6.863   3.262   6.118  0.9750  0.4954  0.6740
  669MOL0     H90292   7.011   3.172   6.142 -0.1309  2.7015 -0.1656
  669MOL0     H90293   6.885   2.975   6.063  0.9532  2.2972 -2.9314
  669MOL0     H90294   6.800   3.055   6.198  3.9192  1.0631  1.2569
  669MOL0     H90295   7.941   3.486   5.824 -2.7432 -0.8432  1.9429
  669MOL0     H90296   8.070   3.683   5.710  0.4103  0.3550  0.6134
  669MOL0     H90297   8.012   4.116   5.510 -1.1452  2.7101 -0.5669
  669MOL0     H90298   8.071   4.314   5.432  3.6438  0.1277 -2.6065
  669MOL0     H90299   9.352   5.024   4.363 -0.5662  0.5197  1.2804
  669MOL0     H90300   9.576   5.134   4.421 -1.9833 -3.4602 -1.9806
  669MOL0     H90301   9.824   5.487   4.437  1.4223 -0.4237 -0.0470
  669MOL0     H90302  10.046   5.560   4.440  0.1935 -2.2956 -1.1918
  669MOL0     H90303  10.182   5.728   4.562 -0.2831  0.1012  2.4754
  669MOL0     H90304  10.278   5.606   4.471 -0.9295 -2.9308  0.6360
  669MOL0     H90305  10.427   5.642   4.712  0.2196 -1.0473 -0.8761
  669MOL0     H90306  10.358   5.798   4.681 -0.5160 -1.3440  2.0089
  669MOL0     H90307  10.501   5.839   4.527  2.0879 -0.0263 -0.1093
  669MOL0     H90308  10.469   5.690   4.429 -3.7104  0.8381  0.5269
  669MOL0     H90309  10.647   5.738   4.671 -1.1786 -0.5354  0.4462
  669MOL0     H90310  10.641   5.575   4.595 -0.9351 -1.0233  1.3271
  669MOL0     H90311  10.886   5.782   4.318 -0.2596  1.5025  1.3211
  669MOL0     H90312  10.094   5.414   4.837 -1.3071  1.4376  1.3131
  669MOL0     H90313   9.812   5.207   4.867 -0.7221  0.1223  2.0044
  669MOL0     H90314   9.984   5.243   4.902 -0.2620 -1.2329  2.2677
  669MOL0     H90315   9.851   5.341   4.972  2.2360 -1.2732  2.4936
  670MOL0     O90316  10.634   7.054   4.894 -0.3029 -0.5750  0.4443
  670MOL0     C90317  10.585   6.964   4.951  0.9718  0.3193 -0.7728
  670MOL0     O90318  10.643   6.875   5.035 -0.9280  0.1628 -0.4594
  670MOL0     C90319  10.780   6.869   5.043 -1.6703  0.4338 -0.8976
  670MOL0     C90320  10.843   6.982   5.105  0.3480 -0.2774  1.6758
  670MOL0     C90321  10.980   6.986   5.125  0.3542 -0.0550 -0.2698
  670MOL0     C90322  11.059   6.884   5.068  0.2628  0.2143  0.0139
  670MOL0     O90323  11.197   6.905   5.073  0.0205  0.7705  0.0219
  670MOL0     C90324  11.275   6.845   4.964  0.0618 -0.2466 -0.3212
  670MOL0     C90325  11.283   6.931   4.830 -0.0811 -0.4013 -0.0697
  670MOL0     C90326  11.304   7.074   4.856 -0.0570 -0.1578 -0.3474
  670MOL0     C90327  11.321   7.154   4.724 -0.7898  0.7620 -0.0439
  670MOL0     C90328  11.390   7.282   4.745 -0.4470 -0.7414 -0.0351
  670MOL0     C90329  11.396   7.379   4.615  0.9439 -0.3102  0.4041
  670MOL0     C90330  11.469   7.508   4.630 -0.7933  0.1212 -0.6826
  670MOL0     C90331  11.421   7.617   4.541 -0.7500  0.1174  0.2627
  670MOL0     N90332  11.482   7.748   4.567 -0.6080  0.8082  0.2315
  670MOL0     C90333  11.448   7.841   4.668  0.7867  1.3475  0.5292
  670MOL0     C90334  11.519   7.945   4.643  0.8742 -0.1579  0.2565
  670MOL0     C90335  11.523   8.065   4.727 -1.1410  0.1677 -1.1291
  670MOL0     C90336  11.666   8.078   4.787  0.6878 -0.2257  0.3223
  670MOL0     C90337  11.742   8.206   4.755 -0.2729  0.2298 -0.0931
  670MOL0     C90338  11.861   8.215   4.855 -0.3741  0.3301 -0.5947
  670MOL0     O90339  11.829   8.240   4.989 -0.6321  0.3722 -0.3410
  670MOL0     C90340  11.824   8.135   5.081  0.0494  0.3007  0.7226
  670MOL0     C90341  11.725   8.132   5.176 -0.6401 -0.9573 -0.3655
  670MOL0     C90342  11.720   8.023   5.269 -0.8004  0.1449  0.2211
  670MOL0     C90343  11.828   7.930   5.275 -0.1911  0.2512  0.0840
  670MOL0     C90344  11.827   7.816   5.369  0.6671 -0.2790  0.4613
  670MOL0     O90345  11.707   7.804   5.438 -0.3921  0.3298  0.1260
  670MOL0     C90346  11.692   7.688   5.513  0.5641 -0.1783  0.2974
  670MOL0     C90347  11.628   7.698   5.636  0.1342  0.7764  1.0877
  670MOL0     C90348  11.595   7.575   5.703  1.2245  0.1138 -1.0807
  670MOL0     C90349  11.646   7.448   5.661 -0.1032  0.1110  0.2537
  670MOL0     O90350  11.624   7.335   5.726  0.4367  0.2448 -0.4488
  670MOL0     C90351  11.497   7.315   5.789  0.6317 -0.4225  0.8699
  670MOL0     C90352  11.383   7.309   5.684 -0.3234  0.5637  0.5400
  670MOL0     C90353  11.252   7.264   5.750  0.0388  1.3808 -0.1100
  670MOL0     C90354  11.149   7.234   5.638  0.6387 -0.1525  0.4386
  670MOL0     C90355  11.025   7.162   5.692 -0.3974 -0.7793 -0.2135
  670MOL0     C90356  10.930   7.118   5.585 -0.3754 -0.6816 -0.1531
  670MOL0     C90357  10.906   7.233   5.488  0.4937  1.4199  0.6056
  670MOL0     C90358  10.773   7.196   5.408 -1.0517 -0.9971 -0.0167
  670MOL0    Cl90359  10.743   7.310   5.278 -0.0039  0.5768 -0.1359
  670MOL0     C90360  11.711   7.441   5.535  0.0732  0.4399  0.8816
  670MOL0     C90361  11.717   7.561   5.460 -0.3219 -0.2737 -0.7783
  670MOL0     O90362  11.925   7.738   5.374 -0.4064 -0.2952 -0.7595
  670MOL0     C90363  11.936   7.946   5.188 -0.7798 -0.3187 -0.7921
  670MOL0     C90364  11.929   8.041   5.088  0.1450  0.2678  1.3535
  670MOL0     N90365  11.589   7.930   4.525  0.6214  0.1430 -0.6755
  670MOL0     N90366  11.573   7.812   4.480  1.5249  0.3034  0.3411
  670MOL0     C90367  10.994   6.759   5.008 -0.3327  0.6970 -0.1154
  670MOL0     C90368  10.854   6.758   4.994  0.6005 -0.3287  0.6279
  670MOL0     C90369  10.434   6.948   4.950 -0.8646 -0.2420 -0.1499
  670MOL0     C90370  10.369   6.884   5.054  0.4265 -0.0884 -0.1505
  670MOL0     C90371  10.228   6.861   5.058  0.4439 -0.4377  0.1545
  670MOL0     C90372  10.152   6.923   4.958 -0.5372 -0.0033  0.1405
  670MOL0     O90373  10.016   6.922   4.940  0.0426  0.2728  0.2086
  670MOL0     C90374   9.937   6.842   5.032  0.3146  0.7293 -0.6339
  670MOL0     C90375   9.797   6.817   4.985  0.3711  0.6944 -0.1203
  670MOL0     C90376   9.786   6.741   4.848  0.5110  0.0171  0.0701
  670MOL0     C90377   9.636   6.744   4.794 -0.4698  0.0386  0.3447
  670MOL0     C90378   9.582   6.603   4.796 -0.6047 -0.0842  0.5922
  670MOL0     C90379   9.530   6.492   4.800 -0.0314  0.1503  0.4984
  670MOL0     C90380  10.209   6.997   4.857 -0.5856 -0.3441  0.0810
  670MOL0     C90381  10.351   6.997   4.845 -0.2720 -0.3439  0.5802
  670MOL0     C90382  10.406   7.061   4.713 -0.1744  0.2165  0.1175
  670MOL0     H90383  10.779   7.055   5.154 -1.8257 -2.7001  2.6684
  670MOL0     H90384  11.027   7.062   5.186 -0.6305 -1.2921  2.1636
  670MOL0     H90385  11.377   6.832   5.001 -0.0652 -1.0998 -0.2417
  670MOL0     H90386  11.242   6.743   4.939  4.5823 -2.2029  0.8306
  670MOL0     H90387  11.191   6.912   4.774  2.6455 -1.1516 -4.8665
  670MOL0     H90388  11.358   6.890   4.761  2.2653  1.1043  1.4145
  670MOL0     H90389  11.386   7.080   4.927 -0.1721  0.1984 -0.2401
  670MOL0     H90390  11.218   7.119   4.908  1.1370  1.8787 -0.0224
  670MOL0     H90391  11.370   7.098   4.644 -1.5358  2.8444 -2.0717
  670MOL0     H90392  11.217   7.167   4.691 -1.5769 -0.1719  1.8978
  670MOL0     H90393  11.344   7.344   4.822 -1.3166  0.7369 -1.6839
  670MOL0     H90394  11.495   7.280   4.778 -0.6384  0.4869  0.6772
  670MOL0     H90395  11.432   7.317   4.533  1.2261 -1.2359  1.2062
  670MOL0     H90396  11.295   7.409   4.584 -0.1184 -1.2542  2.7194
  670MOL0     H90397  11.577   7.499   4.621 -0.5500  0.2851  1.5979
  670MOL0     H90398  11.460   7.537   4.735 -2.1966  0.1704 -0.7939
  670MOL0     H90399  11.437   7.595   4.435  1.1492  0.7007  0.3833
  670MOL0     H90400  11.314   7.631   4.556 -1.5490 -3.0614 -1.6166
  670MOL0     H90401  11.378   7.829   4.750 -0.7030  2.7532 -0.4758
  670MOL0     H90402  11.516   8.158   4.670  0.2530  0.6485 -0.5610
  670MOL0     H90403  11.444   8.056   4.802 -1.7266  0.5120 -1.6979
  670MOL0     H90404  11.651   8.073   4.895 -1.2962 -0.8554  0.0648
  670MOL0     H90405  11.732   7.995   4.761 -1.3502 -0.9975 -2.8426
  670MOL0     H90406  11.686   8.299   4.766 -1.5442 -0.7768  3.0849
  670MOL0     H90407  11.784   8.200   4.654  1.0043  2.3017  0.2652
  670MOL0     H90408  11.920   8.301   4.823 -2.1494  1.5056 -0.7921
  670MOL0     H90409  11.933   8.135   4.834  0.0406  0.6554 -0.4196
  670MOL0     H90410  11.649   8.209   5.183  0.6289  0.3547 -0.7366
  670MOL0     H90411  11.649   8.015   5.351 -1.4209  0.6480 -0.2552
  670MOL0     H90412  11.592   7.794   5.673 -3.5985  1.1286 -2.7699
  670MOL0     H90413  11.538   7.572   5.795  0.1767  0.8351 -1.6857
  670MOL0     H90414  11.519   7.211   5.813  3.3986 -0.6160 -1.8452
  670MOL0     H90415  11.477   7.374   5.879  1.4592 -0.6003  1.1875
  670MOL0     H90416  11.357   7.405   5.638 -2.4919 -0.4906 -0.5700
  670MOL0     H90417  11.408   7.243   5.601 -1.6426 -0.6551  1.0576
  670MOL0     H90418  11.265   7.176   5.814 -2.2653 -1.8802 -3.6641
  670MOL0     H90419  11.221   7.347   5.814 -0.8616  1.2731 -0.3935
  670MOL0     H90420  11.182   7.163   5.562  1.6977 -2.3184  2.7560
  670MOL0     H90421  11.117   7.328   5.593  0.6268  0.0082  0.7778
  670MOL0     H90422  10.969   7.217   5.768 -0.8062 -0.2856 -0.8635
  670MOL0     H90423  11.041   7.061   5.730 -3.0314 -1.8907 -1.7677
  670MOL0     H90424  10.975   7.039   5.523  2.7519 -1.4970  2.8637
  670MOL0     H90425  10.838   7.083   5.631 -0.1382 -1.1067 -0.0011
  670MOL0     H90426  10.990   7.231   5.418  1.2908  2.4770  1.4868
  670MOL0     H90427  10.898   7.332   5.536  1.8161  1.5027  0.7115
  670MOL0     H90428  10.791   7.095   5.372 -1.9751 -0.5493 -1.8930
  670MOL0     H90429  10.695   7.204   5.485  0.3281 -0.0550  1.3594
  670MOL0     H90430  11.750   7.350   5.492  0.1868  1.3717 -1.1216
  670MOL0     H90431  11.747   7.552   5.356  2.3266  2.6315 -0.4165
  670MOL0     H90432  12.008   7.865   5.189  0.0103  0.3636 -1.1294
  670MOL0     H90433  11.999   8.020   5.007 -2.7177 -0.4323 -1.1058
  670MOL0     H90434  11.052   6.676   4.970 -3.7940 -0.0939 -4.4739
  670MOL0     H90435  10.806   6.665   4.965  0.0521 -1.2862  4.1240
  670MOL0     H90436  10.422   6.850   5.142  0.5210  2.3714  0.8130
  670MOL0     H90437  10.180   6.818   5.145 -1.7221  0.8022 -0.3472
  670MOL0     H90438   9.917   6.893   5.127 -2.3858  1.7784 -1.6455
  670MOL0     H90439   9.973   6.741   5.053  0.8488  1.4050  2.1629
  670MOL0     H90440   9.743   6.912   4.971  2.5504  1.9773 -0.2578
  670MOL0     H90441   9.749   6.753   5.060  0.3737  0.0528 -0.6565
  670MOL0     H90442   9.816   6.639   4.875 -0.9859 -0.0146  1.8191
  670MOL0     H90443   9.858   6.779   4.776 -2.5025  1.7331 -2.3039
  670MOL0     H90444   9.568   6.803   4.856  1.7878  2.5153  0.6153
  670MOL0     H90445   9.624   6.777   4.691 -1.2952 -2.3013 -0.3703
  670MOL0     H90446   9.504   6.390   4.820 -0.2504 -0.1036 -0.9601
  670MOL0     H90447  10.154   7.047   4.779  1.8210  0.9768 -0.8839
  670MOL0     H90448  10.332   7.085   4.637  0.2140 -0.7047 -0.5753
  670MOL0     H90449  10.461   7.153   4.735  2.9175 -1.3568 -0.5036
  670MOL0     H90450  10.474   6.990   4.667 -0.2807  1.4404 -2.0542
  671MOL0     O90451   9.986   3.011   1.823 -0.4898 -0.0042 -0.0017
  671MOL0     C90452  10.000   3.076   1.718 -0.5251  0.0533 -0.3218
  671MOL0     O90453   9.934   3.056   1.597 -0.6742 -0.2958 -0.8369
  671MOL0     C90454   9.831   2.968   1.598 -0.8446 -0.1530 -0.0340
  671MOL0     C90455   9.799   2.889   1.487  0.0904 -0.7628 -0.3939
  671MOL0     C90456   9.683   2.815   1.485 -0.9016 -0.4535 -0.5185
  671MOL0     C90457   9.596   2.806   1.588  0.9410  0.8765  0.1099
  671MOL0     O90458   9.489   2.730   1.557  0.3092  0.3599 -0.6197
  671MOL0     C90459   9.383   2.712   1.653  0.1966 -0.1443  0.7351
  671MOL0     C90460   9.290   2.589   1.603 -0.0827 -0.7540 -0.6651
  671MOL0     C90461   9.134   2.606   1.638  0.1586 -0.5589 -0.8062
  671MOL0     C90462   9.051   2.645   1.511 -0.0257  0.0087 -0.6932
  671MOL0     C90463   8.906   2.693   1.545  1.4408  0.5741 -0.7699
  671MOL0     C90464   8.820   2.580   1.589  0.7224  0.7782 -0.2219
  671MOL0     C90465   8.806   2.478   1.476  0.8463  0.6072 -0.5121
  671MOL0     C90466   8.702   2.533   1.386  0.3378 -0.6200  0.1923
  671MOL0     N90467   8.682   2.463   1.261  0.7925 -0.0598  0.3711
  671MOL0     C90468   8.772   2.469   1.157  0.4025  0.4210 -0.9507
  671MOL0     C90469   8.717   2.406   1.055  0.7410  0.2255  0.0741
  671MOL0     C90470   8.786   2.386   0.922  0.3426  0.8166  0.6038
  671MOL0     C90471   8.786   2.237   0.874 -0.0389  0.5408  0.3797
  671MOL0     C90472   8.869   2.147   0.970  1.0265  0.2350  0.0941
  671MOL0     C90473   9.011   2.186   1.013 -0.2876  0.0311  0.4234
  671MOL0     O90474   9.015   2.246   1.147 -0.1023 -0.3575 -0.1071
  671MOL0     C90475   9.130   2.279   1.199 -0.4200 -0.4580  0.9977
  671MOL0     C90476   9.228   2.178   1.212  1.1723 -0.4879 -0.9847
  671MOL0     C90477   9.363   2.216   1.239  0.4777 -0.1573 -0.2515
  671MOL0     C90478   9.407   2.354   1.239  0.3195  0.5930 -0.3745
  671MOL0     C90479   9.558   2.398   1.257  0.6140 -0.0065  0.3246
  671MOL0     O90480   9.645   2.309   1.323 -0.1092 -0.0992  0.5469
  671MOL0     C90481   9.779   2.347   1.332  0.3226  1.1159 -0.4709
  671MOL0     C90482   9.819   2.461   1.390  0.7303 -0.5359  0.2432
  671MOL0     C90483   9.951   2.475   1.432 -0.5103 -0.1915  0.3079
  671MOL0     C90484  10.047   2.379   1.409 -0.4499  0.5972 -0.3258
  671MOL0     O90485  10.177   2.409   1.437 -0.2865 -0.0161 -0.1307
  671MOL0     C90486  10.205   2.439   1.574 -0.0442  0.6878 -0.9692
  671MOL0     C90487  10.340   2.394   1.641 -0.5880  0.8170 -0.3539
  671MOL0     C90488  10.456   2.456   1.555 -0.3474 -0.3595 -0.5264
  671MOL0     C90489  10.567   2.488   1.657  0.4443  0.0397 -0.1784
  671MOL0     C90490  10.708   2.504   1.597 -0.1359 -0.1917 -1.1165
  671MOL0     C90491  10.816   2.539   1.699 -0.9427 -0.0650  0.0036
  671MOL0     C90492  10.956   2.551   1.637 -1.0328  0.0485  0.1330
  671MOL0     C90493  10.996   2.441   1.540 -0.1681 -0.3795  0.2725
  671MOL0    Cl90494  10.940   2.262   1.593 -0.3511 -0.2132 -0.3667
  671MOL0     C90495  10.013   2.264   1.332 -1.4482 -0.3295  0.3701
  671MOL0     C90496   9.876   2.244   1.307 -0.3476  0.5150 -0.6680
  671MOL0     O90497   9.586   2.503   1.207 -0.5797 -0.2629  0.8283
  671MOL0     C90498   9.306   2.450   1.223  0.1508  0.0875  0.3921
  671MOL0     C90499   9.172   2.409   1.204  0.5940 -0.0734  0.6506
  671MOL0     N90500   8.589   2.356   1.091  0.6462 -0.3054  0.1586
  671MOL0     N90501   8.570   2.395   1.210 -0.9030  0.3667  0.6955
  671MOL0     C90502   9.613   2.890   1.698 -0.1488 -0.2177  0.4886
  671MOL0     C90503   9.732   2.973   1.699  0.4663  0.1582  0.7485
  671MOL0     C90504  10.108   3.178   1.723 -0.7205  0.2172  0.1224
  671MOL0     C90505  10.170   3.214   1.602  0.6927  0.0859  0.1107
  671MOL0     C90506  10.288   3.293   1.609 -0.5715  0.8444 -0.1103
  671MOL0     C90507  10.339   3.354   1.721 -0.0010  0.5542  0.0903
  671MOL0     O90508  10.463   3.423   1.713  1.1332  0.1063 -1.2517
  671MOL0     C90509  10.587   3.343   1.728  0.0712 -1.2584 -0.4928
  671MOL0     C90510  10.693   3.432   1.785 -0.3222  0.2431  0.2313
  671MOL0     C90511  10.820   3.356   1.828  0.0133  0.2026  0.7583
  671MOL0     C90512  10.922   3.443   1.904  0.5473 -0.6140  0.6932
  671MOL0     C90513  11.011   3.359   1.986 -0.0865 -0.8665  0.8340
  671MOL0     C90514  11.085   3.293   2.062 -0.0800  0.5805  0.2562
  671MOL0     C90515  10.272   3.318   1.843  0.0888 -0.1179 -0.0533
  671MOL0     C90516  10.159   3.232   1.843 -0.1988 -0.3582  0.5941
  671MOL0     C90517  10.103   3.205   1.981  0.4084 -0.4890 -0.1641
  671MOL0     H90518   9.860   2.884   1.398 -0.9528  2.5015 -1.4565
  671MOL0     H90519   9.670   2.771   1.387 -3.3091  0.3032 -0.5981
  671MOL0     H90520   9.405   2.704   1.760  0.5320  0.1090  0.6873
  671MOL0     H90521   9.314   2.797   1.644 -1.6090 -1.7043 -1.3515
  671MOL0     H90522   9.339   2.503   1.649 -1.0077  0.0786  2.0810
  671MOL0     H90523   9.308   2.589   1.495  3.0622  0.5398 -0.2454
  671MOL0     H90524   9.124   2.688   1.710  2.6488  0.9345 -2.0106
  671MOL0     H90525   9.089   2.514   1.676 -2.1465 -0.2136 -2.5108
  671MOL0     H90526   9.105   2.725   1.458  2.1216 -3.3363 -4.1123
  671MOL0     H90527   9.063   2.569   1.433  2.3693  1.7122 -2.1397
  671MOL0     H90528   8.904   2.770   1.623 -0.1904 -1.3555  1.1958
  671MOL0     H90529   8.879   2.744   1.451 -0.1242 -3.0588 -2.4675
  671MOL0     H90530   8.856   2.526   1.677 -3.4571 -1.9744  0.0641
  671MOL0     H90531   8.723   2.622   1.617  1.5287  1.1823  2.2002
  671MOL0     H90532   8.761   2.388   1.518  0.3993  2.5069  3.5962
  671MOL0     H90533   8.903   2.454   1.432  1.1222 -0.6450  0.7283
  671MOL0     H90534   8.608   2.515   1.439  0.7368 -1.0184  0.7829
  671MOL0     H90535   8.709   2.639   1.362 -0.8750 -0.4877  0.3548
  671MOL0     H90536   8.873   2.510   1.164  0.1802  0.9009 -0.5734
  671MOL0     H90537   8.739   2.453   0.850 -1.0592 -1.6155 -0.8754
  671MOL0     H90538   8.889   2.418   0.937  0.9714 -1.0995  0.6797
  671MOL0     H90539   8.683   2.202   0.867 -1.3669  4.0488  0.0291
  671MOL0     H90540   8.823   2.233   0.771  1.1897  4.7439  0.4613
  671MOL0     H90541   8.868   2.043   0.937  0.8629  0.1210  0.4610
  671MOL0     H90542   8.801   2.145   1.055  1.3760 -0.5787  0.3590
  671MOL0     H90543   9.061   2.251   0.941  0.6756 -0.6858  0.4342
  671MOL0     H90544   9.070   2.095   1.018  1.4308  0.6922 -3.9729
  671MOL0     H90545   9.200   2.073   1.204 -1.2188  0.2083 -3.3292
  671MOL0     H90546   9.435   2.136   1.257  0.7344 -0.1505 -1.2124
  671MOL0     H90547   9.749   2.540   1.415  0.6665 -0.8818  1.1968
  671MOL0     H90548   9.970   2.574   1.473  0.2848  1.1458 -2.9271
  671MOL0     H90549  10.197   2.546   1.595  0.0339  0.2428  1.7757
  671MOL0     H90550  10.127   2.400   1.640  1.5301 -2.3536 -0.7104
  671MOL0     H90551  10.346   2.429   1.745  2.2809 -0.3295 -0.0391
  671MOL0     H90552  10.342   2.285   1.640  0.6371  0.8212 -0.4046
  671MOL0     H90553  10.475   2.385   1.474 -0.0425  0.1409 -0.9001
  671MOL0     H90554  10.428   2.549   1.507  0.4006  0.0896 -0.1139
  671MOL0     H90555  10.581   2.398   1.717 -1.5021 -0.6350 -0.6602
  671MOL0     H90556  10.537   2.566   1.728  0.8765 -4.0349  5.0430
  671MOL0     H90557  10.692   2.592   1.534  0.1131 -1.9238 -3.7311
  671MOL0     H90558  10.728   2.412   1.543 -1.3323  0.4398 -2.7029
  671MOL0     H90559  10.805   2.633   1.754  0.6430 -0.6438  1.3816
  671MOL0     H90560  10.824   2.460   1.774  0.6498 -0.4216 -0.4972
  671MOL0     H90561  11.033   2.540   1.714 -0.3694 -0.3390 -0.5721
  671MOL0     H90562  10.976   2.654   1.606  0.1817  0.5271  2.3093
  671MOL0     H90563  10.955   2.459   1.441  3.0104 -0.0773 -1.1283
  671MOL0     H90564  11.105   2.455   1.538 -0.0064 -1.4032  1.1057
  671MOL0     H90565  10.079   2.189   1.292  0.3510  1.5783 -0.4264
  671MOL0     H90566   9.851   2.148   1.264 -1.5445 -0.2908  1.6902
  671MOL0     H90567   9.326   2.556   1.216 -1.9876  0.6053  1.4899
  671MOL0     H90568   9.106   2.493   1.183  1.0323 -0.2046 -1.4300
  671MOL0     H90569   9.544   2.901   1.782  0.3584  0.8539  0.7717
  671MOL0     H90570   9.741   3.051   1.774  0.2403  1.3703 -0.4614
  671MOL0     H90571  10.129   3.173   1.510 -4.6771  3.4354  0.5625
  671MOL0     H90572  10.351   3.323   1.526 -0.8651  3.2675  0.4654
  671MOL0     H90573  10.618   3.314   1.627 -2.3886  2.3382 -2.5461
  671MOL0     H90574  10.553   3.260   1.792 -2.3302 -0.7852 -1.0345
  671MOL0     H90575  10.644   3.485   1.867 -1.5496 -1.5443  0.7071
  671MOL0     H90576  10.724   3.503   1.707 -2.2857 -1.6025 -2.3976
  671MOL0     H90577  10.867   3.319   1.737 -3.5670 -3.5612  0.0828
  671MOL0     H90578  10.797   3.269   1.891 -0.1062  1.1253  2.0280
  671MOL0     H90579  10.976   3.502   1.829 -0.8207  1.3920  1.2036
  671MOL0     H90580  10.875   3.519   1.968  1.8108  2.1505 -1.4577
  671MOL0     H90581  11.162   3.250   2.123 -1.4643  1.5386  2.8393
  671MOL0     H90582  10.311   3.345   1.941 -1.5538 -3.4293  1.7082
  671MOL0     H90583   9.997   3.223   1.998  0.4245 -0.7645  0.2379
  671MOL0     H90584  10.115   3.102   2.015 -0.4584 -0.2988  0.7495
  671MOL0     H90585  10.153   3.270   2.053  0.6378 -0.5692 -0.2474
  672MOL0     O90586   1.042   6.934   8.279 -0.0290  0.3502  0.4744
  672MOL0     C90587   0.940   6.890   8.329 -0.3183  0.1996 -0.0917
  672MOL0     O90588   0.931   6.780   8.410  0.0679 -0.3158 -0.7127
  672MOL0     C90589   1.031   6.683   8.402  0.2669 -0.7718 -0.2694
  672MOL0     C90590   1.054   6.608   8.288 -0.2631 -0.0807  0.0077
  672MOL0     C90591   1.152   6.511   8.282 -0.4478  1.0820  0.0843
  672MOL0     C90592   1.214   6.483   8.399  0.1496  0.3307  0.8067
  672MOL0     O90593   1.308   6.376   8.391 -0.0142 -0.3676 -1.3804
  672MOL0     C90594   1.359   6.312   8.519  0.1645  0.4672  0.1544
  672MOL0     C90595   1.441   6.198   8.481  0.2637  0.4372 -0.2258
  672MOL0     C90596   1.360   6.078   8.438 -0.5800  0.1022  0.0015
  672MOL0     C90597   1.297   6.000   8.552 -0.4204  0.4068  1.4181
  672MOL0     C90598   1.275   5.848   8.509  0.2862 -0.5300  0.2501
  672MOL0     C90599   1.405   5.763   8.539 -0.0297  0.7700 -0.0361
  672MOL0     C90600   1.386   5.623   8.483 -0.1705  0.8810 -0.4489
  672MOL0     C90601   1.504   5.524   8.518 -0.0266 -0.0038 -0.0153
  672MOL0     N90602   1.484   5.383   8.477  0.1569 -0.5947  0.3024
  672MOL0     C90603   1.505   5.324   8.356 -0.3942 -1.0256 -0.2698
  672MOL0     C90604   1.404   5.242   8.335  0.2217  0.1896 -0.1711
  672MOL0     C90605   1.378   5.168   8.208 -0.4926  0.6694  0.4263
  672MOL0     C90606   1.492   5.070   8.175 -0.0286 -0.2239  0.0249
  672MOL0     C90607   1.526   4.965   8.276 -0.1045  0.3818  0.4193
  672MOL0     C90608   1.678   4.929   8.266  0.3141 -0.7810  1.0654
  672MOL0     O90609   1.761   5.047   8.268  0.7982 -0.9581 -0.5405
  672MOL0     C90610   1.892   5.032   8.294 -0.5335  0.3341  0.4853
  672MOL0     C90611   1.957   5.149   8.356 -0.2407 -0.7608  0.3863
  672MOL0     C90612   2.092   5.144   8.391  0.0977 -0.8247 -0.5455
  672MOL0     C90613   2.169   5.026   8.380  0.1144  0.1032  0.3020
  672MOL0     C90614   2.317   5.023   8.403 -0.5686 -0.2469 -0.0245
  672MOL0     O90615   2.372   5.146   8.426 -0.0650 -0.3592  0.3670
  672MOL0     C90616   2.501   5.176   8.465 -0.1799 -0.3413  0.2253
  672MOL0     C90617   2.588   5.107   8.548 -0.3691 -0.6611  0.5032
  672MOL0     C90618   2.727   5.152   8.558 -0.2331  0.0433 -0.2885
  672MOL0     C90619   2.772   5.258   8.487 -0.6116  0.5164  0.5150
  672MOL0     O90620   2.909   5.283   8.496  1.0999  0.3726  0.2865
  672MOL0     C90621   2.962   5.358   8.606  0.1034  0.0711 -0.3518
  672MOL0     C90622   3.023   5.491   8.554  0.0106  1.0506  0.0435
  672MOL0     C90623   3.131   5.455   8.454 -0.2925 -0.1500 -0.2454
  672MOL0     C90624   3.216   5.575   8.427 -1.1157 -0.7206  0.0817
  672MOL0     C90625   3.358   5.513   8.376  0.3092 -0.6471  0.3324
  672MOL0     C90626   3.480   5.609   8.368  0.8496  0.7752  0.2888
  672MOL0     C90627   3.615   5.538   8.344  0.5699 -0.1346 -0.4425
  672MOL0     C90628   3.647   5.503   8.195 -0.2216 -0.4145 -0.9053
  672MOL0    Cl90629   3.755   5.630   8.124  0.0394  0.5198 -0.7652
  672MOL0     C90630   2.680   5.338   8.425  0.1715  0.1985  0.0158
  672MOL0     C90631   2.541   5.302   8.416 -0.3041 -0.4298  0.1422
  672MOL0     O90632   2.383   4.920   8.398 -0.0516 -0.2540  0.7945
  672MOL0     C90633   2.105   4.912   8.323 -0.1005  0.7857 -0.5359
  672MOL0     C90634   1.967   4.911   8.274 -0.0168  0.5696 -0.1829
  672MOL0     N90635   1.331   5.231   8.453  0.7538 -0.2483 -0.0674
  672MOL0     N90636   1.391   5.301   8.544 -0.3176 -0.5782 -0.2419
  672MOL0     C90637   1.198   6.557   8.514 -0.6093 -0.1442 -0.1517
  672MOL0     C90638   1.107   6.657   8.518  0.0366 -0.3654  1.2545
  672MOL0     C90639   0.814   6.969   8.319 -0.3396 -0.1137 -1.3117
  672MOL0     C90640   0.691   6.902   8.337 -0.4742  0.5137  0.2189
  672MOL0     C90641   0.567   6.956   8.301  1.2243 -0.6459 -0.0158
  672MOL0     C90642   0.555   7.088   8.271 -0.0943  0.0840  0.0151
  672MOL0     O90643   0.429   7.140   8.251 -0.9910 -0.7456 -0.4153
  672MOL0     C90644   0.409   7.283   8.232 -0.6133 -0.6721 -0.5737
  672MOL0     C90645   0.278   7.306   8.162  0.7271  0.3203 -0.4800
  672MOL0     C90646   0.281   7.254   8.018  0.5946  0.7240  0.2001
  672MOL0     C90647   0.193   7.340   7.934 -0.0697 -0.3263  1.6060
  672MOL0     C90648   0.203   7.303   7.789 -0.6427 -0.4081  0.3419
  672MOL0     C90649   0.207   7.264   7.677  0.9676 -0.6016 -0.3527
  672MOL0     C90650   0.679   7.163   8.265  0.2208 -0.0534 -0.2587
  672MOL0     C90651   0.804   7.109   8.287 -1.2053  0.3526  0.3499
  672MOL0     C90652   0.921   7.210   8.290 -0.5871  0.3400  0.6133
  672MOL0     H90653   1.008   6.633   8.194  1.5367  2.8760 -0.2219
  672MOL0     H90654   1.175   6.450   8.195 -0.7885 -0.1957  0.8634
  672MOL0     H90655   1.427   6.382   8.570 -1.2376  1.7537  0.3463
  672MOL0     H90656   1.287   6.288   8.597 -0.2592  1.7422  0.1849
  672MOL0     H90657   1.498   6.163   8.568 -0.7709 -1.2929 -0.1785
  672MOL0     H90658   1.516   6.236   8.410  1.5925  0.3746  1.1016
  672MOL0     H90659   1.427   6.019   8.374  0.6342  3.6740 -2.2995
  672MOL0     H90660   1.277   6.113   8.375  0.6577  1.0390 -1.1767
  672MOL0     H90661   1.351   6.011   8.647 -0.3935 -0.2528  1.4854
  672MOL0     H90662   1.197   6.037   8.576 -1.7173 -4.2217  4.3552
  672MOL0     H90663   1.194   5.810   8.571 -0.0815  0.0879  0.1640
  672MOL0     H90664   1.245   5.837   8.404  0.6112  2.1270 -0.1962
  672MOL0     H90665   1.490   5.808   8.487  0.3083 -2.2009 -2.3261
  672MOL0     H90666   1.425   5.758   8.646 -1.8312 -0.3444  0.2879
  672MOL0     H90667   1.366   5.616   8.376  1.9366  0.4922 -0.8618
  672MOL0     H90668   1.296   5.575   8.524  0.9383 -1.8363 -0.9513
  672MOL0     H90669   1.601   5.560   8.483 -0.4344  0.5835 -0.5588
  672MOL0     H90670   1.517   5.515   8.626  1.2626  3.5129  0.2589
  672MOL0     H90671   1.587   5.345   8.288  0.8472  1.1726  1.7516
  672MOL0     H90672   1.298   5.097   8.231  1.4726 -0.7673  3.4003
  672MOL0     H90673   1.352   5.231   8.122  2.0504  2.6517  0.9932
  672MOL0     H90674   1.467   5.022   8.080  0.1741 -1.7191  0.6893
  672MOL0     H90675   1.575   5.136   8.148  0.1503 -0.3763  0.1944
  672MOL0     H90676   1.464   4.880   8.249  0.2653 -0.9304  3.3495
  672MOL0     H90677   1.503   5.005   8.375  1.1535 -0.1963  0.9668
  672MOL0     H90678   1.706   4.874   8.176  1.9167  1.4483  0.1177
  672MOL0     H90679   1.708   4.868   8.353  0.6388  0.7998  2.1109
  672MOL0     H90680   1.890   5.229   8.384 -0.9923 -0.2250 -2.6528
  672MOL0     H90681   2.133   5.233   8.437 -0.1583 -2.1129  2.4074
  672MOL0     H90682   2.549   5.015   8.591 -1.5553 -0.1380  0.5840
  672MOL0     H90683   2.784   5.093   8.629 -0.8769 -0.5314 -0.2403
  672MOL0     H90684   2.902   5.389   8.692  0.5618 -0.6573  0.2496
  672MOL0     H90685   3.045   5.301   8.649 -0.5969  0.3126  1.4298
  672MOL0     H90686   2.938   5.534   8.500 -0.9488  0.8022  1.2982
  672MOL0     H90687   3.055   5.554   8.637 -1.8261  1.8803  0.1834
  672MOL0     H90688   3.188   5.373   8.499 -4.6904 -2.0496  2.5968
  672MOL0     H90689   3.096   5.415   8.358  2.3467  0.1598 -1.4272
  672MOL0     H90690   3.233   5.644   8.511  1.5627 -0.5033 -0.5357
  672MOL0     H90691   3.173   5.643   8.353 -0.0357  0.1562  0.2238
  672MOL0     H90692   3.339   5.473   8.276 -3.0666  0.5005  0.3888
  672MOL0     H90693   3.387   5.428   8.439  0.9724 -2.4973 -2.2689
  672MOL0     H90694   3.465   5.686   8.293  1.7374  3.6208  2.8358
  672MOL0     H90695   3.481   5.669   8.459  0.6706  3.7567 -1.5454
  672MOL0     H90696   3.605   5.438   8.387  2.5874 -1.7432 -3.3302
  672MOL0     H90697   3.700   5.589   8.391 -1.1190  2.5113 -0.0563
  672MOL0     H90698   3.703   5.410   8.204  0.3866  0.1220  2.4716
  672MOL0     H90699   3.552   5.501   8.140 -0.8938 -0.3431  0.2088
  672MOL0     H90700   2.720   5.427   8.377  1.7863 -0.2196  0.5387
  672MOL0     H90701   2.460   5.364   8.377  0.7785  0.2953 -1.0103
  672MOL0     H90702   2.163   4.822   8.305 -0.3201  0.4108  0.5247
  672MOL0     H90703   1.915   4.826   8.231 -3.3784  1.6385  1.4201
  672MOL0     H90704   1.248   6.533   8.608  2.6252  1.1576 -1.4008
  672MOL0     H90705   1.089   6.710   8.610 -2.1554  2.3170 -0.5411
  672MOL0     H90706   0.691   6.798   8.369 -2.1684  0.7106  0.9871
  672MOL0     H90707   0.477   6.902   8.331  0.1506  0.6754 -0.7575
  672MOL0     H90708   0.481   7.347   8.181  0.5350 -0.1669  1.5413
  672MOL0     H90709   0.407   7.317   8.336 -4.6442 -0.7561 -0.4643
  672MOL0     H90710   0.263   7.413   8.176 -1.1945 -0.3050  4.5099
  672MOL0     H90711   0.196   7.263   8.221  2.7376  0.4213  2.6847
  672MOL0     H90712   0.243   7.152   8.007  0.5020  0.8430 -0.6315
  672MOL0     H90713   0.383   7.251   7.980  1.1388  0.5554  1.6081
  672MOL0     H90714   0.094   7.309   7.969  0.2401 -0.4493  2.4106
  672MOL0     H90715   0.213   7.448   7.940 -2.4016  0.3661 -1.0793
  672MOL0     H90716   0.242   7.228   7.582  3.3205 -0.7236  0.4946
  672MOL0     H90717   0.659   7.265   8.234 -1.4797 -0.1314  0.4391
  672MOL0     H90718   1.021   7.166   8.283 -1.5650 -2.0922  0.9874
  672MOL0     H90719   0.906   7.262   8.195 -0.6570 -1.7633 -0.5814
  672MOL0     H90720   0.896   7.286   8.365 -0.6244 -0.0249  0.9698
  673MOL0     O90721   9.530   0.939   5.152 -0.0839 -0.0372 -0.6739
  673MOL0     C90722   9.531   0.853   5.064 -1.1797  0.0580  0.0679
  673MOL0     O90723   9.420   0.805   5.005 -0.3665  0.2545 -0.3865
  673MOL0     C90724   9.309   0.871   5.039  1.5521  0.2868 -0.7247
  673MOL0     C90725   9.258   0.974   4.958 -0.7746  0.6190  0.6347
  673MOL0     C90726   9.132   1.023   4.962 -0.3163 -0.1795  0.3009
  673MOL0     C90727   9.056   0.982   5.068 -0.8197 -1.3486  0.4893
  673MOL0     O90728   8.928   1.046   5.069  0.6253 -0.0209 -0.1177
  673MOL0     C90729   8.827   1.006   5.167  0.5943  0.0732 -0.5046
  673MOL0     C90730   8.717   1.104   5.141  0.7680 -0.3562 -0.6634
  673MOL0     C90731   8.738   1.236   5.197  0.5828 -0.3520 -0.1470
  673MOL0     C90732   8.700   1.247   5.343  1.0646 -0.6240 -0.5983
  673MOL0     C90733   8.757   1.373   5.414  0.3391 -0.4449  0.4754
  673MOL0     C90734   8.669   1.501   5.396 -0.4778 -0.1532 -0.4481
  673MOL0     C90735   8.685   1.565   5.255 -0.1529  0.5383  0.6623
  673MOL0     C90736   8.587   1.695   5.239 -0.1501 -0.1062 -0.4498
  673MOL0     N90737   8.460   1.675   5.311  0.4887  0.0999 -0.1602
  673MOL0     C90738   8.438   1.704   5.445 -0.5006  0.6033 -0.3948
  673MOL0     C90739   8.331   1.625   5.480  0.9755  0.0303  1.2159
  673MOL0     C90740   8.284   1.610   5.624  0.7582  0.7256  0.1867
  673MOL0     C90741   8.131   1.614   5.617  0.3941  0.0228  0.2234
  673MOL0     C90742   8.081   1.762   5.592 -0.3348 -0.5192  0.5899
  673MOL0     C90743   7.951   1.785   5.671  0.8026  0.2597 -0.2156
  673MOL0     O90744   7.908   1.921   5.668  0.0034 -0.3715  0.2790
  673MOL0     C90745   7.809   1.956   5.579  0.0587 -0.1235  0.6005
  673MOL0     C90746   7.737   2.074   5.591 -0.5443 -0.5155 -0.6317
  673MOL0     C90747   7.635   2.113   5.497 -0.1878 -0.0693  0.1835
  673MOL0     C90748   7.607   2.031   5.385  0.6012  0.1793 -0.4880
  673MOL0     C90749   7.500   2.049   5.305 -0.2139 -0.4139 -0.0891
  673MOL0     O90750   7.433   2.174   5.327 -0.4564  0.4131  1.3008
  673MOL0     C90751   7.318   2.191   5.257  0.5213 -0.1511 -0.2265
  673MOL0     C90752   7.195   2.154   5.327 -0.7437  0.1829  0.0342
  673MOL0     C90753   7.074   2.175   5.267 -0.8364 -0.3282  0.5067
  673MOL0     C90754   7.066   2.226   5.143 -0.2281  0.3013 -1.0154
  673MOL0     O90755   6.934   2.244   5.093 -0.5971  0.4095 -0.1818
  673MOL0     C90756   6.914   2.338   4.982  0.0569 -0.7352  0.7465
  673MOL0     C90757   6.799   2.289   4.900  0.7409 -1.0588 -0.0113
  673MOL0     C90758   6.804   2.144   4.855 -0.2338  1.0080  1.0996
  673MOL0     C90759   6.928   2.129   4.754  0.2470 -0.7751  0.3636
  673MOL0     C90760   6.956   1.986   4.709  0.5723  0.3817  1.0052
  673MOL0     C90761   7.006   1.969   4.569 -0.1140  0.8487  0.3679
  673MOL0     C90762   6.909   2.033   4.457 -0.3832 -0.6349 -0.5506
  673MOL0     C90763   6.906   1.955   4.319 -0.1186 -0.1410  0.3915
  673MOL0    Cl90764   6.786   1.827   4.354  0.0654  0.1516 -0.2151
  673MOL0     C90765   7.184   2.261   5.069  0.2695  0.4750  0.3524
  673MOL0     C90766   7.313   2.251   5.129  0.4572 -0.2365 -0.5177
  673MOL0     O90767   7.451   1.962   5.234 -0.1567  0.6436 -0.3958
  673MOL0     C90768   7.688   1.918   5.372  0.4056  0.1919  0.0723
  673MOL0     C90769   7.778   1.881   5.464 -0.3653  0.1336  0.1497
  673MOL0     N90770   8.282   1.548   5.376 -0.1138  0.4816  0.5989
  673MOL0     N90771   8.360   1.594   5.276 -0.1113 -0.4213  0.5808
  673MOL0     C90772   9.099   0.871   5.159  0.6200 -1.1538 -0.1871
  673MOL0     C90773   9.221   0.814   5.145  0.3225 -0.4246 -0.2927
  673MOL0     C90774   9.657   0.801   5.005 -0.1768 -0.9674  0.1211
  673MOL0     C90775   9.658   0.759   4.871 -0.7259  0.2043 -0.1795
  673MOL0     C90776   9.786   0.744   4.809 -0.0579  0.2048 -0.1606
  673MOL0     C90777   9.906   0.736   4.873  0.0668 -0.3828 -0.1330
  673MOL0     O90778  10.014   0.719   4.799 -0.7895  0.0423  0.2631
  673MOL0     C90779  10.140   0.723   4.872  0.8910  0.0366 -1.0144
  673MOL0     C90780  10.249   0.674   4.772 -0.6867  0.7551  0.0818
  673MOL0     C90781  10.385   0.667   4.837 -0.3588 -0.2986 -0.2547
  673MOL0     C90782  10.487   0.622   4.733  0.2122  0.6223  0.0459
  673MOL0     C90783  10.502   0.724   4.622 -0.5167 -0.1496 -0.8536
  673MOL0     C90784  10.538   0.805   4.535  0.6174  0.3009 -0.2973
  673MOL0     C90785   9.903   0.770   5.010  0.0398  0.1268 -1.0729
  673MOL0     C90786   9.777   0.799   5.078  0.2842  0.2026  0.1702
  673MOL0     C90787   9.796   0.854   5.212 -0.6008  0.3955 -0.6641
  673MOL0     H90788   9.330   1.011   4.886 -1.5046 -1.6962 -1.4382
  673MOL0     H90789   9.095   1.092   4.887 -0.8418  0.7103  1.3462
  673MOL0     H90790   8.789   0.905   5.148 -0.7458  0.5923 -0.6724
  673MOL0     H90791   8.864   1.012   5.269 -1.7352 -1.4596  0.5214
  673MOL0     H90792   8.619   1.070   5.178 -0.1880 -0.0304 -2.7338
  673MOL0     H90793   8.691   1.110   5.034  2.7211  1.4965 -1.0781
  673MOL0     H90794   8.661   1.298   5.149  2.6378  0.3620 -2.7654
  673MOL0     H90795   8.826   1.286   5.153 -0.7993  0.1888 -2.5033
  673MOL0     H90796   8.591   1.253   5.353  1.2314  1.7110  0.2981
  673MOL0     H90797   8.738   1.158   5.395 -0.3388 -1.2444 -0.5853
  673MOL0     H90798   8.768   1.354   5.522  1.4332  0.8886  0.6143
  673MOL0     H90799   8.859   1.399   5.385  0.0511 -0.9088 -1.0280
  673MOL0     H90800   8.564   1.476   5.411 -0.4763 -0.2666 -0.6320
  673MOL0     H90801   8.706   1.570   5.473  1.1842 -2.6250  1.1032
  673MOL0     H90802   8.655   1.490   5.180 -1.2788 -0.1227  1.7304
  673MOL0     H90803   8.790   1.595   5.249 -0.4304  1.3339 -1.0081
  673MOL0     H90804   8.639   1.781   5.281 -0.7987 -0.5846  1.4472
  673MOL0     H90805   8.576   1.709   5.131  2.9987 -1.2782 -1.0272
  673MOL0     H90806   8.504   1.761   5.509 -0.2759 -1.8449  1.7180
  673MOL0     H90807   8.316   1.509   5.651  0.2998  0.9490  1.6662
  673MOL0     H90808   8.325   1.693   5.682 -0.9937  0.5967  1.7198
  673MOL0     H90809   8.091   1.534   5.554 -1.0692 -0.2957  1.5035
  673MOL0     H90810   8.098   1.577   5.714 -1.3587 -2.3475 -1.1726
  673MOL0     H90811   8.095   1.767   5.484  3.3921  1.6753  0.9784
  673MOL0     H90812   8.155   1.829   5.637  1.8639 -2.8304  0.6645
  673MOL0     H90813   7.970   1.757   5.775  3.6336 -0.3650 -0.8175
  673MOL0     H90814   7.881   1.709   5.637  1.1878 -0.6700  0.9903
  673MOL0     H90815   7.742   2.126   5.686 -0.7089  0.7780 -1.3180
  673MOL0     H90816   7.573   2.199   5.523 -1.6729 -0.5225 -1.6384
  673MOL0     H90817   7.190   2.101   5.422  2.1746  2.0620  1.3737
  673MOL0     H90818   6.980   2.145   5.312  0.6861 -2.5901  2.4001
  673MOL0     H90819   6.894   2.438   5.022  1.6937 -0.5380  1.1400
  673MOL0     H90820   6.997   2.343   4.911 -1.2341  1.1398 -0.7532
  673MOL0     H90821   6.714   2.301   4.968  1.9400  1.2469  1.2210
  673MOL0     H90822   6.782   2.354   4.814  0.4728  0.2252  0.9772
  673MOL0     H90823   6.815   2.069   4.934 -1.3134 -1.7917 -1.2234
  673MOL0     H90824   6.711   2.122   4.802 -2.3340 -0.9017  5.1024
  673MOL0     H90825   7.029   2.162   4.779  0.0617  0.0119  0.0903
  673MOL0     H90826   6.895   2.179   4.663  0.1353 -0.7095  0.4412
  673MOL0     H90827   6.872   1.917   4.727  2.2418 -1.6037  1.5830
  673MOL0     H90828   7.031   1.948   4.779 -1.2863  2.6017  4.5058
  673MOL0     H90829   7.106   2.010   4.556 -1.1112  2.4884 -4.4469
  673MOL0     H90830   7.009   1.860   4.558  0.1415  0.4676  3.4699
  673MOL0     H90831   6.960   2.130   4.450  0.6446 -0.9623  1.5536
  673MOL0     H90832   6.807   2.041   4.494 -1.0778 -0.4123 -2.3950
  673MOL0     H90833   6.873   2.021   4.238 -2.6172 -2.2750 -0.4445
  673MOL0     H90834   7.008   1.925   4.293 -0.0885  0.9350 -0.8466
  673MOL0     H90835   7.183   2.292   4.965  2.1681  4.1425  1.2511
  673MOL0     H90836   7.401   2.281   5.073  0.8299  0.9597  0.6392
  673MOL0     H90837   7.668   1.856   5.285 -0.9724 -0.2599  0.6832
  673MOL0     H90838   7.828   1.789   5.434  1.9445  1.4542 -0.2920
  673MOL0     H90839   9.042   0.831   5.242  1.2535  1.7155  1.7736
  673MOL0     H90840   9.261   0.739   5.213 -1.3587 -1.5630 -0.4814
  673MOL0     H90841   9.566   0.765   4.814 -0.7100  4.2738 -0.0351
  673MOL0     H90842   9.782   0.715   4.704  2.5422 -0.2958 -0.1723
  673MOL0     H90843  10.152   0.657   4.959  1.9614 -0.1500 -1.2857
  673MOL0     H90844  10.158   0.825   4.909  1.7594 -1.9116  5.1670
  673MOL0     H90845  10.254   0.753   4.697  2.3450  2.9209  2.3421
  673MOL0     H90846  10.218   0.577   4.731 -2.0654  1.2754 -0.1695
  673MOL0     H90847  10.381   0.592   4.917 -1.6442  1.9696  1.9473
  673MOL0     H90848  10.424   0.763   4.871  2.6323 -1.3837 -0.3502
  673MOL0     H90849  10.579   0.602   4.789 -1.3380 -1.2769  2.1388
  673MOL0     H90850  10.454   0.527   4.691 -1.7422  2.6579 -3.4853
  673MOL0     H90851  10.569   0.884   4.470  4.5592  0.2732  1.2988
  673MOL0     H90852   9.990   0.782   5.073  0.3820 -1.1231 -1.2922
  673MOL0     H90853   9.712   0.832   5.279  0.5685 -0.5187  0.5526
  673MOL0     H90854   9.881   0.814   5.269 -2.3163  1.5698  2.9726
  673MOL0     H90855   9.812   0.962   5.206  0.6694  0.2135 -0.8183
  674MOL0     O90856  10.563   1.456   9.436 -0.8268 -0.1368 -0.0251
  674MOL0     C90857  10.465   1.381   9.455 -0.6209 -0.2003 -0.2486
  674MOL0     O90858  10.428   1.282   9.371 -0.0701  0.0948  0.0245
  674MOL0     C90859  10.474   1.258   9.243  0.3088  0.7281 -0.6793
  674MOL0     C90860  10.485   1.355   9.140  0.1034 -0.0330  0.4107
  674MOL0     C90861  10.522   1.318   9.013 -0.3273 -0.3895  0.1670
  674MOL0     C90862  10.557   1.184   8.981  0.6088 -0.2340  0.6519
  674MOL0     O90863  10.590   1.148   8.849  0.1257  0.8223 -0.0355
  674MOL0     C90864  10.548   1.235   8.748  0.1272 -0.2518  0.3354
  674MOL0     C90865  10.507   1.123   8.648 -0.4198 -0.5063 -0.2614
  674MOL0     C90866  10.379   1.048   8.671 -0.6158  0.3372 -0.2459
  674MOL0     C90867  10.339   0.943   8.565 -0.1246 -0.3043  0.0372
  674MOL0     C90868  10.311   1.014   8.434 -1.0805  0.4076  0.0449
  674MOL0     C90869  10.163   1.008   8.406  0.1488 -0.1673  0.6879
  674MOL0     C90870  10.135   1.057   8.265  0.0547  0.5050 -0.5180
  674MOL0     C90871   9.986   1.080   8.237 -0.9472  0.6888  0.2520
  674MOL0     N90872   9.920   1.183   8.314 -0.5219 -0.2348 -0.5481
  674MOL0     C90873   9.969   1.308   8.336 -0.1258 -0.7874  0.0914
  674MOL0     C90874   9.861   1.378   8.386  0.3639  0.7223  0.1353
  674MOL0     C90875   9.857   1.526   8.414 -0.6915 -0.0504 -0.2234
  674MOL0     C90876   9.869   1.612   8.287  0.4406  0.2063 -0.0529
  674MOL0     C90877   9.751   1.593   8.193 -0.2166 -0.6826  0.3337
  674MOL0     C90878   9.776   1.501   8.078  0.9337 -0.2541 -0.2878
  674MOL0     O90879   9.904   1.531   8.013  1.0304  0.6500 -0.6408
  674MOL0     C90880   9.979   1.425   7.964  0.7634 -0.5144 -0.0666
  674MOL0     C90881   9.911   1.308   7.931  0.1128 -0.0209 -0.1293
  674MOL0     C90882   9.984   1.207   7.856 -0.6238  0.9915  0.2690
  674MOL0     C90883  10.112   1.227   7.805  0.8568 -0.0618 -0.1162
  674MOL0     C90884  10.179   1.134   7.714  0.4536  0.3690  0.1481
  674MOL0     O90885  10.118   1.024   7.681 -0.7244  0.5509  0.5976
  674MOL0     C90886  10.184   0.906   7.651  1.2895  0.1261 -0.0450
  674MOL0     C90887  10.310   0.867   7.688 -0.3533  0.2975 -0.1609
  674MOL0     C90888  10.373   0.746   7.682  0.0545 -0.3716 -1.2116
  674MOL0     C90889  10.308   0.636   7.628 -0.1693 -0.0593  0.1073
  674MOL0     O90890  10.351   0.507   7.604 -0.0744 -0.2634 -0.6925
  674MOL0     C90891  10.400   0.421   7.710  0.9866  0.9636  0.0950
  674MOL0     C90892  10.556   0.383   7.688  0.8239 -0.3743 -0.7422
  674MOL0     C90893  10.637   0.415   7.811 -0.1190  0.6730  0.5315
  674MOL0     C90894  10.774   0.446   7.787  0.1943 -0.5920  0.7291
  674MOL0     C90895  10.866   0.467   7.913  0.1319 -0.3262  0.1416
  674MOL0     C90896  10.822   0.549   8.036  0.0358 -0.9665  0.0482
  674MOL0     C90897  10.938   0.538   8.134  0.0388  0.0670  0.4706
  674MOL0     C90898  10.911   0.628   8.246 -1.2101  0.1540 -1.1506
  674MOL0    Cl90899  11.036   0.585   8.358  0.1122  0.3730 -0.0834
  674MOL0     C90900  10.182   0.677   7.569  0.8939 -0.8344 -0.6713
  674MOL0     C90901  10.119   0.806   7.586  0.2092  0.7213  0.2363
  674MOL0     O90902  10.287   1.170   7.669 -0.0578  0.6561  0.1374
  674MOL0     C90903  10.174   1.352   7.841  0.8583 -0.2615  0.1420
  674MOL0     C90904  10.122   1.443   7.929  0.0266  1.1551  1.0297
  674MOL0     N90905   9.764   1.277   8.411 -0.3466 -0.1847  0.6798
  674MOL0     N90906   9.799   1.165   8.370  0.2508  0.1409 -0.1615
  674MOL0     C90907  10.544   1.083   9.077 -1.6447 -0.1853 -0.0804
  674MOL0     C90908  10.502   1.121   9.210 -0.4063  0.1633 -1.0506
  674MOL0     C90909  10.366   1.422   9.563  0.2018  0.5524  0.0383
  674MOL0     C90910  10.252   1.331   9.570 -0.4162 -1.4049 -0.3751
  674MOL0     C90911  10.162   1.342   9.675 -0.4643  0.0730  0.0561
  674MOL0     C90912  10.169   1.444   9.768 -0.4057 -0.8872  0.4984
  674MOL0     O90913  10.080   1.439   9.871  0.7278 -0.1331 -0.0134
  674MOL0     C90914  10.077   1.553   9.952  0.8913 -0.4716 -0.8178
  674MOL0     C90915   9.963   1.547  10.058 -0.3434  0.1506 -0.4210
  674MOL0     C90916   9.827   1.503  10.003 -0.0335 -0.3964  0.6334
  674MOL0     C90917   9.713   1.498  10.101 -1.2270  0.8984 -1.7243
  674MOL0     C90918   9.602   1.446  10.023  0.5630  0.6582  0.2490
  674MOL0     C90919   9.518   1.406   9.946  0.5060  0.3236  0.0332
  674MOL0     C90920  10.265   1.547   9.752  0.4380  0.0121 -1.0233
  674MOL0     C90921  10.373   1.527   9.660 -0.4847  0.6459 -0.4235
  674MOL0     C90922  10.498   1.620   9.671 -0.4512 -0.0773 -0.4775
  674MOL0     H90923  10.454   1.454   9.173  2.1115  0.7481  0.0771
  674MOL0     H90924  10.510   1.403   8.946 -4.5109 -0.0040  1.1563
  674MOL0     H90925  10.463   1.301   8.768  0.1328  0.0878 -0.6903
  674MOL0     H90926  10.632   1.299   8.717  1.9619 -2.1761  1.1054
  674MOL0     H90927  10.597   1.061   8.643  0.8337  1.1574  0.9213
  674MOL0     H90928  10.512   1.165   8.547 -1.3009  0.3568  0.0419
  674MOL0     H90929  10.295   1.117   8.683  0.6225  2.4505 -2.6102
  674MOL0     H90930  10.397   0.996   8.765  1.6977 -1.1731 -1.4172
  674MOL0     H90931  10.414   0.864   8.564 -2.3078 -2.5426  1.0486
  674MOL0     H90932  10.242   0.906   8.601 -0.9681  2.2991  0.6240
  674MOL0     H90933  10.337   1.120   8.431 -2.8603  0.9715  1.9364
  674MOL0     H90934  10.377   0.964   8.364  0.9758  0.1828  2.0421
  674MOL0     H90935  10.131   0.904   8.415  1.4995 -0.7084 -0.4874
  674MOL0     H90936  10.117   1.072   8.482  0.0659 -1.7055  1.9818
  674MOL0     H90937  10.173   0.992   8.186 -0.1502  0.1090 -0.2922
  674MOL0     H90938  10.191   1.150   8.253  3.3264 -0.8502  2.4620
  674MOL0     H90939   9.995   1.108   8.132  2.1344 -0.6050  0.0569
  674MOL0     H90940   9.934   0.985   8.247 -0.3425  0.2760 -0.4027
  674MOL0     H90941  10.064   1.345   8.300 -1.1019  2.8194  0.8081
  674MOL0     H90942   9.772   1.557   8.476  1.3857  2.7017  1.5161
  674MOL0     H90943   9.947   1.554   8.470  0.2177  0.5737 -1.9033
  674MOL0     H90944   9.869   1.718   8.317  1.7549 -0.0789  1.0550
  674MOL0     H90945   9.969   1.595   8.246  1.6126 -2.1863  3.3006
  674MOL0     H90946   9.718   1.690   8.154  0.5273 -0.4633  0.2132
  674MOL0     H90947   9.665   1.551   8.245  0.1016 -0.2819  1.2173
  674MOL0     H90948   9.689   1.518   8.013  0.8944  0.7352 -0.0007
  674MOL0     H90949   9.778   1.400   8.120  0.9877  0.6130  1.9133
  674MOL0     H90950   9.807   1.289   7.956 -0.1799 -2.3593 -2.6893
  674MOL0     H90951   9.954   1.106   7.828  2.1629  0.4510 -1.1316
  674MOL0     H90952  10.371   0.949   7.722 -0.5160  0.4156 -0.1498
  674MOL0     H90953  10.470   0.739   7.729 -0.0898  0.9363 -0.6650
  674MOL0     H90954  10.376   0.461   7.809 -1.1641 -2.1149  0.9727
  674MOL0     H90955  10.346   0.327   7.696  0.3860  1.6897 -3.5138
  674MOL0     H90956  10.554   0.279   7.652  0.5092 -1.3871  1.9634
  674MOL0     H90957  10.588   0.444   7.603  2.0780 -3.0731 -2.3696
  674MOL0     H90958  10.598   0.504   7.862 -1.9803 -0.0938  0.5040
  674MOL0     H90959  10.623   0.338   7.887  1.1907  0.2694  0.3875
  674MOL0     H90960  10.788   0.525   7.713 -2.6034 -1.4556 -0.8486
  674MOL0     H90961  10.816   0.361   7.731  2.1510 -1.4930  3.3195
  674MOL0     H90962  10.958   0.515   7.878  0.2493 -0.0034  0.8758
  674MOL0     H90963  10.886   0.361   7.931  2.7204 -0.2948 -1.8795
  674MOL0     H90964  10.800   0.654   8.013 -1.0016 -1.3791 -0.9390
  674MOL0     H90965  10.732   0.508   8.082 -0.5636  1.4916  1.2372
  674MOL0     H90966  11.035   0.565   8.091 -0.3457 -0.9910 -1.1564
  674MOL0     H90967  10.949   0.439   8.180 -1.7300 -0.0728  0.6672
  674MOL0     H90968  10.926   0.732   8.218  1.7240 -0.1447 -1.0419
  674MOL0     H90969  10.812   0.609   8.288 -0.2506  0.0919  1.2406
  674MOL0     H90970  10.133   0.603   7.506 -0.9596 -1.7044  1.6298
  674MOL0     H90971  10.019   0.816   7.546  0.3190 -2.1351 -1.0295
  674MOL0     H90972  10.276   1.367   7.810  0.9325 -0.2382  0.3917
  674MOL0     H90973  10.182   1.531   7.946 -0.8171  1.5952  1.8385
  674MOL0     H90974  10.590   0.994   9.035 -0.6407  1.0247 -1.6775
  674MOL0     H90975  10.493   1.048   9.289 -3.6181  0.2243 -1.2495
  674MOL0     H90976  10.235   1.249   9.501  2.0351 -0.0384 -2.7794
  674MOL0     H90977  10.086   1.266   9.692  1.2186 -1.3441  1.6931
  674MOL0     H90978  10.047   1.642   9.897  2.4092  1.8691  1.8536
  674MOL0     H90979  10.173   1.574   9.999 -0.5177  1.5853  1.3691
  674MOL0     H90980   9.958   1.647  10.102 -0.7013  0.1028 -0.3536
  674MOL0     H90981   9.991   1.483  10.143 -0.4786  1.4729  0.6576
  674MOL0     H90982   9.847   1.410   9.950  2.9271  0.3295  0.3088
  674MOL0     H90983   9.800   1.578   9.928  0.5954 -0.5405  0.2576
  674MOL0     H90984   9.745   1.433  10.183 -2.5167 -2.1714 -3.5105
  674MOL0     H90985   9.684   1.594  10.146 -0.5095  2.3311 -4.1123
  674MOL0     H90986   9.444   1.375   9.876 -1.4013  3.7396  0.3092
  674MOL0     H90987  10.260   1.637   9.812  0.1924  1.1198 -2.6474
  674MOL0     H90988  10.483   1.702   9.742  2.6841  0.6516 -0.5132
  674MOL0     H90989  10.592   1.572   9.699 -0.5577 -0.1262 -0.2001
  674MOL0     H90990  10.515   1.672   9.576 -2.9516  3.9150  0.9843
  675MOL0     O90991  10.099   8.659   3.336  0.3918 -0.3541 -0.4322
  675MOL0     C90992  10.159   8.684   3.444  0.3465  0.2054  0.1069
  675MOL0     O90993  10.255   8.608   3.490 -0.6019  0.7530 -0.7591
  675MOL0     C90994  10.255   8.470   3.471  0.1308 -1.0217  0.1038
  675MOL0     C90995  10.354   8.406   3.399  0.3175  0.5577 -0.2780
  675MOL0     C90996  10.355   8.261   3.401  0.1050  0.0324 -0.0484
  675MOL0     C90997  10.261   8.188   3.464 -0.1799 -0.3383  0.2733
  675MOL0     O90998  10.269   8.051   3.447  0.0897  0.3922  0.1343
  675MOL0     C90999  10.159   7.966   3.493 -0.2173 -1.0654 -0.0083
  675MOL0     C91000  10.189   7.932   3.647  0.5982  0.2844 -0.2988
  675MOL0     C91001  10.085   7.831   3.691 -0.8085 -0.6099  0.0894
  675MOL0     C91002  10.075   7.827   3.844 -0.5195 -0.4488 -0.1485
  675MOL0     C91003  10.027   7.700   3.903 -0.3552 -0.0133  0.5449
  675MOL0     C91004  10.005   7.710   4.059  0.3783 -0.0425 -0.4904
  675MOL0     C91005   9.947   7.586   4.121 -0.2854  0.0715 -0.1103
  675MOL0     C91006   9.984   7.550   4.273 -0.7740 -0.0595 -0.2935
  675MOL0     N91007  10.056   7.425   4.265 -0.9103  0.1626  0.0620
  675MOL0     C91008  10.186   7.407   4.215  0.0543 -1.1846  0.3825
  675MOL0     C91009  10.216   7.273   4.223  0.6325 -0.1829  0.1020
  675MOL0     C91010  10.340   7.195   4.186 -0.3334 -0.1136 -0.5040
  675MOL0     C91011  10.436   7.168   4.310  0.0801 -0.1508  0.3894
  675MOL0     C91012  10.577   7.135   4.266 -0.7255 -0.2090 -0.5711
  675MOL0     C91013  10.672   7.116   4.384  0.0744  0.9247  0.0936
  675MOL0     O91014  10.741   7.244   4.414  0.4814 -0.0670  0.1397
  675MOL0     C91015  10.796   7.272   4.539 -0.4372  0.5994 -0.6946
  675MOL0     C91016  10.813   7.185   4.647  1.1622  1.6751  0.4637
  675MOL0     C91017  10.901   7.222   4.749  0.5067 -0.5170 -0.5496
  675MOL0     C91018  10.958   7.342   4.756  0.0331 -0.8857  0.5093
  675MOL0     C91019  11.014   7.403   4.881 -0.9851 -0.1901  0.7228
  675MOL0     O91020  11.007   7.335   4.995 -0.5451 -0.6743  0.1038
  675MOL0     C91021  11.068   7.396   5.102  0.6538  0.3258  0.1054
  675MOL0     C91022  10.989   7.485   5.181 -0.4787 -0.5531 -0.5195
  675MOL0     C91023  11.041   7.546   5.295  0.2267  0.1112 -0.3639
  675MOL0     C91024  11.173   7.541   5.330 -0.2696  0.1247 -0.2435
  675MOL0     O91025  11.241   7.609   5.432  0.6387  0.9148  0.5891
  675MOL0     C91026  11.171   7.704   5.516 -0.1746  0.4008  0.5810
  675MOL0     C91027  11.278   7.807   5.538 -0.1805  0.1717  0.0838
  675MOL0     C91028  11.252   7.915   5.636 -1.4526  0.3459 -0.8826
  675MOL0     C91029  11.133   7.996   5.578 -0.0299  0.9404 -0.5087
  675MOL0     C91030  11.120   8.117   5.671  0.3217 -0.4253 -0.2473
  675MOL0     C91031  10.992   8.193   5.638  0.7460  0.4536 -0.2087
  675MOL0     C91032  10.942   8.199   5.492 -0.0022 -0.4245  0.7776
  675MOL0     C91033  11.028   8.270   5.388 -0.5606 -0.2143 -0.4375
  675MOL0    Cl91034  11.077   8.164   5.259 -0.0136  0.0245 -0.0191
  675MOL0     C91035  11.258   7.468   5.244 -0.0317  1.3479 -0.4085
  675MOL0     C91036  11.208   7.392   5.133 -0.3665  0.4444 -0.4650
  675MOL0     O91037  11.068   7.510   4.877 -0.6701 -0.0322  0.8362
  675MOL0     C91038  10.929   7.434   4.651 -0.0639  0.3684 -0.3022
  675MOL0     C91039  10.854   7.388   4.540 -0.7888 -0.5591 -0.2471
  675MOL0     N91040  10.102   7.213   4.282  0.1774  0.0943 -0.0115
  675MOL0     N91041  10.010   7.304   4.311 -0.0355  0.4860  0.0002
  675MOL0     C91042  10.160   8.255   3.546  1.1973 -0.3490  0.5629
  675MOL0     C91043  10.159   8.395   3.541 -0.1445  0.0294  0.3440
  675MOL0     C91044  10.142   8.812   3.523  0.3005 -0.2460  0.0383
  675MOL0     C91045  10.198   8.821   3.643 -0.4269  0.2135  0.0515
  675MOL0     C91046  10.194   8.933   3.724 -0.3962 -0.7246  0.2290
  675MOL0     C91047  10.126   9.044   3.681 -0.6404  0.1122  0.2295
  675MOL0     O91048  10.110   9.157   3.751 -0.2553 -1.1630 -0.0434
  675MOL0     C91049  10.219   9.201   3.829 -0.2698 -0.8548 -0.1272
  675MOL0     C91050  10.180   9.338   3.883 -0.8001 -0.3255 -0.3610
  675MOL0     C91051  10.087   9.312   4.010 -0.3550 -0.4594  0.8650
  675MOL0     C91052  10.135   9.414   4.114 -0.2583  0.8085 -0.7120
  675MOL0     C91053  10.042   9.390   4.231 -0.4683  0.0798 -0.0900
  675MOL0     C91054   9.947   9.384   4.311  1.2786  0.0436 -0.0947
  675MOL0     C91055  10.050   9.037   3.564 -0.7105  0.5449  0.3142
  675MOL0     C91056  10.065   8.931   3.476  0.6526 -0.1822  0.0362
  675MOL0     C91057   9.999   8.943   3.341  0.2323 -0.5943  0.3740
  675MOL0     H91058  10.436   8.462   3.355 -1.8243  1.7465 -3.1293
  675MOL0     H91059  10.432   8.198   3.359  0.5907  1.4242 -1.3492
  675MOL0     H91060  10.063   8.019   3.489  0.1920 -0.4147 -2.7334
  675MOL0     H91061  10.156   7.875   3.433 -2.0480 -0.4504 -0.9115
  675MOL0     H91062  10.181   8.020   3.711 -0.5646  0.6722 -0.9427
  675MOL0     H91063  10.286   7.882   3.649  0.5947  0.2993  1.2827
  675MOL0     H91064  10.132   7.741   3.650  3.2231  0.3082  2.1846
  675MOL0     H91065   9.984   7.845   3.652 -0.5148 -0.8245 -0.7827
  675MOL0     H91066  10.180   7.817   3.872 -0.4752 -2.4518 -0.8950
  675MOL0     H91067  10.032   7.917   3.889  0.9371  0.0099  0.3973
  675MOL0     H91068   9.925   7.691   3.864  0.2657  0.0716 -1.1887
  675MOL0     H91069  10.102   7.627   3.870  0.4928  0.9987  0.1530
  675MOL0     H91070  10.103   7.726   4.105 -0.2028  2.0537  0.1036
  675MOL0     H91071   9.953   7.803   4.083  3.2035  2.0487 -1.9184
  675MOL0     H91072   9.972   7.510   4.046 -1.1561  0.7509 -1.1333
  675MOL0     H91073   9.837   7.593   4.120 -0.3187 -0.3487  0.2358
  675MOL0     H91074  10.037   7.630   4.326 -2.4599  0.3754  0.8170
  675MOL0     H91075   9.892   7.524   4.326 -0.1045 -2.6820 -0.2796
  675MOL0     H91076  10.254   7.487   4.185 -1.6374  0.0568 -0.3107
  675MOL0     H91077  10.306   7.099   4.146  1.4726 -1.0703  0.1661
  675MOL0     H91078  10.393   7.254   4.111 -1.2456  0.9138 -0.3710
  675MOL0     H91079  10.449   7.246   4.385  1.7401  1.8469 -1.8031
  675MOL0     H91080  10.380   7.085   4.353 -2.7187  2.2985  1.8503
  675MOL0     H91081  10.621   7.207   4.196 -1.3387 -1.9691 -2.9049
  675MOL0     H91082  10.562   7.048   4.201 -1.9586  0.2140 -0.8817
  675MOL0     H91083  10.743   7.035   4.368 -2.7178 -1.6616  0.0007
  675MOL0     H91084  10.610   7.080   4.467 -0.8710 -1.4130 -1.5071
  675MOL0     H91085  10.759   7.090   4.647  2.1706  0.8867  4.3842
  675MOL0     H91086  10.903   7.151   4.832 -0.6882 -1.0501 -0.9397
  675MOL0     H91087  10.884   7.498   5.160 -0.3106  0.8659 -0.5428
  675MOL0     H91088  10.973   7.594   5.365 -2.8305  0.3896 -3.2467
  675MOL0     H91089  11.080   7.746   5.471 -0.5813  1.8997  2.6740
  675MOL0     H91090  11.137   7.659   5.610  3.2471 -0.6093  1.4505
  675MOL0     H91091  11.370   7.757   5.569  0.1479  0.4216 -0.4744
  675MOL0     H91092  11.299   7.849   5.439 -1.2496 -1.9748 -1.1230
  675MOL0     H91093  11.225   7.856   5.724  1.7767  1.3748  0.9748
  675MOL0     H91094  11.337   7.977   5.666 -1.3786 -0.1424 -0.0428
  675MOL0     H91095  11.036   7.946   5.585 -0.5982  1.9169 -1.1095
  675MOL0     H91096  11.135   8.016   5.470  0.3106  0.0576 -0.6736
  675MOL0     H91097  11.199   8.190   5.650 -1.3912  1.3239 -0.8759
  675MOL0     H91098  11.121   8.083   5.775  0.7678  0.2155 -0.0422
  675MOL0     H91099  10.914   8.140   5.694  0.7472  1.2884  0.6195
  675MOL0     H91100  10.996   8.290   5.688  2.3358 -0.8510  2.4050
  675MOL0     H91101  10.848   8.255   5.496  1.4621  2.1245  1.5796
  675MOL0     H91102  10.919   8.099   5.454 -0.7183 -0.1305  0.4199
  675MOL0     H91103  10.964   8.346   5.343 -2.0920 -1.7860 -1.0192
  675MOL0     H91104  11.115   8.296   5.449 -2.2536 -3.4678  3.9259
  675MOL0     H91105  11.365   7.461   5.264 -0.2258  2.4873  1.1860
  675MOL0     H91106  11.272   7.331   5.070 -0.0051  1.1167 -0.7540
  675MOL0     H91107  10.967   7.536   4.651 -3.1274  1.7419  3.2752
  675MOL0     H91108  10.836   7.465   4.465 -3.2507 -1.6535 -0.8524
  675MOL0     H91109  10.089   8.203   3.610  2.9067 -1.0262  1.9888
  675MOL0     H91110  10.092   8.454   3.603 -0.1017 -1.6724  2.1023
  675MOL0     H91111  10.256   8.736   3.677 -2.1373 -0.6281  0.9822
  675MOL0     H91112  10.237   8.932   3.823 -2.7817 -1.1261  1.3452
  675MOL0     H91113  10.303   9.206   3.759 -2.4033 -0.6289 -2.8744
  675MOL0     H91114  10.233   9.120   3.901  1.7991 -0.1953  0.2759
  675MOL0     H91115  10.140   9.394   3.798  0.8668  0.5521 -0.5992
  675MOL0     H91116  10.275   9.383   3.911  0.2903 -1.9315 -1.2789
  675MOL0     H91117  10.085   9.209   4.046 -1.7316 -1.0894 -0.8516
  675MOL0     H91118   9.981   9.330   3.990 -1.3144  0.1865  5.3772
  675MOL0     H91119  10.242   9.407   4.132 -0.7638 -0.5308  2.2999
  675MOL0     H91120  10.129   9.521   4.092 -0.8564  1.2806  1.5342
  675MOL0     H91121   9.880   9.382   4.395  1.4004  0.5600  0.0178
  675MOL0     H91122   9.996   9.123   3.525 -2.2428 -1.6945 -3.0177
  675MOL0     H91123   9.931   9.028   3.334  0.1885 -0.3264  3.0474
  675MOL0     H91124  10.078   8.955   3.266 -0.5144  1.9683 -0.0706
  675MOL0     H91125   9.939   8.851   3.331 -3.7328  1.7999  0.0211
  676MOL0     O91126   5.707   3.232   3.986 -0.0825 -0.3090  0.7320
  676MOL0     C91127   5.642   3.177   3.899  0.1417 -0.1617 -1.0482
  676MOL0     O91128   5.676   3.177   3.768  0.5804  0.2758 -0.5733
  676MOL0     C91129   5.798   3.229   3.724  0.4637 -0.0953  0.7305
  676MOL0     C91130   5.920   3.167   3.760  1.5071 -0.0581 -0.6321
  676MOL0     C91131   6.043   3.229   3.723  0.1245  0.0416 -0.9685
  676MOL0     C91132   6.033   3.355   3.658  0.3299  0.7366  0.5174
  676MOL0     O91133   6.131   3.437   3.624  0.2111 -0.5761 -0.1109
  676MOL0     C91134   6.264   3.386   3.614 -0.2558  0.4475  0.2927
  676MOL0     C91135   6.350   3.494   3.545 -0.2361 -1.0289  0.3115
  676MOL0     C91136   6.504   3.473   3.571  0.7568 -0.1751 -0.1574
  676MOL0     C91137   6.588   3.594   3.556  0.3984 -0.1224 -1.5004
  676MOL0     C91138   6.569   3.656   3.422  0.2498 -0.0003 -1.0162
  676MOL0     C91139   6.671   3.769   3.410  0.7068  0.0332  0.0626
  676MOL0     C91140   6.637   3.866   3.285  0.2141  0.5554 -0.6348
  676MOL0     C91141   6.529   3.956   3.348 -0.0085 -1.0693 -0.2829
  676MOL0     N91142   6.523   4.071   3.255 -0.5944 -0.2850  0.4037
  676MOL0     C91143   6.442   4.075   3.144 -0.0962 -0.1224 -0.4564
  676MOL0     C91144   6.473   4.193   3.079 -0.7399  0.3343 -0.6741
  676MOL0     C91145   6.426   4.245   2.950 -0.5190  0.4310 -0.6520
  676MOL0     C91146   6.546   4.255   2.859 -0.3134 -0.1102 -0.7652
  676MOL0     C91147   6.533   4.373   2.755 -0.4489 -1.2060 -0.1894
  676MOL0     C91148   6.658   4.456   2.725  0.2255  0.6533  1.0317
  676MOL0     O91149   6.667   4.475   2.583  0.4689 -0.4979 -0.0006
  676MOL0     C91150   6.579   4.568   2.538  0.0975 -0.4321  0.2773
  676MOL0     C91151   6.552   4.705   2.598 -0.7802  0.9172 -0.2707
  676MOL0     C91152   6.451   4.789   2.545 -0.3092 -0.6293 -0.3111
  676MOL0     C91153   6.369   4.744   2.434 -0.9247 -0.1323  0.2563
  676MOL0     C91154   6.260   4.824   2.367 -0.7157 -0.5285 -1.2262
  676MOL0     O91155   6.249   4.946   2.420  0.8091  0.6525 -0.5358
  676MOL0     C91156   6.160   5.032   2.358 -0.5590  0.0121 -0.3624
  676MOL0     C91157   6.205   5.167   2.330 -0.1303 -0.1604 -0.3855
  676MOL0     C91158   6.126   5.245   2.242 -0.0785  0.9148 -0.1578
  676MOL0     C91159   6.008   5.201   2.176  0.2837  0.1362 -0.3525
  676MOL0     O91160   5.942   5.253   2.072 -0.3367 -0.5889 -0.1333
  676MOL0     C91161   5.991   5.385   2.017 -0.2813 -0.3552 -0.0367
  676MOL0     C91162   5.882   5.435   1.918 -0.0216  1.0470  0.6267
  676MOL0     C91163   5.864   5.355   1.791  0.5101 -0.2489  0.0532
  676MOL0     C91164   5.778   5.430   1.697  0.3643  0.3983  1.0893
  676MOL0     C91165   5.737   5.337   1.587 -0.2960 -0.0957  0.6361
  676MOL0     C91166   5.846   5.338   1.485 -0.3073  0.5559  0.5382
  676MOL0     C91167   5.820   5.236   1.371 -0.3676  0.3244 -0.7794
  676MOL0     C91168   5.719   5.276   1.261  0.8274 -0.3317  0.5993
  676MOL0    Cl91169   5.699   5.183   1.108 -0.0476  0.4698  0.4373
  676MOL0     C91170   5.959   5.074   2.223  0.1024 -0.4823  0.0158
  676MOL0     C91171   6.034   4.996   2.306  1.3059  0.6468 -0.7978
  676MOL0     O91172   6.195   4.782   2.271 -0.3021 -0.1097  0.6145
  676MOL0     C91173   6.404   4.622   2.374 -0.7718 -0.0842  0.2701
  676MOL0     C91174   6.495   4.536   2.432 -0.3757  0.2592 -0.4887
  676MOL0     N91175   6.582   4.243   3.146  0.0728 -0.5206  0.1528
  676MOL0     N91176   6.608   4.173   3.245 -1.2392  0.0916 -0.1756
  676MOL0     C91177   5.911   3.398   3.608 -0.4068 -0.1071  0.8215
  676MOL0     C91178   5.788   3.345   3.649 -0.4344 -0.2482  0.2397
  676MOL0     C91179   5.510   3.106   3.932 -0.1860  0.7344 -0.3714
  676MOL0     C91180   5.501   3.062   4.068  0.6455 -0.6755 -0.0342
  676MOL0     C91181   5.381   3.011   4.117  0.2598  0.1983  0.4545
  676MOL0     C91182   5.264   3.012   4.039  0.6199 -0.0382  0.4530
  676MOL0     O91183   5.150   2.968   4.106 -0.1990  0.5323 -0.0608
  676MOL0     C91184   5.023   2.951   4.042  0.5308  0.7426  0.0132
  676MOL0     C91185   4.926   2.914   4.143 -0.5297 -0.1930 -0.5071
  676MOL0     C91186   4.890   3.029   4.256 -0.9057  0.1157  0.8205
  676MOL0     C91187   4.777   2.960   4.348  0.4172 -0.4697  0.2182
  676MOL0     C91188   4.744   3.061   4.446  1.0534 -0.9244  0.2052
  676MOL0     C91189   4.705   3.160   4.511 -0.5050  0.1452 -0.5716
  676MOL0     C91190   5.275   3.049   3.908 -0.0623  0.5777  0.8505
  676MOL0     C91191   5.397   3.082   3.843 -0.7085  0.5554  0.5307
  676MOL0     C91192   5.400   3.080   3.694  1.1073  0.2054 -0.1210
  676MOL0     H91193   5.895   3.091   3.834 -1.9311  0.1010 -1.4697
  676MOL0     H91194   6.138   3.189   3.757  0.5850  1.1441 -0.9177
  676MOL0     H91195   6.323   3.357   3.701  0.7900  0.2757 -0.4453
  676MOL0     H91196   6.257   3.295   3.554  0.4625 -0.2313  1.2115
  676MOL0     H91197   6.306   3.587   3.582  1.5686  0.7681 -1.7896
  676MOL0     H91198   6.342   3.505   3.436  1.9719  1.6430  0.2845
  676MOL0     H91199   6.538   3.395   3.502  2.5903 -0.3853  0.8900
  676MOL0     H91200   6.514   3.436   3.674 -2.3210 -1.1173 -0.0980
  676MOL0     H91201   6.576   3.663   3.640  1.4415 -1.3316 -0.2924
  676MOL0     H91202   6.694   3.567   3.554  1.1308  1.9017  1.8175
  676MOL0     H91203   6.597   3.580   3.348 -0.4007  0.2297 -1.5037
  676MOL0     H91204   6.463   3.683   3.418  0.0006 -0.9432 -0.9298
  676MOL0     H91205   6.683   3.827   3.502  1.1791  2.0786 -1.2214
  676MOL0     H91206   6.773   3.732   3.395  0.5840 -1.0541  1.6906
  676MOL0     H91207   6.597   3.801   3.207  3.0414  1.0045 -2.6480
  676MOL0     H91208   6.733   3.906   3.250  1.6371 -0.3781  1.8875
  676MOL0     H91209   6.434   3.905   3.371  0.6872 -1.6322  1.5438
  676MOL0     H91210   6.576   3.990   3.441 -0.9910 -2.0910  0.6272
  676MOL0     H91211   6.373   3.999   3.108 -0.2577  0.1566 -0.7497
  676MOL0     H91212   6.342   4.188   2.910 -1.0491  0.2658  0.6252
  676MOL0     H91213   6.385   4.346   2.960  2.3368  1.6317  0.1359
  676MOL0     H91214   6.638   4.251   2.918 -0.7862 -0.8178 -0.0601
  676MOL0     H91215   6.549   4.162   2.802  0.1189 -0.3439 -0.3706
  676MOL0     H91216   6.447   4.436   2.778 -0.7441 -1.8834  0.5782
  676MOL0     H91217   6.503   4.335   2.657  1.6137 -1.4921 -0.7691
  676MOL0     H91218   6.745   4.398   2.756 -0.9501 -2.7533 -1.3858
  676MOL0     H91219   6.673   4.545   2.786  2.9399 -0.3331  1.9577
  676MOL0     H91220   6.609   4.756   2.675 -2.5850  3.3160 -0.4062
  676MOL0     H91221   6.437   4.891   2.579 -4.9718 -0.7699 -1.2486
  676MOL0     H91222   6.306   5.196   2.357 -0.1979 -0.2727 -0.0143
  676MOL0     H91223   6.167   5.337   2.202  1.0678 -0.0130 -1.1848
  676MOL0     H91224   6.017   5.452   2.099  1.8254 -0.1425 -0.8271
  676MOL0     H91225   6.083   5.363   1.962  1.8225  1.5568  2.4903
  676MOL0     H91226   5.787   5.432   1.971 -0.6336  1.5121 -0.3998
  676MOL0     H91227   5.931   5.531   1.897  1.4160  0.2970  0.4587
  676MOL0     H91228   5.960   5.330   1.745  0.9848 -0.0412  0.9095
  676MOL0     H91229   5.815   5.260   1.813 -0.6049  0.2136 -0.3969
  676MOL0     H91230   5.820   5.523   1.658  1.4828 -1.3419 -2.1814
  676MOL0     H91231   5.683   5.458   1.743  0.5205  1.1511  0.9755
  676MOL0     H91232   5.657   5.376   1.523  0.3909 -0.4886 -0.4822
  676MOL0     H91233   5.699   5.242   1.626  2.4825 -1.6217 -0.1300
  676MOL0     H91234   5.870   5.434   1.438  2.0676 -0.6717 -0.9769
  676MOL0     H91235   5.939   5.305   1.532  1.6295  2.9279 -1.3431
  676MOL0     H91236   5.783   5.140   1.407 -2.9963  1.8835  0.9803
  676MOL0     H91237   5.922   5.227   1.331  0.1298 -0.1822  0.5701
  676MOL0     H91238   5.622   5.273   1.311  0.4996 -1.0403 -0.0629
  676MOL0     H91239   5.747   5.377   1.228 -2.2268  0.0732 -1.1480
  676MOL0     H91240   5.868   5.026   2.187 -0.9327  1.4989 -0.1401
  676MOL0     H91241   6.009   4.892   2.326  4.2117 -0.3376 -1.7069
  676MOL0     H91242   6.350   4.572   2.294  1.0866  0.1477 -1.2003
  676MOL0     H91243   6.518   4.439   2.390  1.8075 -0.2041  1.5218
  676MOL0     H91244   5.908   3.492   3.554 -0.0559 -0.1550  0.7144
  676MOL0     H91245   5.699   3.405   3.631  1.0213  2.1827  0.7255
  676MOL0     H91246   5.580   3.087   4.139  1.5692 -0.2304 -1.1780
  676MOL0     H91247   5.384   2.970   4.217 -0.5556 -2.9394 -0.6939
  676MOL0     H91248   5.024   2.882   3.958  0.7918  4.8741 -3.7642
  676MOL0     H91249   5.000   3.051   4.004  4.0027  0.8985 -2.0766
  676MOL0     H91250   4.973   2.828   4.190  0.0208  2.1591  3.7494
  676MOL0     H91251   4.824   2.901   4.104 -1.7952  2.0788  1.6607
  676MOL0     H91252   4.856   3.118   4.203  0.3771  1.1856  1.7052
  676MOL0     H91253   4.984   3.047   4.309 -0.4041 -0.0050 -0.0092
  676MOL0     H91254   4.691   2.943   4.282  0.3456  1.1824 -0.1554
  676MOL0     H91255   4.807   2.867   4.397  1.9295  1.4363  3.1701
  676MOL0     H91256   4.673   3.236   4.579 -0.6756 -0.3970 -0.0350
  676MOL0     H91257   5.179   3.052   3.859 -0.4548 -1.8726  1.3400
  676MOL0     H91258   5.304   3.050   3.653 -0.6463  3.8640  0.8860
  676MOL0     H91259   5.417   3.181   3.654  4.2183 -0.3788 -0.5437
  676MOL0     H91260   5.483   3.017   3.661  0.8564  0.4521 -1.2524
  677MOL0     O91261   1.701   0.906   7.958 -0.2427 -0.2437 -0.6374
  677MOL0     C91262   1.810   0.921   7.910  0.5989 -1.0557 -0.1782
  677MOL0     O91263   1.898   1.031   7.932  0.3400  1.0009  0.2423
  677MOL0     C91264   1.913   1.102   8.045 -0.9672  0.6917  0.2111
  677MOL0     C91265   1.990   1.220   8.022 -0.2537  0.1542 -0.0461
  677MOL0     C91266   2.014   1.301   8.135 -0.0211  0.7964 -0.3409
  677MOL0     C91267   1.947   1.270   8.255  0.2050 -0.3650 -0.1035
  677MOL0     O91268   1.940   1.354   8.371  0.1595 -0.2743 -0.7754
  677MOL0     C91269   1.960   1.500   8.354  0.5433  0.6760  0.4317
  677MOL0     C91270   1.944   1.568   8.492 -0.0262  0.0534  0.0027
  677MOL0     C91271   1.927   1.720   8.483 -1.1903 -0.5439 -0.4699
  677MOL0     C91272   2.064   1.788   8.437 -1.0852  0.8207  0.1101
  677MOL0     C91273   2.047   1.937   8.427  0.3734 -0.7495 -0.0428
  677MOL0     C91274   2.177   2.011   8.377 -0.6855 -0.6078  0.3030
  677MOL0     C91275   2.165   2.161   8.387  1.4479 -0.3129  0.4244
  677MOL0     C91276   2.300   2.239   8.370 -0.1176  0.2693 -0.9662
  677MOL0     N91277   2.260   2.376   8.373  0.1750 -0.0700  0.3246
  677MOL0     C91278   2.269   2.452   8.256  0.2298  0.4801 -0.0376
  677MOL0     C91279   2.252   2.573   8.312 -0.0556  0.2839  0.8710
  677MOL0     C91280   2.248   2.713   8.240 -0.3692 -0.5226  0.0536
  677MOL0     C91281   2.359   2.807   8.292 -0.7905 -0.0735 -0.4064
  677MOL0     C91282   2.355   2.942   8.220 -0.4113 -0.8299 -0.5534
  677MOL0     C91283   2.483   3.021   8.247 -0.7250 -0.0094  0.3262
  677MOL0     O91284   2.594   2.943   8.196  0.3798 -0.5440 -0.3929
  677MOL0     C91285   2.695   2.990   8.116  0.3247  0.0177 -0.2664
  677MOL0     C91286   2.704   3.114   8.055  0.0650 -0.2668  0.3437
  677MOL0     C91287   2.831   3.151   7.999 -0.6900 -0.1768  0.1698
  677MOL0     C91288   2.940   3.063   7.998 -0.6701 -1.1299  0.2472
  677MOL0     C91289   3.075   3.112   7.946  0.0362 -0.2525 -0.4816
  677MOL0     O91290   3.079   3.223   7.874  0.0323  0.8123  0.1505
  677MOL0     C91291   3.201   3.267   7.824  0.2781 -1.2255  0.2051
  677MOL0     C91292   3.276   3.194   7.730  0.9380 -0.1217  0.2697
  677MOL0     C91293   3.398   3.225   7.690 -1.0482 -0.0038 -1.3512
  677MOL0     C91294   3.459   3.358   7.727  0.4296 -0.9266  0.0580
  677MOL0     O91295   3.580   3.398   7.689 -0.9752  0.6002  0.6176
  677MOL0     C91296   3.671   3.314   7.610  1.0307  0.3350  0.1961
  677MOL0     C91297   3.794   3.390   7.570 -0.3569  0.0158  0.2801
  677MOL0     C91298   3.914   3.295   7.541  1.1076  0.6228  0.2332
  677MOL0     C91299   4.041   3.375   7.516 -0.0149 -0.4950  0.3458
  677MOL0     C91300   4.172   3.317   7.586  0.9915  0.1662  0.1319
  677MOL0     C91301   4.296   3.396   7.539 -0.2486  0.5400  0.3771
  677MOL0     C91302   4.423   3.309   7.574 -0.4101  1.2518  0.4127
  677MOL0     C91303   4.464   3.210   7.466 -0.1080  0.2900 -0.1867
  677MOL0    Cl91304   4.514   3.274   7.311  0.2715 -0.1448  0.3811
  677MOL0     C91305   3.375   3.448   7.809 -1.0378 -0.0093 -0.5388
  677MOL0     C91306   3.248   3.399   7.860  0.0811 -0.3498 -0.2604
  677MOL0     O91307   3.170   3.045   7.977 -0.6297  0.4193  0.0041
  677MOL0     C91308   2.917   2.941   8.053 -0.5870  0.9640 -0.4019
  677MOL0     C91309   2.796   2.905   8.108  0.3355  0.2272 -1.0287
  677MOL0     N91310   2.258   2.571   8.451  0.0327  0.0880  0.1842
  677MOL0     N91311   2.265   2.450   8.487  0.7979 -0.5857  0.0520
  677MOL0     C91312   1.883   1.152   8.274  0.2320 -0.0375  0.1651
  677MOL0     C91313   1.870   1.057   8.175 -0.0903 -0.4973  0.0038
  677MOL0     C91314   1.841   0.829   7.793  0.1967  0.4270 -1.4143
  677MOL0     C91315   1.960   0.869   7.729  0.3509 -0.7536 -0.0358
  677MOL0     C91316   2.033   0.788   7.651 -0.2280 -0.2229 -0.5539
  677MOL0     C91317   1.992   0.662   7.631  0.0114  1.1766 -0.2611
  677MOL0     O91318   2.067   0.581   7.549  0.1580 -0.0454  0.0955
  677MOL0     C91319   2.050   0.437   7.548 -0.1541  0.6067 -0.5869
  677MOL0     C91320   1.947   0.403   7.443  0.1371  0.1916  0.2676
  677MOL0     C91321   1.911   0.263   7.445 -0.5922  0.5679  0.2472
  677MOL0     C91322   1.789   0.227   7.354  0.5360 -0.7181  0.7697
  677MOL0     C91323   1.751   0.089   7.363  0.2983  0.6631 -0.1653
  677MOL0     C91324   1.734  -0.024   7.374  0.4664  0.7967  0.0478
  677MOL0     C91325   1.866   0.624   7.685 -0.3661 -0.0790 -0.9064
  677MOL0     C91326   1.793   0.698   7.778 -0.0136 -0.3864  0.2602
  677MOL0     C91327   1.684   0.630   7.853  0.6322 -0.3119  0.0445
  677MOL0     H91328   2.024   1.235   7.920 -0.5363  0.5359 -0.0905
  677MOL0     H91329   2.082   1.386   8.136 -0.0338  0.8085  0.4794
  677MOL0     H91330   2.052   1.542   8.310 -0.3190  1.6013 -0.5721
  677MOL0     H91331   1.885   1.551   8.293  0.4393  0.0095 -0.0044
  677MOL0     H91332   2.031   1.549   8.555  0.2558  1.8215  0.1866
  677MOL0     H91333   1.848   1.535   8.533 -0.6279  0.4859 -1.0243
  677MOL0     H91334   1.891   1.762   8.577  2.0906 -2.5850  1.9071
  677MOL0     H91335   1.844   1.747   8.416 -1.5394 -1.7187 -0.5478
  677MOL0     H91336   2.138   1.766   8.514  1.2037  0.5110 -2.0313
  677MOL0     H91337   2.097   1.752   8.339 -1.7688 -0.2569  0.2637
  677MOL0     H91338   1.964   1.949   8.357 -1.3492 -2.3127  1.6458
  677MOL0     H91339   2.004   1.981   8.517  2.0388  1.6505 -0.3170
  677MOL0     H91340   2.265   1.984   8.437 -0.3622  0.7659  0.4756
  677MOL0     H91341   2.206   1.980   8.276  0.7210  2.7004 -0.4300
  677MOL0     H91342   2.117   2.192   8.481  1.0926 -0.0604  0.1618
  677MOL0     H91343   2.093   2.190   8.311 -3.7261  0.3692  4.9547
  677MOL0     H91344   2.370   2.217   8.452  2.4783  2.8356 -2.3211
  677MOL0     H91345   2.350   2.195   8.283  2.6247  0.3241  0.4503
  677MOL0     H91346   2.278   2.417   8.154  0.2190  0.2518  0.0393
  677MOL0     H91347   2.257   2.699   8.132  1.5626  2.1924 -0.2287
  677MOL0     H91348   2.159   2.772   8.262  1.1991  1.6876  0.8785
  677MOL0     H91349   2.342   2.827   8.398  2.4084 -1.5299  0.4987
  677MOL0     H91350   2.458   2.760   8.293 -1.2703 -1.1568 -1.6512
  677MOL0     H91351   2.277   3.007   8.260  2.7411  3.9289 -1.3415
  677MOL0     H91352   2.349   2.913   8.115  3.0285  2.2611 -1.7765
  677MOL0     H91353   2.508   3.041   8.351  0.4557  0.8244 -0.1003
  677MOL0     H91354   2.470   3.113   8.189 -2.7304 -0.5843 -0.2474
  677MOL0     H91355   2.617   3.176   8.039 -1.4748 -1.8697  2.1045
  677MOL0     H91356   2.836   3.247   7.948 -0.9652  1.1183  2.4160
  677MOL0     H91357   3.222   3.102   7.712 -1.7996  1.2344  0.8956
  677MOL0     H91358   3.452   3.150   7.633  3.9223  1.9645  0.1690
  677MOL0     H91359   3.691   3.222   7.665 -2.6832 -1.1479 -0.6849
  677MOL0     H91360   3.618   3.289   7.518 -1.1062 -0.2815  1.5259
  677MOL0     H91361   3.765   3.441   7.477 -3.3645  2.5629  2.3926
  677MOL0     H91362   3.821   3.473   7.636 -2.9022  2.7714 -1.8758
  677MOL0     H91363   3.930   3.237   7.632 -0.9872  2.7355  2.0882
  677MOL0     H91364   3.894   3.224   7.461  3.1702 -0.7740  0.8750
  677MOL0     H91365   4.026   3.475   7.557 -1.1678 -0.1866 -0.7653
  677MOL0     H91366   4.061   3.375   7.408 -1.1778  1.1664  0.0883
  677MOL0     H91367   4.191   3.212   7.559  0.3583  0.1075 -0.0973
  677MOL0     H91368   4.181   3.329   7.695  1.6780 -0.5344  0.1659
  677MOL0     H91369   4.292   3.414   7.431  0.6891 -1.0466  0.0528
  677MOL0     H91370   4.311   3.487   7.598  1.6621  0.2225  0.4437
  677MOL0     H91371   4.402   3.253   7.666 -3.7775  1.5546 -0.0282
  677MOL0     H91372   4.509   3.375   7.587 -0.9936  1.9820  0.6307
  677MOL0     H91373   4.548   3.155   7.509 -0.3789  0.3518  0.4316
  677MOL0     H91374   4.375   3.150   7.445  0.6766 -0.7936 -0.5451
  677MOL0     H91375   3.428   3.541   7.827  1.0673 -1.5115  1.7574
  677MOL0     H91376   3.180   3.454   7.925  2.4100 -1.4438  3.3983
  677MOL0     H91377   2.983   2.854   8.053 -0.9183  0.7030  0.9191
  677MOL0     H91378   2.773   2.804   8.140 -1.0042  0.2601 -1.7740
  677MOL0     H91379   1.853   1.131   8.376 -2.1836 -0.3706 -0.5600
  677MOL0     H91380   1.821   0.965   8.205  0.5125 -0.4041  1.3415
  677MOL0     H91381   2.019   0.959   7.739  0.5032 -0.7327 -1.0410
  677MOL0     H91382   2.113   0.828   7.590 -0.3254  2.0344  0.6784
  677MOL0     H91383   2.015   0.385   7.638 -1.8077 -1.4229 -2.3011
  677MOL0     H91384   2.146   0.390   7.527  0.7163  1.7912  0.5730
  677MOL0     H91385   1.995   0.426   7.348 -0.0701 -1.4587 -0.2780
  677MOL0     H91386   1.863   0.469   7.463  2.6211  3.2055  1.5242
  677MOL0     H91387   1.884   0.224   7.544  0.7169 -0.4181  0.2413
  677MOL0     H91388   1.995   0.196   7.422 -1.7674 -0.1396 -2.4305
  677MOL0     H91389   1.702   0.282   7.393  0.1484 -1.7691  1.4202
  677MOL0     H91390   1.815   0.264   7.255 -2.4076  0.1785  0.2213
  677MOL0     H91391   1.736  -0.129   7.396 -1.5072  1.2704  3.3214
  677MOL0     H91392   1.843   0.518   7.673  2.4176 -0.5360 -3.1572
  677MOL0     H91393   1.720   0.552   7.920 -0.7562 -1.2064 -0.1989
  677MOL0     H91394   1.615   0.702   7.898  2.1865 -0.3271  2.6012
  677MOL0     H91395   1.626   0.568   7.783  0.8183  0.5283 -0.8753
  678MOL0     O91396   3.311   7.652   4.554 -0.7116  0.4871 -0.5264
  678MOL0     C91397   3.307   7.668   4.432  0.3765  0.3552 -1.4510
  678MOL0     O91398   3.236   7.592   4.339 -0.0715 -1.1517 -0.3746
  678MOL0     C91399   3.196   7.470   4.377  0.1762  0.3870 -0.9406
  678MOL0     C91400   3.288   7.370   4.416 -0.3995  1.1286 -0.2540
  678MOL0     C91401   3.233   7.250   4.474  0.1792 -0.0650  0.6275
  678MOL0     C91402   3.089   7.217   4.476  0.7498  0.7705  0.0994
  678MOL0     O91403   3.025   7.109   4.538 -0.6451 -0.3243 -0.5451
  678MOL0     C91404   3.108   7.014   4.605 -0.3585 -0.4175 -0.6200
  678MOL0     C91405   3.161   7.066   4.741 -0.8346 -0.0722  0.1326
  678MOL0     C91406   3.235   6.961   4.825  0.3275 -0.3209 -0.5027
  678MOL0     C91407   3.291   7.019   4.949  0.0248 -0.1999 -0.1119
  678MOL0     C91408   3.339   6.917   5.052 -0.2305  0.5594  0.2251
  678MOL0     C91409   3.358   6.990   5.186 -0.3937  0.3580 -0.0845
  678MOL0     C91410   3.382   6.893   5.308 -0.0309  0.0514 -0.1197
  678MOL0     C91411   3.372   6.966   5.446  1.2241  0.2110 -0.2869
  678MOL0     N91412   3.411   6.892   5.572  0.0869  0.6352  0.8816
  678MOL0     C91413   3.330   6.805   5.637  1.5353 -0.2875 -0.1951
  678MOL0     C91414   3.401   6.712   5.692 -0.2129  0.6148  0.1536
  678MOL0     C91415   3.350   6.582   5.763  0.5521  0.7278  0.2163
  678MOL0     C91416   3.326   6.456   5.675  0.4622  0.2325 -0.2731
  678MOL0     C91417   3.321   6.324   5.748 -0.2860 -0.4488  0.1923
  678MOL0     C91418   3.196   6.302   5.833 -0.2338  0.3114  0.8840
  678MOL0     O91419   3.191   6.171   5.897  0.9527  0.1517  0.0298
  678MOL0     C91420   3.092   6.142   5.992  0.8980 -0.4460 -0.0575
  678MOL0     C91421   2.999   6.237   6.040  0.6970 -0.1023  0.2322
  678MOL0     C91422   2.894   6.200   6.127 -0.3602 -1.2382 -0.5603
  678MOL0     C91423   2.885   6.071   6.176  0.6995 -0.5327 -0.6501
  678MOL0     C91424   2.784   6.029   6.266  0.5040  0.6746  0.1661
  678MOL0     O91425   2.698   6.126   6.311  0.1110 -0.2814 -0.1374
  678MOL0     C91426   2.596   6.103   6.407  0.1904 -0.1582  0.9471
  678MOL0     C91427   2.617   6.053   6.528  0.1564  0.1391 -0.6363
  678MOL0     C91428   2.508   6.039   6.617  0.5227  0.8548 -0.5763
  678MOL0     C91429   2.380   6.092   6.578 -0.3864  0.5624 -0.1912
  678MOL0     O91430   2.270   6.108   6.653  0.1612  0.2062  0.4678
  678MOL0     C91431   2.271   6.068   6.784  0.2626 -0.2943 -0.4281
  678MOL0     C91432   2.354   6.181   6.864 -0.0023  0.3999  0.2192
  678MOL0     C91433   2.382   6.138   7.010  0.0983  0.6693  0.4464
  678MOL0     C91434   2.318   6.229   7.114  1.3499 -0.7298  0.4068
  678MOL0     C91435   2.356   6.185   7.253 -0.4078 -0.8756  0.3182
  678MOL0     C91436   2.329   6.041   7.299  0.4951  0.0580  0.5363
  678MOL0     C91437   2.179   6.036   7.320 -0.9649 -0.5838 -0.6248
  678MOL0     C91438   2.159   5.893   7.379  0.3648  0.8821  0.4141
  678MOL0    Cl91439   2.205   5.764   7.255 -0.5865 -0.2611  0.3230
  678MOL0     C91440   2.365   6.158   6.452  0.3754 -0.4247 -0.3930
  678MOL0     C91441   2.475   6.167   6.366  0.0804  0.2898  0.1770
  678MOL0     O91442   2.778   5.911   6.296 -0.9139 -0.3259  0.4337
  678MOL0     C91443   2.988   5.984   6.131  0.0046 -0.0024 -0.8688
  678MOL0     C91444   3.090   6.009   6.040 -0.1158 -0.2721  0.5107
  678MOL0     N91445   3.533   6.740   5.668  0.1560  0.6440  0.5801
  678MOL0     N91446   3.541   6.852   5.606 -0.4324 -0.1981  1.4182
  678MOL0     C91447   3.006   7.314   4.425  0.3919 -0.0667  0.4899
  678MOL0     C91448   3.057   7.433   4.380 -0.1656  0.4866  0.6460
  678MOL0     C91449   3.354   7.794   4.368 -0.4649  0.3703 -0.4259
  678MOL0     C91450   3.328   7.812   4.231  0.2087  1.0997  0.8894
  678MOL0     C91451   3.353   7.927   4.153  0.3923  0.1465  0.4446
  678MOL0     C91452   3.414   8.030   4.215  0.7790 -0.7533  0.5873
  678MOL0     O91453   3.454   8.146   4.144  0.2150 -0.0529  0.6448
  678MOL0     C91454   3.556   8.239   4.193 -0.2874 -0.6287 -0.0043
  678MOL0     C91455   3.579   8.341   4.090 -0.9307  0.2712  0.5605
  678MOL0     C91456   3.661   8.295   3.967  0.2506  0.1624 -0.9919
  678MOL0     C91457   3.810   8.245   3.994 -0.4125  0.1770  0.2551
  678MOL0     C91458   3.863   8.163   3.880  0.0010  0.6542  0.6207
  678MOL0     C91459   3.911   8.109   3.781 -0.2456 -0.6737 -0.6871
  678MOL0     C91460   3.463   8.018   4.346  0.2787 -0.8877  0.0382
  678MOL0     C91461   3.432   7.900   4.423 -0.0617  0.2998  0.4146
  678MOL0     C91462   3.492   7.896   4.560  0.5873 -0.5259  0.0500
  678MOL0     H91463   3.394   7.382   4.398 -0.3187 -0.4603 -0.9841
  678MOL0     H91464   3.303   7.180   4.519  1.5372  1.6885  1.3886
  678MOL0     H91465   3.050   6.924   4.625  0.1418 -0.7387 -0.6047
  678MOL0     H91466   3.184   6.967   4.542  0.4016  1.3386 -1.0870
  678MOL0     H91467   3.086   7.120   4.798 -0.9269  3.1127 -2.6534
  678MOL0     H91468   3.238   7.138   4.709  0.4539 -0.2253  2.6378
  678MOL0     H91469   3.312   6.906   4.768  1.7600 -1.8989  2.7019
  678MOL0     H91470   3.154   6.891   4.846  1.7453 -2.4654 -1.6923
  678MOL0     H91471   3.378   7.085   4.938 -1.8268  2.5551  0.7061
  678MOL0     H91472   3.211   7.081   4.989 -1.1149 -0.3155 -2.0871
  678MOL0     H91473   3.267   6.836   5.066 -1.2628  1.6047  1.1616
  678MOL0     H91474   3.435   6.871   5.026 -0.2613  1.0956 -0.9010
  678MOL0     H91475   3.449   7.050   5.177  1.4922 -2.4258 -0.6088
  678MOL0     H91476   3.272   7.048   5.220 -1.5811 -1.6104  0.4012
  678MOL0     H91477   3.479   6.843   5.306  1.0207  2.0017 -0.2125
  678MOL0     H91478   3.298   6.824   5.302 -1.7021  1.8413  1.3925
  678MOL0     H91479   3.432   7.058   5.442  0.9511  0.3286 -3.0691
  678MOL0     H91480   3.266   6.993   5.452  0.8153 -1.5782  2.3279
  678MOL0     H91481   3.223   6.807   5.616  1.5164 -0.4471 -0.1183
  678MOL0     H91482   3.425   6.553   5.837  0.9107  1.6988  0.2435
  678MOL0     H91483   3.267   6.601   5.830  1.1567 -0.7351  1.4513
  678MOL0     H91484   3.236   6.464   5.615 -0.2957 -1.2599  0.5962
  678MOL0     H91485   3.415   6.447   5.611 -0.0170 -1.1117 -0.7849
  678MOL0     H91486   3.398   6.309   5.824 -0.9350 -1.1609  0.7313
  678MOL0     H91487   3.318   6.249   5.668 -1.3612  0.9925 -1.1756
  678MOL0     H91488   3.113   6.322   5.765  0.9001  1.5773 -0.1845
  678MOL0     H91489   3.209   6.373   5.915  3.0882  0.8149  0.0873
  678MOL0     H91490   2.989   6.339   6.003 -0.7961 -1.1730 -2.5973
  678MOL0     H91491   2.818   6.274   6.150 -0.6299 -1.5057 -0.5730
  678MOL0     H91492   2.717   6.023   6.558  0.1681 -0.6550 -1.4074
  678MOL0     H91493   2.517   5.998   6.717  3.1779  3.8856  0.5840
  678MOL0     H91494   2.172   6.053   6.830 -0.2876 -0.5153 -1.6490
  678MOL0     H91495   2.321   5.972   6.791 -0.1577 -0.7409 -2.8557
  678MOL0     H91496   2.453   6.206   6.824 -0.4058  4.9036  1.5569
  678MOL0     H91497   2.290   6.269   6.864  0.2564  0.7333 -3.5686
  678MOL0     H91498   2.356   6.033   7.025 -1.3635  0.7198 -1.4060
  678MOL0     H91499   2.490   6.155   7.020  0.3487  0.7313 -1.8515
  678MOL0     H91500   2.209   6.220   7.107  1.1536 -0.4969  2.4359
  678MOL0     H91501   2.336   6.334   7.091 -2.9412  0.0235 -0.4616
  678MOL0     H91502   2.309   6.251   7.327  1.9176  0.2929  0.8462
  678MOL0     H91503   2.464   6.192   7.268 -0.6644  0.5588  1.8100
  678MOL0     H91504   2.361   5.976   7.217 -0.1809  0.8906 -0.4167
  678MOL0     H91505   2.392   6.001   7.379  3.0927  1.2603 -0.7829
  678MOL0     H91506   2.113   6.054   7.235 -5.2140  1.8110  2.7387
  678MOL0     H91507   2.155   6.104   7.402 -1.8707  1.0608 -2.1806
  678MOL0     H91508   2.203   5.871   7.476  1.4198 -0.8802 -0.4063
  678MOL0     H91509   2.052   5.884   7.400  0.6283  0.8022  1.7985
  678MOL0     H91510   2.283   6.219   6.417 -0.3285 -0.3442  1.2846
  678MOL0     H91511   2.461   6.207   6.267  0.7939 -2.8383 -1.3223
  678MOL0     H91512   2.995   5.880   6.161  2.4052  0.2418 -0.4361
  678MOL0     H91513   3.172   5.944   6.010  3.9600  4.7504 -0.7517
  678MOL0     H91514   2.901   7.290   4.412  0.0145  2.7099 -2.9294
  678MOL0     H91515   2.989   7.509   4.341 -2.0165 -1.8997 -1.1415
  678MOL0     H91516   3.296   7.732   4.165  0.9075  0.7230  0.9913
  678MOL0     H91517   3.332   7.943   4.048  2.1561  2.1151  0.3341
  678MOL0     H91518   3.647   8.199   4.238 -1.1389 -0.0957  2.3087
  678MOL0     H91519   3.513   8.290   4.279  0.6953  1.7853 -0.8468
  678MOL0     H91520   3.651   8.418   4.122  0.3397  0.2932 -2.0608
  678MOL0     H91521   3.481   8.384   4.066  0.7821  1.7384 -6.1364
  678MOL0     H91522   3.666   8.373   3.891 -0.8718  3.4701  2.0668
  678MOL0     H91523   3.602   8.224   3.907  1.1193  0.5373 -2.3337
  678MOL0     H91524   3.867   8.338   4.001 -2.2469  1.6052 -2.0908
  678MOL0     H91525   3.808   8.185   4.085 -1.0991  1.8989  1.4133
  678MOL0     H91526   3.966   8.064   3.701  1.4799 -0.1602  0.1612
  678MOL0     H91527   3.515   8.101   4.393  0.2295 -1.5486  1.3028
  678MOL0     H91528   3.572   7.821   4.559  0.1190 -1.0453 -1.6694
  678MOL0     H91529   3.551   7.986   4.577  0.8981 -0.5261 -0.9698
  678MOL0     H91530   3.427   7.871   4.645  1.5855  2.8386  2.0114
  679MOL0     O91531  10.431   3.728  10.675  0.2351  0.2231  0.4532
  679MOL0     C91532  10.491   3.709  10.567 -0.4981  0.0353  0.0743
  679MOL0     O91533  10.600   3.632  10.556 -0.5752  0.2327  0.9315
  679MOL0     C91534  10.655   3.553  10.655  0.9622 -0.3796  0.1759
  679MOL0     C91535  10.798   3.534  10.653  0.1342 -1.2197 -0.3340
  679MOL0     C91536  10.855   3.440  10.750  0.7034 -0.4471 -0.1215
  679MOL0     C91537  10.775   3.371  10.845 -0.4029  0.5316 -1.1104
  679MOL0     O91538  10.841   3.281  10.941  0.4614  0.2534  0.4205
  679MOL0     C91539  10.947   3.345  11.019 -0.3452  0.2374  0.5356
  679MOL0     C91540  10.982   3.244  11.135 -0.6891 -0.0344 -0.2947
  679MOL0     C91541  11.059   3.299  11.259  0.9142  0.0378 -0.8063
  679MOL0     C91542  11.033   3.214  11.384 -0.2238  0.4187  0.2655
  679MOL0     C91543  11.080   3.301  11.510  0.1426  0.4647  0.3966
  679MOL0     C91544  11.213   3.379  11.499 -1.3112  0.0925  0.1794
  679MOL0     C91545  11.339   3.288  11.500 -0.8037 -0.1353 -0.4024
  679MOL0     C91546  11.459   3.374  11.514  0.1386 -0.6630 -0.3142
  679MOL0     N91547  11.583   3.297  11.531 -0.0217  0.0004  0.0937
  679MOL0     C91548  11.709   3.348  11.506  0.4003 -0.0807  0.6612
  679MOL0     C91549  11.791   3.242  11.530 -0.1334  0.3888  1.0678
  679MOL0     C91550  11.945   3.252  11.524 -0.1544  0.3748 -0.9718
  679MOL0     C91551  12.005   3.363  11.440 -0.6205  0.5897 -0.1146
  679MOL0     C91552  11.976   3.322  11.297  0.7952 -0.3018  0.4651
  679MOL0     C91553  12.092   3.360  11.208 -1.2431  0.5029  0.3018
  679MOL0     O91554  12.071   3.340  11.064 -0.3152  0.4071  0.1542
  679MOL0     C91555  12.098   3.209  11.020 -0.2193 -1.1233 -0.0917
  679MOL0     C91556  12.115   3.093  11.097 -0.2832 -0.1436  0.7342
  679MOL0     C91557  12.176   2.979  11.043 -0.1714 -0.8755  0.6025
  679MOL0     C91558  12.206   2.973  10.912 -0.3557 -1.0482  0.5452
  679MOL0     C91559  12.269   2.843  10.862 -0.6175 -0.4071  0.6843
  679MOL0     O91560  12.287   2.825  10.726  0.0973 -0.0560 -0.5114
  679MOL0     C91561  12.331   2.720  10.661  0.4711  0.9048  0.5580
  679MOL0     C91562  12.291   2.709  10.530  0.9979  0.1136  0.1298
  679MOL0     C91563  12.339   2.607  10.442 -0.1757  0.0122 -0.7342
  679MOL0     C91564  12.407   2.499  10.499 -0.2202  0.9175 -0.2630
  679MOL0     O91565  12.442   2.394  10.418 -0.5132 -0.0291  0.5189
  679MOL0     C91566  12.547   2.430  10.329  0.2008 -1.3375  0.0082
  679MOL0     C91567  12.683   2.367  10.374 -0.3956  0.0802  0.3836
  679MOL0     C91568  12.691   2.214  10.327 -0.1473  0.5606 -0.2371
  679MOL0     C91569  12.723   2.132  10.455 -0.5343  0.1723 -0.4222
  679MOL0     C91570  12.858   2.070  10.430  0.1878  0.4214 -0.8569
  679MOL0     C91571  12.910   2.005  10.559  0.7333  0.3347 -0.2963
  679MOL0     C91572  13.006   1.892  10.522 -0.3926  0.1147 -0.0911
  679MOL0     C91573  13.039   1.814  10.647 -0.3581  0.2778 -0.1131
  679MOL0    Cl91574  13.159   1.909  10.747 -0.1743 -0.2066 -0.2328
  679MOL0     C91575  12.459   2.507  10.630  0.2111  1.1675  0.3726
  679MOL0     C91576  12.415   2.620  10.710  0.1014  0.8361 -0.4442
  679MOL0     O91577  12.301   2.756  10.942 -0.2368  0.9152  0.1788
  679MOL0     C91578  12.186   3.088  10.831  0.0229  0.6987  0.2703
  679MOL0     C91579  12.132   3.201  10.882  0.4237  0.1253 -0.6457
  679MOL0     N91580  11.716   3.121  11.563  0.1798 -0.4540  0.2546
  679MOL0     N91581  11.595   3.164  11.551  0.4652 -0.0658  0.0787
  679MOL0     C91582  10.639   3.401  10.847  0.4441 -0.6639 -0.3559
  679MOL0     C91583  10.580   3.493  10.753 -0.0879  1.0856 -0.2171
  679MOL0     C91584  10.446   3.791  10.447 -0.2591  0.2182 -0.2003
  679MOL0     C91585  10.535   3.865  10.369  0.5483  1.1194 -0.4311
  679MOL0     C91586  10.484   3.945  10.269 -0.1500  0.2816  0.9924
  679MOL0     C91587  10.347   3.947  10.234 -0.5084  0.0431 -1.0763
  679MOL0     O91588  10.317   4.039  10.139 -0.0497  0.0135  0.4097
  679MOL0     C91589  10.196   4.121  10.144  0.3299 -0.1368  0.0200
  679MOL0     C91590  10.097   4.066  10.043  0.0624 -0.3339  0.0489
  679MOL0     C91591   9.973   4.160  10.005  0.5298  0.3068 -0.1016
  679MOL0     C91592   9.873   4.094   9.913  0.1450  0.1474 -0.8389
  679MOL0     C91593   9.878   4.117   9.768  0.1874  0.4329  0.1407
  679MOL0     C91594   9.884   4.140   9.652  0.2250  0.7687  0.0502
  679MOL0     C91595  10.255   3.859  10.302 -0.8339 -0.2489 -0.2542
  679MOL0     C91596  10.304   3.793  10.420  0.7701  0.6551  0.4408
  679MOL0     C91597  10.194   3.710  10.490 -0.5803 -0.1113  0.3353
  679MOL0     H91598  10.865   3.569  10.575  1.4186 -4.6825 -0.9471
  679MOL0     H91599  10.963   3.431  10.749  0.5420 -3.1161 -0.6530
  679MOL0     H91600  11.035   3.354  10.955 -2.9541 -1.4731 -3.7270
  679MOL0     H91601  10.912   3.447  11.040  0.7300  1.0065 -1.2508
  679MOL0     H91602  11.040   3.170  11.080 -1.0360  0.4209 -1.3058
  679MOL0     H91603  10.885   3.201  11.160 -0.3773 -1.7055 -1.7510
  679MOL0     H91604  11.028   3.401  11.281 -1.6614 -0.0938 -3.2556
  679MOL0     H91605  11.167   3.297  11.240  1.4379 -0.1320  1.8052
  679MOL0     H91606  10.933   3.178  11.408 -0.2485  1.1836  1.4289
  679MOL0     H91607  11.091   3.121  11.387 -1.8634 -0.7104  4.1737
  679MOL0     H91608  10.997   3.369  11.533 -0.3290  0.6148 -1.5832
  679MOL0     H91609  11.090   3.241  11.601 -2.1238  1.3830  1.3323
  679MOL0     H91610  11.221   3.436  11.406  0.1517 -4.0035 -2.5237
  679MOL0     H91611  11.230   3.441  11.587  2.1286 -2.9135  1.9305
  679MOL0     H91612  11.348   3.230  11.408  0.8595  2.4007 -1.9624
  679MOL0     H91613  11.330   3.216  11.582  1.4648 -2.0347 -1.7050
  679MOL0     H91614  11.461   3.430  11.420 -1.6724  0.9365  0.5105
  679MOL0     H91615  11.449   3.444  11.598  2.3112 -1.0109  0.2999
  679MOL0     H91616  11.733   3.450  11.477 -0.8819  0.5694  1.7953
  679MOL0     H91617  11.976   3.263  11.629 -1.4481  3.0081 -0.7894
  679MOL0     H91618  11.975   3.152  11.490  1.7167  0.0796  1.2567
  679MOL0     H91619  11.966   3.461  11.468  0.8358  1.5760 -1.3771
  679MOL0     H91620  12.112   3.356  11.457 -0.4634 -0.2839 -1.2818
  679MOL0     H91621  11.882   3.373  11.277  2.1957  2.1731 -0.1855
  679MOL0     H91622  11.942   3.218  11.287  2.8877 -0.8783 -1.7417
  679MOL0     H91623  12.179   3.308  11.249 -0.2593  0.9226 -1.1879
  679MOL0     H91624  12.107   3.467  11.221 -0.3840  0.8531 -2.8897
  679MOL0     H91625  12.094   3.084  11.204  2.8722 -3.5631  1.2619
  679MOL0     H91626  12.194   2.897  11.112  3.3129  1.2108  2.4470
  679MOL0     H91627  12.233   2.789  10.486 -0.0708 -0.8313 -0.2265
  679MOL0     H91628  12.305   2.607  10.339 -0.3737  1.4113 -0.6945
  679MOL0     H91629  12.521   2.388  10.231  1.0867 -1.5057 -0.1638
  679MOL0     H91630  12.560   2.538  10.317  1.5315 -1.2757  1.6978
  679MOL0     H91631  12.756   2.422  10.314 -3.7789  3.0280 -1.4046
  679MOL0     H91632  12.696   2.381  10.482 -1.8185 -0.9409  0.7162
  679MOL0     H91633  12.594   2.198  10.279 -0.8929 -0.5846  1.5529
  679MOL0     H91634  12.765   2.192  10.248 -1.7071 -0.1581 -1.5572
  679MOL0     H91635  12.647   2.053  10.448  3.0699 -3.4975 -3.4064
  679MOL0     H91636  12.730   2.194  10.544 -0.5273  1.2725 -1.1782
  679MOL0     H91637  12.928   2.148  10.399 -0.6724  0.0337 -4.1212
  679MOL0     H91638  12.843   1.995  10.353 -1.6126  1.1363 -1.2749
  679MOL0     H91639  12.964   2.077  10.621  2.6057 -3.1351  2.5680
  679MOL0     H91640  12.834   1.957  10.622  4.3276 -1.9541  2.7584
  679MOL0     H91641  13.085   1.948  10.471  0.2596 -1.1997 -0.5577
  679MOL0     H91642  12.969   1.810  10.460  4.2381 -1.1226 -1.6304
  679MOL0     H91643  12.954   1.789  10.711  1.2384  0.1166  2.0573
  679MOL0     H91644  13.094   1.721  10.630 -1.4891 -0.3574 -0.3991
  679MOL0     H91645  12.514   2.423  10.669  0.2372  0.7121 -0.6056
  679MOL0     H91646  12.440   2.624  10.816 -0.2661 -2.5512 -0.1175
  679MOL0     H91647  12.217   3.081  10.727  0.9124 -0.6751  0.5988
  679MOL0     H91648  12.124   3.289  10.820  1.5578  1.4247  0.9753
  679MOL0     H91649  10.576   3.360  10.925 -3.7233  2.5195 -1.6608
  679MOL0     H91650  10.476   3.520  10.765 -0.7958 -1.3352 -0.3884
  679MOL0     H91651  10.637   3.876  10.405 -0.0194  1.6904  1.0924
  679MOL0     H91652  10.546   4.022  10.224  0.4410 -1.2879 -1.0289
  679MOL0     H91653  10.216   4.228  10.127 -2.8317  0.9859  2.4028
  679MOL0     H91654  10.162   4.119  10.248 -0.8481  2.5935 -0.2259
  679MOL0     H91655  10.049   3.972  10.072 -1.7091  0.3107 -0.6853
  679MOL0     H91656  10.155   4.058   9.951 -1.6971  0.9827 -1.2279
  679MOL0     H91657   9.999   4.251   9.950 -1.4652  0.8569 -0.1922
  679MOL0     H91658   9.912   4.188  10.091  0.7848 -1.3162  0.6422
  679MOL0     H91659   9.878   3.987   9.930  2.3197 -0.0125 -2.1387
  679MOL0     H91660   9.776   4.131   9.947 -1.1888  0.5862 -4.5771
  679MOL0     H91661   9.909   4.159   9.549  2.5461 -0.4260  0.3414
  679MOL0     H91662  10.151   3.857  10.269 -0.1805  0.4304 -2.6020
  679MOL0     H91663  10.098   3.709  10.438 -0.5808  2.8788  0.0842
  679MOL0     H91664  10.220   3.605  10.503 -0.7472 -0.2199 -0.2050
  679MOL0     H91665  10.171   3.741  10.593 -2.8359 -0.2897 -0.0521
  680MOL0     O91666   1.855   3.511  10.519  0.7122 -0.4473 -0.5364
  680MOL0     C91667   1.786   3.583  10.458 -0.2326 -0.3242 -0.5792
  680MOL0     O91668   1.738   3.693  10.500 -0.2583 -0.2532  0.1449
  680MOL0     C91669   1.751   3.743  10.631 -0.4695 -0.1761 -0.0098
  680MOL0     C91670   1.764   3.878  10.634 -0.0473  0.9935 -0.0896
  680MOL0     C91671   1.793   3.944  10.755  0.3237  0.5005 -0.1898
  680MOL0     C91672   1.797   3.882  10.877 -0.1758 -0.2461  0.6268
  680MOL0     O91673   1.820   3.946  10.993  0.6073  0.0780  0.0328
  680MOL0     C91674   1.922   3.893  11.072  0.0149  1.0568  0.1117
  680MOL0     C91675   1.860   3.839  11.208 -0.0005 -0.8604  0.3368
  680MOL0     C91676   1.880   3.953  11.306  0.1218 -0.2228  0.0390
  680MOL0     C91677   1.830   3.905  11.439  0.5224 -0.4366  0.3397
  680MOL0     C91678   1.777   4.012  11.533  0.2924 -0.0279  0.3897
  680MOL0     C91679   1.740   3.969  11.673  0.2266 -0.0452 -0.1568
  680MOL0     C91680   1.645   4.073  11.746  0.5093 -0.1183  0.2400
  680MOL0     C91681   1.512   4.024  11.813  0.7242 -0.7763 -0.0524
  680MOL0     N91682   1.435   3.936  11.728  0.4567 -0.6188  1.1858
  680MOL0     C91683   1.370   3.958  11.608  0.3212  1.2380 -0.2746
  680MOL0     C91684   1.316   3.836  11.580  0.2184 -0.7496  0.7091
  680MOL0     C91685   1.270   3.795  11.446 -0.3523  0.5439  0.6218
  680MOL0     C91686   1.384   3.746  11.349 -0.6222  0.9980  0.4051
  680MOL0     C91687   1.433   3.863  11.269 -0.7654  0.0324  0.7527
  680MOL0     C91688   1.438   3.820  11.114 -0.4778 -0.1842 -0.0726
  680MOL0     O91689   1.318   3.766  11.075  0.2114 -0.9887  0.5410
  680MOL0     C91690   1.316   3.715  10.946 -0.0791 -0.1243  0.0069
  680MOL0     C91691   1.189   3.662  10.894 -0.5809  0.0947  0.0320
  680MOL0     C91692   1.172   3.612  10.763 -0.1075 -0.3933  0.9319
  680MOL0     C91693   1.277   3.617  10.665  0.1942 -0.2898 -0.6540
  680MOL0     C91694   1.253   3.563  10.528  0.2662 -0.4154 -0.1809
  680MOL0     O91695   1.136   3.492  10.503 -0.2296  0.0728  0.3265
  680MOL0     C91696   1.133   3.446  10.373 -0.9451  0.3794  0.4080
  680MOL0     C91697   1.174   3.308  10.360  0.8397  0.0211 -0.1385
  680MOL0     C91698   1.151   3.236  10.234 -0.9572  1.0998  0.6181
  680MOL0     C91699   1.101   3.310  10.131  0.4253  0.3215 -0.9300
  680MOL0     O91700   1.087   3.253  10.009  0.3585 -0.1982 -0.2635
  680MOL0     C91701   1.009   3.302   9.898 -0.1348 -0.6419 -0.3156
  680MOL0     C91702   1.006   3.198   9.785 -0.1085  0.5513  0.6991
  680MOL0     C91703   0.896   3.239   9.679 -0.4747  0.0302 -0.0374
  680MOL0     C91704   0.754   3.198   9.705  0.6200  0.0334 -0.8985
  680MOL0     C91705   0.669   3.244   9.582  0.8428 -0.4216  0.3078
  680MOL0     C91706   0.514   3.209   9.603 -0.3260  0.2953 -0.3725
  680MOL0     C91707   0.437   3.231   9.483 -0.4616 -0.5869 -0.4354
  680MOL0     C91708   0.294   3.172   9.466 -0.1399  0.1325  0.1180
  680MOL0    Cl91709   0.281   2.999   9.512 -0.1201  0.0205 -0.3886
  680MOL0     C91710   1.071   3.444  10.145 -0.4807 -0.1170  0.0394
  680MOL0     C91711   1.079   3.515  10.266 -0.2410  0.3358 -0.5926
  680MOL0     O91712   1.330   3.606  10.443 -0.0556 -0.6742 -0.4626
  680MOL0     C91713   1.403   3.657  10.712  0.4339 -0.3685 -0.5428
  680MOL0     C91714   1.417   3.701  10.848  0.1544 -1.2272 -0.1151
  680MOL0     N91715   1.340   3.753  11.678 -0.3788 -0.0606 -0.0456
  680MOL0     N91716   1.402   3.807  11.768 -0.3633  0.1012  0.5560
  680MOL0     C91717   1.792   3.734  10.868 -0.5395  0.6124  0.3743
  680MOL0     C91718   1.763   3.672  10.746 -0.6559 -0.0200 -0.6409
  680MOL0     C91719   1.749   3.534  10.322  0.8396 -1.1239  0.0688
  680MOL0     C91720   1.623   3.577  10.270  0.3154  0.1963 -0.8917
  680MOL0     C91721   1.581   3.539  10.150  0.2886 -0.4273  0.2820
  680MOL0     C91722   1.645   3.439  10.070  0.5245 -0.4613  0.2135
  680MOL0     O91723   1.600   3.379   9.954 -0.7958  0.3428 -0.0846
  680MOL0     C91724   1.468   3.420   9.912  0.9189 -0.0659 -0.5949
  680MOL0     C91725   1.425   3.362   9.774  0.2377  0.3655 -0.4425
  680MOL0     C91726   1.467   3.216   9.740  0.0264  0.3643  0.4081
  680MOL0     C91727   1.427   3.124   9.853 -0.7488  0.3334 -0.1286
  680MOL0     C91728   1.466   2.987   9.827  0.0411 -0.0574  0.0212
  680MOL0     C91729   1.475   2.868   9.806 -0.2831 -0.0988  0.6736
  680MOL0     C91730   1.758   3.390  10.125  1.4271  0.4837  0.2713
  680MOL0     C91731   1.819   3.434  10.246  0.4016  0.6024  0.4985
  680MOL0     C91732   1.957   3.374  10.285  0.6751 -0.0706  0.5219
  680MOL0     H91733   1.763   3.937  10.542 -0.4546 -0.6021 -1.1408
  680MOL0     H91734   1.804   4.052  10.745  1.7990  0.2097 -2.4534
  680MOL0     H91735   1.979   3.818  11.017 -0.6826  0.5464  0.0641
  680MOL0     H91736   1.991   3.976  11.088  1.8965 -0.5981  1.0125
  680MOL0     H91737   1.903   3.746  11.245 -0.9099 -0.8776  1.3955
  680MOL0     H91738   1.754   3.820  11.193 -0.4891  0.7125  1.4884
  680MOL0     H91739   1.814   4.034  11.277  0.4299 -0.1473 -0.4594
  680MOL0     H91740   1.975   4.007  11.307 -0.1783  0.3424  1.8983
  680MOL0     H91741   1.750   3.831  11.431  0.9261 -0.9233  0.7043
  680MOL0     H91742   1.918   3.853  11.479 -0.2111 -2.1508 -0.2061
  680MOL0     H91743   1.840   4.101  11.536 -0.6108  0.9464 -3.8553
  680MOL0     H91744   1.692   4.049  11.476 -0.1551 -3.2531 -1.2690
  680MOL0     H91745   1.691   3.872  11.683 -0.2284  0.3556  2.2690
  680MOL0     H91746   1.837   3.951  11.720 -0.3697  2.4514  2.3145
  680MOL0     H91747   1.626   4.153  11.674  1.3425 -0.0263  0.1165
  680MOL0     H91748   1.686   4.118  11.837 -2.2483  1.4958  0.8131
  680MOL0     H91749   1.523   3.982  11.913  2.0713  3.2077  1.6561
  680MOL0     H91750   1.448   4.109  11.837  2.5229  0.1401  1.8865
  680MOL0     H91751   1.396   4.035  11.536 -0.6677  1.0568 -0.8399
  680MOL0     H91752   1.203   3.709  11.448  0.4102 -0.4959 -4.2491
  680MOL0     H91753   1.217   3.888  11.421  4.0727  2.9722 -1.0364
  680MOL0     H91754   1.468   3.709  11.409  0.2140  1.4940 -0.4268
  680MOL0     H91755   1.349   3.666  11.284 -2.5302  2.5066 -0.5419
  680MOL0     H91756   1.533   3.893  11.302 -0.4410  0.9166 -0.9022
  680MOL0     H91757   1.368   3.947  11.294  0.3287  1.3294 -0.6076
  680MOL0     H91758   1.514   3.743  11.099 -0.0028  0.0167  1.2009
  680MOL0     H91759   1.466   3.907  11.053 -1.9889  1.8295  1.9489
  680MOL0     H91760   1.102   3.674  10.957 -0.3163 -0.5872  0.5423
  680MOL0     H91761   1.073   3.574  10.740  1.0577 -2.5268 -0.9303
  680MOL0     H91762   1.204   3.264  10.455 -2.5125  0.1691  1.1344
  680MOL0     H91763   1.170   3.129  10.230 -0.1517  1.2355  0.6352
  680MOL0     H91764   0.908   3.325   9.933  1.4475  2.6822  2.7839
  680MOL0     H91765   1.054   3.397   9.866 -0.4885  1.1277  3.8429
  680MOL0     H91766   1.103   3.173   9.741  0.1639  1.2590  0.8808
  680MOL0     H91767   0.966   3.109   9.834 -1.6289  1.2738  0.8305
  680MOL0     H91768   0.896   3.345   9.651  0.9688  1.1273  3.6059
  680MOL0     H91769   0.920   3.178   9.591  0.1469 -1.0574  0.8696
  680MOL0     H91770   0.731   3.247   9.800 -0.4682 -1.2655 -0.4601
  680MOL0     H91771   0.741   3.092   9.727 -0.3877 -0.3709 -3.1958
  680MOL0     H91772   0.704   3.186   9.496  1.1499  2.4331 -1.6191
  680MOL0     H91773   0.670   3.351   9.561 -1.0784 -0.0943  1.6105
  680MOL0     H91774   0.518   3.102   9.623 -1.3280  0.0054 -1.6361
  680MOL0     H91775   0.476   3.251   9.697 -1.8694  0.3197 -0.9742
  680MOL0     H91776   0.505   3.203   9.401  2.3687  2.7893  0.5145
  680MOL0     H91777   0.416   3.336   9.464 -1.0640 -0.3089  1.5859
  680MOL0     H91778   0.226   3.225   9.533 -1.2831 -0.4808 -0.5230
  680MOL0     H91779   0.260   3.189   9.364 -0.5568  0.1643  0.2630
  680MOL0     H91780   1.020   3.490  10.061  0.4680  0.6078 -0.1580
  680MOL0     H91781   1.040   3.614  10.287 -0.3382  0.3625 -0.8919
  680MOL0     H91782   1.486   3.651  10.643 -0.6460  1.3472 -2.0762
  680MOL0     H91783   1.513   3.729  10.891 -0.1221  0.6612 -0.6472
  680MOL0     H91784   1.808   3.667  10.952  1.6649  0.7063  0.0947
  680MOL0     H91785   1.748   3.564  10.742  1.1480 -0.4139  1.3848
  680MOL0     H91786   1.565   3.645  10.332  0.5649 -0.9144  0.6150
  680MOL0     H91787   1.480   3.566  10.123 -1.0213 -3.0083  2.1590
  680MOL0     H91788   1.458   3.529   9.902  1.5609 -0.1004 -1.7720
  680MOL0     H91789   1.389   3.383   9.978  0.5170 -0.7617 -1.4665
  680MOL0     H91790   1.469   3.428   9.698 -0.0362  0.4272 -0.5519
  680MOL0     H91791   1.317   3.363   9.754  0.2353 -3.0769 -1.2794
  680MOL0     H91792   1.575   3.206   9.729  0.4601  2.6013  1.9617
  680MOL0     H91793   1.421   3.179   9.648  2.0927 -2.8479  0.4958
  680MOL0     H91794   1.474   3.161   9.944 -1.4846  0.3409  0.2551
  680MOL0     H91795   1.319   3.125   9.872 -0.7477 -0.6438 -0.0433
  680MOL0     H91796   1.489   2.764   9.784  0.4696 -0.3457  2.1910
  680MOL0     H91797   1.801   3.309  10.067 -1.3426  1.3197 -3.4136
  680MOL0     H91798   1.933   3.294  10.356 -1.3631 -1.6919 -1.8090
  680MOL0     H91799   1.990   3.332  10.190 -1.3630  1.2154 -0.8258
  680MOL0     H91800   2.038   3.437  10.322 -1.3523  1.5722  2.4604
  681MOL0     O91801   3.271   6.243   4.513 -0.7988  1.1670 -0.2640
  681MOL0     C91802   3.375   6.228   4.578  0.8084 -0.3938  0.0892
  681MOL0     O91803   3.372   6.245   4.719 -0.1739  0.0552 -0.0156
  681MOL0     C91804   3.250   6.215   4.781  0.2388  0.7691  0.7348
  681MOL0     C91805   3.144   6.303   4.781  0.2201  0.9200  0.4183
  681MOL0     C91806   3.033   6.284   4.864  0.7644  0.2781 -0.5440
  681MOL0     C91807   3.026   6.171   4.950 -1.1429  1.1251 -0.0646
  681MOL0     O91808   2.913   6.151   5.024  0.1147 -0.4768 -0.2806
  681MOL0     C91809   2.864   6.023   5.062 -0.0571  0.1541  0.4542
  681MOL0     C91810   2.749   5.979   4.973 -0.0899 -0.7865  0.0547
  681MOL0     C91811   2.645   6.091   4.966 -0.1544 -0.1176  0.8481
  681MOL0     C91812   2.596   6.147   5.108  0.6391  0.2171  0.3374
  681MOL0     C91813   2.494   6.260   5.086 -0.5904  0.4369  0.4949
  681MOL0     C91814   2.450   6.330   5.209 -0.4945  1.1183 -0.3122
  681MOL0     C91815   2.353   6.443   5.180  0.5344  0.3510  0.0724
  681MOL0     C91816   2.302   6.516   5.302  0.3153  0.2014 -0.3958
  681MOL0     N91817   2.187   6.598   5.264 -0.0367  0.1076 -0.4556
  681MOL0     C91818   2.111   6.669   5.352  0.1503  1.0238  0.1810
  681MOL0     C91819   2.026   6.737   5.276 -0.5656 -0.2917 -0.3281
  681MOL0     C91820   1.907   6.819   5.325 -0.0607  0.1563 -0.3654
  681MOL0     C91821   1.784   6.726   5.322  0.6375 -1.2496 -0.0282
  681MOL0     C91822   1.671   6.821   5.389 -0.5690  0.0859  0.3328
  681MOL0     C91823   1.539   6.751   5.381  1.0165 -0.4535 -0.7481
  681MOL0     O91824   1.440   6.816   5.460 -0.3333  0.2016 -0.5972
  681MOL0     C91825   1.301   6.804   5.430  0.5391  1.0967 -0.2098
  681MOL0     C91826   1.257   6.680   5.403 -0.0904 -0.7405  0.0546
  681MOL0     C91827   1.121   6.661   5.387  0.5886 -0.5021  0.1384
  681MOL0     C91828   1.028   6.761   5.394 -0.1588 -0.1081  0.2727
  681MOL0     C91829   0.881   6.755   5.376 -0.9525  0.4855 -0.0730
  681MOL0     O91830   0.809   6.870   5.357  0.4374  0.1966  0.6565
  681MOL0     C91831   0.691   6.850   5.297 -0.1545 -0.5895  0.2203
  681MOL0     C91832   0.569   6.854   5.371  0.1522 -1.2110 -0.9522
  681MOL0     C91833   0.450   6.834   5.307 -0.4658 -0.2845 -0.6514
  681MOL0     C91834   0.440   6.824   5.166  0.5574 -0.3959  0.1564
  681MOL0     O91835   0.317   6.824   5.107  0.5215  0.6357  0.4319
  681MOL0     C91836   0.276   6.705   5.033 -0.0394  1.0084  0.1496
  681MOL0     C91837   0.137   6.647   5.074 -0.3102 -0.1049  0.1270
  681MOL0     C91838   0.080   6.542   4.981  0.5559 -0.5468 -0.2235
  681MOL0     C91839  -0.032   6.452   5.052  0.4889 -0.5752 -0.3027
  681MOL0     C91840  -0.035   6.294   5.038 -0.7709  0.5203 -0.7720
  681MOL0     C91841  -0.031   6.237   4.895  0.3884  0.7997  1.1200
  681MOL0     C91842   0.013   6.088   4.881 -0.0150 -1.0516  0.4764
  681MOL0     C91843  -0.109   5.995   4.914 -0.0158  0.5247 -0.4791
  681MOL0    Cl91844  -0.244   6.023   4.784  0.3010 -0.2030  0.2054
  681MOL0     C91845   0.555   6.808   5.097  0.4364 -0.1135 -0.0498
  681MOL0     C91846   0.680   6.826   5.163  0.4423 -0.3616 -0.2460
  681MOL0     O91847   0.849   6.642   5.351 -0.1406 -1.1282  0.3059
  681MOL0     C91848   1.088   6.889   5.427  0.2571  0.1564 -1.1698
  681MOL0     C91849   1.217   6.914   5.449  0.4730 -0.6796 -0.2505
  681MOL0     N91850   2.055   6.730   5.142 -0.5663 -0.0395  0.7676
  681MOL0     N91851   2.154   6.643   5.136  0.9111 -0.4397  0.0779
  681MOL0     C91852   3.146   6.090   4.962 -0.0614 -0.4777 -0.7059
  681MOL0     C91853   3.255   6.107   4.872 -0.1512 -0.4627  0.4903
  681MOL0     C91854   3.494   6.168   4.522 -0.1754  0.4168  0.8431
  681MOL0     C91855   3.607   6.155   4.602 -0.4176  0.1591 -0.7137
  681MOL0     C91856   3.716   6.077   4.570 -0.7390 -0.2267  0.0360
  681MOL0     C91857   3.719   6.018   4.442 -0.1811 -0.5437 -0.2339
  681MOL0     O91858   3.833   5.949   4.419 -0.2613 -0.1675 -0.5907
  681MOL0     C91859   3.906   5.997   4.300  0.1646  0.2384 -0.4206
  681MOL0     C91860   4.057   6.003   4.305 -0.7853 -0.4068 -0.8747
  681MOL0     C91861   4.121   5.892   4.382 -0.1914 -0.3993  0.4770
  681MOL0     C91862   4.262   5.939   4.426  0.0377  1.0405  0.3838
  681MOL0     C91863   4.364   5.941   4.313  0.0527  0.5298  0.6780
  681MOL0     C91864   4.436   5.954   4.216 -1.0695 -0.2280  0.5980
  681MOL0     C91865   3.622   6.044   4.351 -0.1210  0.4958  0.1669
  681MOL0     C91866   3.509   6.115   4.397  0.2925  0.1746 -0.5062
  681MOL0     C91867   3.400   6.119   4.288  0.0567  0.2535 -0.1031
  681MOL0     H91868   3.144   6.386   4.711 -0.7992 -0.6294 -1.5239
  681MOL0     H91869   2.945   6.347   4.867  1.5609  1.3902  0.9002
  681MOL0     H91870   2.937   5.942   5.068  1.9771  1.9907  2.7320
  681MOL0     H91871   2.819   6.039   5.160 -1.2011 -0.8078  0.1076
  681MOL0     H91872   2.704   5.893   5.023  1.5562 -2.5655 -1.3975
  681MOL0     H91873   2.798   5.962   4.876 -0.1691  2.3957 -0.6698
  681MOL0     H91874   2.550   6.066   4.917 -1.6751  2.5323  2.1648
  681MOL0     H91875   2.688   6.173   4.907  1.2535  1.1960  3.5047
  681MOL0     H91876   2.558   6.073   5.179  1.1745 -1.9583 -1.5182
  681MOL0     H91877   2.685   6.193   5.153  1.2152  0.9586 -1.4710
  681MOL0     H91878   2.536   6.341   5.027 -2.0738 -0.6405 -2.2404
  681MOL0     H91879   2.415   6.210   5.028 -0.6599  0.8247  0.2536
  681MOL0     H91880   2.406   6.247   5.265 -2.5174  1.4730 -1.2718
  681MOL0     H91881   2.536   6.368   5.264 -1.3665 -2.6316  4.3542
  681MOL0     H91882   2.272   6.395   5.124 -0.3411  2.5020 -0.6159
  681MOL0     H91883   2.394   6.521   5.114  0.8519 -1.3855 -1.8787
  681MOL0     H91884   2.290   6.453   5.391  4.2239  4.7729  4.0710
  681MOL0     H91885   2.376   6.588   5.339 -2.1253  2.6258  0.1587
  681MOL0     H91886   2.119   6.663   5.460 -3.2527  1.7335  0.5872
  681MOL0     H91887   1.916   6.858   5.426 -0.5857  1.2632 -0.7355
  681MOL0     H91888   1.896   6.899   5.252  0.3705 -2.4263 -3.5345
  681MOL0     H91889   1.761   6.705   5.217  1.7868  1.0584 -0.8031
  681MOL0     H91890   1.788   6.637   5.385 -1.8300 -0.1951  1.8159
  681MOL0     H91891   1.669   6.914   5.332  0.8274 -0.3720 -0.5136
  681MOL0     H91892   1.675   6.850   5.495 -3.0884  0.6035  0.3577
  681MOL0     H91893   1.546   6.647   5.412  1.6494 -0.8392 -2.0952
  681MOL0     H91894   1.501   6.753   5.278 -1.2083 -1.7238 -0.0152
  681MOL0     H91895   1.326   6.597   5.395  2.5554  1.1617  1.3558
  681MOL0     H91896   1.086   6.559   5.375  0.9849 -0.7594  1.0974
  681MOL0     H91897   0.569   6.877   5.477  1.8985 -0.0127 -1.1668
  681MOL0     H91898   0.367   6.830   5.377  0.4149 -0.6771  0.4150
  681MOL0     H91899   0.259   6.724   4.927  1.6657 -1.6810 -0.7065
  681MOL0     H91900   0.356   6.631   5.031 -1.7984 -1.0311  1.3167
  681MOL0     H91901   0.146   6.594   5.169 -0.0148 -3.2991 -1.5425
  681MOL0     H91902   0.060   6.724   5.083 -0.4397 -0.3053  0.8220
  681MOL0     H91903   0.037   6.595   4.895  2.1931  0.2979 -0.5614
  681MOL0     H91904   0.155   6.472   4.944 -0.5391 -0.8788 -1.9132
  681MOL0     H91905  -0.129   6.487   5.017  0.3797 -2.0388 -1.5966
  681MOL0     H91906  -0.041   6.480   5.157  1.8662 -1.9738  0.2403
  681MOL0     H91907  -0.119   6.250   5.093 -2.2271  2.8119 -1.0375
  681MOL0     H91908   0.061   6.267   5.081 -0.8263  0.2954 -0.7902
  681MOL0     H91909  -0.130   6.251   4.851  0.2584 -1.0614  0.7734
  681MOL0     H91910   0.030   6.298   4.828 -0.1215  1.4871  1.2656
  681MOL0     H91911   0.093   6.063   4.953 -1.1098 -3.1144  1.0711
  681MOL0     H91912   0.049   6.067   4.780  0.4681 -0.8024  0.5921
  681MOL0     H91913  -0.077   5.891   4.904 -2.4949 -0.3103 -0.4492
  681MOL0     H91914  -0.150   6.008   5.014  1.0184  0.2898 -0.0130
  681MOL0     H91915   0.561   6.807   4.989  2.3698 -2.9398 -0.0265
  681MOL0     H91916   0.773   6.831   5.108  0.9587  3.9174  0.7231
  681MOL0     H91917   1.026   6.974   5.455  1.5824  0.6408  0.4781
  681MOL0     H91918   1.250   7.015   5.473 -0.7272 -0.2929 -0.1451
  681MOL0     H91919   3.135   6.004   5.028 -2.5822  1.1098  1.1508
  681MOL0     H91920   3.351   6.056   4.878  1.2672  1.8011 -1.2759
  681MOL0     H91921   3.613   6.209   4.696 -0.9976  2.8503 -2.1188
  681MOL0     H91922   3.797   6.074   4.641 -0.7197  1.3501  0.1217
  681MOL0     H91923   3.872   6.098   4.276 -1.5420  0.0531  0.9872
  681MOL0     H91924   3.877   5.929   4.219  1.0658 -0.8439  0.1422
  681MOL0     H91925   4.081   6.095   4.359 -3.1519 -0.3157  0.1614
  681MOL0     H91926   4.089   6.004   4.201  2.1115  0.7395 -0.0698
  681MOL0     H91927   4.137   5.804   4.319  1.5954 -1.3671  2.1812
  681MOL0     H91928   4.077   5.855   4.475  0.7842 -2.6537  0.0983
  681MOL0     H91929   4.251   6.029   4.487  1.1098  1.7779 -0.4600
  681MOL0     H91930   4.291   5.864   4.500  1.1332  0.2751 -0.7678
  681MOL0     H91931   4.485   5.979   4.124 -0.5268  2.7434  1.5810
  681MOL0     H91932   3.628   6.015   4.247  1.8513 -1.7818  0.8292
  681MOL0     H91933   3.434   6.082   4.191 -3.7488  1.0211 -1.9140
  681MOL0     H91934   3.323   6.045   4.309 -0.4792  0.4378 -1.3434
  681MOL0     H91935   3.373   6.224   4.272  0.9218  0.6069  0.6323
  682MOL0     O91936   2.819   9.509   6.625  0.5069  0.0480 -0.4157
  682MOL0     C91937   2.833   9.631   6.626  0.9109 -0.4275 -1.0319
  682MOL0     O91938   2.789   9.722   6.534  0.7526 -0.5941  0.2389
  682MOL0     C91939   2.695   9.672   6.457 -0.1908  0.1881 -0.1416
  682MOL0     C91940   2.565   9.628   6.498  0.9067 -0.3410  0.2749
  682MOL0     C91941   2.485   9.561   6.405 -0.0830 -0.1655 -0.1967
  682MOL0     C91942   2.527   9.559   6.272  0.6328  0.3837  0.3240
  682MOL0     O91943   2.452   9.500   6.181 -0.0476  0.3496  0.3795
  682MOL0     C91944   2.505   9.390   6.106 -1.6599  0.9687 -0.0482
  682MOL0     C91945   2.506   9.254   6.171  0.3775  1.8964  0.8177
  682MOL0     C91946   2.561   9.225   6.309 -0.0364  0.2706  1.0582
  682MOL0     C91947   2.569   9.069   6.334  0.2186  0.5983 -0.3910
  682MOL0     C91948   2.616   9.014   6.474 -0.0564  1.0010  1.2247
  682MOL0     C91949   2.755   9.075   6.508 -0.0324  0.3604 -0.1512
  682MOL0     C91950   2.833   8.988   6.602  0.0122 -0.6094  0.8041
  682MOL0     C91951   2.910   8.877   6.533 -0.8142  0.5303 -0.1203
  682MOL0     N91952   3.007   8.909   6.422 -0.3708  0.7011 -0.4902
  682MOL0     C91953   2.982   8.932   6.293  0.2710 -1.0772 -0.4363
  682MOL0     C91954   3.091   8.956   6.224 -0.2901  0.1819  0.4962
  682MOL0     C91955   3.096   8.973   6.080 -0.8194 -0.5258  0.3777
  682MOL0     C91956   3.033   8.867   6.001  0.2848  0.1249  0.2522
  682MOL0     C91957   3.087   8.722   6.039 -0.0561  1.9983 -0.2752
  682MOL0     C91958   3.066   8.613   5.933  0.8624  0.0338  0.9343
  682MOL0     O91959   3.072   8.478   5.991  0.4521  0.1002 -0.6656
  682MOL0     C91960   2.969   8.420   6.053 -0.1129 -1.4360  0.4576
  682MOL0     C91961   2.980   8.349   6.165  0.6290  0.6418  0.5861
  682MOL0     C91962   2.881   8.266   6.221 -0.9427 -0.2049  0.6237
  682MOL0     C91963   2.758   8.258   6.159  0.0129  0.3371 -0.8406
  682MOL0     C91964   2.665   8.158   6.192  1.5550  0.1667 -0.3219
  682MOL0     O91965   2.540   8.150   6.119  0.1609 -0.0028 -0.6692
  682MOL0     C91966   2.441   8.060   6.168 -0.5257  0.0598  1.1764
  682MOL0     C91967   2.377   8.072   6.300  0.6531  0.1564 -0.0826
  682MOL0     C91968   2.284   7.974   6.341  0.2939  0.0983  0.2170
  682MOL0     C91969   2.233   7.889   6.250  0.3169  0.6688  0.1611
  682MOL0     O91970   2.146   7.794   6.310  0.1735  0.2182 -0.2921
  682MOL0     C91971   2.100   7.691   6.215 -0.0111  0.6110  0.6548
  682MOL0     C91972   1.983   7.627   6.264 -0.1823 -0.1033 -0.4363
  682MOL0     C91973   2.013   7.548   6.396 -0.7883 -0.5080 -0.3329
  682MOL0     C91974   2.041   7.398   6.387  0.2483 -0.2804 -0.0454
  682MOL0     C91975   2.193   7.384   6.409 -0.9412  0.2394  0.7828
  682MOL0     C91976   2.213   7.234   6.381  0.2491 -0.3774  0.1426
  682MOL0     C91977   2.271   7.158   6.498 -1.2080  0.0611  0.0838
  682MOL0     C91978   2.196   7.037   6.547  0.3572  0.7742  0.4470
  682MOL0    Cl91979   2.173   6.942   6.399 -0.1818  0.2247  0.1356
  682MOL0     C91980   2.287   7.883   6.112 -0.5912  0.0782 -0.1311
  682MOL0     C91981   2.388   7.972   6.075  0.2297  0.3250 -0.2686
  682MOL0     O91982   2.697   8.064   6.269 -0.1557 -0.0310 -0.9359
  682MOL0     C91983   2.735   8.343   6.051  0.6963  0.2291 -0.2105
  682MOL0     C91984   2.838   8.415   5.994  0.6476 -0.0576 -0.1158
  682MOL0     N91985   3.193   8.947   6.324 -0.8984 -0.2530  0.6969
  682MOL0     N91986   3.140   8.904   6.434 -0.1014 -0.6071 -0.7469
  682MOL0     C91987   2.645   9.615   6.227  1.0599  0.2995 -0.3733
  682MOL0     C91988   2.730   9.663   6.323 -0.1895 -0.5312 -0.6440
  682MOL0     C91989   2.894   9.678   6.757  1.0438  0.1008 -0.4792
  682MOL0     C91990   2.985   9.606   6.827 -0.6258  1.0088 -0.7089
  682MOL0     C91991   3.028   9.629   6.957 -0.2089  0.0201 -0.2768
  682MOL0     C91992   2.994   9.748   7.023 -0.7646  0.3915 -0.6523
  682MOL0     O91993   3.046   9.786   7.150  0.0700  0.4664  0.8584
  682MOL0     C91994   3.123   9.688   7.226  0.1951  1.3086 -0.4328
  682MOL0     C91995   3.159   9.755   7.354  0.5400  0.2131 -0.3457
  682MOL0     C91996   3.295   9.821   7.342  0.3265 -0.2772 -0.6471
  682MOL0     C91997   3.414   9.722   7.333  0.2036  0.0071 -0.1579
  682MOL0     C91998   3.534   9.798   7.292 -0.6132  0.1103  0.7339
  682MOL0     C91999   3.642   9.840   7.261 -0.5033  0.6292  0.3199
  682MOL0     C92000   2.909   9.829   6.946  0.1623  0.7274 -0.9610
  682MOL0     C92001   2.852   9.791   6.821 -0.1575  0.2920 -0.0333
  682MOL0     C92002   2.745   9.876   6.761 -0.6107  0.7099 -0.3247
  682MOL0     H92003   2.517   9.647   6.593  0.9162  1.4507 -0.0449
  682MOL0     H92004   2.396   9.501   6.421 -2.4075  2.0766 -3.3558
  682MOL0     H92005   2.453   9.379   6.010 -0.0851 -0.1199 -0.8215
  682MOL0     H92006   2.611   9.408   6.091 -1.3230 -0.0108  1.0356
  682MOL0     H92007   2.549   9.185   6.097 -0.2860 -0.1560  2.2591
  682MOL0     H92008   2.398   9.239   6.176  0.5483 -0.9340 -1.3840
  682MOL0     H92009   2.503   9.272   6.389  1.8722  1.5941  1.7341
  682MOL0     H92010   2.664   9.262   6.312  1.2147 -2.7486 -0.2465
  682MOL0     H92011   2.462   9.049   6.324 -0.1880  2.6848 -0.6919
  682MOL0     H92012   2.619   9.026   6.247 -2.6748 -0.8256 -1.4724
  682MOL0     H92013   2.542   9.036   6.552 -1.9476 -0.6132 -0.0156
  682MOL0     H92014   2.620   8.905   6.464 -0.3076  1.0623  0.2921
  682MOL0     H92015   2.811   9.101   6.418  0.5657  4.1186  1.1503
  682MOL0     H92016   2.720   9.168   6.552 -1.7651  0.1047 -0.8871
  682MOL0     H92017   2.758   8.936   6.663  2.0123 -0.5588  3.4734
  682MOL0     H92018   2.897   9.046   6.669  0.3085  1.2751 -1.0260
  682MOL0     H92019   2.974   8.834   6.611  1.8793  2.2289 -1.2801
  682MOL0     H92020   2.837   8.807   6.491 -1.6200  1.1195  0.2790
  682MOL0     H92021   2.881   8.938   6.253  0.4354 -1.9935 -1.0322
  682MOL0     H92022   3.050   9.069   6.055 -0.7818 -0.8201 -0.8717
  682MOL0     H92023   3.196   8.991   6.040 -0.7365  2.3370  1.6444
  682MOL0     H92024   2.924   8.859   6.003  0.2493  0.6333  0.5816
  682MOL0     H92025   3.057   8.899   5.899  1.1248 -1.7427 -0.1696
  682MOL0     H92026   3.020   8.691   6.120  1.5771  1.3915  0.9162
  682MOL0     H92027   3.191   8.700   6.067  0.0624  0.1430 -1.9487
  682MOL0     H92028   3.142   8.628   5.855  1.7083  1.3979  1.9611
  682MOL0     H92029   2.965   8.620   5.892  0.5178  2.2242  2.0058
  682MOL0     H92030   3.079   8.349   6.212  0.8479 -1.0134  0.2111
  682MOL0     H92031   2.893   8.207   6.311 -0.8760  1.7015  1.9138
  682MOL0     H92032   2.432   8.122   6.379  0.8632 -2.4183  1.5053
  682MOL0     H92033   2.253   7.967   6.445  3.8289  2.9541  1.6430
  682MOL0     H92034   2.074   7.743   6.122  0.2361 -2.5990 -1.3485
  682MOL0     H92035   2.168   7.609   6.191 -2.0347 -0.6758 -1.0986
  682MOL0     H92036   1.902   7.693   6.297  0.6880  0.3538  0.8598
  682MOL0     H92037   1.938   7.565   6.185  1.1428 -2.2004  0.3828
  682MOL0     H92038   2.101   7.585   6.449  1.6252 -4.2496 -1.3765
  682MOL0     H92039   1.921   7.558   6.455 -1.9886 -2.3982 -1.7698
  682MOL0     H92040   2.011   7.368   6.287  1.5348 -0.4217 -0.4173
  682MOL0     H92041   1.989   7.336   6.461  1.7288  0.1167  1.3881
  682MOL0     H92042   2.191   7.413   6.515 -0.2071 -0.6920  1.0755
  682MOL0     H92043   2.259   7.446   6.349  2.1948 -2.5793  1.0265
  682MOL0     H92044   2.120   7.184   6.351  2.6578 -3.4006 -3.0449
  682MOL0     H92045   2.265   7.221   6.286 -3.0596  1.3620 -2.1161
  682MOL0     H92046   2.274   7.218   6.590  4.0147  1.2559 -0.5706
  682MOL0     H92047   2.374   7.129   6.479  0.4537  4.0418  1.7543
  682MOL0     H92048   2.272   6.982   6.604  1.5717 -1.1034 -2.7018
  682MOL0     H92049   2.106   7.072   6.598  0.1277  0.5516  0.1937
  682MOL0     H92050   2.258   7.812   6.035 -2.3763  2.6528 -2.0214
  682MOL0     H92051   2.421   7.966   5.972  0.4956 -2.8661 -0.1022
  682MOL0     H92052   2.639   8.352   6.000 -0.6736  0.8734  2.3261
  682MOL0     H92053   2.816   8.467   5.901  0.9784  1.0851  0.4272
  682MOL0     H92054   2.677   9.616   6.124  1.2284  1.1208 -0.3225
  682MOL0     H92055   2.828   9.691   6.285 -1.6775  3.4584 -1.9866
  682MOL0     H92056   3.030   9.523   6.774  0.8124  0.3658  1.3896
  682MOL0     H92057   3.113   9.567   6.982 -0.3982 -1.4093 -2.8520
  682MOL0     H92058   3.203   9.645   7.165  1.0423  3.5937 -1.0484
  682MOL0     H92059   3.056   9.607   7.257  2.2507 -0.8877 -1.4274
  682MOL0     H92060   3.166   9.680   7.433 -1.7976  0.2634 -0.0190
  682MOL0     H92061   3.078   9.822   7.384  0.6433  0.0268  0.3835
  682MOL0     H92062   3.307   9.877   7.435  0.8065 -2.6440  0.7868
  682MOL0     H92063   3.289   9.892   7.259 -1.0211 -0.4797 -0.7323
  682MOL0     H92064   3.428   9.684   7.434  1.0114 -2.0264 -0.9890
  682MOL0     H92065   3.390   9.643   7.262  0.3596  0.9518 -1.2979
  682MOL0     H92066   3.743   9.861   7.234 -1.3658  3.9215 -0.9274
  682MOL0     H92067   2.858   9.914   6.990 -0.5236 -0.7828  1.3553
  682MOL0     H92068   2.665   9.817   6.715 -0.6310  1.6101 -1.5106
  682MOL0     H92069   2.690   9.938   6.832  0.5541 -2.3991  3.6244
  682MOL0     H92070   2.796   9.939   6.687  0.7193  2.7963  2.2269
  683MOL0     O92071   4.930   1.107   3.398 -0.0735 -0.1567 -0.6178
  683MOL0     C92072   4.950   1.126   3.276 -1.1326 -0.9394  1.0336
  683MOL0     O92073   4.878   1.076   3.174  0.2514 -0.1574  0.4783
  683MOL0     C92074   4.796   0.977   3.207  0.2958 -0.1046 -0.1870
  683MOL0     C92075   4.655   0.996   3.197  0.4538 -0.8282 -0.1076
  683MOL0     C92076   4.568   0.900   3.239 -0.1442 -0.7748 -0.7421
  683MOL0     C92077   4.614   0.771   3.293 -0.6743 -0.2667 -0.2173
  683MOL0     O92078   4.533   0.665   3.307  0.3183  0.7663 -0.8957
  683MOL0     C92079   4.391   0.684   3.319 -1.0999 -0.0631 -1.1587
  683MOL0     C92080   4.309   0.563   3.348 -0.0546 -0.0230  0.4003
  683MOL0     C92081   4.304   0.463   3.227 -0.9910 -0.5271 -0.7722
  683MOL0     C92082   4.378   0.324   3.253  0.8497  0.8440 -0.9051
  683MOL0     C92083   4.482   0.289   3.144 -0.7973 -0.1309  0.3974
  683MOL0     C92084   4.540   0.153   3.190  0.4129 -0.4592  0.5903
  683MOL0     C92085   4.633   0.084   3.078  0.9864 -0.3348 -0.0606
  683MOL0     C92086   4.638  -0.059   3.110  0.0757  0.1337 -0.0387
  683MOL0     N92087   4.703  -0.096   3.243  0.5018  0.3419 -0.0660
  683MOL0     C92088   4.649  -0.127   3.365 -1.1303 -0.0009 -0.6842
  683MOL0     C92089   4.748  -0.133   3.456 -0.4409  0.1091  0.2611
  683MOL0     C92090   4.734  -0.159   3.605  0.1073  0.2022  0.8257
  683MOL0     C92091   4.853  -0.237   3.664  1.3765 -0.8810  0.0551
  683MOL0     C92092   4.813  -0.334   3.774 -0.4172  0.3617 -0.4975
  683MOL0     C92093   4.942  -0.413   3.815  0.3620  0.8138 -0.1754
  683MOL0     O92094   5.046  -0.322   3.852 -0.0435 -0.0146  0.2468
  683MOL0     C92095   5.181  -0.360   3.863 -0.0840  0.2133 -0.3412
  683MOL0     C92096   5.234  -0.478   3.796 -0.2868  0.5435  0.7197
  683MOL0     C92097   5.367  -0.517   3.809  0.7361 -0.3990 -0.7252
  683MOL0     C92098   5.446  -0.451   3.898  0.0591 -0.5019 -0.0903
  683MOL0     C92099   5.588  -0.501   3.919 -0.9631  0.2469  0.6058
  683MOL0     O92100   5.638  -0.589   3.820  0.4604 -0.1134  0.5713
  683MOL0     C92101   5.757  -0.642   3.833 -1.2602  0.2039 -0.4839
  683MOL0     C92102   5.778  -0.772   3.880  0.2628 -0.4946 -0.2074
  683MOL0     C92103   5.904  -0.823   3.916 -0.2843  0.0350 -0.4331
  683MOL0     C92104   6.022  -0.742   3.911  0.0319  0.1509 -0.1673
  683MOL0     O92105   6.141  -0.807   3.953 -0.3445 -0.3267  0.1641
  683MOL0     C92106   6.261  -0.737   3.930 -0.4212  0.6919 -0.2068
  683MOL0     C92107   6.365  -0.825   4.005  0.7657  0.5140  0.3697
  683MOL0     C92108   6.355  -0.976   3.972  0.0890 -1.0777  0.3586
  683MOL0     C92109   6.351  -1.016   3.824  0.2620 -0.2029  0.8102
  683MOL0     C92110   6.334  -1.168   3.793 -0.0636 -0.9458  0.1086
  683MOL0     C92111   6.459  -1.252   3.806 -0.2569  0.2495 -0.1591
  683MOL0     C92112   6.463  -1.390   3.734  0.7305  0.2856  1.1181
  683MOL0     C92113   6.569  -1.480   3.796 -0.6933 -0.2898 -0.5023
  683MOL0    Cl92114   6.540  -1.644   3.735  0.5493 -0.0306 -0.3546
  683MOL0     C92115   6.009  -0.611   3.863 -1.1885 -0.3776  0.3688
  683MOL0     C92116   5.872  -0.563   3.826  0.3313 -0.2214 -0.1451
  683MOL0     O92117   5.649  -0.467   4.019  0.1476  0.4626 -0.3509
  683MOL0     C92118   5.402  -0.330   3.964 -0.3097 -0.3560 -0.2480
  683MOL0     C92119   5.272  -0.285   3.941 -0.4852 -0.4531 -0.5851
  683MOL0     N92120   4.865  -0.113   3.396  0.1278 -0.3805  0.6639
  683MOL0     N92121   4.839  -0.099   3.263 -0.0373 -0.5611  0.0662
  683MOL0     C92122   4.751   0.749   3.294 -0.9263  0.0946  0.7570
  683MOL0     C92123   4.842   0.850   3.250  0.2463 -0.0836 -1.2789
  683MOL0     C92124   5.061   1.223   3.227  0.7049  0.4008 -0.2533
  683MOL0     C92125   5.063   1.237   3.086 -0.8906 -0.2273  0.1250
  683MOL0     C92126   5.159   1.319   3.035  1.3856 -0.0931  0.1003
  683MOL0     C92127   5.249   1.385   3.117  0.1451  0.7459 -0.6241
  683MOL0     O92128   5.342   1.476   3.074 -0.3567 -0.2819 -0.0426
  683MOL0     C92129   5.441   1.412   2.981  0.3748  0.0005  0.1332
  683MOL0     C92130   5.576   1.477   2.987  0.0817  0.1039  0.8184
  683MOL0     C92131   5.668   1.418   2.880 -0.1062  1.7535 -1.2482
  683MOL0     C92132   5.798   1.484   2.886  0.2537  0.9225  0.6292
  683MOL0     C92133   5.888   1.455   2.772  0.3117  0.3158  0.2001
  683MOL0     C92134   5.971   1.457   2.686 -0.3418 -0.7461  0.4926
  683MOL0     C92135   5.256   1.362   3.255  0.8698 -0.7812  1.0674
  683MOL0     C92136   5.163   1.269   3.310  0.5425 -0.9774  0.5362
  683MOL0     C92137   5.196   1.233   3.452  0.2409  0.2949 -0.0686
  683MOL0     H92138   4.608   1.083   3.152 -0.5357 -2.0918 -1.6107
  683MOL0     H92139   4.463   0.902   3.211 -0.7492  2.0254  1.3918
  683MOL0     H92140   4.375   0.739   3.412 -0.8025  1.1373 -1.8093
  683MOL0     H92141   4.349   0.738   3.234 -0.6160 -0.3627 -1.5975
  683MOL0     H92142   4.204   0.590   3.365 -1.6441 -5.2256  0.5374
  683MOL0     H92143   4.343   0.507   3.436 -0.7228 -2.2177 -0.6603
  683MOL0     H92144   4.320   0.505   3.128 -3.2357  1.8175 -0.2616
  683MOL0     H92145   4.199   0.431   3.222 -0.8692 -1.3132  0.7541
  683MOL0     H92146   4.424   0.327   3.352  1.9306  1.8501 -1.4086
  683MOL0     H92147   4.295   0.254   3.244  1.0050  0.7425 -1.6515
  683MOL0     H92148   4.419   0.280   3.055 -1.5468 -0.7813  0.9830
  683MOL0     H92149   4.559   0.364   3.124  1.0172 -2.3164 -1.3292
  683MOL0     H92150   4.597   0.155   3.284 -1.1719 -2.7493  1.7151
  683MOL0     H92151   4.457   0.083   3.201 -3.4054  3.4183 -0.7165
  683MOL0     H92152   4.729   0.133   3.061 -0.3230  1.4556 -3.1017
  683MOL0     H92153   4.582   0.105   2.984 -0.4729 -0.7769  0.5962
  683MOL0     H92154   4.542  -0.110   3.098 -0.1865  0.7644 -0.6488
  683MOL0     H92155   4.706  -0.106   3.038  1.4634  0.3271  1.0948
  683MOL0     H92156   4.544  -0.136   3.392 -0.7087 -1.1376  0.6956
  683MOL0     H92157   4.702  -0.065   3.653 -3.4633 -0.5953  0.3334
  683MOL0     H92158   4.639  -0.211   3.624 -0.4604  0.8771 -0.0919
  683MOL0     H92159   4.915  -0.291   3.592  1.4313  0.7986 -1.2083
  683MOL0     H92160   4.917  -0.161   3.709  0.0430 -0.7546  1.8593
  683MOL0     H92161   4.737  -0.402   3.734  1.0017 -1.5108 -0.1098
  683MOL0     H92162   4.770  -0.274   3.855 -0.5322 -1.4610  0.8380
  683MOL0     H92163   4.974  -0.477   3.732  0.4306 -0.7430  0.9882
  683MOL0     H92164   4.933  -0.472   3.907  2.0792  1.7631  0.6572
  683MOL0     H92165   5.163  -0.543   3.747 -1.1659 -0.2439  2.9119
  683MOL0     H92166   5.421  -0.606   3.777 -0.0013 -0.7444 -1.0264
  683MOL0     H92167   5.688  -0.834   3.884  0.5634 -0.8895  0.5960
  683MOL0     H92168   5.911  -0.925   3.954 -0.8772  0.0416 -0.2897
  683MOL0     H92169   6.276  -0.740   3.821  0.0689 -2.1633 -0.1288
  683MOL0     H92170   6.271  -0.638   3.976  3.3931 -1.0045  3.2179
  683MOL0     H92171   6.465  -0.796   3.970  0.0369 -0.6226 -3.0908
  683MOL0     H92172   6.350  -0.813   4.113  0.4230  2.1253  0.1630
  683MOL0     H92173   6.446  -1.015   4.019  2.8189  2.0629 -1.8940
  683MOL0     H92174   6.262  -1.015   4.013 -3.0007  1.7467 -3.2187
  683MOL0     H92175   6.441  -0.977   3.774 -0.1412  0.5011  0.6184
  683MOL0     H92176   6.268  -0.965   3.774  0.5387 -1.9321 -1.6105
  683MOL0     H92177   6.304  -1.167   3.688 -0.9611  1.5041  0.3283
  683MOL0     H92178   6.251  -1.204   3.855 -0.5184 -0.2146 -0.0671
  683MOL0     H92179   6.546  -1.204   3.760  2.0805 -3.8203 -0.5010
  683MOL0     H92180   6.469  -1.264   3.915  1.3463  2.1857 -0.0453
  683MOL0     H92181   6.468  -1.377   3.625 -0.4822 -1.8570  0.7433
  683MOL0     H92182   6.369  -1.440   3.761  2.0651 -2.7053  0.6100
  683MOL0     H92183   6.670  -1.454   3.765  0.0133 -0.0480  1.7827
  683MOL0     H92184   6.569  -1.482   3.906 -1.0225  2.6452 -0.3618
  683MOL0     H92185   6.104  -0.560   3.848 -1.2631 -0.6549 -1.2193
  683MOL0     H92186   5.873  -0.461   3.789 -0.5026 -0.0292  0.3468
  683MOL0     H92187   5.473  -0.261   4.008 -0.6889  1.1836 -1.9157
  683MOL0     H92188   5.245  -0.189   3.984 -1.2735 -1.1492  0.5308
  683MOL0     H92189   4.808   0.661   3.320  0.2464  0.6361  0.1120
  683MOL0     H92190   4.948   0.827   3.250  0.1828 -0.4203 -0.0360
  683MOL0     H92191   5.008   1.183   3.009 -1.4085  1.0902 -0.4804
  683MOL0     H92192   5.179   1.326   2.929  4.9544 -2.5058  0.4475
  683MOL0     H92193   5.399   1.407   2.880 -2.8678 -0.9814  1.3847
  683MOL0     H92194   5.462   1.313   3.023 -0.6100 -0.7296 -1.0338
  683MOL0     H92195   5.627   1.462   3.082  0.5098  2.0458  0.9224
  683MOL0     H92196   5.571   1.585   2.971 -0.7953  0.0403  0.5499
  683MOL0     H92197   5.622   1.397   2.783  0.6009 -5.1447 -0.5955
  683MOL0     H92198   5.693   1.320   2.922  0.1520  1.3149 -2.3920
  683MOL0     H92199   5.796   1.593   2.897  2.2889  1.4778 -2.8162
  683MOL0     H92200   5.855   1.449   2.973  0.2679 -0.1551  0.2039
  683MOL0     H92201   6.030   1.437   2.598 -1.4780 -0.2774 -0.4090
  683MOL0     H92202   5.318   1.433   3.308 -1.8992  4.2279 -1.6195
  683MOL0     H92203   5.196   1.124   3.456  2.2503  0.2710  3.2104
  683MOL0     H92204   5.291   1.275   3.487  0.7631 -1.1728  0.3326
  683MOL0     H92205   5.126   1.272   3.527  0.1916 -1.6343  0.9487
  684MOL0     O92206   9.049   2.218   5.022 -0.2984  0.6185  0.0008
  684MOL0     C92207   9.134   2.312   5.030 -0.5108 -0.5494 -0.4196
  684MOL0     O92208   9.121   2.433   4.973 -0.2609 -1.2176  0.7118
  684MOL0     C92209   9.000   2.461   4.916 -0.1839 -0.6446  0.2308
  684MOL0     C92210   8.893   2.480   5.004 -0.5471  0.3812 -0.8781
  684MOL0     C92211   8.763   2.501   4.956  0.0947 -0.1201  1.1397
  684MOL0     C92212   8.739   2.506   4.817 -0.6836 -0.6054 -0.0756
  684MOL0     O92213   8.621   2.535   4.755  0.4849 -0.2153  0.2888
  684MOL0     C92214   8.549   2.639   4.809  0.7156  0.8529 -0.9484
  684MOL0     C92215   8.612   2.777   4.789  0.0996  0.1328 -0.5464
  684MOL0     C92216   8.529   2.879   4.856 -0.5190 -0.4937 -0.4421
  684MOL0     C92217   8.387   2.882   4.805 -0.1099  0.1648 -0.3455
  684MOL0     C92218   8.319   3.021   4.812  0.5251 -0.1015 -0.2876
  684MOL0     C92219   8.320   3.056   4.966  0.9433  0.2539 -0.6079
  684MOL0     C92220   8.281   3.199   4.988 -0.3151  0.6380 -0.9406
  684MOL0     C92221   8.138   3.246   4.923  0.0963 -0.1381 -0.5869
  684MOL0     N92222   8.152   3.389   4.909 -0.3578 -0.4600 -0.1969
  684MOL0     C92223   8.199   3.464   4.792  0.5338 -0.2086 -0.6938
  684MOL0     C92224   8.186   3.596   4.829  0.6006  0.0246 -0.4193
  684MOL0     C92225   8.217   3.715   4.741  0.4150 -0.7606 -0.3942
  684MOL0     C92226   8.369   3.740   4.740 -0.3145  0.7225 -0.5302
  684MOL0     C92227   8.419   3.792   4.877  0.3401 -0.7287  0.2203
  684MOL0     C92228   8.551   3.735   4.912 -0.7432  0.1352 -0.0067
  684MOL0     O92229   8.633   3.715   4.795 -0.2548 -0.0925  0.6356
  684MOL0     C92230   8.722   3.818   4.771  0.6760 -0.1138 -0.1905
  684MOL0     C92231   8.722   3.953   4.821  0.3461  0.3440 -0.3375
  684MOL0     C92232   8.816   4.043   4.787 -0.1379 -0.3139  0.3216
  684MOL0     C92233   8.921   4.019   4.702 -0.6646 -0.4617 -0.1229
  684MOL0     C92234   9.035   4.108   4.675 -0.0328 -0.6214  0.2259
  684MOL0     O92235   9.076   4.191   4.775 -0.9339 -0.0271 -0.3404
  684MOL0     C92236   9.184   4.271   4.767  0.1494 -0.4297  0.1944
  684MOL0     C92237   9.289   4.227   4.841 -1.3104  0.0741  0.6547
  684MOL0     C92238   9.419   4.286   4.833  0.8257 -0.5213  0.4322
  684MOL0     C92239   9.444   4.388   4.748  0.6009 -0.7138  0.0720
  684MOL0     O92240   9.572   4.425   4.744 -0.2094 -0.6138  0.2504
  684MOL0     C92241   9.615   4.562   4.708 -0.5783  0.8102 -0.6394
  684MOL0     C92242   9.766   4.588   4.682  0.5744 -0.1184 -0.5218
  684MOL0     C92243   9.790   4.738   4.701 -0.8861  0.2645  0.7223
  684MOL0     C92244   9.942   4.764   4.708  0.4070  0.7590 -0.0431
  684MOL0     C92245   9.983   4.912   4.661 -0.0322  0.5764 -0.1600
  684MOL0     C92246  10.016   5.011   4.777  0.7359 -0.1249  0.1161
  684MOL0     C92247  10.145   4.978   4.853 -0.1911 -0.3588 -0.5072
  684MOL0     C92248  10.134   4.996   4.997 -0.2992 -0.6816 -0.7643
  684MOL0    Cl92249  10.003   4.906   5.075 -0.5072  0.0343 -0.5286
  684MOL0     C92250   9.339   4.451   4.683 -0.1468 -0.4628  0.2977
  684MOL0     C92251   9.207   4.383   4.684 -0.5641 -0.1871 -0.2091
  684MOL0     O92252   9.090   4.105   4.567  0.4410 -0.2173  0.0474
  684MOL0     C92253   8.930   3.888   4.648  0.6304 -0.6810 -0.0363
  684MOL0     C92254   8.827   3.792   4.676 -0.0819 -0.5122 -0.4235
  684MOL0     N92255   8.142   3.608   4.962 -0.1617 -0.0064 -0.1543
  684MOL0     N92256   8.115   3.484   5.003  0.2773  0.3849 -0.4996
  684MOL0     C92257   8.848   2.483   4.731 -0.6345  0.3992  0.2001
  684MOL0     C92258   8.977   2.471   4.777 -0.7935 -0.9942 -0.1697
  684MOL0     C92259   9.239   2.294   5.138 -0.1005  0.1340 -0.4593
  684MOL0     C92260   9.333   2.196   5.118  0.5154  0.8085 -0.3887
  684MOL0     C92261   9.437   2.173   5.206  0.0059 -0.4227  0.6867
  684MOL0     C92262   9.444   2.242   5.329  0.6972  0.0056 -0.6634
  684MOL0     O92263   9.534   2.235   5.436  0.3534 -0.3288 -0.0092
  684MOL0     C92264   9.649   2.153   5.421 -0.4135  0.4601 -0.5726
  684MOL0     C92265   9.746   2.183   5.536  1.1151  0.8557  0.4485
  684MOL0     C92266   9.793   2.332   5.517  0.4600  0.3122 -1.1809
  684MOL0     C92267   9.937   2.353   5.560  0.1766 -1.3060  0.8581
  684MOL0     C92268   9.991   2.279   5.678  0.7468 -0.7692 -0.4457
  684MOL0     C92269  10.036   2.230   5.777  0.5149  0.5999 -0.7990
  684MOL0     C92270   9.338   2.324   5.359 -0.5652 -0.0272 -0.8115
  684MOL0     C92271   9.235   2.358   5.269  0.2272  0.1964 -0.5570
  684MOL0     C92272   9.129   2.448   5.308 -0.1204  0.2387 -0.0097
  684MOL0     H92273   8.927   2.475   5.107 -0.1295 -2.4299 -1.0878
  684MOL0     H92274   8.672   2.511   5.015 -0.2659 -0.2585  0.6227
  684MOL0     H92275   8.448   2.623   4.770  0.5191 -0.3049 -0.0199
  684MOL0     H92276   8.540   2.616   4.916  2.3277  1.0375 -0.7565
  684MOL0     H92277   8.623   2.804   4.684 -0.1145  0.4200 -0.4967
  684MOL0     H92278   8.709   2.773   4.840  0.4651 -2.6533 -1.3134
  684MOL0     H92279   8.594   2.964   4.832  1.3772 -1.0123  2.3498
  684MOL0     H92280   8.529   2.856   4.963 -2.2096  0.0100 -0.3032
  684MOL0     H92281   8.388   2.854   4.699  0.1856 -1.0802 -0.0350
  684MOL0     H92282   8.345   2.800   4.864  0.3472  0.9026  1.0449
  684MOL0     H92283   8.365   3.105   4.758 -0.8821  1.4845  0.8810
  684MOL0     H92284   8.221   3.009   4.765  1.2394 -0.2974 -1.8205
  684MOL0     H92285   8.251   2.984   5.013  3.0708 -1.7654 -0.3926
  684MOL0     H92286   8.410   3.039   5.026 -1.5611 -1.7801  2.9969
  684MOL0     H92287   8.364   3.249   4.937  1.9168 -0.5357  1.3603
  684MOL0     H92288   8.274   3.221   5.095 -0.1453 -2.3069 -0.2394
  684MOL0     H92289   8.129   3.213   4.819 -4.2562 -1.6869  0.1101
  684MOL0     H92290   8.051   3.215   4.980 -0.1520 -0.0477 -0.9168
  684MOL0     H92291   8.235   3.427   4.697 -0.7117 -1.0709 -0.8582
  684MOL0     H92292   8.165   3.714   4.644  1.8398  0.0220 -1.1847
  684MOL0     H92293   8.178   3.799   4.799  0.0347 -2.2078  1.5910
  684MOL0     H92294   8.419   3.649   4.706  1.8378  1.2253  1.0932
  684MOL0     H92295   8.385   3.817   4.664 -1.0723  0.9986 -0.4197
  684MOL0     H92296   8.350   3.761   4.957  1.0544 -1.7830  0.4415
  684MOL0     H92297   8.414   3.901   4.882 -0.4733 -0.6484 -1.5379
  684MOL0     H92298   8.529   3.639   4.961 -1.2250 -1.1956 -2.6174
  684MOL0     H92299   8.586   3.802   4.991 -4.9910  2.5025  0.1865
  684MOL0     H92300   8.636   3.981   4.882 -0.2277  1.3443 -1.5510
  684MOL0     H92301   8.794   4.147   4.809  0.5381  0.2815 -1.6498
  684MOL0     H92302   9.271   4.151   4.917  0.4512 -2.2401 -1.1064
  684MOL0     H92303   9.502   4.249   4.892  0.2044 -0.9225  1.0682
  684MOL0     H92304   9.565   4.593   4.616 -0.5829 -2.1967 -1.7657
  684MOL0     H92305   9.592   4.608   4.805 -0.2422 -2.0937  0.9525
  684MOL0     H92306   9.823   4.533   4.757 -1.4175 -1.2964  0.1992
  684MOL0     H92307   9.789   4.572   4.576 -3.9013  1.9191 -2.0595
  684MOL0     H92308   9.754   4.786   4.610 -1.3637  0.9258  1.2475
  684MOL0     H92309   9.740   4.785   4.786  1.0775  1.6766  1.1575
  684MOL0     H92310   9.991   4.693   4.641 -2.0015  1.8581 -3.2233
  684MOL0     H92311   9.974   4.755   4.812  0.7170  0.5077 -0.1600
  684MOL0     H92312   9.896   4.947   4.605 -0.9316 -2.0176 -0.5115
  684MOL0     H92313  10.060   4.906   4.583  0.6558  1.5896  0.4181
  684MOL0     H92314  10.031   5.110   4.732  2.6609 -0.5167 -0.2161
  684MOL0     H92315   9.928   5.016   4.841  0.0407 -1.8127 -0.6615
  684MOL0     H92316  10.232   5.033   4.815  0.0006 -0.2904  0.0199
  684MOL0     H92317  10.162   4.871   4.844  0.1236 -0.4465  0.9164
  684MOL0     H92318  10.235   4.991   5.037 -0.0311  0.0454 -1.3274
  684MOL0     H92319  10.098   5.097   5.021 -1.9453 -1.2067 -0.8739
  684MOL0     H92320   9.341   4.525   4.604 -3.0528 -2.3983 -1.8272
  684MOL0     H92321   9.134   4.411   4.609 -0.1591 -3.5107 -2.0552
  684MOL0     H92322   9.014   3.861   4.585 -0.3069  0.2225 -1.7601
  684MOL0     H92323   8.838   3.692   4.636  1.3374 -0.2106 -0.8777
  684MOL0     H92324   8.845   2.509   4.626  0.9540 -1.7392 -0.4483
  684MOL0     H92325   9.063   2.447   4.715  1.1107  0.9156  1.5775
  684MOL0     H92326   9.322   2.142   5.024  0.4680 -1.8222  1.0056
  684MOL0     H92327   9.500   2.088   5.181 -0.8223 -0.4549 -1.4542
  684MOL0     H92328   9.700   2.176   5.327  2.6297 -2.8854  0.0085
  684MOL0     H92329   9.614   2.049   5.412 -3.6471  1.4803 -1.1856
  684MOL0     H92330   9.821   2.104   5.534 -1.0909 -1.3580 -0.8124
  684MOL0     H92331   9.687   2.166   5.627 -0.0129 -0.6835 -0.5198
  684MOL0     H92332   9.727   2.403   5.569 -1.6474 -2.0095 -0.5194
  684MOL0     H92333   9.767   2.361   5.415 -0.9120 -2.2857 -1.6363
  684MOL0     H92334   9.999   2.314   5.479  4.4202  2.0271  2.0987
  684MOL0     H92335   9.974   2.456   5.566  0.3069 -1.3266  0.4455
  684MOL0     H92336  10.072   2.173   5.860  0.7883 -2.3877 -2.8067
  684MOL0     H92337   9.337   2.377   5.453  2.4235 -1.5048  0.1965
  684MOL0     H92338   9.130   2.458   5.417  3.3718  1.4245 -0.0300
  684MOL0     H92339   9.142   2.543   5.255 -0.9372 -1.6005 -3.8827
  684MOL0     H92340   9.035   2.398   5.285 -0.0596 -0.3991  1.0460
  685MOL0     O92341   6.793   1.823   6.434 -0.0738 -0.9422  0.1205
  685MOL0     C92342   6.770   1.773   6.322 -0.5117  0.3080  0.8960
  685MOL0     O92343   6.660   1.699   6.292 -0.0936  0.3257 -0.9426
  685MOL0     C92344   6.606   1.612   6.380  0.1149 -0.7141 -0.1905
  685MOL0     C92345   6.468   1.588   6.350 -0.4097 -0.0601 -0.5942
  685MOL0     C92346   6.382   1.513   6.425  0.2862 -0.2592  0.3600
  685MOL0     C92347   6.446   1.435   6.517  0.1166  0.2872 -0.1742
  685MOL0     O92348   6.362   1.353   6.593  0.2731 -0.3915 -0.3553
  685MOL0     C92349   6.388   1.361   6.729  1.5058 -0.0301 -1.3008
  685MOL0     C92350   6.270   1.305   6.822 -0.7015  0.4131  0.0773
  685MOL0     C92351   6.145   1.392   6.823  0.1139 -0.7082  0.0551
  685MOL0     C92352   6.068   1.372   6.951 -0.1805 -0.7229 -0.9504
  685MOL0     C92353   5.986   1.244   6.963  0.1000  0.3314  0.1810
  685MOL0     C92354   5.861   1.265   7.060 -0.5387  0.3235  0.3209
  685MOL0     C92355   5.809   1.124   7.102 -0.3226 -0.2012  0.3338
  685MOL0     C92356   5.767   1.017   6.992  0.2853  0.3801 -0.4213
  685MOL0     N92357   5.626   1.023   6.942 -0.8146 -0.2595 -0.0051
  685MOL0     C92358   5.573   0.964   6.826  0.4987  0.2126  0.6638
  685MOL0     C92359   5.441   0.992   6.833  0.8768  0.0958  0.4364
  685MOL0     C92360   5.340   0.952   6.722  0.5093 -0.2816 -0.0089
  685MOL0     C92361   5.285   1.082   6.646  0.0292  0.9355 -0.1158
  685MOL0     C92362   5.143   1.044   6.594  0.3993  0.2777 -0.0286
  685MOL0     C92363   5.131   0.920   6.515 -0.2546 -0.5470  0.8321
  685MOL0     O92364   5.216   0.928   6.406  0.0596 -0.1107 -0.1962
  685MOL0     C92365   5.213   0.815   6.320  0.7505 -0.3774 -0.4005
  685MOL0     C92366   5.109   0.713   6.319  0.8724  0.4582  0.1493
  685MOL0     C92367   5.118   0.605   6.231  0.2479 -0.6671 -0.8127
  685MOL0     C92368   5.234   0.595   6.149  0.2626  0.2814 -0.0787
  685MOL0     C92369   5.242   0.489   6.048  1.1315  0.0044 -0.2340
  685MOL0     O92370   5.127   0.409   6.025 -0.5171  0.2074 -0.4737
  685MOL0     C92371   5.144   0.312   5.933 -0.0743 -0.3778 -0.5097
  685MOL0     C92372   5.194   0.193   5.989  0.0845 -0.3534 -0.2283
  685MOL0     C92373   5.193   0.083   5.910 -0.0009  0.4546  1.3700
  685MOL0     C92374   5.148   0.084   5.773 -0.0097  0.2502 -0.4660
  685MOL0     O92375   5.145  -0.036   5.706  0.7404 -0.0091 -0.1132
  685MOL0     C92376   5.028  -0.063   5.620  0.5490 -1.2388  0.4624
  685MOL0     C92377   5.018  -0.213   5.593 -0.9818  0.8950  0.6880
  685MOL0     C92378   4.977  -0.304   5.710 -0.0217  0.2907  0.4944
  685MOL0     C92379   5.010  -0.448   5.666 -0.0755 -0.7751 -0.1113
  685MOL0     C92380   5.032  -0.542   5.783  0.0005  0.2934  1.0805
  685MOL0     C92381   5.023  -0.679   5.733  0.4155 -0.4369  0.4191
  685MOL0     C92382   5.027  -0.773   5.858  0.3025 -0.1430 -0.0730
  685MOL0     C92383   4.887  -0.827   5.905  0.4826  0.3524 -0.6067
  685MOL0    Cl92384   4.782  -0.683   5.970 -0.4450 -0.1478  0.0310
  685MOL0     C92385   5.109   0.214   5.711  0.5586  1.0152 -0.6145
  685MOL0     C92386   5.109   0.329   5.801 -0.3895 -0.8167  0.4832
  685MOL0     O92387   5.352   0.473   5.992 -0.0591  0.3251  0.6733
  685MOL0     C92388   5.331   0.690   6.150  0.4263 -0.6671 -0.2546
  685MOL0     C92389   5.324   0.799   6.233 -0.4913  0.7337  1.0229
  685MOL0     N92390   5.409   1.067   6.944  0.4567  0.6245  0.6916
  685MOL0     N92391   5.517   1.086   7.008 -0.0895 -0.0317 -0.2570
  685MOL0     C92392   6.587   1.449   6.553  0.4897  0.5424  0.3173
  685MOL0     C92393   6.664   1.537   6.479  0.5804 -0.2092 -0.9318
  685MOL0     C92394   6.837   1.828   6.196  0.3821 -0.4194 -0.8290
  685MOL0     C92395   6.874   1.969   6.193  1.4130  1.1386  0.9603
  685MOL0     C92396   6.923   2.019   6.081  0.0518  0.6910 -0.0231
  685MOL0     C92397   6.948   1.945   5.965 -0.5358  0.2066  0.6492
  685MOL0     O92398   7.009   1.994   5.849  0.4151  0.0465  0.4286
  685MOL0     C92399   7.017   2.138   5.817  0.3996  0.0771 -0.5636
  685MOL0     C92400   7.084   2.151   5.683 -0.2837  0.4493  0.3122
  685MOL0     C92401   7.102   2.302   5.646  0.0417  0.0074  0.6259
  685MOL0     C92402   7.204   2.372   5.738  0.0936  1.5584 -0.2856
  685MOL0     C92403   7.329   2.296   5.730 -0.8191 -0.2932  0.0834
  685MOL0     C92404   7.433   2.231   5.731  0.4614  0.3541 -0.5241
  685MOL0     C92405   6.928   1.809   5.969  0.3236 -0.1534  0.1992
  685MOL0     C92406   6.865   1.750   6.083 -0.0455 -0.1906 -0.8375
  685MOL0     C92407   6.832   1.600   6.075 -0.9460  0.4546 -0.0696
  685MOL0     H92408   6.437   1.630   6.254  2.1377  0.9766 -1.0539
  685MOL0     H92409   6.277   1.498   6.403  0.2990  1.1864 -0.8777
  685MOL0     H92410   6.474   1.295   6.746 -0.5514 -3.7686 -3.9455
  685MOL0     H92411   6.405   1.464   6.762  0.2377  0.0107 -0.6768
  685MOL0     H92412   6.304   1.297   6.925 -0.7933 -1.5656  0.0040
  685MOL0     H92413   6.242   1.203   6.792  3.4014 -0.5517 -1.0849
  685MOL0     H92414   6.081   1.374   6.737 -1.9402 -2.3167  1.8026
  685MOL0     H92415   6.163   1.500   6.832 -0.8888 -0.5592  0.4262
  685MOL0     H92416   6.130   1.373   7.040 -1.6932  0.7029  0.1501
  685MOL0     H92417   6.000   1.457   6.960  0.1710 -0.6667  5.1874
  685MOL0     H92418   5.970   1.221   6.857  0.6973  1.8918 -0.2795
  685MOL0     H92419   6.046   1.163   7.006 -0.6736 -0.0390  0.5691
  685MOL0     H92420   5.893   1.327   7.144  2.9153  2.0188 -2.0077
  685MOL0     H92421   5.777   1.307   7.004 -0.6325 -0.2698  0.0086
  685MOL0     H92422   5.713   1.141   7.152  0.0495 -1.1844  1.4165
  685MOL0     H92423   5.874   1.073   7.174 -1.9600 -0.5893  1.6012
  685MOL0     H92424   5.834   1.031   6.907  1.8637  2.0267  0.9984
  685MOL0     H92425   5.758   0.915   7.031 -2.9699 -0.3575 -2.7255
  685MOL0     H92426   5.621   0.898   6.755  1.5986  1.4434  0.2049
  685MOL0     H92427   5.389   0.887   6.648  0.2476  2.2091 -2.5440
  685MOL0     H92428   5.260   0.896   6.772  0.4764  1.5948  2.1754
  685MOL0     H92429   5.270   1.169   6.710  0.1266  0.9384 -0.0977
  685MOL0     H92430   5.351   1.109   6.564 -0.5723  0.7696 -0.6615
  685MOL0     H92431   5.111   1.126   6.529  1.1531  0.5487 -0.0652
  685MOL0     H92432   5.075   1.037   6.680 -1.4831  1.7965 -1.3013
  685MOL0     H92433   5.031   0.909   6.473 -0.2712  0.2832  0.6414
  685MOL0     H92434   5.155   0.833   6.577 -3.1726 -1.5465  0.7372
  685MOL0     H92435   5.020   0.721   6.380 -0.1711  4.2371 -1.5556
  685MOL0     H92436   5.045   0.526   6.224 -0.2370 -0.1816 -1.3537
  685MOL0     H92437   5.223   0.186   6.093  1.3677 -0.3453 -0.5637
  685MOL0     H92438   5.228  -0.015   5.943 -1.2190  0.1864  1.9313
  685MOL0     H92439   4.935  -0.033   5.668 -0.1530  0.2165 -1.6463
  685MOL0     H92440   5.042  -0.018   5.521  2.6322  1.0965  1.6927
  685MOL0     H92441   4.944  -0.227   5.514 -0.0793 -0.3720  0.0262
  685MOL0     H92442   5.120  -0.235   5.558 -1.2185  0.7685  0.0588
  685MOL0     H92443   5.040  -0.275   5.795  0.8641 -1.1162  0.3520
  685MOL0     H92444   4.872  -0.292   5.737 -0.4384  0.4932 -1.1722
  685MOL0     H92445   5.098  -0.450   5.601 -1.0905  2.9109 -1.8971
  685MOL0     H92446   4.936  -0.486   5.594  3.6030 -2.8661 -3.2089
  685MOL0     H92447   4.958  -0.524   5.862  0.0619 -1.3236  1.5258
  685MOL0     H92448   5.134  -0.525   5.820  0.4613  2.6919 -0.9934
  685MOL0     H92449   4.928  -0.693   5.681  0.4898  1.6220 -0.3611
  685MOL0     H92450   5.105  -0.695   5.663 -0.3670 -1.5107 -0.2872
  685MOL0     H92451   5.068  -0.710   5.938 -0.3745  3.5337 -2.3747
  685MOL0     H92452   5.095  -0.857   5.839  0.7700  0.4691 -1.2430
  685MOL0     H92453   4.830  -0.874   5.824 -2.2907  1.2419  0.6846
  685MOL0     H92454   4.896  -0.901   5.984  0.5323  2.4617  1.4590
  685MOL0     H92455   5.082   0.213   5.606  0.8030 -1.4278 -0.7014
  685MOL0     H92456   5.076   0.421   5.753  1.5482 -1.4011 -2.2024
  685MOL0     H92457   5.420   0.680   6.088 -0.0398  0.3207 -1.1204
  685MOL0     H92458   5.401   0.875   6.239  0.3934  0.4238 -3.2807
  685MOL0     H92459   6.629   1.409   6.644  0.2381 -1.0405 -0.2172
  685MOL0     H92460   6.767   1.553   6.508  0.5979  1.2098 -1.7071
  685MOL0     H92461   6.862   2.024   6.285  2.4283  0.6888  1.3835
  685MOL0     H92462   6.963   2.120   6.081  0.6164  0.5475 -2.8033
  685MOL0     H92463   7.078   2.195   5.887 -0.9056 -0.6915  1.2739
  685MOL0     H92464   6.921   2.190   5.813  0.2182 -0.1762  0.3355
  685MOL0     H92465   7.030   2.087   5.613  0.0463 -1.4213  1.6944
  685MOL0     H92466   7.177   2.097   5.703 -0.2589  0.5951  0.5960
  685MOL0     H92467   7.011   2.363   5.658  1.0583  1.3805  1.7828
  685MOL0     H92468   7.128   2.310   5.540  0.1369  0.7535  0.6999
  685MOL0     H92469   7.219   2.476   5.710 -0.1356  1.3698 -1.1300
  685MOL0     H92470   7.186   2.386   5.845  2.4788  0.9948  0.2615
  685MOL0     H92471   7.529   2.185   5.732  0.8000  1.0306 -1.1115
  685MOL0     H92472   6.953   1.745   5.885 -1.2108  0.1328 -0.5123
  685MOL0     H92473   6.902   1.552   6.007 -1.5523 -0.2574 -0.2099
  685MOL0     H92474   6.847   1.554   6.173  1.9979 -1.5891 -1.3288
  685MOL0     H92475   6.728   1.585   6.044 -1.0240  0.8811 -0.0185
  686MOL0     O92476   4.586   4.192   8.819 -0.7762  0.4365  0.5284
  686MOL0     C92477   4.609   4.086   8.763  0.1504  0.4847  0.2818
  686MOL0     O92478   4.687   4.069   8.649  0.4976 -0.3730 -0.4077
  686MOL0     C92479   4.751   4.166   8.587 -0.8805 -0.8219  0.6660
  686MOL0     C92480   4.725   4.180   8.453  0.4120 -0.1073  0.6592
  686MOL0     C92481   4.777   4.282   8.369 -0.2096  0.4837  0.3011
  686MOL0     C92482   4.853   4.377   8.430 -0.0477 -0.6245 -0.1762
  686MOL0     O92483   4.887   4.495   8.361  0.5585  0.5570  0.1528
  686MOL0     C92484   4.839   4.618   8.409 -0.3542  0.1463  0.3429
  686MOL0     C92485   4.860   4.724   8.300  0.3097  0.0837 -0.8651
  686MOL0     C92486   4.794   4.847   8.342  0.2037  0.6878 -0.7874
  686MOL0     C92487   4.829   4.966   8.251  0.3745 -0.2820 -0.6575
  686MOL0     C92488   4.758   5.103   8.289  0.2795  0.4395  0.3760
  686MOL0     C92489   4.831   5.225   8.229  0.1432  0.7407 -1.0875
  686MOL0     C92490   4.746   5.347   8.224 -0.2101 -0.0008  0.1800
  686MOL0     C92491   4.678   5.373   8.352 -0.3165  0.2923 -0.0586
  686MOL0     N92492   4.628   5.513   8.360 -0.0631 -0.0688 -0.3334
  686MOL0     C92493   4.703   5.628   8.377  0.0353 -0.2513  0.1047
  686MOL0     C92494   4.620   5.723   8.424  0.9877  0.7220  0.0484
  686MOL0     C92495   4.642   5.865   8.469 -0.0298 -0.5375 -0.7112
  686MOL0     C92496   4.690   5.944   8.338  0.8179 -0.5024 -0.4216
  686MOL0     C92497   4.579   5.957   8.229  0.7672 -0.3162 -0.6315
  686MOL0     C92498   4.616   6.043   8.109  0.4848  0.2438  0.3620
  686MOL0     O92499   4.500   6.073   8.037 -0.0676 -0.3260 -0.7784
  686MOL0     C92500   4.510   6.120   7.908 -0.8138  0.4826 -1.0791
  686MOL0     C92501   4.629   6.146   7.834 -0.3031 -0.3182 -0.8183
  686MOL0     C92502   4.620   6.200   7.709  0.1636 -0.7411  0.6014
  686MOL0     C92503   4.503   6.223   7.635  0.1318 -0.2700 -0.2412
  686MOL0     C92504   4.505   6.261   7.491  0.0181  0.3941 -0.8720
  686MOL0     O92505   4.391   6.318   7.446 -0.0238 -0.3473 -0.1342
  686MOL0     C92506   4.361   6.348   7.319 -0.0630 -1.0213  0.0690
  686MOL0     C92507   4.426   6.300   7.205  0.2240 -0.9921  0.5636
  686MOL0     C92508   4.382   6.344   7.078 -0.1959 -0.2732  1.7181
  686MOL0     C92509   4.267   6.426   7.060 -0.0568 -0.4914 -0.1873
  686MOL0     O92510   4.226   6.466   6.932 -0.4333  0.2545  0.0921
  686MOL0     C92511   4.315   6.567   6.882  1.0278  0.1075 -0.9840
  686MOL0     C92512   4.356   6.517   6.744  0.1737  0.1236 -0.4216
  686MOL0     C92513   4.231   6.497   6.659  0.7988  0.4457 -0.8487
  686MOL0     C92514   4.264   6.464   6.519 -0.2869 -0.3931  0.5569
  686MOL0     C92515   4.151   6.396   6.443 -0.7705 -0.7399  0.1138
  686MOL0     C92516   4.152   6.251   6.469 -0.6549 -0.2277  0.2385
  686MOL0     C92517   4.013   6.177   6.477 -0.6586 -0.8493 -0.6796
  686MOL0     C92518   3.932   6.191   6.349  0.7136  0.2485  1.2875
  686MOL0    Cl92519   3.774   6.119   6.373 -0.1890 -0.2347  0.5812
  686MOL0     C92520   4.203   6.468   7.175 -0.5449 -0.7579 -1.0348
  686MOL0     C92521   4.252   6.432   7.300 -0.1951 -0.0008  0.2366
  686MOL0     O92522   4.614   6.238   7.428 -0.3525  0.3350 -0.1035
  686MOL0     C92523   4.387   6.178   7.692  0.4224  0.0367 -0.1320
  686MOL0     C92524   4.385   6.136   7.828  0.5647  0.0176 -0.4407
  686MOL0     N92525   4.491   5.665   8.433 -0.1180 -0.1265 -0.8840
  686MOL0     N92526   4.498   5.543   8.392  0.0702  1.0280  0.3960
  686MOL0     C92527   4.858   4.379   8.574  0.1649 -0.2014  0.4706
  686MOL0     C92528   4.824   4.276   8.646  0.3664  0.3440 -0.4214
  686MOL0     C92529   4.558   3.964   8.830 -0.5886 -0.6324 -0.3712
  686MOL0     C92530   4.586   3.842   8.775  0.2859 -0.2382  0.5253
  686MOL0     C92531   4.539   3.721   8.825 -0.1805 -0.4054 -0.9300
  686MOL0     C92532   4.487   3.719   8.959 -0.1583  0.2215  0.3184
  686MOL0     O92533   4.453   3.612   9.032  0.3640 -0.3594 -0.1171
  686MOL0     C92534   4.488   3.481   8.972  0.3243 -0.1516 -0.6385
  686MOL0     C92535   4.427   3.366   9.047 -0.6488 -0.6017  0.4928
  686MOL0     C92536   4.275   3.373   9.031 -0.2546 -0.0354 -0.7706
  686MOL0     C92537   4.214   3.256   9.106  0.6250  0.0843  0.3612
  686MOL0     C92538   4.215   3.276   9.249 -0.4877 -0.2553  0.5092
  686MOL0     C92539   4.194   3.299   9.366  0.2134  0.5484 -0.0590
  686MOL0     C92540   4.483   3.839   9.028  0.1675  0.1169  0.0688
  686MOL0     C92541   4.514   3.963   8.968  0.6637 -0.1903  0.0077
  686MOL0     C92542   4.514   4.080   9.069 -0.1915  0.4741  0.2648
  686MOL0     H92543   4.662   4.112   8.397 -0.1468  1.4377 -0.6592
  686MOL0     H92544   4.771   4.281   8.261 -1.6916  0.5970  0.3523
  686MOL0     H92545   4.731   4.601   8.413 -0.5737 -0.1199 -3.2045
  686MOL0     H92546   4.891   4.644   8.501  3.4744 -1.0068 -1.2771
  686MOL0     H92547   4.814   4.703   8.203 -1.6714  1.9409 -0.4254
  686MOL0     H92548   4.966   4.749   8.288 -0.1945  2.6323 -0.5219
  686MOL0     H92549   4.821   4.863   8.446  1.4398  1.7719 -1.2344
  686MOL0     H92550   4.687   4.828   8.335  0.7761 -2.7508 -1.9465
  686MOL0     H92551   4.938   4.977   8.246  0.6878 -2.9284 -0.7881
  686MOL0     H92552   4.788   4.946   8.152  0.5594  0.1601 -0.8292
  686MOL0     H92553   4.650   5.106   8.273 -0.0802  2.2124  2.6253
  686MOL0     H92554   4.751   5.099   8.398 -1.1166 -0.4928  0.2756
  686MOL0     H92555   4.928   5.229   8.280  1.6137  1.2109 -3.7253
  686MOL0     H92556   4.851   5.196   8.125 -3.4069 -1.6096 -1.3012
  686MOL0     H92557   4.668   5.348   8.147 -1.9539 -0.8576  1.8638
  686MOL0     H92558   4.810   5.429   8.189 -0.0473 -0.6501 -1.1240
  686MOL0     H92559   4.598   5.300   8.365 -0.4650  0.6020  0.8152
  686MOL0     H92560   4.748   5.364   8.436 -0.8363  0.3700  0.3886
  686MOL0     H92561   4.807   5.650   8.353 -1.1497  2.7473 -3.2822
  686MOL0     H92562   4.539   5.896   8.489  0.0542 -1.9120  2.4168
  686MOL0     H92563   4.708   5.877   8.555 -0.8847 -1.7517  0.1441
  686MOL0     H92564   4.726   6.045   8.359 -0.5328  0.0246 -0.5329
  686MOL0     H92565   4.774   5.889   8.297  1.9699  1.2436 -0.5261
  686MOL0     H92566   4.494   6.006   8.279  4.0348  3.9472  1.3771
  686MOL0     H92567   4.546   5.857   8.199 -0.2195 -0.2981  0.3145
  686MOL0     H92568   4.685   5.983   8.050  1.6906 -0.8759  2.7503
  686MOL0     H92569   4.663   6.132   8.152  1.2309 -0.8122  1.8432
  686MOL0     H92570   4.721   6.141   7.890 -1.3610  0.4202  1.1131
  686MOL0     H92571   4.720   6.228   7.677 -0.0950  1.3339  1.4077
  686MOL0     H92572   4.512   6.237   7.220  0.4580 -0.1081  3.6522
  686MOL0     H92573   4.437   6.310   6.991 -0.2348  2.6967  0.3855
  686MOL0     H92574   4.263   6.662   6.866  1.4306  0.6945  0.9688
  686MOL0     H92575   4.398   6.579   6.952 -0.0915 -2.6850  0.9936
  686MOL0     H92576   4.410   6.600   6.696  2.1886  0.1579  1.6914
  686MOL0     H92577   4.421   6.429   6.748 -2.5114 -1.9738 -0.7241
  686MOL0     H92578   4.175   6.414   6.703  2.8612 -0.4327  0.2749
  686MOL0     H92579   4.166   6.585   6.664  0.6568  0.2896  0.2287
  686MOL0     H92580   4.344   6.390   6.505 -1.8329 -1.7264 -2.0723
  686MOL0     H92581   4.291   6.554   6.463  1.2594 -1.2326 -0.1134
  686MOL0     H92582   4.166   6.408   6.335  0.5243 -1.3427  0.2093
  686MOL0     H92583   4.055   6.439   6.474 -1.0709  1.0188 -2.8448
  686MOL0     H92584   4.210   6.212   6.385 -2.2358 -2.4322  0.0920
  686MOL0     H92585   4.206   6.224   6.560 -3.0544  0.3959  1.9382
  686MOL0     H92586   3.952   6.208   6.562 -1.2938 -5.8031  0.9723
  686MOL0     H92587   4.026   6.070   6.494 -1.7648 -1.2143 -1.9153
  686MOL0     H92588   3.919   6.298   6.331 -0.8157 -0.3265 -1.6379
  686MOL0     H92589   3.990   6.157   6.263  1.3757  1.3830  1.2612
  686MOL0     H92590   4.123   6.541   7.173 -1.2529 -1.2963  2.2190
  686MOL0     H92591   4.200   6.469   7.387  0.6000 -1.4866  1.3964
  686MOL0     H92592   4.295   6.190   7.635  0.5898 -4.4083 -1.7056
  686MOL0     H92593   4.295   6.096   7.872  0.6266  1.3511  0.9684
  686MOL0     H92594   4.909   4.470   8.603 -1.6267  1.1000 -0.2462
  686MOL0     H92595   4.832   4.285   8.754  1.7144  0.4026 -0.5157
  686MOL0     H92596   4.644   3.836   8.684 -0.4008  0.9984 -0.0133
  686MOL0     H92597   4.557   3.624   8.780 -0.3449 -1.5206  1.2379
  686MOL0     H92598   4.597   3.468   8.975  0.1555 -1.6983  0.0334
  686MOL0     H92599   4.464   3.481   8.865  0.5427  1.7976 -0.7095
  686MOL0     H92600   4.463   3.384   9.149  0.7485  2.0885 -0.3822
  686MOL0     H92601   4.471   3.276   9.003  1.1084  0.4150  0.0701
  686MOL0     H92602   4.250   3.373   8.925  2.4103  2.5366 -1.5387
  686MOL0     H92603   4.250   3.474   9.066  0.0634  0.5363 -2.1345
  686MOL0     H92604   4.113   3.254   9.065  0.8719  1.2193 -0.3644
  686MOL0     H92605   4.265   3.162   9.084  0.3065  0.5088 -2.6320
  686MOL0     H92606   4.188   3.346   9.461 -0.4406  0.7631 -0.1980
  686MOL0     H92607   4.473   3.844   9.136  1.2689  3.6557  0.1605
  686MOL0     H92608   4.618   4.110   9.087  0.2965  0.5338 -2.2853
  686MOL0     H92609   4.454   4.161   9.027  0.2543  0.2913 -0.7640
  686MOL0     H92610   4.461   4.048   9.159 -2.8981  0.3273 -1.2925
  687MOL0     O92611   0.272   5.953   6.969  0.6469 -0.2819 -0.1582
  687MOL0     C92612   0.336   5.845   6.994 -1.7656 -0.2557 -0.4141
  687MOL0     O92613   0.419   5.784   6.914  0.2936  0.6398 -0.4323
  687MOL0     C92614   0.437   5.807   6.782 -0.1611 -0.0728 -0.2452
  687MOL0     C92615   0.337   5.855   6.694  0.7737 -0.1926 -0.3711
  687MOL0     C92616   0.351   5.848   6.553  0.7346 -0.3634 -0.0053
  687MOL0     C92617   0.472   5.813   6.502  0.8517  0.1557 -0.1484
  687MOL0     O92618   0.505   5.827   6.372  0.9007  0.4066 -0.2115
  687MOL0     C92619   0.425   5.774   6.262 -0.1721 -0.1922  0.0427
  687MOL0     C92620   0.423   5.622   6.270  0.2127  0.7810  0.8018
  687MOL0     C92621   0.355   5.565   6.140  0.3208 -0.4884  1.4593
  687MOL0     C92622   0.389   5.417   6.120  0.1010  0.1892  0.5790
  687MOL0     C92623   0.338   5.378   5.975 -0.0327 -0.4023 -0.3258
  687MOL0     C92624   0.452   5.419   5.861  0.4059 -0.4119 -0.6674
  687MOL0     C92625   0.390   5.402   5.724 -0.6338  0.4459  0.0838
  687MOL0     C92626   0.493   5.406   5.610  0.4382 -0.2492  0.3944
  687MOL0     N92627   0.563   5.540   5.585 -0.1909 -0.4108 -0.8992
  687MOL0     C92628   0.501   5.642   5.517  0.4489  0.3195 -0.3307
  687MOL0     C92629   0.595   5.734   5.495 -0.0743  0.1575 -0.4238
  687MOL0     C92630   0.593   5.865   5.416 -0.9538  1.1929  0.3002
  687MOL0     C92631   0.650   5.984   5.487  0.5325  0.4664 -0.2118
  687MOL0     C92632   0.575   6.026   5.619 -0.0702  0.0541  0.3822
  687MOL0     C92633   0.439   6.081   5.590 -0.1226  0.1940 -0.0344
  687MOL0     O92634   0.445   6.204   5.514 -0.3480 -0.8159  0.3281
  687MOL0     C92635   0.456   6.319   5.588 -0.9005 -1.3598 -0.2126
  687MOL0     C92636   0.544   6.434   5.544  0.7275 -0.4757 -0.2006
  687MOL0     C92637   0.537   6.562   5.607  1.2381  0.1131  0.1301
  687MOL0     C92638   0.446   6.584   5.712 -0.8732 -0.6390  0.4851
  687MOL0     C92639   0.443   6.713   5.773  0.0913 -0.4207 -0.0761
  687MOL0     O92640   0.355   6.732   5.879 -0.9564  0.0144  0.2336
  687MOL0     C92641   0.340   6.852   5.936  0.7090  0.0828 -0.1675
  687MOL0     C92642   0.238   6.943   5.897  0.1535  1.6196 -0.5718
  687MOL0     C92643   0.231   7.069   5.960  0.0947 -0.5400  0.4434
  687MOL0     C92644   0.317   7.115   6.052 -0.2929  0.2231 -0.2042
  687MOL0     O92645   0.318   7.246   6.110 -0.5540  0.5049 -0.5567
  687MOL0     C92646   0.225   7.346   6.074 -0.9564 -0.1963  0.0475
  687MOL0     C92647   0.265   7.468   6.165 -0.4562  0.1759 -0.2302
  687MOL0     C92648   0.412   7.517   6.137 -0.3267  1.2809  0.1002
  687MOL0     C92649   0.424   7.674   6.106 -0.6450 -0.5658 -0.8566
  687MOL0     C92650   0.400   7.688   5.954  0.3598 -0.3614 -0.3831
  687MOL0     C92651   0.383   7.835   5.907 -0.6358  0.2816  0.8662
  687MOL0     C92652   0.444   7.848   5.768  0.5074  0.2523  0.5070
  687MOL0     C92653   0.467   7.990   5.738  1.0323 -0.3294  0.5012
  687MOL0    Cl92654   0.300   8.070   5.746 -0.0473 -0.3641  0.3979
  687MOL0     C92655   0.420   7.035   6.081  0.0112  0.7739  0.4118
  687MOL0     C92656   0.433   6.902   6.028  0.5285  0.1241 -0.1054
  687MOL0     O92657   0.498   6.807   5.711  0.1498  0.2562 -0.0947
  687MOL0     C92658   0.367   6.478   5.753  0.9420  1.6604  1.2519
  687MOL0     C92659   0.374   6.352   5.698 -0.6733 -0.0303 -0.0130
  687MOL0     N92660   0.712   5.680   5.543  0.7507 -0.4671  0.4736
  687MOL0     N92661   0.693   5.572   5.594 -0.2309  0.3008 -0.2670
  687MOL0     C92662   0.581   5.788   6.581  0.1924  0.6390  0.1655
  687MOL0     C92663   0.563   5.773   6.721 -0.7103 -0.4533  0.4411
  687MOL0     C92664   0.321   5.782   7.121 -0.0926 -1.0987 -0.3364
  687MOL0     C92665   0.189   5.786   7.177 -0.1251  0.5744 -0.0746
  687MOL0     C92666   0.168   5.719   7.301 -0.2842 -0.6743 -1.0240
  687MOL0     C92667   0.270   5.685   7.390  0.3459  0.0572  0.3487
  687MOL0     O92668   0.244   5.645   7.514  0.0578 -0.3544 -0.1750
  687MOL0     C92669   0.222   5.507   7.531 -1.0224 -0.9547  0.3926
  687MOL0     C92670   0.324   5.455   7.624  0.0077 -0.4318 -0.9037
  687MOL0     C92671   0.308   5.516   7.765 -0.2647 -0.3061 -0.5605
  687MOL0     C92672   0.183   5.463   7.843 -0.5649  0.0835 -0.5778
  687MOL0     C92673   0.191   5.508   7.987 -0.4670 -0.8506  0.9621
  687MOL0     C92674   0.203   5.554   8.095  0.2170 -0.3928  0.5458
  687MOL0     C92675   0.399   5.690   7.335 -0.2528 -0.1248  0.6210
  687MOL0     C92676   0.433   5.743   7.208 -0.0611  0.0167  0.2816
  687MOL0     C92677   0.580   5.747   7.177  0.2647 -1.1075  0.1113
  687MOL0     H92678   0.241   5.874   6.742  0.7915 -0.1070 -0.3692
  687MOL0     H92679   0.272   5.879   6.485 -1.9522 -3.5640  1.3704
  687MOL0     H92680   0.322   5.810   6.255 -0.9389 -2.4102 -1.1215
  687MOL0     H92681   0.474   5.803   6.168  0.4099 -1.6582 -0.1317
  687MOL0     H92682   0.374   5.573   6.355  2.3930 -3.1600  0.0347
  687MOL0     H92683   0.517   5.568   6.284 -0.1535  0.4711  2.2191
  687MOL0     H92684   0.405   5.618   6.058 -1.8049  2.4768  1.9131
  687MOL0     H92685   0.248   5.589   6.134  1.1121  3.6925  0.9367
  687MOL0     H92686   0.493   5.387   6.137 -0.8980 -2.8507  2.0427
  687MOL0     H92687   0.327   5.346   6.176  0.1875 -1.4012 -1.2678
  687MOL0     H92688   0.339   5.269   5.966  1.6149 -0.2384 -3.6258
  687MOL0     H92689   0.238   5.412   5.947 -1.0489 -2.4954  0.5404
  687MOL0     H92690   0.487   5.520   5.882 -0.0211 -0.7061  1.7409
  687MOL0     H92691   0.534   5.347   5.858 -1.0923 -2.1908 -3.0036
  687MOL0     H92692   0.320   5.481   5.696 -1.0893 -0.2244 -0.7203
  687MOL0     H92693   0.352   5.302   5.703  0.4351 -0.6163  2.8265
  687MOL0     H92694   0.573   5.333   5.625  0.6448  0.2100  1.6787
  687MOL0     H92695   0.434   5.381   5.522  1.7664  0.0950 -0.6177
  687MOL0     H92696   0.400   5.643   5.479  0.9135 -1.5904 -1.7581
  687MOL0     H92697   0.650   5.839   5.327  1.3428  0.1192  2.0025
  687MOL0     H92698   0.491   5.887   5.383 -1.4097 -4.3511 -3.3711
  687MOL0     H92699   0.748   5.956   5.527  0.4693 -0.2487 -0.5429
  687MOL0     H92700   0.657   6.076   5.428 -3.7913 -1.4741 -4.3024
  687MOL0     H92701   0.635   6.097   5.676 -0.7270  0.3956  0.6611
  687MOL0     H92702   0.565   5.930   5.672 -1.3873 -0.9494 -1.5621
  687MOL0     H92703   0.379   6.085   5.681 -0.0872 -4.2802  0.3855
  687MOL0     H92704   0.384   6.004   5.536 -0.9269 -0.1193  1.1905
  687MOL0     H92705   0.608   6.421   5.458  2.2530 -1.4490  1.0350
  687MOL0     H92706   0.599   6.646   5.579  0.9864  0.6037  1.0054
  687MOL0     H92707   0.160   6.911   5.830 -0.5833  2.0029  0.0854
  687MOL0     H92708   0.152   7.119   5.904  0.4169 -1.7590 -1.1956
  687MOL0     H92709   0.245   7.370   5.970  2.0057 -1.7717  0.1613
  687MOL0     H92710   0.120   7.317   6.088 -1.2440  0.8490  0.1632
  687MOL0     H92711   0.199   7.555   6.151  0.4954  0.6702 -1.9564
  687MOL0     H92712   0.261   7.443   6.271  0.9304  4.6910  1.1355
  687MOL0     H92713   0.463   7.494   6.232 -2.8629  0.2082  1.2937
  687MOL0     H92714   0.455   7.470   6.048  1.3422  0.5237  1.2435
  687MOL0     H92715   0.524   7.717   6.118 -1.3872  0.4403  3.2094
  687MOL0     H92716   0.342   7.720   6.163 -0.5610 -0.9721 -0.4010
  687MOL0     H92717   0.314   7.640   5.907  2.4963  0.0238 -5.2195
  687MOL0     H92718   0.491   7.640   5.916 -0.3069 -2.0410  0.0419
  687MOL0     H92719   0.278   7.867   5.908 -1.6629 -1.6333 -5.4443
  687MOL0     H92720   0.432   7.900   5.981 -1.4533  1.9132  0.0275
  687MOL0     H92721   0.388   7.801   5.687 -0.2657  1.8796  0.0356
  687MOL0     H92722   0.539   7.798   5.786 -0.1503 -1.0670  0.4138
  687MOL0     H92723   0.547   8.036   5.798  1.7841  2.1191 -2.1250
  687MOL0     H92724   0.503   8.000   5.636 -1.6946 -1.2091 -0.6335
  687MOL0     H92725   0.489   7.080   6.152  1.1716 -2.4441  1.5154
  687MOL0     H92726   0.525   6.852   6.059  0.7013  1.4996  1.7638
  687MOL0     H92727   0.284   6.493   5.821  0.0716  5.1312 -0.3231
  687MOL0     H92728   0.306   6.275   5.732 -0.8691  1.0126  2.0808
  687MOL0     H92729   0.676   5.765   6.533 -0.8789  1.4744 -2.5402
  687MOL0     H92730   0.655   5.741   6.770  0.6027 -1.6988 -2.5752
  687MOL0     H92731   0.112   5.832   7.115  0.1151  2.8376  1.2050
  687MOL0     H92732   0.071   5.737   7.347 -0.1167  0.5274 -1.1212
  687MOL0     H92733   0.236   5.448   7.440 -3.4003 -0.3637 -0.4065
  687MOL0     H92734   0.120   5.485   7.563 -1.2716  2.8319  2.7448
  687MOL0     H92735   0.425   5.468   7.585 -0.0750 -1.6733 -1.5865
  687MOL0     H92736   0.325   5.348   7.645 -0.9474  0.0438  1.9704
  687MOL0     H92737   0.307   5.625   7.760  2.7910 -0.1655 -0.0608
  687MOL0     H92738   0.402   5.501   7.820 -1.2402  2.2013  2.0881
  687MOL0     H92739   0.086   5.492   7.802 -1.2922 -0.9856  0.3259
  687MOL0     H92740   0.178   5.353   7.846 -2.8047  0.1434 -0.1643
  687MOL0     H92741   0.200   5.583   8.198 -1.1212  2.0062 -0.0652
  687MOL0     H92742   0.489   5.653   7.384  0.6601 -1.1680 -1.7164
  687MOL0     H92743   0.622   5.837   7.222 -2.7134 -0.2089  1.3505
  687MOL0     H92744   0.622   5.657   7.224  0.1814 -2.2195 -1.8324
  687MOL0     H92745   0.598   5.740   7.070 -0.7744 -0.9030 -0.0877
  688MOL0     O92746  11.168   8.116   3.772 -0.7069 -0.5620 -0.8753
  688MOL0     C92747  11.070   8.150   3.831  0.3839  0.5828  0.4460
  688MOL0     O92748  10.948   8.165   3.770  0.3867  0.0272  0.6294
  688MOL0     C92749  10.934   8.138   3.635 -0.3647  0.2855  0.2821
  688MOL0     C92750  10.950   8.241   3.540  0.5244 -0.5199  0.0857
  688MOL0     C92751  10.914   8.232   3.406  0.4682 -0.2623 -0.1124
  688MOL0     C92752  10.870   8.111   3.366 -0.1542  1.6371  0.2614
  688MOL0     O92753  10.848   8.104   3.230  0.3453  0.4956 -0.0786
  688MOL0     C92754  10.792   7.985   3.164 -0.9382 -0.3448  0.5858
  688MOL0     C92755  10.742   8.036   3.025 -0.1552  0.9824  0.5622
  688MOL0     C92756  10.626   8.142   3.031  0.4685  0.9141 -0.2079
  688MOL0     C92757  10.596   8.196   2.896  0.6842  0.3188 -0.7489
  688MOL0     C92758  10.470   8.283   2.898 -0.8308 -0.7846 -0.1432
  688MOL0     C92759  10.469   8.380   3.013  0.4852  0.0947  0.1796
  688MOL0     C92760  10.377   8.499   2.989  0.0544  1.0718  0.4405
  688MOL0     C92761  10.394   8.617   3.094  0.3310 -0.6167  0.0708
  688MOL0     N92762  10.530   8.680   3.099 -0.0700 -0.8804  0.7732
  688MOL0     C92763  10.620   8.682   3.204 -0.4020 -0.8627  0.5902
  688MOL0     C92764  10.729   8.744   3.156 -0.8915  0.7457  0.4414
  688MOL0     C92765  10.858   8.759   3.234 -0.7208  0.0846  0.6310
  688MOL0     C92766  10.955   8.637   3.210 -1.3835  0.0318  0.2274
  688MOL0     C92767  10.979   8.597   3.062 -0.0772  0.7398  0.9835
  688MOL0     C92768  11.031   8.704   2.964 -1.3626  0.5551  0.1441
  688MOL0     O92769  11.163   8.759   3.003 -0.2877  0.3124 -0.4332
  688MOL0     C92770  11.221   8.826   2.903  0.9610  1.1230 -0.7459
  688MOL0     C92771  11.360   8.789   2.870  0.5331  0.3576  1.1413
  688MOL0     C92772  11.418   8.852   2.763 -0.0928 -0.5158 -0.4501
  688MOL0     C92773  11.337   8.947   2.678 -0.7989  0.2118  0.5874
  688MOL0     C92774  11.391   8.999   2.549  0.2259  0.1807  1.0220
  688MOL0     O92775  11.312   9.077   2.466 -0.3162  0.3116 -0.0162
  688MOL0     C92776  11.373   9.129   2.354 -0.5623  0.5117  0.3985
  688MOL0     C92777  11.504   9.174   2.351  0.3822  0.4672  0.8329
  688MOL0     C92778  11.554   9.241   2.229  1.5505 -0.6368  0.5285
  688MOL0     C92779  11.457   9.271   2.127 -0.8385 -0.1686  0.4416
  688MOL0     O92780  11.485   9.353   2.019 -0.4114  0.1771 -0.6874
  688MOL0     C92781  11.610   9.427   2.023  0.8959  0.6408 -0.6530
  688MOL0     C92782  11.618   9.523   2.143  0.3119 -0.6387 -1.1365
  688MOL0     C92783  11.718   9.623   2.111  0.6842  0.1505 -0.6223
  688MOL0     C92784  11.689   9.750   2.190 -0.1803  0.5774 -0.9467
  688MOL0     C92785  11.811   9.836   2.209 -0.3595  0.0812  0.0867
  688MOL0     C92786  11.870   9.891   2.076 -0.1149  0.5468  0.2163
  688MOL0     C92787  11.942  10.026   2.090  0.1345  0.9782 -0.7672
  688MOL0     C92788  12.062  10.011   2.189 -0.7023 -0.3428 -0.0531
  688MOL0    Cl92789  12.151  10.160   2.231  0.2200 -0.4268 -0.1743
  688MOL0     C92790  11.328   9.228   2.136  0.5565  0.8151 -0.0623
  688MOL0     C92791  11.294   9.147   2.244  0.2928 -0.8665  1.2862
  688MOL0     O92792  11.503   8.949   2.516  0.9394  0.8375 -0.6596
  688MOL0     C92793  11.210   8.987   2.719  0.2076 -0.3530  0.2309
  688MOL0     C92794  11.153   8.938   2.835 -0.0703  0.2507 -0.8340
  688MOL0     N92795  10.710   8.784   3.028 -0.3648 -0.4288  0.7384
  688MOL0     N92796  10.585   8.754   2.996 -0.5883 -0.1995  0.8039
  688MOL0     C92797  10.859   8.004   3.448 -0.4983  0.6586 -0.3556
  688MOL0     C92798  10.882   8.016   3.587 -0.7440 -1.1806 -0.1692
  688MOL0     C92799  11.087   8.194   3.975 -0.1120  0.4539  1.4121
  688MOL0     C92800  11.190   8.129   4.043 -0.0060  0.3830 -0.8738
  688MOL0     C92801  11.203   8.161   4.184  0.1532 -0.2735 -0.0888
  688MOL0     C92802  11.120   8.251   4.254 -0.0493  0.9985 -0.9433
  688MOL0     O92803  11.119   8.278   4.389  0.0357  0.0709  0.2403
  688MOL0     C92804  11.213   8.210   4.475  0.7806  0.0794 -0.4566
  688MOL0     C92805  11.184   8.239   4.625 -0.2346 -1.3914  0.0958
  688MOL0     C92806  11.072   8.157   4.680  0.1818  0.7949 -0.1190
  688MOL0     C92807  11.045   8.198   4.824  0.5268  0.2162 -0.1577
  688MOL0     C92808  10.986   8.334   4.830 -1.3635 -0.1665  0.6690
  688MOL0     C92809  10.928   8.436   4.802  0.1563 -0.4252  0.5747
  688MOL0     C92810  11.017   8.307   4.183  0.3219 -0.8343  0.6035
  688MOL0     C92811  10.997   8.290   4.045  0.1066 -0.3066  0.2308
  688MOL0     C92812  10.897   8.375   3.978  0.0576  0.0311  1.0279
  688MOL0     H92813  10.978   8.334   3.588 -1.4532  1.3009 -2.0128
  688MOL0     H92814  10.938   8.314   3.339 -2.0093  2.6370  2.2268
  688MOL0     H92815  10.868   7.909   3.141 -0.6018  0.4738 -1.1313
  688MOL0     H92816  10.713   7.937   3.222 -0.1744 -0.2428  1.7459
  688MOL0     H92817  10.698   7.953   2.969 -2.3166  1.2617  1.7312
  688MOL0     H92818  10.823   8.077   2.963 -0.1842 -0.4262 -0.4364
  688MOL0     H92819  10.671   8.226   3.085  0.9344  1.1716 -0.9804
  688MOL0     H92820  10.533   8.107   3.076  1.3135 -0.1624  0.7766
  688MOL0     H92821  10.678   8.255   2.855 -2.0913  3.9208 -1.6402
  688MOL0     H92822  10.575   8.107   2.835 -0.9796 -1.0053  1.5840
  688MOL0     H92823  10.458   8.345   2.809 -1.7350 -1.6556 -0.6474
  688MOL0     H92824  10.381   8.220   2.905 -0.6989 -1.0344 -0.6807
  688MOL0     H92825  10.426   8.325   3.098  2.4345 -0.7336  0.7021
  688MOL0     H92826  10.571   8.411   3.035  1.3656 -2.2236 -0.2856
  688MOL0     H92827  10.275   8.460   2.992 -0.0697  1.4017  2.5335
  688MOL0     H92828  10.396   8.547   2.893  0.6446  1.7319  0.8799
  688MOL0     H92829  10.318   8.693   3.074  1.1827 -0.2058 -1.8107
  688MOL0     H92830  10.363   8.570   3.188 -4.6652  0.4751 -0.7682
  688MOL0     H92831  10.617   8.630   3.299  4.8368 -0.1125  1.4483
  688MOL0     H92832  10.904   8.856   3.214 -3.0686  1.6042  2.0854
  688MOL0     H92833  10.832   8.756   3.341 -1.6174  0.4710  0.4319
  688MOL0     H92834  11.054   8.649   3.256 -1.9590  0.4527  1.3630
  688MOL0     H92835  10.913   8.552   3.264 -0.9280  0.2514  0.9439
  688MOL0     H92836  10.887   8.553   3.022  1.1844 -0.0026 -1.3318
  688MOL0     H92837  11.040   8.506   3.061  0.2793  0.8431  4.2160
  688MOL0     H92838  10.960   8.786   2.972 -0.6797  1.2006 -0.3338
  688MOL0     H92839  11.044   8.671   2.861  0.7299 -0.9814  0.8047
  688MOL0     H92840  11.408   8.704   2.919  1.8743  0.6787  0.4081
  688MOL0     H92841  11.519   8.821   2.736 -0.7927 -0.3834 -3.5662
  688MOL0     H92842  11.561   9.165   2.443 -1.2709 -1.3569  1.7629
  688MOL0     H92843  11.656   9.277   2.222  1.8028 -1.5903 -2.6655
  688MOL0     H92844  11.703   9.370   2.036  1.0905  1.4236  1.8222
  688MOL0     H92845  11.622   9.472   1.924 -3.9853  2.1559 -0.8011
  688MOL0     H92846  11.524   9.576   2.164  1.0532  0.0464  0.6593
  688MOL0     H92847  11.643   9.472   2.236 -0.7889 -0.8418 -0.9353
  688MOL0     H92848  11.822   9.597   2.131  0.8891  2.2668  1.4742
  688MOL0     H92849  11.710   9.646   2.004 -1.2912  0.9323 -0.3468
  688MOL0     H92850  11.671   9.720   2.294 -1.6965 -1.8590 -1.8445
  688MOL0     H92851  11.608   9.807   2.144  0.8365  3.0331  0.1271
  688MOL0     H92852  11.887   9.782   2.265  0.9089 -1.4874 -2.8968
  688MOL0     H92853  11.775   9.917   2.273 -2.3288 -2.7528  2.8153
  688MOL0     H92854  11.942   9.814   2.047 -1.2127 -0.5033  0.2187
  688MOL0     H92855  11.802   9.910   1.994  0.6795 -0.7943 -0.7934
  688MOL0     H92856  11.872  10.099   2.132 -2.3974 -1.0229 -1.2713
  688MOL0     H92857  11.972  10.066   1.993 -2.5339  2.4974 -1.0761
  688MOL0     H92858  12.014   9.981   2.283  0.6140 -0.9324  0.4612
  688MOL0     H92859  12.132   9.935   2.152  0.8506  1.3241 -0.6313
  688MOL0     H92860  11.251   9.247   2.061  0.2309  1.4810  0.4333
  688MOL0     H92861  11.200   9.095   2.259  0.7154 -2.2226 -0.4635
  688MOL0     H92862  11.150   9.065   2.674  0.2875  0.1894  1.0312
  688MOL0     H92863  11.059   8.980   2.870  1.0633 -0.1115  3.1311
  688MOL0     H92864  10.848   7.911   3.394  0.1094  0.5103 -0.2277
  688MOL0     H92865  10.878   7.923   3.642 -0.9541 -0.0580  1.7968
  688MOL0     H92866  11.268   8.073   3.992  0.3687 -1.0002  1.0789
  688MOL0     H92867  11.281   8.105   4.235  1.5097  2.7928  1.4882
  688MOL0     H92868  11.314   8.243   4.449  0.6545  2.4482  1.6069
  688MOL0     H92869  11.209   8.102   4.463 -1.8455  0.3370 -3.4930
  688MOL0     H92870  11.160   8.345   4.619 -1.4492 -1.7312 -2.2613
  688MOL0     H92871  11.268   8.226   4.694 -0.4241  1.4958  1.0245
  688MOL0     H92872  11.090   8.049   4.672 -1.5597  0.5303 -1.0195
  688MOL0     H92873  10.982   8.187   4.626  1.0132 -1.7008 -3.1535
  688MOL0     H92874  10.981   8.126   4.875 -0.1062  0.0284 -1.1959
  688MOL0     H92875  11.133   8.204   4.889 -1.3354  1.8818  2.3736
  688MOL0     H92876  10.888   8.528   4.766  0.7824 -1.3631 -2.9441
  688MOL0     H92877  10.953   8.375   4.239 -1.3915 -1.5842 -0.3566
  688MOL0     H92878  10.929   8.419   3.883 -1.7209  0.9174  0.8081
  688MOL0     H92879  10.814   8.310   3.950  1.6950 -1.7868  0.1070
  688MOL0     H92880  10.860   8.462   4.033 -0.4847  2.2274 -2.4913
  689MOL0     O92881   2.219   8.046   3.905  0.3269 -0.4426  0.2974
  689MOL0     C92882   2.311   7.972   3.862  0.4065 -0.1109  0.5131
  689MOL0     O92883   2.418   7.923   3.938 -1.0959 -0.1919 -0.5365
  689MOL0     C92884   2.435   7.959   4.072  0.6111 -0.2774  0.0557
  689MOL0     C92885   2.333   7.963   4.167  0.2483  1.0034  0.3111
  689MOL0     C92886   2.361   7.986   4.308 -0.1402 -0.2075 -0.5557
  689MOL0     C92887   2.489   7.992   4.355 -0.0950 -0.2569  0.9191
  689MOL0     O92888   2.513   7.999   4.487 -0.0909  0.5071  0.3867
  689MOL0     C92889   2.645   8.038   4.526  0.3512  0.5785 -0.5039
  689MOL0     C92890   2.714   7.916   4.567  0.0311  0.1092  0.3712
  689MOL0     C92891   2.829   7.937   4.668  0.4273  0.0369 -1.2837
  689MOL0     C92892   2.936   7.830   4.657 -0.1663  0.2589  0.6573
  689MOL0     C92893   3.027   7.813   4.780  0.8573  0.2717 -0.8647
  689MOL0     C92894   3.074   7.674   4.787 -0.2280  0.9909 -0.8801
  689MOL0     C92895   2.991   7.596   4.896 -0.1045  0.0861  0.8337
  689MOL0     C92896   3.013   7.446   4.870  0.1424  0.0593 -0.4629
  689MOL0     N92897   3.142   7.404   4.910 -0.4457 -0.2411  0.1560
  689MOL0     C92898   3.260   7.435   4.845 -0.7763  0.2279  0.4821
  689MOL0     C92899   3.353   7.390   4.941  0.6591 -0.0791 -0.1450
  689MOL0     C92900   3.506   7.401   4.927 -0.5921 -0.7935 -0.3800
  689MOL0     C92901   3.563   7.311   5.040 -0.1246  0.2682  0.4898
  689MOL0     C92902   3.698   7.375   5.088  0.3495  0.0118 -0.8228
  689MOL0     C92903   3.756   7.295   5.204 -0.3911 -0.9117  0.7582
  689MOL0     O92904   3.774   7.164   5.154 -0.0611  0.4338  0.0108
  689MOL0     C92905   3.827   7.066   5.239 -0.1239  0.3276  0.4051
  689MOL0     C92906   3.776   6.938   5.210 -0.3578 -0.2891  0.5033
  689MOL0     C92907   3.819   6.833   5.293 -0.1392 -0.3177  0.3986
  689MOL0     C92908   3.924   6.852   5.385 -0.0253 -0.5099 -0.6980
  689MOL0     C92909   3.970   6.748   5.477  0.9811  1.0550  0.9713
  689MOL0     O92910   4.020   6.785   5.601  0.3245 -0.7397  0.0631
  689MOL0     C92911   4.080   6.699   5.688  0.5659  0.2320 -0.5827
  689MOL0     C92912   4.108   6.744   5.815 -0.2879 -0.1353  0.4877
  689MOL0     C92913   4.163   6.656   5.909  1.2419 -0.1564  0.0717
  689MOL0     C92914   4.201   6.525   5.872 -0.0862 -0.5360 -0.2738
  689MOL0     O92915   4.242   6.450   5.975  0.0202  0.4486 -0.0814
  689MOL0     C92916   4.264   6.314   5.954 -0.3333 -0.1702  0.2213
  689MOL0     C92917   4.215   6.251   6.079  0.1913  1.0139 -0.2122
  689MOL0     C92918   4.213   6.102   6.068  0.7618  0.6131 -0.1049
  689MOL0     C92919   4.337   6.039   6.021  0.2530  1.2048  0.1854
  689MOL0     C92920   4.340   5.884   6.031  0.1406 -0.1134  0.9978
  689MOL0     C92921   4.241   5.825   5.929 -0.4145 -0.5279 -0.1925
  689MOL0     C92922   4.228   5.667   5.934  0.0056  0.4328  0.1416
  689MOL0     C92923   4.374   5.609   5.926 -0.3885 -0.0994 -0.2571
  689MOL0    Cl92924   4.372   5.436   5.867 -0.8774 -0.2208  0.3650
  689MOL0     C92925   4.204   6.503   5.738  0.0056  0.0855  1.0455
  689MOL0     C92926   4.144   6.586   5.649  0.0014 -0.0296  1.4590
  689MOL0     O92927   3.957   6.630   5.434  0.4731  0.2401 -0.9581
  689MOL0     C92928   3.975   6.980   5.401  0.7082  0.7035  0.2757
  689MOL0     C92929   3.923   7.081   5.325  0.3960 -0.5100 -0.4359
  689MOL0     N92930   3.282   7.333   5.051  0.0436  0.5172 -0.2455
  689MOL0     N92931   3.163   7.345   5.035 -0.6534  0.0246  0.6386
  689MOL0     C92932   2.588   8.004   4.256 -0.2503 -0.3653 -0.9501
  689MOL0     C92933   2.557   7.985   4.119  0.3897 -0.3293 -1.0878
  689MOL0     C92934   2.293   7.933   3.716  0.0728  0.3643 -0.8630
  689MOL0     C92935   2.165   7.932   3.669  0.2438 -0.2530 -0.1879
  689MOL0     C92936   2.136   7.902   3.536 -1.1622  0.2914 -0.2693
  689MOL0     C92937   2.234   7.890   3.440  0.7276 -0.2275 -0.4741
  689MOL0     O92938   2.213   7.886   3.308 -0.3818  0.1461 -0.4706
  689MOL0     C92939   2.082   7.867   3.270 -0.5033 -0.3916  0.2806
  689MOL0     C92940   2.059   7.850   3.117  0.4154 -1.1487 -0.0936
  689MOL0     C92941   2.119   7.730   3.057  0.0724 -0.2158  0.2715
  689MOL0     C92942   2.064   7.687   2.922  0.3944  0.2108 -1.0605
  689MOL0     C92943   2.102   7.545   2.880  0.1996 -0.2605  0.3480
  689MOL0     C92944   2.116   7.440   2.821  0.5610  0.9801 -0.4859
  689MOL0     C92945   2.365   7.882   3.488 -0.4115 -0.4215  0.3928
  689MOL0     C92946   2.394   7.895   3.618 -0.5027 -1.5373 -0.5981
  689MOL0     C92947   2.547   7.905   3.668 -0.0427  0.5685  0.4211
  689MOL0     H92948   2.233   7.943   4.129  0.7541  0.1940 -0.6289
  689MOL0     H92949   2.278   8.006   4.375  0.3053  4.3899 -1.0277
  689MOL0     H92950   2.700   8.100   4.455  0.7473 -1.2114 -1.8517
  689MOL0     H92951   2.628   8.092   4.619 -0.2664  0.7779 -0.7250
  689MOL0     H92952   2.753   7.861   4.482  1.4523 -2.6452  2.6243
  689MOL0     H92953   2.641   7.843   4.604  1.0046 -1.4387 -0.6500
  689MOL0     H92954   2.781   7.916   4.764 -0.4294  2.0989 -1.2004
  689MOL0     H92955   2.869   8.039   4.666  1.1238 -0.1904 -0.0063
  689MOL0     H92956   2.884   7.734   4.647  2.3923 -1.1649  0.0190
  689MOL0     H92957   3.003   7.844   4.571 -1.5775  0.0664 -0.5052
  689MOL0     H92958   3.106   7.889   4.778  0.1561  1.0759  0.4388
  689MOL0     H92959   2.981   7.825   4.878  1.4046 -1.1178 -0.4160
  689MOL0     H92960   3.060   7.623   4.691  2.1078  2.8977 -2.3515
  689MOL0     H92961   3.181   7.681   4.804  0.0280 -3.0864  0.2797
  689MOL0     H92962   2.891   7.628   4.868  0.2104  1.3911  1.1481
  689MOL0     H92963   3.019   7.637   4.994  1.0472  0.8427  0.2033
  689MOL0     H92964   2.942   7.392   4.933  1.4305 -0.8758  0.2315
  689MOL0     H92965   2.993   7.423   4.765 -2.3824  4.7228 -1.2948
  689MOL0     H92966   3.285   7.485   4.752 -0.5028  0.1187  0.4948
  689MOL0     H92967   3.550   7.376   4.830 -2.3467 -0.2586 -1.3651
  689MOL0     H92968   3.528   7.507   4.942 -1.4295 -0.5479 -0.7900
  689MOL0     H92969   3.504   7.298   5.131 -0.1339  3.0572  0.9699
  689MOL0     H92970   3.583   7.215   4.992 -1.3954  1.3876 -2.5261
  689MOL0     H92971   3.680   7.476   5.125 -0.6117 -0.2490 -0.5335
  689MOL0     H92972   3.774   7.374   5.010  4.7021  1.2868  3.0029
  689MOL0     H92973   3.694   7.291   5.294 -0.0315 -1.8259  0.9766
  689MOL0     H92974   3.852   7.343   5.228 -0.0970  0.2726 -2.2636
  689MOL0     H92975   3.699   6.940   5.133 -0.5568 -0.2595  0.7029
  689MOL0     H92976   3.782   6.732   5.283  1.4432 -0.7863 -1.0510
  689MOL0     H92977   4.078   6.845   5.839 -0.0394  0.0014  0.2272
  689MOL0     H92978   4.164   6.684   6.013 -0.1612 -1.7276  0.5564
  689MOL0     H92979   4.211   6.278   5.865 -0.2204  3.7281 -1.6368
  689MOL0     H92980   4.371   6.299   5.935 -0.5808 -2.2503  0.2839
  689MOL0     H92981   4.283   6.287   6.155  0.8120  0.6918 -0.6063
  689MOL0     H92982   4.114   6.290   6.096  0.5005  3.8036 -3.5822
  689MOL0     H92983   4.185   6.067   6.168 -1.6987 -0.8022 -1.1858
  689MOL0     H92984   4.132   6.077   5.999  1.3628  0.6411 -0.8280
  689MOL0     H92985   4.417   6.089   6.077  0.2191  3.6023 -1.7715
  689MOL0     H92986   4.349   6.063   5.915 -1.5548  0.6793 -0.1817
  689MOL0     H92987   4.310   5.848   6.130 -2.9255 -3.5423 -0.9299
  689MOL0     H92988   4.438   5.854   5.994  1.7465  2.5111  2.7592
  689MOL0     H92989   4.143   5.873   5.936 -0.1479 -0.2312  2.0242
  689MOL0     H92990   4.270   5.840   5.824  1.0882 -0.7918  0.1653
  689MOL0     H92991   4.162   5.636   5.853  1.2998  0.2031 -0.8752
  689MOL0     H92992   4.183   5.629   6.025 -2.5325  0.3724 -1.0625
  689MOL0     H92993   4.431   5.664   5.852  0.3529  0.6732  0.8664
  689MOL0     H92994   4.423   5.590   6.022  0.7218 -1.2155 -1.0137
  689MOL0     H92995   4.251   6.421   5.686  0.4114  1.7207 -1.3397
  689MOL0     H92996   4.146   6.568   5.542 -3.2306  0.3036  1.2450
  689MOL0     H92997   4.060   6.983   5.468  0.1901  1.1554  0.9200
  689MOL0     H92998   3.969   7.178   5.339  2.2652 -1.6075  1.7311
  689MOL0     H92999   2.693   8.019   4.279 -0.6206  2.0919 -0.5384
  689MOL0     H93000   2.640   7.992   4.049  1.1595 -1.8919 -0.3768
  689MOL0     H93001   2.082   7.949   3.737 -0.3047  0.9395 -1.1165
  689MOL0     H93002   2.032   7.911   3.506 -1.5693 -2.8330 -0.1454
  689MOL0     H93003   2.019   7.951   3.301 -1.2272 -0.5754 -0.6874
  689MOL0     H93004   2.046   7.774   3.314  2.5394 -1.0946  1.5409
  689MOL0     H93005   2.111   7.937   3.075  2.5381 -1.7732  1.0684
  689MOL0     H93006   1.950   7.857   3.113  0.2633 -0.7455  2.5310
  689MOL0     H93007   2.109   7.650   3.132 -1.9638 -0.5383 -0.2629
  689MOL0     H93008   2.226   7.747   3.043 -0.1377  2.1101  1.0170
  689MOL0     H93009   1.955   7.680   2.923  0.3554  0.6686 -1.4800
  689MOL0     H93010   2.097   7.761   2.848  0.7961  2.1493  0.9209
  689MOL0     H93011   2.111   7.351   2.761 -0.0779 -1.2004  2.5695
  689MOL0     H93012   2.440   7.873   3.411  0.2234 -2.2764  1.1702
  689MOL0     H93013   2.597   7.882   3.573 -1.8850  0.0416 -0.4866
  689MOL0     H93014   2.579   8.004   3.702  3.0683 -0.2286  0.1234
  689MOL0     H93015   2.570   7.831   3.744 -0.0799 -1.0521 -1.0786
  690MOL0     O93016  11.194   6.844   8.150 -0.3349  0.0448 -0.5379
  690MOL0     C93017  11.293   6.799   8.093  1.0219  0.0677  0.7472
  690MOL0     O93018  11.286   6.726   7.979  0.4524 -0.0150  0.1519
  690MOL0     C93019  11.164   6.689   7.929 -0.0395  0.0177  0.6254
  690MOL0     C93020  11.118   6.560   7.960  0.0429 -0.3016  0.3428
  690MOL0     C93021  11.001   6.504   7.905  0.6078 -0.9582  1.0200
  690MOL0     C93022  10.923   6.577   7.811 -0.7951 -0.3549  0.1500
  690MOL0     O93023  10.798   6.535   7.786  0.9002  0.5020 -0.2535
  690MOL0     C93024  10.738   6.567   7.660  0.6590 -0.7249  0.3499
  690MOL0     C93025  10.597   6.502   7.660 -0.1601  0.0629  0.7956
  690MOL0     C93026  10.513   6.539   7.535  0.3900  1.5537 -0.7443
  690MOL0     C93027  10.493   6.687   7.496 -0.3703  0.4058  0.1949
  690MOL0     C93028  10.370   6.715   7.398  0.4625  0.3918 -0.4439
  690MOL0     C93029  10.227   6.699   7.463  0.1972  0.4120 -0.3009
  690MOL0     C93030  10.145   6.830   7.463  1.3118 -0.8005  0.1932
  690MOL0     C93031  10.208   6.939   7.557  0.4056 -0.4278 -0.1251
  690MOL0     N93032  10.143   6.924   7.686  0.5860 -1.5446  0.1928
  690MOL0     C93033  10.020   6.971   7.733  0.4035  0.1994  0.7851
  690MOL0     C93034  10.015   6.956   7.864  0.6388 -0.4846 -0.5408
  690MOL0     C93035   9.921   7.024   7.961  0.7200  0.4375 -0.6532
  690MOL0     C93036   9.864   7.154   7.902  0.1998 -0.2930 -0.0892
  690MOL0     C93037   9.723   7.145   7.848  0.5579  0.4078  0.1223
  690MOL0     C93038   9.665   7.265   7.794 -0.5443 -0.4347  0.9018
  690MOL0     O93039   9.769   7.332   7.713 -0.2134  0.1067 -0.6024
  690MOL0     C93040   9.758   7.466   7.710 -0.1380 -0.2202  0.2483
  690MOL0     C93041   9.872   7.527   7.656 -0.8459  0.1436 -1.0008
  690MOL0     C93042   9.879   7.668   7.648  0.3092 -0.2479 -0.1700
  690MOL0     C93043   9.763   7.745   7.665  0.8692 -0.7858  0.6412
  690MOL0     C93044   9.765   7.894   7.670  0.0929 -0.3891 -0.4632
  690MOL0     O93045   9.872   7.944   7.743  0.3139 -0.6118  0.0020
  690MOL0     C93046   9.871   8.083   7.768 -0.2279  0.3650  0.7885
  690MOL0     C93047   9.923   8.179   7.678  0.3636  0.4235 -0.7039
  690MOL0     C93048   9.940   8.312   7.715 -0.2911  0.4100 -0.9855
  690MOL0     C93049   9.895   8.355   7.843  0.4883  0.6438 -0.6238
  690MOL0     O93050   9.910   8.480   7.898  0.1579 -0.0912 -0.0559
  690MOL0     C93051   9.886   8.592   7.810 -0.3325 -0.3607 -0.5711
  690MOL0     C93052   9.745   8.605   7.751 -0.1146  0.2790  0.7440
  690MOL0     C93053   9.646   8.654   7.862  0.7954  0.6596 -0.7630
  690MOL0     C93054   9.531   8.721   7.811  0.5264 -0.2757  0.3334
  690MOL0     C93055   9.437   8.774   7.920 -0.6846  0.2779  0.5878
  690MOL0     C93056   9.300   8.827   7.877  0.6108 -1.1666 -0.3139
  690MOL0     C93057   9.212   8.879   7.997  0.8967  0.6072 -0.2525
  690MOL0     C93058   9.144   8.772   8.083  0.4774  0.6008 -0.6912
  690MOL0    Cl93059   9.005   8.715   7.986 -0.4608 -0.3690  0.0875
  690MOL0     C93060   9.843   8.252   7.927  1.0538  0.6518  0.2514
  690MOL0     C93061   9.833   8.118   7.892  0.0067  0.3826 -0.3870
  690MOL0     O93062   9.670   7.959   7.625  0.0932 -0.4589  0.5174
  690MOL0     C93063   9.645   7.680   7.703 -0.3210  0.2469  0.0026
  690MOL0     C93064   9.648   7.542   7.727 -0.3981 -0.1300 -0.1687
  690MOL0     N93065  10.134   6.887   7.889  0.5391  0.0529 -0.1305
  690MOL0     N93066  10.204   6.868   7.790  0.3489 -0.0623  0.9284
  690MOL0     C93067  10.970   6.708   7.775 -1.1407 -0.5463  0.1915
  690MOL0     C93068  11.086   6.759   7.833 -0.7880  0.4197 -0.9803
  690MOL0     C93069  11.420   6.791   8.166  1.6797  0.4417  0.8598
  690MOL0     C93070  11.404   6.772   8.303 -0.0865  0.4692  0.1216
  690MOL0     C93071  11.514   6.778   8.385 -0.2631  0.3248 -0.5237
  690MOL0     C93072  11.650   6.790   8.347  0.2703 -0.3345 -0.1221
  690MOL0     O93073  11.756   6.805   8.429 -0.3158 -0.2945 -0.5450
  690MOL0     C93074  11.731   6.813   8.570  0.8044  1.1436 -0.1224
  690MOL0     C93075  11.858   6.812   8.647  1.5818 -0.1322  0.4165
  690MOL0     C93076  11.924   6.672   8.691 -0.0330 -0.0789 -0.0800
  690MOL0     C93077  12.031   6.688   8.803  0.0296  0.0723  0.9974
  690MOL0     C93078  12.150   6.759   8.747 -0.6813  0.1055 -0.4524
  690MOL0     C93079  12.227   6.819   8.673  0.5570 -0.1170 -0.7696
  690MOL0     C93080  11.662   6.819   8.211 -0.5862  0.2165  0.6922
  690MOL0     C93081  11.561   6.814   8.118  0.0124 -0.7070 -0.8841
  690MOL0     C93082  11.587   6.828   7.976  1.2208 -0.5476  0.9104
  690MOL0     H93083  11.170   6.504   8.037 -2.0208 -2.1132  0.5301
  690MOL0     H93084  10.980   6.404   7.942 -0.3403 -0.1835  2.6412
  690MOL0     H93085  10.742   6.674   7.639  0.9077 -0.6903  0.5569
  690MOL0     H93086  10.796   6.523   7.579  1.3881 -1.7432  1.3937
  690MOL0     H93087  10.538   6.535   7.746  1.2599 -3.8556  3.5301
  690MOL0     H93088  10.593   6.393   7.663  1.6184 -0.1173 -0.9617
  690MOL0     H93089  10.413   6.495   7.547  2.6937 -3.5653  4.5161
  690MOL0     H93090  10.558   6.481   7.454 -1.1065  1.2607 -1.4094
  690MOL0     H93091  10.483   6.743   7.589  1.4871 -0.2829  0.8462
  690MOL0     H93092  10.587   6.724   7.454 -0.5681 -1.5657 -2.1701
  690MOL0     H93093  10.388   6.807   7.342  1.7541 -0.1494 -0.9470
  690MOL0     H93094  10.392   6.636   7.326 -0.7737  0.3376 -0.7841
  690MOL0     H93095  10.171   6.619   7.415 -1.7733  0.4521  1.7964
  690MOL0     H93096  10.248   6.667   7.566 -1.0176  0.3030 -0.0781
  690MOL0     H93097  10.039   6.813   7.481  0.9189  0.2642 -0.9901
  690MOL0     H93098  10.144   6.871   7.361  2.4627 -2.4611 -0.5439
  690MOL0     H93099  10.317   6.934   7.553  0.4655  1.3152 -1.7313
  690MOL0     H93100  10.182   7.038   7.519 -0.5529  0.8378  3.4937
  690MOL0     H93101   9.955   7.019   7.661  2.5151 -0.3233 -1.6556
  690MOL0     H93102   9.836   6.962   7.989 -0.4296  0.6823 -3.2778
  690MOL0     H93103   9.978   7.057   8.049  0.4145  0.7898 -0.5849
  690MOL0     H93104   9.851   7.227   7.982 -0.1284 -1.5515  1.0410
  690MOL0     H93105   9.937   7.205   7.838 -2.8968  1.2430 -2.6561
  690MOL0     H93106   9.657   7.129   7.933  0.8107  0.1984  0.2822
  690MOL0     H93107   9.719   7.058   7.781 -1.5439 -1.0405  2.0083
  690MOL0     H93108   9.633   7.330   7.876 -2.4753  0.4138 -0.4470
  690MOL0     H93109   9.569   7.264   7.741 -0.6454  3.6236  0.6989
  690MOL0     H93110   9.961   7.471   7.627  1.3086  2.6546  0.2305
  690MOL0     H93111   9.972   7.722   7.633  0.9837 -0.8494  1.5524
  690MOL0     H93112   9.955   8.135   7.584 -1.0098 -2.3081 -0.0100
  690MOL0     H93113   9.990   8.373   7.641 -1.9048  2.2392 -0.6413
  690MOL0     H93114   9.911   8.679   7.872  3.0052 -0.2078 -1.8771
  690MOL0     H93115   9.957   8.591   7.726  1.2658 -0.8582  0.7229
  690MOL0     H93116   9.741   8.673   7.665 -1.0832 -0.0158  0.5448
  690MOL0     H93117   9.709   8.507   7.718  2.8827 -0.9857  0.8634
  690MOL0     H93118   9.610   8.571   7.923  1.2275  1.3020  0.3948
  690MOL0     H93119   9.694   8.716   7.937 -1.0578 -0.7834  1.7731
  690MOL0     H93120   9.477   8.640   7.761  2.9758 -1.1037 -1.0914
  690MOL0     H93121   9.557   8.805   7.746 -0.2217  1.1233  1.7650
  690MOL0     H93122   9.488   8.844   7.988 -1.7695 -0.8553  2.6551
  690MOL0     H93123   9.415   8.691   7.987  2.3527 -2.3700 -1.3970
  690MOL0     H93124   9.321   8.917   7.820 -1.2330 -2.3444 -3.0650
  690MOL0     H93125   9.250   8.759   7.808 -1.6633 -0.2907  0.3841
  690MOL0     H93126   9.137   8.957   7.980 -1.2117 -1.1478  0.4839
  690MOL0     H93127   9.279   8.931   8.067 -0.1756 -0.9625  2.0750
  690MOL0     H93128   9.215   8.695   8.116  3.1070  2.0081 -2.6956
  690MOL0     H93129   9.110   8.816   8.177 -1.8469  0.7472 -1.5299
  690MOL0     H93130   9.823   8.272   8.032 -1.3119  1.3009 -0.2512
  690MOL0     H93131   9.790   8.040   7.954  4.5867 -6.1928 -4.2693
  690MOL0     H93132   9.559   7.741   7.728  0.9194  0.7584  3.6066
  690MOL0     H93133   9.554   7.500   7.759 -1.0503 -0.7368 -2.6868
  690MOL0     H93134  10.913   6.771   7.707  0.9020  2.1556  0.8103
  690MOL0     H93135  11.133   6.850   7.798 -1.3011  0.3724 -1.8238
  690MOL0     H93136  11.302   6.769   8.340 -0.8621 -0.0109 -1.8991
  690MOL0     H93137  11.492   6.769   8.491  2.1454  0.0982  0.0020
  690MOL0     H93138  11.655   6.737   8.592  2.4721 -0.5847 -0.0405
  690MOL0     H93139  11.678   6.907   8.587  0.6342  0.8453  1.1270
  690MOL0     H93140  11.838   6.880   8.731 -1.8392 -0.9005  0.3896
  690MOL0     H93141  11.919   6.862   8.572  0.3399 -0.8366 -1.1059
  690MOL0     H93142  11.969   6.628   8.601  0.0845 -2.5907  1.1163
  690MOL0     H93143  11.844   6.601   8.715 -0.6584  0.1579 -1.3905
  690MOL0     H93144  11.993   6.748   8.886 -0.8553  3.6769 -1.7819
  690MOL0     H93145  12.053   6.590   8.847  0.6054 -1.3516 -2.2399
  690MOL0     H93146  12.294   6.859   8.601  0.0574  2.2337 -0.0367
  690MOL0     H93147  11.762   6.836   8.173 -1.4647  2.7980 -0.7052
  690MOL0     H93148  11.545   6.745   7.919  1.0157  1.6570 -2.4014
  690MOL0     H93149  11.522   6.913   7.956  0.7825 -0.5683  2.1601
  690MOL0     H93150  11.692   6.845   7.951  1.3201 -0.7701  1.1655
  691MOL0     O93151   0.712   1.909   5.479  0.0162  0.3722  0.2744
  691MOL0     C93152   0.684   1.874   5.597 -0.0696 -0.2581  0.6914
  691MOL0     O93153   0.588   1.926   5.676 -0.5774  0.0549  0.6502
  691MOL0     C93154   0.483   1.989   5.606 -0.3171  0.0095 -0.2988
  691MOL0     C93155   0.360   1.921   5.601  0.0428  0.2792 -0.2999
  691MOL0     C93156   0.253   1.976   5.532 -1.8547 -0.3833 -0.1318
  691MOL0     C93157   0.270   2.099   5.472 -1.0987 -0.0414 -0.1054
  691MOL0     O93158   0.156   2.173   5.443 -0.0400  0.4876 -0.2216
  691MOL0     C93159   0.109   2.186   5.307 -0.2371  0.7991  0.0845
  691MOL0     C93160  -0.022   2.259   5.304  0.0383  0.1981 -0.0915
  691MOL0     C93161  -0.128   2.164   5.371 -0.7297 -0.2804  1.0564
  691MOL0     C93162  -0.267   2.223   5.393  0.0066  0.1436 -0.3887
  691MOL0     C93163  -0.355   2.108   5.441 -0.2566 -1.1503  0.8253
  691MOL0     C93164  -0.499   2.160   5.462  0.6323 -0.2169  0.2263
  691MOL0     C93165  -0.589   2.060   5.524  0.8751 -0.2907  0.2226
  691MOL0     C93166  -0.731   2.110   5.551 -0.3889 -0.3342  0.3937
  691MOL0     N93167  -0.801   2.158   5.437  0.8612 -0.3494  0.6804
  691MOL0     C93168  -0.829   2.104   5.317  0.6160  0.2341  0.1975
  691MOL0     C93169  -0.871   2.192   5.234  0.4323 -0.1671  0.7647
  691MOL0     C93170  -0.935   2.161   5.105  0.4590 -0.9502  0.6972
  691MOL0     C93171  -1.077   2.223   5.061 -0.0004  0.2209  0.0173
  691MOL0     C93172  -1.076   2.332   4.954 -1.1401  0.2723 -0.1439
  691MOL0     C93173  -0.979   2.443   4.989  1.1180  0.0356  0.5487
  691MOL0     O93174  -1.029   2.570   4.931 -0.8283 -0.4136 -0.8861
  691MOL0     C93175  -0.941   2.677   4.939 -1.4571 -0.8685  0.4619
  691MOL0     C93176  -0.957   2.782   4.847  0.3813  0.0794  0.2027
  691MOL0     C93177  -0.881   2.896   4.845 -0.3958  0.7609 -1.1292
  691MOL0     C93178  -0.775   2.922   4.942  0.3703  0.0932 -0.4422
  691MOL0     C93179  -0.683   3.040   4.935 -0.3282  0.5054 -0.5645
  691MOL0     O93180  -0.578   3.046   5.025  0.2904 -1.1483  0.4369
  691MOL0     C93181  -0.487   3.149   5.021  0.3638 -0.1666  0.1537
  691MOL0     C93182  -0.355   3.110   5.059 -0.3538  0.3667  0.2387
  691MOL0     C93183  -0.252   3.205   5.061  0.1399 -0.1197  0.5185
  691MOL0     C93184  -0.276   3.344   5.023  0.4407  0.4633 -0.4238
  691MOL0     O93185  -0.174   3.441   5.020  0.5086  0.5789 -0.3321
  691MOL0     C93186  -0.081   3.428   5.126 -0.8436 -0.2600 -0.1098
  691MOL0     C93187   0.002   3.553   5.166  0.0962 -0.0363  0.2971
  691MOL0     C93188   0.038   3.554   5.303  0.0071 -0.2915 -0.2027
  691MOL0     C93189   0.095   3.418   5.356 -0.4390  0.7321 -0.3921
  691MOL0     C93190   0.166   3.430   5.488 -1.4097 -0.6014 -0.5757
  691MOL0     C93191   0.206   3.292   5.540  0.0796  0.1776 -0.5468
  691MOL0     C93192   0.236   3.292   5.692 -0.4439 -1.1161 -1.2549
  691MOL0     C93193   0.271   3.156   5.734 -0.3649  0.2755  0.3893
  691MOL0    Cl93194   0.443   3.123   5.669 -0.8227  0.2002 -0.2084
  691MOL0     C93195  -0.412   3.375   4.996  0.7461 -0.5706 -0.7842
  691MOL0     C93196  -0.520   3.281   4.995  0.4601  0.0087  0.2405
  691MOL0     O93197  -0.708   3.119   4.846  0.6057  0.2718  0.7270
  691MOL0     C93198  -0.755   2.821   5.045 -0.2746  0.0827 -0.8212
  691MOL0     C93199  -0.835   2.702   5.032  0.5951 -0.4086  0.5914
  691MOL0     N93200  -0.872   2.311   5.303 -0.8215  0.1138  0.1415
  691MOL0     N93201  -0.818   2.292   5.423 -0.2151 -0.1080 -0.2389
  691MOL0     C93202   0.390   2.166   5.477 -1.1791  0.2878 -0.1494
  691MOL0     C93203   0.499   2.108   5.535 -0.2483  0.5034 -0.2883
  691MOL0     C93204   0.753   1.753   5.660  0.1154 -0.2942 -0.5274
  691MOL0     C93205   0.699   1.711   5.790 -0.4625 -0.2938 -0.1145
  691MOL0     C93206   0.750   1.596   5.841 -1.1412 -0.5848 -0.5507
  691MOL0     C93207   0.872   1.530   5.803  0.0912  0.1659  0.3254
  691MOL0     O93208   0.916   1.429   5.872  0.0957  0.4282 -0.4359
  691MOL0     C93209   1.034   1.361   5.825  0.3663  0.4416 -0.1028
  691MOL0     C93210   1.057   1.226   5.906 -0.0508 -0.6719  0.2594
  691MOL0     C93211   1.196   1.175   5.897  0.6550  0.3848 -0.9937
  691MOL0     C93212   1.263   1.190   5.761  1.0717 -0.5108  0.2824
  691MOL0     C93213   1.390   1.117   5.742  0.9509 -0.7443  0.8518
  691MOL0     C93214   1.492   1.072   5.713 -0.4822 -0.2838 -0.1554
  691MOL0     C93215   0.926   1.585   5.680  0.1874 -0.5752 -0.3062
  691MOL0     C93216   0.872   1.686   5.604 -0.3199  0.6085 -0.2447
  691MOL0     C93217   0.936   1.727   5.482 -0.5326 -0.1183  0.3784
  691MOL0     H93218   0.341   1.823   5.642  2.4757  0.1730  0.7863
  691MOL0     H93219   0.153   1.935   5.533 -0.9754 -2.7147  0.3204
  691MOL0     H93220   0.185   2.236   5.247  1.5969 -1.2932  0.5299
  691MOL0     H93221   0.088   2.084   5.273  0.1948  0.4536  0.8147
  691MOL0     H93222  -0.060   2.279   5.204 -0.0618  0.8437  0.0767
  691MOL0     H93223  -0.015   2.354   5.357 -3.4693 -0.8192  2.5976
  691MOL0     H93224  -0.086   2.118   5.461  1.0503  0.9348  0.9134
  691MOL0     H93225  -0.133   2.088   5.293  0.0371  1.5027 -0.8145
  691MOL0     H93226  -0.255   2.301   5.470 -3.0571 -0.2158  0.6346
  691MOL0     H93227  -0.296   2.275   5.301 -2.2680 -2.9909 -1.6276
  691MOL0     H93228  -0.339   2.013   5.389 -1.2304 -1.6325  1.3657
  691MOL0     H93229  -0.325   2.086   5.543  0.0526 -0.9799  0.7725
  691MOL0     H93230  -0.503   2.251   5.524 -2.3468 -0.6490  0.8233
  691MOL0     H93231  -0.543   2.190   5.366 -1.1028 -1.1148  0.7028
  691MOL0     H93232  -0.549   2.035   5.623 -2.4273  0.7525  1.9908
  691MOL0     H93233  -0.587   1.962   5.475  3.7307 -1.1210  1.7514
  691MOL0     H93234  -0.790   2.028   5.595  2.5235 -3.1205 -0.4753
  691MOL0     H93235  -0.725   2.189   5.626  1.4202  0.4662 -0.5373
  691MOL0     H93236  -0.818   1.997   5.300  1.1707  0.1454  1.0235
  691MOL0     H93237  -0.866   2.215   5.041  1.5445 -1.1410  1.6705
  691MOL0     H93238  -0.943   2.052   5.093 -3.1438 -0.9535  1.6949
  691MOL0     H93239  -1.132   2.147   5.004 -0.2450 -1.2423  2.0861
  691MOL0     H93240  -1.134   2.252   5.150 -0.9529  1.2040 -0.8836
  691MOL0     H93241  -1.177   2.375   4.958  0.0858  3.3390  0.5613
  691MOL0     H93242  -1.070   2.298   4.850  0.6073  0.3801 -0.1002
  691MOL0     H93243  -0.881   2.415   4.950  1.3165  2.2201 -0.6597
  691MOL0     H93244  -0.983   2.450   5.099 -0.2135  0.7330  0.4874
  691MOL0     H93245  -1.030   2.771   4.768  1.7709 -1.5363 -0.9360
  691MOL0     H93246  -0.903   2.973   4.771  1.7116  0.1852 -2.4484
  691MOL0     H93247  -0.326   3.011   5.091 -0.8864 -0.1302 -0.7600
  691MOL0     H93248  -0.150   3.169   5.067 -0.0108 -1.2992 -2.3735
  691MOL0     H93249  -0.129   3.385   5.215 -3.0172 -0.2657 -1.2221
  691MOL0     H93250  -0.000   3.358   5.101  0.0838  0.7423  0.0050
  691MOL0     H93251   0.093   3.563   5.105  0.3582  0.4255  0.7573
  691MOL0     H93252  -0.057   3.642   5.142  1.4484  0.7921 -0.0491
  691MOL0     H93253   0.120   3.626   5.309  0.3555 -0.6890 -0.0662
  691MOL0     H93254  -0.048   3.595   5.356 -0.2872  1.3986 -1.9052
  691MOL0     H93255   0.156   3.382   5.273 -2.4664  0.3383 -1.7888
  691MOL0     H93256   0.017   3.344   5.378 -1.4472  1.9831  0.3631
  691MOL0     H93257   0.100   3.481   5.559  0.8632  1.4533  0.2123
  691MOL0     H93258   0.251   3.499   5.480 -1.8848  0.1436  0.5403
  691MOL0     H93259   0.121   3.223   5.530  0.9238 -1.1050  0.7278
  691MOL0     H93260   0.290   3.266   5.476 -0.7636  1.2379 -2.1431
  691MOL0     H93261   0.151   3.338   5.742  0.4609 -1.4651  0.6959
  691MOL0     H93262   0.326   3.355   5.699 -2.7921  2.3168  2.0824
  691MOL0     H93263   0.282   3.154   5.843 -2.8248 -1.6240  0.6879
  691MOL0     H93264   0.190   3.088   5.705 -2.2756  2.8622 -0.7096
  691MOL0     H93265  -0.417   3.480   4.968  1.8373 -0.1695  0.4674
  691MOL0     H93266  -0.622   3.302   4.966  1.4879  1.1909 -3.0536
  691MOL0     H93267  -0.681   2.822   5.125 -1.6961  0.0697  0.5340
  691MOL0     H93268  -0.833   2.616   5.099 -2.0676 -0.7014  0.3727
  691MOL0     H93269   0.398   2.266   5.435 -0.2985 -0.4081 -1.7356
  691MOL0     H93270   0.600   2.148   5.535 -0.8910  2.2448  0.6933
  691MOL0     H93271   0.610   1.750   5.837  0.3611  1.4881  0.0521
  691MOL0     H93272   0.692   1.563   5.927 -1.9440  2.0376 -0.0241
  691MOL0     H93273   1.125   1.421   5.839  1.8620 -1.7633  0.2090
  691MOL0     H93274   1.025   1.344   5.718 -1.5157 -0.7211  0.1990
  691MOL0     H93275   0.982   1.154   5.871 -0.6101 -0.3186  0.7139
  691MOL0     H93276   1.039   1.248   6.012 -0.4779  4.3655 -0.5764
  691MOL0     H93277   1.195   1.078   5.947 -2.1819  1.4376  1.1987
  691MOL0     H93278   1.254   1.239   5.963 -0.8818 -0.2989  1.1127
  691MOL0     H93279   1.194   1.152   5.686  1.8207  0.6822 -1.0565
  691MOL0     H93280   1.280   1.297   5.747 -0.7838 -0.2097  0.1950
  691MOL0     H93281   1.592   1.046   5.684 -0.2958  0.5065 -0.2473
  691MOL0     H93282   1.020   1.540   5.651 -1.0626 -3.6466  0.0380
  691MOL0     H93283   1.021   1.662   5.457 -0.9039 -0.3909 -0.1913
  691MOL0     H93284   0.857   1.710   5.408  1.6080 -0.3066 -2.0127
  691MOL0     H93285   0.965   1.833   5.480 -0.0926 -0.2109 -2.2941
  692MOL0     O93286   3.216  10.164  10.256 -0.2616  0.1718 -0.5432
  692MOL0     C93287   3.224  10.045  10.241  0.3115 -0.1922  0.9324
  692MOL0     O93288   3.237   9.985  10.128  0.7340 -0.5400 -0.0408
  692MOL0     C93289   3.254  10.062  10.020  0.7444 -0.1001  0.0052
  692MOL0     C93290   3.151  10.054   9.928 -0.3108 -0.4913  0.1695
  692MOL0     C93291   3.152  10.137   9.813 -0.4118 -0.1534  0.0975
  692MOL0     C93292   3.256  10.235   9.796  0.2438 -0.5936  0.1702
  692MOL0     O93293   3.259  10.323   9.691 -0.2386 -1.2028 -0.3811
  692MOL0     C93294   3.290  10.279   9.557  0.8779 -0.0072  0.3821
  692MOL0     C93295   3.413  10.205   9.543  0.5151 -0.1342 -0.5459
  692MOL0     C93296   3.544  10.283   9.577  0.9528 -0.0005 -0.5756
  692MOL0     C93297   3.646  10.176   9.601  0.1182  0.0150 -0.9284
  692MOL0     C93298   3.786  10.225   9.643  0.0697 -0.5809 -0.2243
  692MOL0     C93299   3.797  10.237   9.792  0.7020 -0.0290  0.7910
  692MOL0     C93300   3.899  10.347   9.825 -0.2581  0.0693 -0.2820
  692MOL0     C93301   3.965  10.325   9.964 -0.3664 -0.4423  0.4774
  692MOL0     N93302   4.084  10.233   9.966  0.1347 -0.0008  0.2385
  692MOL0     C93303   4.207  10.244   9.915 -0.5358  0.9314 -0.1043
  692MOL0     C93304   4.266  10.118   9.930  0.1766 -1.0623  0.0865
  692MOL0     C93305   4.399  10.090   9.874 -0.9693  0.5283  0.3840
  692MOL0     C93306   4.444   9.945   9.906 -0.3467 -0.6868 -0.3261
  692MOL0     C93307   4.588   9.930   9.883 -0.3540 -0.2407  0.3663
  692MOL0     C93308   4.632   9.796   9.930  0.4630  0.6113  0.8838
  692MOL0     O93309   4.759   9.763   9.871  0.6032 -0.4960  0.1055
  692MOL0     C93310   4.872   9.842   9.912  0.6007  0.5166  0.7475
  692MOL0     C93311   4.982   9.836   9.830 -0.7281  0.4599  0.2887
  692MOL0     C93312   5.106   9.910   9.851 -0.0681  0.1353 -0.1420
  692MOL0     C93313   5.115   9.982   9.970  0.2479 -0.3233  0.0614
  692MOL0     C93314   5.231  10.071   9.995 -0.8756  0.4185  0.6820
  692MOL0     O93315   5.224  10.181  10.077 -0.0779 -0.0184 -0.1646
  692MOL0     C93316   5.333  10.256  10.089  0.3435  0.3281 -0.0729
  692MOL0     C93317   5.465  10.204  10.106  0.0803  0.0871 -0.9525
  692MOL0     C93318   5.578  10.274  10.108 -0.7835 -0.3499  0.9438
  692MOL0     C93319   5.569  10.415  10.095  0.2971 -0.0194 -0.2500
  692MOL0     O93320   5.684  10.490  10.110  0.5525  0.1345 -0.4365
  692MOL0     C93321   5.662  10.625  10.133  0.1641 -0.4484  0.1518
  692MOL0     C93322   5.786  10.683  10.195 -0.3220  0.7555 -0.2118
  692MOL0     C93323   5.895  10.681  10.097  0.1619 -0.4427  0.3800
  692MOL0     C93324   6.026  10.751  10.151  0.1006 -0.8607 -0.4494
  692MOL0     C93325   6.150  10.736  10.057 -0.2774 -0.5856  0.3642
  692MOL0     C93326   6.131  10.816   9.924  0.0579  0.7880 -0.2039
  692MOL0     C93327   6.246  10.775   9.827  0.0642 -0.0832 -0.2815
  692MOL0     C93328   6.221  10.842   9.695  1.0784 -0.0794  0.6949
  692MOL0    Cl93329   6.239  11.025   9.712 -0.1259 -0.1852  0.2795
  692MOL0     C93330   5.437  10.469  10.075  0.6897  1.4166 -0.8426
  692MOL0     C93331   5.317  10.396  10.070 -0.7918 -0.3192 -0.0826
  692MOL0     O93332   5.327  10.052   9.917  0.3903  0.0350  0.0107
  692MOL0     C93333   5.002   9.982  10.063 -0.4957  0.0893  0.2436
  692MOL0     C93334   4.882   9.922  10.025 -0.4506  0.3097  0.0020
  692MOL0     N93335   4.173  10.038   9.993 -0.2703  0.2557 -0.6715
  692MOL0     N93336   4.067  10.107   9.997  0.0420  0.8613  0.1833
  692MOL0     C93337   3.353  10.238   9.892 -0.4271 -0.0116  1.4838
  692MOL0     C93338   3.360  10.141   9.992  0.5091 -0.1369  0.3766
  692MOL0     C93339   3.237   9.956  10.359 -0.5995 -0.6539  0.1047
  692MOL0     C93340   3.309   9.842  10.336  0.1423 -0.7812  0.0768
  692MOL0     C93341   3.303   9.741  10.432  0.0369  0.9750 -0.5660
  692MOL0     C93342   3.256   9.769  10.562 -0.3534 -1.1791  0.5667
  692MOL0     O93343   3.255   9.671  10.662  0.5307 -0.2006  0.5567
  692MOL0     C93344   3.129   9.653  10.731 -1.0651  0.7169 -0.6033
  692MOL0     C93345   3.010   9.641  10.644  0.1235 -0.5085 -0.5469
  692MOL0     C93346   2.892   9.586  10.719  0.2244  0.2939  0.6267
  692MOL0     C93347   2.769   9.582  10.628 -0.2839 -0.1401 -0.3311
  692MOL0     C93348   2.713   9.702  10.570 -0.1961 -0.4551  0.7324
  692MOL0     C93349   2.662   9.797  10.511  0.3282 -0.4146  0.3214
  692MOL0     C93350   3.201   9.896  10.591 -0.8549 -0.3098  0.1372
  692MOL0     C93351   3.190   9.989  10.489  0.5967 -1.3021 -0.0810
  692MOL0     C93352   3.107  10.113  10.528 -0.0418 -0.2829  0.9175
  692MOL0     H93353   3.062   9.995   9.947  1.1962 -2.8036  0.6342
  692MOL0     H93354   3.070  10.142   9.742  0.0852  1.0111 -0.4154
  692MOL0     H93355   3.218  10.206   9.518  0.6321  0.6249 -0.3726
  692MOL0     H93356   3.310  10.358   9.484  0.5746  0.9847  1.3473
  692MOL0     H93357   3.420  10.159   9.444 -4.3518 -1.1634 -0.6545
  692MOL0     H93358   3.403  10.123   9.613 -2.5166 -1.6698 -2.5514
  692MOL0     H93359   3.532  10.350   9.663  0.1663 -0.6215 -0.1847
  692MOL0     H93360   3.575  10.345   9.493  1.8000 -0.9564 -0.9920
  692MOL0     H93361   3.613  10.095   9.667  0.5806  1.6082  1.3900
  692MOL0     H93362   3.666  10.129   9.504 -3.9831 -1.0342 -1.4200
  692MOL0     H93363   3.860  10.148   9.622  1.5696 -0.0377  2.5775
  692MOL0     H93364   3.803  10.320   9.592 -1.7726 -0.3919 -0.5810
  692MOL0     H93365   3.696  10.270   9.818 -0.5401 -1.9382 -1.2028
  692MOL0     H93366   3.806  10.131   9.819  0.0021 -0.1867  0.4278
  692MOL0     H93367   3.844  10.441   9.829 -0.5930 -0.1523  0.3757
  692MOL0     H93368   3.978  10.362   9.750 -2.2530  1.3831 -2.2635
  692MOL0     H93369   4.005  10.422   9.997  1.3862 -1.0232  0.1783
  692MOL0     H93370   3.895  10.287  10.039 -3.1240 -1.1271 -2.2501
  692MOL0     H93371   4.240  10.331   9.859  0.7102 -0.5940 -1.8665
  692MOL0     H93372   4.392  10.113   9.767  0.3911 -0.1116  0.1275
  692MOL0     H93373   4.470  10.153   9.929  0.7111 -1.9392  1.2125
  692MOL0     H93374   4.413   9.935  10.011  1.0920 -0.2401  0.1742
  692MOL0     H93375   4.386   9.874   9.846 -0.9982  1.9430 -3.0277
  692MOL0     H93376   4.649  10.001   9.940 -0.7464  1.0571 -0.7734
  692MOL0     H93377   4.599   9.937   9.774  0.8645  2.4467  0.5823
  692MOL0     H93378   4.555   9.724   9.903  0.5565  1.0762 -0.7995
  692MOL0     H93379   4.625   9.783  10.038 -3.2733 -3.1875  0.4223
  692MOL0     H93380   4.980   9.765   9.748 -2.6426 -2.6185  2.7581
  692MOL0     H93381   5.179   9.894   9.771  0.8602 -0.4249  0.7906
  692MOL0     H93382   5.470  10.097  10.123  1.1334 -0.1261 -2.4079
  692MOL0     H93383   5.677  10.230  10.118 -0.6424 -0.2374  0.1236
  692MOL0     H93384   5.633  10.673  10.039 -1.7761 -0.8544  0.4995
  692MOL0     H93385   5.580  10.640  10.204 -2.0471 -1.0092 -2.1400
  692MOL0     H93386   5.776  10.786  10.229  0.6827  0.5540  0.7380
  692MOL0     H93387   5.804  10.622  10.284 -1.6508 -2.9915 -2.2703
  692MOL0     H93388   5.923  10.577  10.078  3.0716  0.4960 -0.9865
  692MOL0     H93389   5.868  10.721   9.999  1.5640 -0.1717  0.0936
  692MOL0     H93390   6.043  10.711  10.251 -1.2664  4.0902  2.0468
  692MOL0     H93391   6.000  10.857  10.153 -0.6551 -0.9944 -1.6607
  692MOL0     H93392   6.163  10.628  10.049  0.8560 -0.5528  1.3278
  692MOL0     H93393   6.241  10.773  10.106 -0.9728  0.9289  0.5672
  692MOL0     H93394   6.037  10.815   9.868 -0.0862  1.7534 -0.0115
  692MOL0     H93395   6.142  10.924   9.940  4.9357  0.3582  0.7571
  692MOL0     H93396   6.249  10.666   9.824  1.5612 -0.0898  0.5948
  692MOL0     H93397   6.341  10.810   9.869 -0.9360  2.1252  0.3105
  692MOL0     H93398   6.296  10.813   9.620 -1.5937  1.5800 -2.9241
  692MOL0     H93399   6.124  10.811   9.655  2.4419 -1.5907 -1.7006
  692MOL0     H93400   5.428  10.576  10.057  2.1384  1.2884 -2.5879
  692MOL0     H93401   5.227  10.449  10.040  0.2118  2.5560  1.5548
  692MOL0     H93402   5.007  10.040  10.154  2.9819 -1.2459  1.0763
  692MOL0     H93403   4.795   9.943  10.086  0.4630  3.2683  0.4584
  692MOL0     H93404   3.440  10.301   9.878  0.1818 -1.3617 -1.5082
  692MOL0     H93405   3.453  10.147  10.048  0.8320  2.3740 -0.2772
  692MOL0     H93406   3.355   9.805  10.245 -2.1851 -1.5686 -0.8466
  692MOL0     H93407   3.338   9.639  10.424 -1.3846  0.0263  3.1304
  692MOL0     H93408   3.130   9.734  10.804  1.2783 -0.9334  1.4031
  692MOL0     H93409   3.144   9.563  10.792  1.2518  2.0736  1.0089
  692MOL0     H93410   3.035   9.567  10.567  1.9101 -1.7548  1.1063
  692MOL0     H93411   2.989   9.741  10.608  3.4687  1.8325  3.1505
  692MOL0     H93412   2.878   9.656  10.802 -1.0543  1.4358 -0.4840
  692MOL0     H93413   2.913   9.482  10.743  2.2528  1.1697  3.0766
  692MOL0     H93414   2.779   9.523  10.536 -4.8682  2.2037 -2.6947
  692MOL0     H93415   2.690   9.526  10.678  1.4489 -0.4472  2.2708
  692MOL0     H93416   2.614   9.884  10.471  0.2171  1.1104  3.4563
  692MOL0     H93417   3.166   9.925  10.690  1.4423  0.4240  0.8026
  692MOL0     H93418   3.010  10.130  10.480 -0.4024 -0.8913  1.4086
  692MOL0     H93419   3.091  10.118  10.636  0.3124 -0.8172  0.9977
  692MOL0     H93420   3.172  10.197  10.502  0.7952 -1.5253 -1.3104
  693MOL0     O93421   8.864  10.930   0.522 -0.8067  0.6278 -0.1178
  693MOL0     C93422   8.972  10.938   0.456  0.2299 -0.2730 -0.7588
  693MOL0     O93423   9.029  11.058   0.437  0.7002 -0.8193  1.0454
  693MOL0     C93424   9.007  11.161   0.521  0.4527  0.0811 -0.3462
  693MOL0     C93425   8.997  11.286   0.465 -0.6407  0.4610 -0.2683
  693MOL0     C93426   8.983  11.401   0.549  0.6244 -0.6248 -0.5906
  693MOL0     C93427   8.962  11.383   0.681  0.7986  0.3754  0.2508
  693MOL0     O93428   8.922  11.476   0.777  0.0372  0.4942  0.4610
  693MOL0     C93429   8.961  11.617   0.760 -0.6277  0.2577 -0.5458
  693MOL0     C93430   8.844  11.687   0.682  0.4780  0.1694 -0.3006
  693MOL0     C93431   8.898  11.812   0.619  0.2309 -0.4661 -0.2052
  693MOL0     C93432   8.927  11.922   0.725  0.4143 -0.4893 -0.1196
  693MOL0     C93433   8.947  12.068   0.675  0.0055  0.4897 -0.3125
  693MOL0     C93434   8.996  12.185   0.773  0.6813  0.2209  0.4795
  693MOL0     C93435   9.036  12.314   0.701  0.3515 -0.6529 -0.0291
  693MOL0     C93436   9.061  12.443   0.785 -0.7622  0.0044  0.5749
  693MOL0     N93437   9.198  12.463   0.821 -1.0342 -0.2540 -0.4805
  693MOL0     C93438   9.277  12.389   0.904  0.0958 -0.2846 -0.4833
  693MOL0     C93439   9.403  12.419   0.878  0.2115 -0.4047  0.2409
  693MOL0     C93440   9.525  12.340   0.924 -0.5958 -0.5092  0.4202
  693MOL0     C93441   9.540  12.332   1.078  0.7664 -0.1519  0.0485
  693MOL0     C93442   9.670  12.251   1.121 -0.3590 -0.3245  0.2007
  693MOL0     C93443   9.807  12.298   1.080  0.8373 -0.2412 -0.1166
  693MOL0     O93444   9.821  12.440   1.077 -0.0571  0.4561 -0.5809
  693MOL0     C93445   9.813  12.524   1.185  0.6890 -0.9311 -0.9419
  693MOL0     C93446   9.807  12.476   1.310 -0.0330 -0.6178 -0.5946
  693MOL0     C93447   9.799  12.565   1.420 -0.0614  0.1835 -0.1390
  693MOL0     C93448   9.790  12.704   1.389 -0.3594  0.1396 -0.1173
  693MOL0     C93449   9.772  12.804   1.502  0.0829  0.5232  0.2468
  693MOL0     O93450   9.732  12.924   1.446 -0.5917  0.0720 -0.0179
  693MOL0     C93451   9.692  13.030   1.521 -0.5985 -1.3980  0.4998
  693MOL0     C93452   9.650  13.031   1.655  0.3707  0.6176  0.4883
  693MOL0     C93453   9.605  13.160   1.703  0.6461  0.5700  0.4159
  693MOL0     C93454   9.597  13.282   1.628 -0.4560 -0.3255  0.3116
  693MOL0     O93455   9.535  13.392   1.672 -0.1048 -0.2574  0.2225
  693MOL0     C93456   9.505  13.493   1.574 -0.0967  0.3408  0.1280
  693MOL0     C93457   9.413  13.595   1.647  0.1751 -0.4032  0.8479
  693MOL0     C93458   9.273  13.536   1.670 -0.3745 -0.4979 -0.1310
  693MOL0     C93459   9.179  13.645   1.713 -0.9474 -0.0466 -0.3247
  693MOL0     C93460   9.054  13.576   1.771 -0.4483 -0.2119 -0.3777
  693MOL0     C93461   8.926  13.650   1.767  0.6582  0.2401  0.1098
  693MOL0     C93462   8.806  13.554   1.772 -0.5748 -1.3369  0.5552
  693MOL0     C93463   8.764  13.496   1.908  0.0895  0.5444 -0.3421
  693MOL0    Cl93464   8.629  13.377   1.887 -0.2552  0.3045  0.0268
  693MOL0     C93465   9.669  13.271   1.506 -0.4046 -0.5639  0.5310
  693MOL0     C93466   9.708  13.150   1.455 -1.0492 -0.6867 -0.2621
  693MOL0     O93467   9.782  12.771   1.622 -0.4475 -0.4214 -0.2288
  693MOL0     C93468   9.797  12.742   1.264 -0.0183 -0.8914  0.0699
  693MOL0     C93469   9.811  12.663   1.158  0.2861 -0.5902 -0.4309
  693MOL0     N93470   9.405  12.519   0.778 -0.0876 -0.1139  0.2907
  693MOL0     N93471   9.281  12.532   0.733  0.3901 -0.1700 -0.6387
  693MOL0     C93472   8.978  11.260   0.737 -0.2696 -0.3592  0.8135
  693MOL0     C93473   8.991  11.148   0.656  0.1400 -0.4150 -1.0961
  693MOL0     C93474   9.036  10.820   0.388 -0.1684 -0.5764  0.9232
  693MOL0     C93475   9.173  10.822   0.348 -0.7140  0.9168 -0.1215
  693MOL0     C93476   9.223  10.729   0.254 -0.0392 -0.9068 -0.4189
  693MOL0     C93477   9.143  10.623   0.204  0.3196 -1.1382 -0.6401
  693MOL0     O93478   9.177  10.531   0.101  0.4057 -0.1627  0.2730
  693MOL0     C93479   9.296  10.558   0.020 -0.4561 -1.1161  0.2037
  693MOL0     C93480   9.299  10.451  -0.089  0.7806 -0.3415  0.0563
  693MOL0     C93481   9.367  10.332  -0.037  0.2155  0.3970  0.8754
  693MOL0     C93482   9.304  10.270   0.095  0.7180  0.1837 -0.5194
  693MOL0     C93483   9.377  10.149   0.119  1.7512  0.5103  0.0784
  693MOL0     C93484   9.456  10.056   0.124  0.7889 -0.3028  0.5196
  693MOL0     C93485   9.025  10.597   0.275  0.0804 -1.2162 -0.2902
  693MOL0     C93486   8.970  10.696   0.360 -1.3345 -1.0733  0.4565
  693MOL0     C93487   8.836  10.666   0.404 -0.8773 -0.2309 -0.2363
  693MOL0     H93488   9.010  11.312   0.361  2.1233  1.2963  0.2142
  693MOL0     H93489   8.978  11.501   0.509  0.7607  0.5394  2.0802
  693MOL0     H93490   9.001  11.669   0.848  0.6077  1.8116 -1.9526
  693MOL0     H93491   9.051  11.624   0.699  0.8190  0.2474  1.4824
  693MOL0     H93492   8.759  11.711   0.747  0.8733 -0.9339  0.6772
  693MOL0     H93493   8.806  11.614   0.610  0.5094 -1.9357  1.6716
  693MOL0     H93494   8.833  11.856   0.543  1.9591  1.5686 -0.5868
  693MOL0     H93495   8.990  11.790   0.563  0.8543  1.4794  0.0074
  693MOL0     H93496   8.855  11.918   0.808 -2.2571 -0.2280 -2.2826
  693MOL0     H93497   9.024  11.889   0.761 -0.2235 -1.2277  0.9930
  693MOL0     H93498   9.007  12.053   0.584 -1.0855 -1.8379 -0.7388
  693MOL0     H93499   8.849  12.091   0.630 -1.1420 -1.3312  1.1015
  693MOL0     H93500   8.908  12.215   0.830  0.9951  3.6681 -0.6363
  693MOL0     H93501   9.073  12.150   0.842  0.2121 -1.2833  0.2927
  693MOL0     H93502   8.966  12.361   0.632  0.5148 -0.9081 -0.3730
  693MOL0     H93503   9.130  12.290   0.650  0.3929  0.2473 -0.4042
  693MOL0     H93504   9.018  12.523   0.724 -0.6303 -1.9439 -2.2123
  693MOL0     H93505   9.006  12.435   0.880  0.4015  2.4204  1.5480
  693MOL0     H93506   9.247  12.311   0.973 -1.2412 -0.3155 -1.0827
  693MOL0     H93507   9.535  12.238   0.886 -0.7710 -0.6402  0.7245
  693MOL0     H93508   9.608  12.403   0.892 -1.4988  2.7754  3.8343
  693MOL0     H93509   9.539  12.432   1.121  1.9229 -0.7923  1.6535
  693MOL0     H93510   9.452  12.283   1.118 -0.0874  0.8090 -0.5974
  693MOL0     H93511   9.655  12.145   1.099  2.7014 -0.0562 -4.5512
  693MOL0     H93512   9.672  12.261   1.230  1.2929 -3.0796  0.5242
  693MOL0     H93513   9.826  12.264   0.978 -0.2551 -1.5021  0.0690
  693MOL0     H93514   9.885  12.257   1.145 -0.2994 -0.2505  1.3035
  693MOL0     H93515   9.816  12.372   1.340 -1.2755 -0.5350  0.1532
  693MOL0     H93516   9.794  12.513   1.515  0.0183 -1.4908 -0.9999
  693MOL0     H93517   9.650  12.936   1.708  0.1189 -0.0874 -0.7381
  693MOL0     H93518   9.559  13.163   1.802 -2.7328  1.3191 -1.0306
  693MOL0     H93519   9.593  13.552   1.548  0.5602  0.3446  2.1358
  693MOL0     H93520   9.456  13.454   1.485 -0.1939 -1.0503  0.7563
  693MOL0     H93521   9.473  13.622   1.734  3.4144  1.5623 -1.7724
  693MOL0     H93522   9.408  13.689   1.591  0.3092  0.0252  1.5427
  693MOL0     H93523   9.229  13.485   1.584 -0.9516 -1.1581  0.5539
  693MOL0     H93524   9.282  13.466   1.753  0.6057 -0.0783  0.1316
  693MOL0     H93525   9.163  13.705   1.622  3.1237  0.9849 -0.5350
  693MOL0     H93526   9.208  13.713   1.793 -0.4715  0.9006 -1.2706
  693MOL0     H93527   9.075  13.549   1.875 -0.6610  1.7167  0.1995
  693MOL0     H93528   9.038  13.481   1.717 -3.5199 -0.7938  1.3335
  693MOL0     H93529   8.925  13.719   1.853 -0.3390  1.1202 -0.5842
  693MOL0     H93530   8.930  13.706   1.673  3.5972  0.9939  0.5687
  693MOL0     H93531   8.816  13.476   1.696 -0.5886 -1.2684  0.4827
  693MOL0     H93532   8.727  13.622   1.739  0.9389 -0.0115 -0.4928
  693MOL0     H93533   8.852  13.448   1.953 -0.9630  0.3161  1.5304
  693MOL0     H93534   8.725  13.575   1.971  2.2426  1.8042 -0.4877
  693MOL0     H93535   9.678  13.353   1.436  0.0605 -0.9090  0.1795
  693MOL0     H93536   9.754  13.154   1.357  1.8707  4.1685  0.9744
  693MOL0     H93537   9.805  12.847   1.236  2.4245 -1.4905 -1.8026
  693MOL0     H93538   9.821  12.715   1.063  0.5835  0.1354 -0.0050
  693MOL0     H93539   8.969  11.239   0.843 -2.1874 -3.4145  0.1858
  693MOL0     H93540   9.005  11.053   0.705  0.5649  0.2792  0.1763
  693MOL0     H93541   9.223  10.909   0.388 -3.9108  1.7649  2.3831
  693MOL0     H93542   9.314  10.754   0.202  0.4152  0.1308  0.8261
  693MOL0     H93543   9.387  10.560   0.080 -0.1125  3.0162 -0.1702
  693MOL0     H93544   9.295  10.659  -0.022 -2.3531 -0.5700  1.4584
  693MOL0     H93545   9.361  10.481  -0.175  2.3459  1.0817  1.6008
  693MOL0     H93546   9.198  10.426  -0.123 -1.3119  1.7925  4.0752
  693MOL0     H93547   9.472  10.357  -0.018  0.2695  1.3685 -0.5057
  693MOL0     H93548   9.373  10.255  -0.114  0.6574  0.5286  0.7727
  693MOL0     H93549   9.315  10.329   0.187  0.4511 -2.7339  1.5353
  693MOL0     H93550   9.198  10.257   0.074  0.7089 -0.7964  0.0795
  693MOL0     H93551   9.537   9.986   0.135 -0.4491 -2.2871 -2.0197
  693MOL0     H93552   8.965  10.512   0.244 -1.1912 -0.4062 -0.1440
  693MOL0     H93553   8.809  10.573   0.354  0.3883 -1.3484  1.0705
  693MOL0     H93554   8.831  10.659   0.513 -1.9087 -0.2000 -0.2721
  693MOL0     H93555   8.750  10.733   0.387 -2.9305 -2.9719 -1.4546
  694MOL0     O93556  10.108   3.355   6.218  0.1648  0.6295  0.4255
  694MOL0     C93557  10.013   3.412   6.169  0.7489 -0.1349 -0.1933
  694MOL0     O93558   9.901   3.451   6.234  0.2601  0.5729  0.3234
  694MOL0     C93559   9.854   3.360   6.330  0.0579  0.0398 -0.9454
  694MOL0     C93560   9.849   3.218   6.326 -0.3021 -0.3389 -0.7237
  694MOL0     C93561   9.781   3.145   6.427  0.1536 -0.0241  0.5347
  694MOL0     C93562   9.720   3.206   6.528  0.2510  0.0430  0.9029
  694MOL0     O93563   9.652   3.132   6.618 -0.0824 -0.8044  0.0279
  694MOL0     C93564   9.656   3.175   6.761  0.8594 -0.2611 -0.3915
  694MOL0     C93565   9.602   3.049   6.839  0.0332  0.4924 -0.0638
  694MOL0     C93566   9.475   2.983   6.771  0.2656 -0.6664 -0.3658
  694MOL0     C93567   9.383   2.902   6.862  0.1101  0.4136 -1.3103
  694MOL0     C93568   9.276   2.825   6.780 -0.1069 -0.2327  0.1205
  694MOL0     C93569   9.178   2.754   6.880  0.4305 -0.4341 -0.0601
  694MOL0     C93570   9.082   2.655   6.828 -0.0658 -0.1567 -0.3347
  694MOL0     C93571   8.992   2.725   6.723 -0.3002  0.3131  0.9174
  694MOL0     N93572   8.914   2.625   6.651  0.4504  0.6708  0.3985
  694MOL0     C93573   8.808   2.550   6.699  0.4712 -0.5447  0.3813
  694MOL0     C93574   8.750   2.483   6.593  0.3796 -0.0351 -0.0986
  694MOL0     C93575   8.621   2.399   6.602 -0.0664  0.8102  0.2744
  694MOL0     C93576   8.501   2.488   6.630  0.6115 -0.0391  0.0486
  694MOL0     C93577   8.452   2.568   6.504  0.2359  0.3449  0.1821
  694MOL0     C93578   8.319   2.638   6.529 -0.1158  1.1816 -0.7527
  694MOL0     O93579   8.199   2.564   6.567  0.5278  0.8362 -0.6061
  694MOL0     C93580   8.157   2.559   6.691  0.5618 -0.3666  0.1248
  694MOL0     C93581   8.227   2.612   6.802  1.2711 -0.0576 -0.1627
  694MOL0     C93582   8.173   2.607   6.930 -0.7100  0.5494 -0.2019
  694MOL0     C93583   8.044   2.548   6.951 -0.1510  0.5005 -0.6981
  694MOL0     C93584   8.004   2.512   7.094  0.1843 -0.0222  0.1948
  694MOL0     O93585   7.870   2.522   7.119  0.0145  0.4490 -0.2527
  694MOL0     C93586   7.825   2.520   7.247 -0.9699 -0.0355 -0.4399
  694MOL0     C93587   7.868   2.613   7.335  0.7843 -0.3006  0.2299
  694MOL0     C93588   7.812   2.625   7.465  0.5771  1.1912  0.3638
  694MOL0     C93589   7.726   2.528   7.510 -0.3365  0.7342  0.4021
  694MOL0     O93590   7.691   2.540   7.645 -0.0996 -0.4928 -0.0967
  694MOL0     C93591   7.545   2.539   7.671 -0.4194 -0.4146 -0.0233
  694MOL0     C93592   7.516   2.659   7.765 -0.3893 -0.3430 -0.2495
  694MOL0     C93593   7.385   2.639   7.849 -0.3232 -0.1021  0.4158
  694MOL0     C93594   7.281   2.729   7.775 -0.0051 -0.6215 -0.6709
  694MOL0     C93595   7.132   2.710   7.825 -0.2207 -0.7996 -0.5084
  694MOL0     C93596   7.030   2.725   7.721  0.5425 -0.2662  0.6386
  694MOL0     C93597   7.041   2.867   7.665 -0.5183  0.3983 -0.7533
  694MOL0     C93598   6.933   2.924   7.574  0.0800 -0.0396  0.0531
  694MOL0    Cl93599   7.015   3.063   7.512 -0.2240 -0.2791 -0.4301
  694MOL0     C93600   7.669   2.445   7.415  0.7891 -0.2392  0.0946
  694MOL0     C93601   7.713   2.443   7.286 -0.0111 -0.5818 -0.2263
  694MOL0     O93602   8.092   2.503   7.177  0.0087 -0.0712 -0.4707
  694MOL0     C93603   7.978   2.491   6.837 -0.0908 -0.5161  0.3197
  694MOL0     C93604   8.032   2.500   6.708 -0.2900  0.8427  0.4390
  694MOL0     N93605   8.832   2.518   6.484 -0.8566 -0.1387  0.9420
  694MOL0     N93606   8.929   2.591   6.518 -0.0538 -0.2167 -0.1475
  694MOL0     C93607   9.716   3.342   6.525  0.8170 -0.5967  0.2126
  694MOL0     C93608   9.791   3.422   6.439 -0.2576 -0.2417  0.9031
  694MOL0     C93609  10.031   3.451   6.027  0.6121  0.0403  0.0577
  694MOL0     C93610  10.087   3.352   5.947  0.1956  0.0769  0.5485
  694MOL0     C93611  10.107   3.360   5.819 -0.0367  0.4577  0.8094
  694MOL0     C93612  10.090   3.485   5.749  0.5288  0.0371  0.1264
  694MOL0     O93613  10.131   3.512   5.620  0.2846 -0.3737 -0.6339
  694MOL0     C93614  10.162   3.404   5.531 -0.8884  0.0154  0.0843
  694MOL0     C93615  10.045   3.333   5.454 -0.1369  0.9182 -0.1892
  694MOL0     C93616   9.921   3.428   5.419 -0.2085 -0.8785 -0.3293
  694MOL0     C93617   9.925   3.486   5.276 -0.6826  0.0948  0.5032
  694MOL0     C93618   9.878   3.393   5.166  1.2153  0.2126 -0.1833
  694MOL0     C93619   9.843   3.307   5.083  0.7652 -0.3142 -0.6702
  694MOL0     C93620  10.033   3.586   5.825 -0.1381 -0.2219  0.1845
  694MOL0     C93621  10.013   3.579   5.968 -0.0812  0.4544  0.4452
  694MOL0     C93622   9.966   3.711   6.037  0.0834 -1.5067  0.9028
  694MOL0     H93623   9.903   3.163   6.250  0.4220  0.6373 -0.9331
  694MOL0     H93624   9.783   3.037   6.422 -0.9711 -0.0291 -0.2284
  694MOL0     H93625   9.760   3.196   6.791  0.6459  0.5421 -0.1954
  694MOL0     H93626   9.589   3.261   6.773 -0.6140 -0.6468 -4.2507
  694MOL0     H93627   9.575   3.058   6.945 -2.1264  1.7921 -0.6436
  694MOL0     H93628   9.673   2.966   6.834 -0.6799 -0.2940  1.7395
  694MOL0     H93629   9.511   2.920   6.689  0.4282  0.9790 -1.6074
  694MOL0     H93630   9.420   3.064   6.723  0.4459  0.5865  1.4359
  694MOL0     H93631   9.432   2.815   6.906  0.5650  0.6829 -1.2847
  694MOL0     H93632   9.351   2.965   6.946  0.6121 -0.2577 -0.6072
  694MOL0     H93633   9.219   2.898   6.722 -0.9861 -0.6425  0.4479
  694MOL0     H93634   9.331   2.757   6.715 -0.8898  0.8355 -1.7509
  694MOL0     H93635   9.238   2.707   6.958 -2.4132 -0.5302  2.2072
  694MOL0     H93636   9.121   2.835   6.927  1.2389 -1.4031  2.7808
  694MOL0     H93637   9.031   2.604   6.910  3.8892  1.2033  3.3802
  694MOL0     H93638   9.141   2.586   6.767  0.9267 -0.9300  1.4422
  694MOL0     H93639   8.923   2.795   6.770 -1.2953  0.2774 -0.4370
  694MOL0     H93640   9.058   2.777   6.654  1.5494 -1.0969  1.5356
  694MOL0     H93641   8.750   2.557   6.790  0.9328 -1.2751  0.7378
  694MOL0     H93642   8.596   2.338   6.515 -0.4414 -0.6727  1.3713
  694MOL0     H93643   8.623   2.322   6.680  1.6275 -1.0331 -1.4712
  694MOL0     H93644   8.417   2.429   6.668  1.5565 -0.8999  0.8505
  694MOL0     H93645   8.520   2.559   6.711 -1.0230 -1.1777  1.4792
  694MOL0     H93646   8.437   2.501   6.419 -0.7831  1.8325 -0.8490
  694MOL0     H93647   8.529   2.639   6.475 -1.4998  2.0906 -0.3706
  694MOL0     H93648   8.293   2.680   6.431 -4.6970  0.0415 -0.2416
  694MOL0     H93649   8.338   2.716   6.603  1.7248 -0.2921  0.4282
  694MOL0     H93650   8.327   2.653   6.795  1.6563 -1.2658 -3.9983
  694MOL0     H93651   8.227   2.659   7.008 -2.3508  0.4216  1.0673
  694MOL0     H93652   7.950   2.672   7.297  1.7886 -1.2794  0.8273
  694MOL0     H93653   7.840   2.704   7.533  1.6567 -0.2454  1.6674
  694MOL0     H93654   7.490   2.563   7.580  1.1402  0.9127 -0.6646
  694MOL0     H93655   7.510   2.448   7.722 -1.5791  1.0061  1.8590
  694MOL0     H93656   7.597   2.674   7.837 -2.5556  1.3094  1.9775
  694MOL0     H93657   7.518   2.754   7.711  2.3394 -0.4755 -0.5348
  694MOL0     H93658   7.359   2.534   7.832  0.3823 -0.0490 -1.1175
  694MOL0     H93659   7.394   2.663   7.956  0.2317  3.7735 -0.3516
  694MOL0     H93660   7.287   2.701   7.669 -0.4779  0.4752 -1.0062
  694MOL0     H93661   7.324   2.825   7.804  1.0717 -0.8434 -1.4607
  694MOL0     H93662   7.126   2.771   7.916  2.7022  0.2375 -0.9100
  694MOL0     H93663   7.114   2.608   7.861 -2.5096 -0.4316 -0.4348
  694MOL0     H93664   7.053   2.653   7.642  0.3351 -1.0029  1.2364
  694MOL0     H93665   6.933   2.718   7.771  0.7716  2.6096  1.6689
  694MOL0     H93666   7.138   2.862   7.615  0.2135  0.6136  0.6013
  694MOL0     H93667   7.036   2.928   7.756 -2.3911 -0.7155 -0.0537
  694MOL0     H93668   6.906   2.855   7.493 -1.8906 -1.1071  1.5367
  694MOL0     H93669   6.846   2.960   7.629 -0.2507  0.1866 -0.6090
  694MOL0     H93670   7.578   2.393   7.440  0.9459 -0.8426 -0.5787
  694MOL0     H93671   7.670   2.378   7.210  1.4650  0.9281 -2.4631
  694MOL0     H93672   7.887   2.432   6.836 -1.2367  1.1265 -1.5622
  694MOL0     H93673   7.987   2.463   6.617  1.7451  0.5366 -0.5118
  694MOL0     H93674   9.667   3.406   6.598  0.3315 -1.2826  0.4994
  694MOL0     H93675   9.791   3.530   6.445 -4.7817  0.0813 -1.1515
  694MOL0     H93676  10.087   3.252   5.989 -1.0358 -0.3530 -0.4244
  694MOL0     H93677  10.120   3.274   5.753 -2.7878  2.4475 -2.6575
  694MOL0     H93678  10.221   3.317   5.562 -0.6939 -0.9928 -2.8130
  694MOL0     H93679  10.225   3.446   5.452 -0.3751 -3.0575 -1.3101
  694MOL0     H93680  10.002   3.256   5.519  0.6914  0.8540  0.3088
  694MOL0     H93681  10.078   3.285   5.362 -1.9706  2.0052 -1.4575
  694MOL0     H93682   9.908   3.508   5.493 -0.0117  0.4037 -1.6203
  694MOL0     H93683   9.832   3.364   5.424  0.7049 -2.3136 -1.6171
  694MOL0     H93684   9.854   3.569   5.283 -1.4986 -0.6215  0.8630
  694MOL0     H93685  10.024   3.531   5.260  0.5391 -1.1215  3.9205
  694MOL0     H93686   9.815   3.245   5.001  3.6752 -1.8169 -0.6827
  694MOL0     H93687  10.018   3.682   5.776 -0.5974 -0.4941 -0.2219
  694MOL0     H93688  10.031   3.796   6.012 -0.2469 -1.8052 -1.1175
  694MOL0     H93689   9.864   3.741   6.015  1.4371  2.1581 -1.2236
  694MOL0     H93690   9.975   3.688   6.144  1.3340 -1.4741  0.8257
  695MOL0     O93691  11.093   1.140   6.874 -0.7615  0.2834  0.9229
  695MOL0     C93692  11.218   1.127   6.875 -0.1786 -0.2103  0.7832
  695MOL0     O93693  11.299   1.034   6.814 -0.1948  0.1386  0.4431
  695MOL0     C93694  11.245   0.918   6.766 -0.3062  0.1220 -0.2692
  695MOL0     C93695  11.120   0.896   6.703 -0.4186 -0.1830 -1.3841
  695MOL0     C93696  11.079   0.770   6.669 -0.3132  0.2152  0.1286
  695MOL0     C93697  11.162   0.660   6.671 -0.4020 -0.5291 -0.2362
  695MOL0     O93698  11.129   0.532   6.635 -0.3794  0.2150 -0.8702
  695MOL0     C93699  11.038   0.499   6.532 -0.3779  0.1190  0.6104
  695MOL0     C93700  11.089   0.506   6.389 -0.2384 -0.4817  0.6794
  695MOL0     C93701  10.961   0.478   6.301  0.7782  0.4897 -0.5043
  695MOL0     C93702  10.892   0.597   6.239 -1.3616  0.1719 -0.0842
  695MOL0     C93703  10.761   0.582   6.168  0.2176  0.0830 -0.4601
  695MOL0     C93704  10.693   0.711   6.155  0.0775 -0.1497  0.8668
  695MOL0     C93705  10.561   0.683   6.073  0.0815 -0.2036  0.3812
  695MOL0     C93706  10.488   0.806   6.020 -0.3930  0.6478 -1.0237
  695MOL0     N93707  10.583   0.907   5.965 -0.9802  0.2299  0.0663
  695MOL0     C93708  10.670   0.879   5.856 -0.0456  0.3745 -1.1219
  695MOL0     C93709  10.728   1.000   5.841 -0.8320 -0.4057 -0.0280
  695MOL0     C93710  10.831   1.025   5.742 -0.5795  0.3457 -0.6003
  695MOL0     C93711  10.778   1.122   5.626  0.4348  1.2559 -0.5655
  695MOL0     C93712  10.877   1.143   5.521  0.4090 -0.3982 -0.0156
  695MOL0     C93713  10.975   1.257   5.551 -0.6646  0.3154  0.3506
  695MOL0     O93714  10.910   1.387   5.541  0.6600 -0.0652 -1.0619
  695MOL0     C93715  10.929   1.462   5.424 -0.2518 -0.1729 -0.3169
  695MOL0     C93716  11.018   1.428   5.319 -0.4306  0.1070  0.8355
  695MOL0     C93717  11.010   1.511   5.201 -0.1903 -0.9831  0.7139
  695MOL0     C93718  10.927   1.630   5.193 -0.1687  0.3561 -0.0778
  695MOL0     C93719  10.922   1.722   5.080  0.5566  0.6973 -0.0869
  695MOL0     O93720  10.901   1.855   5.109  0.0863 -0.6519 -0.2457
  695MOL0     C93721  10.886   1.944   5.006  0.5391 -0.3474 -0.0042
  695MOL0     C93722  10.922   2.077   5.028  0.7821  0.6845 -0.1219
  695MOL0     C93723  10.908   2.170   4.929 -0.2900  0.2477  0.0810
  695MOL0     C93724  10.862   2.135   4.798  0.3963 -0.3920 -0.7019
  695MOL0     O93725  10.866   2.223   4.697  0.1358  0.2637 -0.4099
  695MOL0     C93726  10.737   2.293   4.669  0.4072  0.2484  0.5258
  695MOL0     C93727  10.779   2.428   4.615  0.8188  0.2434 -0.3700
  695MOL0     C93728  10.649   2.488   4.553  0.1258 -0.4780 -0.5669
  695MOL0     C93729  10.698   2.594   4.462  0.5251  0.1669  0.6403
  695MOL0     C93730  10.799   2.699   4.508  0.2913 -0.1786  0.3851
  695MOL0     C93731  10.846   2.789   4.397 -0.4418  0.4635 -0.8929
  695MOL0     C93732  10.885   2.724   4.263  0.2809 -0.3406 -0.1999
  695MOL0     C93733  10.915   2.841   4.166  0.3313 -0.3203  0.1912
  695MOL0    Cl93734  10.748   2.934   4.136  0.1377  0.0306  0.0291
  695MOL0     C93735  10.832   2.001   4.782  0.7827 -0.2237 -0.1626
  695MOL0     C93736  10.836   1.903   4.876 -0.2715 -0.9050 -0.4471
  695MOL0     O93737  10.968   1.671   4.975  0.7400 -0.8453  0.1222
  695MOL0     C93738  10.848   1.667   5.312 -0.1935 -1.0389 -0.0750
  695MOL0     C93739  10.854   1.579   5.422  0.7739 -1.1679 -0.6599
  695MOL0     N93740  10.690   1.097   5.938 -0.2697 -0.2943 -0.3465
  695MOL0     N93741  10.593   1.031   6.007  0.4719  0.2475 -0.4913
  695MOL0     C93742  11.293   0.685   6.728 -0.8026  1.9131  0.4445
  695MOL0     C93743  11.330   0.815   6.763 -0.3826  0.6372 -0.7875
  695MOL0     C93744  11.293   1.224   6.960  0.3304  0.4548  0.7712
  695MOL0     C93745  11.269   1.356   6.935 -1.1071 -0.8372 -0.6579
  695MOL0     C93746  11.356   1.452   6.984 -0.1929 -0.2599 -1.0527
  695MOL0     C93747  11.461   1.414   7.081  0.7109 -0.6983  0.0476
  695MOL0     O93748  11.558   1.502   7.118 -0.4702  0.5129 -0.7858
  695MOL0     C93749  11.628   1.579   7.020  1.1420 -0.9674 -0.7691
  695MOL0     C93750  11.589   1.728   7.060  0.2862 -0.7773  0.2719
  695MOL0     C93751  11.620   1.846   6.966  0.1273  0.4629  0.7105
  695MOL0     C93752  11.523   1.969   6.997 -0.4528  0.1785 -0.4409
  695MOL0     C93753  11.539   2.026   7.130 -0.4970  0.1620  0.2348
  695MOL0     C93754  11.552   2.059   7.247 -0.0142  0.7293 -0.2591
  695MOL0     C93755  11.479   1.278   7.106  1.1851 -0.1474  0.0518
  695MOL0     C93756  11.390   1.184   7.052 -0.3204 -0.3562  0.8170
  695MOL0     C93757  11.390   1.032   7.102  0.5793 -0.9579 -0.2270
  695MOL0     H93758  11.060   0.986   6.695  0.0383  0.1519 -1.0617
  695MOL0     H93759  10.981   0.769   6.623 -0.2678  0.1727  0.0347
  695MOL0     H93760  11.010   0.394   6.543 -0.4885  0.1266  0.3885
  695MOL0     H93761  10.945   0.556   6.540  0.2088  1.3201 -0.6717
  695MOL0     H93762  11.171   0.435   6.385 -0.3752 -0.6664  1.0338
  695MOL0     H93763  11.123   0.609   6.376 -2.7292  0.6078  1.9351
  695MOL0     H93764  10.886   0.421   6.357 -0.7024  0.4026 -2.4730
  695MOL0     H93765  10.996   0.405   6.226  1.8958 -0.6774  1.0858
  695MOL0     H93766  10.895   0.677   6.313  3.9292 -1.4750  1.9580
  695MOL0     H93767  10.957   0.642   6.163  0.9047 -2.8524 -0.1222
  695MOL0     H93768  10.792   0.537   6.073 -0.2840 -0.0339 -0.5742
  695MOL0     H93769  10.696   0.516   6.226 -1.6978  1.1450 -1.2969
  695MOL0     H93770  10.666   0.753   6.253  1.3747 -0.0530  1.2010
  695MOL0     H93771  10.753   0.784   6.099 -2.7053  0.0020 -2.2000
  695MOL0     H93772  10.490   0.627   6.134  0.3390 -2.1657 -1.0282
  695MOL0     H93773  10.589   0.619   5.989  3.6234  1.9765 -0.3082
  695MOL0     H93774  10.420   0.775   5.940 -1.6882  2.0017 -0.4917
  695MOL0     H93775  10.428   0.851   6.099  2.1044  0.2455  1.2474
  695MOL0     H93776  10.695   0.789   5.801 -1.8503 -0.9887  0.1605
  695MOL0     H93777  10.924   1.059   5.787 -0.6624 -4.1413  3.8569
  695MOL0     H93778  10.858   0.925   5.705 -1.0607  0.4699 -1.3225
  695MOL0     H93779  10.691   1.079   5.575 -0.6577  0.5556  1.7668
  695MOL0     H93780  10.738   1.211   5.675 -1.0331 -0.0559  0.7005
  695MOL0     H93781  10.825   1.183   5.432  2.4606  0.7628 -0.7603
  695MOL0     H93782  10.919   1.045   5.497 -1.7437 -1.6478  0.9901
  695MOL0     H93783  11.065   1.243   5.491 -0.4817 -2.2634  1.1095
  695MOL0     H93784  11.011   1.249   5.654  1.8664 -3.2159 -0.5878
  695MOL0     H93785  11.091   1.348   5.320 -0.4818  0.0613  1.0609
  695MOL0     H93786  11.074   1.492   5.115 -0.1160  1.3209  0.1944
  695MOL0     H93787  10.950   2.114   5.126 -4.2908  0.8876  1.5517
  695MOL0     H93788  10.927   2.276   4.944  0.3204  0.2903 -0.9112
  695MOL0     H93789  10.665   2.240   4.606 -0.6103  1.1503  0.8951
  695MOL0     H93790  10.685   2.312   4.764 -0.5888 -0.2770  0.0936
  695MOL0     H93791  10.819   2.483   4.700  4.1111 -2.9928  0.4146
  695MOL0     H93792  10.853   2.411   4.536  0.0453 -0.5567 -0.9497
  695MOL0     H93793  10.588   2.416   4.497 -0.6551 -1.8789  1.9059
  695MOL0     H93794  10.603   2.534   4.641  0.8539  3.4604 -2.0848
  695MOL0     H93795  10.619   2.646   4.407  1.9837  0.8231 -0.9323
  695MOL0     H93796  10.745   2.520   4.396 -1.8941 -3.0380  2.1991
  695MOL0     H93797  10.892   2.646   4.529  1.1290 -0.7074 -3.8605
  695MOL0     H93798  10.763   2.744   4.601  2.3047 -2.1654  2.2478
  695MOL0     H93799  10.767   2.862   4.379 -0.4084  0.5734 -0.6076
  695MOL0     H93800  10.929   2.838   4.449  0.5346 -4.3045  2.8272
  695MOL0     H93801  10.798   2.662   4.240 -0.0030 -0.7715  1.8521
  695MOL0     H93802  10.974   2.660   4.271  1.4637  1.2387 -0.2006
  695MOL0     H93803  10.981   2.912   4.216 -0.3402  0.1116  0.4755
  695MOL0     H93804  10.961   2.825   4.068  1.7981  3.2758  0.1532
  695MOL0     H93805  10.797   1.971   4.683 -0.4609  2.5322 -0.6599
  695MOL0     H93806  10.802   1.801   4.859 -1.7105  0.0220 -4.0269
  695MOL0     H93807  10.778   1.750   5.314 -1.0725 -1.7505  2.6096
  695MOL0     H93808  10.800   1.604   5.512 -0.8163  1.2705 -2.1537
  695MOL0     H93809  11.364   0.604   6.740 -2.4681  0.4863  1.0469
  695MOL0     H93810  11.433   0.833   6.791 -0.4251  0.2482 -0.3625
  695MOL0     H93811  11.187   1.393   6.874 -2.0368  0.0426  1.0645
  695MOL0     H93812  11.343   1.557   6.962 -1.5552  0.0409  0.8685
  695MOL0     H93813  11.580   1.564   6.923  4.0367  1.0076 -2.6755
  695MOL0     H93814  11.731   1.544   7.013  2.0733  1.0928  1.5628
  695MOL0     H93815  11.618   1.757   7.161 -1.0284  0.3919  0.3459
  695MOL0     H93816  11.480   1.731   7.052  0.3102  0.2674  0.2567
  695MOL0     H93817  11.609   1.813   6.862  2.2235  0.6119  0.3828
  695MOL0     H93818  11.727   1.868   6.976  0.0542  0.7796  0.7925
  695MOL0     H93819  11.553   2.048   6.928  1.5060 -1.6731 -1.8263
  695MOL0     H93820  11.417   1.949   6.976 -0.7893  0.6586  0.7256
  695MOL0     H93821  11.557   2.084   7.351  4.1097  0.1356 -0.1449
  695MOL0     H93822  11.564   1.243   7.164  1.0762  0.7875  0.8012
  695MOL0     H93823  11.375   1.027   7.210 -0.0730 -2.5919 -0.3705
  695MOL0     H93824  11.313   0.969   7.057  1.0526 -2.1806  0.6525
  695MOL0     H93825  11.495   1.001   7.095  0.8938  0.0756 -0.3527
  696MOL0     O93826   3.221   1.433  10.112 -0.3411  0.2960 -0.6389
  696MOL0     C93827   3.289   1.361  10.191  1.6659  0.1687 -0.2993
  696MOL0     O93828   3.260   1.235  10.218  0.0943 -0.6289 -0.1955
  696MOL0     C93829   3.155   1.151  10.175 -0.6243 -0.0061  0.5487
  696MOL0     C93830   3.023   1.195  10.157 -0.4285  0.1584  0.5450
  696MOL0     C93831   2.936   1.097  10.109  0.0103 -0.5555 -1.0475
  696MOL0     C93832   2.974   0.964  10.094  0.4015 -0.3889  0.6276
  696MOL0     O93833   2.875   0.874  10.054 -0.0172  0.7839  0.4233
  696MOL0     C93834   2.904   0.734  10.059  1.0519  0.6582 -0.6797
  696MOL0     C93835   2.899   0.690  10.205  0.2480 -0.6302 -0.4166
  696MOL0     C93836   2.972   0.551  10.229  1.5186  0.8275 -0.3414
  696MOL0     C93837   2.919   0.440  10.134  0.4391 -0.1661  0.1250
  696MOL0     C93838   2.973   0.304  10.181  0.8429  0.1228  0.1969
  696MOL0     C93839   2.971   0.271  10.331 -0.0661 -0.3736  0.2040
  696MOL0     C93840   2.972   0.125  10.381  0.6856 -0.3189 -0.3946
  696MOL0     C93841   3.109   0.072  10.392 -0.1522  0.3565 -0.0745
  696MOL0     N93842   3.117  -0.067  10.450  0.0674 -0.3296 -1.2006
  696MOL0     C93843   3.124  -0.182  10.375  0.5216 -0.6255  0.1688
  696MOL0     C93844   3.148  -0.281  10.461  0.4283 -0.1711  0.0900
  696MOL0     C93845   3.163  -0.419  10.411 -0.3166  0.6361 -1.1432
  696MOL0     C93846   3.217  -0.524  10.511 -1.0444 -0.4954 -1.2599
  696MOL0     C93847   3.207  -0.668  10.459 -0.4551 -0.5825 -0.1259
  696MOL0     C93848   3.303  -0.700  10.343  0.8170 -0.5706  0.0607
  696MOL0     O93849   3.282  -0.808  10.257 -0.2569  0.6861 -0.3049
  696MOL0     C93850   3.181  -0.802  10.160  0.4021  0.2767 -0.8156
  696MOL0     C93851   3.158  -0.914  10.080 -0.0742 -0.2286 -0.0096
  696MOL0     C93852   3.058  -0.931   9.991 -0.5920 -0.0034 -0.0558
  696MOL0     C93853   2.959  -0.831   9.984 -0.2007  0.4046 -0.3376
  696MOL0     C93854   2.838  -0.847   9.902  0.2522  0.7179  0.5890
  696MOL0     O93855   2.839  -0.925   9.786  0.2495 -0.5918 -0.9357
  696MOL0     C93856   2.734  -0.922   9.702  0.0249  0.4895 -1.1710
  696MOL0     C93857   2.650  -1.030   9.700 -0.1008 -0.7347 -0.0483
  696MOL0     C93858   2.536  -1.032   9.623 -0.6979  0.2066  0.8466
  696MOL0     C93859   2.491  -0.910   9.561  0.5312 -0.4848 -0.2293
  696MOL0     O93860   2.372  -0.915   9.495  0.4286  0.1349 -0.7704
  696MOL0     C93861   2.256  -0.944   9.580  0.9059  0.3530 -0.8286
  696MOL0     C93862   2.166  -1.047   9.515 -0.0834  0.9257  0.9459
  696MOL0     C93863   2.015  -1.044   9.539 -0.1716  0.9620 -0.7483
  696MOL0     C93864   1.988  -1.090   9.687 -0.2423 -0.2364  0.3436
  696MOL0     C93865   1.836  -1.063   9.719 -0.1943  1.0604 -0.7882
  696MOL0     C93866   1.819  -1.050   9.868  0.5722  0.2842  0.0871
  696MOL0     C93867   1.677  -1.025   9.900  0.6062  1.0844  0.3250
  696MOL0     C93868   1.683  -0.997  10.052 -0.8566  0.7831 -0.7788
  696MOL0    Cl93869   1.525  -0.960  10.133 -0.0089  0.2247 -0.4368
  696MOL0     C93870   2.575  -0.794   9.570  0.5187 -0.4328 -0.1962
  696MOL0     C93871   2.703  -0.804   9.639  0.6348 -0.0303 -0.2432
  696MOL0     O93872   2.747  -0.775   9.938  0.6962 -0.2737 -0.1670
  696MOL0     C93873   2.979  -0.711  10.056  1.4557  0.2699  0.1425
  696MOL0     C93874   3.092  -0.691  10.132 -0.1337  0.5237 -0.4070
  696MOL0     N93875   3.174  -0.226  10.584  1.4032  0.0769  0.0090
  696MOL0     N93876   3.147  -0.102  10.579  0.5569  0.0369 -0.5951
  696MOL0     C93877   3.109   0.925  10.110 -0.0296 -0.3472 -0.2587
  696MOL0     C93878   3.195   1.021  10.148  0.3794 -0.5983 -0.7510
  696MOL0     C93879   3.403   1.416  10.263  0.6656  0.5445 -0.4351
  696MOL0     C93880   3.505   1.322  10.268 -0.6124  0.5673  0.2729
  696MOL0     C93881   3.631   1.351  10.323  0.4130  0.2689 -0.1909
  696MOL0     C93882   3.646   1.475  10.378  0.5659  0.3634 -0.0941
  696MOL0     O93883   3.751   1.509  10.456 -0.5699  0.2042  0.0026
  696MOL0     C93884   3.827   1.413  10.528  0.0865  0.4513 -0.2931
  696MOL0     C93885   3.860   1.444  10.676  0.2173 -0.1689 -0.0489
  696MOL0     C93886   3.740   1.477  10.759  0.1639  0.6565 -0.5068
  696MOL0     C93887   3.773   1.504  10.900  0.3912 -0.8817 -0.0650
  696MOL0     C93888   3.842   1.628  10.927  0.6472 -0.3411  0.2069
  696MOL0     C93889   3.906   1.727  10.934  0.0652  0.0114  0.5173
  696MOL0     C93890   3.542   1.569  10.369 -0.5718 -0.2279  0.3157
  696MOL0     C93891   3.423   1.540  10.309  0.1135  0.2342  0.3771
  696MOL0     C93892   3.312   1.644  10.306  0.4597 -0.1287 -0.1392
  696MOL0     H93893   2.997   1.299  10.173  5.7643  2.2735 -0.4047
  696MOL0     H93894   2.836   1.134  10.092  1.0028  2.9116 -0.1366
  696MOL0     H93895   2.822   0.676  10.016  2.3535 -1.8431 -0.0090
  696MOL0     H93896   3.000   0.708  10.014 -0.2424 -0.4213 -2.9834
  696MOL0     H93897   2.794   0.675  10.233 -0.2254  0.1754 -1.6830
  696MOL0     H93898   2.946   0.767  10.268 -0.9384 -1.5323  1.7103
  696MOL0     H93899   2.955   0.521  10.333  0.0617 -4.3741 -1.7790
  696MOL0     H93900   3.080   0.564  10.217  1.5450  2.1467  1.0047
  696MOL0     H93901   2.810   0.430  10.132  0.5891 -2.2029 -1.6224
  696MOL0     H93902   2.947   0.451  10.029  2.1470 -2.0377  0.3195
  696MOL0     H93903   2.903   0.237  10.129 -0.1968  1.5005 -0.2383
  696MOL0     H93904   3.078   0.286  10.154  1.2932 -0.4314  2.1691
  696MOL0     H93905   3.052   0.318  10.387 -0.5322 -0.3616  0.8812
  696MOL0     H93906   2.877   0.314  10.365 -0.6409 -2.3399  1.2526
  696MOL0     H93907   2.903   0.064  10.323  0.1312 -0.9756  0.8988
  696MOL0     H93908   2.935   0.130  10.484 -0.4842 -1.8212 -0.7035
  696MOL0     H93909   3.153   0.074  10.292  1.5317  4.5133  0.5306
  696MOL0     H93910   3.162   0.141  10.458  0.5641 -1.0762  0.9054
  696MOL0     H93911   3.115  -0.198  10.268  1.6817 -0.6750  0.0629
  696MOL0     H93912   3.066  -0.445  10.369 -2.2126  3.3298  1.1478
  696MOL0     H93913   3.237  -0.419  10.330  0.4879 -2.9496 -0.5842
  696MOL0     H93914   3.314  -0.501  10.556 -1.8734 -2.2830  1.6221
  696MOL0     H93915   3.150  -0.524  10.597 -2.7395  2.5980 -2.3851
  696MOL0     H93916   3.107  -0.700  10.428 -1.8808  1.3246  2.1770
  696MOL0     H93917   3.226  -0.737  10.542 -1.6573  0.1085  0.7522
  696MOL0     H93918   3.401  -0.721  10.387  0.9267 -2.9039 -1.1594
  696MOL0     H93919   3.324  -0.608  10.287  3.8729 -0.6471  0.9053
  696MOL0     H93920   3.213  -1.008  10.088 -0.9550 -0.7330  0.3086
  696MOL0     H93921   3.054  -1.021   9.931 -2.0574  1.5966 -2.5059
  696MOL0     H93922   2.683  -1.117   9.755 -2.4349 -0.0944  2.6219
  696MOL0     H93923   2.463  -1.112   9.618 -2.2843  1.3084  3.8991
  696MOL0     H93924   2.269  -0.976   9.684 -2.6025  2.2567  0.3299
  696MOL0     H93925   2.205  -0.849   9.596 -2.2561 -1.6365  2.2032
  696MOL0     H93926   2.169  -1.042   9.405 -3.0510 -0.4221  0.6873
  696MOL0     H93927   2.211  -1.145   9.535  2.5166  2.4037  2.7931
  696MOL0     H93928   1.978  -0.942   9.525  0.0893  0.9427 -1.6584
  696MOL0     H93929   1.964  -1.109   9.467  2.3037 -0.1773 -1.6058
  696MOL0     H93930   2.050  -1.023   9.747  0.8492 -0.3754 -0.5905
  696MOL0     H93931   2.023  -1.193   9.685  1.8297  0.3450 -3.1827
  696MOL0     H93932   1.783  -1.152   9.684  0.3772  0.7167 -0.7911
  696MOL0     H93933   1.794  -0.978   9.664 -1.0899  2.4942  1.8890
  696MOL0     H93934   1.848  -1.148   9.907  2.6422 -0.0389 -1.9985
  696MOL0     H93935   1.889  -0.976   9.908  4.4295 -3.9282  2.0848
  696MOL0     H93936   1.613  -1.111   9.877  0.9922  0.2569  2.1818
  696MOL0     H93937   1.632  -0.942   9.845 -2.2370  0.5676  1.6363
  696MOL0     H93938   1.730  -1.083  10.101 -0.7606  2.3768  2.1480
  696MOL0     H93939   1.743  -0.906  10.055  1.9363 -0.8979 -1.8226
  696MOL0     H93940   2.540  -0.705   9.518 -2.9279 -3.2469 -3.2778
  696MOL0     H93941   2.767  -0.716   9.645  0.6893 -0.1345  1.1184
  696MOL0     H93942   2.911  -0.627  10.045  2.1754  1.1116  1.7369
  696MOL0     H93943   3.108  -0.595  10.178  2.4430 -0.2918  0.5686
  696MOL0     H93944   3.146   0.826  10.086  0.0328  0.3883 -3.7160
  696MOL0     H93945   3.297   0.985  10.157  0.9105  1.1574  0.9112
  696MOL0     H93946   3.503   1.229  10.211 -2.8673  0.3839  0.5890
  696MOL0     H93947   3.726   1.301  10.309  1.8811  3.1147 -1.1271
  696MOL0     H93948   3.921   1.387  10.480  1.9946 -0.2112  3.4241
  696MOL0     H93949   3.766   1.323  10.543  0.3098  0.7243  3.0611
  696MOL0     H93950   3.928   1.530  10.688  0.2060 -0.2188  0.3856
  696MOL0     H93951   3.911   1.351  10.703 -0.2974 -1.4908 -3.2172
  696MOL0     H93952   3.672   1.393  10.744 -2.0288  2.3076 -0.2678
  696MOL0     H93953   3.696   1.567  10.714 -0.7522  0.2863 -0.3689
  696MOL0     H93954   3.674   1.511  10.946 -1.8216 -3.3243 -3.8695
  696MOL0     H93955   3.821   1.415  10.941  0.4027 -1.1437 -0.6362
  696MOL0     H93956   3.964   1.817  10.935 -1.0385  0.8791 -2.8178
  696MOL0     H93957   3.548   1.657  10.432  1.5457 -0.9689  1.2363
  696MOL0     H93958   3.272   1.651  10.204 -1.3945  0.7746  0.5973
  696MOL0     H93959   3.229   1.622  10.373  2.4815 -0.8441  2.2461
  696MOL0     H93960   3.347   1.741  10.341 -2.2901  1.0655 -0.4510
  697MOL0     O93961   2.323   8.424  10.831 -0.1745 -0.1724  0.0893
  697MOL0     C93962   2.220   8.360  10.824 -0.1040  0.9116  0.0042
  697MOL0     O93963   2.210   8.225  10.814  0.5459 -0.8013 -0.5663
  697MOL0     C93964   2.304   8.166  10.740  0.1309  0.9638  0.8671
  697MOL0     C93965   2.286   8.103  10.615  0.9674  0.3428 -0.2935
  697MOL0     C93966   2.389   8.023  10.557  0.5077  0.6455 -0.4796
  697MOL0     C93967   2.521   8.023  10.611 -0.1605 -0.6440  0.8920
  697MOL0     O93968   2.640   7.966  10.572  0.1085 -0.4960 -0.9189
  697MOL0     C93969   2.637   7.870  10.467 -0.0235  0.2282 -0.8242
  697MOL0     C93970   2.768   7.819  10.428 -0.2701  0.0354  0.2683
  697MOL0     C93971   2.874   7.916  10.361 -0.1244  0.1692  0.0175
  697MOL0     C93972   3.013   7.906  10.410  0.1701  0.3333  0.7203
  697MOL0     C93973   3.095   7.783  10.352 -0.2766 -0.2236  0.4524
  697MOL0     C93974   3.243   7.812  10.341 -0.0943 -0.6002  0.6780
  697MOL0     C93975   3.290   7.893  10.213  0.2632 -0.7979  0.3888
  697MOL0     C93976   3.443   7.916  10.216  0.4430  0.4302  1.0174
  697MOL0     N93977   3.495   7.958  10.091  0.0353  0.5304  0.9225
  697MOL0     C93978   3.441   8.057  10.013 -0.3384  0.0387  0.2071
  697MOL0     C93979   3.540   8.103   9.933  0.3062 -0.1640  0.1032
  697MOL0     C93980   3.544   8.223   9.844 -0.6781  0.1326 -0.1086
  697MOL0     C93981   3.458   8.214   9.717 -0.5267  0.3526  0.0604
  697MOL0     C93982   3.457   8.344   9.632  0.0153 -0.6645  0.7441
  697MOL0     C93983   3.557   8.332   9.510 -0.0923  0.5761 -0.8094
  697MOL0     O93984   3.578   8.462   9.450  0.6758  0.0455 -0.0710
  697MOL0     C93985   3.573   8.465   9.311  0.8254 -0.7118  0.1471
  697MOL0     C93986   3.691   8.452   9.247 -0.3135 -0.1145  0.0438
  697MOL0     C93987   3.698   8.483   9.110  0.4286 -0.0747  0.2507
  697MOL0     C93988   3.583   8.520   9.038 -0.4274  0.3286 -0.2522
  697MOL0     C93989   3.598   8.541   8.889 -0.0914 -1.7457 -0.8538
  697MOL0     O93990   3.486   8.595   8.819 -0.2787  0.5752  0.0879
  697MOL0     C93991   3.490   8.632   8.692 -0.8080 -0.2682  0.5778
  697MOL0     C93992   3.596   8.713   8.642  0.5734  0.4776  0.4700
  697MOL0     C93993   3.595   8.752   8.508 -0.6861 -0.1160 -0.8888
  697MOL0     C93994   3.486   8.728   8.423 -0.4798 -0.3824 -1.1607
  697MOL0     O93995   3.483   8.777   8.297  0.3485 -0.3696  0.2983
  697MOL0     C93996   3.545   8.897   8.263  0.0289  0.1107  0.5559
  697MOL0     C93997   3.478   8.982   8.154  0.7355  0.7164  0.9886
  697MOL0     C93998   3.341   9.039   8.186  0.2356 -0.2949 -1.3669
  697MOL0     C93999   3.318   9.173   8.265 -0.4130  0.2952 -0.1356
  697MOL0     C94000   3.178   9.181   8.327 -0.5222  0.9119  0.4020
  697MOL0     C94001   3.163   9.324   8.389  0.1906  0.0195  0.3043
  697MOL0     C94002   3.021   9.334   8.460 -0.3175 -0.3039  0.1930
  697MOL0     C94003   3.014   9.464   8.535 -0.5992 -0.6408 -0.0205
  697MOL0    Cl94004   2.847   9.482   8.584 -0.2843  0.4016  0.1484
  697MOL0     C94005   3.385   8.640   8.467 -0.1915 -0.0597  0.6259
  697MOL0     C94006   3.389   8.601   8.602  0.1713  0.4219 -0.2562
  697MOL0     O94007   3.700   8.488   8.837 -0.0858 -0.1847  0.0776
  697MOL0     C94008   3.469   8.548   9.108  0.6233  0.9935  0.7070
  697MOL0     C94009   3.459   8.513   9.247  0.4323 -0.2544 -0.2132
  697MOL0     N94010   3.653   8.030   9.956  0.1465  0.2744  0.1677
  697MOL0     N94011   3.626   7.939  10.054  0.2070 -0.1975 -0.0957
  697MOL0     C94012   2.543   8.086  10.732  0.5402  0.0633 -0.8440
  697MOL0     C94013   2.439   8.157  10.796 -0.8155 -0.3385  0.7022
  697MOL0     C94014   2.101   8.430  10.811  0.3634  0.3212 -0.6168
  697MOL0     C94015   1.973   8.364  10.811 -0.1116 -0.9145  0.6422
  697MOL0     C94016   1.856   8.436  10.812 -0.1758  1.1085  0.4474
  697MOL0     C94017   1.861   8.575  10.808 -0.3262  0.8245  0.5683
  697MOL0     O94018   1.752   8.651  10.822  0.0255 -0.2091 -0.3335
  697MOL0     C94019   1.710   8.671  10.956  0.5742 -0.3933  0.6509
  697MOL0     C94020   1.560   8.713  10.950  0.6696  0.0612 -0.1561
  697MOL0     C94021   1.472   8.614  10.877  1.2625 -0.1652 -0.4605
  697MOL0     C94022   1.408   8.504  10.964 -0.7329 -0.5099  0.1548
  697MOL0     C94023   1.342   8.403  10.883  0.2091 -0.0946 -0.8623
  697MOL0     C94024   1.297   8.341  10.787  0.1773  0.8385  0.5029
  697MOL0     C94025   1.981   8.640  10.792  0.0256 -0.0885 -0.0465
  697MOL0     C94026   2.099   8.573  10.788  0.7869  0.1999 -0.3882
  697MOL0     C94027   2.219   8.659  10.777  0.1591 -0.8632 -0.4359
  697MOL0     H94028   2.190   8.114  10.565 -1.0838 -0.6853  3.1012
  697MOL0     H94029   2.361   7.957  10.476  2.5523  0.2077 -0.9013
  697MOL0     H94030   2.563   7.795  10.495  0.7368 -0.3158 -0.2129
  697MOL0     H94031   2.590   7.926  10.386 -0.4624  0.2842 -0.5324
  697MOL0     H94032   2.761   7.735  10.358  0.3647  1.5318 -1.7163
  697MOL0     H94033   2.814   7.773  10.515 -0.7881 -2.4032 -0.6511
  697MOL0     H94034   2.847   8.020  10.385  1.6030  0.0840  2.8186
  697MOL0     H94035   2.882   7.899  10.254  0.4332  0.6145 -0.0187
  697MOL0     H94036   3.064   7.998  10.379  1.5229  0.1002  2.0995
  697MOL0     H94037   3.035   7.902  10.517  4.8263  0.9232  0.0236
  697MOL0     H94038   3.078   7.695  10.414  1.7387 -1.7525 -1.0279
  697MOL0     H94039   3.053   7.756  10.254 -1.2881 -0.2324  0.8803
  697MOL0     H94040   3.266   7.867  10.432  3.2729  0.1929 -0.5200
  697MOL0     H94041   3.298   7.718  10.342  0.9042 -0.0318  0.6471
  697MOL0     H94042   3.235   7.988  10.216 -1.7248 -1.8648 -0.1188
  697MOL0     H94043   3.243   7.853  10.122 -2.9139  1.4428  0.8602
  697MOL0     H94044   3.470   7.984  10.297 -1.7916 -1.4625  3.5341
  697MOL0     H94045   3.477   7.814  10.237 -2.7665 -0.5013  2.3161
  697MOL0     H94046   3.342   8.101   9.999 -0.0108  0.7566  0.0877
  697MOL0     H94047   3.502   8.300   9.910 -3.1952 -0.2396 -1.1693
  697MOL0     H94048   3.649   8.240   9.816 -1.4211  2.6321 -1.7250
  697MOL0     H94049   3.491   8.131   9.654  0.9265  0.8253  0.1635
  697MOL0     H94050   3.355   8.194   9.750 -0.2891  0.9070  1.1803
  697MOL0     H94051   3.469   8.432   9.696 -0.0950 -0.3907  0.3890
  697MOL0     H94052   3.358   8.361   9.590  0.2004  2.2948  1.2834
  697MOL0     H94053   3.520   8.265   9.433 -1.9102 -2.5784  2.4669
  697MOL0     H94054   3.652   8.296   9.552 -0.2041  1.7895  0.5708
  697MOL0     H94055   3.783   8.419   9.294 -0.7180  1.8700  2.4609
  697MOL0     H94056   3.790   8.463   9.056  0.2129  0.6775 -0.4101
  697MOL0     H94057   3.668   8.755   8.712  2.2269  3.0423 -2.4982
  697MOL0     H94058   3.674   8.824   8.484  0.9435 -1.8869 -1.1058
  697MOL0     H94059   3.571   8.951   8.355 -1.2972 -1.7948  2.1443
  697MOL0     H94060   3.640   8.868   8.218 -0.7891 -0.1524 -1.0873
  697MOL0     H94061   3.545   9.062   8.122  0.9435  0.8355  1.7120
  697MOL0     H94062   3.460   8.914   8.070 -5.0686  2.5956  0.2505
  697MOL0     H94063   3.273   9.040   8.100 -1.9024  0.0059  0.2486
  697MOL0     H94064   3.290   8.971   8.254  1.5775 -0.5271 -0.5523
  697MOL0     H94065   3.342   9.258   8.202  0.1197 -0.6714 -1.2605
  697MOL0     H94066   3.393   9.166   8.344  1.5925 -2.4405 -2.1240
  697MOL0     H94067   3.179   9.098   8.398 -1.2513 -2.3052 -3.0400
  697MOL0     H94068   3.102   9.180   8.248  0.0465  2.8844 -0.2296
  697MOL0     H94069   3.245   9.348   8.457  1.0257 -4.0809  1.0481
  697MOL0     H94070   3.164   9.406   8.317 -3.8978  0.9380  1.0700
  697MOL0     H94071   3.005   9.249   8.527  0.5897 -0.2992  0.4319
  697MOL0     H94072   2.942   9.337   8.384  2.3416 -0.4197 -2.8424
  697MOL0     H94073   3.077   9.465   8.625  0.8334 -0.2907 -0.9949
  697MOL0     H94074   3.031   9.559   8.483 -2.9125  1.7092  3.1048
  697MOL0     H94075   3.292   8.621   8.415 -0.6785 -1.8711  2.0553
  697MOL0     H94076   3.307   8.538   8.636  1.5584  0.2360  3.1003
  697MOL0     H94077   3.382   8.578   9.050 -0.0881  0.1064  1.2894
  697MOL0     H94078   3.366   8.551   9.287  1.2604  0.1303  1.4024
  697MOL0     H94079   2.638   8.071  10.783 -0.2473  1.8582  1.3192
  697MOL0     H94080   2.476   8.214  10.881  1.7740  2.3249 -1.9721
  697MOL0     H94081   1.964   8.257  10.828 -2.1121 -0.9802 -0.5342
  697MOL0     H94082   1.768   8.373  10.818  0.0391  0.8403  0.8093
  697MOL0     H94083   1.777   8.748  10.995  1.1913 -1.1290  1.0479
  697MOL0     H94084   1.711   8.587  11.026  2.0598 -0.4359  0.6103
  697MOL0     H94085   1.554   8.815  10.911 -1.4995  0.0688  0.0402
  697MOL0     H94086   1.520   8.713  11.052  4.4027 -3.3897  1.6042
  697MOL0     H94087   1.519   8.582  10.784 -0.8142 -0.5672 -1.4298
  697MOL0     H94088   1.395   8.683  10.841  0.7567 -0.0357  0.8241
  697MOL0     H94089   1.495   8.456  11.009  0.8999  2.0202 -0.1198
  697MOL0     H94090   1.350   8.547  11.046 -0.4500  0.9133 -0.3608
  697MOL0     H94091   1.254   8.304  10.696 -1.0103  2.4390  0.3785
  697MOL0     H94092   1.988   8.749  10.794  0.6944 -0.1329  0.4375
  697MOL0     H94093   2.282   8.619  10.697 -1.3761 -3.0903 -0.6115
  697MOL0     H94094   2.201   8.762  10.745 -0.9341 -0.7537  0.4720
  697MOL0     H94095   2.275   8.656  10.872  1.0368 -0.5017 -0.9238
  698MOL0     O94096   7.001  11.430   0.675 -0.7308  0.3280  0.5665
  698MOL0     C94097   6.959  11.462   0.566  0.0608 -0.6746 -0.2554
  698MOL0     O94098   6.912  11.585   0.537  0.3596 -0.1106 -1.1748
  698MOL0     C94099   6.899  11.693   0.621  0.4816 -0.9675  0.5921
  698MOL0     C94100   6.828  11.801   0.564 -0.3660 -0.1367  0.2858
  698MOL0     C94101   6.834  11.930   0.625  0.1446 -0.1412  0.9036
  698MOL0     C94102   6.890  11.951   0.752  0.5519 -0.3948 -0.3273
  698MOL0     O94103   6.888  12.078   0.811 -0.4923 -0.2569 -0.4004
  698MOL0     C94104   6.894  12.092   0.951 -0.9848 -1.2029 -0.0099
  698MOL0     C94105   6.877  12.241   0.983 -1.6068  0.9113 -0.1239
  698MOL0     C94106   6.937  12.280   1.114  0.4556 -0.3460 -0.3223
  698MOL0     C94107   6.931  12.189   1.228 -0.2756  1.4808 -0.8414
  698MOL0     C94108   6.797  12.143   1.274  0.2630 -0.2621 -0.5403
  698MOL0     C94109   6.795  12.051   1.394  0.2132  0.9821  0.3745
  698MOL0     C94110   6.657  12.028   1.461  0.1565  0.2474  0.1240
  698MOL0     C94111   6.608  11.881   1.467  0.3833 -0.3877 -0.0125
  698MOL0     N94112   6.469  11.887   1.517 -0.2528 -0.2787  0.3159
  698MOL0     C94113   6.430  11.924   1.640 -0.3895  0.1192  0.5496
  698MOL0     C94114   6.293  11.936   1.633  0.4939  0.1092  0.2137
  698MOL0     C94115   6.211  11.961   1.753  0.1558  0.5007 -0.2621
  698MOL0     C94116   6.207  11.838   1.849  0.3607  0.5298  1.0837
  698MOL0     C94117   6.075  11.818   1.938  0.0638  0.2346 -0.4838
  698MOL0     C94118   6.093  11.709   2.047 -0.1094 -0.3426  0.9266
  698MOL0     O94119   5.961  11.698   2.107 -0.0940  0.5242 -0.2865
  698MOL0     C94120   5.894  11.578   2.094 -0.6798 -0.1085  0.4614
  698MOL0     C94121   5.804  11.555   1.983  0.0931 -0.9344 -0.3126
  698MOL0     C94122   5.725  11.440   1.985 -1.0315  0.1684 -0.6785
  698MOL0     C94123   5.741  11.332   2.081 -0.3755  1.0717  0.5640
  698MOL0     C94124   5.664  11.207   2.081 -0.2668  0.6889 -0.0218
  698MOL0     O94125   5.619  11.159   2.205 -0.1051  0.0304  0.0802
  698MOL0     C94126   5.531  11.054   2.194 -0.4836  0.3058 -0.2223
  698MOL0     C94127   5.400  11.074   2.160  0.2477 -0.5425  1.1531
  698MOL0     C94128   5.307  10.969   2.155  0.2452  0.3861  0.0767
  698MOL0     C94129   5.357  10.836   2.172  0.4187  0.0751 -0.6173
  698MOL0     O94130   5.269  10.728   2.157  0.0605  0.0232  0.0698
  698MOL0     C94131   5.306  10.596   2.185 -0.0088  0.1933 -0.2646
  698MOL0     C94132   5.194  10.499   2.140  0.3197  0.0460  0.9323
  698MOL0     C94133   5.056  10.520   2.200  0.4317 -0.5119 -0.8284
  698MOL0     C94134   5.036  10.447   2.337  0.6998 -0.1033 -0.1002
  698MOL0     C94135   4.893  10.452   2.401  0.2241 -0.0709  0.4876
  698MOL0     C94136   4.801  10.332   2.346 -0.7049 -1.1395 -1.0479
  698MOL0     C94137   4.662  10.344   2.400  0.8170 -0.4038  1.0367
  698MOL0     C94138   4.568  10.242   2.330 -0.3410 -1.5198 -0.1720
  698MOL0    Cl94139   4.583  10.090   2.408  0.2571  0.3536  0.3425
  698MOL0     C94140   5.492  10.816   2.213  0.7186 -0.3039 -0.7337
  698MOL0     C94141   5.572  10.925   2.221 -0.4781 -0.3462  0.0896
  698MOL0     O94142   5.638  11.163   1.964  0.3532 -0.4095  0.4127
  698MOL0     C94143   5.841  11.349   2.180 -0.1817  0.5067  0.5528
  698MOL0     C94144   5.912  11.471   2.182 -1.0638 -0.2461  0.1488
  698MOL0     N94145   6.254  11.897   1.510  0.3031  0.3839 -0.1553
  698MOL0     N94146   6.358  11.874   1.436 -0.1414 -1.5655 -0.3003
  698MOL0     C94147   6.951  11.843   0.814 -0.2901  0.0627  0.2740
  698MOL0     C94148   6.952  11.719   0.745 -0.9014 -1.1150 -1.0047
  698MOL0     C94149   6.950  11.363   0.464 -0.1832  0.1458 -0.4818
  698MOL0     C94150   6.907  11.407   0.332  0.5122  0.4470  0.2102
  698MOL0     C94151   6.885  11.329   0.229  0.3948 -0.7252  0.0310
  698MOL0     C94152   6.889  11.189   0.241  0.0475 -0.2327 -0.0435
  698MOL0     O94153   6.864  11.118   0.126  0.1900 -0.0591  0.3993
  698MOL0     C94154   6.893  10.972   0.119 -0.3837 -0.2342 -0.4795
  698MOL0     C94155   6.826  10.919  -0.014  0.4089  1.1136 -0.3190
  698MOL0     C94156   6.863  10.978  -0.154 -0.8738 -0.0735 -0.8691
  698MOL0     C94157   6.999  10.931  -0.211 -0.1288 -0.0458 -0.8401
  698MOL0     C94158   7.011  10.938  -0.359 -0.0005 -0.0669 -0.9054
  698MOL0     C94159   7.032  10.963  -0.475 -0.6517  0.0317 -0.7400
  698MOL0     C94160   6.953  11.137   0.364 -0.8046 -0.3531  0.3507
  698MOL0     C94161   6.984  11.224   0.472  0.2303  0.2249 -0.4605
  698MOL0     C94162   7.063  11.170   0.591  0.1913  0.4063 -0.2629
  698MOL0     H94163   6.803  11.795   0.458  2.8155 -4.1505 -0.4969
  698MOL0     H94164   6.789  12.012   0.569 -1.4248 -1.6825 -0.2191
  698MOL0     H94165   6.821  12.037   1.011  0.4870 -1.0589  2.0312
  698MOL0     H94166   6.992  12.055   0.985 -0.2918  1.4528  1.1911
  698MOL0     H94167   6.768  12.253   0.989 -1.9521 -1.5959 -0.3875
  698MOL0     H94168   6.925  12.314   0.918 -0.8817  3.3037  2.8363
  698MOL0     H94169   6.897  12.380   1.134 -1.2542 -0.5226 -2.4733
  698MOL0     H94170   7.040  12.317   1.108  0.3185 -0.0202 -0.7544
  698MOL0     H94171   6.984  12.095   1.213  1.1548  1.9428  0.9064
  698MOL0     H94172   6.988  12.241   1.306 -1.1119  0.2530  0.6561
  698MOL0     H94173   6.749  12.236   1.305 -2.0566 -0.7974 -2.1760
  698MOL0     H94174   6.742  12.096   1.191  1.0483 -2.2494 -0.0062
  698MOL0     H94175   6.832  11.952   1.364 -0.9326  1.2693 -2.2769
  698MOL0     H94176   6.870  12.099   1.457  0.2261  0.9904  0.3529
  698MOL0     H94177   6.580  12.085   1.409  0.1545  0.4636  0.3617
  698MOL0     H94178   6.682  12.055   1.564 -0.2201 -1.2953  0.6440
  698MOL0     H94179   6.607  11.844   1.364 -1.1666  0.9479 -0.5113
  698MOL0     H94180   6.679  11.824   1.528  0.1440  0.6607  1.2820
  698MOL0     H94181   6.503  11.941   1.719  0.3955  4.7859 -0.9090
  698MOL0     H94182   6.243  12.048   1.811  0.7968 -0.7049  1.2601
  698MOL0     H94183   6.107  11.986   1.728 -0.7392  2.6919  4.4360
  698MOL0     H94184   6.201  11.751   1.784  0.8132  1.4039 -0.1664
  698MOL0     H94185   6.298  11.828   1.909 -0.0795 -1.1966  1.5319
  698MOL0     H94186   5.997  11.778   1.873  1.8068 -2.0172 -1.3283
  698MOL0     H94187   6.042  11.914   1.979 -0.0701 -0.7029  1.7889
  698MOL0     H94188   6.164  11.741   2.124 -2.1382 -0.6115  3.0025
  698MOL0     H94189   6.120  11.609   2.012 -2.3739 -0.6721 -0.1000
  698MOL0     H94190   5.801  11.636   1.910  3.7911 -0.3240  0.0275
  698MOL0     H94191   5.650  11.420   1.910 -3.7221  0.5909  1.7381
  698MOL0     H94192   5.375  11.176   2.134  0.3151 -0.4641  1.3903
  698MOL0     H94193   5.205  10.987   2.121  0.5507  1.1585 -0.4584
  698MOL0     H94194   5.401  10.558   2.145  0.7289 -1.0631  2.4312
  698MOL0     H94195   5.316  10.592   2.294 -3.4538  4.4141  0.4477
  698MOL0     H94196   5.194  10.494   2.030 -0.9121 -0.2396  0.9391
  698MOL0     H94197   5.225  10.400   2.173 -2.5013 -0.5128  2.1497
  698MOL0     H94198   5.018  10.622   2.200  1.8433  0.0522  0.3504
  698MOL0     H94199   4.993  10.464   2.130  2.8936 -0.9933 -2.8191
  698MOL0     H94200   5.106  10.504   2.399  2.1136  2.0818 -3.3860
  698MOL0     H94201   5.062  10.341   2.337  0.3574 -0.1946  0.7343
  698MOL0     H94202   4.852  10.546   2.364  1.2496  1.0946  2.1710
  698MOL0     H94203   4.896  10.455   2.511  2.0470  2.9528  0.4650
  698MOL0     H94204   4.798  10.341   2.237  1.8620  0.5744 -1.0529
  698MOL0     H94205   4.839  10.239   2.389 -0.2964  0.4454  2.2713
  698MOL0     H94206   4.634  10.448   2.378 -0.5705 -0.7591  1.0381
  698MOL0     H94207   4.659  10.331   2.508  0.9725  1.3993  1.3013
  698MOL0     H94208   4.464  10.268   2.354  0.0115  1.2183 -1.3089
  698MOL0     H94209   4.580  10.239   2.221 -2.7120 -2.8318 -0.4600
  698MOL0     H94210   5.528  10.715   2.228  0.0638 -0.3837  0.4480
  698MOL0     H94211   5.675  10.921   2.253 -0.2783 -0.3559 -0.5410
  698MOL0     H94212   5.854  11.280   2.263 -0.0723 -1.2541 -0.8780
  698MOL0     H94213   5.978  11.492   2.265 -0.1570  0.5175 -0.7432
  698MOL0     H94214   7.012  11.847   0.903  0.3158 -1.6105 -0.0252
  698MOL0     H94215   6.997  11.631   0.791  0.4657  0.3709  0.6461
  698MOL0     H94216   6.882  11.510   0.310  0.8618  0.1121 -1.9825
  698MOL0     H94217   6.870  11.370   0.130  0.3126  0.0261  0.3427
  698MOL0     H94218   6.842  10.918   0.199 -3.4910  1.7631 -0.9233
  698MOL0     H94219   7.000  10.952   0.118 -0.6918 -2.2277  1.0564
  698MOL0     H94220   6.719  10.909   0.006  0.2162 -2.0434 -2.1664
  698MOL0     H94221   6.850  10.812  -0.020 -3.2911  0.2537 -3.1164
  698MOL0     H94222   6.845  11.085  -0.162 -1.0374 -0.1867 -2.5159
  698MOL0     H94223   6.792  10.937  -0.227 -0.8567 -1.5428 -0.1018
  698MOL0     H94224   7.074  10.992  -0.161  1.6394 -0.8619 -2.3674
  698MOL0     H94225   7.017  10.827  -0.184 -1.5608  0.2553  1.5128
  698MOL0     H94226   7.053  10.994  -0.575  3.2107 -2.9468 -1.1307
  698MOL0     H94227   6.985  11.033   0.368 -2.5468 -0.9884 -0.7749
  698MOL0     H94228   7.137  11.247   0.612  1.2554 -0.2782 -1.3800
  698MOL0     H94229   6.997  11.155   0.677 -1.6534 -1.8550 -1.9125
  698MOL0     H94230   7.118  11.081   0.561  0.5415  0.7456 -0.6489
  699MOL0     O94231   0.974   8.192   8.424  0.3636  0.2336 -0.1455
  699MOL0     C94232   1.078   8.152   8.467 -0.6225 -0.2392 -0.1587
  699MOL0     O94233   1.090   8.103   8.599  0.4637 -0.9568 -1.1365
  699MOL0     C94234   0.981   8.088   8.682 -0.5123  0.6414  0.1927
  699MOL0     C94235   0.962   7.951   8.716 -0.0783  0.3471 -0.6275
  699MOL0     C94236   0.848   7.924   8.786 -0.0910 -0.1477  0.5318
  699MOL0     C94237   0.753   8.027   8.819 -0.7547  0.4474  0.0660
  699MOL0     O94238   0.639   8.005   8.897 -0.7400  0.9308  0.0320
  699MOL0     C94239   0.607   7.875   8.938 -0.2651 -0.7062  0.0751
  699MOL0     C94240   0.467   7.890   9.012 -0.5133  0.7378 -0.4687
  699MOL0     C94241   0.489   7.942   9.153 -0.1349  0.8277 -0.4264
  699MOL0     C94242   0.348   7.971   9.218  0.6623  0.4215 -0.7533
  699MOL0     C94243   0.362   8.023   9.365  0.1284 -0.3205 -1.7193
  699MOL0     C94244   0.397   7.911   9.470  0.6711  0.6172  0.9723
  699MOL0     C94245   0.545   7.893   9.493 -0.4953 -0.5624  0.0660
  699MOL0     C94246   0.572   7.813   9.614  0.1800 -0.1888  0.1562
  699MOL0     N94247   0.715   7.802   9.631 -0.1732  0.1407 -0.0721
  699MOL0     C94248   0.795   7.908   9.626 -0.4371 -0.6564 -0.2336
  699MOL0     C94249   0.916   7.860   9.655 -0.6148  0.3617 -0.9477
  699MOL0     C94250   1.055   7.925   9.668  0.0153  0.1007 -0.1927
  699MOL0     C94251   1.058   7.985   9.807 -0.6640  0.9234  0.7146
  699MOL0     C94252   1.197   8.054   9.836  1.0810 -0.0218 -0.4503
  699MOL0     C94253   1.199   8.110   9.978 -0.5200 -0.0675  0.0159
  699MOL0     O94254   1.166   8.254   9.979  0.6383  0.3062  0.2806
  699MOL0     C94255   1.255   8.340   9.949 -0.2402  0.1630  1.2091
  699MOL0     C94256   1.212   8.476   9.966  0.2071 -0.2086  0.1884
  699MOL0     C94257   1.299   8.578   9.947 -0.3558 -0.0849  0.3603
  699MOL0     C94258   1.431   8.553   9.902  0.0485 -1.1665 -0.2713
  699MOL0     C94259   1.526   8.664   9.904  0.0558 -0.5955 -0.7824
  699MOL0     O94260   1.660   8.630   9.925  0.0424 -0.6862  0.1918
  699MOL0     C94261   1.766   8.723   9.918  0.9002  0.0584  0.2860
  699MOL0     C94262   1.778   8.811  10.030  0.4509 -0.8451 -0.1190
  699MOL0     C94263   1.899   8.885  10.033 -0.1966  0.2037  0.0424
  699MOL0     C94264   1.982   8.888   9.924 -0.3224  0.6573  0.1617
  699MOL0     O94265   2.101   8.962   9.931  0.9890  0.1796  0.3580
  699MOL0     C94266   2.225   8.903   9.885  0.0945  0.4326  0.1944
  699MOL0     C94267   2.335   8.981   9.958  0.0621 -0.0551  0.8013
  699MOL0     C94268   2.349   8.954  10.107 -0.1987  0.1574  0.6105
  699MOL0     C94269   2.455   9.052  10.165  0.0528  0.5911 -0.4259
  699MOL0     C94270   2.549   9.007  10.274  0.4264 -0.5000  0.1791
  699MOL0     C94271   2.469   8.942  10.386  0.0373 -0.2436 -1.0497
  699MOL0     C94272   2.568   8.882  10.490 -0.8392 -0.0928  0.0699
  699MOL0     C94273   2.482   8.827  10.610 -0.1489  0.1110  0.2157
  699MOL0    Cl94274   2.424   8.961  10.712  0.2024 -0.2776  0.6824
  699MOL0     C94275   1.968   8.802   9.820  0.4803 -0.3027  0.2436
  699MOL0     C94276   1.856   8.718   9.816 -0.9487  0.1651 -0.1959
  699MOL0     O94277   1.488   8.776   9.870  0.0401  0.8786 -0.4508
  699MOL0     C94278   1.474   8.418   9.866  1.0765 -0.5351 -0.8223
  699MOL0     C94279   1.382   8.317   9.892 -0.1926  0.7097  0.0566
  699MOL0     N94280   0.895   7.724   9.671 -0.1498 -0.4621 -0.3536
  699MOL0     N94281   0.782   7.681   9.631 -0.2419 -0.4421  0.1116
  699MOL0     C94282   0.788   8.158   8.801  0.5280 -0.6949 -0.3763
  699MOL0     C94283   0.897   8.189   8.722  1.0197 -0.6627  0.1576
  699MOL0     C94284   1.202   8.158   8.385  0.9372  0.1306 -1.0076
  699MOL0     C94285   1.314   8.083   8.437  0.5255  0.0764 -0.7499
  699MOL0     C94286   1.429   8.072   8.367 -0.5855 -0.3270 -0.8768
  699MOL0     C94287   1.445   8.138   8.248 -0.6562 -0.8051  0.4550
  699MOL0     O94288   1.568   8.127   8.188  0.1276 -0.0548  0.9720
  699MOL0     C94289   1.665   8.233   8.219 -0.1405 -0.4502 -0.2806
  699MOL0     C94290   1.788   8.228   8.135  0.2528 -0.3285  0.7363
  699MOL0     C94291   1.860   8.364   8.152  0.4827  0.0281  0.3167
  699MOL0     C94292   1.985   8.373   8.065  0.7510  0.1559 -0.4482
  699MOL0     C94293   1.968   8.388   7.925  0.5571 -0.0065 -0.2844
  699MOL0     C94294   1.962   8.412   7.802 -0.0093 -0.0982  0.0916
  699MOL0     C94295   1.348   8.218   8.195  0.5197  0.0252 -0.9481
  699MOL0     C94296   1.227   8.237   8.271 -0.5103 -0.2038  0.2988
  699MOL0     C94297   1.132   8.336   8.206  0.4393 -0.5471  0.0032
  699MOL0     H94298   1.021   7.873   8.669 -2.1711 -0.0771 -2.7689
  699MOL0     H94299   0.830   7.819   8.804  1.1264 -0.4546  0.0570
  699MOL0     H94300   0.591   7.797   8.863 -1.0786 -2.2933  1.8002
  699MOL0     H94301   0.671   7.829   9.014  0.1736 -1.4515 -0.7402
  699MOL0     H94302   0.435   7.787   9.027  3.2069 -0.4947 -0.0287
  699MOL0     H94303   0.400   7.961   8.963 -1.3203 -0.0241 -0.4838
  699MOL0     H94304   0.548   8.035   9.156  3.4863 -1.2524 -1.4598
  699MOL0     H94305   0.536   7.854   9.197  2.2086  1.5940 -1.2554
  699MOL0     H94306   0.304   8.059   9.169 -1.7110 -0.3400 -0.1293
  699MOL0     H94307   0.278   7.887   9.221  2.5186 -1.1583  1.6891
  699MOL0     H94308   0.424   8.113   9.369 -1.1339  0.5508  1.8070
  699MOL0     H94309   0.261   8.051   9.396 -0.7051 -4.6196  0.1166
  699MOL0     H94310   0.345   7.950   9.558 -1.6101  0.9494 -0.4239
  699MOL0     H94311   0.347   7.820   9.437 -1.5225  2.2287 -0.4515
  699MOL0     H94312   0.585   7.991   9.520  2.4723 -0.6649 -3.2813
  699MOL0     H94313   0.603   7.850   9.411 -1.9932 -1.2024 -0.7034
  699MOL0     H94314   0.533   7.841   9.712  3.5128 -3.1541  2.5632
  699MOL0     H94315   0.546   7.709   9.593  5.9098 -2.7763  3.7533
  699MOL0     H94316   0.774   8.012   9.600  1.0365  0.3100  2.0390
  699MOL0     H94317   1.131   7.848   9.652 -1.7995 -1.1260 -4.5854
  699MOL0     H94318   1.059   8.002   9.590 -0.0057  1.7871  1.3988
  699MOL0     H94319   0.977   8.057   9.816 -3.4904 -2.1240  1.4626
  699MOL0     H94320   1.046   7.903   9.879  0.7404  1.4775  1.6180
  699MOL0     H94321   1.205   8.134   9.763 -2.5885 -0.3435 -1.4158
  699MOL0     H94322   1.273   7.978   9.817  1.6949  1.0689 -2.6260
  699MOL0     H94323   1.291   8.101  10.037 -0.7840  2.5150  0.9330
  699MOL0     H94324   1.122   8.057  10.035 -0.0361  1.0711  1.8106
  699MOL0     H94325   1.107   8.502   9.979  0.8078  1.4617  2.1514
  699MOL0     H94326   1.254   8.677   9.954  0.4996  0.5530 -2.2995
  699MOL0     H94327   1.703   8.831  10.105  0.8813  4.3051 -0.6584
  699MOL0     H94328   1.909   8.936  10.128 -2.7066 -0.6352  0.8463
  699MOL0     H94329   2.229   8.795   9.901 -0.3398 -0.2973 -3.6615
  699MOL0     H94330   2.235   8.921   9.778 -0.4770  0.1128  0.0826
  699MOL0     H94331   2.432   8.957   9.912 -0.2243 -0.6009  0.4667
  699MOL0     H94332   2.332   9.090   9.949  1.3936 -0.0806 -0.2837
  699MOL0     H94333   2.251   8.963  10.156 -2.0978 -1.9735 -2.4375
  699MOL0     H94334   2.381   8.851  10.121 -1.4126 -0.1517  1.3240
  699MOL0     H94335   2.403   9.147  10.181 -1.7563 -0.4574  0.2638
  699MOL0     H94336   2.531   9.081  10.093  1.3769  2.8008  1.7464
  699MOL0     H94337   2.613   9.087  10.313 -0.8700 -0.7669  3.1466
  699MOL0     H94338   2.607   8.929  10.223 -0.5821 -0.7257 -0.6476
  699MOL0     H94339   2.416   9.020  10.441  0.2195 -1.7574  1.4686
  699MOL0     H94340   2.407   8.858  10.353 -2.7321  1.1071  0.3537
  699MOL0     H94341   2.635   8.956  10.533 -1.9727  1.5627 -0.8955
  699MOL0     H94342   2.631   8.808  10.440  1.0217  0.6423  1.2408
  699MOL0     H94343   2.397   8.765  10.578  1.0279 -1.2266 -0.4419
  699MOL0     H94344   2.549   8.761  10.665 -1.9855 -2.4133 -0.3929
  699MOL0     H94345   2.028   8.809   9.730  0.1077  3.5696  0.1415
  699MOL0     H94346   1.832   8.657   9.729  1.1902  0.1451 -0.8315
  699MOL0     H94347   1.567   8.384   9.822  0.7768 -3.2676  0.3984
  699MOL0     H94348   1.413   8.218   9.860  0.9311  0.1540  2.5968
  699MOL0     H94349   0.721   8.235   8.838  1.3630 -0.6900  1.2075
  699MOL0     H94350   0.913   8.285   8.673  3.0188 -2.3747 -2.8944
  699MOL0     H94351   1.309   8.034   8.534 -0.4718  0.7075 -0.4639
  699MOL0     H94352   1.509   8.008   8.403  0.3622  0.8650 -0.7860
  699MOL0     H94353   1.698   8.213   8.322 -2.1123  0.2727  0.5310
  699MOL0     H94354   1.609   8.326   8.224 -2.1188 -1.6320  1.9691
  699MOL0     H94355   1.763   8.202   8.033  1.3955 -3.4503  1.1494
  699MOL0     H94356   1.855   8.145   8.161 -1.5644 -1.7564  1.0375
  699MOL0     H94357   1.886   8.377   8.257  1.6957 -0.3069  0.0779
  699MOL0     H94358   1.794   8.450   8.137  2.4251  2.2911  3.4356
  699MOL0     H94359   2.042   8.459   8.103  1.2154 -0.2056 -0.3231
  699MOL0     H94360   2.034   8.277   8.083 -3.3108 -2.1647 -0.5556
  699MOL0     H94361   1.966   8.431   7.696  0.6090 -1.1063 -0.0820
  699MOL0     H94362   1.358   8.262   8.097 -3.5971 -0.4514 -1.7802
  699MOL0     H94363   1.144   8.334   8.097  0.3036 -0.5574 -0.0124
  699MOL0     H94364   1.033   8.291   8.218  1.0634 -1.9691  0.1072
  699MOL0     H94365   1.137   8.437   8.247  0.0151  0.2098 -1.7360
  700MOL0     O94366   5.375   1.289   1.195  0.0549  0.0871  0.0720
  700MOL0     C94367   5.258   1.248   1.197  0.2582  0.4822  0.2676
  700MOL0     O94368   5.208   1.126   1.149  0.3719 -0.7243  0.1323
  700MOL0     C94369   5.284   1.015   1.122 -1.1461 -0.4368  0.4362
  700MOL0     C94370   5.416   0.995   1.173  0.9829 -0.2348 -0.4446
  700MOL0     C94371   5.475   0.869   1.135 -0.6005 -0.4301 -0.7909
  700MOL0     C94372   5.418   0.777   1.054  0.3098  0.3334 -0.2696
  700MOL0     O94373   5.485   0.662   1.044  0.7767  1.0516  0.0590
  700MOL0     C94374   5.508   0.616   0.906  0.2299 -0.9125  0.0907
  700MOL0     C94375   5.583   0.484   0.915 -0.0372  0.7707 -0.6659
  700MOL0     C94376   5.580   0.393   0.788 -0.0168 -0.8960  0.3184
  700MOL0     C94377   5.709   0.311   0.786 -0.3710  0.1720 -0.6399
  700MOL0     C94378   5.728   0.236   0.649 -1.1415 -0.5096 -0.8474
  700MOL0     C94379   5.634   0.133   0.602  0.7576  0.0380 -0.6457
  700MOL0     C94380   5.588   0.048   0.718 -0.1498  0.2074 -0.1965
  700MOL0     C94381   5.702  -0.046   0.764  0.3930 -0.2913 -0.6573
  700MOL0     N94382   5.638  -0.177   0.795  0.0190  0.2013 -0.3020
  700MOL0     C94383   5.648  -0.291   0.720  0.6274  0.1455  0.6387
  700MOL0     C94384   5.579  -0.385   0.791  0.8128 -0.0622  0.8804
  700MOL0     C94385   5.546  -0.534   0.750  0.4828 -0.4607  0.9626
  700MOL0     C94386   5.518  -0.619   0.864  0.3898 -0.2217  0.1752
  700MOL0     C94387   5.555  -0.762   0.833 -0.1609  0.1925  1.1426
  700MOL0     C94388   5.538  -0.864   0.943 -0.5279 -0.5421  0.2148
  700MOL0     O94389   5.604  -0.986   0.894  0.0113 -0.0226  0.1465
  700MOL0     C94390   5.581  -1.109   0.949  0.1248 -0.1474 -0.8054
  700MOL0     C94391   5.511  -1.139   1.077  0.6903  0.3368  0.9368
  700MOL0     C94392   5.486  -1.277   1.106 -0.3492 -0.4014  0.5707
  700MOL0     C94393   5.527  -1.389   1.032 -0.0790 -0.3247  0.3047
  700MOL0     C94394   5.515  -1.529   1.087 -0.2271 -0.2446  0.2073
  700MOL0     O94395   5.594  -1.619   1.012  0.1165 -0.3476 -0.7476
  700MOL0     C94396   5.568  -1.753   1.028 -0.5245  0.1302  1.0420
  700MOL0     C94397   5.669  -1.835   0.988 -0.8192 -0.3032  0.2632
  700MOL0     C94398   5.659  -1.978   1.013  1.1778 -0.6822 -0.4282
  700MOL0     C94399   5.534  -2.020   1.059 -0.2214  0.0878 -0.8240
  700MOL0     O94400   5.528  -2.157   1.095  0.3046 -0.2361  0.1360
  700MOL0     C94401   5.468  -2.233   0.993  0.6737 -0.0468 -0.5736
  700MOL0     C94402   5.470  -2.381   1.052 -0.4981 -0.3175  0.2819
  700MOL0     C94403   5.612  -2.450   1.073  0.1486 -1.0504 -0.2979
  700MOL0     C94404   5.691  -2.450   0.952  0.4289  0.6770  0.0746
  700MOL0     C94405   5.816  -2.548   0.934  0.3650 -0.1513  0.7574
  700MOL0     C94406   5.923  -2.555   1.045 -0.8273  0.0261  0.1213
  700MOL0     C94407   6.017  -2.681   1.046  0.1965  0.2173 -0.6293
  700MOL0     C94408   5.950  -2.820   1.083  0.6337  0.2312 -0.5357
  700MOL0    Cl94409   5.926  -2.817   1.267  0.5372 -0.5216 -0.2433
  700MOL0     C94410   5.424  -1.938   1.090 -0.0692  1.2090 -0.2841
  700MOL0     C94411   5.445  -1.802   1.076 -0.2645  0.5326  0.2373
  700MOL0     O94412   5.460  -1.540   1.197 -0.1175 -0.3736 -0.1464
  700MOL0     C94413   5.597  -1.358   0.907  0.2009 -0.2716  0.4721
  700MOL0     C94414   5.621  -1.222   0.872  0.6192 -0.0250 -0.5901
  700MOL0     N94415   5.533  -0.329   0.911  0.4384  0.2255  0.1623
  700MOL0     N94416   5.578  -0.205   0.908  0.7215 -0.6450 -0.4761
  700MOL0     C94417   5.290   0.796   1.012 -0.7804  0.1293  0.9750
  700MOL0     C94418   5.226   0.919   1.038  0.1042 -0.1502  0.7344
  700MOL0     C94419   5.156   1.333   1.252 -0.2929 -0.1835 -0.5253
  700MOL0     C94420   5.155   1.394   1.370  0.0358 -0.3433 -1.5510
  700MOL0     C94421   5.066   1.483   1.422 -0.3366  0.0108  0.0487
  700MOL0     C94422   4.949   1.501   1.362  0.4812  0.4142 -0.7446
  700MOL0     O94423   4.849   1.571   1.430 -0.0839  0.6912  0.5684
  700MOL0     C94424   4.739   1.607   1.350  1.1866  0.6162  0.7399
  700MOL0     C94425   4.637   1.691   1.414  0.6125  0.0067  0.0729
  700MOL0     C94426   4.553   1.604   1.512 -0.7868 -0.8047 -0.3904
  700MOL0     C94427   4.457   1.691   1.585  0.3954  0.2081 -0.5295
  700MOL0     C94428   4.356   1.754   1.502 -0.3212  0.0383  0.0485
  700MOL0     C94429   4.274   1.812   1.435  0.5435  0.3654  1.1775
  700MOL0     C94430   4.929   1.436   1.234 -0.4229 -0.6376  0.1277
  700MOL0     C94431   5.041   1.363   1.176  0.3967 -1.0894 -0.7108
  700MOL0     C94432   5.021   1.324   1.030  0.0067 -0.2126 -0.3823
  700MOL0     H94433   5.461   1.063   1.244 -1.3617 -1.3862  2.3217
  700MOL0     H94434   5.577   0.858   1.171 -0.8442 -0.3592 -0.0610
  700MOL0     H94435   5.408   0.600   0.864 -0.0107  1.7671 -0.5266
  700MOL0     H94436   5.564   0.697   0.859  1.3801  0.4086  3.4192
  700MOL0     H94437   5.532   0.438   1.000 -1.5418 -0.5205 -2.1915
  700MOL0     H94438   5.685   0.509   0.946 -0.5637  1.2296  0.7605
  700MOL0     H94439   5.591   0.455   0.698 -1.0049  0.7185  1.2592
  700MOL0     H94440   5.485   0.341   0.774 -1.0320  1.3415 -1.8147
  700MOL0     H94441   5.791   0.382   0.800  0.9332 -1.5036  0.5780
  700MOL0     H94442   5.720   0.247   0.874  1.6374  0.0316 -0.9512
  700MOL0     H94443   5.740   0.312   0.571 -1.4228  2.0839  1.5109
  700MOL0     H94444   5.825   0.184   0.651 -0.9452 -0.1043  0.5175
  700MOL0     H94445   5.559   0.190   0.547  0.2059 -0.3402 -0.2980
  700MOL0     H94446   5.692   0.076   0.529 -1.4543 -3.0199 -0.1916
  700MOL0     H94447   5.502  -0.016   0.696  0.3768 -0.8127  0.5886
  700MOL0     H94448   5.567   0.102   0.811 -0.9659 -1.2543  0.5013
  700MOL0     H94449   5.777  -0.072   0.689  0.6301 -0.3171 -0.4128
  700MOL0     H94450   5.759   0.002   0.844 -3.8124  1.5533  1.5250
  700MOL0     H94451   5.685  -0.305   0.620 -1.6807 -1.9498 -0.0285
  700MOL0     H94452   5.453  -0.523   0.693  0.7581  0.3766  0.6579
  700MOL0     H94453   5.618  -0.575   0.679  1.4673  0.1289  1.5986
  700MOL0     H94454   5.595  -0.590   0.937  1.3092  0.3705 -1.0010
  700MOL0     H94455   5.418  -0.610   0.906 -1.8806 -0.1322 -4.5982
  700MOL0     H94456   5.660  -0.768   0.803 -0.7855 -0.0304 -1.2126
  700MOL0     H94457   5.498  -0.797   0.747  2.0159 -2.2839  0.5494
  700MOL0     H94458   5.431  -0.883   0.958 -0.3156 -0.9102  1.4565
  700MOL0     H94459   5.580  -0.834   1.040  2.0015  2.8678 -1.7029
  700MOL0     H94460   5.481  -1.062   1.147  2.3652  1.0511  0.9270
  700MOL0     H94461   5.432  -1.288   1.200  2.4120  1.0253  2.4466
  700MOL0     H94462   5.755  -1.786   0.944 -1.7060 -0.3151 -1.5812
  700MOL0     H94463   5.747  -2.036   0.988  0.7275 -2.2937  1.4484
  700MOL0     H94464   5.364  -2.201   0.984  1.3167  2.8970  1.0123
  700MOL0     H94465   5.512  -2.243   0.894 -0.6863  1.1838 -1.3370
  700MOL0     H94466   5.423  -2.384   1.151  0.1650  0.5417  0.6335
  700MOL0     H94467   5.411  -2.449   0.990 -0.8197  0.0936  0.1316
  700MOL0     H94468   5.671  -2.402   1.152 -1.8698  0.3667  0.4426
  700MOL0     H94469   5.581  -2.545   1.119 -1.3148 -2.2414 -3.4914
  700MOL0     H94470   5.721  -2.348   0.925  2.8632 -0.2159 -0.8656
  700MOL0     H94471   5.626  -2.496   0.878  1.7544 -4.0135  1.5041
  700MOL0     H94472   5.868  -2.527   0.840  2.6331  0.1905  1.9937
  700MOL0     H94473   5.765  -2.642   0.911  2.1446 -1.1209  0.5397
  700MOL0     H94474   5.985  -2.465   1.037  1.9466 -1.8685 -1.8379
  700MOL0     H94475   5.882  -2.560   1.147 -1.9284 -0.0246 -0.3166
  700MOL0     H94476   6.107  -2.678   1.109  1.8074  0.9538 -2.8421
  700MOL0     H94477   6.061  -2.674   0.946  0.6997  0.1697 -0.4160
  700MOL0     H94478   5.857  -2.838   1.028  0.0928 -0.0685  0.4587
  700MOL0     H94479   6.017  -2.901   1.052  2.2587  1.0894  0.6079
  700MOL0     H94480   5.326  -1.977   1.116  0.7836  0.0986  1.4787
  700MOL0     H94481   5.355  -1.747   1.099  0.2534  1.7722 -0.6048
  700MOL0     H94482   5.648  -1.446   0.869 -1.0266 -1.0923  0.6738
  700MOL0     H94483   5.675  -1.195   0.782  3.7428  0.9547  1.3938
  700MOL0     H94484   5.252   0.723   0.941  0.3410  0.3496  0.1211
  700MOL0     H94485   5.135   0.937   0.983  0.6256 -2.0793 -0.8784
  700MOL0     H94486   5.242   1.393   1.435 -2.2127  0.8913  1.7432
  700MOL0     H94487   5.095   1.537   1.512 -1.8318  1.4581 -0.2851
  700MOL0     H94488   4.694   1.515   1.311 -0.2802  1.3097  0.7221
  700MOL0     H94489   4.781   1.657   1.262 -0.6377 -0.5125 -0.8734
  700MOL0     H94490   4.573   1.736   1.337  2.3326 -0.1587 -1.5153
  700MOL0     H94491   4.697   1.764   1.469  0.4876 -0.3532  0.6972
  700MOL0     H94492   4.611   1.544   1.583 -0.0747  2.8337  2.4517
  700MOL0     H94493   4.493   1.533   1.454  1.1815 -3.1205  0.2427
  700MOL0     H94494   4.415   1.636   1.669  3.2096  1.1260  1.6341
  700MOL0     H94495   4.520   1.768   1.631 -0.4852  0.7635 -0.2263
  700MOL0     H94496   4.220   1.861   1.356  3.9674  0.3155 -1.4373
  700MOL0     H94497   4.839   1.444   1.173 -0.8835  0.3601  0.9021
  700MOL0     H94498   5.101   1.257   0.995  1.6973  0.0217  2.6566
  700MOL0     H94499   4.919   1.287   1.024 -0.4947 -0.0536  4.2067
  700MOL0     H94500   5.021   1.413   0.965 -0.8877 -0.2510 -0.4430
  701MOL0     O94501   4.294   5.231   2.800 -0.0349  0.4017  0.1116
  701MOL0     C94502   4.273   5.160   2.902  0.4874 -0.2146 -0.1216
  701MOL0     O94503   4.142   5.118   2.933  0.0687 -0.0039  0.7120
  701MOL0     C94504   4.037   5.182   2.865 -0.0484 -0.0348 -0.2225
  701MOL0     C94505   3.956   5.107   2.778  0.5258 -0.5014  0.3466
  701MOL0     C94506   3.872   5.183   2.686 -0.5854 -0.1962  0.3222
  701MOL0     C94507   3.867   5.321   2.695  1.1476 -0.0139 -0.0779
  701MOL0     O94508   3.799   5.409   2.614 -0.6428  0.0142  1.0090
  701MOL0     C94509   3.660   5.381   2.602  0.5875 -0.1718  0.1526
  701MOL0     C94510   3.592   5.489   2.532  0.4015  0.3704  0.5769
  701MOL0     C94511   3.600   5.627   2.611  0.2206  0.2604  0.2856
  701MOL0     C94512   3.487   5.723   2.566 -0.5856 -0.5072 -0.2515
  701MOL0     C94513   3.509   5.861   2.629 -0.8784  0.1907  0.7851
  701MOL0     C94514   3.432   5.973   2.551 -0.2692 -0.7278  0.5283
  701MOL0     C94515   3.278   5.960   2.564  0.0375 -0.9567 -0.0867
  701MOL0     C94516   3.200   6.086   2.522  0.3314 -0.2789  0.6312
  701MOL0     N94517   3.221   6.104   2.375 -0.2272 -0.2357 -0.1648
  701MOL0     C94518   3.318   6.182   2.315  0.7247  1.3565  0.2961
  701MOL0     C94519   3.294   6.185   2.185  0.6023  0.4447  0.4019
  701MOL0     C94520   3.381   6.280   2.104  0.8771 -0.5925 -0.2189
  701MOL0     C94521   3.381   6.246   1.950  0.1901  0.4924  0.1792
  701MOL0     C94522   3.263   6.305   1.883 -0.7188  0.4128 -0.4218
  701MOL0     C94523   3.262   6.254   1.738  0.4834 -0.3716 -1.0367
  701MOL0     O94524   3.236   6.116   1.704 -0.7066 -0.1028  0.3597
  701MOL0     C94525   3.251   6.062   1.577 -0.1467 -0.3583 -0.7378
  701MOL0     C94526   3.268   6.136   1.459  0.3954 -0.6903  0.1163
  701MOL0     C94527   3.287   6.067   1.344  0.3906  0.6098  0.4979
  701MOL0     C94528   3.295   5.924   1.334 -0.2346 -0.1032  0.2936
  701MOL0     C94529   3.291   5.860   1.200  0.4215 -0.5818 -0.1692
  701MOL0     O94530   3.250   5.732   1.197 -0.4911  0.1371  1.1549
  701MOL0     C94531   3.237   5.665   1.077  0.3068 -0.0114  0.5069
  701MOL0     C94532   3.267   5.530   1.064 -0.3900 -0.4434  1.2748
  701MOL0     C94533   3.258   5.464   0.946 -0.3983 -0.1258 -0.7035
  701MOL0     C94534   3.214   5.521   0.824 -1.1085  0.5361  0.5024
  701MOL0     O94535   3.226   5.447   0.717  0.2891  0.3181 -0.7621
  701MOL0     C94536   3.182   5.492   0.588 -0.4583 -0.8850 -0.0911
  701MOL0     C94537   3.290   5.584   0.518  0.7925 -0.3315 -0.1279
  701MOL0     C94538   3.280   5.612   0.370  0.1439 -0.5808 -0.3747
  701MOL0     C94539   3.397   5.703   0.320 -0.2124 -0.6628 -0.8195
  701MOL0     C94540   3.449   5.671   0.178 -0.5971 -0.4557  0.2292
  701MOL0     C94541   3.348   5.719   0.077  0.9699 -0.8250  0.8230
  701MOL0     C94542   3.393   5.699  -0.063  0.4645  0.6044  0.3032
  701MOL0     C94543   3.280   5.691  -0.171  1.4681 -0.2007 -0.2969
  701MOL0    Cl94544   3.343   5.609  -0.318 -0.0983  0.4123 -0.2218
  701MOL0     C94545   3.179   5.653   0.841 -0.3416 -0.6954  0.6918
  701MOL0     C94546   3.179   5.728   0.960  0.1344  0.6099  0.2902
  701MOL0     O94547   3.341   5.928   1.108  0.0791 -1.0617 -0.1096
  701MOL0     C94548   3.286   5.851   1.457  0.6629 -0.0816 -0.5383
  701MOL0     C94549   3.261   5.919   1.578  0.3293 -0.3391 -0.5860
  701MOL0     N94550   3.181   6.122   2.163  0.2711 -0.4694  0.0061
  701MOL0     N94551   3.135   6.065   2.273  0.5904 -0.4751 -0.1415
  701MOL0     C94552   3.940   5.387   2.800 -0.6725 -0.6301  0.3704
  701MOL0     C94553   4.024   5.317   2.883 -0.2292  0.5398  0.1447
  701MOL0     C94554   4.389   5.124   2.992  0.4079 -0.5379  0.7845
  701MOL0     C94555   4.359   5.130   3.122  0.1639  0.0291 -0.2923
  701MOL0     C94556   4.469   5.123   3.204  0.2908  0.8447 -0.0081
  701MOL0     C94557   4.603   5.104   3.164 -0.9105  0.3487  0.1799
  701MOL0     O94558   4.688   5.121   3.268 -0.0130  0.9652  0.0821
  701MOL0     C94559   4.825   5.079   3.268  1.0160 -0.0108  0.5725
  701MOL0     C94560   4.832   4.935   3.294  0.0978  1.9134  0.0039
  701MOL0     C94561   4.774   4.870   3.415 -0.2922 -0.3397  0.3130
  701MOL0     C94562   4.842   4.943   3.541  0.1704 -0.0680  1.1691
  701MOL0     C94563   4.983   4.909   3.545  0.6865  0.2466  0.6920
  701MOL0     C94564   5.105   4.889   3.537  0.4779  0.1414 -0.1858
  701MOL0     C94565   4.630   5.076   3.033 -0.6867  0.5822  0.0328
  701MOL0     C94566   4.522   5.090   2.943  0.5057 -0.3105  0.7881
  701MOL0     C94567   4.550   5.077   2.799  1.0466  0.4570 -0.2240
  701MOL0     H94568   3.961   5.000   2.758 -2.0524 -0.8114  0.9541
  701MOL0     H94569   3.820   5.128   2.608 -0.8444  2.6504 -1.6673
  701MOL0     H94570   3.652   5.282   2.557  1.7419  1.1299 -3.2590
  701MOL0     H94571   3.614   5.371   2.700 -0.1434 -3.1047 -0.4100
  701MOL0     H94572   3.488   5.454   2.529  1.1238 -1.9039 -0.5164
  701MOL0     H94573   3.635   5.485   2.432 -1.2038 -3.5394 -0.1532
  701MOL0     H94574   3.704   5.657   2.597  0.1642  1.4736  2.1077
  701MOL0     H94575   3.592   5.599   2.717  1.4296 -3.1562 -0.3874
  701MOL0     H94576   3.490   5.723   2.456  1.8483 -1.3643 -0.2655
  701MOL0     H94577   3.391   5.679   2.592  0.1025 -1.0746  1.4367
  701MOL0     H94578   3.487   5.867   2.736 -0.0494  3.1163  0.8884
  701MOL0     H94579   3.614   5.890   2.621 -0.7404  0.0567  1.8695
  701MOL0     H94580   3.466   6.067   2.596  1.3089 -0.1176 -1.7901
  701MOL0     H94581   3.474   5.992   2.452  0.1070  2.3165  1.1581
  701MOL0     H94582   3.256   5.950   2.671 -0.6318  1.5856  0.0864
  701MOL0     H94583   3.239   5.868   2.520 -1.3149 -0.3680 -0.1784
  701MOL0     H94584   3.092   6.076   2.534  0.1194  1.9049  0.9974
  701MOL0     H94585   3.231   6.171   2.583 -1.2072 -0.5149  1.7971
  701MOL0     H94586   3.385   6.241   2.377 -0.1584 -0.1285  2.8147
  701MOL0     H94587   3.347   6.383   2.118 -0.3944 -1.3931  3.6217
  701MOL0     H94588   3.484   6.293   2.138  0.7522  3.8986 -0.9293
  701MOL0     H94589   3.473   6.284   1.906 -1.8417  1.0782 -4.1372
  701MOL0     H94590   3.390   6.138   1.937 -2.1801 -0.2661  3.4046
  701MOL0     H94591   3.283   6.413   1.885  1.1889  0.1069  1.7166
  701MOL0     H94592   3.164   6.294   1.929  0.9888  1.0044  3.9455
  701MOL0     H94593   3.360   6.280   1.698  2.0396  0.1840  2.7990
  701MOL0     H94594   3.190   6.323   1.692 -1.8449 -0.8438  1.6082
  701MOL0     H94595   3.283   6.243   1.468 -0.1951 -0.4222 -1.7790
  701MOL0     H94596   3.286   6.128   1.254 -1.3466  1.5141  1.0783
  701MOL0     H94597   3.310   5.477   1.149 -0.9750 -4.3320 -0.6397
  701MOL0     H94598   3.281   5.358   0.946  2.5860  0.3325  2.3388
  701MOL0     H94599   3.173   5.408   0.517 -0.5188  1.9315 -3.7077
  701MOL0     H94600   3.079   5.529   0.592  0.5411  2.4849 -2.0543
  701MOL0     H94601   3.287   5.680   0.570  0.4772 -1.0878  1.3348
  701MOL0     H94602   3.388   5.539   0.534  1.2844  1.4275  2.4364
  701MOL0     H94603   3.295   5.513   0.327  1.4620  0.1567 -1.6887
  701MOL0     H94604   3.190   5.662   0.333  0.9479  3.4790  2.3775
  701MOL0     H94605   3.481   5.692   0.389 -1.0488 -2.2834 -0.0157
  701MOL0     H94606   3.360   5.806   0.323  0.7985 -0.2897 -0.5362
  701MOL0     H94607   3.461   5.563   0.165 -1.4914 -0.3131 -2.6075
  701MOL0     H94608   3.543   5.725   0.163 -1.3615  0.6168 -0.9272
  701MOL0     H94609   3.244   5.687   0.091 -0.4029  1.7284 -2.4059
  701MOL0     H94610   3.348   5.828   0.084  0.8395 -0.5582 -2.1500
  701MOL0     H94611   3.433   5.597  -0.065 -3.2925 -1.0131 -1.4228
  701MOL0     H94612   3.465   5.770  -0.105 -0.6563  1.6870  0.1761
  701MOL0     H94613   3.197   5.632  -0.132  0.4625  0.4432 -1.3901
  701MOL0     H94614   3.236   5.787  -0.202  0.6321 -0.7892 -0.9817
  701MOL0     H94615   3.156   5.711   0.753  2.3205  1.9393  1.5593
  701MOL0     H94616   3.146   5.829   0.941  2.4489  1.2915 -0.4372
  701MOL0     H94617   3.295   5.742   1.454 -2.0412 -0.4061  0.6088
  701MOL0     H94618   3.237   5.858   1.665 -1.6366 -0.4048 -1.1175
  701MOL0     H94619   3.938   5.495   2.811 -0.3213 -0.8264  2.7927
  701MOL0     H94620   4.084   5.363   2.961  3.0013 -1.6369 -0.8654
  701MOL0     H94621   4.260   5.158   3.156 -0.0736 -0.2696 -0.7342
  701MOL0     H94622   4.455   5.142   3.310 -0.1423  3.3286 -0.4494
  701MOL0     H94623   4.880   5.124   3.351  1.4287 -0.1166  0.3584
  701MOL0     H94624   4.886   5.110   3.183  0.8954  3.8741  1.7050
  701MOL0     H94625   4.940   4.913   3.293 -0.1463  0.2245  2.1791
  701MOL0     H94626   4.797   4.884   3.204  2.4610  0.7157 -0.3410
  701MOL0     H94627   4.805   4.766   3.424 -0.0234 -0.1008  3.4628
  701MOL0     H94628   4.666   4.881   3.428  0.0991  1.3648  2.8943
  701MOL0     H94629   4.814   5.048   3.548  0.6626  0.0561  1.3373
  701MOL0     H94630   4.817   4.897   3.637 -0.8327  1.2009  1.5422
  701MOL0     H94631   5.211   4.880   3.551  0.3068 -0.0761  1.1027
  701MOL0     H94632   4.735   5.082   3.007  0.0100 -3.5470  1.1399
  701MOL0     H94633   4.541   5.179   2.759  0.7075  0.5202  0.0114
  701MOL0     H94634   4.653   5.041   2.791  2.1189  2.5794  2.5397
  701MOL0     H94635   4.490   4.996   2.757 -0.6436  1.3626  0.3272
  702MOL0     O94636   7.446   0.704   3.832 -0.5509 -0.3936 -0.3986
  702MOL0     C94637   7.431   0.759   3.943 -0.5209  1.3643  0.4974
  702MOL0     O94638   7.457   0.890   3.979 -0.0891 -0.5633  0.1891
  702MOL0     C94639   7.540   0.960   3.891 -0.2669 -0.6402 -0.2035
  702MOL0     C94640   7.486   1.004   3.763 -0.2911  0.8814  0.1097
  702MOL0     C94641   7.560   1.073   3.671  0.6240 -0.1549  0.5412
  702MOL0     C94642   7.681   1.126   3.719 -0.0135 -0.6321  0.5033
  702MOL0     O94643   7.740   1.226   3.641 -0.1143 -0.0473  0.4348
  702MOL0     C94644   7.870   1.273   3.676  1.3563 -0.2665 -0.0154
  702MOL0     C94645   7.899   1.381   3.579 -0.1937  0.9738  0.0166
  702MOL0     C94646   7.894   1.333   3.431  0.0010  0.1915  0.1266
  702MOL0     C94647   7.890   1.441   3.328 -0.6773  0.2153  0.9437
  702MOL0     C94648   7.879   1.395   3.183 -0.7657 -0.1043  0.0482
  702MOL0     C94649   7.877   1.516   3.093 -0.6162 -0.3351 -0.0429
  702MOL0     C94650   7.857   1.472   2.945 -0.3731  0.2725  0.4332
  702MOL0     C94651   7.795   1.585   2.866 -0.2629  0.0205 -0.6529
  702MOL0     N94652   7.646   1.598   2.893 -0.6129 -0.0497  1.1148
  702MOL0     C94653   7.584   1.710   2.861  0.4952 -0.2569 -0.1455
  702MOL0     C94654   7.447   1.697   2.880 -0.0545 -0.0142  0.1380
  702MOL0     C94655   7.353   1.812   2.871 -1.3313  0.5818 -0.5755
  702MOL0     C94656   7.295   1.865   3.009 -0.3699 -0.2978  0.2762
  702MOL0     C94657   7.402   1.929   3.097 -0.2430  0.4097  0.1208
  702MOL0     C94658   7.361   1.949   3.244  0.8374  0.7785 -0.3750
  702MOL0     O94659   7.241   2.036   3.252 -0.0856  0.7102  0.2025
  702MOL0     C94660   7.247   2.151   3.336 -1.1815  0.7669  0.4352
  702MOL0     C94661   7.368   2.217   3.370  0.2703 -0.3789  0.8501
  702MOL0     C94662   7.359   2.350   3.418  0.4507  0.1830 -0.2231
  702MOL0     C94663   7.245   2.412   3.469 -0.0852  0.3648  0.2780
  702MOL0     C94664   7.247   2.541   3.525  0.4432 -1.0923 -0.2410
  702MOL0     O94665   7.131   2.594   3.574  0.5835  0.3773  0.1412
  702MOL0     C94666   7.135   2.702   3.652  0.4677  0.5765  0.2394
  702MOL0     C94667   7.114   2.832   3.615 -0.5036 -1.1258  0.0278
  702MOL0     C94668   7.119   2.936   3.711  0.8810  0.2908 -0.4462
  702MOL0     C94669   7.129   2.901   3.844  0.5334 -0.3764 -0.1884
  702MOL0     O94670   7.123   3.002   3.939  0.4553 -0.0623  0.0588
  702MOL0     C94671   7.218   3.104   3.926 -0.0359  0.0759  0.3963
  702MOL0     C94672   7.178   3.225   4.013 -0.0355  0.6055 -0.4575
  702MOL0     C94673   7.243   3.213   4.155 -0.5017  0.4151  0.7296
  702MOL0     C94674   7.185   3.323   4.244 -0.1888 -0.6531 -0.4059
  702MOL0     C94675   7.227   3.320   4.395  0.1411  0.0914 -0.7493
  702MOL0     C94676   7.372   3.348   4.418  0.4431 -0.0894 -0.1894
  702MOL0     C94677   7.409   3.498   4.412 -0.1062 -0.1420  1.0119
  702MOL0     C94678   7.562   3.526   4.435  0.8602 -0.0200  0.1864
  702MOL0    Cl94679   7.589   3.511   4.613 -0.5423  0.6179  0.0548
  702MOL0     C94680   7.146   2.764   3.886 -0.8089  0.5291  0.4796
  702MOL0     C94681   7.150   2.663   3.786 -0.1083 -0.0366  0.1029
  702MOL0     O94682   7.354   2.595   3.533 -0.6280  0.4975  0.7019
  702MOL0     C94683   7.121   2.336   3.451  0.3125  0.5416 -0.3589
  702MOL0     C94684   7.135   2.212   3.386  0.1238 -0.2557 -0.0975
  702MOL0     N94685   7.427   1.560   2.905  0.0686  0.0125 -0.3141
  702MOL0     N94686   7.546   1.508   2.922  0.2644  0.3894 -0.4208
  702MOL0     C94687   7.737   1.086   3.841 -0.7152  0.0326  0.5132
  702MOL0     C94688   7.673   0.997   3.928  0.6012 -1.0012  0.2253
  702MOL0     C94689   7.392   0.671   4.048  0.4495 -1.0027 -0.0240
  702MOL0     C94690   7.447   0.681   4.171 -0.5505 -0.6748 -0.5957
  702MOL0     C94691   7.398   0.609   4.280  0.0020 -0.7886 -0.3693
  702MOL0     C94692   7.281   0.521   4.274 -0.0218 -2.1005  0.0779
  702MOL0     O94693   7.234   0.436   4.369 -0.2488 -1.2081  0.0397
  702MOL0     C94694   7.311   0.424   4.490  1.0832 -0.0839 -0.1136
  702MOL0     C94695   7.258   0.303   4.570 -0.1282 -0.8661  0.5755
  702MOL0     C94696   7.252   0.167   4.492  0.0435  0.2770  0.3053
  702MOL0     C94697   7.229   0.042   4.581  0.9088 -0.6634  0.2575
  702MOL0     C94698   7.337   0.021   4.668 -0.4500  0.5266 -1.2991
  702MOL0     C94699   7.428  -0.024   4.738  0.1809  0.0191 -0.2745
  702MOL0     C94700   7.219   0.522   4.149 -0.6509  0.2969 -0.3065
  702MOL0     C94701   7.273   0.598   4.044  0.3962  0.7019 -0.3925
  702MOL0     C94702   7.201   0.584   3.912  0.9219 -0.1831 -0.6152
  702MOL0     H94703   7.388   0.966   3.736 -0.2421 -0.6901  1.8962
  702MOL0     H94704   7.520   1.113   3.578  1.7562 -1.1547 -0.4150
  702MOL0     H94705   7.871   1.312   3.778  0.2349  3.6024 -1.2903
  702MOL0     H94706   7.947   1.198   3.655  1.1340 -0.2007 -1.1472
  702MOL0     H94707   8.000   1.419   3.597 -0.1553  0.6545  0.4835
  702MOL0     H94708   7.823   1.459   3.590 -0.0428  1.0151  0.7938
  702MOL0     H94709   7.805   1.271   3.412  0.4469 -0.5274  0.3459
  702MOL0     H94710   7.980   1.269   3.412 -1.2987 -2.0635  1.4038
  702MOL0     H94711   7.808   1.505   3.361  0.6655  0.9027  3.1673
  702MOL0     H94712   7.974   1.508   3.347 -2.6272  2.0531  4.0885
  702MOL0     H94713   7.958   1.321   3.165 -2.5330 -3.3687  3.9818
  702MOL0     H94714   7.783   1.345   3.163 -1.2293  1.0762 -0.7866
  702MOL0     H94715   7.791   1.575   3.124 -1.2331 -1.5172  0.5697
  702MOL0     H94716   7.967   1.578   3.103 -2.3344  1.9165  3.7662
  702MOL0     H94717   7.782   1.393   2.935 -0.1808  0.0859  0.4601
  702MOL0     H94718   7.954   1.449   2.900 -1.2151  0.1109 -1.3770
  702MOL0     H94719   7.843   1.682   2.880 -0.9641  0.6097 -2.1632
  702MOL0     H94720   7.824   1.559   2.764  1.3508  0.4544 -0.3228
  702MOL0     H94721   7.627   1.809   2.848 -1.7084  0.8264  0.2883
  702MOL0     H94722   7.405   1.896   2.823  1.1548 -0.6609 -0.1933
  702MOL0     H94723   7.260   1.799   2.814 -3.2112  6.5967  0.4311
  702MOL0     H94724   7.206   1.928   2.994  0.5579  0.5252 -2.2697
  702MOL0     H94725   7.262   1.772   3.055  0.4800 -1.0291 -0.5580
  702MOL0     H94726   7.440   2.012   3.038  0.6759 -0.4459 -0.5330
  702MOL0     H94727   7.486   1.858   3.091  0.9196  1.8313 -1.3142
  702MOL0     H94728   7.439   1.979   3.314 -1.0498 -2.4683  3.5753
  702MOL0     H94729   7.342   1.853   3.293  1.7867  2.0166  2.6779
  702MOL0     H94730   7.466   2.194   3.328 -0.2963  2.0926 -2.2020
  702MOL0     H94731   7.450   2.408   3.433  0.7468 -0.0061 -1.2582
  702MOL0     H94732   7.096   2.860   3.511  0.6463  2.5639  0.6819
  702MOL0     H94733   7.118   3.036   3.670  0.2979 -0.4299 -2.3293
  702MOL0     H94734   7.314   3.064   3.961 -0.0317 -2.0579 -1.7758
  702MOL0     H94735   7.214   3.134   3.821 -1.5277 -0.1747  0.3594
  702MOL0     H94736   7.218   3.315   3.964  2.9964 -2.4998 -4.4363
  702MOL0     H94737   7.069   3.218   4.021 -0.0190 -0.9984 -1.1869
  702MOL0     H94738   7.224   3.110   4.186  1.1264 -0.4282 -0.8935
  702MOL0     H94739   7.350   3.234   4.159 -0.1384 -1.4161  3.3143
  702MOL0     H94740   7.080   3.296   4.233 -0.0254 -2.1208  1.1594
  702MOL0     H94741   7.205   3.421   4.200  3.8857 -1.4813 -0.8272
  702MOL0     H94742   7.203   3.225   4.444 -2.6339  1.8938  1.7791
  702MOL0     H94743   7.159   3.393   4.442  0.2052 -1.2959  1.6712
  702MOL0     H94744   7.395   3.307   4.517  0.1750 -1.9055 -0.8246
  702MOL0     H94745   7.433   3.284   4.353  4.4137  0.2308  2.8847
  702MOL0     H94746   7.340   3.546   4.483 -0.8143 -0.4013  0.5144
  702MOL0     H94747   7.379   3.538   4.315 -2.8318  0.7613  2.1238
  702MOL0     H94748   7.635   3.477   4.370  6.2995  2.7723  3.3515
  702MOL0     H94749   7.584   3.629   4.405  1.8764 -0.6254 -1.2753
  702MOL0     H94750   7.154   2.738   3.991 -0.1697 -0.3315  0.2331
  702MOL0     H94751   7.161   2.557   3.807  1.2031  0.2491  0.9998
  702MOL0     H94752   7.020   2.371   3.468 -0.3900 -1.5004 -0.0798
  702MOL0     H94753   7.042   2.156   3.377  2.2817 -4.1789 -0.3854
  702MOL0     H94754   7.828   1.130   3.880  0.4984 -2.9738  1.3735
  702MOL0     H94755   7.702   0.959   4.025 -2.0616 -5.7465 -0.4733
  702MOL0     H94756   7.533   0.747   4.178  3.0419 -4.7900 -1.2599
  702MOL0     H94757   7.432   0.629   4.381 -2.1458  0.9321  0.0933
  702MOL0     H94758   7.315   0.512   4.555  0.3276 -1.1326  1.4128
  702MOL0     H94759   7.411   0.391   4.460  1.7548 -0.2098  2.0989
  702MOL0     H94760   7.163   0.336   4.614 -0.4861 -0.5160 -0.4240
  702MOL0     H94761   7.329   0.299   4.653  1.3676 -4.8956 -0.6397
  702MOL0     H94762   7.342   0.153   4.432  1.2848 -1.3473  2.3943
  702MOL0     H94763   7.161   0.166   4.432 -2.3523 -2.9360  3.5316
  702MOL0     H94764   7.150   0.076   4.649  1.4214 -2.4284  1.8261
  702MOL0     H94765   7.201  -0.046   4.523  1.3712 -0.4437 -0.3040
  702MOL0     H94766   7.495  -0.064   4.811 -0.0038 -2.1887 -1.2160
  702MOL0     H94767   7.130   0.462   4.135  0.2975 -1.1798 -0.1683
  702MOL0     H94768   7.205   0.682   3.864  3.2502  1.1706  2.0625
  702MOL0     H94769   7.254   0.505   3.857 -1.5859 -0.4389 -2.8811
  702MOL0     H94770   7.096   0.556   3.924  1.3796 -2.3063 -1.0269
  703MOL0     O94771   1.636   7.873   3.923  0.0121  0.1811  0.0145
  703MOL0     C94772   1.744   7.842   3.861  1.0177  0.1755  1.2057
  703MOL0     O94773   1.859   7.876   3.910 -0.4025 -0.0821 -0.1062
  703MOL0     C94774   1.870   7.900   4.042  0.9956 -0.4017  0.6862
  703MOL0     C94775   1.825   7.816   4.153 -0.0088  0.3798 -0.7534
  703MOL0     C94776   1.841   7.852   4.282  0.7434  0.5047 -0.3588
  703MOL0     C94777   1.881   7.975   4.319  0.8159 -0.8627  0.8909
  703MOL0     O94778   1.886   8.022   4.445 -0.0458  0.8975 -0.3578
  703MOL0     C94779   1.781   8.111   4.486  0.0786  0.0276  0.3080
  703MOL0     C94780   1.655   8.030   4.506  0.1652  0.9118  0.1888
  703MOL0     C94781   1.557   8.105   4.592 -0.3092 -0.3254 -0.1260
  703MOL0     C94782   1.440   8.017   4.637 -0.4578  0.3079  0.0593
  703MOL0     C94783   1.331   8.096   4.701 -0.3433  0.9414 -0.2900
  703MOL0     C94784   1.202   8.007   4.696  0.3029  0.8506 -0.0310
  703MOL0     C94785   1.100   8.036   4.798  0.3508 -1.0321 -0.1494
  703MOL0     C94786   1.026   8.163   4.763 -0.3723 -1.1715 -0.0205
  703MOL0     N94787   0.906   8.176   4.852 -0.2157  0.0627 -0.4350
  703MOL0     C94788   0.880   8.291   4.924 -0.2469 -0.0107 -0.5978
  703MOL0     C94789   0.745   8.279   4.953  0.1206 -0.1567  0.4806
  703MOL0     C94790   0.656   8.380   5.002  0.6694 -0.3407 -0.5467
  703MOL0     C94791   0.624   8.488   4.894 -0.1508 -0.0729 -0.0432
  703MOL0     C94792   0.502   8.562   4.943 -0.0263 -0.7400 -0.1477
  703MOL0     C94793   0.433   8.638   4.832  0.3254 -0.4595  0.8725
  703MOL0     O94794   0.529   8.698   4.750  0.9576  0.7045 -0.4007
  703MOL0     C94795   0.565   8.826   4.790 -0.0944 -0.7375 -1.0263
  703MOL0     C94796   0.487   8.919   4.722  0.0551 -0.1336 -0.1679
  703MOL0     C94797   0.510   9.056   4.753 -0.1919  0.0244 -0.8731
  703MOL0     C94798   0.598   9.098   4.855  1.4551  0.9666  0.3435
  703MOL0     C94799   0.604   9.239   4.874 -0.2571 -0.5443 -0.3587
  703MOL0     O94800   0.522   9.316   4.797  0.7789  0.2462  0.4352
  703MOL0     C94801   0.531   9.456   4.827 -0.6283  0.7434  1.5240
  703MOL0     C94802   0.623   9.539   4.759  0.7952  0.1037  0.1155
  703MOL0     C94803   0.626   9.677   4.793  0.8244 -0.3595  0.7100
  703MOL0     C94804   0.531   9.728   4.877 -0.7846 -0.0411  0.0111
  703MOL0     O94805   0.533   9.865   4.896 -0.1961 -0.1265  0.5217
  703MOL0     C94806   0.560   9.918   5.031 -0.3401  0.1363  0.1615
  703MOL0     C94807   0.574  10.062   5.022  0.2873  0.0160  0.5028
  703MOL0     C94808   0.716  10.098   4.981  0.3110 -0.2691 -0.0163
  703MOL0     C94809   0.728  10.244   4.956 -0.0784 -1.1024 -0.5256
  703MOL0     C94810   0.862  10.290   5.013 -1.5043 -0.5560  0.1019
  703MOL0     C94811   0.994  10.238   4.962  0.1883  0.5115  0.3202
  703MOL0     C94812   1.117  10.305   5.033 -0.7858 -1.3527 -0.4372
  703MOL0     C94813   1.241  10.319   4.937  0.0646 -0.1512  0.2993
  703MOL0    Cl94814   1.283  10.165   4.859  0.6079  0.7220 -0.3585
  703MOL0     C94815   0.447   9.643   4.952 -1.1957 -0.1930  0.4770
  703MOL0     C94816   0.446   9.505   4.922 -0.6632  0.0398  0.3161
  703MOL0     O94817   0.689   9.288   4.949 -0.1786 -0.0944 -0.0588
  703MOL0     C94818   0.677   9.000   4.918 -0.6968  0.4155  0.3276
  703MOL0     C94819   0.666   8.869   4.881 -0.0266 -0.5943 -0.5718
  703MOL0     N94820   0.690   8.173   4.897 -0.7339 -0.0827  0.3634
  703MOL0     N94821   0.787   8.112   4.836 -1.0822  0.4777 -0.2408
  703MOL0     C94822   1.929   8.060   4.217  0.5968  0.5931  1.0428
  703MOL0     C94823   1.931   8.017   4.081  0.3390 -0.4367  0.7468
  703MOL0     C94824   1.721   7.820   3.712 -0.6912 -0.0693 -0.1262
  703MOL0     C94825   1.613   7.862   3.635  0.0765  0.3345 -1.5127
  703MOL0     C94826   1.610   7.851   3.495 -0.0239 -0.1767  0.1536
  703MOL0     C94827   1.724   7.791   3.428  0.6440 -0.8809 -0.0563
  703MOL0     O94828   1.736   7.766   3.297  0.5502  0.0696  0.2633
  703MOL0     C94829   1.607   7.742   3.229  0.3720 -0.4430 -0.2910
  703MOL0     C94830   1.627   7.692   3.088  0.8170 -0.8366 -0.2204
  703MOL0     C94831   1.711   7.566   3.084  0.7459 -0.2959 -0.0067
  703MOL0     C94832   1.703   7.487   2.956  0.7110  0.2278  0.1885
  703MOL0     C94833   1.696   7.584   2.852  0.6944 -0.1658 -0.4299
  703MOL0     C94834   1.662   7.665   2.770 -0.2841  0.2288 -0.7475
  703MOL0     C94835   1.829   7.739   3.505 -0.1498  0.3384 -0.2949
  703MOL0     C94836   1.823   7.741   3.637 -0.2554 -0.0310 -0.5180
  703MOL0     C94837   1.925   7.657   3.715 -0.7364  0.0381  0.3363
  703MOL0     H94838   1.774   7.721   4.148  1.5333 -0.7448  2.5116
  703MOL0     H94839   1.813   7.775   4.353 -2.0515 -0.3690 -2.2379
  703MOL0     H94840   1.808   8.157   4.581 -3.5248  0.0452  1.5054
  703MOL0     H94841   1.777   8.178   4.400  0.9407 -1.6402 -1.0965
  703MOL0     H94842   1.686   7.936   4.553 -1.2641 -1.1833 -2.8129
  703MOL0     H94843   1.622   7.995   4.408  0.4413  1.0775  0.0340
  703MOL0     H94844   1.530   8.201   4.546  2.2539  1.3328  1.5381
  703MOL0     H94845   1.607   8.137   4.684 -1.9303  2.0922 -0.0063
  703MOL0     H94846   1.402   7.975   4.543 -3.2640  1.6192  0.5059
  703MOL0     H94847   1.456   7.939   4.712  2.3813  1.1865  0.4765
  703MOL0     H94848   1.355   8.104   4.808 -1.5763  3.2309 -0.1075
  703MOL0     H94849   1.321   8.196   4.656 -0.2531  0.9864 -0.2105
  703MOL0     H94850   1.163   8.018   4.594  0.2109 -1.3191 -0.2655
  703MOL0     H94851   1.230   7.902   4.706 -2.4027  0.0550 -0.1937
  703MOL0     H94852   1.136   8.054   4.899 -0.0985  1.3442 -0.3597
  703MOL0     H94853   1.027   7.954   4.797  0.0975 -0.8512  1.5071
  703MOL0     H94854   1.091   8.246   4.792  0.5192 -1.5799 -0.8255
  703MOL0     H94855   0.996   8.170   4.658 -1.6245 -0.7178  0.3402
  703MOL0     H94856   0.953   8.370   4.941  0.3622 -0.6799 -0.0730
  703MOL0     H94857   0.560   8.333   5.026 -0.7400  2.1831 -0.8647
  703MOL0     H94858   0.692   8.428   5.093  0.5270 -3.2790  1.1739
  703MOL0     H94859   0.718   8.535   4.864  1.0754 -2.8384 -0.8303
  703MOL0     H94860   0.585   8.439   4.805  0.7299 -1.3358  0.2437
  703MOL0     H94861   0.526   8.626   5.028 -3.2104  1.2504 -0.5765
  703MOL0     H94862   0.425   8.499   4.989 -0.0236  0.8733  2.2161
  703MOL0     H94863   0.360   8.703   4.882  0.5327 -0.2217  0.8737
  703MOL0     H94864   0.378   8.563   4.774 -2.1533  0.3137  2.1013
  703MOL0     H94865   0.417   8.888   4.644 -1.6848  1.2654  0.7616
  703MOL0     H94866   0.464   9.125   4.683  0.9417 -0.4772 -2.1593
  703MOL0     H94867   0.676   9.491   4.677 -2.2380 -0.7732 -1.4893
  703MOL0     H94868   0.685   9.738   4.725 -0.5807  0.8707  0.5338
  703MOL0     H94869   0.480   9.887   5.098 -0.2614 -1.1118 -0.2951
  703MOL0     H94870   0.651   9.877   5.077 -0.2173  1.7334  1.4014
  703MOL0     H94871   0.502  10.091   4.945  0.1526  0.3115  0.7419
  703MOL0     H94872   0.553  10.125   5.108  2.3922  2.5008 -0.6571
  703MOL0     H94873   0.776  10.061   5.064  0.4362  0.8194  0.3933
  703MOL0     H94874   0.744  10.040   4.892  1.1851  1.0365 -0.6236
  703MOL0     H94875   0.652  10.293   5.018 -0.2534 -3.0924  0.9261
  703MOL0     H94876   0.724  10.272   4.851 -2.3717 -0.4915 -0.3395
  703MOL0     H94877   0.868  10.272   5.121  1.9490  1.9162  0.5131
  703MOL0     H94878   0.867  10.399   5.014  2.1006 -0.5909  0.8429
  703MOL0     H94879   1.000  10.129   4.956 -0.7774  0.5205 -1.8662
  703MOL0     H94880   0.999  10.265   4.856  1.4941 -0.3339  0.1318
  703MOL0     H94881   1.169  10.238   5.103  2.4222  1.3081  0.0060
  703MOL0     H94882   1.106  10.400   5.087  4.6865 -1.0049  0.6689
  703MOL0     H94883   1.222  10.384   4.851 -1.6369 -2.1630 -0.9630
  703MOL0     H94884   1.325  10.365   4.990  0.1595 -0.4345  0.3998
  703MOL0     H94885   0.393   9.680   5.038  2.6269  3.2323  1.7082
  703MOL0     H94886   0.377   9.435   4.968  4.2486 -5.0222  1.0005
  703MOL0     H94887   0.743   9.038   4.995 -0.6866  1.1188 -0.0130
  703MOL0     H94888   0.724   8.807   4.949 -2.2770 -0.8664  1.2311
  703MOL0     H94889   1.974   8.153   4.248  2.9578  0.4913 -1.6696
  703MOL0     H94890   1.983   8.084   4.013  0.8003 -2.0506 -0.5665
  703MOL0     H94891   1.537   7.900   3.702  2.5593  3.0325 -0.0272
  703MOL0     H94892   1.528   7.887   3.434 -1.0862  0.3139  1.8046
  703MOL0     H94893   1.546   7.833   3.229  0.2389 -0.5266  0.2553
  703MOL0     H94894   1.546   7.667   3.281 -3.7155  1.4091 -1.9995
  703MOL0     H94895   1.680   7.770   3.031  1.0932 -0.6270  0.3160
  703MOL0     H94896   1.530   7.663   3.047 -1.3781  1.2991  3.0283
  703MOL0     H94897   1.689   7.502   3.169 -3.3735  0.3978 -0.3477
  703MOL0     H94898   1.814   7.600   3.098  0.8099 -0.6555  0.4197
  703MOL0     H94899   1.794   7.427   2.944  1.2503  1.3498 -1.7939
  703MOL0     H94900   1.611   7.428   2.966  0.3198  0.8553  0.3605
  703MOL0     H94901   1.623   7.726   2.692  0.6035 -1.2902 -2.4626
  703MOL0     H94902   1.916   7.693   3.461  0.4432  0.0124  1.1542
  703MOL0     H94903   1.914   7.562   3.662  1.3046  1.3729 -2.8151
  703MOL0     H94904   2.026   7.698   3.705 -1.6066  1.9123 -1.3389
  703MOL0     H94905   1.912   7.646   3.823  1.2658 -1.9100  0.4586
  704MOL0     O94906   4.120   8.848  11.515 -1.3458 -0.1027 -0.0050
  704MOL0     C94907   4.007   8.871  11.490 -0.1197  0.5441  0.7640
  704MOL0     O94908   3.964   8.941  11.376  0.0105 -0.1946 -0.8540
  704MOL0     C94909   3.839   8.917  11.322  0.2569 -0.4693 -0.6092
  704MOL0     C94910   3.724   8.963  11.384  0.6332  0.4984 -0.5293
  704MOL0     C94911   3.597   8.958  11.323 -0.4272 -0.1363  0.3220
  704MOL0     C94912   3.584   8.890  11.202  0.9081 -0.5291 -1.4285
  704MOL0     O94913   3.459   8.892  11.144 -0.4077  0.2655 -0.3839
  704MOL0     C94914   3.427   8.761  11.084 -0.0920  0.1417  0.3253
  704MOL0     C94915   3.284   8.759  11.042 -0.7185  0.4791  0.0424
  704MOL0     C94916   3.241   8.625  10.982  0.5907 -0.2279  0.2663
  704MOL0     C94917   3.211   8.517  11.084  0.6823  0.1474 -0.4273
  704MOL0     C94918   3.128   8.399  11.012  0.2019 -1.1455 -0.5464
  704MOL0     C94919   3.090   8.284  11.107  0.7304  0.9675 -0.3366
  704MOL0     C94920   3.207   8.198  11.153  0.2004 -0.6144 -0.5561
  704MOL0     C94921   3.148   8.057  11.203  0.1516 -1.1514 -0.2874
  704MOL0     N94922   3.260   7.973  11.242 -0.5801  0.2530 -0.5123
  704MOL0     C94923   3.345   8.011  11.340  0.8579  0.6687  0.0092
  704MOL0     C94924   3.441   7.918  11.341 -0.2183  0.2056  0.4167
  704MOL0     C94925   3.553   7.903  11.441 -0.0949 -0.7881 -0.7983
  704MOL0     C94926   3.664   7.815  11.394  0.1376 -0.0553 -0.1101
  704MOL0     C94927   3.619   7.675  11.350 -1.4178  0.5848  0.6632
  704MOL0     C94928   3.711   7.557  11.401 -0.6062  0.8141  0.9845
  704MOL0     O94929   3.731   7.581  11.539 -0.2013  0.4386  0.1206
  704MOL0     C94930   3.829   7.502  11.603 -0.6168 -0.0553 -0.1818
  704MOL0     C94931   3.821   7.508  11.741  0.2729 -0.2776  1.0740
  704MOL0     C94932   3.895   7.421  11.824  0.4056  0.2571  0.2064
  704MOL0     C94933   3.989   7.332  11.770  0.4760  0.2299  0.6381
  704MOL0     C94934   4.066   7.241  11.856 -0.0248  0.9066 -0.0470
  704MOL0     O94935   4.142   7.145  11.809  0.9374 -0.0601  0.1525
  704MOL0     C94936   4.219   7.072  11.905 -1.8445 -0.1629  0.1748
  704MOL0     C94937   4.342   7.127  11.933  0.3808  0.3800 -0.4514
  704MOL0     C94938   4.419   7.067  12.034 -0.1313 -0.3555  0.7346
  704MOL0     C94939   4.374   6.946  12.094 -0.4464  0.0999  0.2502
  704MOL0     O94940   4.461   6.897  12.188  0.5320  0.3282  0.0295
  704MOL0     C94941   4.599   6.896  12.162 -0.2824 -0.0750 -0.4893
  704MOL0     C94942   4.680   6.814  12.263  0.3595  0.2854  0.6026
  704MOL0     C94943   4.839   6.833  12.238  0.7382  0.5090 -1.3352
  704MOL0     C94944   4.925   6.727  12.297  0.3883 -0.0685  0.7139
  704MOL0     C94945   5.076   6.758  12.293  0.1073  0.2754 -0.6459
  704MOL0     C94946   5.108   6.866  12.402 -0.9394  0.1550 -0.4828
  704MOL0     C94947   5.162   6.992  12.334 -1.1762 -0.4022 -0.1476
  704MOL0     C94948   5.184   7.109  12.435 -0.6025  0.8668 -0.1274
  704MOL0    Cl94949   5.039   7.188  12.486 -0.2574 -0.2422  0.3024
  704MOL0     C94950   4.260   6.887  12.054  0.6217 -0.1617  0.2159
  704MOL0     C94951   4.174   6.956  11.967  0.5961  0.1445 -0.5425
  704MOL0     O94952   4.066   7.279  11.977  0.3111  0.1187  0.3462
  704MOL0     C94953   4.011   7.335  11.634  0.7271 -0.2565 -1.1117
  704MOL0     C94954   3.929   7.411  11.549  0.0084  0.4646 -0.4961
  704MOL0     N94955   3.421   7.838  11.237 -0.0798 -0.7967 -0.1453
  704MOL0     N94956   3.316   7.873  11.174  0.5783 -0.6095 -0.6621
  704MOL0     C94957   3.699   8.849  11.138  0.3371  0.5010  0.3654
  704MOL0     C94958   3.826   8.858  11.202 -0.3647 -0.4694  0.7345
  704MOL0     C94959   3.914   8.837  11.586  0.4361 -0.6021 -0.3949
  704MOL0     C94960   3.893   8.941  11.685  0.4117 -0.8268 -0.9555
  704MOL0     C94961   3.783   8.929  11.774 -0.0377  0.5909 -0.6395
  704MOL0     C94962   3.705   8.807  11.779 -0.3317  0.3881  0.4132
  704MOL0     O94963   3.594   8.784  11.863 -0.7055 -0.3083 -0.2342
  704MOL0     C94964   3.607   8.814  12.005 -0.4675  0.3214 -0.0917
  704MOL0     C94965   3.556   8.954  12.017  0.6857 -0.0258 -0.5545
  704MOL0     C94966   3.559   9.002  12.161  0.4798  0.6771 -0.3244
  704MOL0     C94967   3.692   9.028  12.225 -0.8525  0.3700 -0.0426
  704MOL0     C94968   3.781   9.112  12.146  0.1558 -0.1498  0.7666
  704MOL0     C94969   3.867   9.184  12.087  0.0879 -1.1143  0.6549
  704MOL0     C94970   3.737   8.703  11.689 -0.7577  0.0953  1.0249
  704MOL0     C94971   3.851   8.708  11.599  0.7935  0.1531 -0.1659
  704MOL0     C94972   3.899   8.599  11.506  0.2264  0.6208 -0.5075
  704MOL0     H94973   3.728   9.021  11.475 -1.0011  0.3082 -0.2985
  704MOL0     H94974   3.513   9.002  11.376  1.7402  1.8318  2.3556
  704MOL0     H94975   3.491   8.749  10.997  0.1519  0.3481  0.4751
  704MOL0     H94976   3.435   8.682  11.159 -1.0066 -1.7403 -1.4624
  704MOL0     H94977   3.271   8.833  10.962 -1.3551  1.3601  0.9370
  704MOL0     H94978   3.214   8.782  11.123 -2.5857 -1.1392 -1.0146
  704MOL0     H94979   3.316   8.603  10.906  0.1542 -1.1751  0.0891
  704MOL0     H94980   3.152   8.653  10.925 -1.2414  1.4542  3.6671
  704MOL0     H94981   3.309   8.469  11.097  0.1215 -1.5016 -1.9452
  704MOL0     H94982   3.164   8.545  11.179  0.9127 -1.7122  0.2862
  704MOL0     H94983   3.047   8.452  10.962  1.7133 -1.4983 -3.6388
  704MOL0     H94984   3.195   8.360  10.934 -1.3061 -2.4758 -1.2300
  704MOL0     H94985   3.027   8.338  11.178 -0.5109  0.3198 -0.9160
  704MOL0     H94986   3.019   8.225  11.050  0.0341 -0.9835  2.3416
  704MOL0     H94987   3.264   8.245  11.234  1.8915 -2.3977 -0.6284
  704MOL0     H94988   3.280   8.202  11.072  1.5181  0.2027  0.6096
  704MOL0     H94989   3.080   8.070  11.288  1.2455  1.7934  0.2438
  704MOL0     H94990   3.086   8.016  11.123 -2.2259 -2.3085  1.9761
  704MOL0     H94991   3.328   8.093  11.409 -1.1836 -0.1722  0.5960
  704MOL0     H94992   3.573   8.005  11.475 -0.6052 -0.4594 -1.4422
  704MOL0     H94993   3.514   7.859  11.533 -0.6901  2.7359  0.7926
  704MOL0     H94994   3.714   7.867  11.311  2.8079 -0.8361  0.9200
  704MOL0     H94995   3.732   7.816  11.479  1.7456 -1.9036 -1.2784
  704MOL0     H94996   3.605   7.667  11.242  0.1140 -0.5267  0.5242
  704MOL0     H94997   3.535   7.667  11.421  1.4222 -1.1585  4.1759
  704MOL0     H94998   3.802   7.576  11.343  0.8402  2.2704  3.5523
  704MOL0     H94999   3.659   7.462  11.387  0.9882 -0.0611  0.7974
  704MOL0     H95000   3.747   7.572  11.786 -0.6990 -2.3392  2.6001
  704MOL0     H95001   3.896   7.428  11.932  0.1604 -3.6598  0.5871
  704MOL0     H95002   4.387   7.212  11.882  5.2673 -0.1658  2.3635
  704MOL0     H95003   4.515   7.111  12.060 -0.8500  0.9728  1.2259
  704MOL0     H95004   4.619   6.851  12.064  3.3017  0.9829 -0.3815
  704MOL0     H95005   4.630   7.000  12.174 -0.8109 -0.2341  4.0398
  704MOL0     H95006   4.642   6.840  12.363  0.6943  0.9069  0.5739
  704MOL0     H95007   4.657   6.708  12.252 -1.4585  0.1430  4.2527
  704MOL0     H95008   4.832   6.827  12.129 -3.4223  2.3081 -1.3389
  704MOL0     H95009   4.877   6.928  12.278  2.2348 -2.0382  4.2038
  704MOL0     H95010   4.896   6.640  12.237 -0.3234  2.1624 -2.4247
  704MOL0     H95011   4.898   6.720  12.403  2.0295 -0.9142  1.1127
  704MOL0     H95012   5.124   6.781  12.198  1.9970 -0.3761  0.1031
  704MOL0     H95013   5.129   6.668  12.325 -1.0231  0.6556  2.7160
  704MOL0     H95014   5.019   6.883  12.463 -0.3779 -2.1182  1.1192
  704MOL0     H95015   5.191   6.831  12.465  0.1908  1.5828 -1.1334
  704MOL0     H95016   5.086   7.028  12.263 -3.1117 -1.4174  1.3111
  704MOL0     H95017   5.259   6.960  12.296 -2.3157 -0.9002 -2.8567
  704MOL0     H95018   5.239   7.066  12.520 -4.0760  1.0366  2.4480
  704MOL0     H95019   5.244   7.186  12.386 -0.3245  0.6382 -0.1505
  704MOL0     H95020   4.220   6.798  12.101 -1.2495  0.4313 -0.1891
  704MOL0     H95021   4.078   6.917  11.933  0.4440 -0.3921  0.4607
  704MOL0     H95022   4.101   7.289  11.595  2.1315  1.8342 -0.4903
  704MOL0     H95023   3.959   7.416  11.445  0.2654  0.5914 -0.4186
  704MOL0     H95024   3.689   8.805  11.039  3.4274  1.6229 -0.5538
  704MOL0     H95025   3.922   8.833  11.157 -0.8657 -0.3948 -0.4375
  704MOL0     H95026   3.960   9.026  11.682 -1.6831  1.0566  1.4410
  704MOL0     H95027   3.783   9.012  11.844  1.3420 -2.1523  2.9615
  704MOL0     H95028   3.713   8.801  12.024 -0.6751 -0.1834  0.7757
  704MOL0     H95029   3.541   8.751  12.065 -0.9780  0.2077 -0.7470
  704MOL0     H95030   3.454   8.957  11.978  0.1980 -1.7040  0.4718
  704MOL0     H95031   3.615   9.016  11.949  0.4544 -1.6771 -2.3683
  704MOL0     H95032   3.502   8.931  12.221  0.5687  0.0269 -0.9940
  704MOL0     H95033   3.502   9.095  12.154  0.1496  0.3482 -3.1390
  704MOL0     H95034   3.670   9.059  12.327 -0.4361 -3.4883  1.3860
  704MOL0     H95035   3.732   8.926  12.227 -0.4557  0.3217 -3.5068
  704MOL0     H95036   3.942   9.255  12.059  0.2675 -0.9776  1.4540
  704MOL0     H95037   3.669   8.618  11.686 -2.3481  1.2403  2.8942
  704MOL0     H95038   4.003   8.571  11.527 -0.5865 -1.4613  1.1547
  704MOL0     H95039   3.840   8.507  11.517 -1.2898  1.4295 -1.4342
  704MOL0     H95040   3.901   8.637  11.403  4.1305  2.5428  0.0912
  705MOL0     O95041   6.290   6.147   4.568  0.6200 -0.7826 -0.7563
  705MOL0     C95042   6.243   6.194   4.462  0.7552  0.2379 -0.0635
  705MOL0     O95043   6.272   6.309   4.408  0.1169 -0.0989  0.2061
  705MOL0     C95044   6.346   6.401   4.477  1.1899  0.4371  0.7431
  705MOL0     C95045   6.477   6.380   4.503 -0.8308  0.3899  0.3542
  705MOL0     C95046   6.551   6.464   4.578  1.5356  0.2413  0.2122
  705MOL0     C95047   6.498   6.589   4.623 -0.8264  0.2894  0.3107
  705MOL0     O95048   6.584   6.661   4.699 -0.1998  0.2711 -0.5246
  705MOL0     C95049   6.533   6.663   4.831  0.3839 -0.2412  0.4892
  705MOL0     C95050   6.632   6.725   4.919 -0.0243  0.0050 -0.0309
  705MOL0     C95051   6.593   6.876   4.925  0.5096  0.2045 -0.9691
  705MOL0     C95052   6.702   6.954   4.995  0.4061  0.4458  0.0740
  705MOL0     C95053   6.682   7.103   5.008 -0.2585 -0.5004 -0.3718
  705MOL0     C95054   6.695   7.181   4.872 -0.0125 -0.0855  0.0364
  705MOL0     C95055   6.844   7.237   4.850 -0.3817  0.0026 -0.1847
  705MOL0     C95056   6.853   7.355   4.935 -0.1276 -0.2958  0.1195
  705MOL0     N95057   6.975   7.423   4.892  0.5518  0.1039 -0.5490
  705MOL0     C95058   7.102   7.371   4.893 -0.0682 -0.1779  0.2572
  705MOL0     C95059   7.170   7.474   4.836 -0.3800  0.0148 -0.4369
  705MOL0     C95060   7.310   7.483   4.804  0.0464  0.8871  0.4322
  705MOL0     C95061   7.347   7.478   4.656  0.0401 -0.0302  0.0128
  705MOL0     C95062   7.261   7.391   4.567  0.5257  0.5006 -0.2313
  705MOL0     C95063   7.311   7.383   4.417  0.3269 -0.4381 -0.1828
  705MOL0     O95064   7.218   7.305   4.348 -0.4292 -0.3655  0.5502
  705MOL0     C95065   7.243   7.187   4.289  1.4304 -0.2182  0.5951
  705MOL0     C95066   7.352   7.110   4.302  0.3744 -0.2113 -0.3720
  705MOL0     C95067   7.381   6.995   4.220  0.0684 -0.9608  0.8491
  705MOL0     C95068   7.275   6.947   4.140  0.3243 -0.7944  0.8028
  705MOL0     C95069   7.297   6.827   4.057  0.4614  0.6321 -0.1285
  705MOL0     O95070   7.425   6.792   4.017 -0.4643 -0.2012  1.2192
  705MOL0     C95071   7.444   6.676   3.942 -0.1537  0.0655 -0.0227
  705MOL0     C95072   7.532   6.662   3.836 -0.5353 -0.6789 -0.7089
  705MOL0     C95073   7.578   6.543   3.784 -0.0906  0.0117  0.3968
  705MOL0     C95074   7.523   6.419   3.828 -0.6167 -0.2482  0.3450
  705MOL0     O95075   7.563   6.306   3.758  0.3000 -0.6220 -0.6035
  705MOL0     C95076   7.541   6.189   3.832 -0.7620 -0.3510  0.3487
  705MOL0     C95077   7.665   6.112   3.792  0.4818 -0.7254  0.8338
  705MOL0     C95078   7.803   6.166   3.841  0.2029 -0.1147 -0.4079
  705MOL0     C95079   7.900   6.075   3.765 -1.3542  0.4255 -0.3173
  705MOL0     C95080   8.047   6.079   3.823  0.7879 -0.2666 -0.0862
  705MOL0     C95081   8.129   5.976   3.751  0.2561 -0.1060 -0.3685
  705MOL0     C95082   8.284   6.012   3.736 -0.2891  0.3396 -0.8524
  705MOL0     C95083   8.365   6.010   3.868  0.5794  0.0976 -0.0338
  705MOL0    Cl95084   8.374   5.845   3.931 -0.4711 -0.3652  0.1905
  705MOL0     C95085   7.419   6.434   3.920 -0.1580 -0.0492  0.4006
  705MOL0     C95086   7.389   6.558   3.982 -0.1303  1.1622 -0.0711
  705MOL0     O95087   7.194   6.773   4.022  0.5804 -0.1644 -1.0138
  705MOL0     C95088   7.150   7.019   4.139 -0.5435  0.5704  0.4000
  705MOL0     C95089   7.130   7.135   4.215 -1.2887  0.2736  0.3720
  705MOL0     N95090   7.094   7.591   4.828  0.1936  0.8236  0.0579
  705MOL0     N95091   6.974   7.560   4.868 -0.9647 -0.1711  0.4035
  705MOL0     C95092   6.364   6.621   4.599 -0.1946  0.1960 -0.9115
  705MOL0     C95093   6.297   6.529   4.509 -0.0217 -0.7847 -0.7018
  705MOL0     C95094   6.141   6.100   4.404  0.7392 -0.2312 -0.3554
  705MOL0     C95095   6.075   6.156   4.292  1.0992  0.5906 -0.7275
  705MOL0     C95096   5.964   6.088   4.233  0.3620  0.4390  0.4529
  705MOL0     C95097   5.940   5.958   4.264 -0.0739  0.0577 -0.0173
  705MOL0     O95098   5.849   5.895   4.186 -0.5296  0.0750 -0.4811
  705MOL0     C95099   5.719   5.923   4.206  0.3238 -0.4198  0.4162
  705MOL0     C95100   5.671   5.902   4.346 -1.0856  0.3520 -1.0326
  705MOL0     C95101   5.682   5.748   4.378 -0.2594 -0.0280  0.1033
  705MOL0     C95102   5.562   5.671   4.324 -0.3744  0.6725 -0.6233
  705MOL0     C95103   5.551   5.560   4.417  0.7754  0.3171 -0.4336
  705MOL0     C95104   5.542   5.462   4.486  0.6976  0.1937  0.2046
  705MOL0     C95105   6.013   5.901   4.371 -0.0630  0.0266 -0.8516
  705MOL0     C95106   6.104   5.970   4.449 -0.2964  0.0282  0.2809
  705MOL0     C95107   6.150   5.892   4.575  0.7727  0.1041 -0.4659
  705MOL0     H95108   6.514   6.280   4.481  1.5705  1.4296 -0.5743
  705MOL0     H95109   6.655   6.436   4.586  1.1556 -1.8048 -1.2860
  705MOL0     H95110   6.434   6.710   4.836 -0.2646 -1.6094  1.2287
  705MOL0     H95111   6.502   6.560   4.855  1.1291 -0.7227 -0.5559
  705MOL0     H95112   6.738   6.702   4.900  0.4926 -0.6785  3.2246
  705MOL0     H95113   6.617   6.667   5.010 -0.1558 -2.3045 -1.4462
  705MOL0     H95114   6.504   6.897   4.985 -0.2368 -0.9596 -1.6348
  705MOL0     H95115   6.565   6.911   4.826 -0.1169 -1.8257 -1.5399
  705MOL0     H95116   6.706   6.917   5.097 -0.5407 -0.0543 -0.0684
  705MOL0     H95117   6.799   6.941   4.945 -0.8834  0.1124 -2.4991
  705MOL0     H95118   6.581   7.112   5.050 -0.6611 -0.3513 -1.3459
  705MOL0     H95119   6.748   7.149   5.083  1.0856 -1.7930 -0.7206
  705MOL0     H95120   6.670   7.111   4.791 -2.7717 -1.4230  1.8777
  705MOL0     H95121   6.620   7.260   4.876 -2.5568 -2.3863  3.0587
  705MOL0     H95122   6.860   7.256   4.743  0.8336 -2.0516 -0.4171
  705MOL0     H95123   6.920   7.168   4.887 -0.7676 -1.5201 -2.0158
  705MOL0     H95124   6.767   7.422   4.926 -0.6392 -1.1050 -1.2574
  705MOL0     H95125   6.850   7.330   5.042 -3.1041  4.3623  1.4530
  705MOL0     H95126   7.143   7.270   4.902  0.3941 -0.1210 -1.0698
  705MOL0     H95127   7.338   7.580   4.846 -2.6476  1.2661  1.5542
  705MOL0     H95128   7.377   7.416   4.858  0.2044  1.3618  0.8318
  705MOL0     H95129   7.340   7.584   4.630  2.1349  1.2094  3.8418
  705MOL0     H95130   7.453   7.452   4.647  0.1165  0.7063 -1.4253
  705MOL0     H95131   7.157   7.427   4.569  0.0145 -0.9011 -0.0081
  705MOL0     H95132   7.254   7.286   4.597 -1.6027  1.7275  4.7059
  705MOL0     H95133   7.417   7.358   4.407  0.6466  0.2051  1.3677
  705MOL0     H95134   7.306   7.489   4.391  0.0758 -0.2177  0.7427
  705MOL0     H95135   7.436   7.146   4.360 -0.1846  0.5341 -0.0161
  705MOL0     H95136   7.471   6.933   4.219  1.3696  0.6926 -2.8686
  705MOL0     H95137   7.578   6.757   3.808 -1.4348 -0.7590 -2.6433
  705MOL0     H95138   7.656   6.542   3.708 -1.3059  1.0621 -0.9330
  705MOL0     H95139   7.552   6.193   3.941  3.9290  1.5778  0.0333
  705MOL0     H95140   7.451   6.137   3.798 -0.9382  0.6756 -0.8313
  705MOL0     H95141   7.657   6.012   3.835 -1.9778 -0.4272  1.2252
  705MOL0     H95142   7.664   6.105   3.683 -0.1416 -3.1000  0.9436
  705MOL0     H95143   7.824   6.260   3.791 -1.8395  0.1568 -0.8393
  705MOL0     H95144   7.818   6.168   3.950 -0.8635 -2.7583 -0.1390
  705MOL0     H95145   7.906   6.104   3.660 -1.6233  1.0401 -0.1652
  705MOL0     H95146   7.882   5.967   3.771  0.4600  0.0219 -1.5928
  705MOL0     H95147   8.044   6.054   3.929  2.4653  0.2707  0.1112
  705MOL0     H95148   8.083   6.181   3.805 -2.1620  0.3290 -4.1992
  705MOL0     H95149   8.114   5.879   3.799  1.4345  0.6369  1.6186
  705MOL0     H95150   8.100   5.971   3.645  1.5561 -1.4603 -0.7003
  705MOL0     H95151   8.276   6.118   3.711 -0.7703  0.6248  0.4472
  705MOL0     H95152   8.321   5.948   3.655  0.1619 -2.9743  1.7184
  705MOL0     H95153   8.466   6.047   3.850  1.3048 -0.7069  2.1368
  705MOL0     H95154   8.308   6.076   3.934 -2.6387 -3.1132  0.7276
  705MOL0     H95155   7.363   6.352   3.964 -0.3542  0.7555  1.7215
  705MOL0     H95156   7.315   6.531   4.057  0.9455  0.4440  0.7777
  705MOL0     H95157   7.080   6.994   4.060 -1.0361  0.8838  0.7313
  705MOL0     H95158   7.037   7.189   4.199 -0.5943  1.2967 -0.3408
  705MOL0     H95159   6.331   6.720   4.628  2.2459  1.2000 -1.3306
  705MOL0     H95160   6.195   6.561   4.489  0.9436  3.1571 -0.2567
  705MOL0     H95161   6.093   6.258   4.259  0.2556  1.2533  0.7624
  705MOL0     H95162   5.914   6.130   4.146  1.2669  3.1385  1.1214
  705MOL0     H95163   5.657   5.852   4.150  1.2061 -2.9885  2.4560
  705MOL0     H95164   5.697   6.021   4.164 -1.4394  0.0903  2.4016
  705MOL0     H95165   5.582   5.959   4.374  0.2832  2.9295 -1.6219
  705MOL0     H95166   5.745   5.949   4.411 -0.3339  1.3254 -2.5397
  705MOL0     H95167   5.697   5.744   4.486 -0.8759  1.9697  0.3107
  705MOL0     H95168   5.779   5.713   4.343 -0.2349 -0.1049  0.2483
  705MOL0     H95169   5.468   5.726   4.326 -1.0855 -0.4986 -0.9429
  705MOL0     H95170   5.582   5.631   4.224  0.2153 -1.8873  0.4317
  705MOL0     H95171   5.554   5.367   4.535  3.9744 -0.4155 -1.5346
  705MOL0     H95172   5.984   5.799   4.395 -5.4407  1.7799  1.8250
  705MOL0     H95173   6.115   5.947   4.663  0.8080 -3.0587  1.6681
  705MOL0     H95174   6.116   5.789   4.578  1.6426 -0.2145 -0.9346
  705MOL0     H95175   6.259   5.894   4.566  0.8535  2.9271  0.1388
  706MOL0     O95176   3.379  11.288   7.257 -0.4077  0.0493 -0.9641
  706MOL0     C95177   3.344  11.400   7.277  0.4212  0.3683  0.0067
  706MOL0     O95178   3.331  11.466   7.407  0.0687  0.5096 -0.7239
  706MOL0     C95179   3.358  11.401   7.524 -0.3223 -0.1233  0.6307
  706MOL0     C95180   3.293  11.292   7.569 -0.3513  0.4267 -0.5610
  706MOL0     C95181   3.315  11.247   7.701 -1.1793  0.0956  1.2394
  706MOL0     C95182   3.406  11.302   7.784 -0.4863 -0.3477  0.0209
  706MOL0     O95183   3.439  11.263   7.910 -0.3129 -0.2139 -0.4108
  706MOL0     C95184   3.356  11.169   7.977 -0.1488 -0.6011 -0.4040
  706MOL0     C95185   3.396  11.109   8.112 -0.3621  0.8913 -0.5510
  706MOL0     C95186   3.280  11.027   8.171 -0.5885 -0.0706 -0.1491
  706MOL0     C95187   3.166  11.113   8.229 -0.3278  0.5218  1.2202
  706MOL0     C95188   3.080  11.009   8.312 -0.3104 -0.3766 -0.8972
  706MOL0     C95189   2.981  11.048   8.413  0.0721 -0.7114  0.3472
  706MOL0     C95190   2.886  11.161   8.370  0.1903  0.7661  0.0098
  706MOL0     C95191   2.937  11.296   8.408  0.4183  0.0165 -0.2814
  706MOL0     N95192   2.864  11.398   8.341 -0.1085  0.3454  0.3245
  706MOL0     C95193   2.809  11.405   8.216  0.4406 -0.4532 -0.3151
  706MOL0     C95194   2.755  11.534   8.212 -0.0073  0.2318  0.2062
  706MOL0     C95195   2.687  11.606   8.100  0.9468  0.3372  0.2507
  706MOL0     C95196   2.605  11.519   7.999  0.3211 -0.1290 -0.3466
  706MOL0     C95197   2.473  11.463   8.053  0.8109  0.5875  0.1319
  706MOL0     C95198   2.363  11.446   7.944 -0.3840 -0.7941 -0.4912
  706MOL0     O95199   2.357  11.309   7.911 -0.2713  0.2277 -0.1022
  706MOL0     C95200   2.266  11.273   7.827  0.4299 -1.0485 -0.4448
  706MOL0     C95201   2.246  11.138   7.816 -0.0240  0.4884 -0.7189
  706MOL0     C95202   2.141  11.086   7.728  0.0174  0.5617 -0.7806
  706MOL0     C95203   2.045  11.171   7.670 -0.1876 -1.3771 -0.1656
  706MOL0     C95204   1.921  11.126   7.607 -0.4984 -1.5873  0.3711
  706MOL0     O95205   1.870  10.999   7.642  0.0529 -0.7013  0.0593
  706MOL0     C95206   1.746  10.962   7.592 -0.9368 -0.1003 -0.7815
  706MOL0     C95207   1.732  10.836   7.532 -0.1343  0.3709 -0.5272
  706MOL0     C95208   1.606  10.804   7.496 -0.4717 -0.6583 -0.1743
  706MOL0     C95209   1.497  10.892   7.501 -0.4795  0.6252  0.4028
  706MOL0     O95210   1.381  10.829   7.456 -0.5780 -0.3145 -0.8424
  706MOL0     C95211   1.276  10.905   7.392 -0.6011 -0.0806  0.3775
  706MOL0     C95212   1.138  10.834   7.424 -0.1735 -0.1815  0.3697
  706MOL0     C95213   1.104  10.827   7.579 -0.7327 -0.3490  0.6847
  706MOL0     C95214   1.097  10.697   7.647  0.0909  0.4217  0.7593
  706MOL0     C95215   1.237  10.658   7.700 -0.2940 -0.2818  0.0688
  706MOL0     C95216   1.218  10.528   7.776  0.2645  0.3738  0.1437
  706MOL0     C95217   1.128  10.546   7.896 -0.4903  0.4822 -0.4593
  706MOL0     C95218   1.133  10.427   7.988  0.0462 -0.3945  0.2727
  706MOL0    Cl95219   1.015  10.466   8.113  0.3971 -0.0631 -0.2153
  706MOL0     C95220   1.508  11.018   7.550 -0.2219 -0.5269 -0.0820
  706MOL0     C95221   1.634  11.050   7.602 -0.8701 -1.2625 -0.1611
  706MOL0     O95222   1.874  11.201   7.514 -0.2287  0.0218  0.1888
  706MOL0     C95223   2.072  11.307   7.682  0.4090 -0.3072  1.1350
  706MOL0     C95224   2.177  11.356   7.758 -0.3280 -1.2458 -0.3265
  706MOL0     N95225   2.788  11.608   8.327  0.7719  0.6214 -0.9026
  706MOL0     N95226   2.858  11.522   8.393  0.4895  0.2969  0.4503
  706MOL0     C95227   3.467  11.416   7.738 -0.2621  0.4623 -0.2089
  706MOL0     C95228   3.448  11.467   7.608  0.4280 -0.6060 -0.8805
  706MOL0     C95229   3.314  11.478   7.163  0.2283  0.5834  0.4949
  706MOL0     C95230   3.333  11.614   7.167  0.5147  0.7607 -0.6124
  706MOL0     C95231   3.301  11.702   7.062  0.7280 -0.1111  0.2036
  706MOL0     C95232   3.258  11.650   6.940  0.7341 -0.2376  0.2792
  706MOL0     O95233   3.234  11.718   6.818  0.1099 -0.0805 -0.4126
  706MOL0     C95234   3.246  11.858   6.815 -0.4775  0.1041 -1.0275
  706MOL0     C95235   3.238  11.902   6.669 -0.0550  0.7921 -0.4087
  706MOL0     C95236   3.373  11.926   6.605 -0.0871  0.7546  0.4789
  706MOL0     C95237   3.459  11.805   6.573  0.7383 -0.6644  0.7069
  706MOL0     C95238   3.399  11.716   6.477  0.7320 -0.6225 -0.3250
  706MOL0     C95239   3.331  11.648   6.399 -0.4979  0.4053 -1.0661
  706MOL0     C95240   3.233  11.517   6.937 -0.7850 -0.2659  0.5501
  706MOL0     C95241   3.267  11.427   7.041 -0.6750  0.1363 -0.1519
  706MOL0     C95242   3.244  11.284   7.004 -0.1953  0.3933 -1.1353
  706MOL0     H95243   3.222  11.237   7.508 -1.4635  0.2643  0.8069
  706MOL0     H95244   3.259  11.162   7.738 -0.6411  0.3302  2.6465
  706MOL0     H95245   3.270  11.237   7.990 -0.0572 -0.4418 -0.6441
  706MOL0     H95246   3.351  11.079   7.916 -1.3264 -1.4511  0.8867
  706MOL0     H95247   3.416  11.189   8.185 -0.1192  0.4223 -0.1010
  706MOL0     H95248   3.488  11.052   8.096  0.3923  1.4935  1.3432
  706MOL0     H95249   3.323  10.967   8.251  1.9312  0.0625 -1.3161
  706MOL0     H95250   3.232  10.973   8.090 -1.0297 -0.0273  0.0780
  706MOL0     H95251   3.204  11.193   8.293  1.9946 -1.9579  3.1711
  706MOL0     H95252   3.104  11.150   8.147  0.2516  0.3830  0.7151
  706MOL0     H95253   3.032  10.942   8.240 -1.1485 -0.9612  0.1806
  706MOL0     H95254   3.147  10.946   8.370 -1.1181  1.2176  2.0007
  706MOL0     H95255   2.916  10.961   8.421 -1.8673  0.6575  0.3175
  706MOL0     H95256   3.021  11.072   8.511  0.9715 -1.7189  0.2383
  706MOL0     H95257   2.787  11.148   8.415 -1.4889  2.4003 -2.8562
  706MOL0     H95258   2.879  11.145   8.262 -0.1521 -1.4589  0.3262
  706MOL0     H95259   2.931  11.310   8.516 -0.4084  0.9307 -0.4248
  706MOL0     H95260   3.042  11.299   8.377  0.1860  2.2230 -1.0628
  706MOL0     H95261   2.801  11.340   8.130 -1.5009 -1.5988  0.6862
  706MOL0     H95262   2.623  11.674   8.157  1.4143  1.7992 -0.9078
  706MOL0     H95263   2.751  11.669   8.038  0.0266 -1.0108 -2.1696
  706MOL0     H95264   2.581  11.584   7.915  1.1534 -2.2116 -2.3061
  706MOL0     H95265   2.662  11.439   7.951  1.2583 -1.1891  2.3510
  706MOL0     H95266   2.444  11.526   8.138  1.7005 -0.7507  1.4927
  706MOL0     H95267   2.498  11.366   8.096  0.1670 -1.5738 -3.9293
  706MOL0     H95268   2.377  11.521   7.865 -1.7956  1.3560  1.1682
  706MOL0     H95269   2.268  11.468   7.994 -0.2383  1.0498 -0.9471
  706MOL0     H95270   2.313  11.069   7.866 -0.5260  0.3801 -0.1780
  706MOL0     H95271   2.121  10.984   7.695 -2.0012  1.0410 -1.1334
  706MOL0     H95272   1.822  10.777   7.518 -1.0662 -1.8696  2.1548
  706MOL0     H95273   1.594  10.706   7.451 -0.9880  0.8626 -3.7340
  706MOL0     H95274   1.272  11.011   7.421 -3.1489 -0.8087  3.1733
  706MOL0     H95275   1.286  10.900   7.283 -0.6589 -0.8515  0.4058
  706MOL0     H95276   1.058  10.895   7.380  0.8138  1.9500  1.3908
  706MOL0     H95277   1.125  10.737   7.375 -3.0707 -0.0762  0.7540
  706MOL0     H95278   1.159  10.906   7.631 -0.0696 -1.2756  1.4110
  706MOL0     H95279   1.001  10.863   7.587  0.0326  2.7013 -1.3004
  706MOL0     H95280   1.054  10.626   7.575  0.1424  1.6288 -0.5011
  706MOL0     H95281   1.024  10.712   7.726 -1.2596  0.9519 -0.5448
  706MOL0     H95282   1.273  10.736   7.767  1.1108 -1.1608  0.3740
  706MOL0     H95283   1.305  10.649   7.614  0.1622  1.4159  0.2155
  706MOL0     H95284   1.176  10.463   7.698  2.4736  0.6751 -1.4134
  706MOL0     H95285   1.312  10.480   7.805 -0.2216 -2.1947 -2.0925
  706MOL0     H95286   1.023  10.558   7.867 -0.3956 -1.1427 -1.6404
  706MOL0     H95287   1.156  10.643   7.937  1.8678 -1.1017  2.0664
  706MOL0     H95288   1.097  10.342   7.930  0.1712 -1.6001  1.8795
  706MOL0     H95289   1.235  10.402   8.022  1.3419  1.5776 -1.8707
  706MOL0     H95290   1.430  11.093   7.540 -0.1458 -0.7022 -2.7595
  706MOL0     H95291   1.651  11.149   7.644 -0.5899 -2.1844  2.0795
  706MOL0     H95292   2.015  11.373   7.617  1.2526 -0.6829 -0.0034
  706MOL0     H95293   2.190  11.463   7.754 -4.5561 -0.5404 -0.2402
  706MOL0     H95294   3.536  11.470   7.802  0.4222  0.3908 -0.8743
  706MOL0     H95295   3.496  11.561   7.581 -0.0642 -0.3328 -0.8074
  706MOL0     H95296   3.375  11.664   7.254 -0.5993  3.5166 -1.5666
  706MOL0     H95297   3.332  11.805   7.072 -1.4549  0.5419  0.7426
  706MOL0     H95298   3.335  11.901   6.862 -0.3619 -0.4906 -0.6927
  706MOL0     H95299   3.164  11.900   6.875  1.1462  0.8507  0.7822
  706MOL0     H95300   3.192  12.001   6.661  0.0283  0.7324 -1.7031
  706MOL0     H95301   3.177  11.829   6.615 -0.1693 -0.2055  0.9907
  706MOL0     H95302   3.429  11.975   6.685  0.4189  2.7903 -1.0535
  706MOL0     H95303   3.367  11.997   6.522  1.7092  0.6476  0.2185
  706MOL0     H95304   3.566  11.819   6.554  0.7936  1.9904  2.5258
  706MOL0     H95305   3.461  11.750   6.668 -2.4384 -0.3971  1.0325
  706MOL0     H95306   3.289  11.584   6.325  1.0017  1.7563 -3.2281
  706MOL0     H95307   3.189  11.475   6.847 -0.5021 -1.9159  1.1582
  706MOL0     H95308   3.337  11.235   6.973 -0.1855  0.1586 -0.7409
  706MOL0     H95309   3.206  11.237   7.095  1.2930 -0.8204 -1.0944
  706MOL0     H95310   3.178  11.259   6.921 -3.5421  0.3507  1.3108
  707MOL0     O95311   0.328   9.421   3.043  0.6533 -0.3237 -0.1647
  707MOL0     C95312   0.421   9.492   3.067 -0.8962 -0.8373 -1.8571
  707MOL0     O95313   0.535   9.452   3.127 -1.1000 -0.6410  0.2506
  707MOL0     C95314   0.544   9.358   3.229  0.0586  0.1006  0.5935
  707MOL0     C95315   0.439   9.281   3.279  0.9393 -1.0152 -0.9300
  707MOL0     C95316   0.459   9.200   3.385 -0.9196 -0.0563  0.4846
  707MOL0     C95317   0.577   9.194   3.456  0.2317  0.2454 -1.1633
  707MOL0     O95318   0.587   9.113   3.575 -0.1615  0.5995  0.0227
  707MOL0     C95319   0.712   9.126   3.650  0.1895  0.2301  0.3249
  707MOL0     C95320   0.701   9.054   3.784 -0.4434  0.2353  0.0396
  707MOL0     C95321   0.811   9.080   3.890 -0.6865 -0.4590  0.0147
  707MOL0     C95322   0.922   8.971   3.865 -0.8418 -0.0303  0.0451
  707MOL0     C95323   1.045   9.008   3.954 -0.2086 -0.0401  0.2479
  707MOL0     C95324   1.056   8.965   4.104 -0.0815 -0.7537 -0.5212
  707MOL0     C95325   1.201   8.989   4.168 -0.8065 -1.0374 -0.5587
  707MOL0     C95326   1.227   9.129   4.231  0.7174  1.5544 -0.1666
  707MOL0     N95327   1.365   9.158   4.284  0.6493 -0.4087 -0.7382
  707MOL0     C95328   1.393   9.212   4.404  0.0063 -0.3785 -0.6882
  707MOL0     C95329   1.528   9.233   4.422 -0.1164  0.1160 -0.7819
  707MOL0     C95330   1.598   9.277   4.544  1.1160  0.2915  0.3248
  707MOL0     C95331   1.649   9.425   4.536  0.6396 -0.6259  0.1656
  707MOL0     C95332   1.747   9.448   4.424 -0.1364 -0.4312 -1.5636
  707MOL0     C95333   1.871   9.357   4.440 -0.3627 -0.9973 -0.0353
  707MOL0     O95334   1.975   9.401   4.342  0.3159 -0.7845 -0.1130
  707MOL0     C95335   1.972   9.371   4.214 -0.4238 -0.0135  0.8753
  707MOL0     C95336   2.074   9.441   4.140 -0.2855 -0.2837 -0.9882
  707MOL0     C95337   2.080   9.418   4.004  0.1948  0.0743 -0.3418
  707MOL0     C95338   1.991   9.338   3.939  0.2871 -0.2876 -0.8746
  707MOL0     C95339   1.989   9.344   3.793  0.2644 -0.3215 -0.2818
  707MOL0     O95340   2.116   9.362   3.740  0.5051  0.7946  0.0517
  707MOL0     C95341   2.138   9.338   3.603  0.4126  0.1286 -0.3268
  707MOL0     C95342   2.249   9.404   3.548 -0.1098 -0.4493  0.5831
  707MOL0     C95343   2.280   9.384   3.409 -0.1021  0.7303  0.6865
  707MOL0     C95344   2.206   9.302   3.331  0.0518  1.3170 -1.5249
  707MOL0     O95345   2.225   9.303   3.194  0.3061 -0.0098  0.0199
  707MOL0     C95346   2.166   9.202   3.112 -0.3157  0.6943  0.3924
  707MOL0     C95347   2.225   9.058   3.137 -0.1090 -0.4329  0.3296
  707MOL0     C95348   2.142   8.947   3.086 -0.0641  0.6233  0.3579
  707MOL0     C95349   2.162   8.918   2.930 -0.3763  0.0075  0.5513
  707MOL0     C95350   2.067   8.820   2.866 -0.1337 -0.2959 -1.1768
  707MOL0     C95351   2.081   8.819   2.713  0.1870 -0.5276 -0.1413
  707MOL0     C95352   1.963   8.752   2.647 -0.2031  0.5787 -0.4595
  707MOL0     C95353   1.839   8.836   2.631  0.8855  0.8920  0.9029
  707MOL0    Cl95354   1.713   8.726   2.540 -0.0952 -0.4230 -0.0766
  707MOL0     C95355   2.090   9.233   3.393 -0.1341  0.3297  1.9681
  707MOL0     C95356   2.064   9.247   3.524 -0.5100  0.1975  0.0380
  707MOL0     O95357   1.885   9.332   3.734 -0.5405  0.0525  0.4893
  707MOL0     C95358   1.905   9.253   4.016  0.1698  0.5477  0.2514
  707MOL0     C95359   1.890   9.270   4.155 -0.6271 -0.2979  0.8988
  707MOL0     N95360   1.573   9.197   4.301 -0.4647 -0.2751 -0.6731
  707MOL0     N95361   1.481   9.163   4.211  0.0568 -0.6111 -0.0719
  707MOL0     C95362   0.682   9.276   3.403 -0.3960  0.1867 -1.5569
  707MOL0     C95363   0.663   9.364   3.294 -0.4445 -0.1656 -0.2915
  707MOL0     C95364   0.420   9.622   2.997  0.3202  0.9003 -0.2946
  707MOL0     C95365   0.311   9.653   2.915  0.9080 -0.2428 -0.1312
  707MOL0     C95366   0.310   9.781   2.845 -0.6048  0.9573  0.4627
  707MOL0     C95367   0.403   9.877   2.869 -0.5078 -0.7069 -0.8351
  707MOL0     O95368   0.386   9.995   2.805 -0.0482 -0.0031  0.2802
  707MOL0     C95369   0.434   9.983   2.669  0.3235  0.2471  0.7669
  707MOL0     C95370   0.550  10.098   2.661  0.3184  0.0875  0.4035
  707MOL0     C95371   0.689  10.036   2.693  0.0762 -0.5442 -0.0046
  707MOL0     C95372   0.806  10.144   2.684  1.4272  0.3312 -0.4125
  707MOL0     C95373   0.905  10.128   2.798  1.0934 -1.3157 -0.0139
  707MOL0     C95374   0.969  10.122   2.898 -0.5486  0.3456  0.6662
  707MOL0     C95375   0.510   9.848   2.946  0.8412  0.1289  1.1645
  707MOL0     C95376   0.511   9.727   3.022  0.0114  0.9448  0.5220
  707MOL0     C95377   0.621   9.731   3.130 -0.4937 -0.4171  0.2415
  707MOL0     H95378   0.340   9.295   3.238  0.1018  1.3690  1.5747
  707MOL0     H95379   0.377   9.131   3.403  1.2328 -3.0850 -0.5856
  707MOL0     H95380   0.786   9.090   3.578  0.2134 -4.6092  2.3775
  707MOL0     H95381   0.729   9.229   3.681 -4.2208  0.5034  2.7082
  707MOL0     H95382   0.705   8.946   3.767  4.2678  0.3393 -0.9125
  707MOL0     H95383   0.605   9.081   3.830 -1.1027  1.1162 -1.7603
  707MOL0     H95384   0.771   9.072   3.992 -2.1017  0.7370 -0.4108
  707MOL0     H95385   0.868   9.168   3.859 -0.7196 -0.5251 -0.2375
  707MOL0     H95386   0.888   8.868   3.879 -2.6693  0.6007  0.5307
  707MOL0     H95387   0.954   8.977   3.761 -0.7461  2.2829  0.1592
  707MOL0     H95388   1.129   8.954   3.908 -0.0533 -0.1405  0.6384
  707MOL0     H95389   1.078   9.112   3.942  1.9027 -0.8007 -1.2323
  707MOL0     H95390   0.974   9.004   4.165 -0.3127 -1.5864 -0.2882
  707MOL0     H95391   1.036   8.857   4.100  3.5262 -1.6312  0.7242
  707MOL0     H95392   1.275   8.980   4.088 -2.4681 -0.9798 -2.1809
  707MOL0     H95393   1.228   8.921   4.250 -2.1985  2.2748  2.9220
  707MOL0     H95394   1.184   9.205   4.167 -1.1461  0.9602  0.3154
  707MOL0     H95395   1.154   9.125   4.312  1.5937 -0.2733  0.6024
  707MOL0     H95396   1.323   9.217   4.487  0.0398  3.8163 -0.6927
  707MOL0     H95397   1.526   9.272   4.627  0.2284  2.7943 -0.1786
  707MOL0     H95398   1.681   9.213   4.574  0.4499  0.9441  4.0347
  707MOL0     H95399   1.563   9.489   4.515  0.6069 -0.1903  1.5729
  707MOL0     H95400   1.688   9.471   4.627  1.0059 -1.7361  0.5853
  707MOL0     H95401   1.779   9.552   4.416 -2.6854  0.4402 -1.2887
  707MOL0     H95402   1.697   9.416   4.332 -1.6466 -1.0877 -0.5601
  707MOL0     H95403   1.843   9.252   4.426 -2.7223 -0.4221 -0.1084
  707MOL0     H95404   1.898   9.370   4.545 -0.8426 -3.4467  0.4563
  707MOL0     H95405   2.138   9.505   4.200 -1.9055  0.8240 -0.3729
  707MOL0     H95406   2.157   9.464   3.942  2.6079  1.1111  3.0463
  707MOL0     H95407   2.319   9.471   3.596  1.2936  0.0536 -2.0093
  707MOL0     H95408   2.368   9.428   3.363  0.2909  1.3001  1.9484
  707MOL0     H95409   2.058   9.214   3.129 -0.0213  3.7862  0.6098
  707MOL0     H95410   2.189   9.212   3.006 -2.4609 -0.8856 -0.3043
  707MOL0     H95411   2.325   9.051   3.091 -0.8071  0.7902 -1.4715
  707MOL0     H95412   2.236   9.039   3.244 -2.2801 -1.8808  0.3518
  707MOL0     H95413   2.173   8.858   3.143  0.6812 -1.8112 -3.5033
  707MOL0     H95414   2.039   8.973   3.110  0.4224  0.0370  3.6041
  707MOL0     H95415   2.264   8.878   2.920 -1.3655 -2.8976  1.1183
  707MOL0     H95416   2.159   9.003   2.861 -0.5210 -0.5383 -0.1369
  707MOL0     H95417   1.965   8.842   2.899  0.7467 -0.1982  1.7584
  707MOL0     H95418   2.099   8.722   2.902  3.5838  1.2089  0.0338
  707MOL0     H95419   2.093   8.917   2.666  0.4570  0.2574  1.4928
  707MOL0     H95420   2.171   8.763   2.690 -1.0460 -3.9600  2.5142
  707MOL0     H95421   1.944   8.654   2.693  1.0743 -0.0096 -1.1270
  707MOL0     H95422   2.003   8.721   2.550  1.4493 -3.4312  1.2448
  707MOL0     H95423   1.807   8.855   2.733 -1.4425  0.1232  0.3768
  707MOL0     H95424   1.859   8.923   2.568  4.0766  0.0485  0.5168
  707MOL0     H95425   2.014   9.179   3.338 -0.6203 -1.0647  3.8986
  707MOL0     H95426   1.980   9.187   3.558 -0.4187 -1.5681 -2.5860
  707MOL0     H95427   1.833   9.195   3.958  0.8641  0.6296 -0.7072
  707MOL0     H95428   1.820   9.208   4.210  0.0390 -3.1156 -1.2223
  707MOL0     H95429   0.774   9.284   3.460 -1.1489  1.1059 -0.4147
  707MOL0     H95430   0.750   9.411   3.250  0.0613 -1.1857 -0.4075
  707MOL0     H95431   0.228   9.587   2.891  2.5448 -1.7138 -2.2354
  707MOL0     H95432   0.225   9.792   2.779 -1.0377 -2.6788  0.2400
  707MOL0     H95433   0.359  10.019   2.597 -0.8578 -2.8120  0.3284
  707MOL0     H95434   0.474   9.886   2.640 -2.2495 -0.6432 -0.0620
  707MOL0     H95435   0.539  10.182   2.730  4.2628 -0.1258  1.5329
  707MOL0     H95436   0.564  10.130   2.558  1.2157 -4.2664 -1.0557
  707MOL0     H95437   0.703   9.953   2.623 -0.3322 -1.2993  0.8057
  707MOL0     H95438   0.700   9.982   2.787  3.8171 -1.6362 -0.8827
  707MOL0     H95439   0.855  10.140   2.587  0.0077  0.9433 -1.1879
  707MOL0     H95440   0.767  10.246   2.692  2.3640  0.7157 -0.6508
  707MOL0     H95441   1.026  10.105   2.987  1.5003  5.7098  0.7235
  707MOL0     H95442   0.590   9.921   2.955  0.5465  0.8482 -1.4658
  707MOL0     H95443   0.609   9.654   3.206  1.2712 -2.6535 -1.6046
  707MOL0     H95444   0.718   9.718   3.083 -0.7279 -0.3499 -0.2722
  707MOL0     H95445   0.623   9.831   3.176  4.5961 -1.6677  3.4986
  708MOL0     O95446   0.320   1.511  10.506  0.1515 -1.1155  0.7243
  708MOL0     C95447   0.280   1.629  10.509 -0.2874  0.6343 -0.0982
  708MOL0     O95448   0.289   1.709  10.619  0.5499  0.3052 -0.1058
  708MOL0     C95449   0.401   1.702  10.695 -0.0064  1.0743 -0.2145
  708MOL0     C95450   0.388   1.750  10.827 -0.5516  0.0783  0.3637
  708MOL0     C95451   0.507   1.757  10.910 -0.0603  0.5856  0.3835
  708MOL0     C95452   0.638   1.706  10.869 -0.0177 -0.1343  0.4296
  708MOL0     O95453   0.760   1.709  10.934 -0.8497  0.8331 -0.4055
  708MOL0     C95454   0.774   1.783  11.059  0.1172  0.0798  0.3671
  708MOL0     C95455   0.770   1.935  11.040 -0.4592 -0.1625 -0.2738
  708MOL0     C95456   0.758   2.013  11.174 -0.1506  0.3126  0.7373
  708MOL0     C95457   0.799   2.163  11.153  0.5448  0.5867  0.2945
  708MOL0     C95458   0.760   2.239  11.278 -0.1483 -0.1464  0.1914
  708MOL0     C95459   0.790   2.386  11.268 -1.0555 -0.0902  0.0777
  708MOL0     C95460   0.950   2.438  11.268 -0.6011 -1.0455 -0.5021
  708MOL0     C95461   0.993   2.473  11.126 -0.0478 -0.7890  0.4620
  708MOL0     N95462   1.040   2.362  11.050 -0.2661 -0.6615  0.8738
  708MOL0     C95463   1.135   2.268  11.077  0.0538 -0.9930 -0.9150
  708MOL0     C95464   1.138   2.189  10.967 -0.5324  0.0613  0.1743
  708MOL0     C95465   1.227   2.075  10.941 -0.1636  0.2311 -0.4363
  708MOL0     C95466   1.230   2.006  11.081  0.2857 -0.1694  0.8813
  708MOL0     C95467   1.291   1.864  11.093  0.8818 -0.3090  0.7260
  708MOL0     C95468   1.254   1.766  10.975  0.8821  0.5330 -0.4368
  708MOL0     O95469   1.253   1.622  10.993 -0.0290  0.1443 -0.1380
  708MOL0     C95470   1.369   1.545  10.989  0.3666  1.0013 -0.0217
  708MOL0     C95471   1.360   1.411  10.945 -0.0653 -0.6298  0.1522
  708MOL0     C95472   1.473   1.322  10.964  0.8695 -0.1844  0.1738
  708MOL0     C95473   1.600   1.367  10.994 -0.0906  0.0278 -0.2601
  708MOL0     C95474   1.711   1.271  11.000  0.0611  0.1505  0.5082
  708MOL0     O95475   1.684   1.136  11.015  0.0515 -0.1734  0.2353
  708MOL0     C95476   1.789   1.054  11.013 -0.3017 -0.4490  0.1582
  708MOL0     C95477   1.851   1.022  10.894  0.3680 -0.5049  0.9303
  708MOL0     C95478   1.956   0.933  10.896  0.1982 -0.1749  0.0272
  708MOL0     C95479   1.994   0.868  11.015 -0.2871 -1.4899 -0.1484
  708MOL0     O95480   2.098   0.778  11.020  0.4652 -0.3597  0.1625
  708MOL0     C95481   2.219   0.835  11.065 -0.1769 -0.0206  0.4580
  708MOL0     C95482   2.308   0.720  11.085 -0.5028  0.4571  1.5861
  708MOL0     C95483   2.451   0.768  11.127  0.6344 -0.2799  0.2394
  708MOL0     C95484   2.531   0.654  11.190  0.0848  1.0899  0.3773
  708MOL0     C95485   2.574   0.683  11.338 -0.0747 -0.7185  0.5123
  708MOL0     C95486   2.465   0.707  11.447  0.5658  0.2067 -0.2274
  708MOL0     C95487   2.528   0.719  11.585  0.1504  0.3733  0.2017
  708MOL0     C95488   2.427   0.696  11.701  0.3772  0.0022  0.7254
  708MOL0    Cl95489   2.306   0.816  11.698  0.1599  0.2786 -0.1843
  708MOL0     C95490   1.927   0.896  11.140  0.0255  0.3620  0.9069
  708MOL0     C95491   1.828   0.995  11.142 -0.0661 -0.1672  0.0825
  708MOL0     O95492   1.818   1.318  10.980 -0.3699  0.0351  0.0114
  708MOL0     C95493   1.609   1.506  11.030  0.0773 -0.2411 -0.1234
  708MOL0     C95494   1.493   1.589  11.031 -1.5622 -0.0323  1.6904
  708MOL0     N95495   1.028   2.226  10.882  0.3990 -0.0410 -0.4490
  708MOL0     N95496   0.977   2.333  10.940  0.4747  0.3806  0.8669
  708MOL0     C95497   0.639   1.660  10.736 -0.0759 -0.3986 -0.0626
  708MOL0     C95498   0.529   1.666  10.649  0.7153  1.2027  0.2867
  708MOL0     C95499   0.187   1.672  10.398  1.0489  0.0455 -0.1716
  708MOL0     C95500   0.069   1.752  10.419 -0.1754 -0.2012  0.1468
  708MOL0     C95501   0.009   1.828  10.319 -0.1289  0.4319  0.4649
  708MOL0     C95502   0.051   1.800  10.185  0.0799  0.1249 -0.3306
  708MOL0     O95503  -0.007   1.866  10.080  0.6626 -0.3032 -0.5631
  708MOL0     C95504   0.020   2.005  10.085 -0.7603  0.2487 -0.4258
  708MOL0     C95505  -0.036   2.080   9.965  0.0721 -0.3466 -0.1907
  708MOL0     C95506  -0.187   2.044   9.937 -0.8319 -0.6815  0.7006
  708MOL0     C95507  -0.254   2.151   9.836  0.0241  0.3838 -0.8147
  708MOL0     C95508  -0.188   2.152   9.704  0.7712 -0.6771  0.4268
  708MOL0     C95509  -0.114   2.142   9.604 -0.3160 -0.0459 -0.7200
  708MOL0     C95510   0.157   1.709  10.155 -0.6614 -0.0543 -0.6676
  708MOL0     C95511   0.230   1.654  10.263 -0.2001 -0.2664 -0.0732
  708MOL0     C95512   0.354   1.580  10.212  0.9854  0.3703 -0.0284
  708MOL0     H95513   0.294   1.794  10.859 -0.9075 -0.1221 -0.3989
  708MOL0     H95514   0.499   1.801  11.009  1.2428 -0.8186  1.1735
  708MOL0     H95515   0.684   1.753  11.115  0.8859 -2.7653  0.2373
  708MOL0     H95516   0.853   1.742  11.121 -0.8592 -0.1248  1.5176
  708MOL0     H95517   0.676   1.950  10.985 -1.5204 -1.1399  1.1998
  708MOL0     H95518   0.851   1.972  10.977 -1.5920 -1.1391 -2.4149
  708MOL0     H95519   0.816   1.969  11.256 -1.4476 -3.1806 -0.0346
  708MOL0     H95520   0.655   2.021  11.208 -0.7862 -1.5852 -0.5994
  708MOL0     H95521   0.907   2.173  11.140  0.6901 -1.3553 -0.2711
  708MOL0     H95522   0.753   2.201  11.061 -0.1439  1.7845  1.1036
  708MOL0     H95523   0.652   2.227  11.290 -0.5181  2.9489  0.6468
  708MOL0     H95524   0.820   2.197  11.359 -0.2475  0.4401  0.5772
  708MOL0     H95525   0.737   2.420  11.179  0.6324 -3.2667 -2.3797
  708MOL0     H95526   0.741   2.440  11.349  2.5886 -0.4623  2.8111
  708MOL0     H95527   1.009   2.364  11.322 -0.7955  0.2355  1.5634
  708MOL0     H95528   0.959   2.531  11.324 -2.2510 -1.6100  0.7546
  708MOL0     H95529   0.910   2.528  11.081  0.5399  2.1926  2.7470
  708MOL0     H95530   1.066   2.552  11.146 -0.4015 -0.0934 -0.8904
  708MOL0     H95531   1.207   2.275  11.158  0.9948  0.1770 -1.8105
  708MOL0     H95532   1.184   2.010  10.865 -1.1622 -2.1574  2.0220
  708MOL0     H95533   1.329   2.102  10.910 -0.7459  1.0455 -1.7315
  708MOL0     H95534   1.273   2.072  11.157 -1.8587  1.1686  1.0368
  708MOL0     H95535   1.125   1.997  11.113  0.2962  1.3695  1.4641
  708MOL0     H95536   1.248   1.821  11.184 -0.2970  0.3853  0.5189
  708MOL0     H95537   1.399   1.875  11.106  0.8686  4.4213 -1.3364
  708MOL0     H95538   1.323   1.797  10.897  0.2192  0.4239 -1.0835
  708MOL0     H95539   1.156   1.794  10.934  0.4011 -0.1612  0.2198
  708MOL0     H95540   1.267   1.363  10.917  0.3338  0.1757 -2.9172
  708MOL0     H95541   1.461   1.217  10.939  0.9589 -0.6484  1.9285
  708MOL0     H95542   1.818   1.078  10.807 -0.6398  2.4761  3.0877
  708MOL0     H95543   2.010   0.913  10.805  1.7121 -0.7057  1.0093
  708MOL0     H95544   2.246   0.910  10.991 -5.0347  1.0536 -0.5526
  708MOL0     H95545   2.203   0.889  11.159 -0.0435  0.3929  0.2444
  708MOL0     H95546   2.270   0.660  11.168 -1.2189  0.4947  1.2908
  708MOL0     H95547   2.324   0.668  10.990  0.3904  1.4812  1.1639
  708MOL0     H95548   2.493   0.805  11.033 -1.8564  1.8687 -0.1426
  708MOL0     H95549   2.448   0.858  11.189  1.4391 -1.2830  1.7902
  708MOL0     H95550   2.613   0.639  11.119 -0.8289  1.5562 -0.8078
  708MOL0     H95551   2.479   0.559  11.176  2.2535  0.2039 -2.4762
  708MOL0     H95552   2.630   0.777  11.327 -1.8075  0.3434  0.3806
  708MOL0     H95553   2.650   0.613  11.375  2.9185  1.8576 -0.2299
  708MOL0     H95554   2.412   0.802  11.439  1.7635  0.8803 -0.3615
  708MOL0     H95555   2.383   0.634  11.450  0.7910 -0.0166  0.7030
  708MOL0     H95556   2.586   0.812  11.590  1.5659 -0.5509  1.6041
  708MOL0     H95557   2.603   0.644  11.609  2.1260  2.2414  0.2309
  708MOL0     H95558   2.379   0.597  11.701  3.1173 -1.4273  0.5404
  708MOL0     H95559   2.481   0.695  11.796  1.3930 -0.7455  0.1556
  708MOL0     H95560   1.972   0.847  11.225  2.1073 -1.4876 -1.1113
  708MOL0     H95561   1.779   1.017  11.236  0.0761  0.6990 -0.0334
  708MOL0     H95562   1.707   1.549  11.049  1.1712 -1.6881 -2.1078
  708MOL0     H95563   1.505   1.696  11.046 -0.3593  0.3056 -1.1539
  708MOL0     H95564   0.727   1.625  10.684 -1.5972  0.0138 -3.1475
  708MOL0     H95565   0.544   1.645  10.543  1.0136  0.7770  0.4085
  708MOL0     H95566   0.008   1.754  10.509 -1.9614 -0.1759 -1.0072
  708MOL0     H95567  -0.085   1.879  10.336 -0.2479  0.5778 -0.5510
  708MOL0     H95568   0.126   2.032  10.084 -0.6696 -0.1201 -1.2523
  708MOL0     H95569  -0.013   2.053  10.178  0.2684 -0.2075  0.1922
  708MOL0     H95570   0.030   2.072   9.877  0.4017  0.7408 -0.0603
  708MOL0     H95571  -0.023   2.183   9.999  0.7999 -0.4278 -0.2067
  708MOL0     H95572  -0.239   2.040  10.034 -0.2707  1.1045  1.1101
  708MOL0     H95573  -0.195   1.946   9.889  2.6061 -0.0633 -1.4185
  708MOL0     H95574  -0.356   2.119   9.819  0.4885 -1.9496  0.4119
  708MOL0     H95575  -0.255   2.255   9.872 -0.8254  0.8948 -2.2499
  708MOL0     H95576  -0.054   2.138   9.515 -1.7107  0.1544 -1.7055
  708MOL0     H95577   0.199   1.694  10.056 -0.5091  1.5310 -0.8629
  708MOL0     H95578   0.404   1.643  10.138 -0.9874  0.9099 -0.9583
  708MOL0     H95579   0.431   1.559  10.287  0.1319 -0.6408  0.6043
  708MOL0     H95580   0.316   1.496  10.154  1.3310  0.8007 -0.8821
  709MOL0     O95581   3.093   7.882   1.403 -0.9371  0.4754 -0.4377
  709MOL0     C95582   3.014   7.974   1.385 -0.6627  0.8028  0.5055
  709MOL0     O95583   2.903   7.997   1.455 -0.3053 -0.2795 -0.0669
  709MOL0     C95584   2.878   7.914   1.563 -0.2058  0.2138  0.0140
  709MOL0     C95585   2.967   7.904   1.676 -0.3484 -0.9831 -0.2605
  709MOL0     C95586   2.945   7.826   1.784  0.8045 -0.0835 -0.4245
  709MOL0     C95587   2.824   7.753   1.796  1.0987 -0.1839  1.1392
  709MOL0     O95588   2.812   7.667   1.898  0.6405 -0.0061 -0.3878
  709MOL0     C95589   2.687   7.606   1.936  0.6739 -0.1442  0.4321
  709MOL0     C95590   2.703   7.528   2.067 -0.2038  0.9011 -0.8058
  709MOL0     C95591   2.574   7.454   2.129 -0.5175  0.5228  0.8466
  709MOL0     C95592   2.504   7.549   2.234 -0.3990 -0.9574 -0.9872
  709MOL0     C95593   2.392   7.484   2.299  1.2567 -0.3201  0.2978
  709MOL0     C95594   2.417   7.370   2.398  0.7301  0.5474  0.2655
  709MOL0     C95595   2.414   7.410   2.540  0.5381 -0.6789 -0.7161
  709MOL0     C95596   2.398   7.286   2.615 -0.3852  0.6260 -0.5039
  709MOL0     N95597   2.528   7.236   2.666 -0.5430  0.8878  0.0854
  709MOL0     C95598   2.587   7.286   2.777  0.3121  0.4873 -0.2405
  709MOL0     C95599   2.693   7.210   2.804  0.1956  0.4257  0.7900
  709MOL0     C95600   2.778   7.226   2.925 -0.9464 -1.4248 -0.0140
  709MOL0     C95601   2.888   7.335   2.899 -0.0416 -0.3583  0.1230
  709MOL0     C95602   2.855   7.487   2.915  0.0163  0.1412 -0.9768
  709MOL0     C95603   2.849   7.521   3.066 -0.1910  0.4651  0.4376
  709MOL0     O95604   2.728   7.480   3.128 -0.3589  0.0712 -0.2066
  709MOL0     C95605   2.734   7.475   3.269  0.9051  0.1920  0.0724
  709MOL0     C95606   2.664   7.573   3.340  0.3355  0.7180  0.1330
  709MOL0     C95607   2.673   7.564   3.478  1.2746 -0.3997 -0.2233
  709MOL0     C95608   2.744   7.469   3.543 -0.0592 -0.4279 -0.5920
  709MOL0     C95609   2.722   7.455   3.682 -0.2842  0.1445  1.0381
  709MOL0     O95610   2.663   7.565   3.751  0.0401  0.8488  0.5588
  709MOL0     C95611   2.674   7.574   3.885 -0.9382  0.0960  0.0747
  709MOL0     C95612   2.799   7.558   3.955 -0.2486 -0.9526  0.0941
  709MOL0     C95613   2.808   7.575   4.101 -0.0511 -0.1659 -0.3585
  709MOL0     C95614   2.688   7.593   4.167  0.0907 -1.0598 -1.1931
  709MOL0     O95615   2.686   7.593   4.309  0.5744  0.0081 -0.0521
  709MOL0     C95616   2.550   7.604   4.379 -0.0572  0.4111  0.4888
  709MOL0     C95617   2.484   7.469   4.374 -0.3467 -0.3805 -1.2650
  709MOL0     C95618   2.561   7.376   4.459 -0.5910  0.0567 -1.3296
  709MOL0     C95619   2.494   7.239   4.509  0.0476  0.1004 -0.1006
  709MOL0     C95620   2.594   7.163   4.596 -0.2317 -0.5392 -0.4948
  709MOL0     C95621   2.574   7.018   4.622 -0.7781 -0.7243 -0.3927
  709MOL0     C95622   2.618   6.956   4.756  0.3696  0.3205  0.0580
  709MOL0     C95623   2.759   6.992   4.812 -0.1891  0.6291 -0.2612
  709MOL0    Cl95624   2.784   7.152   4.874  0.0850 -0.6206 -0.3534
  709MOL0     C95625   2.570   7.604   4.096  0.0756 -0.2844 -0.3491
  709MOL0     C95626   2.566   7.596   3.959 -0.5104 -0.1693 -0.3394
  709MOL0     O95627   2.765   7.356   3.732 -0.4075  0.3263 -0.6808
  709MOL0     C95628   2.829   7.383   3.468  0.2522  0.0798 -0.0083
  709MOL0     C95629   2.820   7.389   3.330  0.1556  1.1309  0.4313
  709MOL0     N95630   2.694   7.104   2.704 -0.1840 -0.2508  0.1303
  709MOL0     N95631   2.594   7.123   2.618  0.1123  1.0608 -0.8617
  709MOL0     C95632   2.732   7.751   1.683 -0.3562 -1.2947  0.4665
  709MOL0     C95633   2.764   7.836   1.569  0.1679  0.0726  0.2118
  709MOL0     C95634   3.035   8.072   1.280  0.1756  0.3591  0.0603
  709MOL0     C95635   2.922   8.157   1.251 -0.0242  0.7722  1.1738
  709MOL0     C95636   2.935   8.263   1.161  0.5477 -0.0739  0.1517
  709MOL0     C95637   3.060   8.268   1.081  0.2010 -0.5170 -0.6719
  709MOL0     O95638   3.061   8.361   0.980 -0.0152  0.2731 -0.4878
  709MOL0     C95639   2.980   8.338   0.867  0.8155  0.8026  0.4185
  709MOL0     C95640   2.962   8.480   0.813 -0.4100  0.4200  0.0087
  709MOL0     C95641   2.933   8.481   0.665  0.5711  0.2897  0.0928
  709MOL0     C95642   2.969   8.623   0.605  0.8378 -0.1139 -0.6768
  709MOL0     C95643   2.952   8.626   0.467 -0.7918 -0.1837  0.7298
  709MOL0     C95644   2.926   8.636   0.350 -0.1836  0.0559 -0.0901
  709MOL0     C95645   3.162   8.184   1.111 -0.1973  0.1583 -0.9094
  709MOL0     C95646   3.157   8.080   1.203  0.1264 -0.6014  1.0690
  709MOL0     C95647   3.277   8.001   1.225 -0.0666 -0.5512  1.2028
  709MOL0     H95648   3.055   7.969   1.676 -0.9801 -0.1078 -0.4351
  709MOL0     H95649   3.017   7.801   1.861  0.1226 -2.5109 -0.4969
  709MOL0     H95650   2.612   7.680   1.969 -1.1591 -1.5743 -0.3667
  709MOL0     H95651   2.637   7.550   1.857 -1.5695 -0.0424  1.6845
  709MOL0     H95652   2.734   7.595   2.148 -2.4703 -1.4289  2.2688
  709MOL0     H95653   2.783   7.454   2.058 -0.1392  0.9970 -1.0130
  709MOL0     H95654   2.616   7.363   2.172 -1.5650 -0.4307 -0.1059
  709MOL0     H95655   2.501   7.425   2.053 -2.8316  2.2917  2.2620
  709MOL0     H95656   2.577   7.592   2.304 -2.0273 -0.7426  0.6331
  709MOL0     H95657   2.462   7.632   2.176 -1.6970 -2.4274 -2.2402
  709MOL0     H95658   2.341   7.562   2.355  0.1207 -0.6915 -0.1699
  709MOL0     H95659   2.322   7.462   2.218 -0.8181  1.8660  1.3776
  709MOL0     H95660   2.339   7.299   2.371  1.6900  0.7970 -3.6574
  709MOL0     H95661   2.517   7.331   2.379 -0.3804 -1.7171 -1.3551
  709MOL0     H95662   2.322   7.468   2.554 -0.0729 -2.0490  1.6259
  709MOL0     H95663   2.502   7.471   2.562 -0.1967  0.4964 -0.9411
  709MOL0     H95664   2.338   7.302   2.705  0.2946  2.7486 -0.3649
  709MOL0     H95665   2.359   7.204   2.554  0.6247  0.9111 -1.5592
  709MOL0     H95666   2.549   7.375   2.825  1.5659  0.9412 -0.0375
  709MOL0     H95667   2.714   7.240   3.013  1.3280  0.2590  1.4754
  709MOL0     H95668   2.829   7.133   2.950 -3.0906 -2.3336  1.3725
  709MOL0     H95669   2.974   7.308   2.962  0.7260 -1.7143 -1.4394
  709MOL0     H95670   2.923   7.324   2.796 -2.2260  3.4800 -1.2492
  709MOL0     H95671   2.755   7.506   2.874 -1.3776 -0.1522  2.0354
  709MOL0     H95672   2.921   7.552   2.856  0.6472  1.9828  1.5910
  709MOL0     H95673   2.846   7.631   3.070 -0.3143  0.4324  1.4450
  709MOL0     H95674   2.935   7.486   3.123 -1.7370 -2.0837  1.3903
  709MOL0     H95675   2.609   7.639   3.275  0.5247 -0.1958 -0.9868
  709MOL0     H95676   2.628   7.646   3.535 -2.2990 -1.8319 -0.7621
  709MOL0     H95677   2.883   7.532   3.891 -0.1015 -2.2192  0.7700
  709MOL0     H95678   2.908   7.561   4.141 -0.3097 -0.6382  0.1324
  709MOL0     H95679   2.576   7.643   4.478  5.0072 -0.0081 -0.3753
  709MOL0     H95680   2.493   7.677   4.322 -0.6974 -1.0628 -0.8380
  709MOL0     H95681   2.383   7.476   4.418  1.3170  1.8720  2.7790
  709MOL0     H95682   2.492   7.424   4.275  4.7539  0.2978 -1.4162
  709MOL0     H95683   2.651   7.346   4.405 -1.3087 -2.8315 -1.1005
  709MOL0     H95684   2.594   7.433   4.546 -0.5334  1.6858 -2.3757
  709MOL0     H95685   2.466   7.180   4.421 -0.2655  2.1767 -1.4770
  709MOL0     H95686   2.405   7.274   4.562  1.4290  2.7540  0.6596
  709MOL0     H95687   2.589   7.221   4.688 -2.8741 -1.0203 -0.2568
  709MOL0     H95688   2.693   7.172   4.551  0.2692  1.9215  0.9476
  709MOL0     H95689   2.468   6.997   4.604 -1.6199  1.5156  1.4452
  709MOL0     H95690   2.641   6.982   4.543  3.5982  1.7200  1.8575
  709MOL0     H95691   2.611   6.851   4.726 -1.5613  0.8036 -1.4066
  709MOL0     H95692   2.528   6.974   4.816 -2.0861 -1.8260 -2.7235
  709MOL0     H95693   2.770   6.919   4.893 -0.4752  0.6597 -0.1937
  709MOL0     H95694   2.825   6.962   4.730  0.3886  2.7987 -0.6462
  709MOL0     H95695   2.474   7.611   4.146  0.1967 -2.2504  0.2297
  709MOL0     H95696   2.470   7.630   3.921 -0.9560  1.9481  2.3932
  709MOL0     H95697   2.892   7.309   3.516  1.3905 -0.9656 -2.9169
  709MOL0     H95698   2.870   7.317   3.267  0.8516 -0.2998  2.4887
  709MOL0     H95699   2.647   7.683   1.675 -2.9320  1.8083 -0.6656
  709MOL0     H95700   2.705   7.821   1.480  1.2030 -2.1425 -0.1769
  709MOL0     H95701   2.837   8.171   1.318  1.5388 -0.3668  3.5387
  709MOL0     H95702   2.852   8.333   1.156  0.4796 -0.2491 -1.4969
  709MOL0     H95703   2.886   8.285   0.885  0.8826 -0.2467 -1.9154
  709MOL0     H95704   3.042   8.278   0.799  0.0541  1.6166 -1.0092
  709MOL0     H95705   3.052   8.539   0.829 -0.4682  1.2285 -2.2168
  709MOL0     H95706   2.880   8.531   0.864  0.3577 -0.9672  2.8155
  709MOL0     H95707   2.829   8.452   0.647  1.3891 -4.2653  1.4629
  709MOL0     H95708   2.984   8.397   0.617 -0.4640  0.3187 -1.0981
  709MOL0     H95709   2.908   8.708   0.636  0.0381 -0.6714 -0.6927
  709MOL0     H95710   3.076   8.636   0.624  1.0592 -3.1654  0.7418
  709MOL0     H95711   2.916   8.654   0.245 -5.3816  0.4118  0.2232
  709MOL0     H95712   3.254   8.219   1.065  0.0977  0.8085  0.1411
  709MOL0     H95713   3.319   8.024   1.323  2.3841 -0.4993  0.2120
  709MOL0     H95714   3.260   7.893   1.223  0.3871 -0.6182  0.2578
  709MOL0     H95715   3.357   8.016   1.152  0.3685  0.1169  1.8072
  710MOL0     O95716   2.766   5.604   5.017 -0.6750  0.9947  0.5150
  710MOL0     C95717   2.771   5.495   4.959 -0.9859 -0.6639  0.6867
  710MOL0     O95718   2.666   5.408   4.949  0.0759  0.3270  0.1128
  710MOL0     C95719   2.542   5.446   4.997 -0.8642  0.7742  0.0960
  710MOL0     C95720   2.488   5.574   5.006  0.5198  0.5564 -0.8452
  710MOL0     C95721   2.360   5.585   5.051 -0.4287 -0.5346  0.0316
  710MOL0     C95722   2.274   5.474   5.078  1.0860 -0.3091 -0.1997
  710MOL0     O95723   2.146   5.476   5.129  0.6371 -0.1666  0.2690
  710MOL0     C95724   2.073   5.602   5.111  0.5861  0.6943  0.7115
  710MOL0     C95725   1.922   5.587   5.138  0.1213 -0.3108  0.2128
  710MOL0     C95726   1.895   5.549   5.280 -0.2502 -0.3288 -0.8062
  710MOL0     C95727   1.948   5.657   5.380  0.7411  0.2950  0.0734
  710MOL0     C95728   1.897   5.645   5.526  0.1909 -0.0005  0.1551
  710MOL0     C95729   1.969   5.527   5.599  0.4617 -0.1745 -0.0994
  710MOL0     C95730   1.924   5.507   5.743 -0.2323 -0.6651  0.6646
  710MOL0     C95731   1.959   5.632   5.828  0.0723  0.9343 -0.6901
  710MOL0     N95732   1.859   5.654   5.927 -0.0088 -0.1209 -0.6534
  710MOL0     C95733   1.870   5.630   6.066 -0.2469  0.4524 -0.9235
  710MOL0     C95734   1.757   5.679   6.117  0.3494 -0.4517  0.0378
  710MOL0     C95735   1.717   5.708   6.261  0.3515 -0.1449  1.0920
  710MOL0     C95736   1.777   5.827   6.328 -0.5627  0.6311  0.1691
  710MOL0     C95737   1.730   5.846   6.477 -0.6622  0.0853  0.5035
  710MOL0     C95738   1.579   5.883   6.489  0.1868 -0.4327 -0.7682
  710MOL0     O95739   1.554   5.881   6.630 -1.4626  1.1154 -0.6379
  710MOL0     C95740   1.542   5.764   6.696 -0.3264  0.3823 -0.1996
  710MOL0     C95741   1.541   5.785   6.836 -0.6451  0.2291 -0.7745
  710MOL0     C95742   1.510   5.676   6.913 -0.3808 -0.1258  0.3054
  710MOL0     C95743   1.491   5.546   6.864  0.3253  0.0003  0.0524
  710MOL0     C95744   1.455   5.434   6.957 -0.5076 -0.7642 -0.8625
  710MOL0     O95745   1.446   5.309   6.912 -0.7155  0.0166 -0.4654
  710MOL0     C95746   1.413   5.205   6.996  0.2077  0.1803 -0.3550
  710MOL0     C95747   1.448   5.085   6.939  0.1511  1.0305  0.1535
  710MOL0     C95748   1.416   4.960   7.004 -0.7678  0.1848  0.3988
  710MOL0     C95749   1.354   4.953   7.130  0.1331 -0.0924 -0.4747
  710MOL0     O95750   1.340   4.821   7.176 -0.1520 -0.2631 -0.0737
  710MOL0     C95751   1.317   4.801   7.314 -0.0782  0.0832 -0.5743
  710MOL0     C95752   1.449   4.777   7.409  0.2529  0.5473  0.3467
  710MOL0     C95753   1.571   4.700   7.350 -0.2131  0.2318  0.1520
  710MOL0     C95754   1.682   4.659   7.455 -1.0755  0.0313 -0.1982
  710MOL0     C95755   1.783   4.545   7.414 -0.5125 -0.2487  0.3740
  710MOL0     C95756   1.889   4.609   7.328 -0.6474 -0.3218  0.7634
  710MOL0     C95757   2.018   4.518   7.329  0.0488  0.9587 -0.2508
  710MOL0     C95758   2.102   4.514   7.193 -0.4960 -0.5624  0.0856
  710MOL0    Cl95759   2.253   4.417   7.217 -0.3885 -0.8254  0.1867
  710MOL0     C95760   1.320   5.078   7.196  0.6410  0.9717  0.1376
  710MOL0     C95761   1.350   5.197   7.125  0.0845  0.9077  0.0681
  710MOL0     O95762   1.428   5.462   7.069 -0.8647  0.1186  0.5299
  710MOL0     C95763   1.497   5.524   6.726  0.7355  0.4147 -1.1867
  710MOL0     C95764   1.533   5.631   6.650  0.9252  0.9272  0.4541
  710MOL0     N95765   1.672   5.735   6.014 -0.6744  0.8266 -0.2551
  710MOL0     N95766   1.739   5.709   5.904 -1.3560 -0.2535 -0.1397
  710MOL0     C95767   2.328   5.344   5.066 -0.0332  0.3420 -0.3578
  710MOL0     C95768   2.469   5.329   5.030 -0.1369  0.9946 -0.0419
  710MOL0     C95769   2.904   5.451   4.896 -0.7476 -0.5579 -0.0676
  710MOL0     C95770   2.920   5.325   4.845 -0.0033  0.5858  0.2625
  710MOL0     C95771   3.034   5.299   4.773 -0.6053  0.4917 -0.3505
  710MOL0     C95772   3.152   5.381   4.773 -0.2002 -0.1830 -0.0045
  710MOL0     O95773   3.274   5.345   4.713 -0.0636 -0.0298  0.0823
  710MOL0     C95774   3.377   5.318   4.811  0.6167 -0.9795 -0.5071
  710MOL0     C95775   3.351   5.199   4.890  0.4939  1.6285 -0.3555
  710MOL0     C95776   3.465   5.097   4.923  0.2431  0.3407  0.2263
  710MOL0     C95777   3.538   5.149   5.050 -0.1990 -0.0579  0.4466
  710MOL0     C95778   3.611   5.271   5.014 -0.4772  0.3032 -0.4205
  710MOL0     C95779   3.683   5.366   5.014  0.2389  0.5235 -0.1828
  710MOL0     C95780   3.141   5.492   4.853  0.0065 -0.4395 -0.3429
  710MOL0     C95781   3.022   5.532   4.911 -0.0710 -0.7036  0.2046
  710MOL0     C95782   3.032   5.661   4.988 -0.4657  0.0521  0.4005
  710MOL0     H95783   2.535   5.660   4.960  1.9622  1.2565  1.7393
  710MOL0     H95784   2.321   5.686   5.062  1.4521  0.4561 -1.8407
  710MOL0     H95785   2.117   5.673   5.181  1.1979 -0.4781  1.5543
  710MOL0     H95786   2.104   5.635   5.011  0.7640 -0.3166  0.4125
  710MOL0     H95787   1.882   5.510   5.072  0.8147 -0.8539  0.4234
  710MOL0     H95788   1.862   5.676   5.113  2.3778  0.8333 -1.4905
  710MOL0     H95789   1.944   5.452   5.293 -3.5587 -2.0725 -0.1400
  710MOL0     H95790   1.791   5.515   5.293  0.5400 -2.6894  0.0324
  710MOL0     H95791   2.056   5.670   5.377  0.6470  1.4189 -3.3295
  710MOL0     H95792   1.909   5.754   5.348 -0.3241  0.4820  1.8185
  710MOL0     H95793   1.913   5.741   5.576  0.3808  0.0303  0.0353
  710MOL0     H95794   1.789   5.629   5.536  0.3177 -0.7890  0.3973
  710MOL0     H95795   1.968   5.440   5.532  0.3236 -0.1267 -0.1579
  710MOL0     H95796   2.072   5.565   5.600  0.2267  0.5001 -0.8179
  710MOL0     H95797   1.990   5.429   5.781  3.4135  1.9102  0.0881
  710MOL0     H95798   1.821   5.470   5.741 -0.3940 -0.2058 -0.1661
  710MOL0     H95799   2.056   5.607   5.871 -1.0685 -1.5677  0.7020
  710MOL0     H95800   1.963   5.722   5.766  1.5142  1.0685 -0.4200
  710MOL0     H95801   1.959   5.597   6.119  0.4455 -0.6325 -2.6830
  710MOL0     H95802   1.610   5.729   6.259 -0.0512 -2.0704 -0.3784
  710MOL0     H95803   1.725   5.620   6.325 -1.5762  0.0158  1.6264
  710MOL0     H95804   1.883   5.803   6.321 -1.2597 -3.0471  0.0912
  710MOL0     H95805   1.752   5.911   6.263  2.1314  0.2870 -1.4507
  710MOL0     H95806   1.794   5.921   6.525  2.8649 -1.5069 -1.2868
  710MOL0     H95807   1.750   5.749   6.524  1.0347 -0.6078 -1.4649
  710MOL0     H95808   1.532   5.804   6.429  2.2255 -3.0248  0.8288
  710MOL0     H95809   1.555   5.980   6.446  0.0131  0.1776  0.6528
  710MOL0     H95810   1.548   5.872   6.900 -5.1065  0.0640  0.3228
  710MOL0     H95811   1.509   5.685   7.021  0.9344 -2.3713  0.5588
  710MOL0     H95812   1.512   5.087   6.852  0.1569  2.0796  0.1667
  710MOL0     H95813   1.464   4.875   6.957  4.3719  2.9749 -0.1956
  710MOL0     H95814   1.256   4.875   7.366 -1.0319 -2.0579  1.5373
  710MOL0     H95815   1.278   4.699   7.321  1.3591 -0.5477 -1.2906
  710MOL0     H95816   1.481   4.873   7.449 -0.7497  2.2951 -2.7234
  710MOL0     H95817   1.413   4.725   7.498 -2.7863 -1.7719 -2.0119
  710MOL0     H95818   1.529   4.612   7.300 -2.2628  1.6040 -0.6754
  710MOL0     H95819   1.607   4.749   7.259 -2.6869 -0.7110 -1.4230
  710MOL0     H95820   1.629   4.631   7.547 -2.3802  1.3537 -0.4989
  710MOL0     H95821   1.730   4.754   7.479  1.8303 -0.8095 -2.1683
  710MOL0     H95822   1.723   4.465   7.370  2.4086 -0.6019 -3.4806
  710MOL0     H95823   1.832   4.507   7.504  1.5002  1.2370 -0.0178
  710MOL0     H95824   1.857   4.616   7.223 -1.0603  1.1983  0.9645
  710MOL0     H95825   1.909   4.712   7.358 -3.1313  1.5081 -2.9734
  710MOL0     H95826   1.991   4.412   7.334  3.2515  0.0134 -0.9235
  710MOL0     H95827   2.087   4.537   7.411  0.7571  2.1246 -1.0943
  710MOL0     H95828   2.044   4.475   7.108 -1.4940 -1.0286  0.9497
  710MOL0     H95829   2.136   4.617   7.176 -0.7491 -0.4994 -0.0466
  710MOL0     H95830   1.263   5.092   7.288 -1.9283  0.5055 -1.2759
  710MOL0     H95831   1.316   5.289   7.171 -2.0206  0.3121 -0.1996
  710MOL0     H95832   1.479   5.425   6.685  0.2692 -1.1164  2.4185
  710MOL0     H95833   1.549   5.619   6.543 -1.8261  2.5184 -0.2379
  710MOL0     H95834   2.256   5.269   5.096 -0.1867  0.0688 -1.3682
  710MOL0     H95835   2.507   5.227   5.023  1.6336  1.4308  2.0134
  710MOL0     H95836   2.848   5.244   4.839  1.2354 -0.4759 -0.7742
  710MOL0     H95837   3.049   5.209   4.715  3.0885  1.1240 -0.6307
  710MOL0     H95838   3.385   5.400   4.883 -2.2581  0.8748 -2.1072
  710MOL0     H95839   3.471   5.308   4.756  0.7890  1.1434 -0.7090
  710MOL0     H95840   3.276   5.136   4.842 -1.1496  0.6640  3.1716
  710MOL0     H95841   3.312   5.221   4.990  1.6750  0.5560  0.3762
  710MOL0     H95842   3.540   5.087   4.844 -0.1752  2.0928 -0.4305
  710MOL0     H95843   3.424   4.999   4.950 -1.7528  1.5779  2.0402
  710MOL0     H95844   3.478   5.158   5.141  0.7841  3.2285  0.8620
  710MOL0     H95845   3.607   5.073   5.089  0.3721 -2.2055 -4.0677
  710MOL0     H95846   3.744   5.453   5.001 -2.0915  2.0449 -1.5084
  710MOL0     H95847   3.226   5.560   4.858 -0.8577  0.6070  0.5957
  710MOL0     H95848   2.990   5.746   4.933 -0.5569  1.8208  3.0387
  710MOL0     H95849   2.980   5.658   5.084  0.6804  1.9487  1.1343
  710MOL0     H95850   3.134   5.696   5.002  0.4088 -1.7125 -1.1440
  711MOL0     O95851  11.142   7.093   7.645 -0.2276  0.8450 -0.4497
  711MOL0     C95852  11.233   7.166   7.634 -0.3949  0.1161  0.3109
  711MOL0     O95853  11.314   7.209   7.731  0.2490 -0.4345  0.6003
  711MOL0     C95854  11.283   7.194   7.862  0.0959  0.0524 -1.7860
  711MOL0     C95855  11.158   7.238   7.918  0.4462  0.2287 -0.7526
  711MOL0     C95856  11.147   7.246   8.056  1.1114  1.1766  0.5739
  711MOL0     C95857  11.242   7.206   8.145  0.3755 -0.0092 -0.0412
  711MOL0     O95858  11.222   7.240   8.282 -0.4115  0.5957  0.9280
  711MOL0     C95859  11.285   7.150   8.374 -0.6128  0.0736 -0.3443
  711MOL0     C95860  11.226   7.183   8.510 -1.0381 -0.4983  0.1867
  711MOL0     C95861  11.334   7.154   8.621  0.0490  0.4622  0.5801
  711MOL0     C95862  11.342   7.002   8.639  1.0258 -0.1451 -0.0895
  711MOL0     C95863  11.396   6.938   8.766 -0.1169 -0.3026  0.2982
  711MOL0     C95864  11.505   7.022   8.826 -0.4069 -0.5454 -0.6354
  711MOL0     C95865  11.568   6.941   8.949  0.4599 -0.2937 -0.1751
  711MOL0     C95866  11.467   6.908   9.056  0.5440 -0.2265 -0.3467
  711MOL0     N95867  11.419   7.036   9.130 -0.1705  0.3776  0.2023
  711MOL0     C95868  11.287   7.085   9.144  0.6571 -0.1838 -0.0030
  711MOL0     C95869  11.303   7.190   9.221 -0.5951 -0.9092  0.3371
  711MOL0     C95870  11.193   7.277   9.277  0.2195  0.6072 -0.0495
  711MOL0     C95871  11.256   7.373   9.384 -0.3961  0.4401  0.6070
  711MOL0     C95872  11.280   7.308   9.530 -0.9751 -0.6273  0.2223
  711MOL0     C95873  11.290   7.413   9.636  0.0770 -0.3213  0.4868
  711MOL0     O95874  11.157   7.467   9.672  0.9932 -0.6005  0.7482
  711MOL0     C95875  11.147   7.606   9.692 -0.0390  0.3816 -0.9874
  711MOL0     C95876  11.099   7.645   9.810  0.6975  0.4518 -0.2086
  711MOL0     C95877  11.097   7.780   9.843  1.2927  0.2954 -0.2204
  711MOL0     C95878  11.111   7.876   9.743 -0.1980  0.3958  0.8470
  711MOL0     C95879  11.100   8.025   9.759  0.7078  0.2051  0.3130
  711MOL0     O95880  11.088   8.065   9.890  0.2635  0.5487  0.0341
  711MOL0     C95881  11.071   8.197   9.913 -0.0065 -0.6876  0.5585
  711MOL0     C95882  11.172   8.290   9.907  0.3614 -0.5719  1.2756
  711MOL0     C95883  11.145   8.434   9.926 -1.2978 -0.3793 -0.4529
  711MOL0     C95884  11.028   8.469   9.985 -0.0267 -1.0206  0.6632
  711MOL0     O95885  10.995   8.595  10.021 -0.9331 -0.9257 -0.0279
  711MOL0     C95886  11.074   8.695   9.951 -0.4630  0.5526 -0.6473
  711MOL0     C95887  11.004   8.828   9.969 -0.2604 -0.2596 -1.1558
  711MOL0     C95888  11.014   8.879  10.112  0.8960  0.0103  0.0100
  711MOL0     C95889  10.937   9.019  10.116 -1.0514  0.2778  0.1226
  711MOL0     C95890  10.965   9.086  10.248 -0.4862  0.5110  0.6269
  711MOL0     C95891  10.923   9.233  10.248 -0.1166  0.8645  1.1031
  711MOL0     C95892  10.925   9.293  10.396 -0.4981 -0.3227  0.9937
  711MOL0     C95893  10.889   9.444  10.406  0.3569  0.5284 -0.5579
  711MOL0    Cl95894  10.718   9.464  10.354  0.0276  0.0163  0.0028
  711MOL0     C95895  10.930   8.372  10.006 -0.5023 -0.1224  0.0237
  711MOL0     C95896  10.946   8.235   9.968 -0.1437 -0.4268  0.5798
  711MOL0     O95897  11.084   8.097   9.663 -0.2509  0.1520 -0.3420
  711MOL0     C95898  11.147   7.839   9.613  0.6243 -0.0777 -0.3101
  711MOL0     C95899  11.162   7.698   9.590  0.3149 -0.1705 -0.6136
  711MOL0     N95900  11.440   7.199   9.258 -0.0933  0.1035 -0.2541
  711MOL0     N95901  11.504   7.103   9.206  0.6035  0.0116  0.5760
  711MOL0     C95902  11.365   7.162   8.093  0.2145  0.3988 -1.0634
  711MOL0     C95903  11.388   7.172   7.957  0.3722  0.7670  0.4084
  711MOL0     C95904  11.267   7.222   7.497 -0.2610 -0.3683 -0.6653
  711MOL0     C95905  11.392   7.292   7.481  0.1110 -0.6441  0.6075
  711MOL0     C95906  11.427   7.352   7.362 -1.0823 -0.4212 -0.6767
  711MOL0     C95907  11.351   7.343   7.258 -1.3654 -0.5444 -0.0930
  711MOL0     O95908  11.405   7.416   7.153  0.4268 -0.3635  0.7121
  711MOL0     C95909  11.358   7.384   7.011  0.1658  0.1978  0.3893
  711MOL0     C95910  11.430   7.252   6.967  0.2860  0.8059  0.6403
  711MOL0     C95911  11.578   7.252   6.955 -1.5266  0.3282  0.1061
  711MOL0     C95912  11.633   7.108   6.921  0.5473  0.0825 -0.4527
  711MOL0     C95913  11.763   7.087   6.979 -0.8334  0.8148 -1.0528
  711MOL0     C95914  11.878   7.077   7.015  0.3303 -0.8615 -0.0427
  711MOL0     C95915  11.228   7.273   7.259 -0.1584  0.0335 -1.0405
  711MOL0     C95916  11.180   7.218   7.385  0.1832 -0.8606 -0.1939
  711MOL0     C95917  11.042   7.159   7.395 -0.9662 -0.7351  0.0338
  711MOL0     H95918  11.080   7.264   7.847  1.5727 -0.7301 -2.4289
  711MOL0     H95919  11.059   7.298   8.095  1.5292  1.4279  1.1938
  711MOL0     H95920  11.268   7.043   8.361  0.9073 -0.9936  4.6250
  711MOL0     H95921  11.391   7.176   8.375 -0.4763 -0.3119  2.8040
  711MOL0     H95922  11.135   7.124   8.516  0.6123 -3.3402 -0.9029
  711MOL0     H95923  11.195   7.288   8.515 -1.0862 -0.5091  0.1186
  711MOL0     H95924  11.289   7.201   8.709  0.6608  0.2850  0.9856
  711MOL0     H95925  11.435   7.194   8.609 -0.3404  1.0452 -1.1436
  711MOL0     H95926  11.238   6.968   8.640  0.3158  1.7380 -1.6992
  711MOL0     H95927  11.393   6.954   8.555  1.2770 -2.1211  1.1298
  711MOL0     H95928  11.312   6.920   8.834 -0.3145 -1.8996 -0.3315
  711MOL0     H95929  11.430   6.835   8.754 -3.2607 -1.5268  0.8114
  711MOL0     H95930  11.576   7.043   8.745 -1.8517  0.1824 -1.7733
  711MOL0     H95931  11.466   7.116   8.866  0.0066 -0.7043  0.1494
  711MOL0     H95932  11.644   7.005   8.993 -0.4675  0.6172  0.1487
  711MOL0     H95933  11.625   6.854   8.915  0.6119 -1.3229  2.5407
  711MOL0     H95934  11.379   6.849   9.028  0.1235  0.7318 -1.1168
  711MOL0     H95935  11.517   6.856   9.138  1.9897  0.6540 -0.6447
  711MOL0     H95936  11.197   7.044   9.098  0.5579 -0.0479  0.0692
  711MOL0     H95937  11.167   7.346   9.196 -0.8803 -1.0729 -1.2148
  711MOL0     H95938  11.107   7.223   9.318 -0.1443 -3.6556 -5.2657
  711MOL0     H95939  11.347   7.414   9.339  0.1632 -1.2172  0.1463
  711MOL0     H95940  11.177   7.445   9.407 -3.5131 -1.7907 -2.1935
  711MOL0     H95941  11.379   7.262   9.526 -0.5032  0.2007  1.5354
  711MOL0     H95942  11.203   7.234   9.552  1.5948 -3.4217  0.4648
  711MOL0     H95943  11.361   7.492   9.609  2.5689 -2.2650  0.9322
  711MOL0     H95944  11.324   7.363   9.727 -2.8209  1.3983  2.6861
  711MOL0     H95945  11.088   7.569   9.887 -0.1240 -0.6326 -1.3551
  711MOL0     H95946  11.054   7.818   9.935 -2.1056 -1.9115 -0.7090
  711MOL0     H95947  11.270   8.249   9.888  1.3405  1.8477  0.6532
  711MOL0     H95948  11.235   8.493   9.910 -1.8324 -0.1104 -2.9052
  711MOL0     H95949  11.164   8.714  10.011 -2.6641  2.5939  2.2708
  711MOL0     H95950  11.090   8.673   9.845 -2.6889  0.6733 -1.0448
  711MOL0     H95951  11.043   8.907   9.904  1.0207  0.9479  0.9514
  711MOL0     H95952  10.898   8.813   9.944  0.4507 -1.2005 -3.8877
  711MOL0     H95953  10.963   8.803  10.172 -1.1087 -0.7004 -2.4529
  711MOL0     H95954  11.116   8.887  10.151 -0.1249  1.8078  2.5865
  711MOL0     H95955  10.829   9.019  10.096 -0.9427 -0.4965 -0.5405
  711MOL0     H95956  10.995   9.074  10.041  1.3446  2.8733  3.5608
  711MOL0     H95957  11.073   9.072  10.263 -0.0297 -0.4207 -2.6552
  711MOL0     H95958  10.917   9.028  10.328 -0.7120  0.8208  0.7151
  711MOL0     H95959  10.979   9.301  10.184  0.3485  2.5985  3.2204
  711MOL0     H95960  10.819   9.234  10.214  1.0573  0.5089 -3.0272
  711MOL0     H95961  11.021   9.286  10.449  1.0258  0.5244 -1.4636
  711MOL0     H95962  10.854   9.244  10.463 -2.0939  3.4201  2.2956
  711MOL0     H95963  10.910   9.476  10.509  0.7660  0.5576 -0.6471
  711MOL0     H95964  10.942   9.509  10.337  2.0390 -0.4285 -0.2346
  711MOL0     H95965  10.831   8.389  10.046 -0.6190 -0.3268 -0.1721
  711MOL0     H95966  10.862   8.166   9.966 -0.6403  0.1706  0.1553
  711MOL0     H95967  11.174   7.906   9.532 -2.0088 -1.5241 -2.5495
  711MOL0     H95968  11.188   7.653   9.495 -4.0427 -0.9634 -1.6566
  711MOL0     H95969  11.438   7.123   8.163 -2.3597  0.2833  1.7417
  711MOL0     H95970  11.489   7.148   7.927  0.5183 -0.2669  1.6258
  711MOL0     H95971  11.458   7.318   7.564  1.5659  1.0087 -0.9597
  711MOL0     H95972  11.520   7.408   7.359  0.5628 -2.8992  0.3782
  711MOL0     H95973  11.389   7.461   6.940 -0.4079 -0.4927 -0.6268
  711MOL0     H95974  11.249   7.380   7.005  0.1513 -1.7266  1.1059
  711MOL0     H95975  11.393   7.237   6.865  0.6467  0.9992  0.4788
  711MOL0     H95976  11.388   7.177   7.033 -1.3964  0.0527 -1.1841
  711MOL0     H95977  11.619   7.302   7.044 -0.1512  0.8897 -0.7928
  711MOL0     H95978  11.618   7.313   6.873 -1.2950  1.6007  1.1311
  711MOL0     H95979  11.556   7.031   6.933 -1.4135  1.6752 -2.1151
  711MOL0     H95980  11.641   7.086   6.814 -0.5686 -5.8707  0.3666
  711MOL0     H95981  11.984   7.079   7.029  0.0321 -2.9387  4.4072
  711MOL0     H95982  11.154   7.265   7.179 -3.0487 -0.9386  1.5396
  711MOL0     H95983  11.054   7.051   7.410  0.4333 -0.2219  3.5309
  711MOL0     H95984  10.980   7.189   7.479 -4.3662 -2.0210 -1.8163
  711MOL0     H95985  10.977   7.184   7.310 -1.8450  1.2201  1.2230
  712MOL0     O95986   9.332   5.319   5.535 -0.6713  0.4694 -0.0836
  712MOL0     C95987   9.268   5.295   5.638 -0.5174  0.3626 -0.3594
  712MOL0     O95988   9.329   5.241   5.761 -0.6569 -0.1482  0.9067
  712MOL0     C95989   9.460   5.199   5.744  0.3050 -0.6950  0.2447
  712MOL0     C95990   9.473   5.058   5.757  0.0774  0.1053  0.4797
  712MOL0     C95991   9.608   5.007   5.741 -0.1110  0.7282 -0.0430
  712MOL0     C95992   9.713   5.080   5.680  0.2939  0.4906  0.3060
  712MOL0     O95993   9.821   5.024   5.616  1.0526  0.6858 -0.3112
  712MOL0     C95994   9.874   4.895   5.656 -0.5487 -0.8032  0.4240
  712MOL0     C95995   9.880   4.810   5.529  0.4361  0.7679  0.3841
  712MOL0     C95996   9.924   4.667   5.535  0.2310 -0.3158 -0.1126
  712MOL0     C95997   9.812   4.561   5.546 -0.7520  0.3121 -0.1731
  712MOL0     C95998   9.718   4.600   5.663  0.7170  0.4378 -0.2959
  712MOL0     C95999   9.610   4.492   5.678 -0.2609  0.0246  0.3675
  712MOL0     C96000   9.535   4.515   5.811  0.6287 -0.6092  0.1757
  712MOL0     C96001   9.409   4.432   5.836  0.6839 -0.5338  0.6123
  712MOL0     N96002   9.416   4.287   5.813 -0.4104 -0.0739  0.0375
  712MOL0     C96003   9.439   4.220   5.693 -0.4519 -0.7054  0.0794
  712MOL0     C96004   9.407   4.094   5.723  0.7737 -0.0090 -0.3245
  712MOL0     C96005   9.402   3.977   5.628 -0.1737  0.2087  0.0537
  712MOL0     C96006   9.554   3.927   5.606 -0.5751  0.2510  1.1774
  712MOL0     C96007   9.616   3.868   5.734 -0.3001  0.6426 -0.6934
  712MOL0     C96008   9.552   3.735   5.779  0.5170  0.5652  0.5828
  712MOL0     O96009   9.648   3.695   5.886  0.0885  0.2144  0.3487
  712MOL0     C96010   9.632   3.569   5.916  0.1167  0.3784 -0.3413
  712MOL0     C96011   9.627   3.468   5.821  0.4187  0.6427  0.6130
  712MOL0     C96012   9.611   3.337   5.858 -0.2162  0.1106 -0.1331
  712MOL0     C96013   9.604   3.301   5.993 -0.1759 -0.4353 -0.1705
  712MOL0     C96014   9.587   3.166   6.029  0.8813 -0.2286 -0.3622
  712MOL0     O96015   9.526   3.167   6.156  0.3311  0.3123  0.1784
  712MOL0     C96016   9.470   3.056   6.222 -1.0641  0.0675 -0.1961
  712MOL0     C96017   9.433   3.071   6.355  0.2793 -0.0872  0.4235
  712MOL0     C96018   9.358   2.966   6.409  0.0277  0.7815 -0.4169
  712MOL0     C96019   9.320   2.848   6.338  0.0516 -0.3970 -0.0909
  712MOL0     O96020   9.227   2.771   6.389 -0.0892  0.2107  0.5173
  712MOL0     C96021   9.276   2.639   6.420  0.3294  0.3066 -0.5177
  712MOL0     C96022   9.230   2.540   6.302 -0.1656 -0.7775  0.2561
  712MOL0     C96023   9.339   2.492   6.213 -0.0015 -0.8023 -0.8835
  712MOL0     C96024   9.284   2.421   6.091 -0.0242 -0.3166  0.5730
  712MOL0     C96025   9.383   2.405   5.985 -0.0890  0.6040 -0.0237
  712MOL0     C96026   9.495   2.298   6.021  0.0627 -0.7178 -0.3303
  712MOL0     C96027   9.608   2.281   5.914  0.2340 -0.1201 -0.0438
  712MOL0     C96028   9.726   2.202   5.978 -1.2727 -0.5137 -0.9129
  712MOL0    Cl96029   9.681   2.037   6.033 -0.2065 -0.0544  0.0919
  712MOL0     C96030   9.358   2.842   6.207 -0.5294 -0.4708  0.2223
  712MOL0     C96031   9.434   2.941   6.148 -0.5709  0.4059 -0.1275
  712MOL0     O96032   9.628   3.073   5.965  0.3175 -0.3371  0.2098
  712MOL0     C96033   9.617   3.407   6.092 -0.4820 -0.3258  0.0103
  712MOL0     C96034   9.621   3.541   6.051  0.7256  0.1123  0.1677
  712MOL0     N96035   9.363   4.082   5.852  0.4071  0.2819 -0.8585
  712MOL0     N96036   9.374   4.194   5.911  0.2874  0.1937  0.7430
  712MOL0     C96037   9.684   5.219   5.657  0.2328  0.2248  0.2498
  712MOL0     C96038   9.567   5.282   5.696 -0.0462 -0.6279 -0.1683
  712MOL0     C96039   9.121   5.317   5.633  0.7224  0.6825  0.1597
  712MOL0     C96040   9.068   5.363   5.751 -0.1983  0.1181 -0.9468
  712MOL0     C96041   8.930   5.386   5.780 -0.3893 -0.1199  0.0242
  712MOL0     C96042   8.836   5.363   5.678  0.7589 -1.2455 -0.7188
  712MOL0     O96043   8.698   5.381   5.683 -0.1792 -0.6448 -0.3356
  712MOL0     C96044   8.643   5.406   5.813  0.6057  0.5291 -0.0545
  712MOL0     C96045   8.487   5.395   5.808 -0.5341  0.3269 -0.8603
  712MOL0     C96046   8.422   5.499   5.717 -0.2038  0.1883 -0.5261
  712MOL0     C96047   8.391   5.447   5.573 -0.3447 -0.5327 -1.1743
  712MOL0     C96048   8.368   5.561   5.482  0.1780  0.4221  0.1263
  712MOL0     C96049   8.362   5.649   5.397  0.0193 -0.2958  0.5565
  712MOL0     C96050   8.893   5.324   5.558  0.4342  0.2216 -0.0992
  712MOL0     C96051   9.029   5.310   5.529  0.9548 -0.2090 -0.0278
  712MOL0     C96052   9.057   5.264   5.379 -0.0397 -0.4377 -0.2908
  712MOL0     H96053   9.391   4.990   5.776  0.7149 -0.3455  1.7149
  712MOL0     H96054   9.608   4.899   5.750  2.5435  0.7497  1.0521
  712MOL0     H96055   9.978   4.905   5.690 -0.0269 -4.1069  0.1326
  712MOL0     H96056   9.828   4.838   5.737  1.7777 -2.3464  0.7663
  712MOL0     H96057   9.944   4.864   5.458  2.7315  1.0018  2.4819
  712MOL0     H96058   9.780   4.809   5.486  1.9298 -0.9777 -3.5115
  712MOL0     H96059   9.990   4.652   5.622 -1.7056 -2.3611  1.0853
  712MOL0     H96060   9.980   4.644   5.444 -0.7365 -1.7299 -0.3625
  712MOL0     H96061   9.756   4.557   5.453  0.2231  2.0348 -0.8744
  712MOL0     H96062   9.861   4.464   5.562 -1.2836  0.1169  0.3264
  712MOL0     H96063   9.780   4.613   5.752  0.3294  1.4225 -0.1640
  712MOL0     H96064   9.670   4.692   5.631 -4.3307 -1.7506  0.0071
  712MOL0     H96065   9.535   4.491   5.598 -2.7423 -0.7199  2.5449
  712MOL0     H96066   9.647   4.389   5.679  0.1679 -0.0816 -4.5432
  712MOL0     H96067   9.500   4.618   5.819  0.9296 -0.4819 -0.1075
  712MOL0     H96068   9.614   4.507   5.886  0.6660  2.2009  0.5218
  712MOL0     H96069   9.375   4.446   5.939  0.0867  1.5288  0.1716
  712MOL0     H96070   9.334   4.485   5.776 -1.2934 -1.4753  2.1452
  712MOL0     H96071   9.474   4.275   5.607  0.3304 -0.1039  0.7633
  712MOL0     H96072   9.337   3.902   5.674 -4.1214  1.5325 -2.8136
  712MOL0     H96073   9.359   4.003   5.530  1.5399  2.3421 -0.2081
  712MOL0     H96074   9.554   3.849   5.530  1.1385  0.4562  0.9213
  712MOL0     H96075   9.605   4.016   5.567 -1.0786 -0.2348 -0.7017
  712MOL0     H96076   9.603   3.936   5.819 -0.8617  1.4080 -1.3828
  712MOL0     H96077   9.723   3.851   5.718  0.5501 -0.4711  4.3982
  712MOL0     H96078   9.534   3.673   5.691  2.5378  1.0041 -0.2116
  712MOL0     H96079   9.455   3.760   5.822 -0.0089 -2.8991  1.6476
  712MOL0     H96080   9.658   3.515   5.728  3.7158  0.3133  1.4196
  712MOL0     H96081   9.609   3.263   5.779 -0.7475  2.0805 -2.0688
  712MOL0     H96082   9.465   3.163   6.403  2.8871  0.6516 -2.3638
  712MOL0     H96083   9.308   2.970   6.506 -1.8476 -0.8814 -1.2236
  712MOL0     H96084   9.384   2.631   6.434  0.3607  2.0357  0.4697
  712MOL0     H96085   9.222   2.607   6.510  0.8761  1.2088  0.1425
  712MOL0     H96086   9.193   2.452   6.355 -1.4009 -0.4746 -0.0928
  712MOL0     H96087   9.154   2.596   6.248  0.6018  1.0520  1.0046
  712MOL0     H96088   9.397   2.578   6.181 -3.6677  2.9088  1.4415
  712MOL0     H96089   9.396   2.426   6.279  1.5788  1.7471  0.4465
  712MOL0     H96090   9.203   2.475   6.041  0.3034  0.0292  0.4137
  712MOL0     H96091   9.242   2.325   6.123  1.9865 -0.8695  1.7137
  712MOL0     H96092   9.427   2.502   5.956  1.3171 -0.2106 -0.7335
  712MOL0     H96093   9.326   2.363   5.902 -2.0347 -1.0344  2.0125
  712MOL0     H96094   9.536   2.342   6.113 -0.9208  0.5970 -0.4955
  712MOL0     H96095   9.450   2.203   6.048 -1.1764  1.1132  5.5518
  712MOL0     H96096   9.643   2.374   5.867 -1.3126  0.8507  0.6474
  712MOL0     H96097   9.566   2.214   5.838 -1.2278  1.4208 -0.6687
  712MOL0     H96098   9.795   2.202   5.893  1.5634  1.1830  1.2169
  712MOL0     H96099   9.765   2.263   6.060 -1.6885  0.0574 -1.1390
  712MOL0     H96100   9.327   2.766   6.135 -0.0522 -0.6854  0.2371
  712MOL0     H96101   9.460   2.939   6.042 -0.4991 -1.8482 -0.1280
  712MOL0     H96102   9.624   3.380   6.196 -1.9962 -0.6258  0.0511
  712MOL0     H96103   9.636   3.622   6.121  0.7908  2.4227 -2.3510
  712MOL0     H96104   9.765   5.261   5.598  0.1074  0.5316  0.2957
  712MOL0     H96105   9.567   5.390   5.688 -0.8056 -0.7165 -1.6587
  712MOL0     H96106   9.133   5.375   5.838 -1.5971  1.7534 -0.0703
  712MOL0     H96107   8.899   5.409   5.882 -2.7010  2.1233 -1.0815
  712MOL0     H96108   8.665   5.510   5.842 -0.5135  0.4540  1.1609
  712MOL0     H96109   8.677   5.336   5.889  2.1895  0.1695 -1.0441
  712MOL0     H96110   8.443   5.419   5.905 -1.4023  2.2443 -1.6848
  712MOL0     H96111   8.460   5.292   5.782  0.9279  0.5419 -3.6004
  712MOL0     H96112   8.484   5.589   5.723 -0.1828  0.1181  0.5476
  712MOL0     H96113   8.328   5.531   5.763 -1.0838 -2.0417 -0.6375
  712MOL0     H96114   8.474   5.391   5.529  1.5872  0.9955  0.3292
  712MOL0     H96115   8.298   5.394   5.556  0.4615 -2.6119  0.4703
  712MOL0     H96116   8.360   5.730   5.326  1.9124  1.3259  2.2204
  712MOL0     H96117   8.821   5.313   5.477  0.4852 -0.5047 -0.0478
  712MOL0     H96118   9.096   5.162   5.370 -1.0028 -0.7638 -0.9956
  712MOL0     H96119   8.963   5.266   5.322 -0.9515  0.8796  1.1685
  712MOL0     H96120   9.118   5.341   5.331  0.5368 -2.1756 -2.5224
  713MOL0     O96121   8.833   3.327   1.620 -0.5914 -0.3139 -0.2369
  713MOL0     C96122   8.904   3.425   1.663  0.2374  0.6185  0.0461
  713MOL0     O96123   8.986   3.494   1.588  0.3520  0.5347  0.4495
  713MOL0     C96124   8.990   3.481   1.452  0.3835 -0.1288  0.2144
  713MOL0     C96125   9.106   3.542   1.393  0.5013 -0.5990  0.4109
  713MOL0     C96126   9.120   3.558   1.255  0.4147 -0.5576 -0.2696
  713MOL0     C96127   9.035   3.481   1.174  0.7764 -0.2636  0.4354
  713MOL0     O96128   9.060   3.465   1.043 -0.0648  0.1207  0.1778
  713MOL0     C96129   9.135   3.349   1.003  0.1684  0.3980 -0.8580
  713MOL0     C96130   9.285   3.384   0.997 -0.3185 -0.0912  0.0326
  713MOL0     C96131   9.378   3.308   1.098  0.8576 -0.6918 -0.1596
  713MOL0     C96132   9.526   3.324   1.079 -0.6502 -0.3409  0.7496
  713MOL0     C96133   9.587   3.233   0.963  0.3628 -0.2461  0.1676
  713MOL0     C96134   9.560   3.082   0.980 -0.1589  0.3971  0.0291
  713MOL0     C96135   9.661   3.016   0.882 -0.5649  1.3231  0.6214
  713MOL0     C96136   9.791   2.993   0.964  0.7215  0.1363  0.5100
  713MOL0     N96137   9.855   2.869   0.920  0.1233  0.4031  0.2768
  713MOL0     C96138   9.858   2.766   1.011 -0.6979  0.1101 -0.3053
  713MOL0     C96139   9.960   2.691   0.970 -0.3907  0.9302 -0.3087
  713MOL0     C96140  10.005   2.577   1.054 -0.1906  0.3463  0.6576
  713MOL0     C96141  10.142   2.612   1.116 -0.1023 -0.6477  0.4777
  713MOL0     C96142  10.130   2.720   1.218 -1.4254 -0.1092  0.0880
  713MOL0     C96143  10.269   2.749   1.286 -0.4167  0.3168  0.2692
  713MOL0     O96144  10.259   2.848   1.385  0.5713 -0.1339  0.4497
  713MOL0     C96145  10.375   2.881   1.451 -0.1854 -0.2641  0.0222
  713MOL0     C96146  10.506   2.855   1.401 -0.2613 -1.0328 -0.2212
  713MOL0     C96147  10.619   2.881   1.475  0.5053 -0.8527  0.3365
  713MOL0     C96148  10.610   2.918   1.608 -0.6650 -0.4626  0.3153
  713MOL0     C96149  10.730   2.952   1.691  0.5915  0.8827  0.6474
  713MOL0     O96150  10.856   2.947   1.627 -0.0336 -0.0418  0.0270
  713MOL0     C96151  10.968   2.972   1.700 -0.5202  0.1683 -0.3409
  713MOL0     C96152  11.048   3.080   1.679  1.0686  0.1741  0.6405
  713MOL0     C96153  11.155   3.113   1.763  1.2611  0.4861  0.5720
  713MOL0     C96154  11.194   3.028   1.861  0.1677  0.3401 -0.4192
  713MOL0     O96155  11.303   3.046   1.941 -0.3325  0.2885 -0.6110
  713MOL0     C96156  11.430   2.998   1.882  0.2026  0.0994  0.2269
  713MOL0     C96157  11.463   2.849   1.927  0.3704 -0.1240 -0.3130
  713MOL0     C96158  11.470   2.805   2.074  0.3103  0.0550  0.8038
  713MOL0     C96159  11.591   2.846   2.150 -0.3701  0.2226 -0.0758
  713MOL0     C96160  11.579   2.784   2.290  0.2710  1.4194 -0.2710
  713MOL0     C96161  11.711   2.807   2.377  0.5373  0.1641  0.1965
  713MOL0     C96162  11.835   2.717   2.355  0.4187  0.6765  0.7517
  713MOL0     C96163  11.943   2.720   2.463 -0.1115  0.6240  1.3030
  713MOL0    Cl96164  11.890   2.639   2.606 -0.3477  0.2883  0.0320
  713MOL0     C96165  11.113   2.909   1.882 -0.7150 -1.6413 -0.4119
  713MOL0     C96166  10.998   2.887   1.804 -0.1116 -0.2696  0.0834
  713MOL0     O96167  10.705   2.982   1.806  0.3572  0.8325 -0.7898
  713MOL0     C96168  10.484   2.940   1.661 -1.4229  0.4990 -0.5086
  713MOL0     C96169  10.373   2.914   1.585  0.0259 -0.5938 -0.1171
  713MOL0     N96170   9.995   2.729   0.837 -0.4608  0.0294 -0.7184
  713MOL0     N96171   9.939   2.839   0.817 -0.5307  0.0299 -0.2140
  713MOL0     C96172   8.928   3.408   1.225 -0.0221 -1.0382  0.0594
  713MOL0     C96173   8.900   3.421   1.363  0.9397 -0.2034 -0.3066
  713MOL0     C96174   8.882   3.473   1.809 -0.1136 -0.1948  0.7907
  713MOL0     C96175   8.993   3.532   1.878 -0.7692 -0.0705 -0.9845
  713MOL0     C96176   8.976   3.588   2.000 -0.5180  1.0591  0.0359
  713MOL0     C96177   8.855   3.582   2.069 -0.7243  0.0452 -0.0341
  713MOL0     O96178   8.834   3.650   2.188 -0.3114 -0.1799  0.5852
  713MOL0     C96179   8.828   3.574   2.321  0.1825 -0.7729  0.8495
  713MOL0     C96180   8.958   3.505   2.361 -1.1539 -0.1921 -0.1181
  713MOL0     C96181   9.080   3.590   2.394  0.3284 -0.0765 -1.2679
  713MOL0     C96182   9.204   3.503   2.369 -0.8004 -0.2724 -0.3120
  713MOL0     C96183   9.225   3.453   2.237 -0.0206 -0.1168  0.0120
  713MOL0     C96184   9.226   3.395   2.132  0.3330  0.1104  0.9528
  713MOL0     C96185   8.748   3.522   2.013 -0.6623  0.0342  0.3444
  713MOL0     C96186   8.752   3.470   1.877 -0.3913 -0.2108  0.0298
  713MOL0     C96187   8.624   3.411   1.821  0.3663 -0.0171  0.2578
  713MOL0     H96188   9.179   3.586   1.460 -1.8159  2.1490  1.3161
  713MOL0     H96189   9.203   3.614   1.214 -0.0225  1.5767  1.5846
  713MOL0     H96190   9.107   3.265   1.068  1.2422  1.6798  1.3898
  713MOL0     H96191   9.099   3.315   0.905  2.5229 -2.9576 -0.7512
  713MOL0     H96192   9.299   3.490   1.020  4.0784 -0.4955  0.1292
  713MOL0     H96193   9.334   3.369   0.900  2.0264  2.1229  0.7862
  713MOL0     H96194   9.349   3.203   1.098 -2.0342 -0.0511  3.0538
  713MOL0     H96195   9.354   3.359   1.191  2.4689  2.2695 -1.2062
  713MOL0     H96196   9.561   3.428   1.086 -1.7034 -0.0804  3.2209
  713MOL0     H96197   9.569   3.289   1.173  4.4877 -1.3883 -1.6164
  713MOL0     H96198   9.559   3.264   0.862 -2.4587 -3.3227 -0.1332
  713MOL0     H96199   9.696   3.247   0.957  0.4379 -1.0090 -0.3977
  713MOL0     H96200   9.575   3.048   1.083  1.2900  2.5734  0.5949
  713MOL0     H96201   9.455   3.071   0.951 -0.3540  1.4493  0.3003
  713MOL0     H96202   9.683   3.082   0.798 -0.0290  1.7779  1.1123
  713MOL0     H96203   9.621   2.919   0.850  0.3201  0.0988  2.9691
  713MOL0     H96204   9.869   3.068   0.946 -1.6354  2.6043  0.0411
  713MOL0     H96205   9.768   2.970   1.069 -3.5911 -5.1263 -1.0941
  713MOL0     H96206   9.803   2.751   1.103  1.8703 -0.5183  1.2274
  713MOL0     H96207   9.929   2.554   1.129 -3.9968  1.5352 -2.4870
  713MOL0     H96208  10.015   2.487   0.992  0.8922  2.4641 -2.4908
  713MOL0     H96209  10.181   2.522   1.165 -1.3320 -0.4850  1.8201
  713MOL0     H96210  10.206   2.658   1.040  0.7824  2.1544  2.7532
  713MOL0     H96211  10.063   2.690   1.299 -0.3783  0.2908  1.1248
  713MOL0     H96212  10.091   2.815   1.181 -1.2841 -0.5175 -1.1681
  713MOL0     H96213  10.337   2.788   1.209  0.6118  2.3379  2.0982
  713MOL0     H96214  10.302   2.649   1.318 -0.7613 -0.3004 -1.2234
  713MOL0     H96215  10.517   2.821   1.298 -0.0351  1.3915 -1.0810
  713MOL0     H96216  10.718   2.859   1.438 -0.4715 -2.0468 -1.8091
  713MOL0     H96217  11.031   3.153   1.602 -0.4723  0.0523  0.8348
  713MOL0     H96218  11.204   3.208   1.745  3.4213 -0.6610 -0.0651
  713MOL0     H96219  11.433   3.007   1.773 -0.6262  1.5833  0.2988
  713MOL0     H96220  11.509   3.058   1.928  1.8097 -1.8210  0.1187
  713MOL0     H96221  11.386   2.790   1.877  0.8821 -0.1456 -1.0840
  713MOL0     H96222  11.557   2.821   1.879 -0.4377 -0.0034 -2.0385
  713MOL0     H96223  11.384   2.841   2.131  0.2765 -2.0586  2.2403
  713MOL0     H96224  11.458   2.696   2.080 -2.0955  0.0642 -1.7800
  713MOL0     H96225  11.604   2.954   2.155  1.3191  0.2846 -2.9567
  713MOL0     H96226  11.680   2.796   2.109  0.5965 -0.4303  2.6363
  713MOL0     H96227  11.554   2.678   2.282 -0.9736  1.7095 -0.3539
  713MOL0     H96228  11.504   2.837   2.349  1.8449  2.7328  0.6404
  713MOL0     H96229  11.734   2.912   2.363 -1.5379  0.4457 -1.6074
  713MOL0     H96230  11.682   2.790   2.481 -1.0474 -0.1087 -0.2715
  713MOL0     H96231  11.891   2.755   2.269  0.8987 -2.4236 -0.4418
  713MOL0     H96232  11.810   2.611   2.341  3.2134 -0.1418  1.3003
  713MOL0     H96233  12.035   2.675   2.425 -0.3667 -2.6882  4.0867
  713MOL0     H96234  11.967   2.824   2.486 -1.5436  1.4504 -0.6394
  713MOL0     H96235  11.150   2.855   1.969  0.5811  1.0749  0.8463
  713MOL0     H96236  10.938   2.799   1.821  0.7209 -1.0917 -1.1593
  713MOL0     H96237  10.471   2.957   1.767 -0.5835 -2.2240  0.1345
  713MOL0     H96238  10.275   2.919   1.633 -0.8374 -2.1374 -1.5994
  713MOL0     H96239   8.873   3.347   1.154  3.0832 -0.5370 -3.0448
  713MOL0     H96240   8.805   3.380   1.394 -0.6798  2.6208 -1.2036
  713MOL0     H96241   9.095   3.541   1.842 -0.6825  0.2867 -0.6487
  713MOL0     H96242   9.065   3.632   2.043  1.2247  2.3003 -4.2752
  713MOL0     H96243   8.753   3.496   2.303 -0.1973 -0.2988  0.3277
  713MOL0     H96244   8.799   3.647   2.396 -0.7653 -0.1775 -0.0601
  713MOL0     H96245   8.971   3.433   2.279 -1.3793  0.4554 -0.7341
  713MOL0     H96246   8.928   3.449   2.450 -1.7071  3.2788  2.0697
  713MOL0     H96247   9.071   3.627   2.496  4.2816  0.5534 -1.0093
  713MOL0     H96248   9.087   3.681   2.333 -2.4093 -0.4200 -2.2717
  713MOL0     H96249   9.293   3.562   2.393 -0.2882 -1.1164 -0.0768
  713MOL0     H96250   9.187   3.423   2.441 -0.8154 -1.4474 -1.5676
  713MOL0     H96251   9.200   3.339   2.045 -1.9963  0.9010  1.0775
  713MOL0     H96252   8.650   3.511   2.057 -1.8398 -1.2476 -2.3295
  713MOL0     H96253   8.542   3.423   1.892  0.5995  1.0390  0.3607
  713MOL0     H96254   8.601   3.456   1.724  1.7220  0.4797  0.1439
  713MOL0     H96255   8.645   3.307   1.791  1.2373 -0.3331  1.8771
  714MOL0     O96256   2.506   9.077   2.358  0.1667  0.5020 -0.5216
  714MOL0     C96257   2.623   9.064   2.397 -0.3000 -0.1447 -0.6842
  714MOL0     O96258   2.689   9.145   2.476 -1.4220 -0.3311 -0.1383
  714MOL0     C96259   2.630   9.244   2.552 -0.0573  0.0798 -0.1077
  714MOL0     C96260   2.574   9.347   2.490 -0.5728  0.6373 -0.8039
  714MOL0     C96261   2.525   9.451   2.565 -0.1192 -0.8313  0.6210
  714MOL0     C96262   2.523   9.455   2.704 -0.2847  0.1716 -0.3625
  714MOL0     O96263   2.448   9.558   2.770 -0.6461  0.0999 -0.0296
  714MOL0     C96264   2.473   9.588   2.906  0.3153  0.0190 -0.2814
  714MOL0     C96265   2.343   9.666   2.950 -1.0376 -0.2104  0.2932
  714MOL0     C96266   2.325   9.689   3.099 -0.4121 -0.4138  0.5757
  714MOL0     C96267   2.218   9.798   3.128  1.3429 -0.5994 -0.3932
  714MOL0     C96268   2.082   9.725   3.129 -0.5451 -0.2459  0.2931
  714MOL0     C96269   1.968   9.820   3.159  0.4173 -0.5817  0.1273
  714MOL0     C96270   1.839   9.740   3.178  0.7232  0.5542 -0.3870
  714MOL0     C96271   1.782   9.690   3.040 -0.3600 -1.1473 -0.3694
  714MOL0     N96272   1.652   9.631   3.060  0.7816 -0.3621 -0.2169
  714MOL0     C96273   1.610   9.504   3.032  0.5338  0.5943 -0.4236
  714MOL0     C96274   1.475   9.502   3.051 -0.9580  0.3900 -0.2633
  714MOL0     C96275   1.375   9.380   3.038  0.3412  0.3660 -0.2499
  714MOL0     C96276   1.249   9.416   3.132  0.4975  0.2460  0.4215
  714MOL0     C96277   1.145   9.307   3.124  0.1139  0.3255 -0.5046
  714MOL0     C96278   1.000   9.327   3.186 -0.2219  0.1759  0.2675
  714MOL0     O96279   1.015   9.347   3.328 -0.6016  0.0224 -0.1208
  714MOL0     C96280   1.059   9.248   3.410  0.0419 -0.8657 -0.3281
  714MOL0     C96281   1.176   9.274   3.486  0.1738  0.2808 -0.1837
  714MOL0     C96282   1.238   9.177   3.561  1.0005 -0.7830  0.0598
  714MOL0     C96283   1.186   9.050   3.555 -0.0462  0.6367  0.4008
  714MOL0     C96284   1.240   8.935   3.637 -0.5850 -0.6166  0.1656
  714MOL0     O96285   1.326   8.975   3.733  0.2690 -0.7057 -1.0744
  714MOL0     C96286   1.393   8.899   3.821  0.4093  0.7588 -0.1895
  714MOL0     C96287   1.386   8.753   3.840 -0.6380  0.2533 -0.3527
  714MOL0     C96288   1.473   8.688   3.931  0.3681  0.4360 -1.2230
  714MOL0     C96289   1.558   8.762   4.017 -0.0634  0.5778  0.4180
  714MOL0     O96290   1.625   8.689   4.110  0.2574 -0.3713  0.2529
  714MOL0     C96291   1.661   8.753   4.239  0.0960 -0.4891  0.5210
  714MOL0     C96292   1.700   8.642   4.336  0.2817 -0.7259 -0.7787
  714MOL0     C96293   1.853   8.610   4.315  0.0909  0.3957  0.3341
  714MOL0     C96294   1.887   8.477   4.385 -0.0592  0.2782 -0.1914
  714MOL0     C96295   2.038   8.448   4.358  0.0267 -0.6490 -1.3429
  714MOL0     C96296   2.137   8.538   4.424  0.0391  0.1241  0.4585
  714MOL0     C96297   2.282   8.494   4.406 -0.6201  0.0360  0.1847
  714MOL0     C96298   2.316   8.345   4.410 -0.2025  0.1104 -1.0364
  714MOL0    Cl96299   2.317   8.276   4.577  0.4838 -0.3473 -0.0456
  714MOL0     C96300   1.549   8.900   4.007  0.0575 -0.3501  0.1013
  714MOL0     C96301   1.482   8.959   3.910  0.2868 -1.2149  0.4724
  714MOL0     O96302   1.212   8.815   3.620 -0.0500 -0.1831 -0.2823
  714MOL0     C96303   1.083   9.016   3.466  0.1848 -0.4413 -0.2258
  714MOL0     C96304   1.013   9.116   3.399 -0.2184 -0.4624  0.1815
  714MOL0     N96305   1.435   9.633   3.085  0.4849 -0.6810 -0.6075
  714MOL0     N96306   1.537   9.706   3.083 -0.7788 -0.8537 -1.1230
  714MOL0     C96307   2.589   9.353   2.775  0.4464  0.4027 -0.0026
  714MOL0     C96308   2.649   9.251   2.695  0.2820  0.4067  1.3691
  714MOL0     C96309   2.693   8.937   2.369 -0.2384  0.5917 -0.1248
  714MOL0     C96310   2.727   8.899   2.233 -0.1664 -0.6288  0.6240
  714MOL0     C96311   2.797   8.781   2.205  1.1314  0.1813 -0.1499
  714MOL0     C96312   2.854   8.706   2.319  0.4006  0.3974 -0.0785
  714MOL0     O96313   2.941   8.602   2.302 -0.5607 -0.0335  0.1461
  714MOL0     C96314   2.978   8.532   2.182  0.4516 -0.1404  0.3639
  714MOL0     C96315   3.116   8.572   2.120  0.1797 -0.3929  0.0196
  714MOL0     C96316   3.239   8.538   2.218  0.1555 -1.1518  0.1377
  714MOL0     C96317   3.370   8.515   2.135 -0.8396 -0.1978 -0.3565
  714MOL0     C96318   3.371   8.396   2.053  0.1681  0.3011 -0.3090
  714MOL0     C96319   3.384   8.305   1.977  0.2583  0.4235  0.3290
  714MOL0     C96320   2.819   8.745   2.446  0.7937  0.2012 -0.1223
  714MOL0     C96321   2.732   8.850   2.471  0.3490 -0.4788  0.2993
  714MOL0     C96322   2.718   8.890   2.615 -0.4905 -0.4675  0.4392
  714MOL0     H96323   2.561   9.352   2.382 -1.0808 -3.2519 -1.0697
  714MOL0     H96324   2.493   9.539   2.509 -4.5412  0.1470  4.1495
  714MOL0     H96325   2.481   9.504   2.976 -1.4949  0.3933  0.4135
  714MOL0     H96326   2.556   9.656   2.929 -0.1655 -0.4421  3.4038
  714MOL0     H96327   2.254   9.627   2.899  2.6344 -1.4802 -6.2333
  714MOL0     H96328   2.360   9.766   2.910 -1.5638 -0.2498 -0.0437
  714MOL0     H96329   2.420   9.728   3.135  0.0879 -0.6600 -0.4536
  714MOL0     H96330   2.294   9.592   3.139  2.0398 -2.4191 -1.9889
  714MOL0     H96331   2.240   9.843   3.225 -0.1882 -0.3486 -0.1328
  714MOL0     H96332   2.221   9.876   3.052 -1.9853  2.2866  2.0632
  714MOL0     H96333   2.064   9.658   3.045 -0.7692  1.0287 -0.7012
  714MOL0     H96334   2.095   9.657   3.214  4.2221 -0.0667 -0.0257
  714MOL0     H96335   1.996   9.867   3.254 -0.3744 -0.4589  0.3091
  714MOL0     H96336   1.959   9.892   3.077 -5.8787  1.9035  2.3540
  714MOL0     H96337   1.761   9.802   3.224 -1.7804 -0.8959 -2.3823
  714MOL0     H96338   1.849   9.653   3.244  3.5907  1.0037 -0.0876
  714MOL0     H96339   1.757   9.789   3.001 -0.5456 -0.9994  0.1150
  714MOL0     H96340   1.844   9.632   2.971 -2.7051 -3.9660 -0.2826
  714MOL0     H96341   1.679   9.428   2.999  0.5418  0.0958  0.6876
  714MOL0     H96342   1.353   9.367   2.932 -0.0997 -1.1611 -0.0025
  714MOL0     H96343   1.437   9.296   3.071  1.5304  0.5111 -2.0307
  714MOL0     H96344   1.294   9.413   3.232  0.4331 -0.1821  0.4368
  714MOL0     H96345   1.189   9.503   3.103 -3.7944 -2.5399 -0.0697
  714MOL0     H96346   1.195   9.221   3.170 -1.8575  0.2115  1.6437
  714MOL0     H96347   1.127   9.296   3.017 -1.9276  1.4001 -0.3274
  714MOL0     H96348   0.925   9.250   3.166 -2.2731  1.8872  0.9837
  714MOL0     H96349   0.951   9.415   3.143  3.3870  2.9400  1.3093
  714MOL0     H96350   1.224   9.371   3.485  2.8762 -0.9675 -2.0847
  714MOL0     H96351   1.322   9.193   3.627  1.1407 -0.0803 -0.2864
  714MOL0     H96352   1.324   8.691   3.775 -0.2828  0.6150 -1.0479
  714MOL0     H96353   1.477   8.580   3.933  1.3802  0.4397 -2.0022
  714MOL0     H96354   1.737   8.831   4.232  0.7713 -1.1965 -0.3068
  714MOL0     H96355   1.574   8.803   4.283 -1.4780 -2.1114 -0.5980
  714MOL0     H96356   1.697   8.681   4.438  0.9174 -2.4252 -0.0818
  714MOL0     H96357   1.640   8.551   4.326  0.0674 -0.5531 -1.0984
  714MOL0     H96358   1.883   8.600   4.210  0.7361  1.8186  0.3657
  714MOL0     H96359   1.907   8.693   4.361 -1.8854  1.6713  0.4835
  714MOL0     H96360   1.830   8.395   4.341 -2.8708  1.5053  0.9109
  714MOL0     H96361   1.862   8.477   4.492 -0.5095 -3.7627 -0.1678
  714MOL0     H96362   2.058   8.442   4.251 -2.0704 -0.7441 -1.7610
  714MOL0     H96363   2.046   8.345   4.395 -1.5288 -0.8918 -1.6283
  714MOL0     H96364   2.127   8.626   4.360  1.3836 -1.0476 -1.5135
  714MOL0     H96365   2.122   8.562   4.529 -2.6828  3.0181 -0.4432
  714MOL0     H96366   2.346   8.534   4.485 -1.2110 -0.4517  0.9160
  714MOL0     H96367   2.314   8.535   4.310  1.1472  1.7644  1.4393
  714MOL0     H96368   2.251   8.278   4.353 -0.3885 -3.2202  2.6934
  714MOL0     H96369   2.419   8.346   4.374 -0.0362  1.1046 -0.5957
  714MOL0     H96370   1.608   8.967   4.069 -1.6265  1.6896 -0.3841
  714MOL0     H96371   1.484   9.067   3.899 -0.9729 -1.3423 -1.4061
  714MOL0     H96372   1.048   8.914   3.454  1.8111 -1.2268  1.3426
  714MOL0     H96373   0.908   9.105   3.371 -0.3703  2.3688 -0.6595
  714MOL0     H96374   2.601   9.346   2.883 -2.6575  1.4797  0.5287
  714MOL0     H96375   2.692   9.169   2.752 -0.9976 -1.9546 -0.8401
  714MOL0     H96376   2.693   8.966   2.154 -0.6505 -3.3353 -1.6438
  714MOL0     H96377   2.811   8.755   2.100  1.1435 -0.2280 -0.0462
  714MOL0     H96378   2.902   8.550   2.105 -0.5676  0.9977  1.5835
  714MOL0     H96379   2.995   8.425   2.197  3.7928 -0.0851 -1.9373
  714MOL0     H96380   3.102   8.679   2.107  1.6718 -0.3747 -1.7585
  714MOL0     H96381   3.127   8.525   2.022  2.9014  0.8966 -0.3807
  714MOL0     H96382   3.217   8.444   2.268 -0.7576 -0.1273  1.7276
  714MOL0     H96383   3.252   8.617   2.293  0.5806 -0.7287 -0.3663
  714MOL0     H96384   3.386   8.608   2.081 -0.9865  1.2271  1.9232
  714MOL0     H96385   3.456   8.509   2.202 -0.1265 -0.0151 -1.2495
  714MOL0     H96386   3.400   8.226   1.907 -0.6478  0.0902  0.4889
  714MOL0     H96387   2.873   8.692   2.524 -2.2450 -1.4482  1.0176
  714MOL0     H96388   2.618   8.927   2.637 -1.2052 -2.5961  1.0793
  714MOL0     H96389   2.745   8.813   2.689  0.1540 -0.5172  0.1608
  714MOL0     H96390   2.793   8.969   2.628  0.6019 -1.6954  2.0249
  715MOL0     O96391  10.116   1.753   3.037 -0.8224  0.0265  0.2064
  715MOL0     C96392  10.087   1.737   3.155  0.1842  0.5500 -0.4280
  715MOL0     O96393  10.136   1.635   3.228  0.2176 -0.1230 -1.2126
  715MOL0     C96394  10.267   1.599   3.197 -0.7408  0.7055  0.0024
  715MOL0     C96395  10.365   1.688   3.168  0.3604  0.9616 -0.6736
  715MOL0     C96396  10.507   1.656   3.159 -0.3051  0.2148 -0.2872
  715MOL0     C96397  10.550   1.519   3.168 -0.2719 -0.0799  0.8759
  715MOL0     O96398  10.682   1.487   3.164 -0.4456 -0.2325  0.4433
  715MOL0     C96399  10.732   1.352   3.173  0.4075  0.3303 -0.0188
  715MOL0     C96400  10.886   1.326   3.150  1.0730 -0.1388 -0.3426
  715MOL0     C96401  10.978   1.424   3.233  0.5169 -0.2667 -0.1406
  715MOL0     C96402  11.134   1.394   3.201 -0.3631  0.5495  0.2222
  715MOL0     C96403  11.235   1.485   3.282 -0.0329 -0.2460 -0.1410
  715MOL0     C96404  11.211   1.633   3.244  0.7001  0.9938  0.6541
  715MOL0     C96405  11.315   1.714   3.319 -0.0745 -0.7645  0.2931
  715MOL0     C96406  11.280   1.865   3.315  1.1611 -0.5236  0.0536
  715MOL0     N96407  11.397   1.940   3.310 -0.2031 -0.1439  0.3196
  715MOL0     C96408  11.454   2.006   3.412  0.1524  0.3553 -0.6724
  715MOL0     C96409  11.567   2.071   3.365 -0.0975 -0.0472  0.2020
  715MOL0     C96410  11.671   2.151   3.440  0.2767 -0.7794  0.2066
  715MOL0     C96411  11.630   2.296   3.417 -0.1553 -0.3332 -0.4339
  715MOL0     C96412  11.723   2.388   3.501 -0.3852  1.0992  0.3760
  715MOL0     C96413  11.697   2.538   3.481  0.3936 -0.1871 -0.4323
  715MOL0     O96414  11.571   2.580   3.532  0.2093 -0.6704  0.1090
  715MOL0     C96415  11.560   2.614   3.662  0.6509 -0.0360 -0.3607
  715MOL0     C96416  11.656   2.590   3.761  0.1591 -1.0353  0.3600
  715MOL0     C96417  11.625   2.618   3.896  0.0961  0.0640 -0.1493
  715MOL0     C96418  11.505   2.683   3.932 -0.1338 -0.7119  0.4228
  715MOL0     C96419  11.481   2.717   4.072  0.4255  1.1764 -0.4706
  715MOL0     O96420  11.353   2.742   4.110  0.4153  0.3859  0.2955
  715MOL0     C96421  11.328   2.758   4.240 -0.0361 -0.0606  0.5402
  715MOL0     C96422  11.344   2.658   4.338 -0.7910 -0.3837  0.5218
  715MOL0     C96423  11.301   2.679   4.464 -0.0682 -0.0883  1.0721
  715MOL0     C96424  11.228   2.790   4.500 -0.5790  0.1331 -0.9818
  715MOL0     O96425  11.168   2.806   4.617  0.2180 -0.8860  0.1733
  715MOL0     C96426  11.171   2.709   4.719 -0.2448  0.8946 -0.3019
  715MOL0     C96427  11.105   2.761   4.853 -0.2850 -0.1844  0.5316
  715MOL0     C96428  11.077   2.653   4.950  0.1158 -0.2013 -0.0375
  715MOL0     C96429  11.204   2.568   4.986 -0.6391  0.5084  0.1693
  715MOL0     C96430  11.170   2.445   5.084 -0.6576 -0.0098  0.0619
  715MOL0     C96431  11.051   2.455   5.172 -0.3495 -0.3536 -0.1001
  715MOL0     C96432  11.081   2.542   5.293  0.7639 -0.2770  0.3706
  715MOL0     C96433  10.977   2.539   5.405  0.4063  0.5272  0.0453
  715MOL0    Cl96434  10.881   2.685   5.402 -0.0869  0.2085 -0.1199
  715MOL0     C96435  11.200   2.888   4.405 -0.0138  0.4532  0.4520
  715MOL0     C96436  11.251   2.872   4.271 -0.1646 -0.3603 -0.3859
  715MOL0     O96437  11.577   2.710   4.148  0.9308 -0.2879  0.5091
  715MOL0     C96438  11.412   2.715   3.832 -0.1946 -0.1648 -0.5773
  715MOL0     C96439  11.435   2.664   3.704  0.6537  0.1943  0.1962
  715MOL0     N96440  11.559   2.049   3.222 -1.3030 -0.3969 -0.7140
  715MOL0     N96441  11.461   1.979   3.193  0.4210  0.7738  0.3683
  715MOL0     C96442  10.444   1.423   3.196  0.4867  0.2631 -0.3056
  715MOL0     C96443  10.311   1.467   3.211 -0.9134 -1.1284  0.1533
  715MOL0     C96444   9.998   1.840   3.219 -1.0418  0.0760  0.3272
  715MOL0     C96445   9.989   1.819   3.356  0.0508  0.3934  0.0962
  715MOL0     C96446   9.920   1.910   3.438  0.9566  0.2154 -0.2875
  715MOL0     C96447   9.851   2.018   3.383  0.1757 -0.2531 -0.8129
  715MOL0     O96448   9.791   2.118   3.457 -0.5882  0.3286  1.2942
  715MOL0     C96449   9.693   2.086   3.559 -0.4775 -0.4002 -0.2675
  715MOL0     C96450   9.609   2.193   3.598 -0.2339 -0.6102 -0.4017
  715MOL0     C96451   9.490   2.217   3.508 -0.3542  0.4932  0.4955
  715MOL0     C96452   9.509   2.254   3.350  0.3254  0.3124 -0.5811
  715MOL0     C96453   9.580   2.384   3.326  0.8312  0.4704  0.7177
  715MOL0     C96454   9.614   2.500   3.299 -0.2681 -0.1119 -0.1942
  715MOL0     C96455   9.866   2.042   3.241  0.1506  0.5166  0.6981
  715MOL0     C96456   9.938   1.948   3.160 -0.1837  0.5255 -0.3241
  715MOL0     C96457   9.951   1.967   3.012  1.2881 -0.0203  0.3275
  715MOL0     H96458  10.340   1.793   3.157 -0.7712  0.5826 -1.9837
  715MOL0     H96459  10.571   1.741   3.134 -2.4243  1.8150 -0.5969
  715MOL0     H96460  10.712   1.306   3.270  0.9207  1.8813  0.8591
  715MOL0     H96461  10.687   1.291   3.094  0.5372  0.3158 -0.0816
  715MOL0     H96462  10.899   1.339   3.042 -0.2408 -3.4829 -1.0227
  715MOL0     H96463  10.918   1.225   3.174  0.6340 -0.0678  0.5986
  715MOL0     H96464  10.958   1.399   3.338  0.5882  2.0023  0.4805
  715MOL0     H96465  10.957   1.529   3.207  0.7962  0.2063  1.4145
  715MOL0     H96466  11.158   1.289   3.219  2.4361  0.6111 -2.3271
  715MOL0     H96467  11.153   1.398   3.093  0.4528 -3.2394  0.0539
  715MOL0     H96468  11.209   1.461   3.385 -0.5940 -0.4826 -0.3331
  715MOL0     H96469  11.335   1.452   3.253  0.9954  2.1144  0.4882
  715MOL0     H96470  11.204   1.660   3.138 -0.2381  1.1062  0.7397
  715MOL0     H96471  11.109   1.645   3.279 -1.5939 -1.7251 -4.0578
  715MOL0     H96472  11.410   1.694   3.268 -0.4478 -0.8413 -0.3665
  715MOL0     H96473  11.324   1.683   3.424 -0.2099  0.8523  0.8081
  715MOL0     H96474  11.216   1.885   3.229  0.3467  1.6597  1.1001
  715MOL0     H96475  11.216   1.897   3.398  2.9024 -2.0517  2.1166
  715MOL0     H96476  11.422   1.985   3.514 -1.3995 -3.4006 -1.7585
  715MOL0     H96477  11.661   2.127   3.547 -1.0713  0.4418  0.3985
  715MOL0     H96478  11.767   2.129   3.394  0.5760  1.7289 -0.5523
  715MOL0     H96479  11.630   2.334   3.315  0.0193  2.5250  0.5275
  715MOL0     H96480  11.526   2.319   3.444  0.1247  2.0537 -1.1373
  715MOL0     H96481  11.829   2.371   3.481 -0.0313  0.5276  2.4918
  715MOL0     H96482  11.712   2.360   3.607  2.1585  0.6847  0.5938
  715MOL0     H96483  11.699   2.558   3.374  2.3641  2.0160 -0.0770
  715MOL0     H96484  11.783   2.589   3.524  0.6360 -2.9699  2.8544
  715MOL0     H96485  11.749   2.540   3.736 -0.1903 -1.4508 -0.1352
  715MOL0     H96486  11.697   2.589   3.972  0.8309  1.5726 -0.2382
  715MOL0     H96487  11.390   2.561   4.317  0.4131 -0.0923  1.6527
  715MOL0     H96488  11.322   2.602   4.538 -1.6192 -0.8973  0.7189
  715MOL0     H96489  11.118   2.616   4.698  1.8526 -0.7490  1.2009
  715MOL0     H96490  11.275   2.685   4.744  0.3195  2.9178 -0.5060
  715MOL0     H96491  11.161   2.840   4.906 -1.1613  0.3036  0.7458
  715MOL0     H96492  11.012   2.806   4.817 -1.9736 -2.0737  2.3251
  715MOL0     H96493  11.035   2.704   5.037 -0.4864 -4.0339  2.1263
  715MOL0     H96494  11.004   2.580   4.917 -0.1068  0.8804 -2.1051
  715MOL0     H96495  11.289   2.630   5.016  0.8810 -0.5477 -1.7419
  715MOL0     H96496  11.242   2.515   4.898 -0.6677  0.6149  0.0932
  715MOL0     H96497  11.262   2.416   5.136 -0.8625 -3.6625 -1.3081
  715MOL0     H96498  11.158   2.362   5.013  0.4925  0.8261 -1.1661
  715MOL0     H96499  10.969   2.501   5.117 -1.1392  0.0548  1.3674
  715MOL0     H96500  11.015   2.358   5.209 -2.7748  0.1468 -0.9787
  715MOL0     H96501  11.099   2.647   5.271  0.0142 -0.3981 -0.8851
  715MOL0     H96502  11.177   2.501   5.327  2.2145 -0.6708 -3.6926
  715MOL0     H96503  10.894   2.470   5.384  0.7094  0.5405 -1.3217
  715MOL0     H96504  11.010   2.524   5.508 -5.4620  2.2822  2.6311
  715MOL0     H96505  11.132   2.971   4.424  1.4372  1.7754  0.0950
  715MOL0     H96506  11.236   2.955   4.202  3.1591  1.9709  1.3978
  715MOL0     H96507  11.321   2.766   3.863 -0.1242 -0.7248  0.6214
  715MOL0     H96508  11.357   2.669   3.630  0.7000  2.9836  0.2379
  715MOL0     H96509  10.462   1.317   3.206 -0.2875  0.0480 -1.0579
  715MOL0     H96510  10.232   1.397   3.236  0.1937 -2.1658  0.8161
  715MOL0     H96511  10.043   1.742   3.411  0.3833 -0.9102 -1.9307
  715MOL0     H96512   9.904   1.882   3.542  0.5057  1.2500 -0.0655
  715MOL0     H96513   9.751   2.059   3.648 -2.0872 -0.5121  0.7972
  715MOL0     H96514   9.635   1.997   3.531 -1.4282 -0.8800  2.8635
  715MOL0     H96515   9.668   2.285   3.594  0.7252 -1.1867 -4.4303
  715MOL0     H96516   9.564   2.170   3.694  2.5559 -3.3272  0.4151
  715MOL0     H96517   9.441   2.306   3.548 -2.0881  0.1200 -0.6709
  715MOL0     H96518   9.435   2.123   3.521  1.4512 -0.7909 -0.6675
  715MOL0     H96519   9.569   2.174   3.304  0.2092  0.7790 -1.5647
  715MOL0     H96520   9.412   2.262   3.300 -0.3744  1.2443  0.8543
  715MOL0     H96521   9.646   2.602   3.287 -1.0090  0.2681  0.9414
  715MOL0     H96522   9.824   2.124   3.184 -2.5303 -0.9377  0.4207
  715MOL0     H96523  10.055   1.984   2.983  2.4504 -1.3449  3.2919
  715MOL0     H96524   9.911   1.874   2.970 -4.2464  1.3235  1.8150
  715MOL0     H96525   9.902   2.055   2.970 -1.9727 -1.6402  0.3894
  716MOL0     O96526   5.473   2.240   2.635  0.7669  0.2630  0.4172
  716MOL0     C96527   5.523   2.185   2.536  0.2955  1.0727  0.8829
  716MOL0     O96528   5.459   2.130   2.427  0.4982  0.6136 -0.2723
  716MOL0     C96529   5.324   2.124   2.431  0.2134 -0.2375  0.1445
  716MOL0     C96530   5.244   2.215   2.358  0.6782  0.0826 -0.1794
  716MOL0     C96531   5.103   2.207   2.365 -0.9521 -0.7519  0.7414
  716MOL0     C96532   5.031   2.113   2.439 -0.1322  0.6160  0.4894
  716MOL0     O96533   4.895   2.096   2.449 -0.1713  0.6964  0.0142
  716MOL0     C96534   4.825   2.117   2.332  0.2590 -0.1209  0.3911
  716MOL0     C96535   4.679   2.085   2.349  1.1019  0.0273  0.8828
  716MOL0     C96536   4.637   1.933   2.358  0.4247 -0.7628 -0.9694
  716MOL0     C96537   4.496   1.909   2.419 -0.1759  0.0429  0.5305
  716MOL0     C96538   4.446   1.762   2.435  0.0020  0.1543 -0.1435
  716MOL0     C96539   4.436   1.692   2.295  0.8749 -0.2920  0.5367
  716MOL0     C96540   4.450   1.534   2.311  0.0903  0.3557 -0.7321
  716MOL0     C96541   4.447   1.458   2.178 -0.1962  0.7495 -0.0622
  716MOL0     N96542   4.441   1.315   2.206 -0.2851 -0.2759  0.1837
  716MOL0     C96543   4.526   1.228   2.272 -0.5882  0.3349  0.1549
  716MOL0     C96544   4.465   1.117   2.289  1.0692  0.5206  0.5179
  716MOL0     C96545   4.510   1.004   2.377  0.2221  0.1949  0.7397
  716MOL0     C96546   4.579   0.889   2.302 -1.5598 -0.0749 -0.5744
  716MOL0     C96547   4.730   0.881   2.373  0.4375 -0.1191  0.4466
  716MOL0     C96548   4.827   0.982   2.316  0.0305 -0.3160  0.4883
  716MOL0     O96549   4.888   0.933   2.199 -0.0345 -0.0570  0.7293
  716MOL0     C96550   5.013   0.983   2.189  0.3245 -0.3312 -0.4323
  716MOL0     C96551   5.118   0.895   2.199  0.7538  0.1017 -0.7215
  716MOL0     C96552   5.252   0.942   2.196  0.2146  0.3738  0.0006
  716MOL0     C96553   5.280   1.075   2.213  0.7988 -0.4842  0.5676
  716MOL0     C96554   5.421   1.111   2.234 -0.1372 -0.2077 -0.4291
  716MOL0     O96555   5.502   1.016   2.288 -0.2930  0.0567  0.2154
  716MOL0     C96556   5.635   1.040   2.299 -0.8039 -0.4670 -0.0099
  716MOL0     C96557   5.721   1.032   2.187  0.2369  0.7345  0.1155
  716MOL0     C96558   5.857   1.057   2.211  0.3228 -0.5325 -0.7913
  716MOL0     C96559   5.908   1.081   2.340  0.0965  0.5796 -0.0966
  716MOL0     O96560   6.038   1.094   2.349  0.2153  0.4657  1.0521
  716MOL0     C96561   6.096   1.104   2.479 -1.1529 -0.6977 -0.7860
  716MOL0     C96562   6.241   1.133   2.452  0.3931  0.8030 -0.7320
  716MOL0     C96563   6.302   1.014   2.359 -0.0134 -0.4058  0.1210
  716MOL0     C96564   6.451   1.002   2.372  0.3916 -0.6570  0.1773
  716MOL0     C96565   6.508   0.875   2.316  0.5064  1.1946 -0.5955
  716MOL0     C96566   6.498   0.859   2.166  0.1403 -0.5043  0.2848
  716MOL0     C96567   6.599   0.747   2.139 -0.0177  0.3728 -0.0090
  716MOL0     C96568   6.593   0.688   1.998  0.2562 -0.0527  0.0605
  716MOL0    Cl96569   6.449   0.587   1.992  0.0952 -0.0262 -0.5879
  716MOL0     C96570   5.816   1.100   2.445 -0.4492  0.4913 -0.1029
  716MOL0     C96571   5.686   1.076   2.423 -0.0582  0.2764 -0.2879
  716MOL0     O96572   5.450   1.226   2.199  0.1379  0.2565 -0.3404
  716MOL0     C96573   5.173   1.169   2.198  0.2261 -1.2101 -0.3575
  716MOL0     C96574   5.039   1.121   2.184 -0.4268 -0.5554 -0.0132
  716MOL0     N96575   4.333   1.143   2.241  0.2188  0.1487 -1.1376
  716MOL0     N96576   4.324   1.252   2.187 -0.1020 -1.4666 -0.6862
  716MOL0     C96577   5.114   2.028   2.509  1.1412  0.3091  0.1472
  716MOL0     C96578   5.259   2.035   2.509  0.2134 -0.5508  0.2387
  716MOL0     C96579   5.667   2.160   2.536 -0.3044 -0.5890 -0.3857
  716MOL0     C96580   5.714   2.102   2.415  0.2740 -0.7825 -0.0195
  716MOL0     C96581   5.844   2.082   2.387 -0.4252  0.0479 -0.6004
  716MOL0     C96582   5.939   2.133   2.474  0.2182  0.5972 -0.1344
  716MOL0     O96583   6.069   2.137   2.424  0.3534 -0.4875 -0.3509
  716MOL0     C96584   6.179   2.175   2.502  0.4515 -0.0834  0.6659
  716MOL0     C96585   6.311   2.192   2.419  0.8037  0.7191  0.1591
  716MOL0     C96586   6.428   2.257   2.497  0.6823 -0.0053  0.4403
  716MOL0     C96587   6.453   2.168   2.626 -0.4336 -0.0364  1.8283
  716MOL0     C96588   6.396   2.234   2.736 -1.0177  0.2673 -0.8012
  716MOL0     C96589   6.361   2.296   2.830 -0.1157  0.2052 -0.7774
  716MOL0     C96590   5.903   2.194   2.599  0.4728  0.4816  0.0186
  716MOL0     C96591   5.769   2.197   2.625  0.3154 -0.0828 -0.2893
  716MOL0     C96592   5.735   2.267   2.745  0.4747  0.1844 -0.3681
  716MOL0     H96593   5.297   2.290   2.301 -1.6189  1.5800 -0.4909
  716MOL0     H96594   5.053   2.280   2.303 -0.8450  0.7853  2.3699
  716MOL0     H96595   4.830   2.225   2.317 -0.9757  0.0497  1.0916
  716MOL0     H96596   4.855   2.058   2.245 -1.7048 -1.7152  0.7098
  716MOL0     H96597   4.631   2.127   2.261  1.5935  4.0413  2.3462
  716MOL0     H96598   4.640   2.140   2.435 -0.2280  1.7066 -0.7060
  716MOL0     H96599   4.722   1.875   2.395  0.3279 -1.4607 -1.7851
  716MOL0     H96600   4.637   1.899   2.254  2.5096 -1.2981 -0.8345
  716MOL0     H96601   4.483   1.964   2.513  0.8952  0.8184  0.2395
  716MOL0     H96602   4.420   1.944   2.348  0.6291 -2.7965 -1.9027
  716MOL0     H96603   4.516   1.710   2.501 -2.0076 -2.5338  0.0077
  716MOL0     H96604   4.354   1.758   2.494  0.3551 -0.7305  0.3756
  716MOL0     H96605   4.329   1.703   2.273  0.6812 -0.9708  1.0855
  716MOL0     H96606   4.486   1.731   2.207 -3.9058  1.8587 -1.5952
  716MOL0     H96607   4.358   1.505   2.362 -0.9633 -0.8667 -3.1741
  716MOL0     H96608   4.536   1.499   2.368 -1.1493  0.6816  1.4509
  716MOL0     H96609   4.365   1.484   2.109  1.4385 -1.2655 -2.9594
  716MOL0     H96610   4.528   1.476   2.107  1.6169 -1.3875  1.3560
  716MOL0     H96611   4.628   1.240   2.306 -1.4904  5.1872  2.0900
  716MOL0     H96612   4.574   1.032   2.461  1.4946  1.2314 -0.5152
  716MOL0     H96613   4.416   0.973   2.423 -0.4818  2.4389  0.9476
  716MOL0     H96614   4.527   0.793   2.309  0.1165 -1.0627 -0.9420
  716MOL0     H96615   4.594   0.906   2.195  4.8601  0.3693 -0.0453
  716MOL0     H96616   4.772   0.784   2.344  0.2498 -0.4241  1.1758
  716MOL0     H96617   4.717   0.885   2.481 -2.1383  1.0022  0.1672
  716MOL0     H96618   4.906   1.004   2.388  1.9312  1.1487 -1.8716
  716MOL0     H96619   4.771   1.075   2.301  0.2277 -0.6065 -2.6751
  716MOL0     H96620   5.093   0.790   2.187 -0.8768  0.6467 -2.6929
  716MOL0     H96621   5.325   0.862   2.197  1.3252  1.2946  2.8343
  716MOL0     H96622   5.682   1.012   2.088 -0.6050  0.8787  0.4135
  716MOL0     H96623   5.928   1.054   2.129  0.2834 -0.9165 -0.8170
  716MOL0     H96624   6.060   1.191   2.536 -0.9840  0.7000 -2.7099
  716MOL0     H96625   6.071   1.008   2.525 -1.4147 -0.7844 -1.1042
  716MOL0     H96626   6.241   1.229   2.399  1.0689  1.4225  0.3533
  716MOL0     H96627   6.297   1.145   2.545 -0.2328 -0.6771 -0.1397
  716MOL0     H96628   6.251   0.921   2.386 -1.1163 -0.0857 -0.7821
  716MOL0     H96629   6.279   1.024   2.252  0.6236 -1.0098 -0.0773
  716MOL0     H96630   6.449   1.018   2.480 -0.0531  1.4944 -0.0973
  716MOL0     H96631   6.508   1.088   2.336  0.6415 -0.2100  1.5603
  716MOL0     H96632   6.453   0.785   2.345 -0.8524  1.9732 -0.6644
  716MOL0     H96633   6.613   0.869   2.348  0.3492 -0.4792 -0.3012
  716MOL0     H96634   6.395   0.836   2.137 -0.5566  2.1649  0.3944
  716MOL0     H96635   6.537   0.938   2.101 -2.0287  0.3100 -0.0983
  716MOL0     H96636   6.585   0.661   2.205 -0.0423 -1.1625 -1.9011
  716MOL0     H96637   6.701   0.785   2.146  0.7458 -1.5213 -0.0518
  716MOL0     H96638   6.592   0.770   1.926 -0.4533 -0.7677 -0.7709
  716MOL0     H96639   6.683   0.633   1.968  0.3791  2.1297 -4.3122
  716MOL0     H96640   5.846   1.140   2.541  1.4376 -0.0558 -0.4095
  716MOL0     H96641   5.634   1.053   2.515  5.0423 -0.3641  2.8147
  716MOL0     H96642   5.204   1.272   2.209  1.5079 -1.3870 -2.0100
  716MOL0     H96643   4.950   1.184   2.181 -0.5553 -0.4985  2.6737
  716MOL0     H96644   5.057   1.953   2.562 -1.2048 -0.7768 -3.5422
  716MOL0     H96645   5.312   1.963   2.570 -2.8693 -1.9264  1.4937
  716MOL0     H96646   5.647   2.073   2.335 -0.7691 -1.1819  0.9636
  716MOL0     H96647   5.867   2.033   2.293 -0.8288 -1.2364 -0.0613
  716MOL0     H96648   6.184   2.103   2.584 -0.4286 -1.2126 -0.2485
  716MOL0     H96649   6.163   2.278   2.538 -0.4214 -0.5692  1.7243
  716MOL0     H96650   6.297   2.237   2.320  0.5374  1.8173  0.6765
  716MOL0     H96651   6.351   2.096   2.387  1.1216  0.5361  1.0598
  716MOL0     H96652   6.389   2.356   2.520  0.2957 -1.0954  5.5463
  716MOL0     H96653   6.504   2.273   2.420 -1.6734  0.1485 -2.0203
  716MOL0     H96654   6.403   2.072   2.615 -1.7265  0.6676  1.1941
  716MOL0     H96655   6.561   2.155   2.639  0.0518  4.2176  3.9150
  716MOL0     H96656   6.325   2.365   2.904  3.0802  0.7684  0.4033
  716MOL0     H96657   5.980   2.237   2.663  1.6175  0.5816 -1.3681
  716MOL0     H96658   5.680   2.360   2.734  0.4540  0.5112  2.0619
  716MOL0     H96659   5.672   2.205   2.810  1.3438 -1.0163 -0.6311
  716MOL0     H96660   5.815   2.299   2.812 -0.8683  4.9190 -0.6569
  717MOL0     O96661   3.564   7.662   6.347 -0.1768 -0.0351 -0.0760
  717MOL0     C96662   3.552   7.711   6.233  0.7697 -0.2889 -0.3720
  717MOL0     O96663   3.451   7.681   6.139 -0.4333  0.7669 -0.6785
  717MOL0     C96664   3.351   7.596   6.176  1.1294  0.2962  0.0507
  717MOL0     C96665   3.240   7.618   6.098 -0.4388 -1.0532  0.3740
  717MOL0     C96666   3.134   7.533   6.109 -0.2658  0.4584 -0.4299
  717MOL0     C96667   3.128   7.432   6.203  0.5221 -0.4083 -0.5797
  717MOL0     O96668   3.021   7.351   6.191  0.5238  0.8985 -0.0303
  717MOL0     C96669   2.922   7.364   6.292  0.2869 -0.4778  0.4658
  717MOL0     C96670   2.850   7.228   6.312 -0.5572  0.6776  0.5832
  717MOL0     C96671   2.944   7.148   6.400 -0.0792  0.0939 -0.2677
  717MOL0     C96672   2.874   7.030   6.460 -0.6630 -0.0919 -0.5179
  717MOL0     C96673   2.921   6.973   6.590 -0.4321  0.1794 -0.0128
  717MOL0     C96674   3.048   6.881   6.559  0.8616 -0.4063 -0.3778
  717MOL0     C96675   3.070   6.782   6.677 -0.9625  0.0167  0.1947
  717MOL0     C96676   3.097   6.858   6.811 -0.1848  0.1586  0.2901
  717MOL0     N96677   3.188   6.965   6.786 -0.0605 -0.7015  0.1793
  717MOL0     C96678   3.316   6.955   6.741 -0.3551  0.4012  0.6015
  717MOL0     C96679   3.361   7.084   6.743  0.0318  0.0755 -0.4516
  717MOL0     C96680   3.500   7.140   6.723  0.1457 -0.3044 -0.1981
  717MOL0     C96681   3.517   7.214   6.587  1.3941 -0.3052  0.6116
  717MOL0     C96682   3.670   7.212   6.544  1.2595  0.4641  0.5622
  717MOL0     C96683   3.702   7.076   6.464 -0.2884  1.3715  1.0653
  717MOL0     O96684   3.619   7.043   6.346  0.1413 -0.6727 -0.4793
  717MOL0     C96685   3.592   7.140   6.247  0.7955 -0.1511 -1.3810
  717MOL0     C96686   3.481   7.121   6.166 -0.6308  0.3437  0.0436
  717MOL0     C96687   3.449   7.216   6.067 -0.4929 -0.2438  0.2438
  717MOL0     C96688   3.534   7.325   6.041 -0.1671  0.0145 -0.7608
  717MOL0     C96689   3.516   7.409   5.915  0.8252 -0.4158  0.3422
  717MOL0     O96690   3.421   7.370   5.830 -0.1323 -0.2349 -0.1014
  717MOL0     C96691   3.390   7.450   5.722 -0.2349  0.8467 -0.2170
  717MOL0     C96692   3.376   7.587   5.716 -0.7623  0.1795  0.4658
  717MOL0     C96693   3.362   7.661   5.598  1.6235  0.8341  0.3623
  717MOL0     C96694   3.351   7.596   5.473  0.2397 -0.2655 -1.3224
  717MOL0     O96695   3.346   7.681   5.371  0.7810  0.3301  0.3816
  717MOL0     C96696   3.335   7.614   5.245 -1.1241  0.2216 -0.4306
  717MOL0     C96697   3.341   7.721   5.130  0.6184  0.6803 -0.7963
  717MOL0     C96698   3.462   7.823   5.149 -0.5283  0.2344 -0.6146
  717MOL0     C96699   3.449   7.930   5.041  0.4583 -1.0129  0.2121
  717MOL0     C96700   3.538   8.059   5.045  0.0973 -0.1024 -0.3428
  717MOL0     C96701   3.561   8.119   4.905  0.3509 -0.4268  0.3843
  717MOL0     C96702   3.638   8.254   4.902  1.4445  0.1949  0.2995
  717MOL0     C96703   3.597   8.342   4.787 -0.3251  0.1084 -0.2645
  717MOL0    Cl96704   3.567   8.247   4.636  0.3565 -0.2837  0.0074
  717MOL0     C96705   3.361   7.463   5.475 -0.5470  0.8560  0.2200
  717MOL0     C96706   3.379   7.389   5.601 -0.6100  0.7499  0.0503
  717MOL0     O96707   3.593   7.506   5.903  1.1032 -0.0373  0.8406
  717MOL0     C96708   3.648   7.333   6.117  0.0545 -0.3713 -1.0848
  717MOL0     C96709   3.680   7.237   6.213  0.1297 -0.3411  1.1031
  717MOL0     N96710   3.261   7.169   6.798 -0.1277  0.5391 -0.0977
  717MOL0     N96711   3.157   7.093   6.818  0.3267 -0.0032 -0.1894
  717MOL0     C96712   3.240   7.400   6.277 -0.6568 -0.3241  0.6243
  717MOL0     C96713   3.352   7.482   6.272  0.2700 -0.9113 -0.1036
  717MOL0     C96714   3.659   7.811   6.191  0.5001  0.1063  0.0222
  717MOL0     C96715   3.686   7.827   6.052 -0.0229 -0.1079  0.2645
  717MOL0     C96716   3.784   7.924   6.001 -0.2797  0.6031  0.1886
  717MOL0     C96717   3.875   7.976   6.097  0.8954 -0.9215 -0.6597
  717MOL0     O96718   3.979   8.052   6.055 -0.3471 -0.7368  0.5384
  717MOL0     C96719   3.974   8.189   6.069  0.0945 -0.3627  0.2467
  717MOL0     C96720   3.880   8.262   5.975  0.6948  0.4616  0.2781
  717MOL0     C96721   3.758   8.321   6.057 -0.1050  0.1246  0.0646
  717MOL0     C96722   3.788   8.451   6.134 -0.4071 -0.6687  0.0842
  717MOL0     C96723   3.811   8.559   6.040 -0.4851 -0.6879 -0.3625
  717MOL0     C96724   3.822   8.658   5.975 -0.0663  0.3223 -0.2488
  717MOL0     C96725   3.861   7.934   6.232 -0.0729  0.0170 -0.1839
  717MOL0     C96726   3.759   7.849   6.277 -0.1781  0.3064 -0.2116
  717MOL0     C96727   3.754   7.842   6.432 -0.7274  0.9261  0.2659
  717MOL0     H96728   3.239   7.706   6.034 -1.4059 -1.7078 -0.5359
  717MOL0     H96729   3.041   7.556   6.057  1.2626  0.9583 -3.1122
  717MOL0     H96730   2.967   7.400   6.385  3.0172  2.8420 -1.8487
  717MOL0     H96731   2.845   7.440   6.273 -0.8347 -1.1139  2.2660
  717MOL0     H96732   2.825   7.179   6.218 -2.1123  1.0279  0.7768
  717MOL0     H96733   2.751   7.242   6.358 -1.6996 -1.9805 -0.8388
  717MOL0     H96734   2.990   7.200   6.485 -0.0346 -0.0603 -0.1973
  717MOL0     H96735   3.030   7.116   6.339 -0.3102  0.2100 -0.6602
  717MOL0     H96736   2.775   7.063   6.493  0.0365 -0.1724  1.8284
  717MOL0     H96737   2.855   6.943   6.397 -0.0244 -1.0644  0.6140
  717MOL0     H96738   2.938   7.051   6.665  1.9753 -2.2096  2.1537
  717MOL0     H96739   2.850   6.906   6.639 -1.5170  1.1955 -0.1357
  717MOL0     H96740   3.035   6.830   6.463 -3.2103 -0.5777  0.0565
  717MOL0     H96741   3.131   6.950   6.545 -0.1302  0.5883 -1.5309
  717MOL0     H96742   3.159   6.721   6.660 -1.5989 -1.0530  0.6168
  717MOL0     H96743   2.984   6.715   6.684 -2.5225  1.7915 -1.0597
  717MOL0     H96744   2.998   6.892   6.846 -1.0638 -0.6259 -1.3357
  717MOL0     H96745   3.135   6.782   6.880  0.8719 -0.6477 -1.1430
  717MOL0     H96746   3.372   6.866   6.717 -0.3230 -0.5003  3.6288
  717MOL0     H96747   3.515   7.214   6.802  0.3688  0.3749 -0.8744
  717MOL0     H96748   3.580   7.065   6.728 -0.0227 -0.5472 -1.0243
  717MOL0     H96749   3.468   7.151   6.511 -1.2606 -0.3549  2.2419
  717MOL0     H96750   3.473   7.313   6.600  1.9722  0.0250  0.1190
  717MOL0     H96751   3.745   7.215   6.624  1.2383  0.0742  0.5945
  717MOL0     H96752   3.681   7.299   6.478 -3.4580  2.1636  1.6585
  717MOL0     H96753   3.695   6.994   6.536 -1.7362  0.7706  0.2637
  717MOL0     H96754   3.809   7.083   6.441  0.3749 -1.5575  2.7739
  717MOL0     H96755   3.423   7.031   6.187  3.0306 -2.4045 -0.7491
  717MOL0     H96756   3.365   7.189   6.004  0.4825 -1.3248 -0.6351
  717MOL0     H96757   3.381   7.643   5.809 -4.8476  2.2056 -0.3028
  717MOL0     H96758   3.354   7.769   5.603  1.1127  0.8538 -0.7041
  717MOL0     H96759   3.418   7.546   5.223 -1.8907 -0.7202 -0.4862
  717MOL0     H96760   3.243   7.555   5.248  0.2193 -2.0091  2.1806
  717MOL0     H96761   3.350   7.665   5.037 -1.8532 -0.5313 -0.3969
  717MOL0     H96762   3.246   7.776   5.125  0.9130  1.1078 -2.1843
  717MOL0     H96763   3.469   7.871   5.246 -0.0945  0.2761 -0.6633
  717MOL0     H96764   3.552   7.761   5.140  1.9694  2.2740  5.5350
  717MOL0     H96765   3.348   7.970   5.052 -0.3133 -3.0485  1.1258
  717MOL0     H96766   3.455   7.894   4.938 -1.6653  2.0192 -1.0954
  717MOL0     H96767   3.637   8.051   5.091  0.3189 -0.1433 -0.8276
  717MOL0     H96768   3.492   8.140   5.102  0.9667 -0.1648  0.4801
  717MOL0     H96769   3.619   8.050   4.844  0.4067 -2.8509  2.9954
  717MOL0     H96770   3.460   8.114   4.864 -0.2651 -1.3540  1.9208
  717MOL0     H96771   3.745   8.234   4.900  1.4562  0.1288  1.2141
  717MOL0     H96772   3.611   8.308   4.993 -0.9685 -2.4277  1.3056
  717MOL0     H96773   3.504   8.381   4.828  0.5199 -1.3294  3.4634
  717MOL0     H96774   3.671   8.421   4.769  0.5061 -0.8698 -1.3267
  717MOL0     H96775   3.355   7.400   5.386 -1.1470  1.6583 -0.3227
  717MOL0     H96776   3.386   7.280   5.599 -0.8696  0.6876  1.4520
  717MOL0     H96777   3.721   7.407   6.086  0.7807  0.8299  2.9259
  717MOL0     H96778   3.781   7.234   6.251  1.3113 -0.6915 -1.8361
  717MOL0     H96779   3.241   7.313   6.342  0.5176 -1.0981 -0.3819
  717MOL0     H96780   3.441   7.456   6.328 -0.0206  2.1992  2.0774
  717MOL0     H96781   3.638   7.785   5.964  2.3194  3.5324 -3.0816
  717MOL0     H96782   3.804   7.939   5.896  1.5560  0.5350  0.5029
  717MOL0     H96783   4.075   8.231   6.063 -0.9861  3.1236  2.9800
  717MOL0     H96784   3.939   8.199   6.172 -0.4638 -1.8097  0.2245
  717MOL0     H96785   3.823   8.195   5.910  1.6136 -0.1689  0.0887
  717MOL0     H96786   3.932   8.337   5.915  0.7719  0.5250  0.4234
  717MOL0     H96787   3.738   8.244   6.132 -0.1672  0.2682  0.1954
  717MOL0     H96788   3.672   8.334   5.992 -0.9608 -0.4817  1.0425
  717MOL0     H96789   3.691   8.472   6.181  0.2715 -2.3275  2.4507
  717MOL0     H96790   3.862   8.448   6.215 -0.3105  0.7607  0.0689
  717MOL0     H96791   3.833   8.742   5.910  1.8750  0.1587 -0.1835
  717MOL0     H96792   3.952   7.964   6.283 -0.0352 -0.5475  0.0999
  717MOL0     H96793   3.666   7.891   6.476 -1.2882 -0.7061  1.0286
  717MOL0     H96794   3.749   7.738   6.463 -2.2329  1.6716  2.8006
  717MOL0     H96795   3.837   7.900   6.474  0.6452  0.0129 -1.0713
  718MOL0     O96796   7.132   6.644   1.412 -0.0977  0.2276 -0.1484
  718MOL0     C96797   7.055   6.723   1.352 -1.4735 -0.1625  0.2681
  718MOL0     O96798   7.099   6.789   1.241  0.5484 -0.1961 -0.2635
  718MOL0     C96799   7.235   6.786   1.212 -0.2060  0.2472  0.7916
  718MOL0     C96800   7.335   6.854   1.281 -0.1762 -0.1735 -0.1352
  718MOL0     C96801   7.471   6.835   1.257  0.3521 -0.5898 -0.3727
  718MOL0     C96802   7.525   6.750   1.169 -0.0101  0.7066  0.9259
  718MOL0     O96803   7.651   6.717   1.153 -0.7674 -0.5575 -0.5785
  718MOL0     C96804   7.733   6.827   1.104 -0.5392  0.0749  0.4833
  718MOL0     C96805   7.727   6.845   0.955  0.3117  0.6648 -0.1360
  718MOL0     C96806   7.813   6.963   0.896 -0.0451  0.1691  0.2295
  718MOL0     C96807   7.959   6.949   0.929 -1.3730  0.3509  0.1393
  718MOL0     C96808   8.066   7.057   0.879  0.1837  0.6128 -0.0689
  718MOL0     C96809   8.189   7.034   0.963  0.3461  0.1492 -1.0333
  718MOL0     C96810   8.318   7.090   0.906  0.6469  0.3411  0.0988
  718MOL0     C96811   8.437   7.023   0.983 -0.0732 -0.1113  0.0753
  718MOL0     N96812   8.557   7.075   0.926  0.1734  0.4377  0.3809
  718MOL0     C96813   8.608   7.035   0.800  1.1223 -0.6981  1.3432
  718MOL0     C96814   8.731   7.087   0.795  0.3269 -0.3006  0.1779
  718MOL0     C96815   8.836   7.053   0.692 -0.4118 -0.1509  0.1008
  718MOL0     C96816   8.954   6.965   0.735  0.2275 -0.6463 -0.0592
  718MOL0     C96817   9.042   7.016   0.849 -0.5460  0.7001 -0.0548
  718MOL0     C96818   9.102   7.153   0.824  0.1487  0.1908  0.7948
  718MOL0     O96819   9.234   7.161   0.888  0.4405  0.6832 -1.0887
  718MOL0     C96820   9.292   7.285   0.887  0.1186  0.1568 -0.0393
  718MOL0     C96821   9.273   7.378   0.783  0.6722  1.0992 -0.5625
  718MOL0     C96822   9.360   7.485   0.773 -0.1835  0.1906  0.6799
  718MOL0     C96823   9.465   7.518   0.860 -0.0335 -0.3618  0.7071
  718MOL0     C96824   9.553   7.640   0.853 -0.5766  0.3778 -0.0199
  718MOL0     O96825   9.656   7.644   0.943 -0.2626  0.1463 -0.1112
  718MOL0     C96826   9.752   7.743   0.936 -0.0859 -0.2844 -0.9248
  718MOL0     C96827   9.891   7.712   0.945  0.2405 -0.0030  0.4635
  718MOL0     C96828   9.989   7.808   0.947  0.0372 -0.8311  0.5962
  718MOL0     C96829   9.950   7.943   0.939  0.5922 -0.7683  0.0062
  718MOL0     O96830  10.048   8.029   0.966 -0.2410  0.5631 -0.4499
  718MOL0     C96831  10.044   8.162   0.911  0.0312 -0.4437  0.3100
  718MOL0     C96832  10.172   8.237   0.935 -0.2422  0.5223  0.1404
  718MOL0     C96833  10.129   8.381   0.960  0.3829 -0.4273  0.7513
  718MOL0     C96834  10.246   8.474   0.911  0.4300  0.4493 -0.3241
  718MOL0     C96835  10.219   8.499   0.754 -0.1941 -0.4211 -0.4363
  718MOL0     C96836  10.314   8.609   0.717  0.1926  0.7448  0.3877
  718MOL0     C96837  10.289   8.663   0.577 -0.9059  0.3487 -0.7406
  718MOL0     C96838  10.172   8.764   0.583 -0.8807 -0.5923  0.3705
  718MOL0    Cl96839  10.215   8.925   0.628 -0.0398 -0.1732  0.0216
  718MOL0     C96840   9.811   7.968   0.922  0.1088  0.0550 -1.2433
  718MOL0     C96841   9.714   7.872   0.925  0.2521  0.3018 -0.3103
  718MOL0     O96842   9.535   7.713   0.754 -0.3130 -0.6223 -0.1315
  718MOL0     C96843   9.480   7.420   0.959 -0.6204 -0.6724 -0.1986
  718MOL0     C96844   9.395   7.312   0.972  0.0078  0.0801  0.4462
  718MOL0     N96845   8.746   7.170   0.901 -0.4261  0.1621 -0.4955
  718MOL0     N96846   8.644   7.161   0.976 -1.0956  0.4503 -0.3580
  718MOL0     C96847   7.428   6.672   1.091  1.0681 -0.1502 -0.1972
  718MOL0     C96848   7.290   6.698   1.119  0.1564  0.3864 -0.3188
  718MOL0     C96849   6.919   6.743   1.386 -0.2911 -0.0318  0.4168
  718MOL0     C96850   6.877   6.866   1.439 -0.4627 -0.6751 -0.0811
  718MOL0     C96851   6.759   6.904   1.501  0.7207  0.4812  0.8394
  718MOL0     C96852   6.655   6.802   1.503  0.9296 -0.3315  0.3735
  718MOL0     O96853   6.519   6.827   1.550 -0.3033  0.0130  0.4271
  718MOL0     C96854   6.405   6.747   1.502 -0.1250 -0.6517  0.2204
  718MOL0     C96855   6.262   6.787   1.559 -0.9909 -0.2535  1.2955
  718MOL0     C96856   6.166   6.776   1.440  0.6051  1.1414  0.4000
  718MOL0     C96857   6.023   6.808   1.473  0.6472  0.1261  0.1269
  718MOL0     C96858   5.951   6.716   1.562  0.2449 -0.5286 -0.9552
  718MOL0     C96859   5.903   6.631   1.628 -0.3424  0.7703  0.5692
  718MOL0     C96860   6.693   6.670   1.461  0.8369  0.4740 -0.5210
  718MOL0     C96861   6.826   6.638   1.415  0.3186  0.1623 -0.2050
  718MOL0     C96862   6.872   6.492   1.384  1.0597 -0.3980 -0.0696
  718MOL0     H96863   7.305   6.932   1.350 -1.5190 -0.1166 -0.7712
  718MOL0     H96864   7.542   6.894   1.316  1.0954 -0.1218 -1.6904
  718MOL0     H96865   7.703   6.920   1.153 -1.4240 -1.8907  4.0455
  718MOL0     H96866   7.832   6.821   1.148 -0.2797  0.7778  0.0206
  718MOL0     H96867   7.624   6.861   0.923 -0.5083 -0.1092  1.9602
  718MOL0     H96868   7.757   6.756   0.900  1.4128  2.5398 -2.8129
  718MOL0     H96869   7.775   7.052   0.947 -0.7574  2.0883 -3.2976
  718MOL0     H96870   7.807   6.981   0.788  4.3141 -0.7326 -0.3272
  718MOL0     H96871   7.966   6.935   1.038 -3.3473  1.2979  0.4332
  718MOL0     H96872   7.984   6.854   0.882  0.8122 -0.8095  3.2970
  718MOL0     H96873   8.072   7.056   0.770 -0.3156 -2.3476 -0.1491
  718MOL0     H96874   8.038   7.157   0.913  1.2140  1.4957 -1.6770
  718MOL0     H96875   8.172   7.084   1.059 -0.6550  1.1776 -1.7103
  718MOL0     H96876   8.195   6.926   0.974  0.6571  0.2889  0.3555
  718MOL0     H96877   8.313   7.198   0.926  1.0925  0.4854 -0.5730
  718MOL0     H96878   8.316   7.067   0.800  0.6027  0.0031  0.1722
  718MOL0     H96879   8.427   7.067   1.083  3.8657  2.8490 -0.5797
  718MOL0     H96880   8.434   6.914   0.977  1.1742 -0.1964  0.5773
  718MOL0     H96881   8.559   6.978   0.721 -1.2099  0.2230  2.0410
  718MOL0     H96882   8.784   7.008   0.607  1.5289  1.6417 -2.1813
  718MOL0     H96883   8.883   7.139   0.643  1.2562 -0.5253  0.9592
  718MOL0     H96884   8.920   6.866   0.765  0.3375 -1.1015 -1.3592
  718MOL0     H96885   9.009   6.950   0.641  0.0818  0.9995 -0.4319
  718MOL0     H96886   9.125   6.950   0.879 -1.3049 -0.0127  0.5197
  718MOL0     H96887   8.987   7.030   0.942  1.4173 -0.9424  1.4446
  718MOL0     H96888   9.032   7.231   0.856  0.9997  1.3537 -0.1122
  718MOL0     H96889   9.111   7.155   0.715  1.4392  0.1284  0.8888
  718MOL0     H96890   9.195   7.356   0.712  0.8895 -1.4999 -0.1240
  718MOL0     H96891   9.329   7.569   0.712  1.6048  0.0087 -0.5699
  718MOL0     H96892   9.933   7.612   0.950  3.1055  0.9261 -1.7994
  718MOL0     H96893  10.091   7.774   0.961  0.4862 -0.6523 -1.8569
  718MOL0     H96894  10.042   8.157   0.801  0.6800  1.2037  0.1929
  718MOL0     H96895   9.956   8.213   0.952  0.8503  1.7907 -0.5209
  718MOL0     H96896  10.222   8.190   1.020  1.9188 -2.3099 -2.5060
  718MOL0     H96897  10.249   8.232   0.858  0.4149  0.1362  0.8044
  718MOL0     H96898  10.042   8.419   0.904  3.3023  4.7996 -0.9883
  718MOL0     H96899  10.121   8.397   1.068  3.3993  1.1819  0.8464
  718MOL0     H96900  10.345   8.435   0.936  0.7364  0.3545 -1.6091
  718MOL0     H96901  10.236   8.568   0.967 -0.5931 -0.2904  0.7755
  718MOL0     H96902  10.113   8.528   0.747 -0.3172 -0.2543  1.4577
  718MOL0     H96903  10.229   8.405   0.700 -0.2803 -2.9083  3.4315
  718MOL0     H96904  10.317   8.689   0.792  1.7917  1.5331 -0.4584
  718MOL0     H96905  10.417   8.573   0.711 -0.5471 -1.4980  0.3991
  718MOL0     H96906  10.276   8.575   0.515  2.1928  1.7296 -3.6570
  718MOL0     H96907  10.380   8.713   0.542  1.2357 -0.1691  3.4118
  718MOL0     H96908  10.126   8.777   0.484  0.7910  0.5123 -0.3057
  718MOL0     H96909  10.088   8.732   0.646 -1.2657 -2.0876 -0.8402
  718MOL0     H96910   9.787   8.074   0.927  1.5286  0.4950 -2.8933
  718MOL0     H96911   9.611   7.903   0.917  0.7427  1.8779 -0.9663
  718MOL0     H96912   9.559   7.442   1.031  1.2368 -0.7486 -2.0985
  718MOL0     H96913   9.387   7.239   1.052  3.9727  0.8204  1.7421
  718MOL0     H96914   7.456   6.601   1.014  0.4415 -2.0651  1.2390
  718MOL0     H96915   7.235   6.631   1.054 -1.0784  1.0834 -0.0331
  718MOL0     H96916   6.938   6.954   1.419  0.6586 -1.5406 -0.5581
  718MOL0     H96917   6.730   7.002   1.536  0.7770  0.0475  2.1502
  718MOL0     H96918   6.420   6.644   1.535 -0.5812 -0.8810 -0.2780
  718MOL0     H96919   6.406   6.751   1.393  0.0911  1.6704  0.2640
  718MOL0     H96920   6.271   6.891   1.592  0.4209 -0.6084  2.0692
  718MOL0     H96921   6.234   6.721   1.641  2.6997 -3.0913  0.5151
  718MOL0     H96922   6.172   6.673   1.403  3.0906  1.5952 -0.6647
  718MOL0     H96923   6.200   6.840   1.358 -0.1224  0.0701 -0.7881
  718MOL0     H96924   6.029   6.902   1.529  0.6037 -0.5785  1.3542
  718MOL0     H96925   5.963   6.826   1.383  2.7733  1.5775 -1.0806
  718MOL0     H96926   5.852   6.568   1.699 -2.0720  1.9822  0.4506
  718MOL0     H96927   6.641   6.576   1.471 -0.2738  1.3459  3.7254
  718MOL0     H96928   6.961   6.494   1.320  2.0949 -0.7944  1.3038
  718MOL0     H96929   6.900   6.442   1.476  0.7136 -1.8753 -0.7412
  718MOL0     H96930   6.795   6.441   1.325  1.2217 -1.4074  0.5669
  719MOL0     O96931   5.414   6.810   1.997  0.0749 -0.4410 -0.1042
  719MOL0     C96932   5.369   6.698   2.027 -0.2918  0.2002 -0.0510
  719MOL0     O96933   5.299   6.614   1.938 -0.1389  0.1434  0.3587
  719MOL0     C96934   5.249   6.678   1.827  0.3996 -0.9217  0.2075
  719MOL0     C96935   5.120   6.739   1.835  0.3279 -0.0045  0.4272
  719MOL0     C96936   5.066   6.794   1.720  0.3809 -0.2158  0.0789
  719MOL0     C96937   5.126   6.788   1.595 -0.3711 -0.5069  0.7972
  719MOL0     O96938   5.080   6.855   1.481  0.3712 -0.3470 -0.0542
  719MOL0     C96939   4.970   6.945   1.495  1.1488 -0.4736  0.7914
  719MOL0     C96940   4.976   7.045   1.380 -0.2743  0.3051 -0.0079
  719MOL0     C96941   4.836   7.106   1.344 -0.2030 -0.5036 -0.5449
  719MOL0     C96942   4.823   7.257   1.397 -1.1837  0.0207 -0.2907
  719MOL0     C96943   4.722   7.346   1.329 -0.3776  0.5292  0.0596
  719MOL0     C96944   4.577   7.286   1.330 -0.5578  1.1369 -0.5674
  719MOL0     C96945   4.473   7.388   1.282  0.1531 -0.6875 -0.0809
  719MOL0     C96946   4.334   7.323   1.260  0.3136  0.1436  0.6318
  719MOL0     N96947   4.283   7.248   1.375 -0.4179  0.7370 -0.8024
  719MOL0     C96948   4.219   7.295   1.490 -0.1482  0.0232  0.3900
  719MOL0     C96949   4.151   7.191   1.544  0.1112 -1.0390  0.1975
  719MOL0     C96950   4.040   7.182   1.645 -0.7632 -0.4398 -0.1042
  719MOL0     C96951   4.058   7.257   1.774 -0.2727 -0.4226  0.1761
  719MOL0     C96952   3.945   7.254   1.875 -0.0715  0.4189 -0.6883
  719MOL0     C96953   3.989   7.316   1.999  0.5982  0.6880  0.3773
  719MOL0     O96954   3.882   7.330   2.094  0.5287 -0.1310 -0.9337
  719MOL0     C96955   3.916   7.370   2.228  0.4981  0.2727  0.7630
  719MOL0     C96956   4.047   7.414   2.270  0.2044  0.0997  0.4676
  719MOL0     C96957   4.065   7.462   2.399 -0.2282  0.7456 -0.2440
  719MOL0     C96958   3.966   7.452   2.495 -0.1752  0.2532  0.0192
  719MOL0     C96959   3.993   7.474   2.645  0.1148 -0.4513  0.8322
  719MOL0     O96960   4.096   7.562   2.673  1.0559  0.3727  0.5762
  719MOL0     C96961   4.085   7.614   2.800  0.2797  0.2474  0.5682
  719MOL0     C96962   4.024   7.734   2.837  0.9165  0.2286  1.2481
  719MOL0     C96963   4.040   7.779   2.967  0.1764 -0.7895  0.4127
  719MOL0     C96964   4.092   7.700   3.061 -0.3894  1.2817 -0.8382
  719MOL0     O96965   4.088   7.743   3.193  0.1215  0.3136  0.3619
  719MOL0     C96966   4.223   7.779   3.232 -0.0690 -0.5648 -0.1707
  719MOL0     C96967   4.257   7.718   3.365 -0.2709 -1.0137 -0.1593
  719MOL0     C96968   4.404   7.771   3.397  0.8149 -0.0972 -0.6371
  719MOL0     C96969   4.427   7.744   3.545  0.6653  0.9479 -0.4249
  719MOL0     C96970   4.571   7.737   3.577  0.9284 -0.1673 -0.5639
  719MOL0     C96971   4.593   7.669   3.721  0.4740 -0.1259  0.2552
  719MOL0     C96972   4.545   7.737   3.851 -0.2523  1.1893  1.0260
  719MOL0     C96973   4.606   7.659   3.974  0.6782  0.4783 -0.5093
  719MOL0    Cl96974   4.540   7.723   4.122  0.0192 -0.0733 -0.4057
  719MOL0     C96975   4.157   7.590   3.022  0.3391  0.6568  1.2737
  719MOL0     C96976   4.161   7.542   2.891  1.0345  1.6182  0.6741
  719MOL0     O96977   3.918   7.425   2.727  0.7723  0.0171  0.6102
  719MOL0     C96978   3.830   7.420   2.458 -0.3558 -0.5701  0.1523
  719MOL0     C96979   3.818   7.376   2.325  0.4473  0.1334 -0.8101
  719MOL0     N96980   4.200   7.079   1.478  0.1580  0.2132 -0.5151
  719MOL0     N96981   4.276   7.115   1.380 -1.1145  0.5098 -0.3860
  719MOL0     C96982   5.262   6.736   1.593 -0.6928 -0.9804 -0.2859
  719MOL0     C96983   5.314   6.670   1.704 -0.3371  1.1970  0.2349
  719MOL0     C96984   5.380   6.651   2.167 -0.4766  0.5992 -0.2248
  719MOL0     C96985   5.429   6.739   2.268 -0.3202  0.0120 -0.2811
  719MOL0     C96986   5.450   6.696   2.401  0.2334 -0.0347 -1.0127
  719MOL0     C96987   5.428   6.564   2.441  0.5675 -0.8055  0.3193
  719MOL0     O96988   5.461   6.513   2.565 -0.0813 -1.0534 -0.2731
  719MOL0     C96989   5.594   6.539   2.614 -0.1823 -0.5982 -0.0722
  719MOL0     C96990   5.599   6.661   2.714 -0.1319  0.2459  0.3309
  719MOL0     C96991   5.474   6.669   2.808 -0.5265  0.1530  0.3135
  719MOL0     C96992   5.490   6.799   2.880  0.5417  0.0020  0.1922
  719MOL0     C96993   5.431   6.804   3.012 -0.2672  0.8080 -0.3351
  719MOL0     C96994   5.392   6.816   3.122  0.3072 -0.1374 -0.9417
  719MOL0     C96995   5.379   6.478   2.341  0.1003  0.2708 -0.2312
  719MOL0     C96996   5.349   6.517   2.208  0.1644  1.8072 -0.7305
  719MOL0     C96997   5.295   6.407   2.121  0.6230 -0.3566  1.0204
  719MOL0     H96998   5.066   6.734   1.929  3.2778 -1.2138  2.2016
  719MOL0     H96999   4.968   6.837   1.734 -0.5314 -1.1743 -2.6509
  719MOL0     H97000   4.877   6.889   1.480  1.0571  0.1490 -1.2326
  719MOL0     H97001   4.976   7.001   1.589 -2.9958 -1.4324  1.8512
  719MOL0     H97002   5.011   6.994   1.290 -0.9423  1.2966 -0.8581
  719MOL0     H97003   5.059   7.115   1.396  1.3260 -1.6072  0.3420
  719MOL0     H97004   4.750   7.064   1.397 -0.0742  1.7894  1.6700
  719MOL0     H97005   4.820   7.123   1.237 -1.0835  0.9106 -0.2163
  719MOL0     H97006   4.797   7.255   1.503  2.0381 -1.6045  0.5688
  719MOL0     H97007   4.921   7.304   1.388 -0.6326 -0.7174  1.3922
  719MOL0     H97008   4.715   7.448   1.368  3.1296  0.6843  0.6222
  719MOL0     H97009   4.757   7.357   1.226  1.5060 -2.3927  0.2781
  719MOL0     H97010   4.565   7.197   1.267  2.5245  1.5017 -1.8332
  719MOL0     H97011   4.551   7.265   1.434 -3.3132  3.1240 -0.7298
  719MOL0     H97012   4.510   7.425   1.186  0.3227  0.2182  0.3261
  719MOL0     H97013   4.446   7.467   1.353  0.0167 -0.4209 -0.4269
  719MOL0     H97014   4.268   7.408   1.241 -0.1500 -0.7250 -2.0727
  719MOL0     H97015   4.328   7.261   1.170 -1.3222  2.6066 -1.0763
  719MOL0     H97016   4.217   7.392   1.539 -0.9946 -0.2549  0.9328
  719MOL0     H97017   3.958   7.218   1.582 -0.7271  3.6411  1.8615
  719MOL0     H97018   4.024   7.078   1.671  0.9553 -0.9422 -0.9277
  719MOL0     H97019   4.150   7.219   1.820 -0.0175 -0.8630 -0.6837
  719MOL0     H97020   4.089   7.360   1.751 -3.3041  1.4074  3.3198
  719MOL0     H97021   3.915   7.151   1.894 -3.6207  1.1575 -1.6098
  719MOL0     H97022   3.859   7.310   1.837  0.3900  0.0229 -2.3786
  719MOL0     H97023   4.038   7.412   1.980  0.4605  0.9816  1.4277
  719MOL0     H97024   4.070   7.254   2.038 -0.6282 -1.0222  0.3481
  719MOL0     H97025   4.135   7.402   2.208 -1.3060 -2.8381 -1.2709
  719MOL0     H97026   4.168   7.479   2.429  0.0415 -0.9000 -0.1199
  719MOL0     H97027   3.981   7.802   2.764  1.8733  0.6832  1.0928
  719MOL0     H97028   3.984   7.867   2.996 -2.8234 -2.2334 -0.6278
  719MOL0     H97029   4.296   7.729   3.168 -0.5091  0.5947 -1.6419
  719MOL0     H97030   4.232   7.888   3.234 -1.4983 -0.4291 -0.4143
  719MOL0     H97031   4.198   7.758   3.448  2.4466 -0.2324  1.5550
  719MOL0     H97032   4.245   7.611   3.350  0.9882 -1.1519 -0.3029
  719MOL0     H97033   4.473   7.718   3.331  1.0749 -1.4390  0.6606
  719MOL0     H97034   4.418   7.879   3.385 -2.8281  0.5392 -0.1834
  719MOL0     H97035   4.395   7.640   3.555 -0.4929  1.2471 -0.7868
  719MOL0     H97036   4.369   7.796   3.622  1.8675  1.5143  0.1211
  719MOL0     H97037   4.615   7.837   3.571  1.9987 -0.4896  1.2256
  719MOL0     H97038   4.614   7.672   3.500  1.6063  0.8188 -1.0398
  719MOL0     H97039   4.539   7.575   3.703 -1.2332  1.1447 -1.7779
  719MOL0     H97040   4.701   7.660   3.736  0.4862  3.1809  3.4082
  719MOL0     H97041   4.436   7.742   3.854 -0.4636  1.7902 -2.9951
  719MOL0     H97042   4.576   7.842   3.861  0.7907  0.7347  3.3281
  719MOL0     H97043   4.569   7.556   3.960  1.0320  0.2248  0.3962
  719MOL0     H97044   4.715   7.656   3.971  0.7291 -1.6418  1.0074
  719MOL0     H97045   4.207   7.541   3.105 -0.5497  1.1802  2.1345
  719MOL0     H97046   4.209   7.451   2.856 -0.3596  1.9439 -2.4077
  719MOL0     H97047   3.751   7.418   2.532 -0.0615  1.4072  0.5678
  719MOL0     H97048   3.720   7.342   2.294  0.5786  1.0545 -2.3415
  719MOL0     H97049   5.325   6.744   1.505 -1.6942 -0.9055 -1.0039
  719MOL0     H97050   5.409   6.617   1.707 -2.2211 -2.5794  3.3944
  719MOL0     H97051   5.445   6.846   2.262  1.1094 -0.0402  1.6861
  719MOL0     H97052   5.477   6.774   2.472  0.5810 -0.9818 -0.0715
  719MOL0     H97053   5.675   6.570   2.547  3.3876 -1.2535  3.5083
  719MOL0     H97054   5.637   6.445   2.649 -0.5684  0.1045  2.4591
  719MOL0     H97055   5.606   6.761   2.670  0.3328 -0.1507 -0.5120
  719MOL0     H97056   5.690   6.657   2.775 -0.5958 -1.4454  0.9551
  719MOL0     H97057   5.473   6.586   2.878  1.1289  1.4223  1.9380
  719MOL0     H97058   5.381   6.663   2.750  1.6601  3.2197 -4.1282
  719MOL0     H97059   5.597   6.821   2.886  0.6763  1.3859 -4.0938
  719MOL0     H97060   5.459   6.882   2.816  2.4846  0.1804 -0.5827
  719MOL0     H97061   5.360   6.820   3.225  2.1608 -3.4202 -0.0954
  719MOL0     H97062   5.350   6.380   2.376  0.8357  1.1289  3.0959
  719MOL0     H97063   5.365   6.387   2.040 -2.0517  2.0528 -2.1404
  719MOL0     H97064   5.274   6.310   2.167  2.0913  0.1149  2.8612
  719MOL0     H97065   5.204   6.442   2.072  0.4438 -0.4854  1.2609
  720MOL0     O97066   8.354   2.941   3.060 -0.4057  0.1162 -0.0704
  720MOL0     C97067   8.251   3.005   3.073  0.1137 -0.4045  0.3708
  720MOL0     O97068   8.212   3.074   3.184 -0.2839  0.0548 -0.2593
  720MOL0     C97069   8.293   3.070   3.302  0.3884 -0.6897  0.3518
  720MOL0     C97070   8.425   3.104   3.298  0.8414 -0.9120  1.0788
  720MOL0     C97071   8.490   3.115   3.422  0.0960  0.0714 -0.5134
  720MOL0     C97072   8.435   3.073   3.543  0.3371  0.2921  0.8207
  720MOL0     O97073   8.498   3.074   3.660  0.0753 -0.0046 -0.8640
  720MOL0     C97074   8.437   3.147   3.770 -1.0996  0.3377  0.2060
  720MOL0     C97075   8.535   3.171   3.889  0.7458  0.0668 -0.2383
  720MOL0     C97076   8.639   3.278   3.840 -0.0133  0.5277  0.0282
  720MOL0     C97077   8.788   3.253   3.868  0.3103  0.8108 -0.5278
  720MOL0     C97078   8.819   3.226   4.025 -0.8249  0.1525 -0.0572
  720MOL0     C97079   8.797   3.354   4.106 -0.2664  0.6784 -0.2055
  720MOL0     C97080   8.861   3.492   4.061 -0.0826 -0.9056 -0.5448
  720MOL0     C97081   8.817   3.596   4.168  0.0049 -0.2799  0.4318
  720MOL0     N97082   8.915   3.702   4.174  0.1722  0.2411 -0.8094
  720MOL0     C97083   8.907   3.826   4.142  0.3098 -0.8102  0.6985
  720MOL0     C97084   9.006   3.892   4.203 -0.7241  0.3754  0.5362
  720MOL0     C97085   9.013   4.045   4.218  0.4253 -1.0006  0.4838
  720MOL0     C97086   9.154   4.100   4.251  0.7266 -0.3719  0.6207
  720MOL0     C97087   9.173   4.250   4.273  0.5039  0.1969  0.3499
  720MOL0     C97088   9.309   4.274   4.348  1.1104  0.4996 -0.4556
  720MOL0     O97089   9.321   4.418   4.362  0.1501 -0.3240  0.2831
  720MOL0     C97090   9.437   4.486   4.338 -1.1738 -0.4580  0.2228
  720MOL0     C97091   9.430   4.617   4.347  0.5894 -0.2617 -0.6124
  720MOL0     C97092   9.532   4.701   4.335  0.4934  0.5464 -0.3177
  720MOL0     C97093   9.653   4.654   4.308 -0.8270  0.7991  0.8744
  720MOL0     C97094   9.763   4.745   4.301  0.8317 -0.7735 -0.6814
  720MOL0     O97095   9.728   4.867   4.255  0.2031  0.1899  0.6904
  720MOL0     C97096   9.831   4.958   4.224  0.2127  0.3228 -0.3038
  720MOL0     C97097   9.878   5.032   4.332  0.0679 -0.3135  0.4369
  720MOL0     C97098   9.977   5.128   4.305  0.0352  0.9244 -1.3174
  720MOL0     C97099  10.015   5.160   4.174  0.9960  0.5632  0.2194
  720MOL0     O97100  10.098   5.261   4.134 -0.1746  0.3058 -0.4933
  720MOL0     C97101  10.147   5.352   4.229 -0.1446  0.5042  0.0093
  720MOL0     C97102  10.239   5.438   4.151  1.0233 -0.4429 -0.2691
  720MOL0     C97103  10.381   5.378   4.120  0.2779 -0.4364 -0.2115
  720MOL0     C97104  10.491   5.415   4.220 -0.5531  0.0731 -0.9966
  720MOL0     C97105  10.616   5.325   4.197 -0.6104  0.4871  0.2853
  720MOL0     C97106  10.739   5.394   4.265 -0.8280 -0.7581  0.0737
  720MOL0     C97107  10.813   5.493   4.174  0.6757 -0.1118  0.5533
  720MOL0     C97108  10.951   5.514   4.221 -0.2698  0.1188  0.2916
  720MOL0    Cl97109  11.048   5.371   4.172  0.1605 -0.5794  0.1553
  720MOL0     C97110   9.953   5.079   4.068  0.7836  0.4417  0.1170
  720MOL0     C97111   9.874   4.973   4.097 -0.1765 -0.1256  0.4035
  720MOL0     O97112   9.868   4.702   4.337  0.4093 -0.4322  0.2828
  720MOL0     C97113   9.667   4.519   4.287  0.3752 -0.3196  0.1507
  720MOL0     C97114   9.559   4.434   4.295  0.1801  0.7966 -0.5347
  720MOL0     N97115   9.071   3.797   4.285 -0.5580 -0.0040 -0.6189
  720MOL0     N97116   9.016   3.687   4.277  0.6104 -0.4997  0.1362
  720MOL0     C97117   8.310   3.020   3.534  0.1521 -0.0682 -0.3670
  720MOL0     C97118   8.232   3.023   3.416 -0.4689  0.8268 -0.1693
  720MOL0     C97119   8.143   2.981   2.955 -0.0276  0.0132 -0.2350
  720MOL0     C97120   8.196   2.944   2.828  0.1809 -0.3255  0.2221
  720MOL0     C97121   8.125   2.903   2.725  0.0809 -0.1150 -1.0231
  720MOL0     C97122   7.990   2.894   2.739  0.4187 -0.1423  0.0761
  720MOL0     O97123   7.924   2.853   2.629  0.8081  0.7210  0.1727
  720MOL0     C97124   7.780   2.854   2.614 -0.5826 -1.0619 -1.1437
  720MOL0     C97125   7.715   2.998   2.601  0.5143  0.8228  0.2760
  720MOL0     C97126   7.573   2.993   2.648  0.0433  0.0931  0.3028
  720MOL0     C97127   7.466   2.907   2.576  0.3330 -0.8746  0.6171
  720MOL0     C97128   7.479   2.918   2.425 -0.8742  0.0722 -0.9928
  720MOL0     C97129   7.484   2.935   2.305  0.2926 -0.1657 -0.7289
  720MOL0     C97130   7.935   2.916   2.864 -0.2927 -0.6471  0.0977
  720MOL0     C97131   8.004   2.960   2.974  0.4795  1.3162  1.1672
  720MOL0     C97132   7.923   2.977   3.100 -0.4854 -0.3799  0.3470
  720MOL0     H97133   8.461   3.140   3.202 -1.7172  0.5446  0.5676
  720MOL0     H97134   8.588   3.161   3.415 -0.6882  1.6273 -2.6761
  720MOL0     H97135   8.398   3.246   3.744  1.2260  1.3419  0.2616
  720MOL0     H97136   8.354   3.081   3.797 -1.4427  0.6313 -0.1105
  720MOL0     H97137   8.594   3.083   3.915  1.8462  1.0719  0.8354
  720MOL0     H97138   8.476   3.206   3.974  0.6161 -1.0833  0.1543
  720MOL0     H97139   8.606   3.370   3.889  3.6598  0.7414  2.4962
  720MOL0     H97140   8.642   3.281   3.731  0.9010 -1.1010 -0.0199
  720MOL0     H97141   8.815   3.164   3.810 -2.6114  0.3051 -1.2662
  720MOL0     H97142   8.842   3.333   3.817  0.3243  1.1055 -0.0574
  720MOL0     H97143   8.759   3.149   4.075  0.6021  0.0963  1.6450
  720MOL0     H97144   8.924   3.194   4.029 -0.5110  1.1635 -0.0821
  720MOL0     H97145   8.689   3.368   4.118 -0.4185  0.8860 -1.6307
  720MOL0     H97146   8.843   3.324   4.200 -0.5487 -0.7015 -0.4839
  720MOL0     H97147   8.818   3.523   3.965 -3.8602 -0.4671  1.1351
  720MOL0     H97148   8.969   3.478   4.050 -0.0111  0.3664 -1.7090
  720MOL0     H97149   8.720   3.636   4.137  0.4476  1.4152  1.0783
  720MOL0     H97150   8.802   3.538   4.260 -2.0653 -4.0679 -2.0373
  720MOL0     H97151   8.819   3.866   4.092  1.5687  4.2935  1.9082
  720MOL0     H97152   8.982   4.090   4.124 -0.2447  2.4856  2.2025
  720MOL0     H97153   8.942   4.070   4.298  1.6984  0.9683  1.0794
  720MOL0     H97154   9.190   4.049   4.340 -1.7714 -1.6391  1.0092
  720MOL0     H97155   9.215   4.078   4.163  0.0988 -5.2305  1.1329
  720MOL0     H97156   9.079   4.288   4.313 -1.4165 -2.1654 -1.6438
  720MOL0     H97157   9.182   4.295   4.173  0.1012 -0.8934 -0.1868
  720MOL0     H97158   9.390   4.223   4.296  3.4321  2.6147  0.8942
  720MOL0     H97159   9.297   4.233   4.448 -0.4878 -1.5444 -1.4030
  720MOL0     H97160   9.336   4.654   4.386  1.1228  0.2301  0.2304
  720MOL0     H97161   9.519   4.806   4.358  2.0088  0.6439  0.2084
  720MOL0     H97162   9.845   5.003   4.431 -3.0183 -0.4391 -0.5495
  720MOL0     H97163  10.016   5.175   4.395  0.5637 -2.4933  0.4357
  720MOL0     H97164  10.055   5.396   4.270 -0.4363 -0.8396  0.8568
  720MOL0     H97165  10.203   5.294   4.303 -3.9013 -1.0595  1.9183
  720MOL0     H97166  10.186   5.460   4.057 -0.6298  1.0534  0.9457
  720MOL0     H97167  10.245   5.531   4.208  0.8159 -0.8744  0.4690
  720MOL0     H97168  10.379   5.272   4.095 -0.9445 -0.7826  1.1628
  720MOL0     H97169  10.414   5.433   4.032  1.9471  1.0294  1.2553
  720MOL0     H97170  10.469   5.391   4.324  1.0524 -4.6418 -1.5132
  720MOL0     H97171  10.507   5.523   4.218 -4.7534  1.0162  2.7641
  720MOL0     H97172  10.638   5.308   4.091 -0.1399  0.7720  0.3367
  720MOL0     H97173  10.589   5.222   4.223 -2.1281  1.2562  1.9495
  720MOL0     H97174  10.703   5.448   4.354  2.5061  1.8307  0.0463
  720MOL0     H97175  10.809   5.317   4.299  0.4465  0.6623  0.7866
  720MOL0     H97176  10.767   5.591   4.156 -0.0013 -0.7137 -1.2380
  720MOL0     H97177  10.811   5.458   4.070 -0.2394 -0.8417  0.8023
  720MOL0     H97178  10.997   5.607   4.185 -0.1483  1.6163  3.9049
  720MOL0     H97179  10.951   5.527   4.329 -2.8206  2.0130  0.1467
  720MOL0     H97180   9.963   5.101   3.962 -1.3197 -1.0187 -0.4269
  720MOL0     H97181   9.842   4.908   4.016 -0.9639  3.3784 -2.3585
  720MOL0     H97182   9.764   4.471   4.282 -0.1792 -2.3656  4.2261
  720MOL0     H97183   9.567   4.326   4.281  2.0645  0.5458  1.8309
  720MOL0     H97184   8.267   2.976   3.624  1.0691 -1.3511 -0.5366
  720MOL0     H97185   8.134   2.977   3.406  0.4965 -1.1708 -0.9751
  720MOL0     H97186   8.303   2.944   2.810  0.8387  1.7030  3.2947
  720MOL0     H97187   8.173   2.884   2.629  1.4031  1.4976 -0.7336
  720MOL0     H97188   7.739   2.798   2.699 -0.6380 -0.1236 -0.5332
  720MOL0     H97189   7.756   2.801   2.521  1.7943  0.1618 -2.5377
  720MOL0     H97190   7.723   3.024   2.495 -1.2070  0.5408  0.0348
  720MOL0     H97191   7.775   3.071   2.655  0.4043 -0.5910  2.4502
  720MOL0     H97192   7.524   3.089   2.630 -4.7623 -1.3591  3.5764
  720MOL0     H97193   7.567   2.972   2.755 -1.6691 -3.2001 -0.2970
  720MOL0     H97194   7.476   2.809   2.623 -1.0565 -1.0335  0.6269
  720MOL0     H97195   7.369   2.943   2.612 -0.7629 -0.2937 -2.6135
  720MOL0     H97196   7.484   2.966   2.203 -2.4445 -1.1727 -1.1290
  720MOL0     H97197   7.831   2.891   2.883 -0.2474 -0.3061  0.8216
  720MOL0     H97198   7.890   2.880   3.139  4.1253 -2.5353 -0.5087
  720MOL0     H97199   7.967   3.037   3.181 -0.1731  0.6029 -0.5270
  720MOL0     H97200   7.834   3.036   3.075  0.7356  1.9529  1.1841
  721MOL0     O97201   6.371   1.496  10.886  0.0790 -0.7722 -0.6047
  721MOL0     C97202   6.385   1.378  10.917 -0.2137  0.4010 -0.5638
  721MOL0     O97203   6.266   1.296  10.937 -0.9342 -0.0280 -0.2720
  721MOL0     C97204   6.141   1.351  10.927  0.4393 -0.6914 -0.1276
  721MOL0     C97205   6.086   1.425  10.818 -0.1153 -0.5925  0.2592
  721MOL0     C97206   5.973   1.501  10.822 -0.2590 -0.1148  0.2555
  721MOL0     C97207   5.902   1.503  10.942 -0.0911  0.3484  0.8519
  721MOL0     O97208   5.788   1.586  10.951 -0.0660 -0.6696 -0.1371
  721MOL0     C97209   5.783   1.676  11.055 -0.6989 -0.2545  0.6395
  721MOL0     C97210   5.682   1.628  11.162 -0.0801 -0.5834 -0.0748
  721MOL0     C97211   5.574   1.715  11.187  0.3834 -0.9791 -0.5197
  721MOL0     C97212   5.587   1.816  11.278 -0.7463  0.2420  0.2830
  721MOL0     C97213   5.469   1.920  11.251  0.4399  0.0070  0.6872
  721MOL0     C97214   5.486   2.040  11.348  0.1507 -0.0671 -0.3875
  721MOL0     C97215   5.347   2.120  11.342  0.1336  0.3395  1.1121
  721MOL0     C97216   5.365   2.249  11.422  0.0082  0.0870  0.2494
  721MOL0     N97217   5.364   2.225  11.569 -0.4479  0.2671 -0.2537
  721MOL0     C97218   5.256   2.200  11.648 -0.1538  0.2344  0.3763
  721MOL0     C97219   5.302   2.205  11.774 -1.0967  0.9167 -0.3102
  721MOL0     C97220   5.210   2.223  11.897  0.6123 -0.0835  0.3215
  721MOL0     C97221   5.209   2.370  11.937  0.6796 -0.2603  0.3876
  721MOL0     C97222   5.125   2.459  11.843  0.6109  0.0390  0.3971
  721MOL0     C97223   4.980   2.476  11.885 -0.2021 -0.3479 -0.8311
  721MOL0     O97224   4.894   2.407  11.796 -0.6947  0.0161 -0.5644
  721MOL0     C97225   4.849   2.464  11.685  0.6892 -1.1273  0.2847
  721MOL0     C97226   4.780   2.587  11.696  0.4246  0.2510  0.3201
  721MOL0     C97227   4.723   2.644  11.588 -0.3098  0.4553 -0.1525
  721MOL0     C97228   4.762   2.605  11.458  0.0802  0.0328  0.7443
  721MOL0     C97229   4.727   2.691  11.352 -0.6128 -0.4461  1.3710
  721MOL0     O97230   4.746   2.644  11.212 -0.7616 -0.6479  0.5192
  721MOL0     C97231   4.709   2.733  11.112  1.1730  0.5683 -0.2828
  721MOL0     C97232   4.633   2.685  11.005 -0.2504 -0.1713 -0.2670
  721MOL0     C97233   4.612   2.757  10.882 -0.1620  0.8084 -0.6226
  721MOL0     C97234   4.663   2.889  10.873 -0.9781  0.4956 -0.1489
  721MOL0     O97235   4.639   2.958  10.759  0.2921 -0.6543 -0.0521
  721MOL0     C97236   4.691   2.924  10.636  0.4748 -0.2073  0.5609
  721MOL0     C97237   4.665   3.024  10.523  0.4854 -0.4895  0.8567
  721MOL0     C97238   4.752   3.150  10.565 -0.0596 -0.2143  0.0720
  721MOL0     C97239   4.702   3.264  10.472  0.4738 -0.3865  0.7054
  721MOL0     C97240   4.753   3.402  10.528  0.0951  0.0875 -0.4066
  721MOL0     C97241   4.904   3.417  10.511 -0.3987  0.1356 -0.8115
  721MOL0     C97242   4.941   3.569  10.550  0.0993 -0.5590  0.1903
  721MOL0     C97243   5.087   3.615  10.530  0.0024 -0.2067  1.7017
  721MOL0    Cl97244   5.116   3.626  10.350 -0.2337 -0.1559  0.1783
  721MOL0     C97245   4.717   2.947  10.989  0.1610  0.2925 -0.6069
  721MOL0     C97246   4.752   2.866  11.109  0.2764 -0.0935  0.3269
  721MOL0     O97247   4.697   2.803  11.383  0.0798  0.6668 -0.5330
  721MOL0     C97248   4.827   2.477  11.444  0.1114 -1.5071  0.2773
  721MOL0     C97249   4.872   2.406  11.560  0.6034  0.0633 -0.6404
  721MOL0     N97250   5.441   2.227  11.771 -0.2108 -0.5119  0.4206
  721MOL0     N97251   5.479   2.226  11.643 -0.7023 -0.1048  0.7931
  721MOL0     C97252   5.940   1.418  11.049 -0.7253 -0.6384  0.5397
  721MOL0     C97253   6.066   1.355  11.048 -0.3251  0.2721  0.3409
  721MOL0     C97254   6.521   1.315  10.957  0.1479 -0.3820  1.3986
  721MOL0     C97255   6.523   1.228  11.070  0.0085 -0.4849 -0.3825
  721MOL0     C97256   6.634   1.155  11.104 -0.2404  0.4109  0.6265
  721MOL0     C97257   6.746   1.154  11.015  0.6052 -0.1923 -0.5041
  721MOL0     O97258   6.860   1.089  11.052  0.3011 -0.3564 -0.3887
  721MOL0     C97259   6.840   0.960  11.109  0.5134 -1.0195 -0.3739
  721MOL0     C97260   6.945   0.860  11.064 -0.8908  0.3496  0.3050
  721MOL0     C97261   7.091   0.905  11.104 -0.3638  0.3174  0.4199
  721MOL0     C97262   7.193   0.798  11.107 -0.0075  0.4855 -0.4509
  721MOL0     C97263   7.305   0.857  11.182 -0.0247 -0.1334 -0.0045
  721MOL0     C97264   7.388   0.931  11.233 -0.5512 -0.4527 -0.1369
  721MOL0     C97265   6.743   1.252  10.915  0.0011  0.6032 -0.1902
  721MOL0     C97266   6.633   1.328  10.882 -0.5470 -0.2600 -0.3023
  721MOL0     C97267   6.629   1.426  10.767  0.0253  0.0628 -0.3414
  721MOL0     H97268   6.134   1.417  10.721 -1.6430 -1.0985 -0.4777
  721MOL0     H97269   5.939   1.548  10.731  4.1807  0.8344 -1.1633
  721MOL0     H97270   5.884   1.689  11.093 -0.7588  1.7001  0.2199
  721MOL0     H97271   5.747   1.768  11.008  0.7969  0.3474  0.6163
  721MOL0     H97272   5.724   1.601  11.259 -1.4878  0.8742  1.0122
  721MOL0     H97273   5.641   1.533  11.127  0.9551 -2.6473  3.7306
  721MOL0     H97274   5.486   1.655  11.209  0.4575 -1.6382 -1.8993
  721MOL0     H97275   5.565   1.768  11.092  2.9267 -1.1660 -0.9407
  721MOL0     H97276   5.596   1.765  11.374 -1.5782 -0.4629 -0.0034
  721MOL0     H97277   5.680   1.871  11.263 -0.2858 -0.8120 -0.8840
  721MOL0     H97278   5.471   1.954  11.147  0.1868  1.2156  1.0514
  721MOL0     H97279   5.371   1.874  11.268  0.6144 -0.1829  1.1799
  721MOL0     H97280   5.508   2.002  11.448  3.6822 -0.6726 -1.2779
  721MOL0     H97281   5.579   2.093  11.326  1.7376 -1.9964  1.2198
  721MOL0     H97282   5.276   2.047  11.382 -0.4450 -1.3662 -2.5883
  721MOL0     H97283   5.320   2.143  11.239  2.5064  0.1503  0.3907
  721MOL0     H97284   5.457   2.300  11.394  1.2885 -2.6883 -1.0165
  721MOL0     H97285   5.278   2.299  11.379 -0.6606 -0.8392  0.4914
  721MOL0     H97286   5.154   2.218  11.614  1.0021  3.0421 -2.0819
  721MOL0     H97287   5.116   2.171  11.877  0.8226 -1.4813  2.6766
  721MOL0     H97288   5.255   2.174  11.983  1.0920  0.1510  0.2107
  721MOL0     H97289   5.162   2.366  12.035 -2.4655  1.0644 -0.9259
  721MOL0     H97290   5.311   2.407  11.950  0.0576  1.1768  1.4050
  721MOL0     H97291   5.135   2.436  11.737  4.2723  0.5443  0.5095
  721MOL0     H97292   5.169   2.559  11.839  1.5408 -0.3661 -3.7653
  721MOL0     H97293   4.949   2.580  11.888 -0.4357 -0.3773 -1.8135
  721MOL0     H97294   4.968   2.436  11.986 -0.8517  0.9727 -0.3620
  721MOL0     H97295   4.757   2.637  11.789 -2.8607 -2.7317  1.3510
  721MOL0     H97296   4.664   2.734  11.605  0.0141  0.7788 -0.6814
  721MOL0     H97297   4.598   2.584  11.022  3.5865 -1.7511 -0.7541
  721MOL0     H97298   4.569   2.702  10.800  0.7195 -1.0606  0.1011
  721MOL0     H97299   4.800   2.918  10.644  1.2607  3.5385 -3.2854
  721MOL0     H97300   4.650   2.829  10.601 -1.4171  0.8980 -0.3672
  721MOL0     H97301   4.696   2.991  10.424 -3.3711  2.3448 -1.5946
  721MOL0     H97302   4.557   3.040  10.509  0.7839  0.6353 -0.3332
  721MOL0     H97303   4.724   3.188  10.663  0.0428  2.4878 -0.8697
  721MOL0     H97304   4.859   3.127  10.562 -0.2308 -1.1300  0.3567
  721MOL0     H97305   4.594   3.260  10.451  0.9040 -0.0190 -1.8786
  721MOL0     H97306   4.747   3.255  10.372  0.3244  0.6351  0.5375
  721MOL0     H97307   4.730   3.391  10.634 -1.1056 -1.2408 -0.7745
  721MOL0     H97308   4.701   3.489  10.487 -1.4794 -0.6813 -0.1217
  721MOL0     H97309   4.954   3.342  10.571  0.0746 -0.3113 -1.7378
  721MOL0     H97310   4.919   3.411  10.402 -1.6643  0.7356 -1.0414
  721MOL0     H97311   4.911   3.592  10.653  1.0975  2.3314 -0.0684
  721MOL0     H97312   4.888   3.644  10.490 -0.1773  0.3034  1.4643
  721MOL0     H97313   5.101   3.715  10.572  3.1018  0.7086 -1.0411
  721MOL0     H97314   5.156   3.554  10.588 -2.8021 -3.3247  2.0361
  721MOL0     H97315   4.748   3.051  10.987  0.4141  0.2134 -1.4461
  721MOL0     H97316   4.799   2.914  11.194  2.9113  2.8472 -2.5039
  721MOL0     H97317   4.831   2.437  11.343  0.0171  0.2161 -0.4552
  721MOL0     H97318   4.931   2.317  11.538  1.2454  0.8044 -2.0800
  721MOL0     H97319   5.865   1.417  11.128 -0.7215 -2.7106  0.5680
  721MOL0     H97320   6.090   1.298  11.138  0.8676 -1.5336 -1.0479
  721MOL0     H97321   6.432   1.227  11.130 -0.8321  1.8409 -1.4928
  721MOL0     H97322   6.647   1.103  11.199 -0.7096 -1.3828 -0.2569
  721MOL0     H97323   6.749   0.915  11.067 -0.5757  2.6093 -2.3685
  721MOL0     H97324   6.844   0.964  11.218  0.7283 -0.9745 -0.3830
  721MOL0     H97325   6.951   0.849  10.955  0.5785 -1.9823  0.5611
  721MOL0     H97326   6.918   0.762  11.103  1.2574 -1.2129 -1.8210
  721MOL0     H97327   7.102   0.955  11.200  0.9425 -0.6682  0.8126
  721MOL0     H97328   7.128   0.975  11.028 -0.7381 -0.3595 -0.4102
  721MOL0     H97329   7.154   0.705  11.149 -0.3386  1.2051  0.8931
  721MOL0     H97330   7.227   0.760  11.011  1.2249 -1.3561  0.6520
  721MOL0     H97331   7.469   0.998  11.256  0.6034 -0.6291 -3.2170
  721MOL0     H97332   6.831   1.266  10.852  2.0515  0.0479  2.3480
  721MOL0     H97333   6.563   1.388  10.688  0.1882 -1.2007  0.1204
  721MOL0     H97334   6.610   1.527  10.804  0.5020 -0.0912  0.3477
  721MOL0     H97335   6.726   1.427  10.715  1.3106 -0.8851  1.9051
  722MOL0     O97336   1.229   4.663   8.198  0.1505 -0.3098  0.5604
  722MOL0     C97337   1.185   4.585   8.114 -0.6915  0.5923 -0.6916
  722MOL0     O97338   1.228   4.578   7.983  0.2374  0.4539 -0.3436
  722MOL0     C97339   1.285   4.686   7.931  0.4966 -0.2689  0.3908
  722MOL0     C97340   1.422   4.691   7.938  0.3715  0.0975 -0.6160
  722MOL0     C97341   1.491   4.801   7.887  0.6268 -0.4365 -0.4730
  722MOL0     C97342   1.419   4.904   7.823  0.5120  0.3448 -0.3244
  722MOL0     O97343   1.481   5.007   7.767  0.8166  0.0057  1.0781
  722MOL0     C97344   1.621   5.012   7.763 -0.6675 -0.2474 -0.0753
  722MOL0     C97345   1.659   5.144   7.681  0.2613  0.7169  0.1127
  722MOL0     C97346   1.805   5.158   7.624  0.9825 -0.2678 -0.3495
  722MOL0     C97347   1.839   5.269   7.535  0.2773  0.0183  0.4577
  722MOL0     C97348   1.741   5.305   7.421  0.8485  0.0367  0.3115
  722MOL0     C97349   1.685   5.189   7.319  0.5802  0.0327 -0.7518
  722MOL0     C97350   1.801   5.133   7.256 -0.3880 -0.4846  0.3896
  722MOL0     C97351   1.760   5.074   7.118  0.5798 -0.0141 -0.8443
  722MOL0     N97352   1.870   4.991   7.057  0.1218  0.0752 -0.7798
  722MOL0     C97353   1.855   4.873   6.993 -0.5105  0.3254 -0.3758
  722MOL0     C97354   1.983   4.846   6.957  0.5103  0.0456  1.1397
  722MOL0     C97355   2.022   4.716   6.892 -0.9520 -0.6132  0.4645
  722MOL0     C97356   2.036   4.733   6.738  0.6163 -0.2837 -0.7894
  722MOL0     C97357   2.095   4.607   6.681  1.3138  0.5728 -0.1883
  722MOL0     C97358   2.115   4.609   6.532  0.5008  0.1996 -0.0177
  722MOL0     O97359   1.990   4.625   6.457 -0.6331 -0.2559 -0.3885
  722MOL0     C97360   1.992   4.600   6.322 -0.3849 -0.6119 -0.9328
  722MOL0     C97361   1.885   4.533   6.270 -0.3027 -0.5702 -0.1243
  722MOL0     C97362   1.879   4.514   6.135  0.8279  0.2738  0.2188
  722MOL0     C97363   1.976   4.545   6.048  0.3540 -0.0990  1.3817
  722MOL0     C97364   1.958   4.526   5.905  0.9552 -0.3160 -0.3319
  722MOL0     O97365   1.860   4.434   5.863  0.1298  0.4285 -0.4903
  722MOL0     C97366   1.816   4.439   5.733 -0.8284 -0.1466 -0.1999
  722MOL0     C97367   1.894   4.451   5.619 -0.0503  0.9142  0.8390
  722MOL0     C97368   1.831   4.437   5.491 -0.3850 -0.1762 -1.1351
  722MOL0     C97369   1.697   4.397   5.475 -0.5156 -0.0556 -0.0014
  722MOL0     O97370   1.653   4.380   5.346 -0.8792  0.0742  0.9507
  722MOL0     C97371   1.525   4.323   5.334  1.7497 -0.1548 -0.3375
  722MOL0     C97372   1.512   4.285   5.196 -0.2672  0.7293  0.7514
  722MOL0     C97373   1.517   4.404   5.097  1.0999 -0.1474  0.4398
  722MOL0     C97374   1.664   4.439   5.027 -0.2685  0.2534 -0.4359
  722MOL0     C97375   1.655   4.529   4.909 -0.7550 -0.3888  0.7915
  722MOL0     C97376   1.767   4.512   4.814 -0.8520 -0.3522 -0.0898
  722MOL0     C97377   1.776   4.381   4.734  0.1095 -0.5913 -0.1051
  722MOL0     C97378   1.684   4.366   4.621  0.1022  0.7673  0.6859
  722MOL0    Cl97379   1.516   4.323   4.686 -0.8640  0.1517 -0.0673
  722MOL0     C97380   1.628   4.388   5.593 -0.5073  0.2166 -1.6258
  722MOL0     C97381   1.685   4.412   5.717 -0.0693 -0.2650  0.1861
  722MOL0     O97382   2.024   4.598   5.835 -0.0539  0.1950  1.2012
  722MOL0     C97383   2.083   4.610   6.102 -0.3019  0.4202 -0.0906
  722MOL0     C97384   2.092   4.644   6.241 -0.3640 -1.0204  0.4510
  722MOL0     N97385   2.063   4.942   7.004  0.1828  0.4246 -0.4426
  722MOL0     N97386   1.991   5.030   7.063  0.4742  0.7773  0.4869
  722MOL0     C97387   1.279   4.910   7.824  0.5151 -0.1596 -0.7886
  722MOL0     C97388   1.207   4.791   7.872 -0.1961 -0.6164 -0.0751
  722MOL0     C97389   1.082   4.479   8.156  0.6119 -0.1471  0.0121
  722MOL0     C97390   1.033   4.393   8.051 -0.0546 -0.4061 -0.8067
  722MOL0     C97391   0.939   4.296   8.075 -0.0024  0.2885  0.1912
  722MOL0     C97392   0.904   4.272   8.205  0.9861  1.0409  0.0821
  722MOL0     O97393   0.832   4.153   8.223 -0.7950  1.0004  0.0319
  722MOL0     C97394   0.691   4.163   8.256 -0.7684 -0.4748 -0.2820
  722MOL0     C97395   0.672   4.158   8.405  0.4740  0.1208 -0.2746
  722MOL0     C97396   0.703   4.026   8.482 -0.7027 -0.9963  0.3003
  722MOL0     C97397   0.570   3.969   8.543 -0.5079  0.6438 -1.2916
  722MOL0     C97398   0.591   3.860   8.646 -0.4731  0.2401  0.2822
  722MOL0     C97399   0.621   3.782   8.732  0.0146  0.8452  0.1446
  722MOL0     C97400   0.958   4.346   8.309 -0.3927  0.7661 -0.2600
  722MOL0     C97401   1.043   4.454   8.288  0.8853 -0.7674  0.0936
  722MOL0     C97402   1.065   4.548   8.410  1.0351 -0.1477 -0.2713
  722MOL0     H97403   1.470   4.598   7.968  1.0883  0.3969 -0.8111
  722MOL0     H97404   1.599   4.804   7.884  0.6493  1.5012  0.7573
  722MOL0     H97405   1.664   5.010   7.864 -0.8949 -2.9949  0.0325
  722MOL0     H97406   1.654   4.923   7.708 -1.0277 -1.6183  1.8393
  722MOL0     H97407   1.630   5.235   7.735 -4.2738 -2.1006  3.1611
  722MOL0     H97408   1.599   5.150   7.590 -1.8713  0.3081  1.4203
  722MOL0     H97409   1.802   5.064   7.567  2.0863 -2.4628  2.9353
  722MOL0     H97410   1.880   5.145   7.703  1.5552 -0.5159 -0.9213
  722MOL0     H97411   1.848   5.361   7.594 -3.7366  0.4148  0.7442
  722MOL0     H97412   1.934   5.244   7.488 -0.5985 -2.0812 -0.2824
  722MOL0     H97413   1.650   5.352   7.461 -0.1516 -2.4843  1.1985
  722MOL0     H97414   1.797   5.376   7.359  0.6058  1.4027  1.5800
  722MOL0     H97415   1.623   5.110   7.362 -0.1578  0.3261 -1.2528
  722MOL0     H97416   1.618   5.243   7.252 -1.5083 -1.0056  0.4030
  722MOL0     H97417   1.855   5.054   7.309  2.2711 -1.5494 -3.4920
  722MOL0     H97418   1.881   5.206   7.239  0.3910 -1.0735  1.3416
  722MOL0     H97419   1.673   5.007   7.130  1.2585 -1.1078 -1.8676
  722MOL0     H97420   1.735   5.154   7.049 -1.1815 -2.0438 -2.7379
  722MOL0     H97421   1.768   4.807   6.996  1.3635 -2.2866  2.2149
  722MOL0     H97422   2.125   4.699   6.925  0.8212  0.2477 -3.9804
  722MOL0     H97423   1.970   4.623   6.916  0.4661 -2.3579 -2.5612
  722MOL0     H97424   1.935   4.752   6.702 -1.0120 -1.8740  2.5233
  722MOL0     H97425   2.106   4.810   6.702  2.5641 -2.4213 -1.8442
  722MOL0     H97426   2.043   4.512   6.697  0.9989  1.0724  2.1341
  722MOL0     H97427   2.193   4.584   6.725  1.2755  1.0003  0.1303
  722MOL0     H97428   2.169   4.519   6.500  1.7349  0.8282  0.2198
  722MOL0     H97429   2.167   4.704   6.516 -0.7758  1.0875  0.9322
  722MOL0     H97430   1.802   4.503   6.333 -0.3482 -1.7276 -0.7082
  722MOL0     H97431   1.808   4.456   6.077  1.3196  0.3949 -0.5165
  722MOL0     H97432   2.000   4.447   5.641  0.6113 -0.1796 -2.0978
  722MOL0     H97433   1.902   4.444   5.408  1.8893  0.4463  0.7659
  722MOL0     H97434   1.517   4.243   5.408 -0.5076  1.0188  0.8043
  722MOL0     H97435   1.446   4.397   5.354  2.8661  0.6662  1.2954
  722MOL0     H97436   1.599   4.222   5.178  1.6968  2.6618  2.9101
  722MOL0     H97437   1.428   4.222   5.164  1.2973 -0.6255 -0.9241
  722MOL0     H97438   1.438   4.385   5.024  0.2288 -0.1572  1.3653
  722MOL0     H97439   1.481   4.492   5.152  3.1033  0.5005  0.8305
  722MOL0     H97440   1.732   4.354   5.020  0.8650  0.8089  2.2412
  722MOL0     H97441   1.717   4.494   5.106  1.3235  1.2800 -2.1356
  722MOL0     H97442   1.644   4.634   4.938  1.1425 -0.2365  1.0537
  722MOL0     H97443   1.561   4.512   4.855  0.5684  1.9357 -2.6122
  722MOL0     H97444   1.772   4.590   4.738  2.5830 -0.7615 -0.4345
  722MOL0     H97445   1.858   4.522   4.875 -2.1011  0.1254  1.7951
  722MOL0     H97446   1.767   4.299   4.806 -0.9983 -1.6797 -1.4415
  722MOL0     H97447   1.880   4.377   4.700  1.1939  1.3918  2.5615
  722MOL0     H97448   1.689   4.453   4.554  0.6457  0.3892  0.2282
  722MOL0     H97449   1.710   4.282   4.557 -1.1821  0.3959  0.6373
  722MOL0     H97450   1.521   4.368   5.598 -0.4793  0.3576  1.4996
  722MOL0     H97451   1.626   4.410   5.808  2.0684 -1.3811  1.6546
  722MOL0     H97452   2.168   4.658   6.055  1.7835  0.2652  3.1448
  722MOL0     H97453   2.185   4.693   6.269 -1.0804  0.6499  0.0322
  722MOL0     H97454   1.222   4.997   7.792 -1.1044 -0.0004  2.1628
  722MOL0     H97455   1.099   4.785   7.882  0.1174 -2.6434  4.5442
  722MOL0     H97456   1.056   4.415   7.947 -2.2483  0.6854 -1.1276
  722MOL0     H97457   0.903   4.236   7.992 -0.1363 -0.9130  1.0766
  722MOL0     H97458   0.629   4.090   8.202 -0.2320  0.1179 -1.7598
  722MOL0     H97459   0.662   4.261   8.217  0.8718  0.7701  1.4986
  722MOL0     H97460   0.568   4.190   8.422 -0.0780 -1.4891 -0.4580
  722MOL0     H97461   0.730   4.238   8.451  1.1058 -1.6191  2.1473
  722MOL0     H97462   0.778   4.045   8.558  0.1829  0.6829 -0.9180
  722MOL0     H97463   0.748   3.954   8.413 -3.4694 -1.9659 -0.6583
  722MOL0     H97464   0.511   4.055   8.578  2.6073  2.2619  0.3692
  722MOL0     H97465   0.510   3.922   8.464 -1.3359  0.9493 -0.8621
  722MOL0     H97466   0.636   3.714   8.813  0.2996 -1.5246 -1.7801
  722MOL0     H97467   0.931   4.322   8.411 -0.4734  0.4480 -0.3532
  722MOL0     H97468   0.987   4.625   8.408 -0.2302 -1.3906 -0.8764
  722MOL0     H97469   1.060   4.480   8.495  2.9983 -0.3274 -0.2524
  722MOL0     H97470   1.157   4.608   8.413  0.5263  0.6193  1.7136
  723MOL0     O97471   5.831   8.405   7.697 -0.1448  1.1089 -0.1630
  723MOL0     C97472   5.875   8.339   7.605 -0.4170  0.2282 -0.0617
  723MOL0     O97473   5.809   8.304   7.496  0.6292  0.1657 -0.6628
  723MOL0     C97474   5.688   8.361   7.468 -0.4976 -0.5936  0.1193
  723MOL0     C97475   5.666   8.500   7.464  0.2814  0.2424 -1.1102
  723MOL0     C97476   5.541   8.550   7.427 -0.5412  0.0837 -0.2753
  723MOL0     C97477   5.432   8.463   7.403 -0.1550  0.1439  0.0193
  723MOL0     O97478   5.310   8.524   7.373  0.3269  1.3485 -0.0075
  723MOL0     C97479   5.276   8.480   7.241  0.2353 -0.1810  0.8436
  723MOL0     C97480   5.242   8.589   7.142  0.2922  0.5251 -0.7216
  723MOL0     C97481   5.172   8.507   7.023  0.2521 -0.4093  0.2086
  723MOL0     C97482   5.125   8.590   6.900  0.2680 -0.1825 -0.2240
  723MOL0     C97483   5.125   8.490   6.787 -1.1396 -0.5061 -0.4391
  723MOL0     C97484   5.048   8.539   6.667  0.6273  0.0491 -0.1995
  723MOL0     C97485   4.894   8.521   6.669 -0.5105  1.2281  0.1362
  723MOL0     C97486   4.837   8.600   6.541  0.0450 -0.5282 -0.0427
  723MOL0     N97487   4.704   8.555   6.499 -0.0164  0.3546  0.0470
  723MOL0     C97488   4.591   8.633   6.525 -1.0363 -0.1406  0.2387
  723MOL0     C97489   4.480   8.556   6.500 -0.3711 -0.1534 -0.1458
  723MOL0     C97490   4.331   8.578   6.519 -0.5802 -0.1999 -0.5544
  723MOL0     C97491   4.276   8.691   6.427  0.7704 -0.7197 -0.2082
  723MOL0     C97492   4.314   8.832   6.458  0.8309  0.4761  1.1852
  723MOL0     C97493   4.268   8.882   6.601  0.3975  0.4589  0.8604
  723MOL0     O97494   4.142   8.940   6.584  0.7189  0.2342  0.0445
  723MOL0     C97495   4.095   9.057   6.646 -0.6696 -0.4034 -0.6128
  723MOL0     C97496   3.979   9.124   6.590 -0.2898 -0.2151  0.1077
  723MOL0     C97497   3.935   9.250   6.631 -0.0261 -0.9905  0.4083
  723MOL0     C97498   4.010   9.323   6.728 -1.1377 -0.5469 -0.1663
  723MOL0     C97499   3.976   9.464   6.777  0.3447 -1.0047  0.2471
  723MOL0     O97500   3.873   9.514   6.708 -0.4528 -0.1731 -0.4070
  723MOL0     C97501   3.834   9.647   6.713  0.3935  0.4849 -0.1522
  723MOL0     C97502   3.817   9.704   6.588  0.0706  0.5112  0.3444
  723MOL0     C97503   3.766   9.835   6.567  0.0791 -0.4828  0.4637
  723MOL0     C97504   3.723   9.901   6.683 -0.2262 -0.1942 -0.0826
  723MOL0     O97505   3.657  10.017   6.687  0.2608 -0.4121  0.8826
  723MOL0     C97506   3.631  10.080   6.556 -0.9366 -0.4507  0.3730
  723MOL0     C97507   3.594  10.223   6.564  0.7294  0.2714  0.1776
  723MOL0     C97508   3.712  10.315   6.621  0.0683 -0.9609  0.6181
  723MOL0     C97509   3.784  10.292   6.755  0.1440  0.6890  0.0448
  723MOL0     C97510   3.698  10.322   6.880  0.9394  0.0196 -0.2059
  723MOL0     C97511   3.795  10.281   6.996  0.9979 -0.6529  0.1000
  723MOL0     C97512   3.744  10.338   7.129 -1.1375  0.1036  0.0783
  723MOL0     C97513   3.814  10.465   7.178  0.3917  0.4351 -0.1376
  723MOL0    Cl97514   3.995  10.460   7.182  0.5534 -0.4029 -0.0782
  723MOL0     C97515   3.743   9.851   6.809 -0.6195  0.1820 -0.2091
  723MOL0     C97516   3.799   9.722   6.824  0.6955  0.7000  0.0209
  723MOL0     O97517   4.048   9.524   6.855  0.1282  0.3300 -0.1496
  723MOL0     C97518   4.136   9.266   6.775  0.5431  0.0759  0.1628
  723MOL0     C97519   4.167   9.135   6.744  0.4650 -0.2948 -0.3622
  723MOL0     N97520   4.531   8.437   6.453 -0.1283  0.1812  0.5111
  723MOL0     N97521   4.661   8.437   6.459 -0.1071 -0.8955  0.2592
  723MOL0     C97522   5.447   8.332   7.423 -0.1824  0.4563  0.1513
  723MOL0     C97523   5.577   8.281   7.449 -0.8116  0.3165 -0.0593
  723MOL0     C97524   6.020   8.305   7.616  1.4317  0.7626 -0.0341
  723MOL0     C97525   6.109   8.416   7.615  0.2398  0.0364  0.1121
  723MOL0     C97526   6.248   8.390   7.603  0.3670 -0.1562 -0.5010
  723MOL0     C97527   6.291   8.256   7.580 -0.0090  0.3979 -0.4258
  723MOL0     O97528   6.424   8.246   7.551  0.2786  0.1303 -0.0230
  723MOL0     C97529   6.463   8.198   7.420 -0.2942  0.1112  1.3326
  723MOL0     C97530   6.440   8.312   7.310 -0.2763  0.3555 -0.2452
  723MOL0     C97531   6.512   8.445   7.346 -0.6623  0.1398  0.7627
  723MOL0     C97532   6.473   8.576   7.265 -0.2653  0.8902  0.4250
  723MOL0     C97533   6.345   8.617   7.324  0.7339 -0.5996  0.4692
  723MOL0     C97534   6.237   8.640   7.378 -0.3249  0.5479  0.1420
  723MOL0     C97535   6.202   8.152   7.580  0.0150  0.4583  0.5230
  723MOL0     C97536   6.064   8.170   7.605  0.3627  0.1196  0.1231
  723MOL0     C97537   5.968   8.052   7.599 -0.8517 -0.7326  0.1713
  723MOL0     H97538   5.748   8.568   7.484 -0.2315  0.4327  0.4710
  723MOL0     H97539   5.539   8.656   7.403 -0.1704  1.1020  3.5515
  723MOL0     H97540   5.353   8.416   7.200  0.3355 -0.5857  1.6396
  723MOL0     H97541   5.186   8.419   7.253 -0.1062 -0.9083 -3.6957
  723MOL0     H97542   5.338   8.636   7.115  0.0777  0.8172 -0.9861
  723MOL0     H97543   5.176   8.667   7.181  3.9825  3.5848  0.0426
  723MOL0     H97544   5.095   8.436   7.054 -0.8181  0.6252 -0.0267
  723MOL0     H97545   5.248   8.433   6.994  2.2065  1.1177  1.1813
  723MOL0     H97546   5.024   8.629   6.916  1.4572  2.9157  0.3630
  723MOL0     H97547   5.200   8.665   6.874  1.8846 -2.0719 -1.3092
  723MOL0     H97548   5.229   8.482   6.755 -1.0870  2.9620 -1.5811
  723MOL0     H97549   5.095   8.394   6.829 -2.4259  1.3018  3.1497
  723MOL0     H97550   5.066   8.646   6.656  0.6127  0.7835  4.8450
  723MOL0     H97551   5.085   8.488   6.578 -2.5330 -0.8616 -1.1529
  723MOL0     H97552   4.850   8.561   6.761  3.1080  0.3111  2.4576
  723MOL0     H97553   4.873   8.414   6.663 -2.0015  1.4282  1.2887
  723MOL0     H97554   4.835   8.704   6.575  0.7653 -0.0451 -1.3832
  723MOL0     H97555   4.900   8.591   6.452  2.2819 -1.4020  1.4987
  723MOL0     H97556   4.600   8.736   6.558 -1.1375  0.1794 -0.6963
  723MOL0     H97557   4.284   8.479   6.512 -1.7195  0.2030  1.0127
  723MOL0     H97558   4.323   8.607   6.623  2.7727  2.2617 -0.8290
  723MOL0     H97559   4.293   8.665   6.322 -0.3960  1.4572 -0.9950
  723MOL0     H97560   4.168   8.697   6.438  0.7588 -2.5372  1.1722
  723MOL0     H97561   4.261   8.897   6.388  0.5689 -0.4610  0.4836
  723MOL0     H97562   4.422   8.845   6.443  0.3749  1.8848 -1.4744
  723MOL0     H97563   4.343   8.957   6.627  1.6016 -0.5700  0.4736
  723MOL0     H97564   4.285   8.799   6.670  0.0384 -0.5219 -0.2033
  723MOL0     H97565   3.920   9.070   6.517 -1.6443  0.6070  0.5526
  723MOL0     H97566   3.844   9.289   6.586 -0.2013 -1.5505  0.2753
  723MOL0     H97567   3.832   9.639   6.503 -0.7889 -2.1373  2.1108
  723MOL0     H97568   3.767   9.865   6.462 -1.0916 -2.6777 -0.2268
  723MOL0     H97569   3.719  10.083   6.491 -1.2853 -0.0291 -0.0923
  723MOL0     H97570   3.550  10.020   6.511 -1.1178  0.3894 -0.4600
  723MOL0     H97571   3.575  10.255   6.462  0.1457  0.1425  0.2440
  723MOL0     H97572   3.507  10.226   6.630  1.8221 -0.8405  1.7776
  723MOL0     H97573   3.787  10.330   6.543  0.8950 -4.0355  0.6954
  723MOL0     H97574   3.655  10.407   6.635  0.8264 -0.1916 -1.1456
  723MOL0     H97575   3.880  10.344   6.749  0.5231 -0.0019  0.0670
  723MOL0     H97576   3.808  10.187   6.772  1.8188  1.0679  0.2232
  723MOL0     H97577   3.599  10.274   6.875  1.5485 -1.2333 -0.8162
  723MOL0     H97578   3.672  10.428   6.882 -1.1302 -0.4500  0.4608
  723MOL0     H97579   3.803  10.173   7.007 -3.0420 -0.8739  3.6786
  723MOL0     H97580   3.896  10.316   6.973  0.7697 -0.3686 -0.4723
  723MOL0     H97581   3.744  10.255   7.200 -3.6793 -1.1312 -1.2099
  723MOL0     H97582   3.637  10.353   7.112 -0.7694  1.3382 -1.3725
  723MOL0     H97583   3.788  10.536   7.099  0.7721  2.4611  1.4587
  723MOL0     H97584   3.773  10.491   7.276 -1.3436 -1.5043 -0.2809
  723MOL0     H97585   3.703   9.907   6.893 -1.0370  0.3867 -0.5363
  723MOL0     H97586   3.805   9.683   6.925 -1.5614 -0.0898 -0.0996
  723MOL0     H97587   4.198   9.316   6.849  2.9442 -3.5431  0.8490
  723MOL0     H97588   4.260   9.101   6.789  1.9101  0.1494 -2.8728
  723MOL0     H97589   5.361   8.267   7.426  0.7373 -1.1269 -3.0797
  723MOL0     H97590   5.587   8.173   7.460 -1.8468  0.3597  1.6631
  723MOL0     H97591   6.076   8.519   7.619  1.8488  0.6124 -0.4817
  723MOL0     H97592   6.322   8.469   7.598  2.8512 -2.3803 -1.4125
  723MOL0     H97593   6.397   8.115   7.392 -1.0708  1.1057  0.0830
  723MOL0     H97594   6.564   8.156   7.426  0.9004  2.7526  0.9940
  723MOL0     H97595   6.335   8.341   7.323  0.2739  1.3911  2.5363
  723MOL0     H97596   6.438   8.279   7.206 -2.2268  2.8368 -1.0965
  723MOL0     H97597   6.617   8.439   7.313 -0.3886  0.3813  1.5634
  723MOL0     H97598   6.507   8.475   7.451 -1.1529  2.2808  0.1793
  723MOL0     H97599   6.551   8.652   7.274  0.5929 -0.0837  1.5071
  723MOL0     H97600   6.463   8.560   7.157  2.3440 -1.7213  0.4493
  723MOL0     H97601   6.147   8.629   7.435  1.6236 -0.8240  3.2236
  723MOL0     H97602   6.239   8.051   7.568 -2.2674 -0.3386 -0.5529
  723MOL0     H97603   6.026   7.966   7.634  0.6041  0.0041 -0.3516
  723MOL0     H97604   5.883   8.065   7.667  0.5986 -1.8464  2.3115
  723MOL0     H97605   5.950   8.027   7.494 -0.0984  2.3729 -0.7918
  724MOL0     O97606   2.587   7.237  11.428  0.3317 -0.0796  0.2718
  724MOL0     C97607   2.507   7.327  11.413  1.5071  0.9311  0.6645
  724MOL0     O97608   2.471   7.373  11.288 -0.5262 -0.0775  0.5340
  724MOL0     C97609   2.581   7.378  11.203  0.1851  0.1517  0.1208
  724MOL0     C97610   2.566   7.309  11.083  0.1732 -1.1367 -0.3155
  724MOL0     C97611   2.669   7.280  10.996 -0.0776 -0.0783 -0.5817
  724MOL0     C97612   2.804   7.307  11.032 -0.2920 -1.8024 -0.2868
  724MOL0     O97613   2.907   7.264  10.951  0.1001 -0.6052  0.5661
  724MOL0     C97614   3.019   7.235  11.034 -0.3646 -1.1853  0.0447
  724MOL0     C97615   3.129   7.152  10.953  0.2398  0.7285 -0.2246
  724MOL0     C97616   3.068   7.052  10.853  0.1626  0.0162 -1.0556
  724MOL0     C97617   2.955   6.958  10.912 -0.1071 -0.2431  0.5872
  724MOL0     C97618   2.889   6.888  10.796 -0.3217  0.2798 -0.3019
  724MOL0     C97619   2.786   6.970  10.724 -1.1931 -0.6112 -0.1865
  724MOL0     C97620   2.699   6.873  10.633  0.5021  0.4038  0.1335
  724MOL0     C97621   2.576   6.952  10.583  0.5352  0.7302  0.5441
  724MOL0     N97622   2.482   6.980  10.684  0.6638 -0.0784  0.8805
  724MOL0     C97623   2.423   6.887  10.768  0.4957 -0.5793  0.5375
  724MOL0     C97624   2.341   6.959  10.838  0.6342 -0.2153 -0.5584
  724MOL0     C97625   2.276   6.899  10.961 -0.7042  0.5265 -0.4732
  724MOL0     C97626   2.134   6.860  10.933  0.9156 -0.2968 -0.1161
  724MOL0     C97627   2.113   6.718  10.890  0.5058  0.8333  0.0900
  724MOL0     C97628   1.967   6.649  10.923 -0.3667 -0.7304  0.0753
  724MOL0     O97629   1.871   6.742  10.878 -0.3806 -0.8206  0.8147
  724MOL0     C97630   1.772   6.691  10.793 -0.7480 -1.1818 -0.5943
  724MOL0     C97631   1.730   6.773  10.690  0.4860  0.3447  0.2220
  724MOL0     C97632   1.614   6.746  10.615 -0.3259 -0.4638 -0.9901
  724MOL0     C97633   1.557   6.620  10.625 -0.1097  0.3742  0.5653
  724MOL0     C97634   1.453   6.591  10.531  1.0531 -0.0708 -0.6208
  724MOL0     O97635   1.402   6.463  10.535 -0.3959  0.3538 -0.2288
  724MOL0     C97636   1.355   6.408  10.423 -0.1903 -1.1582 -0.4799
  724MOL0     C97637   1.441   6.393  10.313  0.0739 -0.3310 -0.0807
  724MOL0     C97638   1.397   6.319  10.210  0.1086 -1.2312 -0.1430
  724MOL0     C97639   1.262   6.276  10.205  0.1510  0.2786  0.5109
  724MOL0     O97640   1.211   6.221  10.093 -0.1358 -0.1674 -0.3634
  724MOL0     C97641   1.264   6.093  10.070 -0.9270 -0.2315 -0.6521
  724MOL0     C97642   1.146   6.005  10.067  0.5647 -0.4168  0.0787
  724MOL0     C97643   1.123   5.934   9.933 -0.2450 -0.5553  0.0712
  724MOL0     C97644   1.241   5.851   9.887 -0.4421  0.2931  0.1738
  724MOL0     C97645   1.205   5.776   9.764  0.2354 -0.6629 -0.3497
  724MOL0     C97646   1.097   5.667   9.777 -0.0274  0.1851 -0.6035
  724MOL0     C97647   1.148   5.540   9.846  1.2914  0.3241  0.5388
  724MOL0     C97648   1.047   5.429   9.814  0.3023  0.4369 -0.0038
  724MOL0    Cl97649   1.104   5.290   9.898  0.2479  0.1601 -0.0336
  724MOL0     C97650   1.166   6.307  10.303  0.1768  0.9995 -0.1799
  724MOL0     C97651   1.217   6.364  10.412 -0.2111 -0.8204  0.1433
  724MOL0     O97652   1.414   6.675  10.456 -0.4887  0.0267  0.3011
  724MOL0     C97653   1.604   6.532  10.725 -0.1330  0.3238  0.1412
  724MOL0     C97654   1.715   6.561  10.804 -0.0966  0.8885 -0.3042
  724MOL0     N97655   2.341   7.091  10.785 -0.0108  0.1605  0.5562
  724MOL0     N97656   2.429   7.105  10.698 -0.9486 -0.2808  0.3896
  724MOL0     C97657   2.815   7.401  11.142 -0.5357  0.2380 -0.8060
  724MOL0     C97658   2.710   7.425  11.228 -0.2766  0.1114 -0.5889
  724MOL0     C97659   2.416   7.365  11.530  0.6762  0.0604 -0.3638
  724MOL0     C97660   2.458   7.314  11.654 -0.1155  0.6829 -0.6164
  724MOL0     C97661   2.367   7.318  11.763 -0.4184  0.0078  0.5908
  724MOL0     C97662   2.238   7.376  11.743 -0.5728 -0.4342 -1.2657
  724MOL0     O97663   2.144   7.367  11.839 -0.5025 -0.7853 -0.3052
  724MOL0     C97664   2.189   7.344  11.974  0.0474 -0.1943 -0.2764
  724MOL0     C97665   2.083   7.342  12.078 -0.2060  0.8350 -0.0521
  724MOL0     C97666   1.975   7.248  12.031  0.3068  0.4779 -0.2396
  724MOL0     C97667   1.863   7.252  12.138 -0.5138 -0.7549  0.4284
  724MOL0     C97668   1.796   7.380  12.146 -0.3253  0.5756 -0.4124
  724MOL0     C97669   1.710   7.468  12.158 -0.1322  0.1876 -0.0462
  724MOL0     C97670   2.204   7.431  11.625 -0.1646 -0.0185  1.2913
  724MOL0     C97671   2.288   7.429  11.513 -0.3580 -0.1067  0.1941
  724MOL0     C97672   2.229   7.492  11.387 -0.7289 -0.5796 -0.3355
  724MOL0     H97673   2.461   7.291  11.063 -1.4671  3.5147  2.4032
  724MOL0     H97674   2.641   7.242  10.898 -0.3212 -2.1698  0.2539
  724MOL0     H97675   3.078   7.324  11.058 -1.9235 -0.4123  1.2594
  724MOL0     H97676   2.993   7.193  11.131  0.6313  0.7204  1.1830
  724MOL0     H97677   3.174   7.087  11.028 -1.6457 -1.7182 -1.0557
  724MOL0     H97678   3.201   7.210  10.895 -1.2130  1.8600 -0.9885
  724MOL0     H97679   3.146   6.980  10.829 -1.7907 -2.9705  0.8258
  724MOL0     H97680   3.031   7.091  10.758  0.9831 -1.1420 -1.8711
  724MOL0     H97681   3.004   6.880  10.970 -0.0252 -1.3008 -0.8380
  724MOL0     H97682   2.887   7.005  10.983 -1.0747  1.1889 -1.2140
  724MOL0     H97683   2.957   6.846  10.721 -0.2402 -1.5541  0.7533
  724MOL0     H97684   2.832   6.805  10.840 -2.3318  1.7356 -0.0201
  724MOL0     H97685   2.731   7.027  10.800  0.9253  0.0509  0.9451
  724MOL0     H97686   2.840   7.034  10.655 -1.9424 -1.4841 -1.6253
  724MOL0     H97687   2.679   6.783  10.692  0.4822 -0.1369 -0.6795
  724MOL0     H97688   2.762   6.842  10.549  1.4298  0.1580  0.9069
  724MOL0     H97689   2.601   7.048  10.537 -2.4671  1.8937  1.0986
  724MOL0     H97690   2.520   6.901  10.504  2.2196 -0.1586 -0.1161
  724MOL0     H97691   2.435   6.781  10.784 -1.0493 -0.8638 -0.0571
  724MOL0     H97692   2.326   6.815  11.010  1.2110  2.3343  0.8065
  724MOL0     H97693   2.272   6.978  11.036 -3.5062  1.4292 -1.4458
  724MOL0     H97694   2.067   6.873  11.019  1.1697 -0.4627  0.1109
  724MOL0     H97695   2.105   6.930  10.855  2.0898  0.9372  0.5141
  724MOL0     H97696   2.192   6.658  10.936  0.1715 -0.2429 -0.7130
  724MOL0     H97697   2.134   6.719  10.783 -1.4995  3.3819 -0.3694
  724MOL0     H97698   1.945   6.647  11.031 -3.5350  3.7834 -0.2109
  724MOL0     H97699   1.960   6.553  10.871  0.1263 -0.2202 -0.9397
  724MOL0     H97700   1.786   6.865  10.677  2.7173 -0.9852 -0.1498
  724MOL0     H97701   1.592   6.834  10.555 -0.1002  0.9423  0.8895
  724MOL0     H97702   1.543   6.429  10.311  0.0144  0.3095 -5.2709
  724MOL0     H97703   1.441   6.309  10.112  3.4089  0.4192  1.0101
  724MOL0     H97704   1.336   6.095   9.988  3.3973  0.9495  2.7571
  724MOL0     H97705   1.338   6.066  10.146  1.5097  1.7928 -2.1306
  724MOL0     H97706   1.157   5.928  10.144  0.7973  0.7265  1.2247
  724MOL0     H97707   1.052   6.053  10.098  0.7861 -1.6172  2.9658
  724MOL0     H97708   1.035   5.872   9.950 -2.2686  1.5968 -1.7564
  724MOL0     H97709   1.093   6.012   9.861 -3.3859  0.5859  2.3816
  724MOL0     H97710   1.268   5.792   9.975 -0.9781  1.4363  1.1270
  724MOL0     H97711   1.329   5.912   9.866 -0.8443  1.3593  1.4470
  724MOL0     H97712   1.287   5.722   9.716  0.6190 -1.0838  0.7292
  724MOL0     H97713   1.153   5.843   9.695  1.3276 -0.8989 -1.4230
  724MOL0     H97714   1.011   5.701   9.835 -1.9611 -0.9327 -2.6524
  724MOL0     H97715   1.059   5.637   9.678 -1.5275 -2.4868  0.6711
  724MOL0     H97716   1.172   5.545   9.953 -2.4868  1.7260  1.4904
  724MOL0     H97717   1.241   5.512   9.796  1.5497 -1.6523  1.9861
  724MOL0     H97718   0.957   5.457   9.870 -0.8933 -1.6485 -0.8028
  724MOL0     H97719   1.023   5.410   9.709 -1.2556  0.7875  0.2728
  724MOL0     H97720   1.067   6.267  10.281  0.0873 -0.3924  2.3955
  724MOL0     H97721   1.161   6.369  10.505  1.6698 -0.5282  1.3156
  724MOL0     H97722   1.544   6.442  10.728  0.6110 -0.1852 -0.1036
  724MOL0     H97723   1.759   6.500  10.883  0.2633  1.3396 -0.1499
  724MOL0     H97724   2.909   7.450  11.165 -0.0824  0.8220 -3.5386
  724MOL0     H97725   2.718   7.466  11.328  1.8069 -1.8592  0.1439
  724MOL0     H97726   2.562   7.285  11.662  0.2793  2.4399  1.7669
  724MOL0     H97727   2.401   7.284  11.860  0.0828  1.1017  0.8186
  724MOL0     H97728   2.275   7.409  11.992  1.7254 -2.3287 -0.1273
  724MOL0     H97729   2.231   7.243  11.983 -0.7319 -0.6290 -1.2609
  724MOL0     H97730   2.039   7.438  12.104 -2.8662 -0.6606  1.4457
  724MOL0     H97731   2.133   7.304  12.168  1.6727 -0.1344 -1.4334
  724MOL0     H97732   2.011   7.145  12.035  1.4485  0.7304 -2.3534
  724MOL0     H97733   1.937   7.272  11.931  0.7957  0.9725 -0.3177
  724MOL0     H97734   1.777   7.195  12.103 -0.2912 -1.8056  1.4960
  724MOL0     H97735   1.886   7.210  12.237 -2.2448 -2.9940 -0.0452
  724MOL0     H97736   1.631   7.540  12.153 -0.3873  0.0114  1.2269
  724MOL0     H97737   2.100   7.458  11.609 -0.7284 -3.3489 -2.2805
  724MOL0     H97738   2.214   7.414  11.312  1.0625  0.5409 -1.9411
  724MOL0     H97739   2.147   7.563  11.402  0.8714  0.7782  3.5099
  724MOL0     H97740   2.302   7.567  11.356 -4.3153  2.7010 -1.6326
  725MOL0     O97741   5.395   2.376   7.073 -0.1351  1.1250 -0.3041
  725MOL0     C97742   5.420   2.443   6.976  0.2876 -0.5868  0.4560
  725MOL0     O97743   5.350   2.558   6.944  0.0531  0.0427  0.0815
  725MOL0     C97744   5.261   2.606   7.037 -0.1765 -0.2398 -0.1879
  725MOL0     C97745   5.135   2.549   7.053  0.3766  0.2598  0.5806
  725MOL0     C97746   5.026   2.600   7.124 -0.1690 -0.0462  1.3569
  725MOL0     C97747   5.060   2.716   7.213 -0.4579  0.3623  0.1469
  725MOL0     O97748   4.979   2.763   7.311  0.6300 -0.3005 -0.2909
  725MOL0     C97749   4.838   2.723   7.332 -0.8389  0.1730  0.1126
  725MOL0     C97750   4.737   2.836   7.350  0.0717  0.5742 -0.0927
  725MOL0     C97751   4.700   2.842   7.493  0.8748 -0.7163 -0.0997
  725MOL0     C97752   4.825   2.879   7.578 -1.0507 -0.8318 -0.8107
  725MOL0     C97753   4.797   2.901   7.723  1.1798 -0.2109 -0.2354
  725MOL0     C97754   4.703   3.016   7.745 -0.0064  0.0402 -0.9920
  725MOL0     C97755   4.722   3.080   7.893 -0.5827 -0.1282  0.4978
  725MOL0     C97756   4.583   3.117   7.962  0.4014  0.0289 -0.4079
  725MOL0     N97757   4.511   3.225   7.897 -0.1765 -0.1014  0.5249
  725MOL0     C97758   4.564   3.354   7.887 -0.1204  0.1466  0.1228
  725MOL0     C97759   4.468   3.442   7.904 -0.0919  0.0906  0.4096
  725MOL0     C97760   4.486   3.592   7.903 -0.3342 -0.1895  0.7458
  725MOL0     C97761   4.472   3.662   8.035 -0.2406  0.6200 -0.3587
  725MOL0     C97762   4.610   3.685   8.118  0.1354  0.5923  0.3631
  725MOL0     C97763   4.660   3.564   8.196  0.7853 -0.8084 -0.1585
  725MOL0     O97764   4.753   3.468   8.138 -0.4948  0.4415 -0.0423
  725MOL0     C97765   4.822   3.376   8.203  0.5177 -0.7091  0.3134
  725MOL0     C97766   4.788   3.326   8.331 -0.1027 -0.0747  0.8135
  725MOL0     C97767   4.863   3.221   8.391  0.6497 -1.1087 -0.2043
  725MOL0     C97768   4.967   3.174   8.328 -0.8354 -0.3491 -0.1841
  725MOL0     C97769   5.059   3.087   8.404  1.0058  0.2158 -1.4266
  725MOL0     O97770   5.171   3.031   8.343  0.1926 -0.3319 -0.1196
  725MOL0     C97771   5.237   2.944   8.423  1.2150  1.0019  0.0206
  725MOL0     C97772   5.217   2.811   8.390  0.2506 -0.2199 -0.1831
  725MOL0     C97773   5.271   2.714   8.471  0.2141  0.3012 -0.4592
  725MOL0     C97774   5.335   2.742   8.590  1.0107 -0.4487  0.3112
  725MOL0     O97775   5.389   2.651   8.671 -0.3104 -0.4972  0.2888
  725MOL0     C97776   5.495   2.580   8.601  0.0937 -0.8085 -0.1596
  725MOL0     C97777   5.444   2.432   8.578 -0.5541 -0.2359  0.7717
  725MOL0     C97778   5.576   2.348   8.572  0.3819  1.2158  0.6343
  725MOL0     C97779   5.555   2.199   8.526  0.1703 -0.2644  0.3511
  725MOL0     C97780   5.673   2.114   8.569 -0.0988  0.7810 -0.0864
  725MOL0     C97781   5.811   2.172   8.535 -0.9285 -0.1823 -0.4916
  725MOL0     C97782   5.940   2.105   8.583 -0.6396  0.1474 -0.3654
  725MOL0     C97783   5.947   1.962   8.570 -0.5353  0.3659  0.2979
  725MOL0    Cl97784   5.955   1.910   8.392 -0.2814 -0.2257  0.3862
  725MOL0     C97785   5.341   2.875   8.637 -0.7035  0.8104  0.7303
  725MOL0     C97786   5.304   2.969   8.544  0.7816  0.3476  0.0098
  725MOL0     O97787   5.047   3.109   8.530 -0.4585  0.1825  0.7013
  725MOL0     C97788   4.995   3.217   8.197 -0.0812  0.2899  0.2823
  725MOL0     C97789   4.929   3.320   8.138  0.5559 -0.7344 -0.2655
  725MOL0     N97790   4.353   3.369   7.920  0.3528 -0.5389 -0.3892
  725MOL0     N97791   4.378   3.242   7.908  0.2817  0.7976 -0.6345
  725MOL0     C97792   5.185   2.781   7.201  0.6003  0.1914  0.5876
  725MOL0     C97793   5.286   2.725   7.107  0.3313  0.2739 -0.7132
  725MOL0     C97794   5.516   2.391   6.881  0.3959 -0.8631 -0.4882
  725MOL0     C97795   5.654   2.391   6.917  0.2485 -0.2924 -0.5433
  725MOL0     C97796   5.756   2.354   6.824  0.1540  0.8152  0.1815
  725MOL0     C97797   5.706   2.298   6.703  1.0082  0.3591 -0.4176
  725MOL0     O97798   5.793   2.254   6.613 -0.3045  0.0991  1.2922
  725MOL0     C97799   5.890   2.162   6.643  0.9385 -0.1907  0.4368
  725MOL0     C97800   5.957   2.110   6.514  0.1134 -0.0568  0.7577
  725MOL0     C97801   5.881   2.032   6.417 -0.4753 -0.4187 -0.2380
  725MOL0     C97802   5.759   1.961   6.470  1.1139  0.0642 -0.0707
  725MOL0     C97803   5.694   1.877   6.368 -0.8079  0.7630 -0.4456
  725MOL0     C97804   5.638   1.810   6.286  0.7535  0.4086 -0.0424
  725MOL0     C97805   5.570   2.297   6.671  0.9849  0.4821 -0.4773
  725MOL0     C97806   5.471   2.341   6.754  0.6324 -0.8654 -0.9286
  725MOL0     C97807   5.327   2.331   6.716  0.0094 -0.5320 -0.0517
  725MOL0     H97808   5.115   2.464   6.988 -0.7524 -0.2102  1.5059
  725MOL0     H97809   4.928   2.552   7.123  0.0964 -0.5921  1.3974
  725MOL0     H97810   4.796   2.664   7.250 -0.3438  1.7458 -1.3470
  725MOL0     H97811   4.837   2.649   7.413  0.2233  0.3065  0.2596
  725MOL0     H97812   4.640   2.829   7.300 -0.4072  5.5567 -0.4458
  725MOL0     H97813   4.791   2.924   7.312  3.0500 -1.2223 -0.3598
  725MOL0     H97814   4.641   2.753   7.519 -1.9318  1.3108  0.9820
  725MOL0     H97815   4.632   2.927   7.506  0.4889 -0.9064 -0.8220
  725MOL0     H97816   4.896   2.797   7.567 -2.4319 -1.7794 -3.3317
  725MOL0     H97817   4.873   2.971   7.543 -1.4427  1.1053  3.1741
  725MOL0     H97818   4.771   2.810   7.777  1.2797 -0.4271 -0.5503
  725MOL0     H97819   4.897   2.921   7.763  1.7398 -0.5994 -1.4099
  725MOL0     H97820   4.733   3.098   7.679 -1.6458  0.9006 -0.7231
  725MOL0     H97821   4.599   2.997   7.718 -0.7448  1.5776  0.5816
  725MOL0     H97822   4.800   3.156   7.896  2.4792 -3.0649  1.6861
  725MOL0     H97823   4.767   3.008   7.963  2.6235 -0.9058 -2.0918
  725MOL0     H97824   4.519   3.029   7.968  1.6736 -0.8477  1.1955
  725MOL0     H97825   4.595   3.150   8.066 -3.7267 -2.3880  1.0512
  725MOL0     H97826   4.669   3.378   7.895  0.2583 -1.1373 -0.6606
  725MOL0     H97827   4.575   3.622   7.848 -0.8955 -0.7720 -0.5387
  725MOL0     H97828   4.401   3.631   7.845 -0.7256 -2.4317 -0.3387
  725MOL0     H97829   4.420   3.755   8.012 -2.6302 -0.7293 -0.6944
  725MOL0     H97830   4.403   3.601   8.094  1.4821 -1.5552 -0.4641
  725MOL0     H97831   4.592   3.758   8.198 -1.1456 -0.6451  1.2501
  725MOL0     H97832   4.703   3.715   8.068  1.0204 -0.3506  1.4132
  725MOL0     H97833   4.569   3.513   8.230 -1.0782  3.4602  1.8900
  725MOL0     H97834   4.717   3.595   8.283  2.6479 -4.8023  0.2886
  725MOL0     H97835   4.689   3.351   8.370 -0.3431 -0.6436  0.5782
  725MOL0     H97836   4.829   3.187   8.488 -1.3858 -1.5382 -0.9940
  725MOL0     H97837   5.146   2.802   8.308  0.1404 -1.3603  0.0223
  725MOL0     H97838   5.250   2.613   8.439 -2.1480 -0.0312  1.8332
  725MOL0     H97839   5.534   2.622   8.508  0.9392  1.6029  1.1627
  725MOL0     H97840   5.579   2.572   8.672 -1.3396  3.0001  2.3533
  725MOL0     H97841   5.392   2.388   8.663  1.5161 -4.2343  0.2541
  725MOL0     H97842   5.380   2.436   8.489  2.6695  0.0133 -1.7318
  725MOL0     H97843   5.642   2.386   8.494  0.3686 -3.2536 -1.9146
  725MOL0     H97844   5.612   2.347   8.676 -0.2351 -0.9514  0.8664
  725MOL0     H97845   5.546   2.198   8.417 -0.5421  1.0501  0.3813
  725MOL0     H97846   5.464   2.159   8.572 -1.7730  1.8017 -1.4912
  725MOL0     H97847   5.658   2.011   8.537  2.2973 -0.0157  1.1659
  725MOL0     H97848   5.671   2.102   8.678  0.7663 -2.1595 -0.3033
  725MOL0     H97849   5.829   2.158   8.427 -1.5054 -2.1915 -0.3730
  725MOL0     H97850   5.822   2.277   8.563 -1.3672 -0.1085 -0.5963
  725MOL0     H97851   5.961   2.120   8.689  0.6633 -1.1045 -0.4199
  725MOL0     H97852   6.023   2.153   8.530 -0.5705  2.3397  1.5973
  725MOL0     H97853   6.039   1.928   8.618  0.8813  2.1520 -0.9831
  725MOL0     H97854   5.867   1.910   8.623  1.2775 -1.6357  1.2476
  725MOL0     H97855   5.384   2.894   8.734 -0.4038  1.1141  0.5392
  725MOL0     H97856   5.316   3.072   8.578  0.4998 -0.4064  2.5548
  725MOL0     H97857   5.074   3.174   8.136 -0.3925 -0.3228  0.3046
  725MOL0     H97858   4.955   3.364   8.042 -0.3601  1.9899  0.6544
  725MOL0     H97859   5.215   2.862   7.267  1.4469  1.4538 -1.2549
  725MOL0     H97860   5.382   2.774   7.118 -0.2379  1.2676 -0.0867
  725MOL0     H97861   5.663   2.449   7.009 -1.6472  0.5721 -0.8571
  725MOL0     H97862   5.861   2.373   6.840  0.2982 -1.1215  2.1043
  725MOL0     H97863   5.842   2.089   6.709 -0.5401  0.9723  0.7129
  725MOL0     H97864   5.963   2.208   6.711  1.4883  0.1989 -0.4127
  725MOL0     H97865   6.039   2.045   6.548 -0.7736  0.2996  3.9420
  725MOL0     H97866   5.988   2.195   6.454 -0.6871 -0.1047  0.2619
  725MOL0     H97867   5.939   1.942   6.394 -0.4338 -0.2462 -0.8357
  725MOL0     H97868   5.870   2.096   6.329  2.3821 -0.4314 -0.6933
  725MOL0     H97869   5.795   1.903   6.556  3.0690  1.2781 -0.0039
  725MOL0     H97870   5.688   2.032   6.513  0.7077 -0.3573 -0.0351
  725MOL0     H97871   5.592   1.755   6.206 -0.4796 -1.2359  1.7021
  725MOL0     H97872   5.538   2.269   6.571 -2.7354 -0.2110  0.7417
  725MOL0     H97873   5.321   2.294   6.613  0.9492 -0.4872 -0.1255
  725MOL0     H97874   5.270   2.270   6.786  0.9372 -0.4026  0.8280
  725MOL0     H97875   5.278   2.428   6.706  1.4433  0.2268  0.1559
  726MOL0     O97876   9.309   1.614   4.433  0.0334 -0.2094  0.0323
  726MOL0     C97877   9.326   1.707   4.349 -0.0789  0.1382 -0.2500
  726MOL0     O97878   9.247   1.722   4.237 -0.4755 -0.1582  0.3329
  726MOL0     C97879   9.156   1.632   4.192  0.5365  0.0506  0.3425
  726MOL0     C97880   9.049   1.679   4.119 -1.4062 -0.3599  0.5479
  726MOL0     C97881   8.953   1.606   4.063  0.4256 -1.5555 -0.1983
  726MOL0     C97882   8.951   1.468   4.092  0.3537 -0.0983  0.0542
  726MOL0     O97883   8.842   1.389   4.050 -0.0063 -0.0537  0.1379
  726MOL0     C97884   8.741   1.457   3.974 -0.1617 -0.5549  0.1300
  726MOL0     C97885   8.631   1.361   3.933 -0.2575 -0.4825  0.6800
  726MOL0     C97886   8.685   1.248   3.852  0.2093 -0.3552 -0.4036
  726MOL0     C97887   8.617   1.120   3.872  0.7269 -0.5691 -0.2511
  726MOL0     C97888   8.634   1.013   3.765 -0.4550 -0.0177 -0.2097
  726MOL0     C97889   8.547   0.893   3.792 -0.0804  0.0390  0.1939
  726MOL0     C97890   8.547   0.799   3.673 -0.2989 -0.5168  0.0952
  726MOL0     C97891   8.428   0.704   3.690  0.1100  0.1509 -0.2986
  726MOL0     N97892   8.423   0.583   3.604 -0.2457 -0.3264 -0.3425
  726MOL0     C97893   8.317   0.556   3.531  0.4635 -0.1295 -0.1570
  726MOL0     C97894   8.329   0.442   3.466 -0.4507  0.3890 -0.5667
  726MOL0     C97895   8.259   0.374   3.356 -0.0289  0.1414 -0.6288
  726MOL0     C97896   8.229   0.236   3.419  0.6466 -0.2658 -0.0658
  726MOL0     C97897   8.161   0.148   3.309 -0.3915  0.4658  0.0497
  726MOL0     C97898   8.072   0.050   3.383 -0.3737 -0.3038 -0.6565
  726MOL0     O97899   8.066  -0.072   3.304  0.0413  0.5415  0.1575
  726MOL0     C97900   8.044  -0.191   3.379  0.3253  0.7807  0.3892
  726MOL0     C97901   7.983  -0.194   3.498 -1.2370  0.2325 -0.1454
  726MOL0     C97902   7.940  -0.315   3.561 -0.7299 -1.6817 -0.1231
  726MOL0     C97903   7.955  -0.439   3.496  0.3289 -0.1677  0.2505
  726MOL0     C97904   7.909  -0.559   3.552  0.5727 -0.6120  0.6142
  726MOL0     O97905   7.852  -0.646   3.457  0.3443 -0.1779  0.3351
  726MOL0     C97906   7.783  -0.760   3.486  0.0579 -0.2188 -1.0494
  726MOL0     C97907   7.728  -0.821   3.375 -0.4452  0.9434  0.1186
  726MOL0     C97908   7.640  -0.933   3.395  0.4131 -0.4130  0.3295
  726MOL0     C97909   7.606  -0.971   3.526 -0.4197  0.7542 -0.2783
  726MOL0     O97910   7.509  -1.071   3.550 -0.0274 -0.4797 -0.1347
  726MOL0     C97911   7.541  -1.146   3.670 -0.8207  0.2917  0.4509
  726MOL0     C97912   7.486  -1.281   3.657 -0.7571 -0.3046 -0.3632
  726MOL0     C97913   7.564  -1.391   3.572 -1.2189  0.4102  0.8285
  726MOL0     C97914   7.491  -1.521   3.583  0.5882  0.5567 -1.0865
  726MOL0     C97915   7.587  -1.635   3.577  0.0542  0.1719  0.2450
  726MOL0     C97916   7.662  -1.649   3.457  0.0938 -0.1203 -0.3556
  726MOL0     C97917   7.748  -1.777   3.462 -1.3123 -0.4729  0.0486
  726MOL0     C97918   7.828  -1.785   3.327  0.3926  0.2448 -0.6743
  726MOL0    Cl97919   7.698  -1.806   3.203  0.2353  0.1748  0.0403
  726MOL0     C97920   7.660  -0.906   3.631 -0.3023 -0.0950  0.2962
  726MOL0     C97921   7.747  -0.809   3.614 -0.3358 -0.1339 -0.4028
  726MOL0     O97922   7.897  -0.569   3.671  0.1403 -0.6127 -0.0355
  726MOL0     C97923   8.023  -0.437   3.378 -0.4700  0.5033 -0.2124
  726MOL0     C97924   8.069  -0.318   3.319  0.4859  0.3643 -0.3928
  726MOL0     N97925   8.457   0.399   3.501 -0.1217  0.1884 -0.4022
  726MOL0     N97926   8.515   0.484   3.582 -0.2719 -0.7973 -0.4429
  726MOL0     C97927   9.054   1.409   4.173 -0.9354  1.0045  0.9667
  726MOL0     C97928   9.152   1.496   4.226 -0.0230 -0.7521  0.0934
  726MOL0     C97929   9.421   1.812   4.383 -0.9106 -0.0955 -0.4222
  726MOL0     C97930   9.396   1.942   4.343 -0.1957 -0.3082  0.3323
  726MOL0     C97931   9.495   2.045   4.357  0.5059  0.4624  0.3631
  726MOL0     C97932   9.619   2.005   4.420 -0.1146 -0.2560  0.1686
  726MOL0     O97933   9.711   2.108   4.438  0.9104 -0.3223  0.2572
  726MOL0     C97934   9.848   2.079   4.441  0.4383 -1.1626  0.3027
  726MOL0     C97935   9.934   2.201   4.459  0.4300 -0.2589 -0.0556
  726MOL0     C97936   9.913   2.314   4.355 -0.3499  0.0897 -1.3041
  726MOL0     C97937   9.884   2.279   4.220 -0.5707  0.2381  0.8045
  726MOL0     C97938   9.983   2.189   4.156  0.2118  0.8392  0.6292
  726MOL0     C97939  10.073   2.128   4.102  0.4093 -0.7458  0.1575
  726MOL0     C97940   9.639   1.882   4.469  0.3864 -0.3903  1.0941
  726MOL0     C97941   9.541   1.784   4.454 -0.5225 -0.9299  0.4521
  726MOL0     C97942   9.586   1.649   4.505 -0.7178  0.2640 -0.0274
  726MOL0     H97943   9.042   1.786   4.103  0.7171 -0.2799 -0.1213
  726MOL0     H97944   8.871   1.659   4.017  2.1463  1.2133 -0.3041
  726MOL0     H97945   8.698   1.528   4.045 -1.3837 -0.4655 -0.6683
  726MOL0     H97946   8.778   1.512   3.887  0.0052 -0.1377  0.4624
  726MOL0     H97947   8.547   1.410   3.883 -0.4391 -0.6423  0.8298
  726MOL0     H97948   8.593   1.323   4.028  0.6125  1.2876  1.8064
  726MOL0     H97949   8.793   1.234   3.862  0.7152  2.4091 -1.2563
  726MOL0     H97950   8.665   1.266   3.746 -2.6022 -1.2469 -0.0857
  726MOL0     H97951   8.648   1.077   3.968  0.3156  0.3365  0.2958
  726MOL0     H97952   8.511   1.143   3.885  0.8289 -0.6854  0.8328
  726MOL0     H97953   8.609   1.044   3.663 -1.0533 -0.6623 -0.2703
  726MOL0     H97954   8.739   0.982   3.773 -0.7633 -0.5970  2.7106
  726MOL0     H97955   8.578   0.837   3.881  0.8681 -2.6274 -1.6873
  726MOL0     H97956   8.447   0.935   3.806  0.5445  0.9723  2.3129
  726MOL0     H97957   8.634   0.733   3.674  0.6699  0.6410  3.0172
  726MOL0     H97958   8.556   0.853   3.578  2.3142  0.1085  0.6031
  726MOL0     H97959   8.421   0.660   3.790  1.2823 -1.7389 -0.9955
  726MOL0     H97960   8.339   0.764   3.668  1.1425  0.7956 -3.1248
  726MOL0     H97961   8.242   0.632   3.512  2.8143  2.1578 -0.9129
  726MOL0     H97962   8.174   0.425   3.309 -1.5687  0.5146  2.3140
  726MOL0     H97963   8.332   0.366   3.275 -2.4348  5.2199 -3.7956
  726MOL0     H97964   8.317   0.178   3.450  1.1928 -0.4387 -1.8146
  726MOL0     H97965   8.163   0.257   3.503  1.9504 -0.3845  1.0207
  726MOL0     H97966   8.244   0.099   3.258 -2.3661 -2.4324 -0.6041
  726MOL0     H97967   8.101   0.215   3.246 -2.8296 -1.0642  0.6009
  726MOL0     H97968   7.973   0.088   3.408 -0.0213 -0.3988  0.9797
  726MOL0     H97969   8.118   0.023   3.478 -0.8292  3.6061  0.8211
  726MOL0     H97970   7.981  -0.105   3.560 -0.0302 -0.4897  1.0074
  726MOL0     H97971   7.902  -0.306   3.662 -1.2090  1.9203 -0.4983
  726MOL0     H97972   7.744  -0.784   3.274 -2.0767 -4.0514 -2.3010
  726MOL0     H97973   7.607  -0.995   3.313  0.3302 -2.8526  2.0997
  726MOL0     H97974   7.646  -1.161   3.697 -1.2249 -0.2396  1.8421
  726MOL0     H97975   7.501  -1.102   3.762 -0.8059 -0.3912  0.7909
  726MOL0     H97976   7.499  -1.326   3.756  0.4097  0.9710  0.1106
  726MOL0     H97977   7.379  -1.281   3.635 -0.5763 -0.2345 -1.2636
  726MOL0     H97978   7.564  -1.367   3.465 -1.1890  1.5195  1.0747
  726MOL0     H97979   7.665  -1.401   3.613 -2.3987 -1.0238  3.6412
  726MOL0     H97980   7.430  -1.530   3.492  0.8690  1.5669 -1.3850
  726MOL0     H97981   7.436  -1.537   3.676  2.3096 -3.8312 -0.5856
  726MOL0     H97982   7.535  -1.731   3.573 -0.9141  0.6629  0.8104
  726MOL0     H97983   7.663  -1.626   3.655  1.0335  2.0626 -0.8559
  726MOL0     H97984   7.594  -1.654   3.371  1.5724  0.1493 -1.5905
  726MOL0     H97985   7.732  -1.567   3.441  1.7020 -0.8929  2.1621
  726MOL0     H97986   7.690  -1.869   3.475 -3.8809  1.0893  0.5471
  726MOL0     H97987   7.821  -1.763   3.542  0.4907 -1.5007 -1.3677
  726MOL0     H97988   7.891  -1.700   3.300 -0.3643  0.2689 -2.5389
  726MOL0     H97989   7.887  -1.877   3.337  1.0976  0.8034  0.6960
  726MOL0     H97990   7.627  -0.912   3.734  2.1856  0.5720  1.2078
  726MOL0     H97991   7.779  -0.767   3.709  0.6119 -1.0941 -0.2749
  726MOL0     H97992   8.063  -0.530   3.339  2.6007  2.3292 -1.8018
  726MOL0     H97993   8.126  -0.326   3.227 -0.5947  0.2027 -1.0667
  726MOL0     H97994   9.045   1.305   4.200  1.7031  0.9536  1.9422
  726MOL0     H97995   9.222   1.441   4.288 -0.7269 -3.0477 -1.0392
  726MOL0     H97996   9.292   1.965   4.324 -0.4649  0.0839  2.0494
  726MOL0     H97997   9.477   2.148   4.325  3.0506  0.2347 -2.1164
  726MOL0     H97998   9.869   2.013   4.357 -7.3066 -1.2303 -2.3820
  726MOL0     H97999   9.872   2.020   4.530 -1.0896  1.3872  2.5809
  726MOL0     H98000  10.038   2.167   4.460 -0.4089 -3.2248  1.6876
  726MOL0     H98001   9.921   2.231   4.564  4.8640 -1.5158  1.0659
  726MOL0     H98002  10.005   2.373   4.362 -1.3977  1.6389  0.4291
  726MOL0     H98003   9.833   2.374   4.399  1.9841  2.6950 -0.3210
  726MOL0     H98004   9.791   2.221   4.219 -1.3667  1.4899  0.3629
  726MOL0     H98005   9.868   2.369   4.161  1.5544 -0.6017 -1.2182
  726MOL0     H98006  10.132   2.056   4.049  0.4721  0.2824 -1.2104
  726MOL0     H98007   9.739   1.853   4.499  1.3436 -0.2248 -1.6638
  726MOL0     H98008   9.689   1.657   4.540 -2.0608  1.4018  4.1373
  726MOL0     H98009   9.526   1.627   4.593 -0.6822 -0.3045 -0.1440
  726MOL0     H98010   9.569   1.565   4.437 -0.0577  0.0013  0.1206
  727MOL0     O98011   5.275   6.991   8.459  0.5254 -0.7205  0.1413
  727MOL0     C98012   5.385   6.945   8.466 -0.2291  0.4095  1.0085
  727MOL0     O98013   5.493   7.007   8.537  1.0323  0.2402  0.2105
  727MOL0     C98014   5.478   7.126   8.601  0.7479  0.5582  0.5541
  727MOL0     C98015   5.374   7.137   8.692  0.4765  0.8516  0.4718
  727MOL0     C98016   5.347   7.260   8.745 -0.1377 -0.5803  0.0758
  727MOL0     C98017   5.442   7.371   8.731  0.3288  0.8479 -0.1042
  727MOL0     O98018   5.408   7.492   8.794  0.2319  0.9481 -0.2043
  727MOL0     C98019   5.497   7.609   8.768  0.3234 -0.0866  0.7456
  727MOL0     C98020   5.635   7.590   8.839  0.2059 -1.0408  0.4629
  727MOL0     C98021   5.618   7.549   8.989 -0.4482  1.2369 -0.0674
  727MOL0     C98022   5.741   7.564   9.078 -0.1121 -0.1873 -0.1679
  727MOL0     C98023   5.702   7.619   9.223 -0.0650 -0.6453  0.3401
  727MOL0     C98024   5.599   7.532   9.296 -0.9615  0.4633 -0.1604
  727MOL0     C98025   5.650   7.400   9.365  0.3342  0.8593  0.2424
  727MOL0     C98026   5.701   7.419   9.506  0.9771 -0.2918  0.4048
  727MOL0     N98027   5.827   7.496   9.512 -0.4753 -0.1043 -0.0969
  727MOL0     C98028   5.845   7.624   9.529 -0.2560  0.3249  0.2445
  727MOL0     C98029   5.976   7.641   9.557 -0.6416  0.5910  0.9790
  727MOL0     C98030   6.035   7.779   9.593 -0.3044 -0.6549 -0.6533
  727MOL0     C98031   6.067   7.868   9.474  0.4015  1.3876 -0.0190
  727MOL0     C98032   6.069   8.023   9.496  0.5211 -0.0847 -0.2616
  727MOL0     C98033   6.192   8.091   9.425  0.1306 -0.3458 -0.4565
  727MOL0     O98034   6.174   8.062   9.283 -0.3802 -0.0541 -0.1760
  727MOL0     C98035   6.236   8.154   9.197  0.0404 -0.6694  0.1087
  727MOL0     C98036   6.171   8.274   9.175 -0.5625  0.1151 -0.7652
  727MOL0     C98037   6.240   8.379   9.108  0.8305 -0.8294  0.3598
  727MOL0     C98038   6.362   8.355   9.034  0.5742 -0.1676 -0.0700
  727MOL0     C98039   6.437   8.463   8.961 -0.2449  0.6695  0.4600
  727MOL0     O98040   6.566   8.444   8.929 -0.2670 -0.3597 -0.8622
  727MOL0     C98041   6.627   8.541   8.853 -0.8397 -0.1271 -0.1179
  727MOL0     C98042   6.743   8.489   8.792 -1.4371 -0.0802  0.1869
  727MOL0     C98043   6.832   8.555   8.713  0.0372 -0.0870 -0.5112
  727MOL0     C98044   6.796   8.688   8.690 -0.9257 -0.5128  0.0711
  727MOL0     O98045   6.875   8.776   8.612 -0.0245  0.3285  0.5952
  727MOL0     C98046   6.953   8.714   8.513  0.4642  0.1014  0.7186
  727MOL0     C98047   7.023   8.828   8.430 -0.8606  0.8215  0.0382
  727MOL0     C98048   7.064   8.781   8.295  0.3085 -0.6496  0.1357
  727MOL0     C98049   6.960   8.813   8.188  1.0287  0.6761 -0.3071
  727MOL0     C98050   6.967   8.958   8.143  0.3171  0.9485 -0.3406
  727MOL0     C98051   6.884   9.002   8.025 -0.2279 -0.2754 -0.2332
  727MOL0     C98052   6.895   8.933   7.895  0.5236 -0.4693  0.2139
  727MOL0     C98053   6.831   9.007   7.769 -0.3515  0.2179 -0.4566
  727MOL0    Cl98054   6.658   8.970   7.754  0.0854  0.4676  0.4493
  727MOL0     C98055   6.677   8.750   8.736  0.2715  0.0889 -0.9629
  727MOL0     C98056   6.594   8.676   8.816  0.1600  0.1342 -0.0100
  727MOL0     O98057   6.358   8.543   8.912  0.7780 -0.0277 -0.4336
  727MOL0     C98058   6.416   8.222   9.053 -0.0699  0.1942 -0.3378
  727MOL0     C98059   6.355   8.130   9.133  1.2549 -0.2998 -0.2517
  727MOL0     N98060   6.034   7.520   9.531  0.2511  0.4962 -1.0214
  727MOL0     N98061   5.941   7.426   9.516  0.3109  0.1664  0.2508
  727MOL0     C98062   5.552   7.349   8.649  0.5546 -0.4289  0.3981
  727MOL0     C98063   5.565   7.227   8.581  0.5881  1.2809 -0.1801
  727MOL0     C98064   5.412   6.818   8.387 -0.4574 -0.1891  0.0883
  727MOL0     C98065   5.546   6.787   8.356 -0.3655 -0.0032 -0.0028
  727MOL0     C98066   5.588   6.686   8.269 -0.5073  0.4095  0.1169
  727MOL0     C98067   5.491   6.603   8.218 -0.5512 -0.3190  0.3067
  727MOL0     O98068   5.518   6.495   8.141 -0.2626 -0.2589  0.8922
  727MOL0     C98069   5.645   6.480   8.079  0.4181 -0.7391 -1.0763
  727MOL0     C98070   5.641   6.362   7.983 -0.4869  0.2971  0.3070
  727MOL0     C98071   5.783   6.306   7.951  0.6990  0.5773  0.2301
  727MOL0     C98072   5.766   6.169   7.887  0.0065  0.5207 -0.0834
  727MOL0     C98073   5.660   6.158   7.775 -0.7691  0.3260  1.7152
  727MOL0     C98074   5.577   6.179   7.687  0.1879  0.2522 -0.0686
  727MOL0     C98075   5.355   6.620   8.258  0.2985  0.3792 -0.8458
  727MOL0     C98076   5.315   6.717   8.347  0.4207  0.0219 -0.2334
  727MOL0     C98077   5.169   6.714   8.399  0.4019 -0.5602  0.2993
  727MOL0     H98078   5.308   7.051   8.704  1.5730 -0.7960 -3.5320
  727MOL0     H98079   5.262   7.286   8.807  0.8303 -1.6773  1.9371
  727MOL0     H98080   5.503   7.634   8.661 -0.0893  1.1405  0.9913
  727MOL0     H98081   5.452   7.696   8.817  1.1167  2.4249 -2.6169
  727MOL0     H98082   5.684   7.687   8.829 -0.6020 -0.4242  2.0901
  727MOL0     H98083   5.689   7.514   8.780  1.6700  0.5361 -0.3343
  727MOL0     H98084   5.589   7.443   8.985  1.4629  0.7098 -2.8742
  727MOL0     H98085   5.538   7.608   9.036 -2.7386 -1.3012 -0.5078
  727MOL0     H98086   5.784   7.463   9.073 -0.3580 -0.2331 -2.2691
  727MOL0     H98087   5.813   7.635   9.038 -1.1204  1.0967  0.2448
  727MOL0     H98088   5.789   7.627   9.288  0.8331 -0.9417 -0.8035
  727MOL0     H98089   5.662   7.720   9.211 -0.4783 -1.0475 -2.1134
  727MOL0     H98090   5.563   7.596   9.377 -1.0777  0.0396  0.1200
  727MOL0     H98091   5.512   7.508   9.235 -0.5429  2.2443 -1.5503
  727MOL0     H98092   5.728   7.344   9.313  0.0891 -1.0817  1.8240
  727MOL0     H98093   5.563   7.333   9.367  0.5902  0.4479 -1.1242
  727MOL0     H98094   5.618   7.457   9.566 -0.1406 -0.7359 -0.8157
  727MOL0     H98095   5.727   7.317   9.536 -0.0135 -1.5961 -2.7799
  727MOL0     H98096   5.769   7.701   9.523 -0.0286  0.5762  0.5640
  727MOL0     H98097   5.965   7.841   9.649 -1.2563 -2.1672 -0.1190
  727MOL0     H98098   6.120   7.767   9.660  1.8541  2.0341 -2.6779
  727MOL0     H98099   6.162   7.825   9.443 -0.1967 -1.8697  2.2361
  727MOL0     H98100   5.990   7.864   9.396  0.6726  1.7430 -0.3073
  727MOL0     H98101   6.062   8.050   9.602  1.5128 -2.0563  0.3637
  727MOL0     H98102   5.979   8.069   9.455 -0.8684 -1.9008  0.5831
  727MOL0     H98103   6.278   8.035   9.463 -0.8108  0.0437  2.4402
  727MOL0     H98104   6.210   8.198   9.433  2.2869 -0.8132  2.9911
  727MOL0     H98105   6.068   8.297   9.199 -0.1566  1.1925  0.0295
  727MOL0     H98106   6.202   8.480   9.106  1.7191 -0.4282 -3.2440
  727MOL0     H98107   6.751   8.381   8.804 -2.4022 -0.3929 -1.5487
  727MOL0     H98108   6.926   8.518   8.673  1.3863  0.8434  1.5699
  727MOL0     H98109   7.031   8.648   8.554  0.2623 -0.4288  0.2711
  727MOL0     H98110   6.891   8.642   8.458 -0.0369 -0.3217  1.8231
  727MOL0     H98111   6.967   8.921   8.417 -1.1112  0.8724  1.2930
  727MOL0     H98112   7.116   8.841   8.487 -0.4005  0.6996 -0.6803
  727MOL0     H98113   7.162   8.828   8.279  0.5892 -0.6202  1.7433
  727MOL0     H98114   7.078   8.673   8.294  0.3460 -0.6822  1.5891
  727MOL0     H98115   6.863   8.798   8.235  1.6306  0.5559  0.9486
  727MOL0     H98116   6.983   8.750   8.102  0.6403 -1.7966  1.3169
  727MOL0     H98117   7.074   8.976   8.130  1.2097 -0.7760  3.4521
  727MOL0     H98118   6.934   9.016   8.230  1.8536  0.2646  0.7407
  727MOL0     H98119   6.776   8.993   8.038 -0.6076 -1.7541 -3.3733
  727MOL0     H98120   6.886   9.110   8.014 -0.0226 -0.2872 -0.3321
  727MOL0     H98121   6.856   8.833   7.914 -0.8651 -0.3794 -1.8352
  727MOL0     H98122   7.000   8.924   7.867  0.1653 -1.3908 -0.9356
  727MOL0     H98123   6.856   9.114   7.769  0.9517 -0.0345 -2.1206
  727MOL0     H98124   6.879   8.967   7.679  1.3819 -1.1490  0.9985
  727MOL0     H98125   6.663   8.853   8.707 -1.0895 -0.1710 -1.2870
  727MOL0     H98126   6.511   8.726   8.865  0.7026  0.2278  0.8317
  727MOL0     H98127   6.513   8.199   9.011  1.0114  1.4348  1.3315
  727MOL0     H98128   6.411   8.044   9.168 -0.8400 -1.2677  0.9252
  727MOL0     H98129   5.617   7.428   8.612 -2.7966  1.0700 -2.9731
  727MOL0     H98130   5.651   7.206   8.519  0.7982 -3.1132  1.2870
  727MOL0     H98131   5.625   6.846   8.400 -1.0823 -1.4700  3.7003
  727MOL0     H98132   5.692   6.675   8.239 -0.3335 -4.2726  1.6689
  727MOL0     H98133   5.700   6.448   8.167  2.1919 -0.9850 -2.2263
  727MOL0     H98134   5.678   6.560   8.012 -2.3433  1.0341 -0.5034
  727MOL0     H98135   5.585   6.399   7.896  0.7109 -0.1517 -0.6979
  727MOL0     H98136   5.579   6.291   8.038 -1.6506  2.2648  1.6338
  727MOL0     H98137   5.848   6.312   8.038 -0.3177  0.5346  1.0127
  727MOL0     H98138   5.833   6.376   7.883  2.2656 -2.3271 -1.8271
  727MOL0     H98139   5.860   6.131   7.846  0.3655 -1.5209  2.3558
  727MOL0     H98140   5.735   6.104   7.969 -0.5773  1.1816  0.2325
  727MOL0     H98141   5.496   6.202   7.621 -1.6339  1.1051  2.3388
  727MOL0     H98142   5.291   6.538   8.228 -0.2188 -1.7511  4.8338
  727MOL0     H98143   5.172   6.743   8.504 -0.5066  1.0474 -0.0806
  727MOL0     H98144   5.118   6.794   8.344  0.6410  2.3878  3.9635
  727MOL0     H98145   5.122   6.615   8.400  0.1928 -0.4670  0.0457
  728MOL0     O98146   0.057  11.111   8.908 -0.6572 -0.0295 -0.8845
  728MOL0     C98147   0.058  11.174   9.015  0.0333  0.6081 -0.4175
  728MOL0     O98148  -0.042  11.167   9.114 -0.4725 -0.7171 -0.1307
  728MOL0     C98149  -0.146  11.082   9.111 -0.2827  0.6177 -0.5307
  728MOL0     C98150  -0.140  10.977   9.202  0.0896  0.7438  0.1857
  728MOL0     C98151  -0.227  10.868   9.201 -0.3120 -0.2513  0.0791
  728MOL0     C98152  -0.333  10.873   9.116  0.9382  0.6768  0.6068
  728MOL0     O98153  -0.425  10.769   9.121  0.6904 -0.7420  0.2828
  728MOL0     C98154  -0.561  10.797   9.072 -1.0046 -0.0366 -0.1212
  728MOL0     C98155  -0.657  10.691   9.110  0.5065 -1.0229 -1.1396
  728MOL0     C98156  -0.795  10.720   9.059  0.3327 -1.2040  0.9283
  728MOL0     C98157  -0.900  10.622   9.123 -0.4547 -0.6027  0.5198
  728MOL0     C98158  -1.023  10.603   9.038 -0.6760  0.6244  0.8452
  728MOL0     C98159  -1.124  10.724   9.046 -0.6359 -0.4291  0.8029
  728MOL0     C98160  -1.262  10.681   9.032  0.7797  0.3420  0.3512
  728MOL0     C98161  -1.313  10.653   8.892 -0.3506 -0.4365  0.4657
  728MOL0     N98162  -1.461  10.622   8.912 -1.3058  0.3594  0.4948
  728MOL0     C98163  -1.557  10.720   8.923  0.7001  0.0750  0.3408
  728MOL0     C98164  -1.672  10.657   8.913 -1.5016  0.8087 -0.7605
  728MOL0     C98165  -1.803  10.724   8.938 -0.2143  0.6641  0.0162
  728MOL0     C98166  -1.910  10.680   8.838 -1.1996 -0.6831 -0.6868
  728MOL0     C98167  -1.881  10.719   8.697  0.1259 -0.2996 -1.1244
  728MOL0     C98168  -1.785  10.627   8.629  0.7977 -0.2050  0.2511
  728MOL0     O98169  -1.669  10.695   8.638 -0.1849 -0.3671 -0.8856
  728MOL0     C98170  -1.560  10.637   8.572  0.3792  0.1637 -0.1813
  728MOL0     C98171  -1.566  10.504   8.525 -0.6420 -0.4777  0.2253
  728MOL0     C98172  -1.453  10.452   8.462  0.5975  0.2395  0.9733
  728MOL0     C98173  -1.335  10.531   8.455  0.0733 -0.3893  0.2328
  728MOL0     C98174  -1.208  10.479   8.394 -0.0081  0.2251  0.0263
  728MOL0     O98175  -1.207  10.348   8.365  0.9196 -0.2151 -1.0917
  728MOL0     C98176  -1.090  10.281   8.335 -0.8817  0.7238 -0.1498
  728MOL0     C98177  -1.089  10.185   8.236  0.7459  0.5483  1.5102
  728MOL0     C98178  -0.976  10.101   8.199 -0.1178 -0.1386 -0.4350
  728MOL0     C98179  -0.864  10.112   8.279 -0.3448 -0.1434 -0.5379
  728MOL0     O98180  -0.754  10.027   8.258 -0.8622  0.3541 -0.9574
  728MOL0     C98181  -0.616  10.076   8.267  0.5320  1.9985  0.1800
  728MOL0     C98182  -0.597  10.182   8.155  0.1783 -0.7941 -0.4662
  728MOL0     C98183  -0.449  10.204   8.123  0.6315  0.8569  0.0698
  728MOL0     C98184  -0.412  10.315   8.029  0.1265  0.1982  0.1234
  728MOL0     C98185  -0.368  10.444   8.102 -0.1402  0.2830 -0.2479
  728MOL0     C98186  -0.229  10.440   8.167 -0.4647 -0.0433 -0.5486
  728MOL0     C98187  -0.239  10.565   8.262  0.3070  0.4065  0.0938
  728MOL0     C98188  -0.113  10.592   8.346 -0.1289  1.4081 -0.0932
  728MOL0    Cl98189   0.008  10.653   8.243 -0.1178 -0.0108 -0.0075
  728MOL0     C98190  -0.860  10.205   8.386  0.2401 -0.2469 -0.0362
  728MOL0     C98191  -0.963  10.294   8.404  0.8450 -0.3535  0.9629
  728MOL0     O98192  -1.106  10.554   8.385 -0.4737  0.5143  0.3184
  728MOL0     C98193  -1.343  10.666   8.500  0.1205 -0.2682 -0.7098
  728MOL0     C98194  -1.448  10.719   8.562  0.8641 -0.1277 -0.1537
  728MOL0     N98195  -1.645  10.513   8.911  0.5241 -0.9319  0.3756
  728MOL0     N98196  -1.515  10.495   8.909  0.4163  0.5991  0.6789
  728MOL0     C98197  -0.343  10.981   9.022  0.7117 -0.1467 -0.8328
  728MOL0     C98198  -0.247  11.074   9.017  1.0642 -0.4438  0.3482
  728MOL0     C98199   0.186  11.227   9.057  0.2465  0.7814 -0.8315
  728MOL0     C98200   0.220  11.225   9.195  0.2319  0.8005 -0.1246
  728MOL0     C98201   0.349  11.247   9.243 -0.7735 -1.6125 -0.3522
  728MOL0     C98202   0.445  11.282   9.151 -0.5608  0.1886  0.3010
  728MOL0     O98203   0.581  11.313   9.178 -0.3369  0.1038 -0.0538
  728MOL0     C98204   0.660  11.195   9.207 -0.9907  1.5239  0.5401
  728MOL0     C98205   0.717  11.141   9.075  0.1885  0.2480 -1.1664
  728MOL0     C98206   0.832  11.214   9.001 -0.2570 -0.2204  0.6562
  728MOL0     C98207   0.931  11.272   9.092  0.6506 -0.1612  0.4699
  728MOL0     C98208   1.017  11.177   9.165 -0.2858 -0.3410 -0.2227
  728MOL0     C98209   1.083  11.097   9.234 -0.9771  0.4157  0.5755
  728MOL0     C98210   0.413  11.307   9.015 -0.7754  0.1670  0.0436
  728MOL0     C98211   0.285  11.284   8.973 -0.2282  1.0856 -0.0865
  728MOL0     C98212   0.260  11.305   8.829  0.4080  0.1634 -0.8211
  728MOL0     H98213  -0.065  10.980   9.280  0.6760 -1.4897 -0.2364
  728MOL0     H98214  -0.225  10.809   9.292  0.3020  2.2257  1.7880
  728MOL0     H98215  -0.592  10.893   9.116 -3.3630 -0.1473 -1.3527
  728MOL0     H98216  -0.559  10.806   8.963 -5.1121 -1.3452 -0.4866
  728MOL0     H98217  -0.659  10.690   9.219  3.2138 -3.2597 -1.0017
  728MOL0     H98218  -0.628  10.594   9.067 -3.3736 -2.0453 -1.8179
  728MOL0     H98219  -0.801  10.703   8.951  2.2006 -3.8971  1.1571
  728MOL0     H98220  -0.817  10.825   9.077 -1.8638 -0.8103 -2.7803
  728MOL0     H98221  -0.860  10.521   9.137  0.4506  0.1424  4.5271
  728MOL0     H98222  -0.926  10.651   9.225 -0.8151 -0.7622  0.4741
  728MOL0     H98223  -0.996  10.584   8.934 -0.4400 -1.6823  1.2680
  728MOL0     H98224  -1.074  10.512   9.073 -1.0703 -0.3665 -2.0274
  728MOL0     H98225  -1.125  10.771   9.144 -0.5223 -2.7290  1.9817
  728MOL0     H98226  -1.094  10.785   8.960 -1.5599  0.5692  1.1581
  728MOL0     H98227  -1.319  10.764   9.075 -2.1987 -1.2922 -0.1644
  728MOL0     H98228  -1.281  10.600   9.102 -1.4279 -1.5022 -2.2135
  728MOL0     H98229  -1.305  10.737   8.823  1.5941 -0.8744  0.1127
  728MOL0     H98230  -1.249  10.568   8.866  1.3168  1.0918 -0.6925
  728MOL0     H98231  -1.539  10.826   8.930  2.4491  0.0160 -2.0957
  728MOL0     H98232  -1.837  10.698   9.038 -1.3056 -0.3182 -0.5993
  728MOL0     H98233  -1.795  10.834   8.938  0.2977  0.7904  4.3796
  728MOL0     H98234  -1.933  10.573   8.844 -1.6725 -0.5399  0.2182
  728MOL0     H98235  -2.003  10.724   8.875  0.0216  0.0826  1.7259
  728MOL0     H98236  -1.840  10.821   8.692  2.8942 -1.3290 -0.8109
  728MOL0     H98237  -1.976  10.725   8.644 -2.0797 -0.3240  2.4639
  728MOL0     H98238  -1.808  10.616   8.522  2.1788 -1.9933  0.1025
  728MOL0     H98239  -1.795  10.532   8.681 -0.1576  0.2047  0.8370
  728MOL0     H98240  -1.653  10.440   8.530 -0.3806 -1.0375 -1.6643
  728MOL0     H98241  -1.461  10.353   8.419  2.1824  0.5660 -0.1751
  728MOL0     H98242  -1.188  10.185   8.191 -0.0245 -1.3589  3.0908
  728MOL0     H98243  -0.974  10.031   8.117  1.1836  0.7138 -1.1607
  728MOL0     H98244  -0.585  10.117   8.363  2.9314 -0.0624  0.3578
  728MOL0     H98245  -0.548   9.992   8.253  0.6942  1.5819  2.9024
  728MOL0     H98246  -0.658  10.136   8.077  1.9476 -2.8968 -0.7022
  728MOL0     H98247  -0.633  10.284   8.172  1.6140 -0.3123 -0.1681
  728MOL0     H98248  -0.408  10.224   8.223 -1.0016  0.3986  0.8670
  728MOL0     H98249  -0.420  10.105   8.086 -0.2594 -0.5322  2.8083
  728MOL0     H98250  -0.498  10.327   7.964  0.1463  0.4310  0.1392
  728MOL0     H98251  -0.326  10.288   7.967 -0.9036 -0.2813 -1.1424
  728MOL0     H98252  -0.456  10.464   8.164 -1.8078 -2.4645 -1.5520
  728MOL0     H98253  -0.359  10.529   8.034  2.5354  0.5116  0.2803
  728MOL0     H98254  -0.231  10.347   8.224 -1.1646  0.2401 -0.0980
  728MOL0     H98255  -0.144  10.434   8.098  0.0496  2.7061 -0.2696
  728MOL0     H98256  -0.318  10.543   8.335  1.0577  0.2709  0.8859
  728MOL0     H98257  -0.266  10.656   8.207 -0.1502  0.3580  0.2298
  728MOL0     H98258  -0.139  10.668   8.421 -3.7929  0.8831 -0.6214
  728MOL0     H98259  -0.077  10.508   8.404 -0.5918  0.5692 -0.9853
  728MOL0     H98260  -0.770  10.210   8.447 -1.2117 -0.0044  2.2112
  728MOL0     H98261  -0.956  10.371   8.480  0.4254  0.2687  0.3915
  728MOL0     H98262  -1.265  10.741   8.487 -0.7404  1.3767  2.4875
  728MOL0     H98263  -1.464  10.815   8.611 -0.0802  0.1687 -1.0035
  728MOL0     H98264  -0.422  10.990   8.948 -1.6568 -0.8107  1.4727
  728MOL0     H98265  -0.238  11.150   8.940  0.4032  0.6270  1.2945
  728MOL0     H98266   0.151  11.199   9.275  0.4863  3.3752  1.0328
  728MOL0     H98267   0.395  11.240   9.341 -0.2938  1.0600 -0.2982
  728MOL0     H98268   0.609  11.119   9.266  2.8442 -2.9509 -1.2554
  728MOL0     H98269   0.732  11.229   9.282 -0.1154  2.2161 -0.5732
  728MOL0     H98270   0.627  11.135   9.014 -1.8381 -0.9857  1.7214
  728MOL0     H98271   0.767  11.047   9.103  1.9633  2.4269  4.2847
  728MOL0     H98272   0.772  11.294   8.955  0.7964 -0.2672 -0.8777
  728MOL0     H98273   0.885  11.155   8.925 -0.2918  0.2551  0.2605
  728MOL0     H98274   1.004  11.327   9.032  0.8430  1.1666  1.8735
  728MOL0     H98275   0.882  11.338   9.164 -1.0796 -0.0019 -0.7808
  728MOL0     H98276   1.144  11.047   9.307 -1.9676 -1.3375  0.2526
  728MOL0     H98277   0.490  11.330   8.942  0.4138 -0.4723  1.0394
  728MOL0     H98278   0.165  11.269   8.788  0.0224 -1.3880  1.2615
  728MOL0     H98279   0.249  11.412   8.808  0.3217  0.1165 -1.0162
  728MOL0     H98280   0.347  11.266   8.774  2.0733  0.7895  1.2305
  729MOL0     O98281  10.402   4.402   6.816  1.1104 -0.1022 -0.1383
  729MOL0     C98282  10.515   4.371   6.853 -0.2012 -0.2840 -0.4473
  729MOL0     O98283  10.544   4.344   6.985  0.5840  0.0059  0.0029
  729MOL0     C98284  10.449   4.334   7.077 -0.7612 -0.5347  1.3557
  729MOL0     C98285  10.354   4.238   7.076 -0.5973 -0.1128 -0.5454
  729MOL0     C98286  10.263   4.233   7.174  0.5361 -0.2216 -0.1388
  729MOL0     C98287  10.257   4.329   7.282 -0.9126 -0.6937  0.0838
  729MOL0     O98288  10.166   4.327   7.382 -0.3157  0.4339 -0.8058
  729MOL0     C98289  10.107   4.197   7.395 -0.0383 -0.8429  0.1562
  729MOL0     C98290  10.045   4.197   7.544 -0.0510  1.5467  1.1175
  729MOL0     C98291   9.968   4.069   7.562 -0.5000 -0.3173 -0.6492
  729MOL0     C98292  10.030   3.933   7.529  0.0539  0.8189  0.4507
  729MOL0     C98293  10.135   3.907   7.632  0.5251 -0.7639 -0.5706
  729MOL0     C98294  10.191   3.770   7.623  0.6409  1.1331 -1.0022
  729MOL0     C98295  10.287   3.742   7.737 -0.4703  0.0636 -0.1623
  729MOL0     C98296  10.367   3.605   7.730 -0.1025 -0.9967 -0.3655
  729MOL0     N98297  10.298   3.486   7.756 -0.0352  0.0039  0.3200
  729MOL0     C98298  10.195   3.433   7.682 -1.0224 -0.2874 -0.3024
  729MOL0     C98299  10.184   3.311   7.726 -0.5664  0.9107  0.0628
  729MOL0     C98300  10.095   3.203   7.670  0.3503 -0.3141 -0.6671
  729MOL0     C98301  10.163   3.108   7.572  0.4422 -0.3330 -1.4262
  729MOL0     C98302  10.267   3.016   7.648  0.6189  1.1594  0.6837
  729MOL0     C98303  10.319   2.906   7.559  0.3365 -0.0157  1.1876
  729MOL0     O98304  10.423   2.965   7.470  0.6970 -0.0394 -0.0523
  729MOL0     C98305  10.456   2.903   7.350 -0.1928  0.3545 -0.4024
  729MOL0     C98306  10.417   2.769   7.306  0.3296 -0.2997  0.7969
  729MOL0     C98307  10.463   2.718   7.180 -0.0380  0.7615  0.2359
  729MOL0     C98308  10.555   2.792   7.108 -0.0087  0.0040  0.7500
  729MOL0     C98309  10.598   2.751   6.973  0.9841  0.0975 -0.4038
  729MOL0     O98310  10.533   2.629   6.925 -0.6443 -0.0283 -0.7538
  729MOL0     C98311  10.558   2.595   6.797  0.2716  1.0911  0.5737
  729MOL0     C98312  10.661   2.519   6.749 -0.4807 -0.4996 -1.2855
  729MOL0     C98313  10.675   2.487   6.611  0.4104  1.2658  0.3787
  729MOL0     C98314  10.598   2.540   6.512  0.4371 -0.7882 -0.1449
  729MOL0     O98315  10.620   2.483   6.382 -0.3036 -1.1973  0.0059
  729MOL0     C98316  10.533   2.513   6.274  0.3516 -0.1035  0.1647
  729MOL0     C98317  10.597   2.430   6.165 -0.0058  0.3818 -0.2618
  729MOL0     C98318  10.738   2.472   6.129 -0.4309 -0.2579 -0.0083
  729MOL0     C98319  10.781   2.396   6.004 -0.8202 -0.4630  0.4135
  729MOL0     C98320  10.926   2.420   5.971 -0.1703  0.3570  0.7676
  729MOL0     C98321  10.969   2.343   5.849 -0.5749  0.2595 -0.4489
  729MOL0     C98322  11.116   2.352   5.813  0.3251 -1.1865 -0.1532
  729MOL0     C98323  11.172   2.489   5.801 -0.7643 -0.9648  0.5996
  729MOL0    Cl98324  11.341   2.467   5.737 -0.2876  0.2274  0.0000
  729MOL0     C98325  10.504   2.632   6.551 -0.6230  0.2983  0.7077
  729MOL0     C98326  10.486   2.651   6.689 -0.1501 -0.2983 -0.0046
  729MOL0     O98327  10.678   2.826   6.919 -0.1402  0.5178 -0.0060
  729MOL0     C98328  10.597   2.920   7.152  0.3118 -0.2715 -0.1290
  729MOL0     C98329  10.545   2.965   7.270  0.4112 -0.1192  0.0875
  729MOL0     N98330  10.280   3.277   7.819 -0.5871  0.7765  0.1546
  729MOL0     N98331  10.342   3.386   7.845 -0.8882  0.9291 -0.3895
  729MOL0     C98332  10.347   4.438   7.283  0.3824  0.1868  0.6435
  729MOL0     C98333  10.446   4.431   7.179 -0.9308 -0.3223 -0.7898
  729MOL0     C98334  10.617   4.343   6.750  0.7010 -0.3400  0.2033
  729MOL0     C98335  10.578   4.341   6.608 -0.2537  0.4131  0.7574
  729MOL0     C98336  10.661   4.309   6.506 -0.4390 -0.8926 -0.9220
  729MOL0     C98337  10.793   4.259   6.523 -0.6363  0.2533  0.2553
  729MOL0     O98338  10.885   4.220   6.429 -0.0618 -0.8450  0.1441
  729MOL0     C98339  11.025   4.213   6.453  0.6646  0.5993  0.1552
  729MOL0     C98340  11.115   4.225   6.328 -0.2968 -0.2218 -0.0291
  729MOL0     C98341  11.104   4.099   6.240 -0.9179  0.5233  0.1486
  729MOL0     C98342  11.170   3.980   6.310  0.1299 -0.0069 -0.6783
  729MOL0     C98343  11.168   3.872   6.211 -0.1342  0.8007 -0.6716
  729MOL0     C98344  11.161   3.791   6.122 -0.4784  0.1977 -0.4451
  729MOL0     C98345  10.817   4.250   6.661 -0.1018  0.0991  1.3704
  729MOL0     C98346  10.744   4.291   6.778 -0.1184  0.0479 -0.0558
  729MOL0     C98347  10.821   4.283   6.915 -0.4684  0.0574 -0.2759
  729MOL0     H98348  10.339   4.173   6.990 -2.7621 -0.3702 -0.0366
  729MOL0     H98349  10.186   4.159   7.157 -0.4095  0.8791 -0.8146
  729MOL0     H98350  10.034   4.188   7.314  0.7715  0.4212 -0.7386
  729MOL0     H98351  10.174   4.113   7.374  1.9652  0.4716  0.9905
  729MOL0     H98352   9.987   4.286   7.569 -0.8950  1.1894  0.5003
  729MOL0     H98353  10.131   4.191   7.612 -0.7831  0.6029  1.9853
  729MOL0     H98354   9.881   4.077   7.495 -0.6325 -2.8593 -0.8980
  729MOL0     H98355   9.919   4.061   7.660  1.3853 -0.8498  0.2868
  729MOL0     H98356   9.943   3.868   7.538 -0.5995  1.7140  0.7031
  729MOL0     H98357  10.081   3.923   7.433  1.4949 -2.3025  1.4161
  729MOL0     H98358  10.216   3.980   7.619 -0.4929  0.7147  1.0226
  729MOL0     H98359  10.115   3.928   7.737 -0.3607 -2.6688 -0.3182
  729MOL0     H98360  10.110   3.698   7.638 -1.6889  4.0999  2.4556
  729MOL0     H98361  10.241   3.763   7.526 -0.1126 -1.3089 -1.2902
  729MOL0     H98362  10.224   3.741   7.826 -1.4799  2.1017 -0.7963
  729MOL0     H98363  10.356   3.826   7.751  0.1172 -0.6169  1.2159
  729MOL0     H98364  10.398   3.618   7.626 -3.0786  3.0452 -0.9881
  729MOL0     H98365  10.455   3.611   7.795  1.4397 -0.2777 -2.3891
  729MOL0     H98366  10.145   3.463   7.591 -2.4122  0.4219  0.6503
  729MOL0     H98367  10.048   3.144   7.749 -0.4944  1.8665  0.5453
  729MOL0     H98368  10.012   3.255   7.620 -0.2267  0.7357  1.2721
  729MOL0     H98369  10.086   3.044   7.526 -0.4887 -2.4852  2.6588
  729MOL0     H98370  10.209   3.161   7.488 -2.6678  1.5296 -2.1487
  729MOL0     H98371  10.242   2.964   7.741  1.0589 -1.2219 -0.4637
  729MOL0     H98372  10.355   3.070   7.685  2.0678 -0.8750  0.3870
  729MOL0     H98373  10.237   2.873   7.495  1.0723  1.8058 -0.8169
  729MOL0     H98374  10.370   2.831   7.621  3.1193  2.9985  2.8627
  729MOL0     H98375  10.329   2.715   7.339 -0.5117 -2.0442 -3.6209
  729MOL0     H98376  10.419   2.627   7.141  0.9387  0.8624 -1.1604
  729MOL0     H98377  10.729   2.478   6.822  1.3758  1.3021 -1.9065
  729MOL0     H98378  10.749   2.413   6.584  0.7333  1.3926  0.9156
  729MOL0     H98379  10.431   2.484   6.302  1.4021 -0.1120  4.9216
  729MOL0     H98380  10.534   2.619   6.244 -0.2142  0.0096  0.5339
  729MOL0     H98381  10.597   2.325   6.195  0.5499  0.1847 -0.9317
  729MOL0     H98382  10.533   2.441   6.077  0.6690  0.2508 -0.7782
  729MOL0     H98383  10.749   2.579   6.108 -0.3074 -0.4162 -0.7519
  729MOL0     H98384  10.802   2.451   6.215 -1.3181  1.0681  1.0273
  729MOL0     H98385  10.719   2.412   5.915  2.6847 -0.6382 -2.3075
  729MOL0     H98386  10.773   2.288   6.017  1.2963 -1.0468 -2.1753
  729MOL0     H98387  10.978   2.393   6.064 -0.4985  0.2592  0.9257
  729MOL0     H98388  10.932   2.526   5.946 -0.6184  0.0359 -0.8208
  729MOL0     H98389  10.934   2.239   5.859 -0.6833  0.4814  2.3565
  729MOL0     H98390  10.899   2.369   5.769 -1.8417 -3.8381 -0.8980
  729MOL0     H98391  11.141   2.306   5.717  0.7753 -0.7467 -0.2475
  729MOL0     H98392  11.157   2.290   5.894 -1.1890 -3.9983 -1.3949
  729MOL0     H98393  11.118   2.553   5.731 -0.1896 -2.3852 -1.2180
  729MOL0     H98394  11.172   2.529   5.903 -4.5071 -2.4441  1.3379
  729MOL0     H98395  10.431   2.675   6.483  1.5944 -1.1741 -2.8758
  729MOL0     H98396  10.419   2.729   6.722 -0.4110 -1.3329  2.0174
  729MOL0     H98397  10.682   2.970   7.106 -0.1050 -0.1180 -0.7514
  729MOL0     H98398  10.582   3.057   7.314  1.0280 -0.3702  0.1050
  729MOL0     H98399  10.317   4.520   7.347 -0.8243 -0.3707  0.8211
  729MOL0     H98400  10.519   4.511   7.169  3.0012 -3.0308  2.6220
  729MOL0     H98401  10.481   4.388   6.595 -0.6284  0.3678  3.0326
  729MOL0     H98402  10.621   4.330   6.407 -3.0768  3.2156  0.7628
  729MOL0     H98403  11.040   4.116   6.501  2.1548  0.8087  0.1578
  729MOL0     H98404  11.061   4.292   6.520 -0.9316  3.5723 -2.2400
  729MOL0     H98405  11.218   4.236   6.364  0.2227 -0.7505 -1.3179
  729MOL0     H98406  11.089   4.315   6.271  2.2781  3.1854  3.5953
  729MOL0     H98407  11.150   4.106   6.141 -0.5254  0.5640  0.3324
  729MOL0     H98408  10.998   4.074   6.231 -0.8328  0.2526 -0.1776
  729MOL0     H98409  11.271   4.016   6.330  1.2238 -0.7174 -4.2308
  729MOL0     H98410  11.116   3.947   6.399  1.5166 -1.1577 -0.2183
  729MOL0     H98411  11.165   3.749   6.023  2.3160  0.9492 -0.7322
  729MOL0     H98412  10.910   4.203   6.693  3.8932  4.8339 -1.8452
  729MOL0     H98413  10.760   4.247   6.998 -0.8188  0.6236 -0.2882
  729MOL0     H98414  10.896   4.204   6.903 -1.6489 -1.0740 -0.4741
  729MOL0     H98415  10.870   4.373   6.952  1.9141 -1.4873  0.6230
  730MOL0     O98416   2.072   5.685  11.290  0.0893 -0.4763 -1.1154
  730MOL0     C98417   2.097   5.697  11.168 -0.5683  1.0069 -1.1344
  730MOL0     O98418   2.023   5.777  11.081 -0.5480  0.7431  0.6039
  730MOL0     C98419   1.944   5.878  11.136  0.8137  0.9520  0.2087
  730MOL0     C98420   2.002   5.975  11.225  0.8529  1.0329  0.3694
  730MOL0     C98421   1.949   6.095  11.251  0.0718  0.0706 -0.7794
  730MOL0     C98422   1.815   6.120  11.213 -0.3462  0.2109  0.9423
  730MOL0     O98423   1.753   6.241  11.240  0.1684  0.3407  0.3109
  730MOL0     C98424   1.829   6.355  11.284 -0.3984 -0.1412  0.3173
  730MOL0     C98425   1.747   6.480  11.312  0.3201  0.0227 -0.3125
  730MOL0     C98426   1.682   6.536  11.182 -0.6940 -0.4574 -0.6843
  730MOL0     C98427   1.554   6.452  11.141 -0.7477  0.5402 -1.1856
  730MOL0     C98428   1.449   6.527  11.063  0.8293 -0.5232  0.8445
  730MOL0     C98429   1.346   6.427  11.006  0.0318  0.2706  0.2992
  730MOL0     C98430   1.250   6.497  10.901 -0.4378 -0.1888 -0.2982
  730MOL0     C98431   1.179   6.403  10.803 -0.4176 -0.7433  0.3944
  730MOL0     N98432   1.085   6.304  10.866 -0.0600  0.0259  0.1582
  730MOL0     C98433   1.035   6.308  10.999 -0.7757  0.2565 -0.2742
  730MOL0     C98434   0.994   6.182  11.022 -0.8514  0.2543 -0.2997
  730MOL0     C98435   0.922   6.097  11.135 -0.6951 -0.5970 -0.7083
  730MOL0     C98436   0.782   6.148  11.151 -1.2413  0.2618 -0.1020
  730MOL0     C98437   0.774   6.297  11.205  0.5479  0.4461 -0.4647
  730MOL0     C98438   0.635   6.349  11.154  0.1290 -0.1172  0.7716
  730MOL0     O98439   0.615   6.362  11.012 -0.0143 -0.2245  0.3112
  730MOL0     C98440   0.488   6.353  10.955 -0.1179 -0.5268 -0.3381
  730MOL0     C98441   0.467   6.400  10.827 -0.2547 -0.3541 -0.2407
  730MOL0     C98442   0.344   6.417  10.762 -0.0382 -0.2354 -0.0080
  730MOL0     C98443   0.225   6.372  10.831 -0.5145 -0.1762 -0.1230
  730MOL0     C98444   0.091   6.385  10.766  0.8695  0.0404 -0.4775
  730MOL0     O98445  -0.011   6.372  10.858  0.0687 -0.3938  0.0876
  730MOL0     C98446  -0.134   6.381  10.808 -0.2754  0.6940 -0.0202
  730MOL0     C98447  -0.196   6.507  10.794 -0.9106 -0.0053  0.3744
  730MOL0     C98448  -0.326   6.522  10.753  0.3673  0.5884 -0.4159
  730MOL0     C98449  -0.404   6.416  10.731  0.6940 -0.7598  0.3488
  730MOL0     O98450  -0.535   6.439  10.706 -1.6171 -0.1732 -0.4372
  730MOL0     C98451  -0.645   6.360  10.755 -0.5200 -0.0425 -0.2516
  730MOL0     C98452  -0.735   6.307  10.640  0.1965  0.5351  0.4882
  730MOL0     C98453  -0.678   6.214  10.542  0.0770 -0.7639 -0.7650
  730MOL0     C98454  -0.775   6.177  10.420 -0.0657 -0.2120  0.6478
  730MOL0     C98455  -0.707   6.079  10.318  0.2208 -0.0143 -0.9756
  730MOL0     C98456  -0.800   6.017  10.212  0.5146  1.0935 -0.1413
  730MOL0     C98457  -0.881   6.108  10.130  0.4547  0.0077  0.4001
  730MOL0     C98458  -0.986   6.044  10.052  0.5331  0.6152  0.2357
  730MOL0    Cl98459  -1.058   6.179   9.972  0.1443  0.0852 -0.1485
  730MOL0     C98460  -0.348   6.287  10.749  0.2425  0.9314  0.7686
  730MOL0     C98461  -0.219   6.265  10.789 -0.5663 -0.5086  0.1719
  730MOL0     O98462   0.080   6.378  10.647  0.2513  0.4979  0.3874
  730MOL0     C98463   0.244   6.315  10.957 -0.3802 -1.3688  0.4622
  730MOL0     C98464   0.374   6.312  11.022  0.7290  0.0349 -0.2035
  730MOL0     N98465   1.011   6.106  10.903 -0.4884  0.2983  0.0917
  730MOL0     N98466   1.070   6.181  10.818 -0.2656  0.3472 -0.1677
  730MOL0     C98467   1.752   6.013  11.141  0.0704  0.2557 -0.6055
  730MOL0     C98468   1.816   5.894  11.096  0.9977  0.9522 -0.6719
  730MOL0     C98469   2.176   5.592  11.108  0.3012 -1.1021 -0.2883
  730MOL0     C98470   2.146   5.460  11.148 -0.2704 -0.4295  0.8450
  730MOL0     C98471   2.246   5.365  11.116 -0.7809  0.5144 -0.0228
  730MOL0     C98472   2.368   5.396  11.040 -0.1723  0.3677 -0.1098
  730MOL0     O98473   2.463   5.313  11.002 -0.3076  0.0384 -0.6381
  730MOL0     C98474   2.503   5.230  11.116 -0.2679 -0.3993 -0.3234
  730MOL0     C98475   2.579   5.320  11.223 -0.2658 -0.2289 -0.5537
  730MOL0     C98476   2.730   5.344  11.190 -0.7806 -0.2977  1.0050
  730MOL0     C98477   2.761   5.402  11.044  0.4333  0.0538 -0.4774
  730MOL0     C98478   2.891   5.473  11.035  0.6018  0.6866 -0.4660
  730MOL0     C98479   3.006   5.521  11.035 -0.2856  0.2873 -0.5606
  730MOL0     C98480   2.381   5.530  11.007 -0.1042  0.3738 -0.4955
  730MOL0     C98481   2.289   5.632  11.043 -0.1947  0.7910 -0.1181
  730MOL0     C98482   2.315   5.774  10.995  0.3229 -0.5340 -0.1855
  730MOL0     H98483   2.100   5.954  11.266  1.8564  0.4950 -2.0989
  730MOL0     H98484   2.009   6.157  11.317  1.4998 -0.4331 -1.5844
  730MOL0     H98485   1.894   6.327  11.368  1.2353 -0.4367 -0.9852
  730MOL0     H98486   1.904   6.387  11.211  0.8445 -1.8632  0.7833
  730MOL0     H98487   1.819   6.547  11.359 -1.7666  0.4219  2.6164
  730MOL0     H98488   1.662   6.462  11.379  0.0085  0.6263 -0.5337
  730MOL0     H98489   1.750   6.524  11.098 -1.0393  0.0440 -1.0428
  730MOL0     H98490   1.668   6.644  11.183  0.7855 -0.1943 -2.6532
  730MOL0     H98491   1.575   6.364  11.080 -0.9466 -0.4738  0.1646
  730MOL0     H98492   1.494   6.410  11.223  0.7322 -2.2188 -1.4106
  730MOL0     H98493   1.411   6.607  11.127  2.6950  0.5378  0.6751
  730MOL0     H98494   1.497   6.567  10.974 -2.6511 -3.0716 -2.5243
  730MOL0     H98495   1.411   6.354  10.957 -3.1080 -0.3195 -3.5066
  730MOL0     H98496   1.296   6.384  11.093  0.2556 -1.9014 -0.5763
  730MOL0     H98497   1.298   6.574  10.841 -5.9538  2.8669 -1.4730
  730MOL0     H98498   1.171   6.549  10.955 -1.0780  0.6874 -2.0153
  730MOL0     H98499   1.116   6.469  10.742 -0.0923 -2.0315 -1.4135
  730MOL0     H98500   1.244   6.351  10.733  1.7168  2.3503 -0.1192
  730MOL0     H98501   1.031   6.385  11.076 -0.0450 -0.0628  0.0890
  730MOL0     H98502   0.919   5.991  11.108 -1.8316 -0.8782  0.4483
  730MOL0     H98503   0.978   6.102  11.229 -0.0992 -2.4234 -0.9405
  730MOL0     H98504   0.740   6.141  11.050 -0.0925 -1.9098 -0.5111
  730MOL0     H98505   0.733   6.074  11.214  0.5720 -2.3359 -1.5238
  730MOL0     H98506   0.856   6.358  11.166  3.7932 -1.7676  2.2189
  730MOL0     H98507   0.793   6.299  11.313  0.8663 -1.6556 -0.4195
  730MOL0     H98508   0.629   6.448  11.200 -2.4033 -0.9284  2.3851
  730MOL0     H98509   0.561   6.284  11.202 -2.5319  0.7092 -1.8637
  730MOL0     H98510   0.554   6.448  10.783 -1.1046  1.6732  0.1727
  730MOL0     H98511   0.343   6.447  10.658  0.7274 -2.9167 -0.8871
  730MOL0     H98512  -0.141   6.597  10.818  0.8248 -0.9035 -0.1145
  730MOL0     H98513  -0.373   6.620  10.757 -3.4085 -1.0361 -0.5297
  730MOL0     H98514  -0.620   6.272  10.816  0.5568 -0.1533 -0.8384
  730MOL0     H98515  -0.702   6.430  10.817 -0.4739 -1.7489  1.8284
  730MOL0     H98516  -0.819   6.252  10.684  1.6050 -3.5110 -1.4107
  730MOL0     H98517  -0.775   6.392  10.584  0.4837 -0.8927 -2.0118
  730MOL0     H98518  -0.584   6.249  10.498 -0.0456  2.7099  1.3587
  730MOL0     H98519  -0.643   6.125  10.595 -0.0807 -1.4107 -1.7290
  730MOL0     H98520  -0.788   6.272  10.366  0.9372 -0.9138 -0.9115
  730MOL0     H98521  -0.870   6.136  10.452 -1.6939  2.6017 -0.2525
  730MOL0     H98522  -0.659   5.996  10.371  1.0885 -1.6611 -4.1012
  730MOL0     H98523  -0.636   6.140  10.262 -1.2687  2.2274 -0.5456
  730MOL0     H98524  -0.737   5.956  10.146 -2.8622  0.8577 -3.4684
  730MOL0     H98525  -0.870   5.962  10.276  0.2124  0.7272 -0.7820
  730MOL0     H98526  -0.817   6.157  10.056 -1.3523 -1.4448 -2.3171
  730MOL0     H98527  -0.931   6.184  10.191 -3.6993 -2.9393  1.1297
  730MOL0     H98528  -0.943   5.970   9.984 -1.0124  1.4879 -1.8343
  730MOL0     H98529  -1.064   6.009  10.121  1.3588  0.2407  0.9920
  730MOL0     H98530  -0.415   6.202  10.742  2.0038 -0.3700 -0.9928
  730MOL0     H98531  -0.188   6.162  10.805 -0.2219 -0.8787 -2.4705
  730MOL0     H98532   0.155   6.287  11.013 -1.1554 -0.6551 -0.3875
  730MOL0     H98533   0.377   6.269  11.121 -0.3947  2.6536  1.0542
  730MOL0     H98534   1.645   6.025  11.124  0.4381  1.5149 -2.2825
  730MOL0     H98535   1.762   5.819  11.039  0.9125 -0.6431  1.3971
  730MOL0     H98536   2.068   5.427  11.216 -1.9456  0.0345 -0.7965
  730MOL0     H98537   2.223   5.263  11.145 -1.3751  1.1896  1.9675
  730MOL0     H98538   2.573   5.157  11.074  0.2953  0.2525 -0.5405
  730MOL0     H98539   2.432   5.174  11.177 -0.2431 -0.3448 -0.2445
  730MOL0     H98540   2.569   5.277  11.323  0.5642  1.4292  0.2813
  730MOL0     H98541   2.521   5.413  11.232 -1.4622 -1.1818  3.2933
  730MOL0     H98542   2.790   5.254  11.209 -2.1767 -1.2851  0.9055
  730MOL0     H98543   2.759   5.431  11.249  0.1435 -0.1890  0.4158
  730MOL0     H98544   2.768   5.320  10.971  5.1643 -1.2754  1.1451
  730MOL0     H98545   2.680   5.472  11.021 -0.8845 -1.6268 -1.2526
  730MOL0     H98546   3.096   5.577  11.047 -0.0965  0.0723 -0.9935
  730MOL0     H98547   2.475   5.553  10.958 -0.6303 -0.3786 -1.9252
  730MOL0     H98548   2.237   5.801  10.924 -0.3668 -3.8883 -0.8582
  730MOL0     H98549   2.313   5.835  11.086 -3.1567  0.7336 -0.9734
  730MOL0     H98550   2.408   5.795  10.941  0.7571  2.8322  1.5618
  731MOL0     O98551   3.782   0.649   3.755  0.0952  0.4372 -0.1285
  731MOL0     C98552   3.693   0.742   3.782 -0.3106  0.3219 -0.5603
  731MOL0     O98553   3.555   0.736   3.777  0.0265 -0.1421  0.3319
  731MOL0     C98554   3.497   0.609   3.775  0.4589 -0.6740 -0.9717
  731MOL0     C98555   3.514   0.518   3.877 -0.7139 -0.9215  0.3062
  731MOL0     C98556   3.460   0.390   3.871  0.4296  0.0510 -0.0016
  731MOL0     C98557   3.375   0.365   3.766  0.0123 -0.0484 -0.5997
  731MOL0     O98558   3.287   0.260   3.764  0.0467  0.0279  0.5444
  731MOL0     C98559   3.295   0.153   3.865 -0.7298 -0.6056 -0.1674
  731MOL0     C98560   3.177   0.054   3.842 -0.5522 -0.3513  0.2893
  731MOL0     C98561   3.167  -0.075   3.923  0.7537 -0.7057  0.4924
  731MOL0     C98562   3.286  -0.167   3.918  0.0493  0.9259 -0.1434
  731MOL0     C98563   3.258  -0.318   3.959 -0.2469  0.1545 -0.6308
  731MOL0     C98564   3.194  -0.396   3.843  0.4607  0.3113 -0.0498
  731MOL0     C98565   3.226  -0.540   3.830 -1.1483 -0.0746 -0.7171
  731MOL0     C98566   3.194  -0.617   3.702 -0.0089  0.1595  0.4202
  731MOL0     N98567   3.061  -0.592   3.652  0.5039  0.1819  0.3024
  731MOL0     C98568   2.974  -0.706   3.659  0.0089  0.3883 -0.1695
  731MOL0     C98569   2.864  -0.669   3.588 -0.5102 -0.2957  0.5485
  731MOL0     C98570   2.742  -0.749   3.565 -0.3148  0.1520  0.3829
  731MOL0     C98571   2.718  -0.874   3.654 -0.5818  0.0936 -0.4575
  731MOL0     C98572   2.594  -0.863   3.747  0.7500 -0.3520 -0.2986
  731MOL0     C98573   2.617  -0.769   3.866  0.0920 -0.0842  0.7192
  731MOL0     O98574   2.675  -0.635   3.843  0.4069 -0.1629 -0.4278
  731MOL0     C98575   2.727  -0.584   3.957  0.8726  0.2986 -0.4503
  731MOL0     C98576   2.688  -0.624   4.082  1.3784 -0.9910 -0.2862
  731MOL0     C98577   2.733  -0.556   4.192  0.3826  0.8350 -0.3767
  731MOL0     C98578   2.826  -0.451   4.176 -0.2555 -0.0346  0.5898
  731MOL0     C98579   2.879  -0.363   4.279 -0.2368 -0.7298 -0.2940
  731MOL0     O98580   2.988  -0.282   4.253  0.2310  0.2808 -0.2819
  731MOL0     C98581   3.048  -0.194   4.340 -0.0692 -0.7565 -0.2920
  731MOL0     C98582   3.187  -0.175   4.332 -0.0344  0.1653  0.7103
  731MOL0     C98583   3.261  -0.092   4.413  0.3373  0.4611 -0.1835
  731MOL0     C98584   3.197  -0.035   4.524  0.1378  0.6085 -0.3444
  731MOL0     O98585   3.266   0.052   4.602 -0.4614  0.3438  0.0370
  731MOL0     C98586   3.302   0.179   4.548 -0.1503  1.7693  0.8798
  731MOL0     C98587   3.319   0.268   4.673 -0.5658  0.3599 -0.5273
  731MOL0     C98588   3.470   0.282   4.712  0.0426  0.1780 -0.9050
  731MOL0     C98589   3.465   0.360   4.841 -0.6411  0.3981  0.4399
  731MOL0     C98590   3.594   0.337   4.916  0.1151  0.2028 -0.1591
  731MOL0     C98591   3.593   0.391   5.060 -0.3808 -0.5651 -0.6055
  731MOL0     C98592   3.582   0.551   5.064 -0.3920  0.3783  0.0695
  731MOL0     C98593   3.457   0.604   5.141  0.0229  0.3450 -0.0910
  731MOL0    Cl98594   3.311   0.559   5.052  0.1339 -0.0634 -0.6381
  731MOL0     C98595   3.056  -0.050   4.533 -0.8463 -0.3809  0.6308
  731MOL0     C98596   2.982  -0.124   4.440  0.1318  0.2422  0.3137
  731MOL0     O98597   2.820  -0.365   4.385 -0.6288  0.8687  0.2265
  731MOL0     C98598   2.869  -0.429   4.039 -0.1393  0.2036  0.3178
  731MOL0     C98599   2.811  -0.481   3.929  0.1767 -0.4411 -0.2531
  731MOL0     N98600   2.904  -0.559   3.523  0.2009 -0.0129 -0.0583
  731MOL0     N98601   3.009  -0.500   3.570  0.0881 -0.1851 -0.0112
  731MOL0     C98602   3.361   0.464   3.660  0.7352  0.1614  0.1594
  731MOL0     C98603   3.429   0.581   3.668  0.7320  1.1557 -1.0396
  731MOL0     C98604   3.752   0.880   3.795 -0.2474  1.6031 -0.5110
  731MOL0     C98605   3.843   0.918   3.691  0.3072  0.7917 -0.5351
  731MOL0     C98606   3.918   1.031   3.708 -0.1402  0.1320 -0.2543
  731MOL0     C98607   3.916   1.095   3.827  0.1616 -0.2034  0.8321
  731MOL0     O98608   3.993   1.213   3.847  0.0419  0.2717  0.1766
  731MOL0     C98609   4.135   1.184   3.849  0.4354  0.1856 -0.2851
  731MOL0     C98610   4.192   1.290   3.943 -0.4003 -0.3618 -0.2034
  731MOL0     C98611   4.323   1.248   3.999 -0.3786  0.3127  0.3025
  731MOL0     C98612   4.307   1.181   4.128  0.0045  0.1340 -1.3591
  731MOL0     C98613   4.245   1.252   4.239 -0.5770 -0.2939  0.5078
  731MOL0     C98614   4.192   1.319   4.322 -0.4422 -0.0461 -0.0947
  731MOL0     C98615   3.832   1.056   3.927  0.3898  0.5786 -0.6935
  731MOL0     C98616   3.744   0.955   3.911  1.5727 -0.2797  0.5360
  731MOL0     C98617   3.655   0.933   4.029  0.2163  0.7580  0.2569
  731MOL0     H98618   3.569   0.541   3.968 -0.7829 -1.2018  0.4230
  731MOL0     H98619   3.478   0.314   3.947 -2.9375 -0.0590  0.8393
  731MOL0     H98620   3.392   0.103   3.870  1.0138  2.5483 -0.0863
  731MOL0     H98621   3.277   0.204   3.960  0.5087  2.4049 -1.4317
  731MOL0     H98622   3.190   0.026   3.737  0.3511  1.0096  0.0184
  731MOL0     H98623   3.079   0.100   3.855 -2.8031 -3.9015 -2.3061
  731MOL0     H98624   3.094  -0.141   3.874 -0.7456  1.1771  0.0749
  731MOL0     H98625   3.138  -0.053   4.027  3.8716  0.7352  1.1720
  731MOL0     H98626   3.323  -0.163   3.815 -1.4520 -0.7362 -0.7987
  731MOL0     H98627   3.353  -0.122   3.991  0.1042  1.2051 -0.3650
  731MOL0     H98628   3.356  -0.365   3.969 -0.9546 -2.1421 -3.0882
  731MOL0     H98629   3.199  -0.331   4.050  1.8535  0.3766  0.8087
  731MOL0     H98630   3.089  -0.397   3.876  0.6394 -1.6518  0.5968
  731MOL0     H98631   3.199  -0.338   3.750 -0.1530  2.6970  1.3189
  731MOL0     H98632   3.172  -0.595   3.908  1.1479 -2.7230 -0.8534
  731MOL0     H98633   3.330  -0.553   3.863 -0.8944  1.7544 -0.6807
  731MOL0     H98634   3.259  -0.583   3.620  1.4921  2.9665  2.5875
  731MOL0     H98635   3.204  -0.722   3.728 -2.4076 -0.0450  0.7463
  731MOL0     H98636   3.005  -0.796   3.711  2.4073  0.7688 -0.8035
  731MOL0     H98637   2.657  -0.681   3.561 -0.3053  0.1448 -2.5817
  731MOL0     H98638   2.752  -0.795   3.466  0.8657 -0.2567  0.6698
  731MOL0     H98639   2.702  -0.961   3.589 -4.5414 -1.7257  2.5453
  731MOL0     H98640   2.814  -0.890   3.704  1.6487  0.9510 -4.0583
  731MOL0     H98641   2.567  -0.963   3.782 -2.5577  0.1349 -1.1997
  731MOL0     H98642   2.504  -0.834   3.693 -0.9013 -0.9979  1.9517
  731MOL0     H98643   2.691  -0.827   3.923 -1.8759 -3.5986  0.0054
  731MOL0     H98644   2.521  -0.759   3.917 -0.4679 -0.4203 -0.2523
  731MOL0     H98645   2.601  -0.688   4.095 -1.7345  2.3394 -2.5704
  731MOL0     H98646   2.708  -0.588   4.293  0.3345 -0.7105 -0.8528
  731MOL0     H98647   3.248  -0.213   4.251 -1.2433 -1.6970  0.6141
  731MOL0     H98648   3.365  -0.062   4.412 -0.2563  2.7180  0.6015
  731MOL0     H98649   3.399   0.171   4.497 -0.1336  2.4061  0.8103
  731MOL0     H98650   3.232   0.215   4.472  1.4206 -0.4174 -1.7959
  731MOL0     H98651   3.271   0.362   4.647 -1.5617  0.4084  1.3453
  731MOL0     H98652   3.250   0.236   4.752 -0.8520  0.8083 -0.5976
  731MOL0     H98653   3.532   0.192   4.720 -0.1239  0.1790  0.6410
  731MOL0     H98654   3.522   0.347   4.641  0.2797 -1.5001 -2.3470
  731MOL0     H98655   3.387   0.316   4.904 -1.6782 -0.9282 -1.6510
  731MOL0     H98656   3.435   0.462   4.813 -0.5546  0.0621 -0.9637
  731MOL0     H98657   3.670   0.386   4.855 -0.1170  0.7806  0.0073
  731MOL0     H98658   3.624   0.233   4.931 -1.0478  0.2373  3.5922
  731MOL0     H98659   3.515   0.337   5.114  1.5038 -3.4693 -0.5786
  731MOL0     H98660   3.686   0.361   5.110 -1.8684 -0.8359  2.2405
  731MOL0     H98661   3.585   0.603   4.967  1.2715  0.0894 -0.0597
  731MOL0     H98662   3.673   0.592   5.109  0.2338 -1.6567  0.7548
  731MOL0     H98663   3.449   0.562   5.241  0.6189 -1.5031 -0.7655
  731MOL0     H98664   3.483   0.710   5.151  2.2664 -0.3212  2.2780
  731MOL0     H98665   3.009   0.006   4.613 -0.7394 -0.0087  0.4355
  731MOL0     H98666   2.874  -0.130   4.453  0.0168  1.8369  0.3504
  731MOL0     H98667   2.939  -0.349   4.015  2.1101 -1.2281  1.6706
  731MOL0     H98668   2.828  -0.456   3.825 -0.2422 -1.2207 -0.5160
  731MOL0     H98669   3.300   0.442   3.574 -0.2584  1.7886  0.4177
  731MOL0     H98670   3.413   0.652   3.588 -1.4191 -0.7385 -2.3857
  731MOL0     H98671   3.848   0.857   3.602 -0.3925  0.5787 -0.4339
  731MOL0     H98672   3.992   1.056   3.632  2.0226 -1.4291  1.2268
  731MOL0     H98673   4.173   1.185   3.746 -0.7952  1.1065 -0.7615
  731MOL0     H98674   4.151   1.083   3.887  1.9792  0.8780  0.9791
  731MOL0     H98675   4.115   1.305   4.020 -0.8596 -2.3433 -0.2091
  731MOL0     H98676   4.201   1.379   3.880  2.1091 -1.0964 -0.9769
  731MOL0     H98677   4.391   1.334   4.006 -0.2525  0.7972 -3.9737
  731MOL0     H98678   4.383   1.195   3.924  0.5177  1.0227  0.5042
  731MOL0     H98679   4.253   1.086   4.121  1.3572 -0.6726 -1.3644
  731MOL0     H98680   4.403   1.145   4.168 -0.7257 -0.9448 -0.5231
  731MOL0     H98681   4.158   1.382   4.401  1.4516  0.9358 -0.0109
  731MOL0     H98682   3.834   1.106   4.023  1.3857 -2.2274  0.8616
  731MOL0     H98683   3.551   0.965   4.021  0.7055  2.0758 -1.3331
  731MOL0     H98684   3.652   0.824   4.038 -0.5642  0.4377 -2.8339
  731MOL0     H98685   3.698   0.973   4.122 -0.6520 -1.3111  1.6323
  732MOL0     O98686   6.112  10.605   4.549  0.3017 -0.2241  0.9446
  732MOL0     C98687   6.065  10.721   4.556  0.4349  0.7300 -0.5737
  732MOL0     O98688   5.933  10.753   4.552 -0.1283  0.8232  0.5512
  732MOL0     C98689   5.886  10.877   4.511  0.5693  0.2242  0.3345
  732MOL0     C98690   5.914  10.998   4.575 -0.4776  0.0885  0.5757
  732MOL0     C98691   5.865  11.125   4.521 -1.0151  0.6269  0.5747
  732MOL0     C98692   5.798  11.121   4.403 -0.2837 -0.0682  0.4397
  732MOL0     O98693   5.751  11.241   4.364  0.1186 -0.9574  0.9211
  732MOL0     C98694   5.735  11.260   4.223  0.7648  0.1056 -0.1747
  732MOL0     C98695   5.723  11.407   4.185  0.9362  0.1112 -0.3697
  732MOL0     C98696   5.594  11.472   4.245  0.2191  0.5228 -0.7437
  732MOL0     C98697   5.599  11.625   4.270 -0.2915  0.2078  1.3469
  732MOL0     C98698   5.682  11.716   4.165 -1.0099 -0.0177 -0.4278
  732MOL0     C98699   5.695  11.861   4.198 -0.6713 -0.4390 -0.4447
  732MOL0     C98700   5.791  11.887   4.316 -0.2477  0.1352  0.5464
  732MOL0     C98701   5.867  12.017   4.288 -0.2815 -1.1771  0.2840
  732MOL0     N98702   5.962  12.014   4.171 -1.0375  0.2260 -0.5145
  732MOL0     C98703   5.993  12.121   4.088 -0.6438 -0.2044 -0.7653
  732MOL0     C98704   6.062  12.072   3.989 -0.2567  0.1976  0.6645
  732MOL0     C98705   6.111  12.142   3.868  0.1723 -0.4870 -0.4815
  732MOL0     C98706   6.261  12.155   3.867 -0.6208  0.3615  0.5350
  732MOL0     C98707   6.320  12.023   3.816  0.3268  0.7700  0.3515
  732MOL0     C98708   6.469  12.019   3.800  0.5212  0.0295 -0.0691
  732MOL0     O98709   6.505  11.904   3.713  0.0870 -0.3038  0.2544
  732MOL0     C98710   6.622  11.835   3.721 -0.3712  0.1214  0.0799
  732MOL0     C98711   6.698  11.823   3.834  1.3468  0.9976 -0.3008
  732MOL0     C98712   6.828  11.766   3.827 -0.2935  0.0222  1.6265
  732MOL0     C98713   6.872  11.712   3.703 -0.0255  0.6048 -0.3095
  732MOL0     C98714   7.006  11.648   3.691 -0.6145  0.4996 -0.7545
  732MOL0     O98715   7.101  11.667   3.786 -0.3510 -0.6466  0.8412
  732MOL0     C98716   7.235  11.655   3.776  1.0213  1.3240  0.1094
  732MOL0     C98717   7.301  11.568   3.696 -0.6814 -0.0187  0.7353
  732MOL0     C98718   7.443  11.557   3.700  0.4875 -1.3829  0.3166
  732MOL0     C98719   7.521  11.627   3.792  0.0023 -0.0234  0.1927
  732MOL0     O98720   7.654  11.619   3.826  0.1700 -1.3262 -0.1491
  732MOL0     C98721   7.737  11.581   3.717  0.3437  0.3892 -0.5740
  732MOL0     C98722   7.851  11.681   3.701 -1.4361 -0.1986  0.4697
  732MOL0     C98723   7.922  11.742   3.826  0.9219 -0.3732  0.2788
  732MOL0     C98724   7.971  11.632   3.928 -0.2500  0.9606  1.0414
  732MOL0     C98725   8.047  11.700   4.038  1.4170 -0.0260 -0.4876
  732MOL0     C98726   8.074  11.619   4.161 -0.3258  0.0936 -0.0953
  732MOL0     C98727   8.070  11.720   4.278 -0.3574 -1.1355  0.2629
  732MOL0     C98728   8.136  11.658   4.404  0.2013  0.6312 -0.0116
  732MOL0    Cl98729   8.117  11.770   4.547 -0.0432 -0.3785  0.4544
  732MOL0     C98730   7.458  11.718   3.868 -0.8015  0.6398  1.1455
  732MOL0     C98731   7.316  11.722   3.867 -0.1171 -0.5599 -0.1186
  732MOL0     O98732   7.029  11.594   3.584  0.9502 -0.8002 -0.5371
  732MOL0     C98733   6.783  11.703   3.600  0.1041  0.5903 -1.0866
  732MOL0     C98734   6.662  11.764   3.606 -0.4614  0.0140 -0.3912
  732MOL0     N98735   6.087  11.934   4.019  0.4761 -0.2773  1.1083
  732MOL0     N98736   6.022  11.900   4.123 -0.1431  0.5051 -0.2387
  732MOL0     C98737   5.777  11.000   4.337  0.3304 -0.4251 -0.1468
  732MOL0     C98738   5.809  10.882   4.399  0.1292 -0.2521  0.3298
  732MOL0     C98739   6.174  10.809   4.518  0.3837  0.6876 -0.2568
  732MOL0     C98740   6.267  10.850   4.619 -0.2437  0.3123 -0.2265
  732MOL0     C98741   6.379  10.931   4.599  0.1982 -0.8756  0.6082
  732MOL0     C98742   6.392  10.967   4.462  0.8079 -0.1670  0.5415
  732MOL0     O98743   6.503  11.033   4.427  0.1688  0.1513  0.4677
  732MOL0     C98744   6.574  10.992   4.306 -0.0879  0.0425  0.1978
  732MOL0     C98745   6.725  11.037   4.290 -0.3643  1.0653 -0.5386
  732MOL0     C98746   6.779  11.021   4.149  0.1348 -0.6020 -0.8233
  732MOL0     C98747   6.834  10.884   4.137  0.4427 -0.9003  0.7682
  732MOL0     C98748   6.895  10.853   4.007  0.1242 -0.0353 -0.0311
  732MOL0     C98749   6.944  10.822   3.895  1.0862 -0.4682 -0.3052
  732MOL0     C98750   6.302  10.931   4.362  0.9076 -0.4998 -0.4630
  732MOL0     C98751   6.194  10.853   4.384  0.3916  0.0710 -0.4927
  732MOL0     C98752   6.109  10.799   4.273  0.2806 -0.1047  1.2845
  732MOL0     H98753   5.980  11.003   4.661 -0.5684 -1.6023  0.7941
  732MOL0     H98754   5.884  11.218   4.573  2.1675  1.2808 -1.4407
  732MOL0     H98755   5.826  11.228   4.171  1.6156  1.3885  0.4686
  732MOL0     H98756   5.641  11.217   4.186  0.8273  0.7736 -1.1694
  732MOL0     H98757   5.734  11.432   4.079 -0.8226  0.6857 -0.4452
  732MOL0     H98758   5.810  11.456   4.231  0.5852 -0.3365  0.8087
  732MOL0     H98759   5.597  11.433   4.348  4.8206  2.0991 -0.0222
  732MOL0     H98760   5.508  11.446   4.183  0.6011  0.8967 -1.4395
  732MOL0     H98761   5.493  11.652   4.279  0.0496  2.0146  0.4057
  732MOL0     H98762   5.640  11.644   4.369  0.6453  1.1607  0.7980
  732MOL0     H98763   5.787  11.690   4.151 -2.2535 -4.3538 -3.9530
  732MOL0     H98764   5.637  11.706   4.066 -0.8770 -4.7349 -0.2150
  732MOL0     H98765   5.748  11.911   4.115  1.1212 -1.7127 -0.1302
  732MOL0     H98766   5.601  11.914   4.216 -0.2845  1.1294 -2.5383
  732MOL0     H98767   5.851  11.797   4.331 -1.0244 -0.8438 -1.8151
  732MOL0     H98768   5.734  11.902   4.408 -1.5368  1.5508 -0.4270
  732MOL0     H98769   5.786  12.088   4.267 -0.2793 -1.3213 -0.2328
  732MOL0     H98770   5.920  12.058   4.374 -1.6556 -2.2976  1.7320
  732MOL0     H98771   5.947  12.219   4.098  2.2340  1.3831 -2.0019
  732MOL0     H98772   6.075  12.089   3.779  1.3549 -1.7830 -0.2307
  732MOL0     H98773   6.081  12.247   3.874  3.4879  0.5091  0.7131
  732MOL0     H98774   6.281  12.242   3.805  0.1984 -0.6885 -0.7363
  732MOL0     H98775   6.290  12.179   3.970 -0.4542  1.6113  0.2022
  732MOL0     H98776   6.268  11.993   3.725 -1.5715 -2.1104  2.2133
  732MOL0     H98777   6.292  11.942   3.885  2.5719  0.3394  0.8388
  732MOL0     H98778   6.517  12.014   3.899  0.0725  3.0520  0.3775
  732MOL0     H98779   6.501  12.109   3.748 -0.0274 -0.8448 -1.9939
  732MOL0     H98780   6.654  11.853   3.929 -2.0494  2.2356 -2.0828
  732MOL0     H98781   6.886  11.753   3.918 -1.4188  1.8792  2.6641
  732MOL0     H98782   7.258  11.504   3.620  1.3543 -0.2286 -0.3080
  732MOL0     H98783   7.499  11.484   3.642  0.5637 -0.6862 -0.4939
  732MOL0     H98784   7.779  11.481   3.727 -0.8766 -0.3385 -2.2579
  732MOL0     H98785   7.683  11.566   3.623 -0.9195 -5.8215  0.7373
  732MOL0     H98786   7.926  11.636   3.634  0.3820  2.2246  0.7370
  732MOL0     H98787   7.812  11.765   3.643 -3.2263  0.4379  2.4806
  732MOL0     H98788   8.009  11.802   3.799  0.7805 -0.1981  0.2081
  732MOL0     H98789   7.856  11.801   3.891  2.7538  2.2609 -0.1186
  732MOL0     H98790   8.034  11.560   3.874 -0.4782  2.6005 -1.5874
  732MOL0     H98791   7.899  11.563   3.972  0.2171 -0.9192 -0.9492
  732MOL0     H98792   7.993  11.794   4.053  0.1609 -0.6034 -1.3303
  732MOL0     H98793   8.148  11.722   4.000  1.4329  0.4269 -0.2031
  732MOL0     H98794   8.000  11.543   4.189  1.1344 -1.5284 -0.4515
  732MOL0     H98795   8.172  11.571   4.153 -0.3410  0.1702 -0.8723
  732MOL0     H98796   7.968  11.750   4.304 -0.6798 -1.1344 -0.9377
  732MOL0     H98797   8.102  11.821   4.252 -4.7910  0.4060 -0.0068
  732MOL0     H98798   8.099  11.558   4.429 -0.9680  0.8912 -0.6268
  732MOL0     H98799   8.243  11.643   4.384  0.3564 -0.4433  1.5000
  732MOL0     H98800   7.497  11.798   3.930 -1.7709  4.3791 -2.5805
  732MOL0     H98801   7.271  11.805   3.921  1.5883  0.0077  0.5281
  732MOL0     H98802   6.799  11.650   3.506  1.2885  0.0635 -0.6015
  732MOL0     H98803   6.605  11.777   3.515 -0.5390  3.7471  0.0374
  732MOL0     H98804   5.736  10.998   4.237  0.5282  3.0281 -0.4240
  732MOL0     H98805   5.766  10.794   4.352 -0.7953  1.2295 -1.7502
  732MOL0     H98806   6.242  10.834   4.723  2.3496  3.0736  0.9965
  732MOL0     H98807   6.451  10.970   4.670 -3.0515  2.5589  2.4006
  732MOL0     H98808   6.519  11.036   4.222 -1.7474 -2.6336 -0.2290
  732MOL0     H98809   6.556  10.885   4.304 -2.3288  0.3778  0.2468
  732MOL0     H98810   6.784  10.979   4.361 -2.0978  0.5911  0.5815
  732MOL0     H98811   6.734  11.145   4.310 -0.0443  0.7469  1.2357
  732MOL0     H98812   6.856  11.097   4.133 -0.5875  0.3843  0.2682
  732MOL0     H98813   6.702  11.045   4.075  0.8239  1.8590 -0.8390
  732MOL0     H98814   6.916  10.867   4.207  2.5272  1.2868 -0.9926
  732MOL0     H98815   6.758  10.807   4.154 -1.2487 -0.7372 -4.2618
  732MOL0     H98816   6.988  10.792   3.802  0.6415 -2.2985  0.0400
  732MOL0     H98817   6.316  10.955   4.258  2.8155  0.8862  0.0707
  732MOL0     H98818   6.008  10.798   4.317 -0.7168  1.0007 -0.8340
  732MOL0     H98819   6.103  10.845   4.174 -1.8553 -1.2107  0.8228
  732MOL0     H98820   6.144  10.696   4.259  1.2464  0.3348  0.4091
  733MOL0     O98821   7.110   7.333   5.678 -0.6589 -0.7973 -0.0462
  733MOL0     C98822   6.988   7.345   5.657 -0.1600 -0.5870  0.5847
  733MOL0     O98823   6.913   7.290   5.558  0.7529 -0.2627 -0.3803
  733MOL0     C98824   6.976   7.222   5.465  0.1983  1.2058  0.2861
  733MOL0     C98825   7.028   7.106   5.506  0.2182  0.1940  0.9448
  733MOL0     C98826   7.083   7.006   5.412  0.6743  0.3967 -1.1849
  733MOL0     C98827   7.057   7.035   5.273 -0.3624  0.3255 -0.1393
  733MOL0     O98828   7.111   6.937   5.192 -0.0018  0.6964 -0.0569
  733MOL0     C98829   7.098   6.958   5.049  0.7866  0.9360 -0.2560
  733MOL0     C98830   7.165   6.843   4.976  0.2401  0.4222  1.1661
  733MOL0     C98831   7.073   6.722   4.995 -0.5355  0.5474  1.2002
  733MOL0     C98832   7.157   6.594   4.971  0.5601 -0.3799 -0.7409
  733MOL0     C98833   7.070   6.471   5.017  0.3003  0.1219 -0.1271
  733MOL0     C98834   7.048   6.447   5.164 -0.8462 -0.4680 -0.7949
  733MOL0     C98835   6.962   6.328   5.207  0.1301  0.7198  0.0745
  733MOL0     C98836   7.038   6.202   5.179  1.1109  0.3478 -0.5351
  733MOL0     N98837   6.956   6.072   5.189  0.6672 -0.3817 -0.0952
  733MOL0     C98838   7.026   5.962   5.227 -0.5871  0.4381  1.5705
  733MOL0     C98839   6.971   5.859   5.159 -0.1049 -0.3371  0.6352
  733MOL0     C98840   7.017   5.719   5.151 -0.6235  0.0687  0.7098
  733MOL0     C98841   6.947   5.624   5.249 -0.4060  0.2811 -0.9137
  733MOL0     C98842   6.979   5.472   5.229 -0.0311  0.7246 -0.4935
  733MOL0     C98843   7.129   5.439   5.232 -0.2925 -0.1444  0.9420
  733MOL0     O98844   7.181   5.497   5.353 -0.0312 -0.4607  0.0576
  733MOL0     C98845   7.283   5.459   5.437 -0.8320  0.2022  1.0896
  733MOL0     C98846   7.305   5.541   5.539 -0.8690 -0.7929  0.6034
  733MOL0     C98847   7.417   5.531   5.623 -0.1046  0.3208  0.3501
  733MOL0     C98848   7.522   5.441   5.584 -0.1464 -0.3386  0.3335
  733MOL0     C98849   7.633   5.414   5.677  0.0123  0.4631  0.3303
  733MOL0     O98850   7.693   5.290   5.675 -0.0443 -0.2226  0.0197
  733MOL0     C98851   7.807   5.272   5.758 -0.4045 -0.6484  0.2205
  733MOL0     C98852   7.918   5.356   5.752  0.7401  0.4399 -0.6188
  733MOL0     C98853   8.028   5.324   5.829  1.1464  0.4110  0.6281
  733MOL0     C98854   8.025   5.220   5.925 -0.3931  0.6576  0.3290
  733MOL0     O98855   8.134   5.169   5.998 -0.6515  0.4517  0.4614
  733MOL0     C98856   8.254   5.124   5.915  0.1545 -0.8959  0.1354
  733MOL0     C98857   8.356   5.071   6.021  0.0247 -0.1940 -0.5006
  733MOL0     C98858   8.313   4.941   6.092  0.6761 -0.7980  1.0601
  733MOL0     C98859   8.411   4.927   6.210  0.5326  0.6156 -0.1795
  733MOL0     C98860   8.392   4.787   6.277  0.4146  0.1288 -0.3126
  733MOL0     C98861   8.248   4.775   6.335  0.4462 -0.1079 -0.7274
  733MOL0     C98862   8.234   4.698   6.469 -1.2798  0.0592  1.6957
  733MOL0     C98863   8.115   4.598   6.465  0.1226 -0.5368 -0.3379
  733MOL0    Cl98864   8.173   4.463   6.353 -0.0392  0.4625  0.2331
  733MOL0     C98865   7.916   5.135   5.930  0.4239 -0.5570  0.0853
  733MOL0     C98866   7.805   5.160   5.846 -0.5020  0.1736  0.2737
  733MOL0     O98867   7.646   5.497   5.769 -0.1299 -0.1631  0.1460
  733MOL0     C98868   7.494   5.349   5.487 -0.4266  0.1962  0.0863
  733MOL0     C98869   7.375   5.346   5.409  0.1481  0.2067 -0.0376
  733MOL0     N98870   6.870   5.905   5.089 -0.5881  0.0907  0.2879
  733MOL0     N98871   6.867   6.035   5.097  0.0417  0.5319  0.7217
  733MOL0     C98872   6.997   7.161   5.239 -0.8544  0.4515  0.2092
  733MOL0     C98873   6.962   7.259   5.331 -0.6081  0.2971  0.2880
  733MOL0     C98874   6.905   7.401   5.771  0.5186  0.2658  0.8509
  733MOL0     C98875   6.767   7.378   5.767  0.0924  0.4377 -0.0362
  733MOL0     C98876   6.676   7.439   5.849 -1.0496 -0.6631  0.5210
  733MOL0     C98877   6.721   7.523   5.946  0.6025  0.1593 -0.0617
  733MOL0     O98878   6.632   7.562   6.041  0.5689 -1.2217  0.6531
  733MOL0     C98879   6.649   7.705   6.090  0.1955  0.7726  0.0278
  733MOL0     C98880   6.526   7.755   6.159  0.3334 -0.7368 -0.1873
  733MOL0     C98881   6.408   7.757   6.058 -0.6529 -0.1557 -0.1004
  733MOL0     C98882   6.282   7.712   6.113  0.5187 -0.1283  0.0296
  733MOL0     C98883   6.174   7.717   6.022  1.2505 -0.0562  0.1777
  733MOL0     C98884   6.084   7.705   5.942 -0.7163  0.1049 -0.4917
  733MOL0     C98885   6.856   7.542   5.962 -0.3808  0.0874  0.2461
  733MOL0     C98886   6.951   7.486   5.871 -0.3632  0.1010  0.0707
  733MOL0     C98887   7.092   7.534   5.900  0.4328 -0.4424  0.1075
  733MOL0     H98888   7.040   7.091   5.613  0.7121 -0.9697  0.7512
  733MOL0     H98889   7.131   6.916   5.450  0.7440  0.9486  0.0784
  733MOL0     H98890   6.993   6.975   5.023 -0.6894 -1.1971  3.4056
  733MOL0     H98891   7.148   7.054   5.033  0.4887  1.6080  2.2903
  733MOL0     H98892   7.265   6.815   5.011  2.7905  2.4598 -3.5217
  733MOL0     H98893   7.193   6.873   4.875  2.8069  0.2445  1.7657
  733MOL0     H98894   6.992   6.726   4.921 -0.7313 -1.9146  1.1764
  733MOL0     H98895   7.021   6.717   5.092  1.2691 -4.1828  2.2158
  733MOL0     H98896   7.176   6.596   4.863  1.9685  3.4655 -0.5859
  733MOL0     H98897   7.252   6.589   5.023  0.5925  0.4417 -0.7009
  733MOL0     H98898   6.975   6.495   4.968 -0.4915  0.8718  1.6750
  733MOL0     H98899   7.117   6.384   4.972  0.2811 -1.8549  3.3652
  733MOL0     H98900   7.143   6.448   5.218 -0.5728 -1.4143 -1.2234
  733MOL0     H98901   7.001   6.538   5.203 -1.4055 -0.8399 -0.5965
  733MOL0     H98902   6.867   6.332   5.152  1.4198 -1.3567 -2.5338
  733MOL0     H98903   6.938   6.330   5.313 -3.4431  1.8350 -0.6275
  733MOL0     H98904   7.058   6.193   5.072 -2.1521 -0.9276 -1.1405
  733MOL0     H98905   7.124   6.194   5.246  0.2946 -1.3066  0.3874
  733MOL0     H98906   7.112   5.958   5.292  0.0511 -0.9390  0.6846
  733MOL0     H98907   6.983   5.685   5.053  1.6823 -0.3974  0.0169
  733MOL0     H98908   7.125   5.704   5.165 -0.8713  0.0591  2.9831
  733MOL0     H98909   6.959   5.661   5.351 -0.9638 -1.5648 -0.1543
  733MOL0     H98910   6.840   5.627   5.225 -0.1980  0.5036 -1.8705
  733MOL0     H98911   6.939   5.443   5.132 -0.8284  1.7290 -0.4784
  733MOL0     H98912   6.925   5.413   5.304  0.1456 -0.4447 -1.2547
  733MOL0     H98913   7.180   5.481   5.145 -1.4242  3.9310  2.0519
  733MOL0     H98914   7.134   5.330   5.241  1.5357 -0.0724  1.3340
  733MOL0     H98915   7.231   5.621   5.545  1.2893  1.5146 -1.2537
  733MOL0     H98916   7.421   5.605   5.702  1.6550  1.1208 -0.4460
  733MOL0     H98917   7.932   5.440   5.686  2.7645  0.2288 -0.5124
  733MOL0     H98918   8.123   5.371   5.807 -0.3376  1.8468 -3.7093
  733MOL0     H98919   8.223   5.047   5.844 -0.6974 -1.1289  0.7314
  733MOL0     H98920   8.293   5.217   5.874 -2.0501 -0.3411 -0.8770
  733MOL0     H98921   8.438   5.032   5.960 -1.4421 -1.0560 -2.0290
  733MOL0     H98922   8.372   5.155   6.089 -1.6439 -1.1740  1.1920
  733MOL0     H98923   8.211   4.952   6.129 -0.1268 -0.2576 -1.1499
  733MOL0     H98924   8.331   4.854   6.029 -0.9309  0.8553 -1.9232
  733MOL0     H98925   8.378   5.011   6.272 -4.3901 -0.8081 -0.4589
  733MOL0     H98926   8.515   4.942   6.179 -0.0415 -1.2518 -3.4058
  733MOL0     H98927   8.461   4.766   6.358 -0.6167 -4.4133 -0.3822
  733MOL0     H98928   8.409   4.703   6.209 -0.3496 -1.3959  1.3191
  733MOL0     H98929   8.216   4.878   6.357 -1.2251 -0.9260  0.9535
  733MOL0     H98930   8.191   4.729   6.253 -0.1216  1.5413 -1.3177
  733MOL0     H98931   8.219   4.770   6.550  0.4817 -1.5054  3.5222
  733MOL0     H98932   8.330   4.650   6.488 -1.4287 -0.9909  0.0114
  733MOL0     H98933   8.079   4.570   6.564  2.6327 -1.5091  0.3892
  733MOL0     H98934   8.033   4.649   6.414  0.8919  0.8753 -0.2274
  733MOL0     H98935   7.899   5.052   5.998  1.2438  2.3694  4.2245
  733MOL0     H98936   7.719   5.094   5.841 -1.2714  1.2480 -2.9593
  733MOL0     H98937   7.571   5.274   5.473 -1.2723 -0.7236  0.1810
  733MOL0     H98938   7.355   5.281   5.324 -2.2708 -1.8773  1.9841
  733MOL0     H98939   6.964   7.184   5.138 -1.9807  0.7153  0.6224
  733MOL0     H98940   6.927   7.356   5.296 -0.2666 -0.9919 -4.1756
  733MOL0     H98941   6.713   7.319   5.694 -3.1055  2.3192  0.6304
  733MOL0     H98942   6.569   7.428   5.836 -1.1170 -0.6372  1.0102
  733MOL0     H98943   6.680   7.764   6.002  0.0367  0.5708 -0.1664
  733MOL0     H98944   6.737   7.705   6.155  1.7305 -0.5556 -1.9182
  733MOL0     H98945   6.550   7.855   6.197 -0.8859 -1.2590  2.1060
  733MOL0     H98946   6.499   7.691   6.243 -0.7838 -4.5382 -3.1487
  733MOL0     H98947   6.427   7.696   5.969 -0.4559  2.0336 -1.6298
  733MOL0     H98948   6.400   7.860   6.024  2.4453  1.0043  2.2578
  733MOL0     H98949   6.284   7.608   6.147  1.9909 -1.9074 -4.6074
  733MOL0     H98950   6.258   7.773   6.200 -0.1187  1.6843 -1.3603
  733MOL0     H98951   6.006   7.731   5.874 -0.5019  6.2028  0.9930
  733MOL0     H98952   6.886   7.604   6.046  0.8715  0.1130 -0.1904
  733MOL0     H98953   7.154   7.559   5.813  1.4454 -0.7994  0.7175
  733MOL0     H98954   7.093   7.623   5.963 -1.6189 -0.2222 -0.1026
  733MOL0     H98955   7.150   7.448   5.933  0.8174 -0.8072 -1.4448
  734MOL0     O98956  10.093   7.950   0.487 -0.9674 -0.6500 -0.4349
  734MOL0     C98957  10.165   7.856   0.528 -0.7062 -1.0006  0.8760
  734MOL0     O98958  10.305   7.865   0.540  0.9805 -0.0080 -0.2811
  734MOL0     C98959  10.370   7.983   0.499 -0.0880  0.5074 -0.1991
  734MOL0     C98960  10.455   7.978   0.397  0.0233 -0.5365 -1.0240
  734MOL0     C98961  10.508   8.092   0.343  1.0896 -1.0827  0.1660
  734MOL0     C98962  10.469   8.218   0.394  0.2715 -0.1606  0.1900
  734MOL0     O98963  10.504   8.331   0.335 -0.0615  0.3794  0.5289
  734MOL0     C98964  10.533   8.336   0.191  0.0504  0.1686 -0.7652
  734MOL0     C98965  10.534   8.480   0.140  0.8333  0.0503  0.5764
  734MOL0     C98966  10.549   8.481  -0.009  0.3995  0.5861  1.1258
  734MOL0     C98967  10.547   8.630  -0.062  0.8445 -0.2342  0.7863
  734MOL0     C98968  10.530   8.640  -0.226  0.9884  0.0514 -0.3402
  734MOL0     C98969  10.386   8.595  -0.281  0.2906  0.7075 -0.7730
  734MOL0     C98970  10.287   8.717  -0.287 -0.6193  0.8414 -0.4624
  734MOL0     C98971  10.172   8.689  -0.371  0.8310 -0.1372 -0.2739
  734MOL0     N98972  10.077   8.578  -0.342 -0.9018  0.1986  0.5574
  734MOL0     C98973   9.995   8.566  -0.238  0.0575  0.5391  0.3381
  734MOL0     C98974   9.922   8.451  -0.266 -0.2980 -0.3913 -0.0141
  734MOL0     C98975   9.800   8.398  -0.196 -0.1597 -0.4026  0.2157
  734MOL0     C98976   9.851   8.297  -0.090  1.0174  1.4521 -0.7314
  734MOL0     C98977   9.737   8.199  -0.038 -0.2645  0.6501 -0.1135
  734MOL0     C98978   9.731   8.185   0.113 -0.0968  0.3227 -0.5919
  734MOL0     O98979   9.670   8.072   0.162 -0.6811  0.0470  1.0811
  734MOL0     C98980   9.727   7.951   0.134 -0.4053  0.5593  0.5177
  734MOL0     C98981   9.836   7.915   0.198  0.6473 -0.8708 -0.6098
  734MOL0     C98982   9.886   7.787   0.196  1.2105  0.3102 -0.5148
  734MOL0     C98983   9.830   7.695   0.113  0.0264  0.0471 -1.0661
  734MOL0     C98984   9.876   7.556   0.117  0.1446  1.0740  0.2481
  734MOL0     O98985   9.850   7.471   0.015 -1.0087 -0.8774 -0.0140
  734MOL0     C98986   9.885   7.345   0.020 -0.4266 -0.4947  0.9851
  734MOL0     C98987   9.794   7.254   0.058  0.5528  0.2101  0.7741
  734MOL0     C98988   9.811   7.113   0.050  0.6048 -0.9177 -0.3896
  734MOL0     C98989   9.942   7.066   0.024  0.7863 -0.6569 -0.3205
  734MOL0     O98990   9.971   6.929   0.025 -0.7176  0.0677 -0.1107
  734MOL0     C98991   9.900   6.829   0.099  0.2393  0.5409 -0.7891
  734MOL0     C98992   9.934   6.681   0.046  0.0197  0.0830 -0.3395
  734MOL0     C98993  10.075   6.641   0.079  0.9063  0.1354 -0.1367
  734MOL0     C98994  10.143   6.542  -0.015  0.6840 -0.0233  0.6337
  734MOL0     C98995  10.094   6.399   0.009 -0.6192 -0.1582 -0.0064
  734MOL0     C98996  10.146   6.302  -0.102  0.5693 -0.2083 -0.4888
  734MOL0     C98997  10.203   6.179  -0.038 -1.1144  0.1107 -1.3132
  734MOL0     C98998  10.238   6.082  -0.145 -0.7574  0.3515  0.6704
  734MOL0    Cl98999  10.336   5.955  -0.068 -0.0854 -0.1625 -0.3481
  734MOL0     C99000  10.041   7.160   0.001  1.3586 -0.6212  0.7781
  734MOL0     C99001  10.007   7.297  -0.018  0.8260  0.0642 -0.0477
  734MOL0     O99002   9.943   7.532   0.216  0.7812  0.5281 -0.5279
  734MOL0     C99003   9.722   7.733   0.024 -1.0463  0.9590  0.4116
  734MOL0     C99004   9.670   7.858   0.043 -0.5415 -0.4540  0.3599
  734MOL0     N99005   9.976   8.385  -0.370 -0.6823 -0.7424  0.2837
  734MOL0     N99006  10.070   8.457  -0.414  0.2117 -0.5530 -0.6628
  734MOL0     C99007  10.395   8.233   0.507  0.7042 -0.1149  0.3783
  734MOL0     C99008  10.341   8.112   0.553 -0.2086 -0.0796  0.1208
  734MOL0     C99009  10.119   7.712   0.535  0.5761  0.2098  0.6961
  734MOL0     C99010  10.221   7.618   0.506  0.0586 -0.2539 -0.1211
  734MOL0     C99011  10.187   7.488   0.500 -0.4184  0.4453  0.2485
  734MOL0     C99012  10.059   7.440   0.533  0.2722  0.1537  0.4464
  734MOL0     O99013  10.044   7.302   0.512  0.7362 -0.9281  0.0377
  734MOL0     C99014   9.917   7.244   0.532  0.1732 -0.3136  0.5621
  734MOL0     C99015   9.938   7.109   0.466  0.3804  0.0346  0.5205
  734MOL0     C99016  10.016   7.003   0.552 -0.1363 -1.4756 -0.0629
  734MOL0     C99017  10.044   6.883   0.458  0.2646  0.0758  0.7645
  734MOL0     C99018  10.152   6.919   0.354  0.9976  0.3298 -0.4588
  734MOL0     C99019  10.234   6.940   0.277 -0.2707  0.0068  1.0206
  734MOL0     C99020   9.960   7.533   0.576 -0.4541 -0.4762 -0.5253
  734MOL0     C99021   9.984   7.671   0.569 -0.3962 -1.1903 -0.6507
  734MOL0     C99022   9.870   7.779   0.577 -0.4006  1.0962 -0.9131
  734MOL0     H99023  10.475   7.881   0.352 -1.4455 -0.7775 -1.2124
  734MOL0     H99024  10.572   8.098   0.255  0.5030  0.9266 -0.1736
  734MOL0     H99025  10.631   8.291   0.172  1.1756  0.6199  3.1648
  734MOL0     H99026  10.452   8.280   0.143  0.0754 -0.7270  0.2030
  734MOL0     H99027  10.625   8.530   0.176  1.1361  0.7050 -1.0202
  734MOL0     H99028  10.436   8.526   0.159 -0.5348 -2.7616  0.7754
  734MOL0     H99029  10.472   8.424  -0.060  2.8916 -1.5996 -0.4661
  734MOL0     H99030  10.645   8.430  -0.025  0.0904 -0.1738  1.6490
  734MOL0     H99031  10.469   8.684  -0.008  0.4563  1.6990 -1.5220
  734MOL0     H99032  10.642   8.680  -0.039  3.1159 -2.0706 -3.3765
  734MOL0     H99033  10.544   8.745  -0.252 -0.7455  1.2705  2.9828
  734MOL0     H99034  10.604   8.571  -0.266  2.5373 -0.3447  2.8568
  734MOL0     H99035  10.413   8.563  -0.381  0.7274 -0.5937 -0.2515
  734MOL0     H99036  10.352   8.502  -0.235  2.0997 -0.3948 -1.5668
  734MOL0     H99037  10.348   8.806  -0.309  2.0824  0.5330  4.3980
  734MOL0     H99038  10.242   8.737  -0.189  0.2776 -1.9703  0.6053
  734MOL0     H99039  10.107   8.777  -0.376  1.9173  0.7550  0.7213
  734MOL0     H99040  10.203   8.676  -0.476 -0.1584 -0.3744 -0.5408
  734MOL0     H99041   9.979   8.644  -0.164 -3.1237  1.2604 -0.9581
  734MOL0     H99042   9.736   8.481  -0.164  0.0258  0.5185 -1.6393
  734MOL0     H99043   9.750   8.328  -0.264  3.4772 -2.0696 -0.9844
  734MOL0     H99044   9.944   8.246  -0.114 -0.8328 -2.2954 -0.6948
  734MOL0     H99045   9.881   8.360  -0.006  2.3544  1.1159 -0.9346
  734MOL0     H99046   9.761   8.101  -0.079  1.0352  0.9092 -0.0198
  734MOL0     H99047   9.645   8.244  -0.075  1.2990  3.6271 -0.6672
  734MOL0     H99048   9.694   8.277   0.158 -0.7687 -0.0226 -0.4284
  734MOL0     H99049   9.831   8.166   0.153 -1.9967 -2.8180  3.4802
  734MOL0     H99050   9.869   7.988   0.272  1.2228  1.1668 -2.7688
  734MOL0     H99051   9.959   7.765   0.273  0.2315  0.6887  0.5635
  734MOL0     H99052   9.696   7.284   0.094 -0.9805 -2.3295 -0.9691
  734MOL0     H99053   9.723   7.050   0.063  0.3856 -0.5850 -0.2584
  734MOL0     H99054   9.941   6.845   0.199  1.1781 -3.8384 -0.2716
  734MOL0     H99055   9.793   6.850   0.102 -0.0772 -1.0619  0.8223
  734MOL0     H99056   9.877   6.615   0.112 -1.7333  1.5454 -0.3364
  734MOL0     H99057   9.906   6.660  -0.057  1.0531 -3.0730 -0.0959
  734MOL0     H99058  10.137   6.730   0.063  2.1166 -0.9148 -1.6147
  734MOL0     H99059  10.092   6.600   0.179  1.4189  0.0196 -0.2660
  734MOL0     H99060  10.251   6.559  -0.020  0.2931  2.8593  0.1336
  734MOL0     H99061  10.114   6.578  -0.114 -0.3262  0.5848  1.1274
  734MOL0     H99062   9.985   6.413   0.012 -0.5530  0.3895  2.6163
  734MOL0     H99063  10.125   6.363   0.108  0.1087  1.2053  0.2861
  734MOL0     H99064  10.056   6.292  -0.163  0.0971  3.3422 -0.6160
  734MOL0     H99065  10.225   6.358  -0.154  2.1219 -0.5829  1.3325
  734MOL0     H99066  10.150   6.130   0.045  0.5959  1.3293  0.6077
  734MOL0     H99067  10.295   6.207   0.014 -1.4212 -1.0877 -0.0431
  734MOL0     H99068  10.150   6.029  -0.183 -0.1060 -0.9442  0.9061
  734MOL0     H99069  10.299   6.121  -0.226 -2.8980  0.4525 -1.0022
  734MOL0     H99070  10.135   7.123  -0.037 -0.3534 -2.1126 -2.4272
  734MOL0     H99071  10.084   7.361  -0.061  1.4209  0.3193  1.3573
  734MOL0     H99072   9.686   7.668  -0.055 -0.8051  0.5664  0.6202
  734MOL0     H99073   9.596   7.908  -0.017 -1.0831 -0.3489  1.0989
  734MOL0     H99074  10.371   8.328   0.554  4.0656  1.1733 -0.2207
  734MOL0     H99075  10.274   8.120   0.638 -0.3391 -1.1059  0.1266
  734MOL0     H99076  10.322   7.644   0.478  0.3864 -1.4574 -0.1086
  734MOL0     H99077  10.267   7.427   0.460  0.5059  2.2748 -0.8098
  734MOL0     H99078   9.838   7.302   0.483  2.0389  1.7651 -0.1554
  734MOL0     H99079   9.897   7.238   0.639  1.5895  1.1814  0.9511
  734MOL0     H99080   9.994   7.129   0.374  0.6769  1.7686  1.0416
  734MOL0     H99081   9.842   7.066   0.435 -0.1003  0.1260  1.8421
  734MOL0     H99082   9.951   6.974   0.635  0.4966 -2.0794  0.2366
  734MOL0     H99083  10.114   7.039   0.586 -0.5362 -2.4243  2.2844
  734MOL0     H99084  10.079   6.802   0.523 -1.9163  0.5781  2.6831
  734MOL0     H99085   9.954   6.853   0.404  0.5448  0.3704  0.1271
  734MOL0     H99086  10.304   6.954   0.197 -2.0525 -2.1346 -1.0717
  734MOL0     H99087   9.861   7.494   0.600 -0.3061 -0.5877 -0.0895
  734MOL0     H99088   9.903   7.868   0.631 -0.1660 -1.5190  3.7995
  734MOL0     H99089   9.844   7.803   0.473 -0.1675  1.9552 -0.7779
  734MOL0     H99090   9.787   7.723   0.620 -0.2121 -1.5443 -3.5684
  735MOL0     O99091   9.610   6.339   5.952  0.5867 -0.0324  0.5519
  735MOL0     C99092   9.613   6.323   5.831  0.2073 -1.0997 -0.8566
  735MOL0     O99093   9.711   6.363   5.752  0.2466  0.3029  0.3805
  735MOL0     C99094   9.810   6.453   5.790  0.6491 -0.3428 -0.2839
  735MOL0     C99095   9.830   6.517   5.916  1.0486 -0.8019  0.1075
  735MOL0     C99096   9.932   6.611   5.935  0.2797 -0.3130  0.1730
  735MOL0     C99097  10.016   6.643   5.838  0.0100  0.1116 -0.6124
  735MOL0     O99098  10.114   6.736   5.864  0.6153  0.3378  0.0888
  735MOL0     C99099  10.199   6.719   5.973  0.0576  0.2278 -0.7328
  735MOL0     C99100  10.316   6.650   5.925 -0.6280  1.1212 -0.3771
  735MOL0     C99101  10.426   6.647   6.027  0.1708 -0.4950 -0.2859
  735MOL0     C99102  10.540   6.558   5.977  0.6371 -0.1411 -0.0568
  735MOL0     C99103  10.661   6.600   6.066 -0.3100 -0.8533 -0.3053
  735MOL0     C99104  10.797   6.543   6.019  0.5623  0.5461  0.7575
  735MOL0     C99105  10.814   6.386   6.016 -0.4149 -0.0945 -0.7929
  735MOL0     C99106  10.742   6.305   5.911 -0.3711  0.0248  0.3455
  735MOL0     N99107  10.819   6.260   5.796 -0.1193 -0.2867  0.4512
  735MOL0     C99108  10.873   6.137   5.778 -0.3754 -0.1432  0.1229
  735MOL0     C99109  10.944   6.149   5.660  0.4530  0.0443  0.3828
  735MOL0     C99110  11.033   6.043   5.606 -0.1876 -1.3112  0.4087
  735MOL0     C99111  10.956   5.923   5.555  1.1866  0.5147 -0.7541
  735MOL0     C99112  10.879   5.935   5.429 -0.2146 -0.7354  0.3553
  735MOL0     C99113  10.950   6.016   5.322 -0.5871  0.0829  0.2096
  735MOL0     O99114  10.884   5.981   5.199  0.7772  0.1311  0.6943
  735MOL0     C99115  10.876   6.070   5.097  1.0958 -0.1322  0.2493
  735MOL0     C99116  10.774   6.069   4.998 -0.5586  0.2632 -0.1896
  735MOL0     C99117  10.782   6.175   4.901  0.5084  0.7569  0.3945
  735MOL0     C99118  10.879   6.270   4.893  0.1200  0.6658  0.2458
  735MOL0     C99119  10.879   6.363   4.779  0.1020  0.7468 -0.5071
  735MOL0     O99120  10.933   6.488   4.813  0.7870 -0.4726 -0.2907
  735MOL0     C99121  10.927   6.592   4.717 -0.2577 -0.1227  0.4721
  735MOL0     C99122  10.816   6.661   4.679  0.1016 -0.4988 -0.9842
  735MOL0     C99123  10.822   6.779   4.601  1.0014  0.4830 -0.9967
  735MOL0     C99124  10.943   6.832   4.560 -0.3352 -1.1746 -0.1914
  735MOL0     O99125  10.939   6.954   4.488  0.1367 -0.0379 -0.0743
  735MOL0     C99126  11.051   6.982   4.409 -0.2937 -0.3173  0.8242
  735MOL0     C99127  11.017   7.107   4.319  0.1412  0.0597  0.1474
  735MOL0     C99128  11.128   7.131   4.210  0.3823  0.1384  1.0338
  735MOL0     C99129  11.087   7.238   4.107  0.9297  0.2554  0.0632
  735MOL0     C99130  11.037   7.379   4.166 -0.5286  0.2878 -0.4113
  735MOL0     C99131  11.022   7.493   4.078 -0.1407  0.3122  0.1573
  735MOL0     C99132  10.986   7.620   4.159  0.4759  0.2910 -0.9107
  735MOL0     C99133  10.988   7.745   4.077  0.2717 -0.7290  0.0043
  735MOL0    Cl99134  10.859   7.749   3.962  0.5385 -0.2692 -0.2216
  735MOL0     C99135  11.056   6.753   4.585  0.0602 -0.5976  0.0567
  735MOL0     C99136  11.048   6.633   4.658 -0.1244  0.6408  0.5358
  735MOL0     O99137  10.812   6.336   4.676 -0.6942  0.1187  0.2816
  735MOL0     C99138  10.975   6.272   4.993  0.4242  0.1546 -0.5898
  735MOL0     C99139  10.968   6.173   5.098  0.3132 -0.1063  0.7055
  735MOL0     N99140  10.929   6.273   5.606 -0.1206 -0.6270  0.4667
  735MOL0     N99141  10.844   6.330   5.689  0.0233  0.2919  0.4373
  735MOL0     C99142  10.002   6.588   5.713 -0.0420 -0.7028  0.1361
  735MOL0     C99143   9.899   6.491   5.691 -0.1353 -0.7956  0.0002
  735MOL0     C99144   9.501   6.272   5.764  0.0808 -0.9021 -0.0937
  735MOL0     C99145   9.374   6.297   5.818 -0.5990  0.2366 -0.1944
  735MOL0     C99146   9.260   6.279   5.747  0.8467 -0.2384  0.4715
  735MOL0     C99147   9.261   6.214   5.620  0.2781  0.0977  0.2049
  735MOL0     O99148   9.139   6.188   5.562 -0.0681  0.6476 -0.5902
  735MOL0     C99149   9.142   6.095   5.449  0.8085  0.0720  0.4588
  735MOL0     C99150   8.997   6.030   5.447  0.0852  0.4389  0.2906
  735MOL0     C99151   8.986   5.941   5.320  0.3579  0.3550  0.0602
  735MOL0     C99152   8.846   5.888   5.317  0.3072  0.5000  0.3613
  735MOL0     C99153   8.815   5.778   5.412 -0.5659 -0.0909  0.0982
  735MOL0     C99154   8.800   5.673   5.474 -0.5993 -0.0139 -1.4110
  735MOL0     C99155   9.387   6.168   5.582 -0.1574  0.3568 -0.0689
  735MOL0     C99156   9.502   6.190   5.657 -0.3407 -0.0833  0.0276
  735MOL0     C99157   9.631   6.134   5.596 -0.5045 -0.6614 -0.4792
  735MOL0     H99158   9.763   6.503   6.000  0.8730  1.4853  0.4318
  735MOL0     H99159   9.954   6.645   6.035 -1.0991 -0.6398  0.6020
  735MOL0     H99160  10.221   6.821   6.005 -2.0494  0.5532 -0.1673
  735MOL0     H99161  10.149   6.667   6.055 -2.4019  1.2027 -1.5264
  735MOL0     H99162  10.352   6.706   5.839 -0.5200 -0.8791 -1.7131
  735MOL0     H99163  10.305   6.547   5.888  2.3915  0.9972 -1.2104
  735MOL0     H99164  10.403   6.620   6.130  2.5814  0.7508  0.6451
  735MOL0     H99165  10.464   6.749   6.029  0.5197 -0.6051 -0.9193
  735MOL0     H99166  10.506   6.454   5.972 -2.0845  0.7142 -3.9989
  735MOL0     H99167  10.554   6.585   5.871 -1.0917  3.5329  0.4771
  735MOL0     H99168  10.665   6.710   6.063 -0.5152 -0.7035  2.3911
  735MOL0     H99169  10.634   6.574   6.168  1.1306  0.9877  0.6171
  735MOL0     H99170  10.815   6.581   5.918 -0.1449  1.8483  1.0990
  735MOL0     H99171  10.869   6.586   6.089 -0.7272 -0.6441  2.9302
  735MOL0     H99172  10.778   6.354   6.114  1.7212  2.4377  0.9465
  735MOL0     H99173  10.922   6.370   6.008 -0.1011  2.0114 -1.4532
  735MOL0     H99174  10.694   6.217   5.955 -0.4775  1.0238  2.3241
  735MOL0     H99175  10.663   6.367   5.868 -0.8116 -1.0669 -0.4530
  735MOL0     H99176  10.879   6.055   5.848 -0.0029 -0.4046 -0.2077
  735MOL0     H99177  11.098   6.080   5.526 -1.4798  1.5429  0.5300
  735MOL0     H99178  11.093   6.007   5.690 -0.2046 -0.2848  0.8820
  735MOL0     H99179  11.027   5.842   5.536  3.3351  1.6080  1.7664
  735MOL0     H99180  10.891   5.885   5.634 -0.5704  1.9428 -1.4510
  735MOL0     H99181  10.779   5.975   5.450 -2.5820 -6.3701  1.7407
  735MOL0     H99182  10.861   5.837   5.383 -0.2326  0.2983 -1.9566
  735MOL0     H99183  11.056   5.993   5.314 -0.2994  0.0484  3.1799
  735MOL0     H99184  10.927   6.121   5.340 -1.0916  0.3644 -1.8509
  735MOL0     H99185  10.693   5.997   4.995  2.1537 -3.0446 -0.0579
  735MOL0     H99186  10.696   6.165   4.835  1.6637  1.4646 -1.2587
  735MOL0     H99187  10.719   6.624   4.710 -0.3897 -1.0780 -3.0485
  735MOL0     H99188  10.728   6.831   4.583  1.0217  0.7188 -0.4504
  735MOL0     H99189  11.138   7.012   4.468  0.2583 -1.1304  0.4468
  735MOL0     H99190  11.082   6.893   4.352  4.2065  1.8702 -0.6363
  735MOL0     H99191  10.926   7.085   4.263 -0.1650 -2.5603  1.5334
  735MOL0     H99192  11.018   7.198   4.380  2.0240 -1.4005  2.4802
  735MOL0     H99193  11.220   7.166   4.259  0.5358  1.6038 -0.2115
  735MOL0     H99194  11.152   7.038   4.158 -2.8713  0.2457 -0.9470
  735MOL0     H99195  11.016   7.195   4.036 -0.4949  1.5363  0.6845
  735MOL0     H99196  11.183   7.252   4.056  0.0001  2.4452 -1.2133
  735MOL0     H99197  11.104   7.407   4.248 -0.6469  2.4326 -0.9775
  735MOL0     H99198  10.936   7.358   4.202 -0.6517 -0.1529 -1.0003
  735MOL0     H99199  11.112   7.506   4.018 -1.5090  2.5146 -1.5997
  735MOL0     H99200  10.942   7.470   4.006  0.9698 -0.5844 -0.8232
  735MOL0     H99201  11.062   7.627   4.238  0.5179 -1.3223 -0.7753
  735MOL0     H99202  10.892   7.605   4.213  1.6358  1.0440  1.5110
  735MOL0     H99203  10.961   7.817   4.154  4.1187  0.0785  0.8164
  735MOL0     H99204  11.081   7.777   4.027  1.9736 -0.8540  2.8711
  735MOL0     H99205  11.155   6.772   4.545  1.1121 -1.5174  2.0407
  735MOL0     H99206  11.134   6.570   4.677 -0.8027 -0.3950  0.2781
  735MOL0     H99207  11.046   6.354   4.999  0.0894  0.4418 -0.5592
  735MOL0     H99208  11.042   6.175   5.177  0.2025  1.4376  0.8003
  735MOL0     H99209  10.060   6.619   5.626 -0.4140  1.2372  0.5368
  735MOL0     H99210   9.880   6.460   5.589  0.4828  0.6190 -0.5637
  735MOL0     H99211   9.376   6.339   5.918  2.6507  1.1661 -0.5279
  735MOL0     H99212   9.166   6.310   5.793  1.4035 -0.3512  1.7460
  735MOL0     H99213   9.217   6.018   5.470  2.8624  1.0186 -2.5728
  735MOL0     H99214   9.159   6.151   5.356  1.1479 -2.1755 -0.9177
  735MOL0     H99215   8.926   6.113   5.460 -2.3885 -1.4834 -0.0316
  735MOL0     H99216   8.986   5.973   5.539 -0.2260  0.4493  0.2619
  735MOL0     H99217   9.048   5.851   5.319 -0.9251 -0.5712 -1.8409
  735MOL0     H99218   9.017   5.998   5.232 -2.3723  2.1958  0.1604
  735MOL0     H99219   8.783   5.972   5.347  0.8395  0.5319  1.4147
  735MOL0     H99220   8.810   5.862   5.217 -1.1747 -3.3769  1.7174
  735MOL0     H99221   8.785   5.584   5.531  0.9350  1.8825  2.3670
  735MOL0     H99222   9.410   6.117   5.489 -1.4371 -0.3046 -0.0364
  735MOL0     H99223   9.656   6.206   5.517 -3.0132  1.0873  0.1924
  735MOL0     H99224   9.721   6.120   5.657  1.3376  3.1956 -1.9363
  735MOL0     H99225   9.618   6.037   5.548  0.4080 -1.0706  0.0749
  736MOL0     O99226   1.471   3.834   2.236 -0.8285 -0.4743 -0.4871
  736MOL0     C99227   1.570   3.907   2.210  0.5493  0.0139 -0.3665
  736MOL0     O99228   1.697   3.868   2.187 -0.1955  0.4713  0.9517
  736MOL0     C99229   1.731   3.730   2.191 -0.8845  0.2685 -0.3193
  736MOL0     C99230   1.800   3.679   2.304 -1.3905  0.4745  0.4305
  736MOL0     C99231   1.842   3.540   2.317  0.2150  0.4800 -0.1162
  736MOL0     C99232   1.814   3.451   2.206 -0.6216  0.0860 -0.0828
  736MOL0     O99233   1.839   3.312   2.228 -0.2361 -0.6195  0.5888
  736MOL0     C99234   1.809   3.210   2.128 -0.0926  0.4710 -0.0366
  736MOL0     C99235   1.879   3.076   2.165  1.1752 -0.6038 -0.6340
  736MOL0     C99236   2.027   3.088   2.137  0.1173 -0.0144  0.5985
  736MOL0     C99237   2.101   2.968   2.198  0.2020 -0.8978 -0.2390
  736MOL0     C99238   2.065   2.833   2.148  0.2427  0.1051 -0.1265
  736MOL0     C99239   2.110   2.721   2.252 -0.3768 -0.0252 -0.7530
  736MOL0     C99240   2.007   2.719   2.359 -0.0808  0.4606  0.1108
  736MOL0     C99241   2.058   2.601   2.449  1.5677 -0.0486 -0.0625
  736MOL0     N99242   1.966   2.593   2.566  0.1719  0.2771  0.0383
  736MOL0     C99243   1.977   2.663   2.678 -0.3851 -0.8626  0.6867
  736MOL0     C99244   1.898   2.615   2.774 -0.7765 -0.2084 -0.3394
  736MOL0     C99245   1.893   2.639   2.919 -0.0488 -0.1152  0.3341
  736MOL0     C99246   1.809   2.758   2.955  1.4006 -0.5111  0.0375
  736MOL0     C99247   1.841   2.792   3.099 -0.5093  1.3626  0.1608
  736MOL0     C99248   1.771   2.930   3.129 -0.0907  0.2008  0.4046
  736MOL0     O99249   1.856   3.042   3.075  0.2370 -0.7591 -0.2458
  736MOL0     C99250   1.793   3.160   3.047  0.1173 -0.0430  1.3879
  736MOL0     C99251   1.864   3.252   2.973  0.5314 -0.1086  0.1920
  736MOL0     C99252   1.811   3.378   2.934  0.0178  0.4140  0.9269
  736MOL0     C99253   1.677   3.414   2.959  0.1595  0.3000 -0.3111
  736MOL0     C99254   1.606   3.518   2.889 -0.3264  0.2042  0.7574
  736MOL0     O99255   1.681   3.608   2.842  0.5421 -0.0217 -1.3108
  736MOL0     C99256   1.606   3.713   2.789  0.5050 -0.6043 -1.5864
  736MOL0     C99257   1.515   3.784   2.864  0.3342  0.1002  0.3718
  736MOL0     C99258   1.435   3.881   2.805  0.4540  0.1779 -0.5443
  736MOL0     C99259   1.441   3.915   2.668  0.4183 -0.2895  0.4563
  736MOL0     O99260   1.352   4.006   2.620  0.8679 -0.1916 -0.0995
  736MOL0     C99261   1.326   4.013   2.479  0.5464 -0.0804  0.1709
  736MOL0     C99262   1.190   4.085   2.452 -0.3865  0.7972  1.0803
  736MOL0     C99263   1.207   4.235   2.475 -0.2715 -0.0058  0.1364
  736MOL0     C99264   1.214   4.287   2.629 -0.8993  0.3770 -0.3597
  736MOL0     C99265   1.274   4.429   2.618  0.2617  0.1684  0.3079
  736MOL0     C99266   1.189   4.522   2.529 -0.5617 -0.3787  1.1639
  736MOL0     C99267   1.185   4.663   2.564 -0.1521 -0.0582  0.4399
  736MOL0     C99268   1.092   4.735   2.468  0.6073  0.9016  0.9405
  736MOL0    Cl99269   1.148   4.719   2.292 -0.0650  0.1263 -0.0651
  736MOL0     C99270   1.535   3.840   2.598  0.0306  0.1656 -0.1502
  736MOL0     C99271   1.620   3.748   2.655 -0.4387  0.3465  0.0768
  736MOL0     O99272   1.483   3.510   2.879  0.1017 -0.9193  0.1843
  736MOL0     C99273   1.601   3.313   3.028  1.1855  0.3072 -0.6841
  736MOL0     C99274   1.658   3.191   3.072 -0.6020  0.6868 -0.0708
  736MOL0     N99275   1.812   2.539   2.711 -0.3370  0.2028 -0.2281
  736MOL0     N99276   1.855   2.513   2.588 -0.2971 -0.5677 -0.8130
  736MOL0     C99277   1.745   3.504   2.089 -0.2019 -0.6353  0.3798
  736MOL0     C99278   1.704   3.641   2.093  0.4612  0.9169 -0.0543
  736MOL0     C99279   1.553   4.053   2.204 -0.4030 -0.8798  0.3096
  736MOL0     C99280   1.643   4.137   2.265 -0.8414 -0.7276  0.3625
  736MOL0     C99281   1.643   4.272   2.251  1.3175 -0.1259 -0.2171
  736MOL0     C99282   1.528   4.334   2.197 -0.5979  0.0334  1.2776
  736MOL0     O99283   1.502   4.472   2.177 -0.1192  0.1629  0.3344
  736MOL0     C99284   1.588   4.571   2.245  0.5760  0.6882  0.4514
  736MOL0     C99285   1.541   4.717   2.222 -0.0948  0.8520 -0.6201
  736MOL0     C99286   1.523   4.751   2.072  1.1559  0.4863  0.4006
  736MOL0     C99287   1.491   4.896   2.042 -0.7345  0.2248 -0.2475
  736MOL0     C99288   1.554   4.924   1.903  0.7606  0.7758  0.0664
  736MOL0     C99289   1.596   4.915   1.791 -0.4617 -0.1679 -0.8383
  736MOL0     C99290   1.430   4.251   2.148  0.0651 -0.5048 -0.2041
  736MOL0     C99291   1.432   4.108   2.148 -0.1537 -0.8014 -0.1277
  736MOL0     C99292   1.328   4.029   2.069 -0.3623  0.4723 -0.4951
  736MOL0     H99293   1.827   3.743   2.387 -0.2490 -0.9024  1.1800
  736MOL0     H99294   1.883   3.496   2.408  0.4527 -0.4740 -0.6642
  736MOL0     H99295   1.700   3.197   2.127 -0.0269 -0.2175  0.7478
  736MOL0     H99296   1.849   3.233   2.029  1.2314 -1.3158  0.0380
  736MOL0     H99297   1.844   2.999   2.095 -2.1652  1.6021 -1.6297
  736MOL0     H99298   1.850   3.047   2.266  0.4711  1.8097 -0.1028
  736MOL0     H99299   2.064   3.182   2.179  0.5082  0.5960 -1.0362
  736MOL0     H99300   2.051   3.087   2.030 -2.2837 -0.0344  0.0008
  736MOL0     H99301   2.210   2.975   2.192  0.1303  3.4055  0.1461
  736MOL0     H99302   2.078   2.974   2.304 -0.2914 -0.2538 -0.3762
  736MOL0     H99303   1.958   2.826   2.125  0.5151  0.4657 -1.5568
  736MOL0     H99304   2.117   2.818   2.053 -0.8100  1.9988 -1.0563
  736MOL0     H99305   2.107   2.626   2.197 -2.2133 -0.1456 -0.5231
  736MOL0     H99306   2.210   2.730   2.294  0.0544  1.5334 -2.0473
  736MOL0     H99307   1.907   2.694   2.323  0.1203  1.9814 -1.6292
  736MOL0     H99308   2.012   2.811   2.417 -3.0251  0.6428  0.2338
  736MOL0     H99309   2.067   2.508   2.392  2.4742 -0.9408  1.4665
  736MOL0     H99310   2.160   2.625   2.482  1.2484  0.5953  0.4922
  736MOL0     H99311   2.038   2.752   2.691 -2.1522  1.0903 -2.8159
  736MOL0     H99312   1.867   2.543   2.965 -0.8293 -2.2328 -3.9705
  736MOL0     H99313   1.998   2.654   2.944  0.8678 -2.6395 -1.5540
  736MOL0     H99314   1.834   2.844   2.892  0.6328  1.1449  1.8707
  736MOL0     H99315   1.704   2.734   2.938  1.4781  0.5564 -2.3880
  736MOL0     H99316   1.950   2.796   3.112 -0.5705  0.0801  1.4134
  736MOL0     H99317   1.795   2.722   3.170 -0.6941  0.4518 -0.8254
  736MOL0     H99318   1.774   2.941   3.238  0.4716 -0.9415  0.5153
  736MOL0     H99319   1.665   2.926   3.102 -0.4789  1.1371  1.6493
  736MOL0     H99320   1.963   3.222   2.939  1.4132  0.4586  2.1144
  736MOL0     H99321   1.859   3.446   2.864 -3.1130  1.2671 -0.5520
  736MOL0     H99322   1.505   3.767   2.970  0.8026  2.0504  0.7743
  736MOL0     H99323   1.367   3.919   2.880  1.5056 -0.8604  0.9865
  736MOL0     H99324   1.411   4.061   2.428 -1.5190  1.2545 -2.2716
  736MOL0     H99325   1.316   3.917   2.428 -3.7019  0.7013 -0.8495
  736MOL0     H99326   1.162   4.067   2.348  0.9862 -2.4152  1.1564
  736MOL0     H99327   1.099   4.045   2.499 -1.6877  1.4035 -0.8270
  736MOL0     H99328   1.291   4.276   2.418  0.3325 -2.5009 -0.8710
  736MOL0     H99329   1.113   4.284   2.447 -0.0130 -1.0314 -2.8736
  736MOL0     H99330   1.280   4.220   2.685 -1.6181 -2.8573 -3.0476
  736MOL0     H99331   1.122   4.288   2.689  1.2554 -1.6253  3.3297
  736MOL0     H99332   1.373   4.425   2.572  0.4822  0.9968  0.6795
  736MOL0     H99333   1.284   4.478   2.715  0.3442  0.5943  0.0887
  736MOL0     H99334   1.231   4.519   2.428  0.3125  3.5074  1.2784
  736MOL0     H99335   1.088   4.481   2.521 -1.8919  3.0152 -1.3782
  736MOL0     H99336   1.287   4.697   2.550 -0.2010  0.0530  0.3522
  736MOL0     H99337   1.149   4.671   2.667 -0.3289 -0.8412  0.4470
  736MOL0     H99338   0.998   4.680   2.479  0.2876  1.1347 -0.3839
  736MOL0     H99339   1.063   4.839   2.484 -1.4182  0.1856  2.3768
  736MOL0     H99340   1.556   3.860   2.494 -1.3970 -2.1813 -0.9663
  736MOL0     H99341   1.692   3.685   2.603  1.1415  2.1245 -0.0158
  736MOL0     H99342   1.500   3.336   3.063  1.7256  0.5094  0.8072
  736MOL0     H99343   1.605   3.120   3.134  0.6617  1.5956  2.1663
  736MOL0     H99344   1.725   3.454   1.995  0.7602  0.8305 -0.6446
  736MOL0     H99345   1.647   3.678   2.009  0.8010  0.2824 -0.5670
  736MOL0     H99346   1.734   4.103   2.314 -2.2301 -3.2070  1.4132
  736MOL0     H99347   1.733   4.326   2.280 -0.0731  1.1136  2.1855
  736MOL0     H99348   1.685   4.554   2.197 -0.3119 -1.2417 -0.8094
  736MOL0     H99349   1.591   4.548   2.351  0.5200 -2.2318 -0.0856
  736MOL0     H99350   1.613   4.789   2.262  0.1583  1.6237 -2.3868
  736MOL0     H99351   1.451   4.731   2.282  0.4308 -1.8175  0.9497
  736MOL0     H99352   1.443   4.685   2.037  2.8790 -1.1108 -0.6992
  736MOL0     H99353   1.608   4.716   2.014  1.2381 -2.5054  2.0821
  736MOL0     H99354   1.386   4.923   2.030 -0.1951  2.2172 -1.0390
  736MOL0     H99355   1.534   4.967   2.113  2.2522  2.5432 -3.9463
  736MOL0     H99356   1.627   4.902   1.689  3.6952 -0.1594  0.2559
  736MOL0     H99357   1.351   4.304   2.096  0.3385 -2.8943 -3.3609
  736MOL0     H99358   1.380   3.949   2.016  0.9025  0.1418  1.1704
  736MOL0     H99359   1.248   3.983   2.127  0.9826  0.7867  1.7553
  736MOL0     H99360   1.275   4.089   1.995  1.9880 -0.3089 -2.9749
  737MOL0     O99361   6.971   3.568   3.474 -0.0420 -0.3305  0.1504
  737MOL0     C99362   7.033   3.514   3.564 -0.2824 -0.4565  0.3097
  737MOL0     O99363   7.072   3.389   3.557  0.7148  0.4359  0.0580
  737MOL0     C99364   7.028   3.323   3.441 -0.1010  0.0961 -0.5612
  737MOL0     C99365   6.959   3.200   3.444  0.0825 -0.2179 -0.6920
  737MOL0     C99366   6.945   3.128   3.328 -0.6235 -0.6646 -1.5065
  737MOL0     C99367   6.965   3.174   3.199  0.1561 -0.3129 -0.2570
  737MOL0     O99368   6.937   3.104   3.083 -0.0589 -0.4845  0.2365
  737MOL0     C99369   6.818   3.024   3.082 -0.1392 -0.4529  0.1463
  737MOL0     C99370   6.695   3.110   3.040  0.2308  0.1082  0.1517
  737MOL0     C99371   6.716   3.181   2.905 -1.2039  0.3033  0.8871
  737MOL0     C99372   6.756   3.080   2.784 -1.2343 -0.7943  0.5713
  737MOL0     C99373   6.622   3.023   2.719 -0.1855 -0.0034 -0.6802
  737MOL0     C99374   6.573   3.114   2.607 -0.2498  0.9485 -0.4273
  737MOL0     C99375   6.454   3.057   2.530 -0.7265  0.2067 -0.5644
  737MOL0     C99376   6.490   2.938   2.440  0.5246  0.5733  0.1219
  737MOL0     N99377   6.409   2.943   2.320 -0.9176 -0.7079  0.0453
  737MOL0     C99378   6.275   2.921   2.302  0.2596  0.3498  0.1108
  737MOL0     C99379   6.245   2.954   2.178  0.4155  0.2862  0.9727
  737MOL0     C99380   6.111   2.939   2.109 -0.1220 -0.0930 -0.5604
  737MOL0     C99381   6.076   2.792   2.056  0.0969 -0.6206  0.2369
  737MOL0     C99382   5.935   2.778   1.998 -1.0447  0.7307 -0.0049
  737MOL0     C99383   5.919   2.839   1.861  0.0233 -0.4830 -1.4413
  737MOL0     O99384   5.825   2.946   1.862  0.8798  0.1866 -0.3159
  737MOL0     C99385   5.697   2.934   1.820 -0.0755  0.3874  0.1863
  737MOL0     C99386   5.633   3.030   1.751  0.0592 -0.5307 -0.3352
  737MOL0     C99387   5.501   3.010   1.702 -0.6433 -0.3736  1.2929
  737MOL0     C99388   5.435   2.890   1.711 -0.4635  0.3900 -0.1849
  737MOL0     C99389   5.299   2.856   1.657  0.6187 -0.1424  0.2811
  737MOL0     O99390   5.234   2.743   1.696 -0.1090 -0.1591  0.0243
  737MOL0     C99391   5.111   2.722   1.641 -0.2423 -0.0369  0.0234
  737MOL0     C99392   5.016   2.818   1.655 -0.0944  0.4692 -0.9016
  737MOL0     C99393   4.887   2.794   1.605 -0.3051 -0.5593  0.0054
  737MOL0     C99394   4.854   2.683   1.522 -0.4903  0.4361  0.0543
  737MOL0     O99395   4.729   2.676   1.469  0.2648  0.1235 -0.6044
  737MOL0     C99396   4.635   2.659   1.575 -0.6619  0.0479  0.1900
  737MOL0     C99397   4.498   2.667   1.530  0.6855 -0.4252 -0.0540
  737MOL0     C99398   4.454   2.816   1.501 -0.0785 -0.3489 -0.2242
  737MOL0     C99399   4.308   2.841   1.485  0.8769  1.1202 -0.2400
  737MOL0     C99400   4.263   2.823   1.338  0.6252  0.1757  0.9835
  737MOL0     C99401   4.112   2.851   1.328  0.4517  0.5137 -0.3514
  737MOL0     C99402   4.025   2.731   1.372  0.0015 -0.7261 -0.6876
  737MOL0     C99403   3.905   2.772   1.455  0.1483  0.3604  0.1471
  737MOL0    Cl99404   3.790   2.874   1.365 -0.0015 -0.0636  0.1862
  737MOL0     C99405   4.954   2.585   1.519 -0.5716  0.6356  0.2157
  737MOL0     C99406   5.085   2.607   1.579 -0.4072  0.2353  0.7407
  737MOL0     O99407   5.265   2.930   1.564 -0.5054  0.1946 -1.0979
  737MOL0     C99408   5.501   2.793   1.778 -0.4488  0.3787 -0.1540
  737MOL0     C99409   5.623   2.808   1.840 -1.0138 -0.1962 -0.2488
  737MOL0     N99410   6.366   2.992   2.113 -0.0460  0.1394  0.4611
  737MOL0     N99411   6.457   2.979   2.205  0.4678  0.8193  0.3357
  737MOL0     C99412   7.039   3.289   3.190 -0.0766  0.0608 -0.2773
  737MOL0     C99413   7.076   3.356   3.313  0.0359  1.3839  0.3765
  737MOL0     C99414   7.088   3.585   3.680 -0.5261  0.0102 -0.8797
  737MOL0     C99415   7.160   3.507   3.774 -0.0354  0.3950  0.9647
  737MOL0     C99416   7.230   3.575   3.870 -0.0040 -0.0985 -0.3855
  737MOL0     C99417   7.233   3.713   3.893 -0.1670 -0.3888 -0.0071
  737MOL0     O99418   7.313   3.766   3.992 -0.2114  0.4496  0.6965
  737MOL0     C99419   7.234   3.804   4.110 -0.6198  0.3161 -0.2825
  737MOL0     C99420   7.311   3.877   4.219 -0.7457 -0.2302 -0.6312
  737MOL0     C99421   7.240   3.958   4.314  0.0682  0.1062 -0.4089
  737MOL0     C99422   7.213   3.906   4.451 -0.3077  0.0989  0.1561
  737MOL0     C99423   7.333   3.883   4.536  0.6697 -0.2254  0.8760
  737MOL0     C99424   7.427   3.844   4.594 -0.0751 -0.1929 -0.2975
  737MOL0     C99425   7.171   3.787   3.795  0.0547 -0.2830  0.3894
  737MOL0     C99426   7.097   3.723   3.692  0.1232  0.5647 -0.4589
  737MOL0     C99427   7.023   3.825   3.601  0.2498  0.5347 -0.1489
  737MOL0     H99428   6.919   3.153   3.534  2.4209 -0.1555  0.4609
  737MOL0     H99429   6.925   3.021   3.338  1.1587 -0.9636 -0.7147
  737MOL0     H99430   6.829   2.940   3.014 -1.5137 -0.4903 -0.0564
  737MOL0     H99431   6.799   2.982   3.181  1.4428  0.1137  0.7320
  737MOL0     H99432   6.678   3.182   3.121  0.1319 -2.0311  2.1605
  737MOL0     H99433   6.603   3.051   3.031 -0.4849  1.1291  0.5979
  737MOL0     H99434   6.808   3.238   2.923 -0.9865 -0.1964  1.3872
  737MOL0     H99435   6.640   3.256   2.881  1.2655  2.4637 -0.7475
  737MOL0     H99436   6.815   3.136   2.711  2.6523 -4.2166  0.7694
  737MOL0     H99437   6.821   2.997   2.811  0.8885  0.6455  0.0888
  737MOL0     H99438   6.649   2.927   2.675  2.0518  1.3148 -2.3901
  737MOL0     H99439   6.537   3.012   2.787 -1.1485 -0.3672 -1.8951
  737MOL0     H99440   6.540   3.209   2.651 -0.1056  0.0036  1.8533
  737MOL0     H99441   6.656   3.130   2.538  0.6815  0.0556  0.4456
  737MOL0     H99442   6.408   3.136   2.469 -0.7465  4.0504  3.8982
  737MOL0     H99443   6.382   3.014   2.600 -2.2048  3.4272  0.1186
  737MOL0     H99444   6.594   2.931   2.408  1.1953  1.6163  1.9256
  737MOL0     H99445   6.468   2.853   2.505 -2.5262  1.3827  0.2738
  737MOL0     H99446   6.208   2.888   2.381  0.9842  0.1746  0.6593
  737MOL0     H99447   6.034   2.968   2.182 -2.1847 -1.1451 -2.1958
  737MOL0     H99448   6.110   3.007   2.024 -2.7217 -0.3664 -0.8433
  737MOL0     H99449   6.145   2.772   1.973 -0.0458 -1.9430  0.4082
  737MOL0     H99450   6.098   2.705   2.119  0.2246  1.0604  2.6196
  737MOL0     H99451   5.859   2.818   2.067 -1.0842 -1.2794  1.1962
  737MOL0     H99452   5.920   2.670   1.986  1.8811  0.3837 -1.3632
  737MOL0     H99453   5.886   2.760   1.792 -2.7224  2.3965 -3.7113
  737MOL0     H99454   6.017   2.884   1.844 -0.3876  1.8176  1.4872
  737MOL0     H99455   5.668   3.130   1.729  0.0629 -0.8451 -1.8534
  737MOL0     H99456   5.447   3.077   1.636  0.5047  0.2148  0.9228
  737MOL0     H99457   5.032   2.909   1.712 -1.4706  1.3478 -1.8515
  737MOL0     H99458   4.813   2.873   1.593 -0.5471 -0.3275  2.4633
  737MOL0     H99459   4.645   2.558   1.616  0.0453  0.1162  0.2011
  737MOL0     H99460   4.646   2.725   1.662 -0.5554  0.6298 -0.2552
  737MOL0     H99461   4.498   2.610   1.436  0.0883 -0.6452  0.0783
  737MOL0     H99462   4.437   2.631   1.613  1.8360  3.7305  2.9060
  737MOL0     H99463   4.488   2.875   1.587  3.9217 -3.6787  0.7970
  737MOL0     H99464   4.516   2.847   1.417  0.6647 -0.4643  0.2727
  737MOL0     H99465   4.283   2.940   1.523  0.6975  0.2876  1.9701
  737MOL0     H99466   4.256   2.764   1.544  1.3994  0.2532 -0.8744
  737MOL0     H99467   4.283   2.720   1.307  1.5150  0.1694  1.5455
  737MOL0     H99468   4.314   2.891   1.269  0.1868  0.7085  1.1816
  737MOL0     H99469   4.099   2.943   1.385  3.5218  0.2810  0.8953
  737MOL0     H99470   4.095   2.868   1.221 -1.3346 -0.4273 -0.2691
  737MOL0     H99471   4.084   2.665   1.436 -0.4821 -0.5121 -0.0101
  737MOL0     H99472   4.008   2.687   1.273  2.2429  1.2770 -2.0760
  737MOL0     H99473   3.863   2.685   1.506 -0.6095  0.5032 -0.2083
  737MOL0     H99474   3.952   2.823   1.540  1.8343 -2.5970  1.1226
  737MOL0     H99475   4.940   2.490   1.468  0.8516 -1.0791  2.7886
  737MOL0     H99476   5.149   2.520   1.585 -1.3310 -0.4111  1.4271
  737MOL0     H99477   5.452   2.699   1.799 -2.5034  1.7750  1.7920
  737MOL0     H99478   5.667   2.734   1.906 -1.2796  0.3364  0.5445
  737MOL0     H99479   7.055   3.327   3.090 -3.9749 -1.8007 -1.8048
  737MOL0     H99480   7.137   3.446   3.312 -1.3744  2.3792 -1.3161
  737MOL0     H99481   7.162   3.398   3.767 -1.1121  0.3508  1.1402
  737MOL0     H99482   7.275   3.518   3.951 -2.6269  0.5610  1.6802
  737MOL0     H99483   7.183   3.714   4.148 -1.5096 -0.1693 -2.4588
  737MOL0     H99484   7.155   3.874   4.083 -1.4145  0.6756  2.6170
  737MOL0     H99485   7.382   3.944   4.169 -0.2766  0.1876  0.5670
  737MOL0     H99486   7.376   3.809   4.275 -1.4841  0.2130  0.8250
  737MOL0     H99487   7.152   4.000   4.263  1.7946  0.9191 -2.9030
  737MOL0     H99488   7.302   4.048   4.326 -2.7044  1.7932  3.3675
  737MOL0     H99489   7.153   3.986   4.497 -1.0642  1.2044 -2.5680
  737MOL0     H99490   7.153   3.815   4.445  0.0803 -0.0490 -2.6669
  737MOL0     H99491   7.504   3.808   4.660  2.3961  2.3108 -1.5802
  737MOL0     H99492   7.184   3.893   3.813 -2.1773  0.4208 -1.7002
  737MOL0     H99493   6.917   3.809   3.622  0.1438  2.4641  0.9977
  737MOL0     H99494   7.035   3.927   3.639 -1.8688  1.1217 -0.9092
  737MOL0     H99495   7.046   3.795   3.499 -0.6809 -3.2516  0.5854
  738MOL0     O99496   0.992   0.759  10.015 -0.2662 -0.4705 -0.8470
  738MOL0     C99497   0.933   0.836   9.944  0.5620 -0.1484  0.9355
  738MOL0     O99498   0.960   0.850   9.808  0.7576 -0.1365  0.5753
  738MOL0     C99499   1.067   0.783   9.749 -0.6315 -0.2023 -0.2549
  738MOL0     C99500   1.079   0.644   9.751 -1.5794  0.4959 -0.5851
  738MOL0     C99501   1.199   0.594   9.705  0.8518  0.0203  0.1310
  738MOL0     C99502   1.317   0.666   9.687  0.5608 -0.5998  0.6647
  738MOL0     O99503   1.439   0.597   9.652  0.9019  0.2393 -0.4259
  738MOL0     C99504   1.544   0.661   9.581  0.4712  0.5727  1.0484
  738MOL0     C99505   1.679   0.588   9.605  0.0423  0.2194  0.4823
  738MOL0     C99506   1.809   0.661   9.588 -0.3533 -0.3021 -0.4645
  738MOL0     C99507   1.853   0.663   9.445  0.4180 -0.2176  0.4373
  738MOL0     C99508   1.959   0.772   9.426 -0.7161 -0.2119  0.3355
  738MOL0     C99509   2.028   0.761   9.303  0.5443  0.6451 -0.8781
  738MOL0     C99510   2.129   0.641   9.299  0.1930 -0.8251  0.6917
  738MOL0     C99511   2.168   0.630   9.146 -0.7839 -0.2953 -0.0938
  738MOL0     N99512   2.056   0.594   9.061 -0.3825 -0.8331  0.6997
  738MOL0     C99513   2.043   0.636   8.931 -0.0396  0.1903 -0.4842
  738MOL0     C99514   1.939   0.572   8.877  0.8932  0.0089  0.3136
  738MOL0     C99515   1.852   0.617   8.761  0.2447  1.1909 -0.5201
  738MOL0     C99516   1.937   0.683   8.651 -0.3840 -0.4931 -0.3955
  738MOL0     C99517   1.848   0.682   8.522  0.2445 -0.0514  0.3701
  738MOL0     C99518   1.926   0.761   8.410  0.2661 -0.1329 -0.3970
  738MOL0     O99519   2.052   0.704   8.395 -0.6277 -0.3453  0.1444
  738MOL0     C99520   2.121   0.771   8.289  0.1427  0.6671  0.8192
  738MOL0     C99521   2.150   0.700   8.175 -0.1929  0.8026  0.5398
  738MOL0     C99522   2.203   0.765   8.064 -0.1417  0.5689  0.6257
  738MOL0     C99523   2.232   0.904   8.058 -0.5812  0.5042 -0.4306
  738MOL0     C99524   2.285   0.975   7.942  0.1740 -1.1713 -0.9752
  738MOL0     O99525   2.308   1.105   7.963 -0.6385 -0.1152  1.1322
  738MOL0     C99526   2.346   1.185   7.852  0.1724 -0.7495 -0.6893
  738MOL0     C99527   2.451   1.269   7.868  0.1770 -1.0632  0.3157
  738MOL0     C99528   2.483   1.360   7.766 -0.0650 -0.1919 -0.9164
  738MOL0     C99529   2.403   1.378   7.665  0.1251  0.5224  0.4563
  738MOL0     O99530   2.432   1.478   7.569  0.6491  0.2985 -0.1333
  738MOL0     C99531   2.518   1.583   7.608 -0.0918  0.2582 -0.1597
  738MOL0     C99532   2.501   1.693   7.504 -0.1433 -0.6569  0.1620
  738MOL0     C99533   2.559   1.659   7.362  0.5598 -1.3306  0.5982
  738MOL0     C99534   2.602   1.786   7.275 -0.6525  1.1614  0.4119
  738MOL0     C99535   2.699   1.756   7.162 -0.5336  0.2504  1.4682
  738MOL0     C99536   2.844   1.781   7.179  0.2628  0.4526  0.7809
  738MOL0     C99537   2.911   1.716   7.309 -0.0345  0.4297 -0.7193
  738MOL0     C99538   3.059   1.731   7.302 -0.4601 -0.4626  0.5382
  738MOL0    Cl99539   3.127   1.735   7.472 -0.1077 -0.2623 -0.1372
  738MOL0     C99540   2.295   1.289   7.640 -0.0019 -0.4178 -0.3769
  738MOL0     C99541   2.260   1.187   7.738  0.2514 -1.2226  0.6375
  738MOL0     O99542   2.315   0.919   7.838 -0.4624  0.4690 -0.2739
  738MOL0     C99543   2.207   0.974   8.182 -1.0560  0.1439  0.5437
  738MOL0     C99544   2.151   0.903   8.295 -0.0497  0.2114  0.4163
  738MOL0     N99545   1.880   0.502   8.983  0.2492  0.8893  0.1047
  738MOL0     N99546   1.964   0.497   9.084  0.2237 -0.4308 -1.1293
  738MOL0     C99547   1.301   0.805   9.695 -0.3884 -0.0361  0.7175
  738MOL0     C99548   1.177   0.865   9.721  1.0956  0.5432 -1.0784
  738MOL0     C99549   0.813   0.912   9.995  0.0992 -0.2960 -1.1357
  738MOL0     C99550   0.719   0.953   9.902  0.4026  0.2281  0.7964
  738MOL0     C99551   0.595   1.013   9.941 -0.5693 -0.4261  0.2978
  738MOL0     C99552   0.565   1.022  10.079 -0.8466  0.7041 -0.5103
  738MOL0     O99553   0.447   1.091  10.120 -0.5753  0.6530  0.5270
  738MOL0     C99554   0.341   1.122  10.026 -0.6148  0.4391 -0.2115
  738MOL0     C99555   0.204   1.125  10.092 -0.4224 -0.0038 -0.1125
  738MOL0     C99556   0.172   0.991  10.148  0.0110 -0.2607 -0.9150
  738MOL0     C99557   0.014   0.972  10.133 -0.5504  1.0465 -0.4171
  738MOL0     C99558  -0.029   0.856  10.206 -0.3436  0.3622  0.0697
  738MOL0     C99559  -0.063   0.747  10.240 -0.6257 -0.2880 -0.1612
  738MOL0     C99560   0.652   0.963  10.171 -0.4214  0.9365  0.2231
  738MOL0     C99561   0.781   0.922  10.133  0.3785  0.5919 -0.5612
  738MOL0     C99562   0.886   0.887  10.239  0.2183 -0.7257 -0.1998
  738MOL0     H99563   0.996   0.580   9.781 -1.2863  0.8874  1.1537
  738MOL0     H99564   1.214   0.487   9.715  1.2816  0.0996  0.3794
  738MOL0     H99565   1.509   0.669   9.478 -1.4899  3.4345  1.8048
  738MOL0     H99566   1.544   0.763   9.621  3.8654  0.6897  0.9998
  738MOL0     H99567   1.673   0.502   9.537 -1.2095 -1.6210  2.7574
  738MOL0     H99568   1.685   0.552   9.708 -0.5686  3.0796  1.6227
  738MOL0     H99569   1.888   0.616   9.650  1.5242  2.8964 -0.3262
  738MOL0     H99570   1.809   0.762   9.630 -1.7562 -0.6814  0.5270
  738MOL0     H99571   1.889   0.568   9.404  2.1669  1.3977 -2.0478
  738MOL0     H99572   1.764   0.692   9.387  1.9290 -0.2705 -2.0909
  738MOL0     H99573   1.911   0.867   9.450  0.1928 -0.1661  2.1549
  738MOL0     H99574   2.038   0.755   9.500 -1.5680 -1.0907  1.0822
  738MOL0     H99575   1.956   0.767   9.221 -1.2025 -0.1706  0.5235
  738MOL0     H99576   2.094   0.848   9.288  1.6099  0.1126  0.5105
  738MOL0     H99577   2.098   0.539   9.323  2.3526 -1.6009  0.4096
  738MOL0     H99578   2.215   0.669   9.361  0.0638 -1.1574  1.0307
  738MOL0     H99579   2.217   0.726   9.128 -0.1277 -0.0879  2.3978
  738MOL0     H99580   2.243   0.550   9.145  0.0882  0.3828  2.5125
  738MOL0     H99581   2.082   0.720   8.875 -0.0157 -0.6519 -1.7716
  738MOL0     H99582   1.802   0.527   8.726 -2.4063  1.1192  2.9563
  738MOL0     H99583   1.767   0.676   8.798 -0.5115  0.0599 -0.4238
  738MOL0     H99584   1.948   0.790   8.671 -0.6007 -0.5222 -0.1011
  738MOL0     H99585   2.031   0.629   8.644 -0.3778 -0.4441 -0.7073
  738MOL0     H99586   1.747   0.719   8.541 -0.7399 -1.2170 -2.1113
  738MOL0     H99587   1.834   0.578   8.489  0.8631  0.1578 -0.6086
  738MOL0     H99588   1.943   0.864   8.442  1.0363 -0.4592  0.2638
  738MOL0     H99589   1.864   0.760   8.320 -1.1180 -0.4152  0.5315
  738MOL0     H99590   2.117   0.597   8.169  1.2679  0.3926 -0.9567
  738MOL0     H99591   2.223   0.699   7.980 -0.9093  0.1198  0.7822
  738MOL0     H99592   2.523   1.253   7.948  0.5493 -1.2405 -0.0518
  738MOL0     H99593   2.569   1.425   7.774 -0.3379  0.3979 -2.4842
  738MOL0     H99594   2.495   1.625   7.706  1.3380  0.0920  0.2608
  738MOL0     H99595   2.620   1.546   7.604 -0.1029 -0.8724  4.4485
  738MOL0     H99596   2.393   1.710   7.503 -0.2443 -0.6451 -3.8042
  738MOL0     H99597   2.558   1.780   7.538  3.3360 -2.7073  0.0492
  738MOL0     H99598   2.642   1.589   7.380  0.3107 -1.1208  2.8155
  738MOL0     H99599   2.488   1.616   7.291  0.8119  1.3626 -1.4541
  738MOL0     H99600   2.650   1.858   7.343 -0.1550  1.5485 -0.3317
  738MOL0     H99601   2.508   1.836   7.250 -1.6161  0.0353  1.6786
  738MOL0     H99602   2.670   1.816   7.075  1.1640 -1.2209 -0.2164
  738MOL0     H99603   2.683   1.655   7.124  2.2345  0.2259  0.0855
  738MOL0     H99604   2.882   1.725   7.093 -3.0759  1.1685 -1.3473
  738MOL0     H99605   2.862   1.888   7.166  2.7443 -0.0314 -0.3767
  738MOL0     H99606   2.894   1.608   7.317 -0.9435  0.6158  0.1250
  738MOL0     H99607   2.866   1.768   7.394 -1.0454 -0.4394 -0.6940
  738MOL0     H99608   3.087   1.639   7.250 -1.3058  0.1159 -1.0206
  738MOL0     H99609   3.087   1.821   7.246  2.2001 -1.0383  0.8454
  738MOL0     H99610   2.244   1.299   7.545  1.4304 -0.2119 -1.1425
  738MOL0     H99611   2.180   1.118   7.714  1.2592 -2.4480  0.6640
  738MOL0     H99612   2.216   1.082   8.175  2.6880 -0.1368 -1.0976
  738MOL0     H99613   2.122   0.956   8.385 -2.1333  0.2149 -0.1931
  738MOL0     H99614   1.378   0.878   9.669 -0.5455  0.0362  0.4506
  738MOL0     H99615   1.173   0.973   9.729 -3.6144  0.4361  1.8053
  738MOL0     H99616   0.720   0.939   9.794 -3.1547 -1.5103  0.8411
  738MOL0     H99617   0.527   1.052   9.865 -0.2760 -2.0907 -0.8673
  738MOL0     H99618   0.340   1.047   9.946 -0.9735  2.3029 -2.0611
  738MOL0     H99619   0.381   1.209   9.973  4.3543 -2.8302 -2.6503
  738MOL0     H99620   0.143   1.160  10.009  1.5254  1.4288 -1.0091
  738MOL0     H99621   0.198   1.204  10.168  0.7679  0.9647 -1.0048
  738MOL0     H99622   0.193   0.995  10.255  1.6787 -4.6466 -0.8903
  738MOL0     H99623   0.222   0.917  10.085  1.3463  0.0343 -0.2284
  738MOL0     H99624  -0.034   1.057  10.183 -0.9432  0.0166  1.0312
  738MOL0     H99625  -0.023   0.961  10.031 -2.7045 -0.4899  0.4684
  738MOL0     H99626  -0.091   0.654  10.287 -0.8101 -1.2016 -1.9731
  738MOL0     H99627   0.625   0.961  10.276  0.1431  1.2477  0.3793
  738MOL0     H99628   0.863   0.940  10.332 -0.9355  0.1680 -0.9583
  738MOL0     H99629   0.897   0.781  10.262  1.5676 -0.9539 -1.6929
  738MOL0     H99630   0.987   0.913  10.206 -0.4571  0.9756 -1.0584
  739MOL0     O99631   9.490   1.347   6.221  0.6536  0.1593  0.4585
  739MOL0     C99632   9.497   1.468   6.239  0.8381 -0.6096  0.5601
  739MOL0     O99633   9.611   1.550   6.227  0.3373  0.5756 -0.1909
  739MOL0     C99634   9.723   1.483   6.208 -1.0759 -1.1702 -0.3479
  739MOL0     C99635   9.791   1.503   6.096  0.5076 -0.4170  0.8627
  739MOL0     C99636   9.897   1.423   6.061  0.4442 -0.4242  0.5395
  739MOL0     C99637   9.953   1.345   6.157 -0.0111 -0.5235 -0.0514
  739MOL0     O99638  10.053   1.262   6.109  0.1570 -0.2196  0.8310
  739MOL0     C99639  10.162   1.236   6.195 -0.3109  0.4843 -1.2861
  739MOL0     C99640  10.243   1.144   6.111  0.0005 -0.3333 -0.3759
  739MOL0     C99641  10.305   1.217   5.987  1.0622  0.5233  0.9020
  739MOL0     C99642  10.399   1.340   5.993  0.5865 -0.2355  0.4618
  739MOL0     C99643  10.416   1.388   5.845  0.0304 -0.2929 -0.2823
  739MOL0     C99644  10.512   1.506   5.841 -0.2051  0.5562 -0.2036
  739MOL0     C99645  10.543   1.557   5.702 -0.2763  0.3667 -0.5779
  739MOL0     C99646  10.434   1.659   5.662  0.2299 -1.1824 -0.3020
  739MOL0     N99647  10.464   1.710   5.521  0.5800  0.5534 -0.9563
  739MOL0     C99648  10.428   1.666   5.397  0.6503 -0.5160 -0.1050
  739MOL0     C99649  10.458   1.760   5.308  0.5095 -0.2590 -0.6764
  739MOL0     C99650  10.419   1.761   5.157 -0.1971  0.3225 -0.6841
  739MOL0     C99651  10.505   1.662   5.077 -0.1753  0.3533  0.3192
  739MOL0     C99652  10.521   1.687   4.921  0.1217  0.6485  0.6598
  739MOL0     C99653  10.406   1.647   4.837  0.3067  0.5679  0.3008
  739MOL0     O99654  10.284   1.735   4.858  0.4708 -0.1314  0.2055
  739MOL0     C99655  10.275   1.863   4.797 -0.2167 -0.4014  0.4452
  739MOL0     C99656  10.383   1.915   4.714  0.0245 -0.5446 -0.2757
  739MOL0     C99657  10.364   2.046   4.661 -0.0312  0.4006 -0.7874
  739MOL0     C99658  10.246   2.123   4.681  0.7349 -1.2512 -0.1423
  739MOL0     C99659  10.248   2.262   4.633 -0.3551 -0.1506 -0.0727
  739MOL0     O99660  10.344   2.312   4.545 -0.0648 -0.3877  0.0230
  739MOL0     C99661  10.327   2.426   4.467  1.3478  0.4588 -0.5179
  739MOL0     C99662  10.329   2.552   4.520 -0.1053  0.0213  0.2632
  739MOL0     C99663  10.314   2.663   4.433 -0.2830  0.9580 -0.8028
  739MOL0     C99664  10.284   2.649   4.298  0.2649  0.1562 -0.6877
  739MOL0     O99665  10.286   2.761   4.223 -0.0343 -0.3176 -0.4436
  739MOL0     C99666  10.177   2.777   4.130  0.4052  0.7454  0.1322
  739MOL0     C99667  10.204   2.876   4.014 -0.0837  0.2275 -0.7136
  739MOL0     C99668  10.268   3.000   4.069  0.9863 -0.1960  0.8612
  739MOL0     C99669  10.320   3.113   3.972 -0.4473 -0.6951  0.1908
  739MOL0     C99670  10.369   3.233   4.056 -1.1949  0.0485  0.8409
  739MOL0     C99671  10.252   3.316   4.100  0.4657 -0.7445  0.7662
  739MOL0     C99672  10.292   3.452   4.164 -0.4397 -0.2816 -0.6831
  739MOL0     C99673  10.379   3.551   4.073  0.0517  0.6622 -0.8926
  739MOL0    Cl99674  10.296   3.589   3.928  0.2285  0.5581 -0.0598
  739MOL0     C99675  10.263   2.522   4.259 -0.4040 -0.6360  0.6755
  739MOL0     C99676  10.281   2.411   4.336 -0.4081  0.7958 -0.0748
  739MOL0     O99677  10.140   2.316   4.658  0.0303  0.1555  0.7061
  739MOL0     C99678  10.139   2.063   4.751  0.2491 -0.3581  0.4606
  739MOL0     C99679  10.154   1.936   4.807 -0.4375 -0.0958  0.1361
  739MOL0     N99680  10.514   1.860   5.385  0.0139 -0.1399 -0.1000
  739MOL0     N99681  10.518   1.830   5.508  0.3387 -0.2642 -0.1547
  739MOL0     C99682   9.893   1.329   6.284  0.6932  0.5998 -0.3479
  739MOL0     C99683   9.788   1.413   6.309 -0.3088  0.3091  0.5982
  739MOL0     C99684   9.381   1.536   6.296  0.1779  0.6732 -0.3796
  739MOL0     C99685   9.262   1.473   6.292  0.1147 -0.4894  0.6193
  739MOL0     C99686   9.141   1.524   6.356 -0.4964 -0.1408  0.1675
  739MOL0     C99687   9.157   1.639   6.432  0.3793  0.0132  0.6167
  739MOL0     O99688   9.058   1.689   6.516 -0.4832  0.4644  0.0902
  739MOL0     C99689   8.940   1.609   6.538  1.0243  0.6028 -0.4995
  739MOL0     C99690   8.847   1.695   6.634 -0.2049 -0.1969 -0.0538
  739MOL0     C99691   8.727   1.605   6.671  0.6193  0.4425  0.1044
  739MOL0     C99692   8.619   1.694   6.737  0.3156  0.0998 -1.3348
  739MOL0     C99693   8.539   1.625   6.843 -0.6507 -0.4055  0.3428
  739MOL0     C99694   8.490   1.563   6.931 -0.2829 -0.1504 -0.0724
  739MOL0     C99695   9.278   1.697   6.458  1.0255 -0.2380  0.5787
  739MOL0     C99696   9.394   1.654   6.381  0.0733 -0.2607  0.1528
  739MOL0     C99697   9.524   1.718   6.418 -0.4403 -1.2426  0.1593
  739MOL0     H99698   9.762   1.574   6.019  2.6307 -0.8073 -0.3741
  739MOL0     H99699   9.930   1.438   5.958 -3.4780  0.1564 -0.7970
  739MOL0     H99700  10.218   1.325   6.222 -1.1603  1.4436 -2.5913
  739MOL0     H99701  10.119   1.180   6.280 -4.4107  2.6337 -1.6786
  739MOL0     H99702  10.190   1.056   6.074  0.2775 -0.6326 -0.0581
  739MOL0     H99703  10.326   1.111   6.173 -0.6438 -3.7447 -1.1358
  739MOL0     H99704  10.221   1.248   5.925  1.3598  0.1119  0.2769
  739MOL0     H99705  10.367   1.144   5.934 -1.9860 -2.3671  0.9983
  739MOL0     H99706  10.354   1.415   6.058 -3.5963 -1.0727 -1.1573
  739MOL0     H99707  10.493   1.311   6.039  1.5070  2.0127  0.1258
  739MOL0     H99708  10.462   1.300   5.799  0.7296 -0.5995  0.9580
  739MOL0     H99709  10.331   1.413   5.782  1.1250  0.6453 -1.4584
  739MOL0     H99710  10.490   1.579   5.919  0.1949 -0.3123  0.7518
  739MOL0     H99711  10.610   1.467   5.868  0.3222  0.7032 -1.8088
  739MOL0     H99712  10.556   1.475   5.630  0.8126 -0.2940  0.3461
  739MOL0     H99713  10.637   1.614   5.699 -1.4263  2.3359 -2.5597
  739MOL0     H99714  10.331   1.622   5.668 -0.0844 -0.0758  3.1263
  739MOL0     H99715  10.432   1.743   5.732 -0.5976  0.0602 -1.7376
  739MOL0     H99716  10.355   1.595   5.361 -0.5508  1.5364 -1.9792
  739MOL0     H99717  10.312   1.754   5.139 -0.3287  1.2379 -0.2675
  739MOL0     H99718  10.439   1.863   5.122  3.3201  0.0325  0.0446
  739MOL0     H99719  10.607   1.667   5.116  0.8757  1.0023 -2.3130
  739MOL0     H99720  10.462   1.562   5.093 -0.7497  0.5916  0.3026
  739MOL0     H99721  10.594   1.618   4.880  1.0610  2.4406 -0.8526
  739MOL0     H99722  10.550   1.792   4.904  0.4772  0.7613  1.8432
  739MOL0     H99723  10.375   1.549   4.872 -0.4767  0.7183  0.0355
  739MOL0     H99724  10.433   1.653   4.732  1.7861 -4.6304  0.1212
  739MOL0     H99725  10.467   1.849   4.699 -0.4791 -1.8944  2.3063
  739MOL0     H99726  10.440   2.095   4.600 -2.4820  2.8640 -2.0543
  739MOL0     H99727  10.352   2.573   4.624 -0.9477 -0.2314  0.5086
  739MOL0     H99728  10.335   2.765   4.462 -0.1192  0.4678  0.9022
  739MOL0     H99729  10.139   2.683   4.087 -0.2782  0.4693  1.3094
  739MOL0     H99730  10.107   2.820   4.202  0.7211 -0.8982  1.5041
  739MOL0     H99731  10.264   2.838   3.931 -2.5572 -4.6911 -0.6356
  739MOL0     H99732  10.106   2.902   3.972 -1.0873 -0.2618  1.1996
  739MOL0     H99733  10.197   3.043   4.140 -0.6547 -2.2160  0.5692
  739MOL0     H99734  10.354   2.973   4.130  1.9281  5.4104  2.5281
  739MOL0     H99735  10.242   3.130   3.897  1.4755 -1.4554 -2.1119
  739MOL0     H99736  10.403   3.068   3.917  1.0851  1.0951  0.9195
  739MOL0     H99737  10.433   3.291   3.988 -0.7546 -1.4876 -0.1077
  739MOL0     H99738  10.442   3.201   4.130  0.8331 -4.3042 -2.6097
  739MOL0     H99739  10.190   3.344   4.015  1.2151 -1.5585 -0.0735
  739MOL0     H99740  10.189   3.267   4.174  2.8033 -3.2405  1.2778
  739MOL0     H99741  10.345   3.439   4.259  2.9914  2.1611 -2.0702
  739MOL0     H99742  10.201   3.505   4.192 -0.4326 -0.1181 -0.9622
  739MOL0     H99743  10.393   3.646   4.124 -2.1084  0.2800  0.5913
  739MOL0     H99744  10.477   3.505   4.062  0.3196  1.6248 -2.7115
  739MOL0     H99745  10.240   2.506   4.154  0.8901  4.0605 -0.5658
  739MOL0     H99746  10.255   2.317   4.289 -1.4282  0.8268  0.4027
  739MOL0     H99747  10.049   2.114   4.786  0.5781  1.6396 -1.3335
  739MOL0     H99748  10.068   1.881   4.845  0.5566 -1.7058  0.1669
  739MOL0     H99749   9.921   1.258   6.361 -1.9545 -1.8102 -1.4287
  739MOL0     H99750   9.741   1.396   6.405 -0.7772 -1.1706  0.1317
  739MOL0     H99751   9.254   1.378   6.241  0.6103  0.7286 -1.9039
  739MOL0     H99752   9.046   1.473   6.349 -1.1309  1.0370 -0.0751
  739MOL0     H99753   8.966   1.515   6.588  2.0939  0.6697 -0.8840
  739MOL0     H99754   8.881   1.596   6.447  0.8004 -1.1249 -0.1317
  739MOL0     H99755   8.818   1.790   6.587 -1.0202  0.1182  1.0369
  739MOL0     H99756   8.904   1.709   6.726 -0.4488  3.4233 -0.3033
  739MOL0     H99757   8.751   1.516   6.729 -1.4828 -2.6790 -3.3303
  739MOL0     H99758   8.689   1.555   6.581 -1.6630 -1.3020  1.8830
  739MOL0     H99759   8.663   1.776   6.794 -1.3980 -0.6928  1.2860
  739MOL0     H99760   8.548   1.734   6.664 -1.5656 -1.1401 -0.2514
  739MOL0     H99761   8.434   1.495   6.992  0.4427  0.3661  1.2334
  739MOL0     H99762   9.282   1.779   6.528  0.0507  0.5874 -0.2880
  739MOL0     H99763   9.511   1.811   6.474  0.3624  0.4092 -2.2025
  739MOL0     H99764   9.588   1.645   6.468  0.8887 -0.0904  0.2119
  739MOL0     H99765   9.565   1.760   6.325  1.2962 -1.1245  0.9247
  740MOL0     O99766   5.005   3.896   5.174 -0.0583 -0.0934  0.0598
  740MOL0     C99767   5.037   3.777   5.161  0.5712  0.3045  0.5310
  740MOL0     O99768   5.097   3.698   5.258 -0.2109 -0.0154 -0.0537
  740MOL0     C99769   5.115   3.733   5.385 -0.4088  0.2568  0.1567
  740MOL0     C99770   5.023   3.822   5.455  0.0855 -0.5810 -0.9984
  740MOL0     C99771   5.040   3.860   5.589  0.1832 -0.4684 -0.3044
  740MOL0     C99772   5.140   3.800   5.663  1.0199 -0.0609 -0.4296
  740MOL0     O99773   5.147   3.846   5.789 -0.6690 -0.3335 -0.4980
  740MOL0     C99774   5.274   3.915   5.804  0.6929 -0.3166  0.2817
  740MOL0     C99775   5.249   4.043   5.882 -0.0598  1.4745  0.5169
  740MOL0     C99776   5.164   4.155   5.805  0.0114  0.9954  0.8964
  740MOL0     C99777   5.147   4.276   5.898  0.9540  0.7173  0.0895
  740MOL0     C99778   5.021   4.369   5.867 -0.0201  0.6742  0.7812
  740MOL0     C99779   4.998   4.475   5.965  0.2527 -0.4519  0.1086
  740MOL0     C99780   4.875   4.553   5.924 -0.5639  0.6978 -0.2400
  740MOL0     C99781   4.747   4.473   5.948  0.0223  0.8953  0.2598
  740MOL0     N99782   4.633   4.568   5.933 -0.4611 -1.2453 -0.0323
  740MOL0     C99783   4.588   4.636   6.048  0.3269  0.0391 -0.0360
  740MOL0     C99784   4.492   4.717   5.993 -0.0165  0.6697  0.1848
  740MOL0     C99785   4.399   4.814   6.047 -0.1294 -0.6137 -0.2265
  740MOL0     C99786   4.429   4.860   6.185 -0.5869  0.2862 -0.3154
  740MOL0     C99787   4.364   4.765   6.283  0.0697 -0.7279  0.5098
  740MOL0     C99788   4.384   4.812   6.434 -0.1227  0.5785 -1.0247
  740MOL0     O99789   4.360   4.690   6.515  0.6566 -0.9029  0.3624
  740MOL0     C99790   4.343   4.706   6.651 -0.5220  0.4780 -0.7717
  740MOL0     C99791   4.267   4.607   6.722  0.1440  0.3223  1.2252
  740MOL0     C99792   4.256   4.613   6.859 -0.1731 -0.2476 -0.0084
  740MOL0     C99793   4.311   4.722   6.933 -0.0709 -0.1166 -1.0410
  740MOL0     C99794   4.295   4.718   7.087 -0.6061  0.0796 -0.6643
  740MOL0     O99795   4.282   4.596   7.146 -0.5670 -0.4163 -0.3224
  740MOL0     C99796   4.293   4.580   7.279 -0.3566 -0.4168 -0.4240
  740MOL0     C99797   4.197   4.516   7.349  0.0076 -0.7992  0.3790
  740MOL0     C99798   4.211   4.478   7.477 -0.8127 -0.5400 -1.1959
  740MOL0     C99799   4.323   4.518   7.549 -0.7234  0.0681 -0.0626
  740MOL0     O99800   4.351   4.496   7.679 -0.5264 -0.0459  0.6064
  740MOL0     C99801   4.270   4.423   7.759  0.2931  0.8427 -0.0684
  740MOL0     C99802   4.323   4.397   7.901  0.3542  0.7407  0.0936
  740MOL0     C99803   4.387   4.519   7.960  0.1613  0.5819 -0.0918
  740MOL0     C99804   4.374   4.511   8.110  0.7078  0.4963 -0.2312
  740MOL0     C99805   4.483   4.595   8.177  0.3780 -0.4992  0.2314
  740MOL0     C99806   4.462   4.599   8.331 -0.1342 -0.0317  0.1743
  740MOL0     C99807   4.487   4.463   8.412 -0.6199 -0.5362  0.1647
  740MOL0     C99808   4.460   4.477   8.560  0.3941  1.0588  0.1063
  740MOL0    Cl99809   4.550   4.604   8.642 -0.1841 -0.6050  0.4234
  740MOL0     C99810   4.427   4.593   7.487 -0.1711 -0.2357 -0.3909
  740MOL0     C99811   4.409   4.620   7.348  0.1267  0.4363  0.1971
  740MOL0     O99812   4.289   4.825   7.147  0.2936  0.6896  0.3614
  740MOL0     C99813   4.380   4.819   6.856  0.5170  0.7149 -1.0163
  740MOL0     C99814   4.395   4.814   6.721 -0.2551 -0.5974 -0.0293
  740MOL0     N99815   4.486   4.700   5.852  0.1145 -0.4217 -0.7024
  740MOL0     N99816   4.576   4.609   5.818  0.4324  0.1570  0.1781
  740MOL0     C99817   5.230   3.710   5.600 -1.1414 -0.9351  0.1612
  740MOL0     C99818   5.213   3.680   5.464  0.5499  0.1291 -0.1371
  740MOL0     C99819   5.004   3.714   5.029  0.8380 -0.0776 -0.5970
  740MOL0     C99820   5.045   3.772   4.917 -0.0594 -0.0452  0.1756
  740MOL0     C99821   5.050   3.715   4.793  0.3063  0.7184 -0.6066
  740MOL0     C99822   5.005   3.583   4.795 -0.2589 -0.0979  0.5700
  740MOL0     O99823   5.012   3.516   4.675  0.0869  0.8400 -0.9245
  740MOL0     C99824   4.891   3.477   4.609  0.3292 -0.4438 -0.0654
  740MOL0     C99825   4.909   3.424   4.473 -0.4907 -0.4438  1.3143
  740MOL0     C99826   4.975   3.526   4.377  1.3775 -0.0037  0.8483
  740MOL0     C99827   4.977   3.477   4.225  0.3752  0.5221 -0.2927
  740MOL0     C99828   5.113   3.419   4.186  0.4875 -0.2626 -0.3354
  740MOL0     C99829   5.221   3.364   4.153  0.0967 -0.2006 -0.2778
  740MOL0     C99830   4.968   3.515   4.910  0.1810  0.2543  0.6647
  740MOL0     C99831   4.955   3.582   5.031  1.1032  0.5648  0.3342
  740MOL0     C99832   4.890   3.516   5.153 -0.0142 -0.7078  0.6110
  740MOL0     H99833   4.937   3.869   5.409 -0.4793  1.6212  2.0310
  740MOL0     H99834   4.954   3.916   5.625  0.9371 -0.2980  1.3500
  740MOL0     H99835   5.332   3.849   5.869 -0.6659 -2.1125 -0.2568
  740MOL0     H99836   5.330   3.929   5.711 -2.5210 -2.1054 -2.1426
  740MOL0     H99837   5.344   4.092   5.908  1.8272 -2.1648  1.1989
  740MOL0     H99838   5.199   4.011   5.974 -1.3379 -0.8208 -0.8803
  740MOL0     H99839   5.065   4.111   5.788  0.9144 -1.5346  1.7350
  740MOL0     H99840   5.209   4.178   5.708  2.3416  0.5914  1.8176
  740MOL0     H99841   5.151   4.231   5.998 -0.2898  0.5727  0.0925
  740MOL0     H99842   5.236   4.339   5.889  1.9836 -0.8219 -1.0384
  740MOL0     H99843   5.054   4.433   5.784 -0.0481 -0.5339 -0.1931
  740MOL0     H99844   4.932   4.311   5.840 -0.2992  1.6384 -0.4673
  740MOL0     H99845   4.987   4.435   6.066 -0.0080  1.0451  0.6945
  740MOL0     H99846   5.081   4.546   5.971 -0.4270  0.8280 -3.2482
  740MOL0     H99847   4.884   4.588   5.820 -0.9112 -0.0716 -0.5341
  740MOL0     H99848   4.868   4.641   5.989  1.2711  0.3269  0.4955
  740MOL0     H99849   4.752   4.393   5.875 -1.8984  1.0235 -0.0584
  740MOL0     H99850   4.730   4.419   6.041  3.3877  1.7819  1.5379
  740MOL0     H99851   4.598   4.617   6.154 -2.3252 -0.1673  0.2511
  740MOL0     H99852   4.395   4.902   5.982 -1.8109  1.8353  2.9376
  740MOL0     H99853   4.296   4.780   6.041 -0.2583 -0.1684 -0.6453
  740MOL0     H99854   4.534   4.885   6.207 -0.9474  0.0957  1.9036
  740MOL0     H99855   4.371   4.953   6.189 -3.3238 -1.3197 -0.0755
  740MOL0     H99856   4.409   4.667   6.268  1.7564  0.1066 -0.1157
  740MOL0     H99857   4.255   4.759   6.272 -0.3996  2.3241  2.2436
  740MOL0     H99858   4.310   4.893   6.437  1.1843  1.8093 -1.0670
  740MOL0     H99859   4.473   4.872   6.455 -1.0849  1.3131  1.3049
  740MOL0     H99860   4.234   4.515   6.675 -1.4399  1.7208 -0.5025
  740MOL0     H99861   4.204   4.540   6.919  0.0293  0.1439  0.6512
  740MOL0     H99862   4.103   4.487   7.302 -0.0856 -1.5914  1.0459
  740MOL0     H99863   4.133   4.424   7.528 -0.3664 -1.6785 -1.6924
  740MOL0     H99864   4.180   4.483   7.768 -0.5432 -0.3383 -0.3392
  740MOL0     H99865   4.238   4.326   7.720  0.9084 -0.2857  2.0653
  740MOL0     H99866   4.239   4.375   7.967  3.3127 -2.5668  3.1433
  740MOL0     H99867   4.386   4.308   7.894  2.7935  2.3945 -0.2315
  740MOL0     H99868   4.494   4.519   7.934  0.0324  1.4662 -0.6842
  740MOL0     H99869   4.351   4.616   7.924 -0.7846  0.2978  0.0747
  740MOL0     H99870   4.385   4.412   8.153 -0.1701 -0.5553 -2.2562
  740MOL0     H99871   4.271   4.538   8.135 -0.3982 -0.8022 -2.9071
  740MOL0     H99872   4.490   4.699   8.146  0.5359  0.0417  1.9469
  740MOL0     H99873   4.581   4.550   8.157  0.3264 -0.0969 -0.9339
  740MOL0     H99874   4.520   4.679   8.377 -0.9955  0.7704 -0.1014
  740MOL0     H99875   4.356   4.622   8.344  0.1640  1.5246 -0.0708
  740MOL0     H99876   4.595   4.448   8.409 -0.3546  1.2736 -0.9325
  740MOL0     H99877   4.426   4.381   8.373  1.5549 -0.7040 -3.4114
  740MOL0     H99878   4.352   4.493   8.567  0.2719  0.0401  0.8132
  740MOL0     H99879   4.466   4.383   8.616 -3.2096  0.4178 -0.3723
  740MOL0     H99880   4.522   4.620   7.532 -1.7173  3.1209  1.1881
  740MOL0     H99881   4.487   4.672   7.295 -0.7118  0.2965 -1.2405
  740MOL0     H99882   4.424   4.893   6.922  1.4264 -1.4388  0.9625
  740MOL0     H99883   4.437   4.899   6.669 -0.6206 -0.9251 -0.8683
  740MOL0     H99884   5.320   3.678   5.653  2.0904 -0.6948 -4.5516
  740MOL0     H99885   5.285   3.613   5.416 -0.0247  0.7357 -1.9330
  740MOL0     H99886   5.087   3.872   4.914  2.9635 -1.1965 -2.9414
  740MOL0     H99887   5.098   3.753   4.703 -1.0500  0.1806 -1.5866
  740MOL0     H99888   4.824   3.563   4.606  0.8929 -0.0111 -0.2999
  740MOL0     H99889   4.840   3.403   4.672 -1.1860  0.0708 -0.6227
  740MOL0     H99890   4.807   3.425   4.434 -0.5225  1.0431  1.3579
  740MOL0     H99891   4.972   3.335   4.463  4.9616  3.1061 -1.2143
  740MOL0     H99892   5.071   3.539   4.428  0.7969  0.5242  1.8376
  740MOL0     H99893   4.917   3.619   4.383  0.8554 -0.3739  1.7419
  740MOL0     H99894   4.917   3.388   4.205 -0.8889  1.3174 -0.1599
  740MOL0     H99895   4.963   3.552   4.147  0.8266 -2.1435 -3.1120
  740MOL0     H99896   5.314   3.320   4.124  0.0063 -0.8428  0.3611
  740MOL0     H99897   4.939   3.411   4.899 -2.2344  0.9956 -0.6664
  740MOL0     H99898   4.791   3.475   5.129 -0.2389 -0.7131  1.5195
  740MOL0     H99899   4.966   3.440   5.176  1.9886  1.2500  0.7480
  740MOL0     H99900   4.887   3.589   5.234  0.4752 -1.2627  1.1441
  741MOL0     O99901   6.626   4.886   7.668  0.5482 -0.3348  0.9371
  741MOL0     C99902   6.624   4.987   7.729 -0.0036 -0.4624  0.8160
  741MOL0     O99903   6.513   5.066   7.740 -1.2205 -0.7833 -0.1104
  741MOL0     C99904   6.393   5.020   7.686  0.3794 -0.7057 -1.3400
  741MOL0     C99905   6.319   4.919   7.745  0.0121 -0.2907 -0.3294
  741MOL0     C99906   6.198   4.877   7.690  0.5253  1.1295 -0.8566
  741MOL0     C99907   6.147   4.940   7.581 -0.3897 -0.6774 -0.5056
  741MOL0     O99908   6.024   4.903   7.555  1.0362 -0.5690 -0.1510
  741MOL0     C99909   5.959   4.942   7.434 -0.0539 -0.9694  0.6194
  741MOL0     C99910   6.016   4.858   7.317  0.2587  0.6823  0.6442
  741MOL0     C99911   5.958   4.898   7.181 -0.0646 -0.2706 -0.8632
  741MOL0     C99912   6.009   4.796   7.075  0.3020 -0.8422  0.1226
  741MOL0     C99913   5.959   4.652   7.110 -0.1864 -0.4195  0.6088
  741MOL0     C99914   5.808   4.646   7.116 -0.6326  0.6005 -0.7643
  741MOL0     C99915   5.731   4.723   7.009 -1.4821  0.0252  0.6934
  741MOL0     C99916   5.575   4.705   7.025  1.0231 -0.4413  0.3980
  741MOL0     N99917   5.529   4.789   7.143 -0.5963 -0.5194  0.2137
  741MOL0     C99918   5.493   4.736   7.261  0.8478 -0.6812  0.3158
  741MOL0     C99919   5.478   4.852   7.334  0.2225  0.3617 -0.3970
  741MOL0     C99920   5.414   4.865   7.464 -0.6332  0.3940 -0.4476
  741MOL0     C99921   5.476   4.984   7.552 -0.1794 -0.2304  0.2475
  741MOL0     C99922   5.403   4.999   7.685  0.2760 -0.1246  0.5199
  741MOL0     C99923   5.447   5.119   7.770  1.0842 -0.1542  0.4509
  741MOL0     O99924   5.584   5.093   7.802 -0.4396 -0.3433 -1.1931
  741MOL0     C99925   5.655   5.187   7.869  0.4130 -0.6347  0.0971
  741MOL0     C99926   5.779   5.153   7.912 -0.0274  0.6388 -0.7960
  741MOL0     C99927   5.868   5.245   7.973 -0.0344 -0.1455 -0.2514
  741MOL0     C99928   5.818   5.371   8.016 -1.0665  0.0680 -0.2728
  741MOL0     C99929   5.908   5.461   8.084  0.0873 -0.1860  0.2492
  741MOL0     O99930   6.036   5.459   8.034 -1.2650 -0.4285 -0.7896
  741MOL0     C99931   6.124   5.552   8.084  0.1333  0.1286 -0.4755
  741MOL0     C99932   6.183   5.627   7.982 -0.7477  0.6544 -0.6603
  741MOL0     C99933   6.271   5.730   8.009  0.6368 -0.1506 -0.5828
  741MOL0     C99934   6.305   5.754   8.145  0.5178  0.9087  0.5028
  741MOL0     O99935   6.412   5.841   8.172 -0.3251 -0.6875 -0.4170
  741MOL0     C99936   6.532   5.791   8.116 -0.2437  0.2483 -0.5446
  741MOL0     C99937   6.648   5.814   8.216  0.7160 -0.5917  0.0459
  741MOL0     C99938   6.700   5.957   8.202  0.9813 -0.1689 -0.9483
  741MOL0     C99939   6.801   6.002   8.305 -0.6428  0.6880 -0.0567
  741MOL0     C99940   6.858   6.148   8.296 -0.9133 -0.6294 -0.3301
  741MOL0     C99941   6.745   6.253   8.296 -0.7073  0.5302 -0.4962
  741MOL0     C99942   6.791   6.379   8.270  0.4351 -0.3134  0.2273
  741MOL0     C99943   6.695   6.484   8.335  0.2790 -0.4788 -0.6237
  741MOL0    Cl99944   6.527   6.460   8.278  0.2792 -0.1049 -0.0123
  741MOL0     C99945   6.251   5.676   8.243 -0.6773  0.2963  0.4315
  741MOL0     C99946   6.159   5.581   8.219 -0.1619 -0.1306  0.1799
  741MOL0     O99947   5.870   5.538   8.176  0.3567 -0.1596  0.0365
  741MOL0     C99948   5.684   5.405   7.994 -0.0125  0.4284 -0.7142
  741MOL0     C99949   5.607   5.311   7.926  0.6478  1.0598  0.2345
  741MOL0     N99950   5.517   4.965   7.268 -0.4554  0.9041  0.3620
  741MOL0     N99951   5.551   4.925   7.149  0.6454  1.2304 -0.6688
  741MOL0     C99952   6.222   5.041   7.519 -0.2183  0.3195 -0.2000
  741MOL0     C99953   6.346   5.078   7.570  0.9069  0.0637  0.3558
  741MOL0     C99954   6.754   5.035   7.801 -0.0591 -0.5373  1.1131
  741MOL0     C99955   6.794   5.170   7.787  0.6833 -0.4895  0.1641
  741MOL0     C99956   6.909   5.219   7.853 -0.5465  0.1116 -0.1997
  741MOL0     C99957   6.985   5.129   7.932  0.5300  0.5967 -0.3360
  741MOL0     O99958   7.091   5.187   7.995  0.1852  0.2891 -0.2931
  741MOL0     C99959   7.205   5.230   7.914 -1.2523 -0.1441  0.2306
  741MOL0     C99960   7.317   5.291   8.012  0.0197  0.5967  0.5636
  741MOL0     C99961   7.261   5.412   8.090 -0.7045  0.3583  0.7153
  741MOL0     C99962   7.219   5.539   8.006 -0.9010 -0.3722 -0.6687
  741MOL0     C99963   7.311   5.558   7.895 -0.1359  0.2962 -0.1440
  741MOL0     C99964   7.388   5.574   7.802  0.7219 -0.0431  0.3287
  741MOL0     C99965   6.949   4.988   7.934 -0.8051 -0.3945 -0.2277
  741MOL0     C99966   6.841   4.941   7.870  0.0583  0.2271 -0.0649
  741MOL0     C99967   6.814   4.795   7.884 -0.2599  0.3117  0.1388
  741MOL0     H99968   6.368   4.866   7.826  1.4147 -1.2511 -1.7327
  741MOL0     H99969   6.138   4.793   7.725  1.8015 -0.0262 -1.3600
  741MOL0     H99970   5.850   4.934   7.438 -0.2155 -0.2627 -1.4399
  741MOL0     H99971   5.988   5.041   7.396  1.7809 -2.6758 -2.9085
  741MOL0     H99972   5.980   4.757   7.335  1.1337  0.2053 -0.1465
  741MOL0     H99973   6.125   4.868   7.318  0.1908  2.0636 -0.7032
  741MOL0     H99974   5.989   4.996   7.144  0.1782 -0.9532 -2.5130
  741MOL0     H99975   5.849   4.903   7.190 -0.2152  0.2253 -2.7460
  741MOL0     H99976   5.977   4.824   6.975  0.2108 -1.3214  0.0142
  741MOL0     H99977   6.118   4.807   7.067  0.2397 -0.2191  0.1103
  741MOL0     H99978   5.985   4.593   7.022  0.0255  0.1523  0.2784
  741MOL0     H99979   6.007   4.604   7.195 -1.4078 -2.2638  0.3084
  741MOL0     H99980   5.774   4.542   7.105  2.2078 -0.7368  1.7775
  741MOL0     H99981   5.773   4.672   7.216 -0.1899  0.5609 -0.5967
  741MOL0     H99982   5.759   4.695   6.908 -1.1689  1.0979  0.4673
  741MOL0     H99983   5.756   4.829   7.011  5.3541 -0.8524 -4.5453
  741MOL0     H99984   5.525   4.746   6.936  0.9373  3.3169  1.9740
  741MOL0     H99985   5.543   4.602   7.043  1.7530 -0.6937  0.3000
  741MOL0     H99986   5.463   4.633   7.277 -1.2590  0.1816  2.5694
  741MOL0     H99987   5.308   4.880   7.443 -0.3212  1.1632 -1.5700
  741MOL0     H99988   5.415   4.771   7.520  0.5720 -0.0650 -1.1921
  741MOL0     H99989   5.584   4.972   7.554 -0.1328 -0.2527 -1.1328
  741MOL0     H99990   5.459   5.081   7.504  0.8654  0.1971  0.7228
  741MOL0     H99991   5.415   4.906   7.741  2.6534  0.0294  0.3533
  741MOL0     H99992   5.295   5.008   7.668 -0.3323 -3.4222  1.8804
  741MOL0     H99993   5.401   5.115   7.869 -0.2002 -0.3400 -0.1380
  741MOL0     H99994   5.412   5.208   7.718 -1.7911 -1.9876 -1.0243
  741MOL0     H99995   5.822   5.056   7.887  1.4339  0.9660  0.3484
  741MOL0     H99996   5.967   5.203   7.992 -0.7919 -2.4256 -1.0131
  741MOL0     H99997   6.167   5.587   7.882  1.1001 -1.4444 -0.2160
  741MOL0     H99998   6.315   5.775   7.920  0.1072 -0.0636 -0.8046
  741MOL0     H99999   6.533   5.682   8.109  0.3577 -0.0316  2.7258
  741MOL0     H    0   6.568   5.826   8.019 -2.0730 -0.2485 -1.4609
  741MOL0     H    1   6.603   5.808   8.315 -1.3030 -0.6526 -0.8223
  741MOL0     H    2   6.730   5.743   8.207  0.9562 -0.1332 -1.9479
  741MOL0     H    3   6.751   5.950   8.105 -1.7490 -0.6446 -2.4452
  741MOL0     H    4   6.615   6.026   8.193 -0.9520 -1.3959  4.4917
  741MOL0     H    5   6.884   5.931   8.302 -0.2732  0.9214  2.6610
  741MOL0     H    6   6.761   5.986   8.405  0.5677 -3.0834 -0.0371
  741MOL0     H    7   6.911   6.165   8.201 -1.4047  0.6063 -0.3954
  741MOL0     H    8   6.937   6.182   8.364  0.1042  2.3548 -2.7510
  741MOL0     H    9   6.679   6.225   8.213 -0.1919 -1.2752 -0.3579
  741MOL0     H   10   6.687   6.244   8.388  1.7068  0.2467  1.1037
  741MOL0     H   11   6.807   6.401   8.164  1.1862  0.6587  0.5267
  741MOL0     H   12   6.893   6.389   8.307  1.9040 -4.7811 -1.9701
  741MOL0     H   13   6.699   6.484   8.445 -1.7716  0.2941 -0.5019
  741MOL0     H   14   6.739   6.584   8.332 -0.8030  0.2491  2.5983
  741MOL0     H   15   6.304   5.692   8.336  0.3747 -0.4413 -0.0144
  741MOL0     H   16   6.113   5.526   8.301 -0.5970  3.6352  2.7029
  741MOL0     H   17   5.634   5.494   8.032 -2.0541 -0.8137 -0.3262
  741MOL0     H   18   5.498   5.320   7.928  0.6994  3.4125 -2.1976
  741MOL0     H   19   6.196   5.091   7.426 -2.0624  1.8734  1.0723
  741MOL0     H   20   6.406   5.145   7.509 -1.0295  0.1787 -1.5513
  741MOL0     H   21   6.741   5.239   7.722  0.9595 -0.2235  0.2218
  741MOL0     H   22   6.942   5.322   7.854  0.7065 -0.2507 -1.0201
  741MOL0     H   23   7.173   5.313   7.851 -1.7617 -2.3158 -2.6042
  741MOL0     H   24   7.234   5.151   7.843 -0.1340  1.1209 -0.7781
  741MOL0     H   25   7.400   5.316   7.945  1.4400 -2.3364  1.0769
  741MOL0     H   26   7.356   5.210   8.074  0.2733  0.9295  0.8413
  741MOL0     H   27   7.340   5.439   8.160 -1.1750  0.6741  1.1289
  741MOL0     H   28   7.170   5.364   8.127 -0.1686 -0.3527  1.1263
  741MOL0     H   29   7.121   5.515   7.965 -1.2587 -0.9607  0.4854
  741MOL0     H   30   7.207   5.628   8.069  3.6985  0.0124  0.0633
  741MOL0     H   31   7.459   5.595   7.725  1.9801  0.8251  1.6870
  741MOL0     H   32   7.019   4.936   7.999 -1.1302  0.3149  0.7181
  741MOL0     H   33   6.786   4.756   7.787 -0.9027  0.4972  0.2488
  741MOL0     H   34   6.901   4.740   7.921 -0.4640 -1.3260 -1.6801
  741MOL0     H   35   6.728   4.771   7.946 -2.4004 -0.1458 -2.8273
  742MOL0     O   36   8.815   6.281   4.314  0.3619  0.4243  0.4071
  742MOL0     C   37   8.929   6.322   4.337 -0.0385 -0.3839  0.7140
  742MOL0     O   38   9.036   6.242   4.372 -0.4005 -0.0306  0.4359
  742MOL0     C   39   9.008   6.109   4.402  0.0594 -0.2491  0.0377
  742MOL0     C   40   9.082   6.001   4.340 -0.7003  0.2692  0.6126
  742MOL0     C   41   9.052   5.868   4.368  0.2536 -1.2354 -0.5551
  742MOL0     C   42   8.960   5.838   4.465  0.1909  0.9498  0.1535
  742MOL0     O   43   8.917   5.707   4.498  1.1460 -0.4078 -0.2214
  742MOL0     C   44   8.990   5.595   4.442  0.6343  0.1863 -0.1929
  742MOL0     C   45   8.930   5.469   4.511  0.9144 -0.1212 -0.4790
  742MOL0     C   46   8.779   5.461   4.503  0.3791 -0.4671 -0.1536
  742MOL0     C   47   8.740   5.322   4.544 -0.0496 -0.1375 -0.2916
  742MOL0     C   48   8.587   5.340   4.586  0.9731  0.0279 -0.7545
  742MOL0     C   49   8.557   5.248   4.706 -0.0364 -0.1722 -0.0660
  742MOL0     C   50   8.537   5.100   4.676 -0.0683  0.7404  0.2016
  742MOL0     C   51   8.660   5.010   4.661 -0.7320 -0.4619  0.3440
  742MOL0     N   52   8.744   5.003   4.782 -0.1606  0.8294  0.0899
  742MOL0     C   53   8.734   4.930   4.896 -0.3169  0.5039  0.3626
  742MOL0     C   54   8.838   4.968   4.971 -0.1532 -0.1169 -0.0796
  742MOL0     C   55   8.889   4.933   5.112  0.8133  0.0376 -0.4853
  742MOL0     C   56   8.827   5.007   5.236  0.1008  0.6749 -0.7591
  742MOL0     C   57   8.700   4.949   5.292 -0.4154  0.7440  0.0284
  742MOL0     C   58   8.574   5.031   5.247 -0.8729  0.4987  0.1528
  742MOL0     O   59   8.578   5.162   5.296  0.5632  0.0790  0.1445
  742MOL0     C   60   8.527   5.261   5.222  0.3446 -0.6280  0.8604
  742MOL0     C   61   8.582   5.391   5.254  0.1238 -0.8382 -0.2282
  742MOL0     C   62   8.539   5.503   5.176  0.2928 -0.0104 -0.8887
  742MOL0     C   63   8.451   5.483   5.074 -0.3321 -0.8560  0.2751
  742MOL0     C   64   8.410   5.595   4.990 -0.3352  0.7333  0.1484
  742MOL0     O   65   8.415   5.720   5.032  1.0425  0.1005  1.0413
  742MOL0     C   66   8.429   5.823   4.936 -0.1753 -0.2243  0.4463
  742MOL0     C   67   8.509   5.808   4.825  0.0542  0.6653 -0.6622
  742MOL0     C   68   8.508   5.910   4.730 -0.2645  0.3179 -0.2746
  742MOL0     C   69   8.424   6.026   4.738  0.0117  0.5821 -0.0519
  742MOL0     O   70   8.440   6.110   4.629 -0.5265 -0.7532 -0.5810
  742MOL0     C   71   8.346   6.222   4.617  0.6378 -0.3697 -0.2716
  742MOL0     C   72   8.373   6.315   4.489  0.2119  0.4626 -0.0559
  742MOL0     C   73   8.344   6.253   4.362  0.7953 -0.3685 -0.0879
  742MOL0     C   74   8.353   6.349   4.245 -0.0398  1.1630  0.2945
  742MOL0     C   75   8.307   6.284   4.110  1.1115  0.6833 -0.2523
  742MOL0     C   76   8.313   6.393   4.004 -0.3770 -0.5070  0.7931
  742MOL0     C   77   8.193   6.500   4.010 -0.2534 -0.0116  1.1188
  742MOL0     C   78   8.075   6.456   3.915 -0.7893 -0.0486 -0.1896
  742MOL0    Cl   79   8.139   6.457   3.742 -0.7833 -0.2623  0.0116
  742MOL0     C   80   8.350   6.039   4.856  0.3177 -0.5745  0.7754
  742MOL0     C   81   8.355   5.947   4.954 -1.3039  0.1499  0.0403
  742MOL0     O   82   8.366   5.555   4.878  0.6917  0.3459  0.2294
  742MOL0     C   83   8.390   5.361   5.050 -0.0222  0.5225  0.1683
  742MOL0     C   84   8.429   5.239   5.120  0.2702 -1.2670 -0.1675
  742MOL0     N   85   8.917   5.058   4.893  0.0384  0.0957  0.2255
  742MOL0     N   86   8.856   5.081   4.791 -0.4473 -0.4612  0.1602
  742MOL0     C   87   8.903   5.947   4.537 -0.1007  0.4634 -0.0055
  742MOL0     C   88   8.919   6.081   4.500  0.1080  0.1930 -0.9628
  742MOL0     C   89   8.956   6.460   4.300 -0.4550 -0.0550 -0.7060
  742MOL0     C   90   9.095   6.501   4.318  1.0353 -0.0975  0.2221
  742MOL0     C   91   9.133   6.632   4.300  0.5098 -0.4413 -0.1947
  742MOL0     C   92   9.040   6.727   4.263 -0.4157  0.6122 -0.3480
  742MOL0     O   93   9.083   6.859   4.234  0.4519  0.0996  0.2270
  742MOL0     C   94   9.215   6.900   4.202  0.0237  0.7317  0.1578
  742MOL0     C   95   9.244   7.045   4.159  0.1319  0.5698 -0.9596
  742MOL0     C   96   9.163   7.085   4.025 -0.1282  0.5813  0.2964
  742MOL0     C   97   9.183   7.228   3.969  0.6158 -0.8040 -0.4283
  742MOL0     C   98   9.325   7.255   3.928  0.1224  0.2293 -0.3390
  742MOL0     C   99   9.442   7.262   3.914  0.7785 -0.4969 -0.7740
  742MOL0     C  100   8.910   6.692   4.255  0.4022 -1.5411 -0.6513
  742MOL0     C  101   8.862   6.562   4.273  0.2688  0.3071  0.1585
  742MOL0     C  102   8.711   6.542   4.282  0.0203 -0.2221  0.2949
  742MOL0     H  103   9.153   6.031   4.264 -0.1616 -1.3708  0.4356
  742MOL0     H  104   9.105   5.788   4.316  5.6548  2.1151 -1.0107
  742MOL0     H  105   8.975   5.604   4.334 -1.3366  2.7022  0.2310
  742MOL0     H  106   9.099   5.600   4.457  0.4175  1.2373  1.1158
  742MOL0     H  107   8.950   5.486   4.618 -0.3903  1.0023 -0.3852
  742MOL0     H  108   8.968   5.377   4.466  2.9343  1.9075 -3.2662
  742MOL0     H  109   8.741   5.481   4.403 -0.5509 -1.2289  0.0275
  742MOL0     H  110   8.733   5.538   4.566 -1.1013  1.0384 -2.8616
  742MOL0     H  111   8.753   5.243   4.469 -2.0842 -0.3242 -0.5035
  742MOL0     H  112   8.802   5.300   4.632  1.5414 -0.4133 -1.4276
  742MOL0     H  113   8.559   5.437   4.626 -0.0477 -0.3200 -0.6091
  742MOL0     H  114   8.522   5.319   4.500  1.9855  0.3089 -1.6163
  742MOL0     H  115   8.643   5.258   4.773  0.3426  1.1974 -0.7054
  742MOL0     H  116   8.480   5.284   4.774 -0.5413 -0.2083 -0.6129
  742MOL0     H  117   8.465   5.080   4.596 -1.2318  1.4907  1.0236
  742MOL0     H  118   8.488   5.057   4.763  2.0241 -3.0033 -0.2731
  742MOL0     H  119   8.623   4.911   4.635  2.6141 -1.6162 -0.5797
  742MOL0     H  120   8.725   5.059   4.588 -4.0557  0.1134 -2.4779
  742MOL0     H  121   8.654   4.859   4.913 -1.7408  1.6603 -1.1216
  742MOL0     H  122   8.877   4.825   5.122  0.8418 -0.0187 -1.0137
  742MOL0     H  123   8.998   4.939   5.112  0.9222 -0.9899  1.9253
  742MOL0     H  124   8.908   4.994   5.309  0.7020  3.2658 -0.8549
  742MOL0     H  125   8.816   5.114   5.214 -1.1274  0.2927 -2.1860
  742MOL0     H  126   8.713   4.947   5.401 -1.0572 -1.2788  0.1105
  742MOL0     H  127   8.683   4.845   5.260 -1.0137  0.9037 -0.1922
  742MOL0     H  128   8.477   4.991   5.276 -1.0849  0.0892 -1.0918
  742MOL0     H  129   8.586   5.020   5.139  0.6172 -0.9960  0.4316
  742MOL0     H  130   8.655   5.410   5.332  0.1042  0.2731 -0.4716
  742MOL0     H  131   8.581   5.601   5.194  0.9532 -0.8549  3.2520
  742MOL0     H  132   8.568   5.718   4.810  0.6686  0.6648  1.4088
  742MOL0     H  133   8.566   5.900   4.639  2.5601  0.8584  1.3753
  742MOL0     H  134   8.252   6.167   4.606  0.4303  0.5102 -4.4416
  742MOL0     H  135   8.355   6.278   4.711 -0.7458 -2.0788  0.9329
  742MOL0     H  136   8.304   6.400   4.489 -0.0810  0.2403 -1.1746
  742MOL0     H  137   8.471   6.363   4.484  0.0156  0.9348  0.5289
  742MOL0     H  138   8.410   6.177   4.320  2.0201  0.6990 -0.1720
  742MOL0     H  139   8.243   6.214   4.352  0.6711  0.6083 -4.0011
  742MOL0     H  140   8.460   6.371   4.232  1.6596 -3.6899  3.1492
  742MOL0     H  141   8.305   6.444   4.268 -1.2717  0.6934 -0.2629
  742MOL0     H  142   8.208   6.236   4.112  2.6262 -2.8651  3.0418
  742MOL0     H  143   8.366   6.196   4.084 -0.7714 -0.7762  0.2089
  742MOL0     H  144   8.395   6.464   4.016 -1.1900  0.9984 -1.9591
  742MOL0     H  145   8.334   6.346   3.908  0.3901 -1.5171  1.4208
  742MOL0     H  146   8.225   6.594   3.965 -0.1586  0.4260  2.0798
  742MOL0     H  147   8.159   6.519   4.112  1.3269 -2.1554  2.1424
  742MOL0     H  148   8.011   6.372   3.945 -3.9850  2.3432  0.1823
  742MOL0     H  149   7.997   6.531   3.930  0.5034  1.3527 -0.2969
  742MOL0     H  150   8.295   6.131   4.875  0.9473  0.1145 -0.6083
  742MOL0     H  151   8.300   5.962   5.046  2.5449 -0.4547  2.6991
  742MOL0     H  152   8.315   5.344   4.973 -0.2667 -3.1657  1.0137
  742MOL0     H  153   8.366   5.150   5.117 -1.1097 -0.2869 -2.1765
  742MOL0     H  154   8.827   5.914   4.607 -0.5423  1.1388 -0.1488
  742MOL0     H  155   8.860   6.156   4.553  0.3182 -1.2339  1.4038
  742MOL0     H  156   9.176   6.434   4.349  0.9287 -0.4291 -0.1997
  742MOL0     H  157   9.237   6.647   4.325  0.5060 -0.8239  0.0609
  742MOL0     H  158   9.233   6.839   4.113 -1.6744 -0.3368  0.5080
  742MOL0     H  159   9.280   6.874   4.286 -1.0336  0.8382  1.0422
  742MOL0     H  160   9.352   7.060   4.151  0.4193 -1.9010 -2.8200
  742MOL0     H  161   9.205   7.104   4.243  0.8367  0.8818 -0.8440
  742MOL0     H  162   9.057   7.073   4.049  0.0041  2.3312  1.9495
  742MOL0     H  163   9.192   7.014   3.947 -0.2076  1.3028 -0.4004
  742MOL0     H  164   9.118   7.241   3.882  0.2562 -0.5254 -0.1216
  742MOL0     H  165   9.164   7.297   4.052  3.4195 -3.8003  3.0063
  742MOL0     H  166   9.547   7.277   3.919  0.5555  2.0133 -2.3502
  742MOL0     H  167   8.848   6.778   4.231  0.4205 -1.4587 -0.4046
  742MOL0     H  168   8.663   6.636   4.251  0.9655  0.3194  0.4270
  742MOL0     H  169   8.666   6.458   4.229 -2.0794 -2.1804  4.6574
  742MOL0     H  170   8.697   6.537   4.390 -0.6988  0.2300  0.2289
  743MOL0     O  171   0.837   8.673   5.178 -0.4835 -0.4999 -0.5939
  743MOL0     C  172   0.913   8.673   5.277  0.3489  0.2717 -0.6144
  743MOL0     O  173   0.931   8.782   5.360  0.5280  0.1440 -0.1391
  743MOL0     C  174   0.858   8.893   5.331 -0.3940 -0.7277  0.4049
  743MOL0     C  175   0.907   8.988   5.239  0.1740  0.1725 -0.1224
  743MOL0     C  176   0.822   9.111   5.221 -0.5123  0.6231  0.2948
  743MOL0     C  177   0.699   9.114   5.280  0.6063 -0.1034 -1.0676
  743MOL0     O  178   0.612   9.213   5.264  0.4399 -0.3153  0.4639
  743MOL0     C  179   0.623   9.315   5.357 -0.0876 -0.2797 -0.2465
  743MOL0     C  180   0.474   9.339   5.378  0.0439  0.5895  1.1124
  743MOL0     C  181   0.433   9.448   5.474  0.6426 -0.7473  0.2003
  743MOL0     C  182   0.278   9.485   5.459 -0.5111  0.5380 -0.6547
  743MOL0     C  183   0.234   9.597   5.552  0.6045 -0.3849  0.1267
  743MOL0     C  184   0.261   9.572   5.702 -1.1260  1.1000 -0.8561
  743MOL0     C  185   0.206   9.687   5.781  0.1246  0.4029 -0.1117
  743MOL0     C  186   0.236   9.688   5.931 -0.2529  0.8706  0.8122
  743MOL0     N  187   0.196   9.576   6.009 -1.0147  0.7995 -0.8132
  743MOL0     C  188   0.284   9.481   6.064  0.0390 -0.0082 -0.6729
  743MOL0     C  189   0.205   9.406   6.149  0.2775  0.5845  0.0161
  743MOL0     C  190   0.237   9.274   6.221 -0.2661 -0.2853  0.4401
  743MOL0     C  191   0.116   9.172   6.210  0.0456  0.0161  0.8809
  743MOL0     C  192   0.166   9.037   6.269 -0.1313  1.0962  0.4118
  743MOL0     C  193   0.196   9.052   6.419 -0.4614 -0.4688 -0.0931
  743MOL0     O  194   0.239   8.923   6.455 -0.2825 -0.3659  0.4238
  743MOL0     C  195   0.213   8.885   6.575  0.2743 -0.2040 -1.0187
  743MOL0     C  196   0.307   8.789   6.621 -0.0975 -0.0446  0.9311
  743MOL0     C  197   0.290   8.753   6.750 -0.4984  0.1056 -0.4002
  743MOL0     C  198   0.192   8.793   6.837  0.0837 -0.0085 -0.3662
  743MOL0     C  199   0.194   8.746   6.974 -0.5330  0.6065 -0.1807
  743MOL0     O  200   0.306   8.675   7.022 -0.4865 -0.8636 -0.4071
  743MOL0     C  201   0.279   8.636   7.150  0.9398 -0.8044  0.4316
  743MOL0     C  202   0.272   8.723   7.253 -0.4126 -0.1769  1.1845
  743MOL0     C  203   0.257   8.685   7.389 -0.1151 -0.2393  0.4022
  743MOL0     C  204   0.265   8.555   7.418 -0.4671 -0.0804 -1.3532
  743MOL0     O  205   0.271   8.511   7.554 -0.1808  0.0793 -0.4433
  743MOL0     C  206   0.251   8.372   7.589  0.3227 -0.2101 -1.5107
  743MOL0     C  207   0.271   8.346   7.741 -0.2971 -0.0697 -0.9439
  743MOL0     C  208   0.287   8.198   7.765 -0.2463 -0.6427 -0.3028
  743MOL0     C  209   0.297   8.168   7.915 -0.0247  0.5921  0.3176
  743MOL0     C  210   0.323   8.018   7.938  0.2167  0.4977 -0.1319
  743MOL0     C  211   0.328   7.998   8.087  0.2859  0.1524 -0.2360
  743MOL0     C  212   0.344   7.849   8.132  0.4675 -0.5921  0.5240
  743MOL0     C  213   0.460   7.774   8.064  1.0364 -0.7585  0.3157
  743MOL0    Cl  214   0.445   7.607   8.113 -0.4907  0.2401  0.5065
  743MOL0     C  215   0.259   8.462   7.314  0.4496  0.1639  0.3552
  743MOL0     C  216   0.264   8.501   7.180  0.0471  1.0834  0.4534
  743MOL0     O  217   0.095   8.776   7.036 -0.4982 -0.1062 -0.3335
  743MOL0     C  218   0.095   8.867   6.779 -0.8166 -1.3423 -0.9528
  743MOL0     C  219   0.098   8.919   6.655  0.7717 -0.6135  0.8998
  743MOL0     N  220   0.080   9.460   6.143 -0.4038  0.3969 -0.3555
  743MOL0     N  221   0.074   9.568   6.068  0.0144 -0.3148 -1.3379
  743MOL0     C  222   0.656   9.017   5.368 -0.0999 -0.0119  0.3896
  743MOL0     C  223   0.731   8.898   5.383 -0.8178  0.1678 -0.1363
  743MOL0     C  224   0.967   8.536   5.317  0.1507  0.0975 -0.3140
  743MOL0     C  225   1.001   8.445   5.212  0.6806 -0.7577  0.2502
  743MOL0     C  226   1.071   8.325   5.230  0.2145 -0.7114 -0.0355
  743MOL0     C  227   1.086   8.291   5.369 -0.9362  0.1952  0.5150
  743MOL0     O  228   1.139   8.172   5.413  0.2271  0.7877 -0.5378
  743MOL0     C  229   1.201   8.088   5.315  0.0168  0.6082 -0.2372
  743MOL0     C  230   1.291   7.984   5.380  0.2708  0.5514 -0.1459
  743MOL0     C  231   1.213   7.864   5.449 -0.0440 -0.0402 -0.1069
  743MOL0     C  232   1.296   7.763   5.524 -0.3607 -1.0404  0.3684
  743MOL0     C  233   1.412   7.726   5.448  0.8370 -0.0228 -0.5058
  743MOL0     C  234   1.501   7.691   5.378  0.4785 -0.0846 -0.3723
  743MOL0     C  235   1.050   8.377   5.469  0.1642  0.2254 -0.6387
  743MOL0     C  236   0.989   8.496   5.449 -0.1637 -0.5990  0.0868
  743MOL0     C  237   0.944   8.568   5.574 -0.8178  0.0564  0.1857
  743MOL0     H  238   1.007   8.976   5.198  0.6264  4.1573 -0.6154
  743MOL0     H  239   0.851   9.200   5.166 -2.7707  1.7359  0.7533
  743MOL0     H  240   0.670   9.295   5.453  0.2853  1.9506  0.0941
  743MOL0     H  241   0.661   9.411   5.319 -0.5733 -0.1973 -0.5369
  743MOL0     H  242   0.429   9.249   5.421  0.2692 -0.5241 -0.8420
  743MOL0     H  243   0.433   9.371   5.281  1.1751  1.2286  0.8267
  743MOL0     H  244   0.479   9.545   5.457 -0.2748  0.4018  3.6369
  743MOL0     H  245   0.452   9.417   5.577 -0.2061  0.2912  0.6898
  743MOL0     H  246   0.254   9.507   5.354 -0.1831 -1.2039 -1.1279
  743MOL0     H  247   0.227   9.391   5.484  1.7907 -0.9168 -1.1521
  743MOL0     H  248   0.293   9.684   5.524 -0.2174  0.6500  1.4856
  743MOL0     H  249   0.127   9.614   5.542  0.4551 -0.7987  0.8828
  743MOL0     H  250   0.212   9.481   5.737 -2.0155  1.6592 -0.6158
  743MOL0     H  251   0.368   9.559   5.723 -1.3822  1.8127  1.2026
  743MOL0     H  252   0.098   9.677   5.770  0.3571 -2.4168 -0.5879
  743MOL0     H  253   0.249   9.779   5.740  1.0412 -0.5407 -1.3711
  743MOL0     H  254   0.342   9.705   5.950 -0.0302 -1.5815  2.1716
  743MOL0     H  255   0.165   9.767   5.960 -2.0460  0.2111 -1.4960
  743MOL0     H  256   0.384   9.454   6.031  0.4377  0.3673  0.1944
  743MOL0     H  257   0.336   9.235   6.197 -0.6260 -0.6161 -0.5387
  743MOL0     H  258   0.243   9.295   6.328  0.5252 -2.4443  0.8709
  743MOL0     H  259   0.028   9.212   6.261  0.9520  1.1218  1.6221
  743MOL0     H  260   0.081   9.166   6.107  0.4463 -3.7661  0.8197
  743MOL0     H  261   0.244   8.989   6.210 -2.2747 -1.5967 -0.4449
  743MOL0     H  262   0.080   8.971   6.251  2.0872 -1.4997 -1.2628
  743MOL0     H  263   0.108   9.094   6.469 -0.4718 -0.8475  0.2088
  743MOL0     H  264   0.281   9.120   6.436 -0.2506 -1.3185  2.8051
  743MOL0     H  265   0.388   8.761   6.554  0.4568  1.9497  0.6938
  743MOL0     H  266   0.359   8.682   6.794 -1.2564 -1.4871 -1.6464
  743MOL0     H  267   0.263   8.830   7.239 -2.8560 -0.5926 -1.1420
  743MOL0     H  268   0.266   8.771   7.454  0.5977 -0.0748  0.1034
  743MOL0     H  269   0.151   8.342   7.558  0.0764 -2.1630  0.8623
  743MOL0     H  270   0.321   8.305   7.539  0.2567 -1.0416 -0.5242
  743MOL0     H  271   0.356   8.399   7.785  0.1510  1.2455 -3.2318
  743MOL0     H  272   0.180   8.377   7.793 -0.1408  2.4088 -2.0217
  743MOL0     H  273   0.216   8.124   7.728 -1.3273 -0.6291  1.6039
  743MOL0     H  274   0.380   8.164   7.719  0.5105  1.3087 -0.3307
  743MOL0     H  275   0.205   8.198   7.967 -0.7183 -1.4315  0.3506
  743MOL0     H  276   0.372   8.232   7.962 -2.0059  2.2169  1.4171
  743MOL0     H  277   0.408   7.975   7.885  1.1260  0.0742  1.6150
  743MOL0     H  278   0.232   7.966   7.905 -0.1741  0.7348  0.5406
  743MOL0     H  279   0.412   8.055   8.128 -0.7999  0.6796  1.3394
  743MOL0     H  280   0.242   8.049   8.130 -1.4682  0.6440 -3.9347
  743MOL0     H  281   0.248   7.797   8.122 -0.1706  0.6835 -0.2097
  743MOL0     H  282   0.357   7.842   8.241 -1.8748  2.4811  1.1598
  743MOL0     H  283   0.444   7.775   7.956 -2.3859 -1.1610  0.7174
  743MOL0     H  284   0.549   7.825   8.102 -0.5476  2.1820  0.3679
  743MOL0     H  285   0.235   8.358   7.334 -1.0654 -0.1671 -2.7447
  743MOL0     H  286   0.276   8.441   7.090 -3.5268  2.8039 -1.4248
  743MOL0     H  287   0.023   8.916   6.843  1.1315  1.1776 -0.5133
  743MOL0     H  288   0.009   8.967   6.616  2.4738 -0.3247 -3.1440
  743MOL0     H  289   0.555   9.019   5.408 -0.2444  0.6035  0.0115
  743MOL0     H  290   0.691   8.820   5.447 -0.3151 -0.0977 -0.1388
  743MOL0     H  291   1.009   8.484   5.111  0.7418 -0.0468  0.5230
  743MOL0     H  292   1.112   8.273   5.144  3.9859 -2.0831  2.3392
  743MOL0     H  293   1.259   8.157   5.254  7.2246 -0.9527  3.6815
  743MOL0     H  294   1.111   8.038   5.277 -1.0118  1.5228  0.8895
  743MOL0     H  295   1.361   8.034   5.447 -0.6424 -0.6028  1.7746
  743MOL0     H  296   1.359   7.933   5.311  1.4236  2.6114 -0.6056
  743MOL0     H  297   1.153   7.805   5.380 -1.5606  1.1752  0.1179
  743MOL0     H  298   1.137   7.919   5.506  0.2350 -0.4988  0.7251
  743MOL0     H  299   1.334   7.803   5.618  2.2870  0.1056 -1.0996
  743MOL0     H  300   1.235   7.673   5.537 -1.8423 -1.1337 -4.8556
  743MOL0     H  301   1.584   7.650   5.324 -0.6408  1.5500 -3.6389
  743MOL0     H  302   1.082   8.349   5.569  1.8986  5.9630  0.8280
  743MOL0     H  303   1.017   8.644   5.604  1.1405 -1.2596 -1.0358
  743MOL0     H  304   0.851   8.619   5.543 -0.6484  1.0469  1.2083
  743MOL0     H  305   0.934   8.510   5.666 -0.7574  0.0926  0.2158
  744MOL0     O  306   2.670   4.239  10.156  0.2180  0.1410  0.1572
  744MOL0     C  307   2.659   4.198  10.044  0.0999 -0.1814  0.9865
  744MOL0     O  308   2.761   4.165   9.952  0.7136  0.1428 -0.7491
  744MOL0     C  309   2.887   4.198   9.977  0.1361  0.4946 -0.7171
  744MOL0     C  310   2.935   4.326   9.986 -0.2830  0.1990 -0.2789
  744MOL0     C  311   3.074   4.347   9.996  0.5792 -0.9528 -0.1338
  744MOL0     C  312   3.163   4.241   9.988 -0.7481  0.4719  0.0456
  744MOL0     O  313   3.293   4.265  10.007 -0.7187 -0.3816  0.0253
  744MOL0     C  314   3.388   4.166   9.967 -0.1407 -0.2995 -0.1943
  744MOL0     C  315   3.529   4.233   9.980 -0.0565 -1.0715 -0.6949
  744MOL0     C  316   3.548   4.371   9.915  0.2771  0.2112 -0.4302
  744MOL0     C  317   3.689   4.393   9.876  0.0811 -0.0353 -0.0771
  744MOL0     C  318   3.746   4.295   9.765  0.0956  0.3367  0.3351
  744MOL0     C  319   3.878   4.353   9.699 -0.8126  0.0800  0.0040
  744MOL0     C  320   3.976   4.258   9.640 -0.6750  0.5244  0.0781
  744MOL0     C  321   3.922   4.184   9.516 -0.9853 -0.4729 -0.3104
  744MOL0     N  322   3.901   4.281   9.406 -0.8479 -0.1011 -0.5375
  744MOL0     C  323   3.999   4.348   9.342 -0.4930  0.0369 -0.3536
  744MOL0     C  324   3.948   4.375   9.219 -0.3062  0.3162  0.3712
  744MOL0     C  325   4.005   4.460   9.094  0.5492  0.1833 -0.1457
  744MOL0     C  326   4.038   4.368   8.977 -0.8639  0.2984 -0.0776
  744MOL0     C  327   4.167   4.396   8.899 -1.1024  0.1276  0.2926
  744MOL0     C  328   4.186   4.287   8.785  0.0222  0.2939  0.5308
  744MOL0     O  329   4.183   4.152   8.850 -0.0970  0.2478  0.4741
  744MOL0     C  330   4.233   4.046   8.773  0.0328  0.4533  0.6787
  744MOL0     C  331   4.191   3.917   8.805 -0.0036  0.7690 -0.4390
  744MOL0     C  332   4.212   3.809   8.717 -0.1313 -0.2753  0.2296
  744MOL0     C  333   4.295   3.821   8.598  0.0944 -0.6219  0.3726
  744MOL0     C  334   4.332   3.702   8.518 -0.0262 -1.0291 -0.0012
  744MOL0     O  335   4.290   3.577   8.554 -0.0656  1.3824  0.2677
  744MOL0     C  336   4.330   3.468   8.479  0.2054 -0.4215  0.0307
  744MOL0     C  337   4.287   3.450   8.349  0.3253  1.5150  0.5853
  744MOL0     C  338   4.317   3.328   8.288  0.1002 -0.0920 -0.1323
  744MOL0     C  339   4.395   3.236   8.347  0.0503  0.3417 -0.3751
  744MOL0     O  340   4.418   3.111   8.286  0.4553 -0.4993  0.2586
  744MOL0     C  341   4.472   3.003   8.351  0.4939 -0.1960 -0.3196
  744MOL0     C  342   4.631   3.010   8.361  0.9068 -0.2419 -0.3860
  744MOL0     C  343   4.681   2.867   8.352 -0.1219  0.7900 -0.4053
  744MOL0     C  344   4.715   2.832   8.205  0.6000 -0.2042  0.0463
  744MOL0     C  345   4.689   2.690   8.162 -0.4030  1.1077  0.2920
  744MOL0     C  346   4.541   2.654   8.162  0.2987 -0.1960  0.5041
  744MOL0     C  347   4.496   2.512   8.157  0.4086  0.0236  0.0853
  744MOL0     C  348   4.528   2.421   8.281 -0.9179  0.2429  0.5084
  744MOL0    Cl  349   4.405   2.453   8.408 -0.0358 -0.2514 -0.6783
  744MOL0     C  350   4.443   3.256   8.479 -0.2700 -0.1766  0.1189
  744MOL0     C  351   4.397   3.371   8.548 -0.2605 -1.0720  0.5163
  744MOL0     O  352   4.398   3.726   8.423  0.1221 -0.6400  0.6431
  744MOL0     C  353   4.350   3.950   8.568  0.2169  0.1584  0.3037
  744MOL0     C  354   4.308   4.056   8.648  0.0764 -0.0864 -0.4073
  744MOL0     N  355   3.826   4.305   9.211  0.1458 -0.2065  1.2127
  744MOL0     N  356   3.793   4.272   9.321 -0.2458 -0.3769 -0.3400
  744MOL0     C  357   3.112   4.112   9.966 -0.1797 -0.1462  0.2646
  744MOL0     C  358   2.978   4.090   9.963 -0.3804  0.4987  0.0406
  744MOL0     C  359   2.513   4.182   9.985 -1.2331  0.2505 -0.3167
  744MOL0     C  360   2.499   4.137   9.851 -0.7194  0.1161 -0.2159
  744MOL0     C  361   2.372   4.132   9.787  0.1775  0.2244 -0.4868
  744MOL0     C  362   2.260   4.158   9.868 -1.0573 -1.0174 -0.4783
  744MOL0     O  363   2.128   4.161   9.835  0.5559 -0.3302 -0.0908
  744MOL0     C  364   2.084   4.136   9.699 -0.3729 -0.0817 -0.3494
  744MOL0     C  365   2.023   3.999   9.684  0.2939  0.0890  0.1136
  744MOL0     C  366   1.971   3.965   9.545  0.6163  0.2652 -0.7495
  744MOL0     C  367   1.868   4.065   9.481 -0.8931 -0.0488  0.1261
  744MOL0     C  368   1.734   4.067   9.555 -0.2050 -0.7093 -0.1839
  744MOL0     C  369   1.626   4.074   9.610 -0.4745  0.7389 -0.5947
  744MOL0     C  370   2.272   4.185  10.004 -1.1107  0.0302 -0.2557
  744MOL0     C  371   2.402   4.208  10.065  0.0764 -1.0110 -0.1919
  744MOL0     C  372   2.392   4.252  10.214  0.3775  0.4265  0.2478
  744MOL0     H  373   2.875   4.416   9.985  0.7157  0.8735 -0.4553
  744MOL0     H  374   3.107   4.447  10.024 -0.1043 -1.1838  1.6701
  744MOL0     H  375   3.388   4.082  10.036  3.4421  0.1122  0.4667
  744MOL0     H  376   3.363   4.148   9.862 -2.9516 -1.1173  0.5348
  744MOL0     H  377   3.609   4.163   9.954  0.1275 -1.1547  0.0575
  744MOL0     H  378   3.555   4.245  10.086  3.3411  0.3260 -1.5302
  744MOL0     H  379   3.517   4.443   9.991  0.5698 -1.4936  1.3548
  744MOL0     H  380   3.489   4.393   9.826  1.5086  1.8447 -0.9132
  744MOL0     H  381   3.710   4.496   9.847  1.2418 -0.8394 -2.3400
  744MOL0     H  382   3.750   4.374   9.965  0.8354  0.5515 -0.4526
  744MOL0     H  383   3.772   4.206   9.822  0.4995  1.4571  1.9579
  744MOL0     H  384   3.667   4.270   9.692  0.9011  0.9301 -0.7632
  744MOL0     H  385   3.849   4.429   9.625 -0.3660 -1.5365 -1.9059
  744MOL0     H  386   3.933   4.406   9.777  0.0065  1.6347 -1.5657
  744MOL0     H  387   4.013   4.196   9.722  2.3259 -2.5083 -3.1894
  744MOL0     H  388   4.068   4.313   9.616  2.7354 -2.9084  3.7890
  744MOL0     H  389   3.993   4.106   9.484 -1.8382 -1.2078 -0.4516
  744MOL0     H  390   3.829   4.132   9.539  0.1891 -2.4401  0.3424
  744MOL0     H  391   4.101   4.375   9.367 -0.2101  1.7839 -2.9829
  744MOL0     H  392   3.920   4.522   9.062 -1.3396 -0.9422  2.2930
  744MOL0     H  393   4.087   4.525   9.123 -0.2254  0.5934  1.1996
  744MOL0     H  394   4.056   4.272   9.026 -2.7852  0.3586  0.8410
  744MOL0     H  395   3.946   4.359   8.918  0.3423 -2.4361 -1.7265
  744MOL0     H  396   4.240   4.389   8.980 -1.2830 -0.9312  0.3836
  744MOL0     H  397   4.168   4.497   8.858 -0.4806 -0.4321 -1.1369
  744MOL0     H  398   4.279   4.315   8.734 -1.3294  0.8796 -1.7754
  744MOL0     H  399   4.104   4.297   8.713  1.1447  2.2673 -0.5777
  744MOL0     H  400   4.125   3.906   8.891  1.3721 -0.1905  0.5396
  744MOL0     H  401   4.149   3.724   8.740 -2.9147  1.1446 -1.5225
  744MOL0     H  402   4.235   3.534   8.304 -0.0117 -0.2117 -2.5385
  744MOL0     H  403   4.274   3.300   8.192 -0.6090 -1.5508  0.5794
  744MOL0     H  404   4.421   3.007   8.448 -1.1698  1.6335 -1.1989
  744MOL0     H  405   4.445   2.909   8.303  0.2785 -1.5339  2.2799
  744MOL0     H  406   4.687   3.065   8.284  0.0783 -1.8201 -2.1963
  744MOL0     H  407   4.650   3.061   8.455  4.8005  0.8838 -1.5837
  744MOL0     H  408   4.772   2.847   8.410 -0.1543 -2.6761 -1.3130
  744MOL0     H  409   4.607   2.801   8.398  0.4482  0.8497  0.6280
  744MOL0     H  410   4.823   2.849   8.198  0.3336  2.9418  1.8709
  744MOL0     H  411   4.676   2.896   8.125  0.7499 -2.5314 -2.0326
  744MOL0     H  412   4.739   2.630   8.239 -2.3933 -0.9096  0.1238
  744MOL0     H  413   4.737   2.674   8.065 -4.3385 -2.0325 -1.4367
  744MOL0     H  414   4.485   2.687   8.250 -2.8343  0.6023 -1.6272
  744MOL0     H  415   4.493   2.703   8.077 -0.5640  1.7611  2.0409
  744MOL0     H  416   4.531   2.475   8.060 -6.0487  0.0756 -2.7828
  744MOL0     H  417   4.387   2.506   8.148  0.5568 -4.0928 -1.1042
  744MOL0     H  418   4.528   2.313   8.268 -1.0001  0.0736  1.7878
  744MOL0     H  419   4.631   2.443   8.312 -1.1669  0.7872  0.9657
  744MOL0     H  420   4.499   3.181   8.534 -3.0357 -3.5628 -1.3016
  744MOL0     H  421   4.423   3.389   8.652 -1.6297  3.0325  0.3179
  744MOL0     H  422   4.410   3.971   8.480 -2.1360 -1.6365 -1.8953
  744MOL0     H  423   4.340   4.157   8.626  0.4768 -0.3762 -1.1861
  744MOL0     H  424   3.183   4.031   9.969 -1.1310 -0.9624  1.4558
  744MOL0     H  425   2.932   3.992   9.950  2.5692 -1.5923  3.4554
  744MOL0     H  426   2.588   4.136   9.789 -0.5412 -1.5051  0.0261
  744MOL0     H  427   2.368   4.106   9.682 -1.7469  1.2105 -0.7048
  744MOL0     H  428   2.177   4.128   9.642  0.8624 -1.7694  1.7290
  744MOL0     H  429   2.031   4.224   9.663  0.5738  1.1723  1.1829
  744MOL0     H  430   1.940   3.981   9.753 -1.5221 -2.0244 -2.4584
  744MOL0     H  431   2.097   3.921   9.705 -1.4848 -1.1825  2.0409
  744MOL0     H  432   1.921   3.868   9.552 -1.4504  1.3507  0.4747
  744MOL0     H  433   2.052   3.953   9.473 -0.5898  1.1418 -2.3065
  744MOL0     H  434   1.913   4.165   9.473  2.7037 -1.5069  0.0677
  744MOL0     H  435   1.854   4.034   9.377 -0.3421 -4.1446  1.1271
  744MOL0     H  436   1.528   4.078   9.654 -0.5484  3.4989 -0.8581
  744MOL0     H  437   2.179   4.190  10.060 -1.4324 -0.4639 -0.7382
  744MOL0     H  438   2.470   4.325  10.237  0.8800 -0.7585  2.5962
  744MOL0     H  439   2.297   4.300  10.241 -1.1931 -1.2540 -1.9171
  744MOL0     H  440   2.419   4.167  10.278  0.5653 -0.6553 -1.2166
  745MOL0     O  441  10.460   5.686   5.990  0.1103 -0.1999 -0.6327
  745MOL0     C  442  10.358   5.616   6.000 -1.4435  0.4570 -0.7164
  745MOL0     O  443  10.347   5.480   6.001 -0.3392  0.6293 -0.5892
  745MOL0     C  444  10.455   5.405   5.961 -0.6603 -0.6424  1.1753
  745MOL0     C  445  10.585   5.439   5.986 -1.0651  0.7531  0.6022
  745MOL0     C  446  10.684   5.352   5.936  0.6257 -0.1733  0.1254
  745MOL0     C  447  10.661   5.237   5.865  0.3226  0.6095  0.2744
  745MOL0     O  448  10.761   5.155   5.828 -0.0487 -0.7854 -0.0533
  745MOL0     C  449  10.760   5.016   5.856 -0.2513  1.1091  0.9269
  745MOL0     C  450  10.748   4.937   5.725  0.3557 -0.7299  0.0059
  745MOL0     C  451  10.732   4.787   5.768  0.9516  0.3071  0.2763
  745MOL0     C  452  10.683   4.695   5.645 -0.9488 -1.4047 -0.3575
  745MOL0     C  453  10.696   4.545   5.683  0.5117  0.0822  0.8869
  745MOL0     C  454  10.682   4.455   5.563 -0.3350 -0.2648 -0.0575
  745MOL0     C  455  10.694   4.298   5.604 -0.3000 -0.5121 -0.2766
  745MOL0     C  456  10.731   4.188   5.499  1.2478  0.9397  0.7523
  745MOL0     N  457  10.777   4.232   5.372  0.0322  0.6975 -0.4692
  745MOL0     C  458  10.911   4.234   5.332 -0.4346 -0.3422  0.3107
  745MOL0     C  459  10.900   4.296   5.209  0.0974 -0.6898  0.1907
  745MOL0     C  460  11.012   4.351   5.118  0.0968  0.1932  0.0482
  745MOL0     C  461  10.982   4.485   5.041 -0.4400  0.2659 -0.4311
  745MOL0     C  462  10.984   4.615   5.129 -1.1376  0.5225  0.3512
  745MOL0     C  463  10.855   4.636   5.196  0.6570  0.0183 -0.5530
  745MOL0     O  464  10.845   4.767   5.236 -0.3821 -0.6429 -0.4395
  745MOL0     C  465  10.729   4.822   5.283 -0.5108 -0.3030  0.1895
  745MOL0     C  466  10.729   4.955   5.332  0.4544  0.0301  0.6382
  745MOL0     C  467  10.624   5.003   5.405 -0.5696 -0.3090  0.4058
  745MOL0     C  468  10.505   4.923   5.433  0.1835 -0.2275  0.6185
  745MOL0     C  469  10.389   4.988   5.497  0.6856 -0.3562  0.0527
  745MOL0     O  470  10.397   5.135   5.501 -0.7009 -0.4974  0.2132
  745MOL0     C  471  10.296   5.217   5.556  0.0569 -1.6927  0.0399
  745MOL0     C  472  10.323   5.362   5.539 -0.3193 -0.6126  0.2676
  745MOL0     C  473  10.221   5.462   5.554  0.0527  0.7686  0.7754
  745MOL0     C  474  10.088   5.415   5.589 -0.5181 -0.2749 -0.8888
  745MOL0     O  475   9.995   5.505   5.617  0.2417 -0.1836  0.8346
  745MOL0     C  476   9.958   5.597   5.503 -0.4078 -0.7449 -0.4471
  745MOL0     C  477   9.987   5.742   5.543 -0.4033  0.2138  0.6398
  745MOL0     C  478   9.913   5.844   5.444 -0.2088  0.1710  0.5681
  745MOL0     C  479  10.007   5.949   5.374  1.1900  0.0199 -0.2719
  745MOL0     C  480  10.092   5.865   5.274 -0.1179  0.2267 -0.6316
  745MOL0     C  481  10.164   5.954   5.186 -0.3318 -0.1772 -0.3359
  745MOL0     C  482  10.254   5.883   5.094  0.0206 -0.3994 -0.1330
  745MOL0     C  483  10.349   5.979   5.013 -0.6606  0.3879 -0.3135
  745MOL0    Cl  484  10.254   6.078   4.911  0.3065 -0.0197  0.0089
  745MOL0     C  485  10.068   5.279   5.618  0.0090  0.2956 -0.5283
  745MOL0     C  486  10.164   5.178   5.601 -0.2397 -0.6117  0.2690
  745MOL0     O  487  10.295   4.914   5.536 -0.3081 -0.2938  0.5682
  745MOL0     C  488  10.492   4.800   5.369  0.6533 -0.1087 -0.6878
  745MOL0     C  489  10.608   4.749   5.309  0.0620  0.5368  0.3972
  745MOL0     N  490  10.763   4.318   5.186 -0.2988  0.1064  0.9487
  745MOL0     N  491  10.694   4.293   5.289  0.9277 -0.5307  0.2315
  745MOL0     C  492  10.526   5.206   5.845  0.2340 -0.8052 -0.1305
  745MOL0     C  493  10.425   5.289   5.892 -0.5562 -0.2363  0.6906
  745MOL0     C  494  10.223   5.689   6.001 -0.8496  0.2721 -0.1876
  745MOL0     C  495  10.114   5.614   5.959 -0.2978 -0.8405  0.0876
  745MOL0     C  496   9.994   5.681   5.944  0.1399 -0.2281 -0.1880
  745MOL0     C  497   9.977   5.815   5.999  0.4103 -0.2019  0.2439
  745MOL0     O  498   9.868   5.893   5.994 -0.1487 -0.9864 -1.1263
  745MOL0     C  499   9.747   5.842   5.942 -0.0085 -0.9919  0.2891
  745MOL0     C  500   9.622   5.939   5.932 -0.1757  0.5204  0.0081
  745MOL0     C  501   9.566   5.970   6.069 -0.6238  0.2231 -0.1217
  745MOL0     C  502   9.434   6.062   6.082 -0.6049 -1.0831 -0.8491
  745MOL0     C  503   9.383   6.073   6.224 -0.1734  1.2054 -0.6977
  745MOL0     C  504   9.335   6.087   6.336 -0.4396  0.2392  0.5589
  745MOL0     C  505  10.091   5.880   6.042  0.7308 -0.7286  0.9164
  745MOL0     C  506  10.214   5.828   6.043  1.1045  0.0432  0.7239
  745MOL0     C  507  10.318   5.923   6.099 -0.0637 -0.1377  0.4045
  745MOL0     H  508  10.619   5.522   6.048  0.1442  2.1317 -1.7494
  745MOL0     H  509  10.791   5.360   5.955  0.5924 -2.1109  1.4085
  745MOL0     H  510  10.843   4.975   5.914 -1.0261 -2.2697 -0.1301
  745MOL0     H  511  10.670   5.013   5.917  0.0255  4.0147  1.6608
  745MOL0     H  512  10.839   4.949   5.665  0.0987 -0.7573 -0.3981
  745MOL0     H  513  10.663   4.969   5.664  1.4467  0.7588 -0.7985
  745MOL0     H  514  10.646   4.763   5.832 -0.6027 -2.0016 -2.3976
  745MOL0     H  515  10.831   4.751   5.796  0.2910 -1.0221  1.0343
  745MOL0     H  516  10.583   4.726   5.612 -0.0377  1.0397 -1.0889
  745MOL0     H  517  10.749   4.713   5.559  0.7325  0.0108  1.1412
  745MOL0     H  518  10.798   4.524   5.717  1.3828  0.3403 -1.4302
  745MOL0     H  519  10.625   4.523   5.764  1.6440 -0.7717  1.6810
  745MOL0     H  520  10.590   4.470   5.506  0.1852  1.4536 -0.5008
  745MOL0     H  521  10.759   4.493   5.495 -3.6941  4.3118 -1.8430
  745MOL0     H  522  10.610   4.269   5.668  0.5527  1.2557  1.7853
  745MOL0     H  523  10.782   4.283   5.667 -0.8900 -3.8617 -0.0617
  745MOL0     H  524  10.817   4.131   5.538  1.0878 -1.5266 -2.1493
  745MOL0     H  525  10.641   4.128   5.483  1.4809  1.1607 -1.6653
  745MOL0     H  526  10.991   4.207   5.401 -2.2296 -1.3656  2.1100
  745MOL0     H  527  11.095   4.362   5.190  0.4117  1.9148 -0.5185
  745MOL0     H  528  11.045   4.275   5.048  3.1248  1.9082 -0.5594
  745MOL0     H  529  11.070   4.506   4.979  1.7928  1.5376  2.9062
  745MOL0     H  530  10.893   4.491   4.978  0.3033 -0.2058 -1.5537
  745MOL0     H  531  11.008   4.706   5.073 -4.6278  1.3022 -0.1068
  745MOL0     H  532  11.065   4.598   5.200 -0.5202 -1.6014 -0.7524
  745MOL0     H  533  10.850   4.569   5.282 -0.1291 -1.0465 -1.4070
  745MOL0     H  534  10.778   4.617   5.121 -0.1068  2.3101 -0.4336
  745MOL0     H  535  10.802   5.026   5.296 -0.7538  0.7121 -0.5622
  745MOL0     H  536  10.638   5.109   5.423 -0.5060 -0.3908  0.8481
  745MOL0     H  537  10.415   5.387   5.488  0.6272 -0.3904  2.0142
  745MOL0     H  538  10.239   5.564   5.523 -1.0237  0.4039 -1.1545
  745MOL0     H  539  10.012   5.572   5.411 -0.6880  0.4485 -0.9405
  745MOL0     H  540   9.850   5.599   5.489 -0.5823  1.2006  0.8500
  745MOL0     H  541   9.934   5.752   5.638  0.6677  3.3943  1.0176
  745MOL0     H  542  10.095   5.750   5.556 -0.4571  0.3045  1.0300
  745MOL0     H  543   9.855   5.798   5.364  3.6017  0.3111 -2.6016
  745MOL0     H  544   9.856   5.909   5.510  0.8363 -0.5933  2.3157
  745MOL0     H  545  10.066   6.011   5.442 -1.2808  1.1264  1.0133
  745MOL0     H  546   9.932   6.010   5.322 -0.9492 -2.1580  0.0804
  745MOL0     H  547  10.033   5.791   5.217 -1.1450 -1.0494  1.9297
  745MOL0     H  548  10.165   5.807   5.332 -0.6251 -1.0668 -1.2360
  745MOL0     H  549  10.090   6.011   5.129 -0.6240 -0.5687 -0.3546
  745MOL0     H  550  10.230   6.023   5.239  1.1470 -0.0380 -2.2445
  745MOL0     H  551  10.179   5.848   5.022 -1.5007  1.8424  0.2639
  745MOL0     H  552  10.312   5.802   5.139  1.5212  0.1178 -1.0831
  745MOL0     H  553  10.397   6.044   5.087  0.2941 -0.3971 -0.2361
  745MOL0     H  554  10.419   5.920   4.954 -2.2570  1.2178 -3.2443
  745MOL0     H  555   9.969   5.257   5.656  0.1519  1.6811  0.7299
  745MOL0     H  556  10.134   5.075   5.618  3.4456 -1.7327  1.0154
  745MOL0     H  557  10.404   4.740   5.385  1.0652 -0.7825 -0.9038
  745MOL0     H  558  10.596   4.647   5.272 -3.5424  0.6915  0.7170
  745MOL0     H  559  10.496   5.112   5.800  0.7835 -1.1055  0.1166
  745MOL0     H  560  10.324   5.250   5.883  0.7142 -3.5139 -1.0153
  745MOL0     H  561  10.129   5.519   5.908 -0.5665 -0.1294 -1.3807
  745MOL0     H  562   9.915   5.624   5.896  1.9272 -1.4412 -1.8542
  745MOL0     H  563   9.717   5.751   5.994 -1.2953 -1.4959 -1.2598
  745MOL0     H  564   9.768   5.817   5.838 -0.6190  1.5479 -0.5054
  745MOL0     H  565   9.548   5.883   5.875 -0.3063 -1.0700  1.6383
  745MOL0     H  566   9.647   6.033   5.881 -0.4840 -1.0802 -3.3184
  745MOL0     H  567   9.643   6.024   6.125 -0.0353  0.2842 -0.9558
  745MOL0     H  568   9.554   5.868   6.105  0.4329  0.1512  0.0673
  745MOL0     H  569   9.470   6.164   6.070 -0.8812 -0.6587  1.4640
  745MOL0     H  570   9.353   6.040   6.012 -1.0759 -0.8439 -0.3909
  745MOL0     H  571   9.296   6.106   6.434  0.6308  3.1687  0.5072
  745MOL0     H  572  10.082   5.977   6.088  0.2177  0.4456 -1.5253
  745MOL0     H  573  10.361   5.868   6.182  1.6863  0.6334  0.0467
  745MOL0     H  574  10.401   5.942   6.031 -1.0649  5.5364  0.2307
  745MOL0     H  575  10.294   6.026   6.129  1.1044  0.6760 -1.2901
  746MOL0     O  576   4.188   9.569   1.194  0.1385 -0.0096 -0.4242
  746MOL0     C  577   4.191   9.649   1.287 -1.0354  0.0042 -1.0263
  746MOL0     O  578   4.261   9.637   1.414 -0.0711  0.1940  0.4835
  746MOL0     C  579   4.323   9.518   1.432  0.5263  0.6267  0.7364
  746MOL0     C  580   4.256   9.415   1.498  0.3999  0.6431  0.1517
  746MOL0     C  581   4.316   9.294   1.524 -0.2810  0.1379  0.1490
  746MOL0     C  582   4.440   9.256   1.473  0.3629 -1.3071  0.8273
  746MOL0     O  583   4.473   9.130   1.487  0.6099  0.0792 -1.2189
  746MOL0     C  584   4.609   9.085   1.472  0.2848  0.8791 -0.0007
  746MOL0     C  585   4.683   9.038   1.600 -0.3266 -0.8606  0.8802
  746MOL0     C  586   4.717   9.162   1.685 -1.1358  1.0671  0.1066
  746MOL0     C  587   4.830   9.239   1.617  0.0603  0.1610 -0.4965
  746MOL0     C  588   4.925   9.282   1.724  0.1988  0.4546 -0.8491
  746MOL0     C  589   5.063   9.331   1.665 -0.6687 -0.2808  0.2470
  746MOL0     C  590   5.140   9.432   1.762  0.8974 -0.2903  0.1581
  746MOL0     C  591   5.283   9.447   1.707 -0.8412 -0.4440 -0.4888
  746MOL0     N  592   5.363   9.323   1.717  0.8363 -0.2097 -0.1356
  746MOL0     C  593   5.436   9.295   1.608 -0.2040  0.1037 -0.6238
  746MOL0     C  594   5.493   9.171   1.638 -0.1211 -0.7731 -0.2727
  746MOL0     C  595   5.589   9.091   1.549 -0.4001 -0.2373 -0.5485
  746MOL0     C  596   5.708   9.037   1.635  0.0105 -0.2899  0.7630
  746MOL0     C  597   5.785   8.931   1.556 -0.7710  0.7403  0.3865
  746MOL0     C  598   5.797   8.790   1.621 -0.0160 -0.1361  0.2162
  746MOL0     O  599   5.852   8.813   1.747 -1.0226 -0.0315  0.1242
  746MOL0     C  600   5.878   8.716   1.841 -0.6448 -0.2146 -0.1530
  746MOL0     C  601   5.803   8.593   1.836  0.1023  0.4127  1.3044
  746MOL0     C  602   5.822   8.498   1.937 -0.5319  0.4935  0.5417
  746MOL0     C  603   5.911   8.524   2.044 -0.2390  0.0149  0.1679
  746MOL0     C  604   5.908   8.425   2.160  0.1043 -1.7355  0.0603
  746MOL0     O  605   5.826   8.326   2.135  0.0035  0.0443  0.8230
  746MOL0     C  606   5.796   8.234   2.228 -0.0067 -0.7120 -0.0082
  746MOL0     C  607   5.755   8.271   2.350 -1.4136  0.7099  1.0577
  746MOL0     C  608   5.713   8.176   2.443  0.2466 -0.3571  0.2019
  746MOL0     C  609   5.701   8.040   2.399  0.2275 -0.2324  0.1448
  746MOL0     O  610   5.670   7.959   2.499 -0.8741  0.6074  0.5044
  746MOL0     C  611   5.613   7.814   2.472  0.0457 -0.1202  0.3729
  746MOL0     C  612   5.715   7.705   2.514 -0.4320  0.3262  0.4131
  746MOL0     C  613   5.765   7.730   2.659  0.3259  0.0905  0.6708
  746MOL0     C  614   5.870   7.843   2.686  0.1763  0.4176 -0.2892
  746MOL0     C  615   5.917   7.823   2.833  0.1716  0.0739 -0.3504
  746MOL0     C  616   5.833   7.905   2.931 -0.0457  0.5193  0.2366
  746MOL0     C  617   5.878   7.870   3.078  0.2402  0.3917 -0.1509
  746MOL0     C  618   5.806   7.939   3.191 -0.1454 -0.4049  0.4826
  746MOL0    Cl  619   5.867   7.877   3.344  0.2057 -0.0395  0.3123
  746MOL0     C  620   5.736   7.998   2.266 -0.1779  0.0527 -0.6713
  746MOL0     C  621   5.778   8.105   2.186  0.5809 -0.1961  0.6778
  746MOL0     O  622   5.983   8.444   2.256 -0.2564 -0.5325 -0.6192
  746MOL0     C  623   5.980   8.645   2.046 -0.9252  0.5544  0.1955
  746MOL0     C  624   5.963   8.741   1.949 -0.3402  0.5246  0.1402
  746MOL0     N  625   5.451   9.135   1.762  0.9779  0.4031 -0.5166
  746MOL0     N  626   5.369   9.223   1.814 -0.3782  0.0044  0.7463
  746MOL0     C  627   4.504   9.359   1.401 -0.2087 -0.3861  0.6408
  746MOL0     C  628   4.451   9.486   1.382 -0.2438 -0.4874 -0.7045
  746MOL0     C  629   4.099   9.764   1.279  0.1883 -0.6409  0.5130
  746MOL0     C  630   4.047   9.836   1.393  0.3050 -0.3727 -0.4505
  746MOL0     C  631   3.949   9.932   1.381 -0.4189 -0.2869 -0.0219
  746MOL0     C  632   3.905   9.971   1.251  0.3496 -0.1462 -0.0153
  746MOL0     O  633   3.815  10.065   1.250 -0.1096  0.4046  0.0118
  746MOL0     C  634   3.844  10.186   1.179 -0.3308  0.0697 -0.0915
  746MOL0     C  635   3.722  10.277   1.170 -0.0086  0.1682 -0.1720
  746MOL0     C  636   3.777  10.417   1.124  0.3717 -0.3119  0.2503
  746MOL0     C  637   3.707  10.520   1.032  0.1925  0.0971 -0.6710
  746MOL0     C  638   3.595  10.588   1.109  1.3254 -0.3928  1.2548
  746MOL0     C  639   3.503  10.632   1.181  2.3641  0.9570  0.1755
  746MOL0     C  640   3.968   9.908   1.138  0.2305  0.3287  0.7787
  746MOL0     C  641   4.050   9.799   1.150 -1.5773 -0.5111  1.3320
  746MOL0     C  642   4.104   9.754   1.018 -0.5230  0.8751 -0.2256
  746MOL0     H  643   4.151   9.424   1.525 -0.8885 -2.3744 -3.0931
  746MOL0     H  644   4.257   9.211   1.561  0.3182 -2.3268 -3.8030
  746MOL0     H  645   4.610   9.008   1.394  0.6173  2.1411 -1.2953
  746MOL0     H  646   4.666   9.168   1.429  4.7228 -0.0414  3.3272
  746MOL0     H  647   4.779   8.990   1.581  2.1084  3.6756  0.3339
  746MOL0     H  648   4.617   8.973   1.658  0.9812 -1.7608  1.4010
  746MOL0     H  649   4.740   9.128   1.786 -0.0723  0.1761 -0.4182
  746MOL0     H  650   4.633   9.232   1.695 -0.8319  1.5001 -0.3152
  746MOL0     H  651   4.878   9.195   1.529 -1.9300 -2.0117 -0.5944
  746MOL0     H  652   4.784   9.331   1.578 -0.3143  0.6774  1.0931
  746MOL0     H  653   4.874   9.351   1.792  1.3927  0.0337  0.5401
  746MOL0     H  654   4.943   9.194   1.786 -4.0993 -1.3728 -1.8197
  746MOL0     H  655   5.120   9.241   1.641 -0.4516 -0.6717  2.0429
  746MOL0     H  656   5.048   9.396   1.578 -0.8739  0.6009  0.9216
  746MOL0     H  657   5.126   9.393   1.863 -2.6600  2.3101  0.8588
  746MOL0     H  658   5.082   9.525   1.763 -0.5038 -1.1363 -0.1712
  746MOL0     H  659   5.281   9.471   1.600 -0.9744 -1.9573 -0.8460
  746MOL0     H  660   5.346   9.525   1.749  1.7827 -1.1512 -2.7845
  746MOL0     H  661   5.451   9.356   1.520  1.5916  2.6897  1.3319
  746MOL0     H  662   5.532   9.011   1.501  0.9710 -0.3427 -2.0443
  746MOL0     H  663   5.620   9.162   1.472 -6.0701  1.2061 -1.9732
  746MOL0     H  664   5.773   9.123   1.657 -1.0463  0.4304  1.1458
  746MOL0     H  665   5.669   8.993   1.727  1.2313 -0.9965  0.9672
  746MOL0     H  666   5.891   8.959   1.547 -0.6873 -0.0409 -1.5505
  746MOL0     H  667   5.728   8.927   1.463 -2.2768 -3.0266  1.3145
  746MOL0     H  668   5.861   8.729   1.557 -0.3597 -1.1814  0.8484
  746MOL0     H  669   5.701   8.738   1.630 -0.2078  0.3407  0.9746
  746MOL0     H  670   5.729   8.570   1.760 -0.5180 -1.0049  2.2753
  746MOL0     H  671   5.777   8.401   1.922  1.3660 -0.5112  1.0356
  746MOL0     H  672   5.773   8.375   2.375 -3.1057  1.9664 -2.3859
  746MOL0     H  673   5.690   8.203   2.546 -1.7412  0.7052 -0.4703
  746MOL0     H  674   5.518   7.798   2.524 -1.4384  0.3375 -2.0314
  746MOL0     H  675   5.586   7.807   2.366 -0.4732 -0.5127  0.5234
  746MOL0     H  676   5.666   7.615   2.478 -2.0472  2.2526 -2.6472
  746MOL0     H  677   5.803   7.717   2.449  0.5246 -0.0614  1.6013
  746MOL0     H  678   5.680   7.737   2.727  2.4193 -2.9307  3.9928
  746MOL0     H  679   5.809   7.632   2.681  0.8457  0.3011  0.5755
  746MOL0     H  680   5.834   7.945   2.665  0.3192  0.4174 -0.5388
  746MOL0     H  681   5.947   7.810   2.615 -0.7009 -0.1891 -0.9813
  746MOL0     H  682   6.022   7.852   2.846  0.4368 -1.0454  0.0603
  746MOL0     H  683   5.914   7.717   2.857  2.0626 -0.1130 -0.7264
  746MOL0     H  684   5.836   8.013   2.914 -3.3979  0.4050 -2.0861
  746MOL0     H  685   5.725   7.894   2.912  0.0265  1.6764 -1.0050
  746MOL0     H  686   5.984   7.897   3.084  0.3386  0.2028 -0.8868
  746MOL0     H  687   5.889   7.762   3.091  2.6469  0.8095  2.2785
  746MOL0     H  688   5.822   8.046   3.206  2.4495 -0.5200 -0.8396
  746MOL0     H  689   5.697   7.931   3.180  0.0780 -0.6562 -2.5665
  746MOL0     H  690   5.733   7.896   2.228  2.8162 -0.0115 -0.9522
  746MOL0     H  691   5.806   8.085   2.083 -1.9901 -3.2646  0.4360
  746MOL0     H  692   6.048   8.661   2.128  0.1708  1.0175 -0.7762
  746MOL0     H  693   6.025   8.829   1.933  1.8688 -1.1686 -1.2573
  746MOL0     H  694   4.596   9.347   1.344  0.0131  0.0656  0.8982
  746MOL0     H  695   4.506   9.558   1.323  3.3942 -1.8354  0.7440
  746MOL0     H  696   4.086   9.823   1.494 -0.0095 -0.1284 -0.2936
  746MOL0     H  697   3.919   9.989   1.468  0.4631 -3.1015  2.2675
  746MOL0     H  698   3.866  10.165   1.074  1.1644 -0.6388  0.3310
  746MOL0     H  699   3.925  10.243   1.226 -1.9371  2.0397  0.4372
  746MOL0     H  700   3.685  10.287   1.273 -0.4638  1.8668 -0.4732
  746MOL0     H  701   3.649  10.239   1.099 -0.3494  2.4855 -1.1549
  746MOL0     H  702   3.867  10.401   1.063 -1.3267 -0.3158 -2.4133
  746MOL0     H  703   3.815  10.462   1.216 -0.1669  1.2053 -0.2429
  746MOL0     H  704   3.782  10.597   1.011  3.2515 -2.8893 -1.6353
  746MOL0     H  705   3.675  10.480   0.936  1.2556  0.7635 -1.3114
  746MOL0     H  706   3.439  10.678   1.253 -0.0153 -1.6030 -0.1093
  746MOL0     H  707   3.931   9.946   1.043 -0.8124  0.9228  1.3943
  746MOL0     H  708   4.213   9.759   1.012  0.1398 -5.6357 -0.7139
  746MOL0     H  709   4.078   9.648   1.015  0.2541  0.3831  4.2130
  746MOL0     H  710   4.074   9.805   0.926  0.7859 -0.4479 -1.4536
  747MOL0     O  711   0.676   6.141   3.474 -0.3760 -0.2998 -0.2587
  747MOL0     C  712   0.587   6.229   3.483 -0.5063  0.6090 -0.5234
  747MOL0     O  713   0.615   6.362   3.497  0.8877  0.2461  0.7452
  747MOL0     C  714   0.748   6.386   3.518 -0.4535 -0.4003 -0.6019
  747MOL0     C  715   0.817   6.488   3.450  0.1482 -0.5787  0.4794
  747MOL0     C  716   0.946   6.535   3.490 -0.0421  0.0511 -0.8965
  747MOL0     C  717   1.005   6.482   3.608  1.3622 -0.6634 -0.1288
  747MOL0     O  718   1.126   6.549   3.643 -0.5661  0.2998  0.8676
  747MOL0     C  719   1.200   6.492   3.760 -0.4635  0.6568  0.9604
  747MOL0     C  720   1.283   6.371   3.713 -0.1821 -0.4794 -0.3587
  747MOL0     C  721   1.390   6.345   3.824  0.0514 -0.8322  0.6983
  747MOL0     C  722   1.494   6.244   3.787  0.7978 -0.6928  0.7160
  747MOL0     C  723   1.627   6.246   3.865  0.0443 -0.6643 -0.2170
  747MOL0     C  724   1.731   6.142   3.807  1.2311 -0.9389  0.3135
  747MOL0     C  725   1.856   6.128   3.895 -0.3194  0.0098  0.8176
  747MOL0     C  726   1.919   5.986   3.858  0.4484 -0.6970 -0.6995
  747MOL0     N  727   1.844   5.867   3.899 -0.1897  0.2068  0.9651
  747MOL0     C  728   1.852   5.817   4.024 -0.4078 -0.0482  0.4459
  747MOL0     C  729   1.785   5.709   4.018  0.1555  0.2431 -0.8828
  747MOL0     C  730   1.784   5.622   4.140  0.2756  0.5392  0.1193
  747MOL0     C  731   1.886   5.505   4.113  0.2453 -0.1367 -0.3540
  747MOL0     C  732   2.033   5.565   4.135  0.1757  0.0570 -0.1356
  747MOL0     C  733   2.139   5.447   4.154  0.2971  0.2001 -0.9193
  747MOL0     O  734   2.262   5.520   4.186 -0.4122  0.0657 -0.4543
  747MOL0     C  735   2.382   5.463   4.141 -0.0640  0.0830 -0.5216
  747MOL0     C  736   2.470   5.541   4.067 -0.5032  0.4914  0.4723
  747MOL0     C  737   2.585   5.478   4.004 -0.5144 -0.6712  0.7291
  747MOL0     C  738   2.608   5.341   4.012 -0.0935 -1.2386  0.3823
  747MOL0     C  739   2.727   5.281   3.934 -0.0858 -0.0665 -0.0280
  747MOL0     O  740   2.804   5.363   3.856  0.8559  0.4387  0.2820
  747MOL0     C  741   2.886   5.319   3.755 -0.0768  1.0572  0.5022
  747MOL0     C  742   2.846   5.213   3.656 -0.2196 -0.2122 -1.0421
  747MOL0     C  743   2.936   5.186   3.556  0.7808  0.1359 -0.2677
  747MOL0     C  744   3.060   5.248   3.544  0.0892  0.2048 -0.4035
  747MOL0     O  745   3.144   5.207   3.441 -0.2284 -0.4209 -0.0130
  747MOL0     C  746   3.282   5.242   3.440  0.8658 -0.1200  0.1648
  747MOL0     C  747   3.352   5.133   3.365 -0.8044  0.2336  0.2946
  747MOL0     C  748   3.484   5.187   3.311 -1.2490  1.0973 -0.3978
  747MOL0     C  749   3.564   5.072   3.241  0.2416  0.0296 -0.3490
  747MOL0     C  750   3.695   5.118   3.176 -0.6534 -0.0155  0.3796
  747MOL0     C  751   3.807   5.116   3.279 -0.8065 -0.6183  0.9911
  747MOL0     C  752   3.937   5.038   3.229 -0.1535  0.2704 -0.4309
  747MOL0     C  753   4.042   5.044   3.334 -0.4103  0.0848 -0.3415
  747MOL0    Cl  754   4.095   5.205   3.358 -0.2070 -0.0254 -0.1734
  747MOL0     C  755   3.098   5.346   3.643 -0.9976 -0.0979  0.1823
  747MOL0     C  756   3.010   5.383   3.742  0.1829  0.1643  0.3498
  747MOL0     O  757   2.740   5.161   3.936  0.0048 -0.0755 -0.1627
  747MOL0     C  758   2.512   5.264   4.070 -0.6744 -0.9557 -0.7953
  747MOL0     C  759   2.404   5.324   4.144  0.4060 -0.1595 -0.0997
  747MOL0     N  760   1.734   5.683   3.892 -0.3247 -0.9681 -1.0751
  747MOL0     N  761   1.770   5.785   3.821  0.4530 -0.2081 -0.1606
  747MOL0     C  762   0.927   6.396   3.685  0.1594  0.1339  0.5114
  747MOL0     C  763   0.803   6.343   3.642 -0.3109 -0.2445 -0.1329
  747MOL0     C  764   0.445   6.189   3.466 -0.3915  0.3093  0.3586
  747MOL0     C  765   0.416   6.047   3.496  0.4018 -0.1620  0.5808
  747MOL0     C  766   0.283   6.002   3.490  0.4067 -0.0174 -0.0175
  747MOL0     C  767   0.176   6.082   3.437 -0.2881  0.0701 -0.7131
  747MOL0     O  768   0.053   6.030   3.429  0.8483 -0.1917  1.0264
  747MOL0     C  769  -0.036   6.104   3.339 -0.4900 -0.8132  0.9268
  747MOL0     C  770  -0.145   6.007   3.308  0.4428  0.6538  0.0986
  747MOL0     C  771  -0.257   6.057   3.219 -0.2325 -0.4133 -0.6843
  747MOL0     C  772  -0.373   5.962   3.219  0.1174 -0.0378 -0.3419
  747MOL0     C  773  -0.455   5.957   3.341  0.9410 -0.7007  0.2561
  747MOL0     C  774  -0.517   5.956   3.441 -0.0620 -0.0328  0.3035
  747MOL0     C  775   0.206   6.211   3.422 -0.7426 -0.9256 -0.0385
  747MOL0     C  776   0.339   6.269   3.433  0.6388 -0.5965  0.2389
  747MOL0     C  777   0.347   6.412   3.402  0.2567  0.1624  0.3465
  747MOL0     H  778   0.774   6.558   3.379  1.7846 -1.2827 -1.2805
  747MOL0     H  779   0.982   6.621   3.435 -0.8694  0.3476 -0.9820
  747MOL0     H  780   1.270   6.574   3.779  1.8595 -0.9636 -0.2219
  747MOL0     H  781   1.141   6.481   3.851  1.8640  3.7527  3.0457
  747MOL0     H  782   1.327   6.389   3.615  2.0757 -2.5099  0.2025
  747MOL0     H  783   1.201   6.298   3.709 -0.7335  0.1833 -2.0528
  747MOL0     H  784   1.339   6.315   3.916  0.7472 -1.5861  0.8473
  747MOL0     H  785   1.447   6.434   3.852  0.9004 -1.9191  2.6698
  747MOL0     H  786   1.449   6.147   3.807 -0.7467 -0.0851  0.2897
  747MOL0     H  787   1.527   6.246   3.683 -1.0465 -2.9116  0.0261
  747MOL0     H  788   1.676   6.344   3.863  1.9057 -1.5218 -2.8987
  747MOL0     H  789   1.594   6.238   3.969 -0.8397 -2.4649 -0.5957
  747MOL0     H  790   1.683   6.044   3.822  0.7816 -0.8508 -0.4915
  747MOL0     H  791   1.743   6.151   3.699 -0.7890  0.6234  0.1644
  747MOL0     H  792   1.831   6.129   4.002  0.7556 -2.8952  1.1598
  747MOL0     H  793   1.928   6.209   3.879  2.2587 -2.3776 -0.2711
  747MOL0     H  794   1.939   5.979   3.751 -0.4854  1.5065 -1.0715
  747MOL0     H  795   2.015   5.983   3.911  1.6502  1.0078 -2.6388
  747MOL0     H  796   1.889   5.862   4.115  0.1525  2.2569 -0.8389
  747MOL0     H  797   1.805   5.670   4.236 -0.7245 -0.5779  0.9288
  747MOL0     H  798   1.685   5.576   4.145  1.3280 -2.0242 -0.8425
  747MOL0     H  799   1.862   5.427   4.186  0.1226  1.3216  1.2357
  747MOL0     H  800   1.875   5.458   4.015 -0.8765  0.3411 -0.4737
  747MOL0     H  801   2.036   5.626   4.226 -0.3284 -0.9004  0.5304
  747MOL0     H  802   2.061   5.634   4.054 -0.1989  0.4583  0.0701
  747MOL0     H  803   2.142   5.370   4.076 -0.1803  0.6672 -1.4162
  747MOL0     H  804   2.109   5.391   4.243  0.7494 -1.4991 -1.7903
  747MOL0     H  805   2.452   5.648   4.061  4.1017  1.4170 -1.5173
  747MOL0     H  806   2.656   5.538   3.948  0.0199 -1.9045  0.0597
  747MOL0     H  807   2.748   5.165   3.665 -0.7213  0.4858 -2.4750
  747MOL0     H  808   2.920   5.118   3.472  1.9484  0.8876 -1.1340
  747MOL0     H  809   3.288   5.342   3.397 -2.6368  0.8285  1.5817
  747MOL0     H  810   3.322   5.258   3.540 -0.0177 -0.0245  0.5040
  747MOL0     H  811   3.374   5.052   3.435  0.3316  0.7162  0.5158
  747MOL0     H  812   3.289   5.096   3.283 -0.8557 -3.2482  1.7216
  747MOL0     H  813   3.477   5.267   3.237 -1.2393  3.3288  1.8729
  747MOL0     H  814   3.542   5.240   3.387  0.4059 -1.5849  0.3349
  747MOL0     H  815   3.501   5.034   3.160  3.5061 -0.3296 -2.9349
  747MOL0     H  816   3.580   4.990   3.311  0.1729  0.5259  0.2558
  747MOL0     H  817   3.682   5.219   3.135 -4.3383 -0.2181  0.6566
  747MOL0     H  818   3.720   5.060   3.086  3.8340 -1.7375  2.4538
  747MOL0     H  819   3.839   5.220   3.288 -0.2827 -0.5215 -1.2498
  747MOL0     H  820   3.766   5.075   3.372 -2.0294  0.3425  0.9097
  747MOL0     H  821   3.983   5.079   3.138 -1.4843 -2.2791 -2.3994
  747MOL0     H  822   3.914   4.932   3.211  0.0435 -0.3899  2.6306
  747MOL0     H  823   4.008   4.999   3.427 -1.1510  2.9451  0.8630
  747MOL0     H  824   4.136   4.995   3.304  1.0627  1.8578  1.1403
  747MOL0     H  825   3.192   5.400   3.640 -0.6830 -0.6630 -1.7139
  747MOL0     H  826   3.034   5.458   3.817 -0.5348 -1.0261  1.8370
  747MOL0     H  827   2.514   5.156   4.078 -2.2205 -0.8844  1.1665
  747MOL0     H  828   2.329   5.259   4.188 -0.1641 -0.3110 -1.2356
  747MOL0     H  829   0.972   6.351   3.773 -0.5242  0.3620  0.9858
  747MOL0     H  830   0.743   6.273   3.699 -1.9262 -3.3865 -5.0346
  747MOL0     H  831   0.495   5.977   3.521 -1.3199 -2.0170  1.1344
  747MOL0     H  832   0.272   5.895   3.505 -0.8634 -0.3252 -2.4858
  747MOL0     H  833   0.015   6.153   3.255 -5.1791  1.8725 -0.6975
  747MOL0     H  834  -0.080   6.187   3.394 -1.6241 -2.3059  2.3834
  747MOL0     H  835  -0.197   5.974   3.399  1.7379 -1.4281  0.1474
  747MOL0     H  836  -0.101   5.917   3.266  0.7516  1.1676 -0.6893
  747MOL0     H  837  -0.217   6.074   3.118  0.9030 -2.8263 -0.7099
  747MOL0     H  838  -0.303   6.147   3.260 -1.4964 -1.5672  0.5621
  747MOL0     H  839  -0.447   5.989   3.143  0.2386  1.9242  0.1872
  747MOL0     H  840  -0.334   5.864   3.192 -0.2236  0.3526 -2.5031
  747MOL0     H  841  -0.587   5.947   3.521 -0.0465  3.3840  0.8255
  747MOL0     H  842   0.127   6.286   3.417 -0.2855 -0.5363 -2.6681
  747MOL0     H  843   0.359   6.468   3.495 -4.1547 -1.3842  2.1057
  747MOL0     H  844   0.436   6.436   3.343  1.9962 -0.7408  2.4746
  747MOL0     H  845   0.259   6.446   3.346  0.2896  0.8142  0.6777
  748MOL0     O  846  11.395   0.444   7.799  0.7302 -0.3762 -0.2766
  748MOL0     C  847  11.297   0.371   7.773 -0.7195  0.5679  0.6221
  748MOL0     O  848  11.238   0.359   7.639  0.8238  1.1821  0.3614
  748MOL0     C  849  11.295   0.425   7.530 -1.4147 -0.0622 -0.1929
  748MOL0     C  850  11.431   0.411   7.487  0.2408  1.0570  0.5142
  748MOL0     C  851  11.483   0.476   7.382 -0.1764 -0.3762  0.5958
  748MOL0     C  852  11.386   0.546   7.295 -0.4710 -0.1670  0.0023
  748MOL0     O  853  11.425   0.611   7.181  0.9843  0.5029  0.2698
  748MOL0     C  854  11.555   0.585   7.135 -0.6231 -0.3426  0.8593
  748MOL0     C  855  11.654   0.682   7.190  0.2403  0.0944 -0.4750
  748MOL0     C  856  11.774   0.693   7.091  0.7516 -0.5467  0.1220
  748MOL0     C  857  11.880   0.784   7.145 -0.0931  0.1988  0.1207
  748MOL0     C  858  11.973   0.825   7.025  0.0646 -0.6297  0.1314
  748MOL0     C  859  12.040   0.715   6.951 -0.2487  0.2811  0.3748
  748MOL0     C  860  12.099   0.757   6.813 -0.6166 -0.2709  0.2799
  748MOL0     C  861  12.229   0.683   6.773  0.1761  0.2412  0.3353
  748MOL0     N  862  12.229   0.533   6.776  0.6586 -0.1266  0.7894
  748MOL0     C  863  12.134   0.451   6.711 -0.4110 -0.1972 -0.2817
  748MOL0     C  864  12.191   0.330   6.730  0.3325 -0.7299 -0.4586
  748MOL0     C  865  12.132   0.196   6.708  0.0548 -0.4921  0.6575
  748MOL0     C  866  12.128   0.152   6.562  0.0947  0.3566 -0.6782
  748MOL0     C  867  12.264   0.092   6.532 -0.2234 -0.4334 -0.2250
  748MOL0     C  868  12.283  -0.056   6.571  0.2466  0.0501 -0.0913
  748MOL0     O  869  12.225  -0.144   6.475  0.0321  0.7581 -0.2526
  748MOL0     C  870  12.273  -0.277   6.477 -0.0342  0.0745  0.5687
  748MOL0     C  871  12.256  -0.351   6.597 -0.7298 -0.5955  0.1889
  748MOL0     C  872  12.272  -0.494   6.595  0.6449 -0.7135 -0.6025
  748MOL0     C  873  12.306  -0.554   6.469  0.4183  0.8200 -0.2175
  748MOL0     C  874  12.321  -0.705   6.461  1.3354 -0.4553 -0.5698
  748MOL0     O  875  12.380  -0.744   6.356 -0.4147  0.5911  0.1523
  748MOL0     C  876  12.384  -0.881   6.336 -0.4684  0.4450 -0.0481
  748MOL0     C  877  12.504  -0.935   6.334 -0.3749  0.2487 -0.2503
  748MOL0     C  878  12.515  -1.079   6.308 -0.2154  0.4591 -0.1599
  748MOL0     C  879  12.401  -1.164   6.307 -0.0425  0.1236  1.7985
  748MOL0     O  880  12.399  -1.303   6.289  0.5082  0.0906 -0.5707
  748MOL0     C  881  12.527  -1.381   6.298 -0.8078 -0.7675 -0.1235
  748MOL0     C  882  12.496  -1.533   6.305  0.6051  0.6625  0.4632
  748MOL0     C  883  12.618  -1.623   6.315  1.2949 -0.2226  0.5590
  748MOL0     C  884  12.627  -1.707   6.441 -0.2957 -0.5319 -0.5994
  748MOL0     C  885  12.765  -1.768   6.443  1.2692 -0.2632 -0.9077
  748MOL0     C  886  12.765  -1.894   6.353  1.6283  0.6466 -0.3297
  748MOL0     C  887  12.897  -1.962   6.360  0.0740  0.3776  0.4347
  748MOL0     C  888  12.893  -2.088   6.260  0.2100 -0.7874 -0.7566
  748MOL0    Cl  889  13.024  -2.216   6.297 -0.5589 -0.0232  0.0242
  748MOL0     C  890  12.283  -1.098   6.303  0.3183  0.0235  0.8295
  748MOL0     C  891  12.271  -0.962   6.312 -0.3703  0.2008 -0.0314
  748MOL0     O  892  12.290  -0.774   6.561  0.3890 -0.2438  1.0370
  748MOL0     C  893  12.338  -0.472   6.357 -0.4633 -0.1082  0.1030
  748MOL0     C  894  12.308  -0.337   6.356 -0.1869  0.5317 -0.8020
  748MOL0     N  895  12.317   0.335   6.787 -0.5904  0.1232 -0.2693
  748MOL0     N  896  12.339   0.461   6.810  0.0624 -0.7959 -0.1763
  748MOL0     C  897  11.252   0.539   7.319  0.5714  0.3482  0.3395
  748MOL0     C  898  11.203   0.475   7.438 -0.8565  0.5192  0.8507
  748MOL0     C  899  11.227   0.294   7.884 -0.1761 -0.0754  0.9788
  748MOL0     C  900  11.132   0.198   7.854 -0.3895 -0.1766 -0.1339
  748MOL0     C  901  11.051   0.147   7.950 -0.1668  0.8574  0.0619
  748MOL0     C  902  11.072   0.172   8.087  0.2215 -0.2640 -0.0580
  748MOL0     O  903  11.000   0.107   8.179 -0.0440  1.0295 -0.7553
  748MOL0     C  904  10.867   0.159   8.205  0.9136  1.0279 -0.1146
  748MOL0     C  905  10.859   0.213   8.346  0.5747 -0.0375 -0.3277
  748MOL0     C  906  10.720   0.279   8.363 -0.5028  0.0950 -0.0969
  748MOL0     C  907  10.678   0.313   8.512 -0.3924 -0.1385  1.1079
  748MOL0     C  908  10.780   0.392   8.585 -0.2263  0.6690  0.3180
  748MOL0     C  909  10.871   0.434   8.644 -0.5554  0.7110  0.7061
  748MOL0     C  910  11.166   0.263   8.123  0.2692 -0.4701 -0.4364
  748MOL0     C  911  11.241   0.329   8.029 -0.2606  0.8299 -0.0841
  748MOL0     C  912  11.359   0.408   8.091  0.5747 -0.5018 -0.1295
  748MOL0     H  913  11.505   0.358   7.546 -0.4888 -1.9324 -1.0241
  748MOL0     H  914  11.590   0.467   7.363 -0.7547 -2.1241 -2.6328
  748MOL0     H  915  11.587   0.482   7.155  2.0796 -0.4764 -2.9033
  748MOL0     H  916  11.555   0.591   7.025  3.4094  0.7880  0.7441
  748MOL0     H  917  11.692   0.650   7.287 -1.1167 -1.9144 -0.5526
  748MOL0     H  918  11.614   0.784   7.191  4.2945  1.9020 -1.0035
  748MOL0     H  919  11.746   0.726   6.990 -0.8113  2.7662  1.4817
  748MOL0     H  920  11.822   0.595   7.093  0.3063 -0.7554  0.7738
  748MOL0     H  921  11.839   0.876   7.187 -2.7329 -0.5782 -0.5583
  748MOL0     H  922  11.937   0.736   7.225 -1.3419 -0.1631  0.8189
  748MOL0     H  923  11.909   0.890   6.964 -1.4712 -3.0437 -0.9505
  748MOL0     H  924  12.041   0.903   7.063 -1.1066  0.0488  0.8955
  748MOL0     H  925  12.127   0.676   7.004 -0.8074 -3.5121 -1.1431
  748MOL0     H  926  11.972   0.631   6.936  0.4373 -0.1578 -0.3945
  748MOL0     H  927  12.098   0.867   6.810 -3.4062 -0.2266  0.4552
  748MOL0     H  928  12.026   0.741   6.733  1.7602  1.8597 -2.5695
  748MOL0     H  929  12.256   0.717   6.673 -3.2572  0.8008 -0.5254
  748MOL0     H  930  12.310   0.712   6.840 -0.0462  1.8587 -0.0585
  748MOL0     H  931  12.044   0.484   6.661  0.1630  1.7715 -0.0814
  748MOL0     H  932  12.173   0.125   6.780  0.0080 -2.6243 -1.3068
  748MOL0     H  933  12.029   0.204   6.746 -0.8182  0.4858 -1.6988
  748MOL0     H  934  12.042   0.085   6.555 -0.6306  0.5750  3.7306
  748MOL0     H  935  12.096   0.237   6.500  0.7546  1.7742  0.8299
  748MOL0     H  936  12.341   0.152   6.580  0.3447 -0.3723 -1.2033
  748MOL0     H  937  12.291   0.108   6.428 -0.2293  0.7064 -0.0665
  748MOL0     H  938  12.231  -0.066   6.666 -0.0320  2.1101  0.0223
  748MOL0     H  939  12.390  -0.078   6.582  0.8053  0.7617 -3.1719
  748MOL0     H  940  12.226  -0.310   6.693 -1.9042  0.7013 -0.6851
  748MOL0     H  941  12.259  -0.554   6.684 -1.1064 -1.4959 -1.3284
  748MOL0     H  942  12.593  -0.876   6.354 -1.2672  1.8654 -0.9440
  748MOL0     H  943  12.608  -1.135   6.307  0.2148  1.1647 -1.1634
  748MOL0     H  944  12.586  -1.373   6.206 -0.7355 -0.3357 -0.0427
  748MOL0     H  945  12.598  -1.355   6.377 -0.1957 -0.7537 -0.6749
  748MOL0     H  946  12.426  -1.558   6.385  1.7784  0.8259  1.5813
  748MOL0     H  947  12.440  -1.556   6.215  0.3867  1.7350  0.3048
  748MOL0     H  948  12.607  -1.682   6.224 -2.2784  2.2268 -0.8101
  748MOL0     H  949  12.706  -1.560   6.297 -0.2003  1.3191 -2.0400
  748MOL0     H  950  12.543  -1.777   6.432 -1.0344  0.1119  0.9406
  748MOL0     H  951  12.619  -1.655   6.537 -0.4718 -2.5443  0.5369
  748MOL0     H  952  12.773  -1.788   6.551 -2.0064  3.5949  0.3094
  748MOL0     H  953  12.838  -1.691   6.418  1.0696  0.7610  1.3664
  748MOL0     H  954  12.699  -1.970   6.395  2.5605 -1.1585 -1.9299
  748MOL0     H  955  12.736  -1.883   6.248 -3.0513 -1.7008  0.4724
  748MOL0     H  956  12.915  -2.004   6.459 -0.0056 -0.0465  0.2747
  748MOL0     H  957  12.970  -1.894   6.314 -2.7236  1.6982 -2.4301
  748MOL0     H  958  12.797  -2.139   6.268  0.5161 -1.1183  1.3582
  748MOL0     H  959  12.904  -2.060   6.154  3.4557 -0.4457 -0.4430
  748MOL0     H  960  12.189  -1.150   6.287  0.2753  0.1805  0.5749
  748MOL0     H  961  12.166  -0.934   6.303 -0.3433  0.2021 -0.3424
  748MOL0     H  962  12.390  -0.511   6.270 -1.0328 -2.3120  0.6830
  748MOL0     H  963  12.313  -0.258   6.281  2.7809  3.5744  2.2220
  748MOL0     H  964  11.182   0.590   7.254 -1.9123 -4.2834 -1.0795
  748MOL0     H  965  11.096   0.472   7.456 -1.5621 -1.3810 -2.8203
  748MOL0     H  966  11.132   0.170   7.749  4.5179  0.5304 -0.5438
  748MOL0     H  967  10.974   0.071   7.940 -1.3610  1.9020  0.9704
  748MOL0     H  968  10.788   0.083   8.195 -1.2501  2.9981  0.9789
  748MOL0     H  969  10.840   0.233   8.130 -1.0663  1.6263  1.1128
  748MOL0     H  970  10.934   0.289   8.369 -3.6854  4.1767  1.3144
  748MOL0     H  971  10.875   0.136   8.422 -2.0681  2.6997  3.3725
  748MOL0     H  972  10.651   0.214   8.310 -0.7713  2.1325 -2.4042
  748MOL0     H  973  10.706   0.368   8.301  0.8623 -0.3735 -1.1086
  748MOL0     H  974  10.575   0.346   8.531 -0.5379  0.4364 -0.4948
  748MOL0     H  975  10.680   0.218   8.565  0.9702 -1.0759 -0.5464
  748MOL0     H  976  10.961   0.447   8.702 -0.5850  1.6162  0.5737
  748MOL0     H  977  11.185   0.280   8.229 -2.0134  1.2753 -0.2277
  748MOL0     H  978  11.339   0.516   8.086  1.8634 -0.2412 -0.1726
  748MOL0     H  979  11.382   0.369   8.191  1.1893 -0.4114 -0.2293
  748MOL0     H  980  11.451   0.384   8.038  2.0412 -0.9108  2.4370
  749MOL0     O  981   7.303   3.663   6.332  0.8570  0.5683 -0.9496
  749MOL0     C  982   7.189   3.671   6.317 -0.2904  0.0827 -0.4993
  749MOL0     O  983   7.125   3.729   6.212  0.5957  0.4380 -0.6454
  749MOL0     C  984   7.186   3.821   6.128  0.3231 -0.3510 -0.6123
  749MOL0     C  985   7.169   3.802   5.993 -0.5012 -0.2257 -0.4962
  749MOL0     C  986   7.222   3.890   5.898  0.4615 -0.5039 -1.0584
  749MOL0     C  987   7.298   3.998   5.940 -0.4636 -0.9101  0.8611
  749MOL0     O  988   7.333   4.098   5.846  0.4244 -0.2607  0.2696
  749MOL0     C  989   7.397   4.229   5.884  0.5726 -0.3607 -0.0411
  749MOL0     C  990   7.395   4.314   5.761 -0.0827 -0.7438  0.4312
  749MOL0     C  991   7.416   4.454   5.818 -0.5321 -0.1444  0.1089
  749MOL0     C  992   7.453   4.550   5.702 -0.1702  0.1080 -0.4383
  749MOL0     C  993   7.497   4.685   5.759  0.0175 -0.5219  0.5964
  749MOL0     C  994   7.554   4.780   5.651  0.1915 -0.2117 -0.5830
  749MOL0     C  995   7.443   4.834   5.555  0.0205  0.5365 -0.2412
  749MOL0     C  996   7.496   4.958   5.484 -0.1669  0.3590  0.0594
  749MOL0     N  997   7.618   4.936   5.407 -0.3321  0.2722  0.5226
  749MOL0     C  998   7.741   4.929   5.455  0.3336  0.1263  0.8582
  749MOL0     C  999   7.826   4.961   5.348 -0.0105  0.0962 -0.2989
  749MOL0     C 1000   7.976   4.971   5.347  0.3007  0.0000 -0.0717
  749MOL0     C 1001   8.012   5.111   5.292 -1.1258 -0.6558  1.1001
  749MOL0     C 1002   7.980   5.226   5.382  0.5250 -0.6828 -0.4257
  749MOL0     C 1003   8.048   5.363   5.353  0.6728 -0.0646  0.6264
  749MOL0     O 1004   7.957   5.460   5.414  0.6897  0.0528 -0.5859
  749MOL0     C 1005   7.966   5.589   5.363 -0.7707  0.4925 -0.2296
  749MOL0     C 1006   7.860   5.666   5.414 -1.1801  0.0710 -0.2495
  749MOL0     C 1007   7.839   5.799   5.377  0.4158  0.1607 -0.1406
  749MOL0     C 1008   7.930   5.865   5.294  0.1958  0.4703 -0.2690
  749MOL0     C 1009   7.925   6.004   5.263 -0.1359 -0.3264  0.0143
  749MOL0     O 1010   8.040   6.077   5.252  0.2422  0.1172 -0.4224
  749MOL0     C 1011   8.045   6.213   5.234  0.3765 -0.1543 -0.2810
  749MOL0     C 1012   7.949   6.315   5.256 -0.5974 -0.4434 -0.1945
  749MOL0     C 1013   7.976   6.451   5.221 -0.2581  0.2166 -0.0094
  749MOL0     C 1014   8.091   6.495   5.158 -0.7318  0.1137  0.5869
  749MOL0     O 1015   8.112   6.626   5.100  0.4515  0.4905  0.1357
  749MOL0     C 1016   8.015   6.724   5.144  0.4613  1.1863  0.0325
  749MOL0     C 1017   8.036   6.844   5.067 -0.6795 -0.6464 -0.7986
  749MOL0     C 1018   7.903   6.927   5.069 -0.0781  0.0779 -0.2828
  749MOL0     C 1019   7.926   7.053   4.989 -0.0132 -1.5917  0.6089
  749MOL0     C 1020   7.813   7.158   5.014  1.0710 -0.7995  0.0151
  749MOL0     C 1021   7.690   7.126   4.947 -0.6096 -0.8138 -0.3297
  749MOL0     C 1022   7.687   7.163   4.800  0.5930  0.2443  0.0659
  749MOL0     C 1023   7.543   7.137   4.747  0.1002 -0.5869  0.1222
  749MOL0    Cl 1024   7.492   6.959   4.759  0.0950 -0.0547  0.2662
  749MOL0     C 1025   8.192   6.392   5.162  0.0950 -0.1375  0.1156
  749MOL0     C 1026   8.170   6.256   5.197 -0.6795 -0.2066  0.3449
  749MOL0     O 1027   7.813   6.055   5.273 -0.2408  0.6642 -0.4120
  749MOL0     C 1028   8.032   5.784   5.238 -0.1732  0.0361  0.5869
  749MOL0     C 1029   8.052   5.644   5.268 -0.5332 -1.2182  0.1509
  749MOL0     N 1030   7.743   5.000   5.246 -1.0030 -0.0651 -0.6341
  749MOL0     N 1031   7.629   4.977   5.278  0.0742 -0.2812 -0.6201
  749MOL0     C 1032   7.326   4.018   6.080  0.4253  0.2782  1.2013
  749MOL0     C 1033   7.272   3.927   6.172 -0.6376  0.5431  0.0944
  749MOL0     C 1034   7.120   3.576   6.402  0.9473  0.4503 -0.4248
  749MOL0     C 1035   7.056   3.473   6.340  0.0487  1.0082  0.2300
  749MOL0     C 1036   6.996   3.375   6.415  0.5484  1.4283  0.7927
  749MOL0     C 1037   6.995   3.363   6.552 -0.3817 -0.3157  0.2820
  749MOL0     O 1038   6.930   3.259   6.611  0.1290  0.1860 -0.0265
  749MOL0     C 1039   6.903   3.238   6.746  0.4605  0.6928 -0.7681
  749MOL0     C 1040   6.864   3.093   6.775  0.0230  0.3408  0.5549
  749MOL0     C 1041   6.821   3.074   6.915  0.0223  0.1344 -1.0089
  749MOL0     C 1042   6.828   2.919   6.969  0.6266 -0.0805  0.4512
  749MOL0     C 1043   6.974   2.886   6.986  0.8067  0.0201  0.1275
  749MOL0     C 1044   7.084   2.855   7.016  0.3280  0.6189 -0.9877
  749MOL0     C 1045   7.055   3.474   6.622 -0.1905 -0.0208 -0.3201
  749MOL0     C 1046   7.119   3.578   6.545  0.3150  0.8099 -0.5274
  749MOL0     C 1047   7.182   3.696   6.618 -1.1857  0.6126  0.1463
  749MOL0     H 1048   7.110   3.716   5.963 -2.3147  1.5123 -2.2372
  749MOL0     H 1049   7.201   3.875   5.792  2.3184  0.4190 -1.6121
  749MOL0     H 1050   7.332   4.275   5.960 -1.1401  0.5344 -1.9605
  749MOL0     H 1051   7.493   4.209   5.932  0.1706 -0.1881  0.8622
  749MOL0     H 1052   7.295   4.292   5.721  0.5207 -1.8861 -0.5092
  749MOL0     H 1053   7.469   4.291   5.684  0.1982  1.7718 -0.1207
  749MOL0     H 1054   7.484   4.456   5.903 -3.1369  1.3523  2.3322
  749MOL0     H 1055   7.324   4.492   5.864 -2.0550 -0.2756 -2.6084
  749MOL0     H 1056   7.539   4.503   5.654 -0.3458  0.0349 -0.6804
  749MOL0     H 1057   7.371   4.549   5.629 -2.1485 -3.1408  1.5848
  749MOL0     H 1058   7.414   4.729   5.815 -0.2186  0.1132 -0.2201
  749MOL0     H 1059   7.573   4.664   5.835 -2.3107 -2.1051  2.6427
  749MOL0     H 1060   7.600   4.868   5.697  0.7453  0.3096 -2.0735
  749MOL0     H 1061   7.620   4.712   5.596 -2.1719 -3.7343  0.5677
  749MOL0     H 1062   7.348   4.866   5.599 -1.5581 -1.5197 -1.9255
  749MOL0     H 1063   7.415   4.751   5.488  0.3095 -0.7275  1.1533
  749MOL0     H 1064   7.414   4.986   5.417  0.0575 -0.7640 -0.7312
  749MOL0     H 1065   7.507   5.047   5.546 -1.0582 -1.6732  3.4370
  749MOL0     H 1066   7.767   4.904   5.557 -0.9502 -3.7031  0.4145
  749MOL0     H 1067   8.009   4.946   5.448 -1.5381 -2.1733  0.0865
  749MOL0     H 1068   8.021   4.896   5.280  1.6455  1.0287 -0.3695
  749MOL0     H 1069   8.118   5.101   5.266 -1.1965  0.6920  0.2110
  749MOL0     H 1070   7.966   5.122   5.194 -0.8194  2.1749  1.1862
  749MOL0     H 1071   8.006   5.198   5.485  0.3445  2.7028  0.6626
  749MOL0     H 1072   7.871   5.234   5.374  0.5867  2.0285  0.2679
  749MOL0     H 1073   8.055   5.377   5.245  0.3860 -1.5763  0.3989
  749MOL0     H 1074   8.151   5.362   5.392  1.3075 -1.1412 -0.9556
  749MOL0     H 1075   7.799   5.631   5.496 -0.9418  0.6933  0.1989
  749MOL0     H 1076   7.751   5.846   5.419 -0.8556 -1.3960 -0.9436
  749MOL0     H 1077   7.850   6.293   5.297 -0.1309  0.3508  1.4348
  749MOL0     H 1078   7.895   6.520   5.244 -0.4674 -1.1621  4.3198
  749MOL0     H 1079   7.917   6.684   5.115  1.1172  0.1764 -0.8041
  749MOL0     H 1080   8.012   6.755   5.249 -2.6722 -1.7549  1.0219
  749MOL0     H 1081   8.124   6.880   5.120  1.1298 -3.7008 -1.4877
  749MOL0     H 1082   8.067   6.807   4.969 -2.8290 -2.1393 -0.9944
  749MOL0     H 1083   7.829   6.860   5.024  0.3775 -0.1530 -0.7036
  749MOL0     H 1084   7.866   6.947   5.169 -1.7493  1.8048 -1.1902
  749MOL0     H 1085   7.946   7.033   4.883  1.7952 -0.3806  0.6740
  749MOL0     H 1086   8.016   7.111   5.009 -0.0887  1.1361 -4.9223
  749MOL0     H 1087   7.854   7.258   4.995  0.9363 -1.0727 -2.0209
  749MOL0     H 1088   7.793   7.167   5.121  0.9565  0.7826 -0.1139
  749MOL0     H 1089   7.678   7.018   4.959  1.6384 -0.9924  0.6679
  749MOL0     H 1090   7.609   7.185   4.993 -0.0044  0.5650 -0.9556
  749MOL0     H 1091   7.763   7.113   4.740  1.1959  0.1548  0.8885
  749MOL0     H 1092   7.709   7.270   4.800 -0.0282  0.4015  1.4523
  749MOL0     H 1093   7.466   7.199   4.794  1.4586 -0.3514  2.1854
  749MOL0     H 1094   7.551   7.169   4.643  0.3298 -1.3077 -0.0884
  749MOL0     H 1095   8.285   6.425   5.116 -1.4467  4.8133 -0.0708
  749MOL0     H 1096   8.258   6.194   5.184  0.4824  1.2815  0.8152
  749MOL0     H 1097   8.099   5.835   5.170  0.0087 -0.2091  0.5802
  749MOL0     H 1098   8.136   5.592   5.221  2.4357  1.0240  2.5326
  749MOL0     H 1099   7.378   4.110   6.104  1.6173  1.1500 -3.6037
  749MOL0     H 1100   7.272   3.942   6.280 -1.3749  1.0768  0.0286
  749MOL0     H 1101   7.037   3.471   6.233  2.6931 -0.5973 -0.3014
  749MOL0     H 1102   6.947   3.296   6.359 -0.5279  1.0014  2.2735
  749MOL0     H 1103   6.814   3.297   6.771  0.1971 -0.0921  0.2523
  749MOL0     H 1104   6.990   3.262   6.807  0.5675 -0.7599 -0.2971
  749MOL0     H 1105   6.957   3.039   6.758  0.8685  1.5448  1.2509
  749MOL0     H 1106   6.784   3.051   6.713  1.1626 -2.6646  0.9551
  749MOL0     H 1107   6.719   3.107   6.934  0.9065  1.6427  1.6946
  749MOL0     H 1108   6.880   3.129   6.989 -1.0648 -1.6448  1.3250
  749MOL0     H 1109   6.762   2.908   7.056 -0.1637  3.8946  0.5086
  749MOL0     H 1110   6.797   2.853   6.887 -0.2160  0.6083  0.1993
  749MOL0     H 1111   7.177   2.827   7.060  1.6190  1.0651 -3.2428
  749MOL0     H 1112   7.054   3.474   6.730 -0.7882 -0.7425 -0.3159
  749MOL0     H 1113   7.101   3.754   6.662 -2.3140  1.3791 -2.7282
  749MOL0     H 1114   7.255   3.671   6.696 -0.8519 -0.2265 -0.4222
  749MOL0     H 1115   7.235   3.768   6.554 -0.0517  1.9043  2.3968
  750MOL0     O 1116   8.203   8.239   3.613  0.1490  0.4644  0.1019
  750MOL0     C 1117   8.206   8.362   3.629 -0.2320  0.0476  0.2545
  750MOL0     O 1118   8.315   8.439   3.601 -0.0453 -0.3996  0.5136
  750MOL0     C 1119   8.418   8.385   3.537 -0.7685 -0.4481  0.1387
  750MOL0     C 1120   8.474   8.256   3.557  1.0634 -1.2643  0.5857
  750MOL0     C 1121   8.588   8.214   3.494 -0.1230 -1.1738 -0.2226
  750MOL0     C 1122   8.661   8.297   3.408 -0.5866 -0.8441  0.5092
  750MOL0     O 1123   8.782   8.257   3.355  0.0428  1.1318  0.1401
  750MOL0     C 1124   8.894   8.345   3.373  0.1488  0.0092 -0.1240
  750MOL0     C 1125   9.023   8.275   3.323 -0.1451 -0.5172 -0.0269
  750MOL0     C 1126   9.055   8.146   3.396  0.7506 -0.3378 -0.0021
  750MOL0     C 1127   9.192   8.096   3.355  0.3444  0.6407 -0.2474
  750MOL0     C 1128   9.309   8.190   3.403 -0.5003 -0.1769 -1.0345
  750MOL0     C 1129   9.440   8.111   3.408  0.1959 -0.5125 -0.3890
  750MOL0     C 1130   9.479   8.083   3.268 -0.2861  0.3942  0.7959
  750MOL0     C 1131   9.627   8.074   3.232  0.5686  0.2024  0.4073
  750MOL0     N 1132   9.698   7.967   3.302 -0.5171 -0.3135  0.4435
  750MOL0     C 1133   9.680   7.841   3.266 -1.2053  0.2146  0.5007
  750MOL0     C 1134   9.793   7.772   3.297  0.2288 -0.0185  0.7720
  750MOL0     C 1135   9.824   7.622   3.303 -0.7435 -0.7970 -0.0125
  750MOL0     C 1136   9.787   7.546   3.176 -0.5315  0.1439  0.0085
  750MOL0     C 1137   9.820   7.401   3.199 -0.9430  0.8945  0.3094
  750MOL0     C 1138   9.773   7.331   3.327  0.8488 -0.0159 -0.6643
  750MOL0     O 1139   9.633   7.330   3.357  0.0386  0.1877  0.1018
  750MOL0     C 1140   9.575   7.235   3.439 -0.4816  0.4843  0.8801
  750MOL0     C 1141   9.653   7.157   3.523  0.6929  0.5488  0.0776
  750MOL0     C 1142   9.582   7.063   3.605 -0.7109 -0.4975  0.5717
  750MOL0     C 1143   9.442   7.049   3.592  0.3007  0.2522  0.2556
  750MOL0     C 1144   9.367   6.947   3.668  0.1780 -1.1456  0.6976
  750MOL0     O 1145   9.230   6.934   3.645 -0.2172  0.0013  0.1123
  750MOL0     C 1146   9.151   6.840   3.709  0.4719 -0.5149  0.6671
  750MOL0     C 1147   9.193   6.725   3.790 -0.4868 -0.6435  0.6652
  750MOL0     C 1148   9.093   6.638   3.844 -0.4331 -0.0284 -0.6643
  750MOL0     C 1149   8.964   6.665   3.833 -0.6387 -0.2043  0.8377
  750MOL0     O 1150   8.870   6.590   3.894 -0.3299  0.8406  0.2675
  750MOL0     C 1151   8.889   6.445   3.900 -0.2635  1.0434 -0.6235
  750MOL0     C 1152   8.756   6.375   3.881  0.4576 -0.2276  0.6641
  750MOL0     C 1153   8.658   6.428   3.787 -0.2482  0.3876  0.6950
  750MOL0     C 1154   8.720   6.412   3.644 -0.5200  0.1950 -0.2479
  750MOL0     C 1155   8.640   6.492   3.539  1.3253 -0.4759 -0.4430
  750MOL0     C 1156   8.486   6.459   3.541 -0.7660  0.1230 -0.5075
  750MOL0     C 1157   8.430   6.474   3.395 -0.6928  0.3323 -0.2294
  750MOL0     C 1158   8.284   6.439   3.385  1.1503  0.1046 -0.7704
  750MOL0    Cl 1159   8.251   6.265   3.423 -0.0232 -0.4289 -0.0276
  750MOL0     C 1160   8.922   6.773   3.761 -0.2913  0.9069  0.4167
  750MOL0     C 1161   9.012   6.864   3.708  0.1417  0.1835 -0.1236
  750MOL0     O 1162   9.435   6.882   3.747  0.1940 -0.0022 -0.2597
  750MOL0     C 1163   9.369   7.140   3.514 -0.6997 -0.8016 -1.0471
  750MOL0     C 1164   9.440   7.226   3.441 -0.2902 -0.4604 -0.4153
  750MOL0     N 1165   9.873   7.871   3.365  0.0021  0.4141 -0.3180
  750MOL0     N 1166   9.828   7.984   3.347  0.2273  0.5978 -0.0655
  750MOL0     C 1167   8.613   8.423   3.383  0.1085 -0.6535 -0.1567
  750MOL0     C 1168   8.494   8.464   3.445 -0.0591  0.1623 -0.9385
  750MOL0     C 1169   8.089   8.418   3.704 -0.9800  0.3060 -1.3224
  750MOL0     C 1170   7.979   8.335   3.736 -0.0780  0.4290  0.3462
  750MOL0     C 1171   7.869   8.386   3.804  0.1877  0.3178  0.0262
  750MOL0     C 1172   7.863   8.524   3.834 -0.0965  0.0320  0.1078
  750MOL0     O 1173   7.762   8.581   3.902 -0.2816  0.5093 -0.9323
  750MOL0     C 1174   7.652   8.497   3.948 -0.0813 -0.2317  1.0336
  750MOL0     C 1175   7.533   8.591   3.983 -0.5325  0.0699  0.0664
  750MOL0     C 1176   7.427   8.608   3.875  0.9007 -0.2281 -0.2088
  750MOL0     C 1177   7.476   8.682   3.750  0.6569  0.7029  0.2501
  750MOL0     C 1178   7.370   8.736   3.669 -0.6434 -0.9012  0.1506
  750MOL0     C 1179   7.291   8.784   3.590  0.1898 -0.7583 -0.1097
  750MOL0     C 1180   7.970   8.612   3.800 -0.0523 -0.4097  0.0042
  750MOL0     C 1181   8.085   8.566   3.733  0.0584  1.2163  0.1195
  750MOL0     C 1182   8.195   8.662   3.704  0.1817  0.6808 -0.4298
  750MOL0     H 1183   8.434   8.177   3.620 -0.0017 -0.9244  0.3506
  750MOL0     H 1184   8.637   8.119   3.511  1.8174  0.0982  1.9112
  750MOL0     H 1185   8.874   8.436   3.317  1.1575 -2.1563 -4.4799
  750MOL0     H 1186   8.893   8.366   3.481 -1.8271  0.2437 -0.1592
  750MOL0     H 1187   9.106   8.345   3.335 -2.7610  2.4488  2.6421
  750MOL0     H 1188   9.005   8.251   3.217  3.0231 -0.4896 -0.6804
  750MOL0     H 1189   8.975   8.078   3.366  1.5446 -0.4281 -2.0397
  750MOL0     H 1190   9.052   8.168   3.503  1.0798  0.8963 -0.2278
  750MOL0     H 1191   9.212   7.998   3.400  1.0653  1.2478  0.8147
  750MOL0     H 1192   9.202   8.091   3.247  4.2176  1.1132 -0.0600
  750MOL0     H 1193   9.312   8.268   3.326 -0.6476  0.8551 -0.0219
  750MOL0     H 1194   9.288   8.241   3.498 -0.3106  1.6712 -1.9349
  750MOL0     H 1195   9.518   8.164   3.463  0.3038  1.8834 -2.6545
  750MOL0     H 1196   9.431   8.017   3.463 -1.7189 -0.4428 -0.5373
  750MOL0     H 1197   9.434   8.156   3.201  1.5346  1.0188  0.1731
  750MOL0     H 1198   9.425   7.997   3.227  2.8933  0.0502 -3.4130
  750MOL0     H 1199   9.635   8.056   3.124  1.7583 -1.6343  0.7708
  750MOL0     H 1200   9.668   8.173   3.254  2.3799  0.2144 -2.5063
  750MOL0     H 1201   9.589   7.805   3.220 -1.3055  0.9373  0.1121
  750MOL0     H 1202   9.929   7.608   3.331 -1.7153 -5.4014  2.4321
  750MOL0     H 1203   9.766   7.588   3.390 -0.3689  1.3218  1.1391
  750MOL0     H 1204   9.682   7.557   3.147 -0.8899  1.6524  1.7057
  750MOL0     H 1205   9.862   7.584   3.106  3.3117  0.3909  3.8493
  750MOL0     H 1206   9.928   7.382   3.199 -1.4389 -2.6959  1.5711
  750MOL0     H 1207   9.770   7.338   3.126 -0.4254  0.7486  0.0753
  750MOL0     H 1208   9.834   7.370   3.409  0.5860  3.5694 -1.9958
  750MOL0     H 1209   9.802   7.226   3.312 -1.2674 -0.6193 -0.8234
  750MOL0     H 1210   9.761   7.161   3.534  0.4397  0.5391  3.8707
  750MOL0     H 1211   9.636   6.999   3.675 -1.7668  1.1382  3.0279
  750MOL0     H 1212   9.296   6.695   3.804 -0.3141 -0.2014  0.3685
  750MOL0     H 1213   9.129   6.554   3.902 -0.1259  0.5715  0.0274
  750MOL0     H 1214   8.948   6.403   3.818 -0.6153 -2.6843  0.8351
  750MOL0     H 1215   8.943   6.422   3.993 -0.1490  2.4830 -0.3085
  750MOL0     H 1216   8.760   6.269   3.853 -2.2020  0.3388 -2.4490
  750MOL0     H 1217   8.706   6.398   3.976  3.0591  3.0510  1.4121
  750MOL0     H 1218   8.567   6.368   3.797  0.1933 -0.1377  1.6477
  750MOL0     H 1219   8.634   6.533   3.807 -1.6807 -0.1048  1.6537
  750MOL0     H 1220   8.731   6.312   3.600 -2.4880 -0.1670  0.0086
  750MOL0     H 1221   8.817   6.463   3.647  0.0986 -0.9958  1.4962
  750MOL0     H 1222   8.676   6.462   3.440  1.8203 -1.4261  0.0152
  750MOL0     H 1223   8.637   6.601   3.551 -6.2225 -0.3110  1.3409
  750MOL0     H 1224   8.478   6.357   3.578 -1.5799 -0.4713 -2.1988
  750MOL0     H 1225   8.442   6.537   3.603  3.1178  1.4093  0.9735
  750MOL0     H 1226   8.479   6.398   3.332 -2.2568 -2.2939  1.5256
  750MOL0     H 1227   8.451   6.579   3.370  2.6455  0.0778  0.9562
  750MOL0     H 1228   8.227   6.493   3.461  0.7689  0.4461 -1.2864
  750MOL0     H 1229   8.244   6.469   3.287 -3.6315  0.6580  1.0798
  750MOL0     H 1230   8.816   6.774   3.742 -0.2583 -1.3157 -0.2433
  750MOL0     H 1231   8.981   6.948   3.647  0.5241 -0.2437 -0.9261
  750MOL0     H 1232   9.262   7.134   3.499 -1.3780  0.7141  2.2691
  750MOL0     H 1233   9.379   7.294   3.382 -0.7308  1.4185  2.0241
  750MOL0     H 1234   8.667   8.480   3.308  0.8410 -1.2359 -0.0819
  750MOL0     H 1235   8.451   8.561   3.420  0.5059  0.6057 -0.2335
  750MOL0     H 1236   7.979   8.229   3.711  0.0095  0.4717  0.1606
  750MOL0     H 1237   7.796   8.318   3.846  2.2396 -2.6054 -0.8427
  750MOL0     H 1238   7.681   8.446   4.041 -2.3802  0.6002  2.2908
  750MOL0     H 1239   7.629   8.422   3.873 -0.5672  1.5863 -0.7141
  750MOL0     H 1240   7.574   8.687   4.018 -1.0870  0.6676 -0.8830
  750MOL0     H 1241   7.487   8.539   4.067  3.9896 -0.3026  2.6245
  750MOL0     H 1242   7.343   8.668   3.911  0.1939 -1.1801 -0.2410
  750MOL0     H 1243   7.371   8.516   3.857 -0.1911  0.4661 -0.4432
  750MOL0     H 1244   7.536   8.764   3.790 -0.2668  1.5908 -0.1407
  750MOL0     H 1245   7.539   8.612   3.695  0.7058 -0.6744  1.9806
  750MOL0     H 1246   7.216   8.823   3.524 -0.2137 -1.6687 -0.2075
  750MOL0     H 1247   7.959   8.716   3.828  4.8712  0.8728 -1.8307
  750MOL0     H 1248   8.205   8.672   3.595 -2.3222  1.4252 -0.6538
  750MOL0     H 1249   8.167   8.762   3.736  0.0519  0.8021 -0.9015
  750MOL0     H 1250   8.294   8.647   3.747  0.1052  1.7983  0.1506
  751MOL0     O 1251   8.819   0.341   4.029 -0.0233 -0.1788 -0.5661
  751MOL0     C 1252   8.811   0.301   3.913  0.5950  0.1315 -0.0885
  751MOL0     O 1253   8.728   0.205   3.871 -0.3129 -0.3587  0.4018
  751MOL0     C 1254   8.653   0.148   3.968 -0.1598  0.5259 -0.0209
  751MOL0     C 1255   8.551   0.216   4.034 -0.2754 -0.0671 -0.3513
  751MOL0     C 1256   8.483   0.158   4.139 -0.3149 -0.5602 -0.8488
  751MOL0     C 1257   8.498   0.020   4.172 -0.6636  0.0341 -0.3823
  751MOL0     O 1258   8.416  -0.038   4.268 -0.2688 -0.0895 -0.6908
  751MOL0     C 1259   8.407  -0.177   4.287  0.2554  0.3662 -0.1424
  751MOL0     C 1260   8.341  -0.218   4.417 -0.1244  0.2836 -0.0578
  751MOL0     C 1261   8.396  -0.144   4.540  0.9233  0.7264  0.1333
  751MOL0     C 1262   8.551  -0.140   4.559  0.5005  0.2951  1.1025
  751MOL0     C 1263   8.579  -0.091   4.700  1.0310 -0.1206 -0.4122
  751MOL0     C 1264   8.723  -0.115   4.743 -1.0987  0.7329  0.4881
  751MOL0     C 1265   8.835  -0.053   4.643  0.3799 -0.1566  0.0505
  751MOL0     C 1266   8.883   0.090   4.665  0.4772 -0.2451  1.4451
  751MOL0     N 1267   9.023   0.106   4.619 -0.1579 -0.7149 -0.5985
  751MOL0     C 1268   9.052   0.161   4.498 -0.5322 -0.4656 -0.3093
  751MOL0     C 1269   9.186   0.149   4.483  0.1611 -0.5098 -1.0170
  751MOL0     C 1270   9.252   0.176   4.349  0.0124 -0.0008  0.5458
  751MOL0     C 1271   9.286   0.040   4.282 -0.4971  0.0638 -1.0912
  751MOL0     C 1272   9.324   0.050   4.132  0.3552 -0.0951 -0.7235
  751MOL0     C 1273   9.399  -0.075   4.087 -0.2929  0.7453  0.3190
  751MOL0     O 1274   9.398  -0.097   3.949  1.1421  0.4600  0.7445
  751MOL0     C 1275   9.443   0.003   3.860 -0.3668 -0.1749 -0.4278
  751MOL0     C 1276   9.549   0.099   3.896  0.3030  0.0716 -0.7625
  751MOL0     C 1277   9.589   0.202   3.811 -0.5953  0.6789 -0.0616
  751MOL0     C 1278   9.549   0.189   3.678 -0.3792 -0.0922 -0.2893
  751MOL0     C 1279   9.591   0.299   3.589 -0.0271  1.2552  0.4458
  751MOL0     O 1280   9.710   0.361   3.615  0.0100 -0.0742 -0.5042
  751MOL0     C 1281   9.759   0.462   3.538 -0.2146 -0.0813  0.0869
  751MOL0     C 1282   9.679   0.555   3.475 -0.3344 -0.2517  0.2567
  751MOL0     C 1283   9.740   0.662   3.410 -0.4294 -0.5637 -0.7973
  751MOL0     C 1284   9.886   0.667   3.394 -0.9797 -0.3644 -0.5043
  751MOL0     O 1285   9.956   0.753   3.312 -0.1421  0.4032 -0.3752
  751MOL0     C 1286   9.884   0.815   3.201  0.1415  0.5857 -0.4418
  751MOL0     C 1287   9.968   0.864   3.084  0.0911 -0.5744 -0.7036
  751MOL0     C 1288  10.103   0.926   3.135  0.5131  0.8814 -0.2553
  751MOL0     C 1289  10.194   0.988   3.024 -0.9863  0.9321  0.0395
  751MOL0     C 1290  10.336   1.017   3.075 -0.3033  1.2286  0.0989
  751MOL0     C 1291  10.449   0.915   3.032  0.0464 -0.5784  0.1284
  751MOL0     C 1292  10.592   0.966   3.048 -0.1469 -0.3259  0.0301
  751MOL0     C 1293  10.630   0.996   3.199  0.3687  0.2433  0.6921
  751MOL0    Cl 1294  10.564   0.880   3.320  0.0432 -0.4583 -0.3060
  751MOL0     C 1295   9.961   0.575   3.468  0.5558 -0.4662 -0.1737
  751MOL0     C 1296   9.899   0.475   3.543  0.4227 -0.0826 -0.1804
  751MOL0     O 1297   9.508   0.331   3.511 -0.3173 -0.0460  0.3823
  751MOL0     C 1298   9.466   0.085   3.634  0.4262 -0.0701 -0.6355
  751MOL0     C 1299   9.407  -0.003   3.730 -0.0146 -0.2158 -0.2379
  751MOL0     N 1300   9.234   0.103   4.608  0.9346 -0.0258  0.6746
  751MOL0     N 1301   9.134   0.074   4.691  0.6335  0.1885  1.3754
  751MOL0     C 1302   8.602  -0.053   4.104 -0.1518 -0.4136  0.1627
  751MOL0     C 1303   8.672   0.011   4.006 -0.5910 -0.7271 -0.0752
  751MOL0     C 1304   8.899   0.371   3.805 -0.7035 -0.3749 -0.0372
  751MOL0     C 1305   8.853   0.479   3.726 -0.5095  0.0322 -0.6765
  751MOL0     C 1306   8.936   0.539   3.639 -0.0693 -0.5106 -0.4148
  751MOL0     C 1307   9.061   0.498   3.610 -0.3255  0.0843  0.3130
  751MOL0     O 1308   9.139   0.565   3.519  0.2229  0.9368 -0.4372
  751MOL0     C 1309   9.261   0.508   3.475 -0.6095 -0.0760 -0.5416
  751MOL0     C 1310   9.306   0.587   3.358  0.2031  0.8141  0.0854
  751MOL0     C 1311   9.221   0.546   3.245  0.4040 -0.0215  0.2564
  751MOL0     C 1312   9.241   0.639   3.120  0.2015 -0.2789 -0.0060
  751MOL0     C 1313   9.369   0.635   3.055  0.0531  0.7683  0.4328
  751MOL0     C 1314   9.477   0.616   3.015  0.9937  0.8236  0.0343
  751MOL0     C 1315   9.113   0.395   3.691 -0.1326  0.0834 -0.4856
  751MOL0     C 1316   9.032   0.323   3.780  0.0089  0.7822  1.1390
  751MOL0     C 1317   9.098   0.204   3.853 -0.7504  0.4812 -0.5297
  751MOL0     H 1318   8.535   0.321   4.011 -1.9394 -0.5285 -1.4328
  751MOL0     H 1319   8.409   0.199   4.206  0.3812 -2.6238  1.3239
  751MOL0     H 1320   8.363  -0.228   4.201  4.7114 -4.4588 -0.0987
  751MOL0     H 1321   8.507  -0.223   4.283 -1.2331 -3.3394  0.4810
  751MOL0     H 1322   8.368  -0.324   4.427 -1.3128 -0.0823 -0.4917
  751MOL0     H 1323   8.232  -0.211   4.425  0.1149  1.9445  3.5254
  751MOL0     H 1324   8.339  -0.202   4.614 -3.4442 -0.0745 -3.4694
  751MOL0     H 1325   8.357  -0.043   4.548 -0.0406  0.6981 -2.9378
  751MOL0     H 1326   8.590  -0.240   4.535 -2.5846 -1.2741  2.1019
  751MOL0     H 1327   8.586  -0.064   4.489 -0.1400  0.2501  0.7280
  751MOL0     H 1328   8.538   0.005   4.732 -1.8202 -2.2715  3.1292
  751MOL0     H 1329   8.523  -0.151   4.772  1.4196  0.6740  0.5755
  751MOL0     H 1330   8.737  -0.068   4.840  0.2580  0.8938  0.2358
  751MOL0     H 1331   8.757  -0.218   4.756  3.0835  1.8965  0.2558
  751MOL0     H 1332   8.801  -0.054   4.540  1.4828  0.6473 -0.3529
  751MOL0     H 1333   8.923  -0.118   4.646 -0.0545 -0.7353  0.4808
  751MOL0     H 1334   8.810   0.150   4.609  2.4644 -1.9143 -3.4127
  751MOL0     H 1335   8.887   0.117   4.771 -0.2212  0.0245  1.4095
  751MOL0     H 1336   8.987   0.201   4.420  0.5414  2.0664 -0.0159
  751MOL0     H 1337   9.184   0.233   4.284 -0.0298 -0.2439  0.3762
  751MOL0     H 1338   9.338   0.244   4.353  0.4978 -0.6571  2.0015
  751MOL0     H 1339   9.379   0.017   4.335 -1.3440  0.2628  0.5319
  751MOL0     H 1340   9.206  -0.032   4.300 -1.1405  1.1696  0.7808
  751MOL0     H 1341   9.405   0.121   4.116 -0.3670  0.9784  0.1986
  751MOL0     H 1342   9.238   0.064   4.066 -1.2609 -1.5636  0.9260
  751MOL0     H 1343   9.352  -0.161   4.136  0.0147  0.5334  0.2488
  751MOL0     H 1344   9.497  -0.090   4.132 -1.9064 -5.2337  2.8146
  751MOL0     H 1345   9.608   0.075   3.983 -1.4465 -0.8282  0.2270
  751MOL0     H 1346   9.665   0.277   3.832  1.3406 -1.3271  0.5495
  751MOL0     H 1347   9.571   0.548   3.484 -0.2810 -0.3146  0.8436
  751MOL0     H 1348   9.671   0.728   3.357  0.0282  0.3766 -0.2469
  751MOL0     H 1349   9.806   0.749   3.163 -0.4449 -0.0675  1.7317
  751MOL0     H 1350   9.830   0.898   3.248  1.2443  0.9590  0.2057
  751MOL0     H 1351   9.997   0.783   3.017 -3.2942 -1.7372 -0.9365
  751MOL0     H 1352   9.912   0.944   3.036  0.4388  0.9786  1.3509
  751MOL0     H 1353  10.089   0.992   3.221  1.1288  0.1596  0.4172
  751MOL0     H 1354  10.150   0.833   3.169 -4.2019 -1.6973  0.1025
  751MOL0     H 1355  10.134   1.070   2.985  0.4065  1.6554 -0.6285
  751MOL0     H 1356  10.212   0.917   2.943 -0.2577  2.1724 -0.9086
  751MOL0     H 1357  10.332   1.027   3.184 -0.2966 -3.8407  0.8143
  751MOL0     H 1358  10.366   1.113   3.032 -1.6859  0.8868 -1.6921
  751MOL0     H 1359  10.437   0.813   3.070 -2.2830  0.0982  1.3673
  751MOL0     H 1360  10.423   0.903   2.926 -0.3532 -0.7730  0.2490
  751MOL0     H 1361  10.602   1.054   2.985  1.0678 -1.6970 -1.8132
  751MOL0     H 1362  10.661   0.891   3.008 -1.5588 -1.1392 -0.9606
  751MOL0     H 1363  10.739   0.986   3.200  0.4660  1.2643  1.5961
  751MOL0     H 1364  10.596   1.097   3.222 -1.3498 -0.1297  0.0030
  751MOL0     H 1365  10.069   0.588   3.464  0.8075 -1.5914  1.9837
  751MOL0     H 1366   9.949   0.394   3.594  0.0841 -0.1249  0.0914
  751MOL0     H 1367   9.446   0.074   3.528  1.7979 -1.2437 -0.8056
  751MOL0     H 1368   9.323  -0.069   3.714 -1.7253  1.0937  2.5400
  751MOL0     H 1369   8.614  -0.160   4.124  0.2480 -0.6424 -1.2101
  751MOL0     H 1370   8.749  -0.051   3.961  0.3532 -0.7500  1.4848
  751MOL0     H 1371   8.755   0.521   3.747 -0.6353  0.0744 -1.3263
  751MOL0     H 1372   8.897   0.626   3.587  1.7005 -0.8180 -2.3937
  751MOL0     H 1373   9.245   0.406   3.439 -3.1424  0.1861 -0.3974
  751MOL0     H 1374   9.337   0.506   3.554 -2.2443  0.4402  1.1491
  751MOL0     H 1375   9.410   0.572   3.329 -0.7499 -1.9384 -2.3700
  751MOL0     H 1376   9.294   0.695   3.372 -1.0768  0.3763  3.3841
  751MOL0     H 1377   9.116   0.557   3.275  1.0225  2.3825  1.7657
  751MOL0     H 1378   9.255   0.444   3.225  0.2505  0.2885 -1.7651
  751MOL0     H 1379   9.167   0.620   3.042 -0.5749 -1.6765  1.0274
  751MOL0     H 1380   9.233   0.742   3.158 -1.3269 -0.0770 -0.7837
  751MOL0     H 1381   9.580   0.612   2.984  0.5906  1.1318 -1.4530
  751MOL0     H 1382   9.210   0.349   3.682 -0.7559 -2.1607  2.5775
  751MOL0     H 1383   9.132   0.131   3.778 -0.4728  1.7532 -1.6778
  751MOL0     H 1384   9.181   0.230   3.918 -1.1923  1.1035 -0.2125
  751MOL0     H 1385   9.016   0.159   3.910  2.2554 -4.6430  0.4237
  752MOL0     O 1386   3.311   0.444   1.660 -0.2412  0.7611  0.5556
  752MOL0     C 1387   3.314   0.372   1.759 -2.0253 -0.3464 -0.6885
  752MOL0     O 1388   3.246   0.261   1.780 -0.4400  0.9288 -0.1063
  752MOL0     C 1389   3.122   0.229   1.719 -1.0178 -0.0318  0.2987
  752MOL0     C 1390   3.032   0.322   1.689  0.5044 -0.1694  0.0972
  752MOL0     C 1391   2.905   0.291   1.655  0.5701  0.2670  0.5350
  752MOL0     C 1392   2.870   0.156   1.648 -0.4569  0.4434  0.9127
  752MOL0     O 1393   2.736   0.130   1.613  0.3629  0.7841  0.3267
  752MOL0     C 1394   2.694  -0.003   1.594 -0.5388  0.8863 -0.1174
  752MOL0     C 1395   2.546  -0.016   1.546 -0.2578  0.4072  0.6330
  752MOL0     C 1396   2.537   0.055   1.404 -0.6476 -0.4547  0.8146
  752MOL0     C 1397   2.405   0.036   1.329  0.1456  0.1131 -0.0726
  752MOL0     C 1398   2.404  -0.044   1.195  0.4499 -0.6583  0.0203
  752MOL0     C 1399   2.435  -0.190   1.201 -0.0709  1.0374 -0.2299
  752MOL0     C 1400   2.587  -0.213   1.201  0.0511 -0.5446  0.5422
  752MOL0     C 1401   2.630  -0.355   1.223 -0.5791 -0.9525  0.3930
  752MOL0     N 1402   2.597  -0.401   1.356 -1.0969 -0.1059 -0.0755
  752MOL0     C 1403   2.682  -0.367   1.464  0.5732  0.1017 -0.2110
  752MOL0     C 1404   2.621  -0.406   1.571  0.1143  0.2892  0.0565
  752MOL0     C 1405   2.660  -0.372   1.718 -0.3107 -0.2209 -0.6677
  752MOL0     C 1406   2.741  -0.495   1.774  0.2542  0.0879  1.1051
  752MOL0     C 1407   2.672  -0.626   1.761  0.0043  0.7199  0.3194
  752MOL0     C 1408   2.551  -0.648   1.856 -0.9804  0.1804  0.0670
  752MOL0     O 1409   2.483  -0.770   1.811  0.8963 -0.8400 -0.4343
  752MOL0     C 1410   2.353  -0.764   1.833  0.4486  0.2950  1.2432
  752MOL0     C 1411   2.283  -0.869   1.893 -0.3000  0.2736 -0.7510
  752MOL0     C 1412   2.145  -0.867   1.912 -0.8809 -0.1034  0.2014
  752MOL0     C 1413   2.066  -0.764   1.859  0.9742  0.3636  0.2261
  752MOL0     C 1414   1.923  -0.759   1.886 -0.0050 -0.3651 -0.4118
  752MOL0     O 1415   1.873  -0.875   1.930 -0.2625  0.1630  0.5669
  752MOL0     C 1416   1.745  -0.895   1.956 -0.0113  0.6667  0.5804
  752MOL0     C 1417   1.714  -0.969   2.070 -0.7476 -0.2045 -0.0109
  752MOL0     C 1418   1.586  -1.004   2.113  0.1193  0.0447 -0.1180
  752MOL0     C 1419   1.480  -0.978   2.021  0.4493  0.6799 -0.5025
  752MOL0     O 1420   1.342  -1.007   2.038  0.4822 -0.3745 -0.6371
  752MOL0     C 1421   1.310  -1.082   2.156 -0.6343 -0.3844  0.8430
  752MOL0     C 1422   1.168  -1.120   2.152  0.3037 -0.1992  0.3077
  752MOL0     C 1423   1.151  -1.251   2.224 -0.1197  0.5815 -1.2044
  752MOL0     C 1424   1.162  -1.239   2.377 -0.0060  0.0858  0.7984
  752MOL0     C 1425   1.170  -1.378   2.450  1.5196 -0.7384 -0.1826
  752MOL0     C 1426   1.061  -1.473   2.400  0.1546 -0.8390 -0.4001
  752MOL0     C 1427   1.065  -1.589   2.504  0.1667  0.2664 -0.2107
  752MOL0     C 1428   0.986  -1.711   2.454  0.7452  0.2548 -0.1676
  752MOL0    Cl 1429   0.824  -1.663   2.387 -0.3270  0.5557  0.2356
  752MOL0     C 1430   1.509  -0.902   1.909  0.3159 -1.0496  0.2947
  752MOL0     C 1431   1.635  -0.856   1.872 -0.6067  0.4454  0.0326
  752MOL0     O 1432   1.862  -0.653   1.859  0.2128  0.0999  0.1418
  752MOL0     C 1433   2.136  -0.670   1.780  0.8043 -0.1935  1.0335
  752MOL0     C 1434   2.274  -0.669   1.761 -0.1370 -0.6737 -0.2765
  752MOL0     N 1435   2.500  -0.456   1.529 -0.1912  0.4740  0.3705
  752MOL0     N 1436   2.484  -0.443   1.404  0.2025  0.5740  0.4776
  752MOL0     C 1437   2.971   0.058   1.675  0.8301  0.6277 -0.4957
  752MOL0     C 1438   3.095   0.093   1.712  0.5339  0.7446 -0.2855
  752MOL0     C 1439   3.400   0.435   1.861 -0.6780 -0.3971 -0.8476
  752MOL0     C 1440   3.357   0.420   1.994 -0.4194 -0.1101  0.5539
  752MOL0     C 1441   3.428   0.478   2.097 -0.5272  0.2423 -0.0328
  752MOL0     C 1442   3.556   0.542   2.081  0.1020 -0.1826 -0.0738
  752MOL0     O 1443   3.627   0.596   2.188 -0.5741  0.2525  0.1292
  752MOL0     C 1444   3.747   0.676   2.165 -0.3029 -0.3073  1.2532
  752MOL0     C 1445   3.809   0.730   2.295  0.5210  0.5702 -0.4289
  752MOL0     C 1446   3.892   0.634   2.385 -0.7268 -0.5232 -0.6755
  752MOL0     C 1447   3.791   0.577   2.489 -0.3410 -0.2697 -0.5311
  752MOL0     C 1448   3.858   0.481   2.569 -0.3365  1.2438 -0.5033
  752MOL0     C 1449   3.928   0.404   2.634  0.0589  0.1008 -0.1695
  752MOL0     C 1450   3.596   0.557   1.945 -0.2097 -0.1724 -0.6389
  752MOL0     C 1451   3.519   0.507   1.841 -0.6570 -0.4348  0.0428
  752MOL0     C 1452   3.587   0.525   1.708 -0.1693 -0.3806  0.5920
  752MOL0     H 1453   3.061   0.426   1.687 -1.9740  0.5653 -0.7295
  752MOL0     H 1454   2.833   0.368   1.628  0.2794  0.1003  0.8343
  752MOL0     H 1455   2.762  -0.055   1.526 -1.1820 -0.1828  0.0418
  752MOL0     H 1456   2.696  -0.053   1.691  0.7453 -1.9092 -1.4829
  752MOL0     H 1457   2.491   0.024   1.632  1.8978 -1.4553  2.9921
  752MOL0     H 1458   2.510  -0.118   1.530  4.3369 -0.9298 -3.5283
  752MOL0     H 1459   2.627   0.043   1.343 -0.7333  0.5558  0.4660
  752MOL0     H 1460   2.536   0.164   1.414 -4.1670 -0.2279 -0.4755
  752MOL0     H 1461   2.335  -0.012   1.398  1.1267 -0.4799  0.5564
  752MOL0     H 1462   2.356   0.132   1.314  0.6158  0.4411  0.4270
  752MOL0     H 1463   2.300  -0.037   1.159  0.2588 -1.8575  0.3233
  752MOL0     H 1464   2.462   0.004   1.115  0.9061 -0.6708  0.3407
  752MOL0     H 1465   2.378  -0.229   1.286 -0.1085  0.7852 -0.3694
  752MOL0     H 1466   2.396  -0.241   1.113 -2.2730 -0.0312  1.2579
  752MOL0     H 1467   2.628  -0.149   1.280  1.5917 -0.5847 -0.1825
  752MOL0     H 1468   2.627  -0.182   1.104 -1.7140  0.4326  0.0678
  752MOL0     H 1469   2.572  -0.415   1.152 -0.2296 -2.7781  1.5951
  752MOL0     H 1470   2.736  -0.363   1.197 -1.4138 -0.0477 -4.1810
  752MOL0     H 1471   2.778  -0.316   1.462  0.4657  0.3203 -2.4033
  752MOL0     H 1472   2.718  -0.280   1.724 -1.8150  0.7344  0.0108
  752MOL0     H 1473   2.563  -0.373   1.770  0.3248  0.0328  0.5559
  752MOL0     H 1474   2.831  -0.512   1.714 -1.2011 -0.3196 -1.0483
  752MOL0     H 1475   2.762  -0.475   1.880  1.1013  0.2120  0.9250
  752MOL0     H 1476   2.744  -0.708   1.773  0.3851  1.3661  3.0380
  752MOL0     H 1477   2.635  -0.645   1.659 -0.5337 -0.3681  0.6974
  752MOL0     H 1478   2.484  -0.562   1.857 -2.1127 -0.6739  1.9939
  752MOL0     H 1479   2.585  -0.666   1.959 -2.3666 -1.2832  0.3162
  752MOL0     H 1480   2.333  -0.957   1.933 -0.9147 -0.3892 -1.4234
  752MOL0     H 1481   2.095  -0.943   1.971 -1.3825 -0.8066 -1.0803
  752MOL0     H 1482   1.801  -0.991   2.131  0.1721  0.3409 -1.0987
  752MOL0     H 1483   1.579  -1.060   2.205 -1.6553  0.7312  0.1950
  752MOL0     H 1484   1.379  -1.167   2.159  2.4675  1.8553  5.5780
  752MOL0     H 1485   1.328  -1.032   2.252  0.0201  1.0806 -0.0137
  752MOL0     H 1486   1.118  -1.038   2.204  0.9619  0.1969  0.3196
  752MOL0     H 1487   1.137  -1.129   2.047 -1.7817  0.8246  0.7846
  752MOL0     H 1488   1.049  -1.282   2.201 -0.7683  2.0989 -0.5035
  752MOL0     H 1489   1.226  -1.326   2.197  1.2402  1.9791 -1.4582
  752MOL0     H 1490   1.076  -1.185   2.417  0.4130  2.0125 -0.7465
  752MOL0     H 1491   1.251  -1.187   2.412 -0.5498  0.7653  1.1890
  752MOL0     H 1492   1.161  -1.349   2.555  1.4201  0.6190 -0.5488
  752MOL0     H 1493   1.266  -1.429   2.440  1.2071 -0.9567 -2.4709
  752MOL0     H 1494   0.972  -1.416   2.374  2.0389  0.7331 -4.1944
  752MOL0     H 1495   1.093  -1.512   2.303  3.3824 -1.6451  0.8346
  752MOL0     H 1496   1.014  -1.573   2.599 -1.6294 -0.6626 -0.9588
  752MOL0     H 1497   1.170  -1.611   2.522  0.6411  1.3472 -1.4609
  752MOL0     H 1498   1.047  -1.769   2.384 -1.3037 -2.1706 -0.0788
  752MOL0     H 1499   0.964  -1.768   2.544  2.3174  2.4502  1.7418
  752MOL0     H 1500   1.424  -0.888   1.843  0.2098  0.4429  0.7127
  752MOL0     H 1501   1.659  -0.802   1.782 -0.2100  2.8915  1.5029
  752MOL0     H 1502   2.079  -0.594   1.726  0.2072 -1.8938 -0.8385
  752MOL0     H 1503   2.322  -0.599   1.693 -0.0221 -2.1133 -1.7477
  752MOL0     H 1504   2.944  -0.048   1.676  1.5999  0.3196  3.4814
  752MOL0     H 1505   3.178   0.024   1.724 -0.3824 -1.3436 -4.1443
  752MOL0     H 1506   3.269   0.360   2.014  0.0032 -0.3218  1.8451
  752MOL0     H 1507   3.394   0.476   2.200 -1.4889  0.0510 -0.3358
  752MOL0     H 1508   3.720   0.768   2.112  4.1447  0.3107 -0.4202
  752MOL0     H 1509   3.819   0.619   2.106  0.0840  0.0852  1.3327
  752MOL0     H 1510   3.727   0.776   2.351  0.7658  0.2066  0.2277
  752MOL0     H 1511   3.871   0.809   2.250 -1.6206  2.2590 -0.5780
  752MOL0     H 1512   3.977   0.677   2.439 -0.5491 -3.2272  1.4306
  752MOL0     H 1513   3.938   0.544   2.342  0.9367 -0.2389  0.4075
  752MOL0     H 1514   3.745   0.642   2.564  1.4221  0.0227  0.3497
  752MOL0     H 1515   3.712   0.523   2.436  0.1422  0.6924 -2.3125
  752MOL0     H 1516   3.980   0.338   2.699 -2.0814 -0.0029  1.5537
  752MOL0     H 1517   3.689   0.608   1.920 -1.0458  1.2857 -0.8808
  752MOL0     H 1518   3.558   0.444   1.640  0.4218  1.6943 -2.3029
  752MOL0     H 1519   3.534   0.614   1.675 -1.2515 -0.9334  0.7793
  752MOL0     H 1520   3.693   0.550   1.716 -0.0027 -0.4315 -1.2010
  753MOL0     O 1521   2.073  10.890   6.681  0.1660 -0.6672 -0.1046
  753MOL0     C 1522   2.015  10.927   6.577 -0.3736 -0.1897  0.0906
  753MOL0     O 1523   2.043  10.880   6.450  0.2089  0.9486 -0.1893
  753MOL0     C 1524   2.132  10.766   6.458  0.2825  0.0699  0.1509
  753MOL0     C 1525   2.085  10.636   6.484 -0.3629 -1.1867  0.1587
  753MOL0     C 1526   2.179  10.540   6.518  0.3016  0.8652 -0.7534
  753MOL0     C 1527   2.313  10.565   6.522  0.3539 -1.3630 -0.8375
  753MOL0     O 1528   2.410  10.475   6.558  0.3801 -0.2556  0.4110
  753MOL0     C 1529   2.535  10.506   6.613  0.0970 -0.0683  1.4537
  753MOL0     C 1530   2.604  10.378   6.648 -0.2997 -0.1846 -0.6980
  753MOL0     C 1531   2.755  10.387   6.682 -0.4608  0.6545 -0.9046
  753MOL0     C 1532   2.784  10.459   6.820 -0.0316 -0.2449 -0.3982
  753MOL0     C 1533   2.938  10.489   6.822  0.2080  0.0205  0.1721
  753MOL0     C 1534   2.971  10.537   6.956  0.1062  0.2582 -1.1708
  753MOL0     C 1535   3.112  10.591   6.974  0.3952  0.0043 -0.1892
  753MOL0     C 1536   3.116  10.745   6.931 -1.1205 -0.2564  0.6006
  753MOL0     N 1537   3.093  10.846   7.040 -0.2476  0.4881 -0.0672
  753MOL0     C 1538   2.987  10.846   7.138 -0.2579 -0.0935 -0.0280
  753MOL0     C 1539   3.027  10.955   7.216  0.9488  1.0905 -0.0886
  753MOL0     C 1540   2.936  11.010   7.334 -0.2276  0.7588  0.8094
  753MOL0     C 1541   2.864  11.146   7.291  0.4910 -0.2026 -0.1247
  753MOL0     C 1542   2.953  11.277   7.310  0.8335  0.4146  0.0754
  753MOL0     C 1543   2.938  11.380   7.201  0.6311  0.2235 -0.5432
  753MOL0     O 1544   2.796  11.418   7.196 -0.4585  0.0762 -1.1552
  753MOL0     C 1545   2.767  11.503   7.091 -0.0437  0.2237  0.7590
  753MOL0     C 1546   2.630  11.526   7.085 -0.9643 -0.4033 -0.9328
  753MOL0     C 1547   2.577  11.601   6.986  0.6076 -0.2987  0.3932
  753MOL0     C 1548   2.664  11.663   6.887 -0.3810  0.3630 -0.9587
  753MOL0     C 1549   2.611  11.759   6.792 -0.0865 -0.4272  0.1454
  753MOL0     O 1550   2.486  11.795   6.816  0.0878 -0.7201 -0.0607
  753MOL0     C 1551   2.437  11.923   6.778 -0.2498 -0.2880  0.1539
  753MOL0     C 1552   2.438  12.032   6.872 -0.0803 -0.5511 -0.1284
  753MOL0     C 1553   2.395  12.166   6.843 -0.7052  0.3612  0.6712
  753MOL0     C 1554   2.338  12.189   6.714 -0.4558  0.2940  0.4988
  753MOL0     O 1555   2.289  12.316   6.695  0.6738  0.2320 -0.3569
  753MOL0     C 1556   2.162  12.313   6.625  0.0135 -0.7913 -0.6162
  753MOL0     C 1557   2.079  12.413   6.688 -0.2115  0.6922 -0.3612
  753MOL0     C 1558   2.118  12.561   6.687  0.1451 -0.7646 -0.1209
  753MOL0     C 1559   2.214  12.594   6.568 -0.9420  0.1152  0.3091
  753MOL0     C 1560   2.251  12.738   6.570 -0.3398 -0.2011  0.0532
  753MOL0     C 1561   2.326  12.770   6.691 -0.3114 -0.2950  0.2986
  753MOL0     C 1562   2.429  12.881   6.664  1.1144 -0.7290  0.3660
  753MOL0     C 1563   2.562  12.858   6.597 -0.1439  0.4285  0.2291
  753MOL0    Cl 1564   2.664  13.005   6.576  0.1371  0.0175  0.0490
  753MOL0     C 1565   2.323  12.078   6.624 -0.1755  0.5975 -0.3728
  753MOL0     C 1566   2.373  11.952   6.659  0.5448  1.2211 -0.4335
  753MOL0     O 1567   2.678  11.797   6.689 -0.0187  0.3211  0.2057
  753MOL0     C 1568   2.798  11.630   6.887  0.0380  0.0290  0.0791
  753MOL0     C 1569   2.847  11.550   6.984 -0.1487 -0.6434 -0.3192
  753MOL0     N 1570   3.147  11.004   7.172  0.1457  1.0073 -0.0573
  753MOL0     N 1571   3.172  10.946   7.061  1.0757  0.4320 -0.0993
  753MOL0     C 1572   2.360  10.694   6.478  0.1559  1.1491  0.4244
  753MOL0     C 1573   2.264  10.790   6.442  0.0731  0.4207 -0.6176
  753MOL0     C 1574   1.941  11.060   6.568 -0.3552  0.2099 -0.1652
  753MOL0     C 1575   1.843  11.085   6.463 -0.0842  0.6393  1.0267
  753MOL0     C 1576   1.770  11.196   6.465 -0.0576  0.8487 -1.2946
  753MOL0     C 1577   1.778  11.295   6.563 -0.2123  0.0006 -1.0604
  753MOL0     O 1578   1.698  11.413   6.568  0.2423  0.3554 -0.1190
  753MOL0     C 1579   1.610  11.459   6.468 -0.9264 -0.1811  0.4612
  753MOL0     C 1580   1.680  11.524   6.349 -0.2550 -1.4131  0.2327
  753MOL0     C 1581   1.584  11.602   6.269 -0.0116  0.0138 -0.2479
  753MOL0     C 1582   1.591  11.568   6.125  0.0320 -1.2937 -0.0540
  753MOL0     C 1583   1.708  11.639   6.059  0.6684  0.5591 -0.8485
  753MOL0     C 1584   1.794  11.651   5.987  0.0354 -0.1577 -0.7315
  753MOL0     C 1585   1.862  11.272   6.667  0.3452 -0.3502 -0.0185
  753MOL0     C 1586   1.944  11.156   6.672 -0.1056 -0.6604  0.5289
  753MOL0     C 1587   2.042  11.155   6.796  0.2937  0.5710 -1.0019
  753MOL0     H 1588   1.981  10.606   6.479 -1.3337  1.8624 -0.0937
  753MOL0     H 1589   2.136  10.446   6.551 -0.5664  1.8345  1.0105
  753MOL0     H 1590   2.598  10.554   6.537 -2.1447 -0.3823 -0.6998
  753MOL0     H 1591   2.527  10.570   6.702 -0.4205  0.1104  1.2828
  753MOL0     H 1592   2.604  10.295   6.577  0.3682 -1.7401  1.0489
  753MOL0     H 1593   2.551  10.335   6.733  2.2586  0.8507  1.5859
  753MOL0     H 1594   2.800  10.445   6.602  0.7697  1.3958  0.2725
  753MOL0     H 1595   2.802  10.288   6.694  1.0893  1.4741  0.1525
  753MOL0     H 1596   2.728  10.553   6.810 -2.9555 -1.7064  0.9965
  753MOL0     H 1597   2.751  10.405   6.909  2.6967  0.7913  1.3900
  753MOL0     H 1598   2.988  10.392   6.809 -1.0445 -0.5303 -0.6665
  753MOL0     H 1599   2.973  10.550   6.739  1.0888 -0.6679  0.0135
  753MOL0     H 1600   2.905  10.620   6.982  4.2181  3.7197 -0.4996
  753MOL0     H 1601   2.970  10.447   7.018  1.6783 -0.0489 -1.5240
  753MOL0     H 1602   3.185  10.534   6.915  3.2329  2.5748  0.5956
  753MOL0     H 1603   3.131  10.580   7.081 -0.1101  0.4307 -0.0535
  753MOL0     H 1604   3.218  10.748   6.891 -1.0694  0.6175  0.7788
  753MOL0     H 1605   3.049  10.760   6.846 -2.9322 -1.9050  1.6693
  753MOL0     H 1606   2.896  10.786   7.141 -2.2643  2.6732 -0.9630
  753MOL0     H 1607   2.871  10.934   7.378 -6.4844  3.7080 -2.1995
  753MOL0     H 1608   3.013  11.026   7.410 -0.4895 -1.9149  1.7398
  753MOL0     H 1609   2.837  11.135   7.186  1.0819  1.1402 -0.4300
  753MOL0     H 1610   2.772  11.159   7.348  1.8120 -1.6018  2.5657
  753MOL0     H 1611   3.057  11.243   7.315  1.2661  1.3394 -1.8229
  753MOL0     H 1612   2.934  11.332   7.403 -1.3177 -1.6710  0.9561
  753MOL0     H 1613   2.963  11.328   7.108 -3.4022 -0.3086 -1.5429
  753MOL0     H 1614   3.007  11.463   7.215 -1.5231  1.7091  2.4465
  753MOL0     H 1615   2.559  11.485   7.157 -1.4312  2.4289  0.3775
  753MOL0     H 1616   2.470  11.622   6.987  0.3830 -1.0480 -1.9776
  753MOL0     H 1617   2.479  12.006   6.969 -1.5271 -1.1022  0.3604
  753MOL0     H 1618   2.412  12.241   6.920 -1.0602  1.0076  0.1240
  753MOL0     H 1619   2.187  12.334   6.520  0.4882 -1.6399 -0.6800
  753MOL0     H 1620   2.106  12.220   6.635 -1.7960  0.2790 -0.4617
  753MOL0     H 1621   1.982  12.410   6.638 -0.5946 -1.2072  0.4133
  753MOL0     H 1622   2.065  12.380   6.791  0.7256 -0.3003 -0.5295
  753MOL0     H 1623   2.031  12.621   6.660  1.1816  0.2987 -1.2698
  753MOL0     H 1624   2.137  12.595   6.789 -2.0657  0.7795 -0.1463
  753MOL0     H 1625   2.173  12.565   6.472  0.0418  2.1232 -0.7835
  753MOL0     H 1626   2.304  12.532   6.568 -0.7030  0.3137 -2.9106
  753MOL0     H 1627   2.160  12.799   6.570 -0.2798 -0.0743 -1.5955
  753MOL0     H 1628   2.311  12.763   6.482  0.4894 -2.1326  0.0199
  753MOL0     H 1629   2.262  12.807   6.771 -1.3257 -2.6694  0.6632
  753MOL0     H 1630   2.370  12.674   6.720 -3.2478 -2.7046 -2.5577
  753MOL0     H 1631   2.454  12.908   6.767 -2.6805  1.5990  0.8677
  753MOL0     H 1632   2.382  12.975   6.633 -1.1116 -1.5835  0.9380
  753MOL0     H 1633   2.609  12.778   6.654 -0.4759  0.1000  0.0445
  753MOL0     H 1634   2.540  12.816   6.498 -1.3044  1.6544 -0.0621
  753MOL0     H 1635   2.271  12.098   6.531 -2.0745 -2.0328  0.0142
  753MOL0     H 1636   2.360  11.870   6.589 -1.3014  1.0451  0.0674
  753MOL0     H 1637   2.864  11.681   6.817 -1.1984 -0.2410 -1.3444
  753MOL0     H 1638   2.949  11.522   6.960 -0.0109  1.8335 -3.4332
  753MOL0     H 1639   2.467  10.712   6.476  0.4039  0.0787  2.1883
  753MOL0     H 1640   2.287  10.895   6.429 -2.8603  1.2697  0.3601
  753MOL0     H 1641   1.832  11.005   6.390 -0.3315 -1.1307  2.9075
  753MOL0     H 1642   1.683  11.214   6.403 -0.2752  2.7638 -0.4887
  753MOL0     H 1643   1.538  11.531   6.508  0.9970  2.2549 -0.2097
  753MOL0     H 1644   1.550  11.375   6.431  0.6195 -1.0910 -0.0606
  753MOL0     H 1645   1.732  11.446   6.291  0.3559 -1.9163  1.4040
  753MOL0     H 1646   1.753  11.592   6.394 -1.0852  0.3954 -1.0373
  753MOL0     H 1647   1.598  11.710   6.274 -1.4215  0.1512  1.7576
  753MOL0     H 1648   1.480  11.587   6.300 -0.5646 -1.2787 -2.4658
  753MOL0     H 1649   1.588  11.459   6.121 -0.5717 -1.4081  2.1093
  753MOL0     H 1650   1.499  11.592   6.070 -0.3627 -3.0095 -0.1838
  753MOL0     H 1651   1.865  11.670   5.909  0.1846  1.2737 -0.2773
  753MOL0     H 1652   1.883  11.332   6.755  0.8294 -0.2518 -0.2022
  753MOL0     H 1653   2.143  11.118   6.772  0.2240 -2.3729  2.3997
  753MOL0     H 1654   2.050  11.254   6.841  0.6065  0.1227 -0.0202
  753MOL0     H 1655   1.999  11.079   6.862  0.5022 -2.2927 -3.8723
  754MOL0     O 1656  10.181   4.215   3.571  0.1551  0.0403 -0.1188
  754MOL0     C 1657  10.254   4.260   3.482  0.4507 -0.5025 -0.9702
  754MOL0     O 1658  10.300   4.384   3.478  0.1797  1.0540  0.1002
  754MOL0     C 1659  10.278   4.487   3.569 -0.6209 -0.0425  0.1269
  754MOL0     C 1660  10.371   4.594   3.543  0.1270 -0.5823 -0.7106
  754MOL0     C 1661  10.352   4.713   3.604 -0.3340 -0.0977 -0.4412
  754MOL0     C 1662  10.259   4.740   3.702 -0.6410 -0.2445 -0.3304
  754MOL0     O 1663  10.223   4.860   3.760  0.5654 -0.2325  0.1332
  754MOL0     C 1664  10.327   4.957   3.758  0.2140 -0.1875  0.6301
  754MOL0     C 1665  10.267   5.083   3.827 -0.8268  0.0476  0.3964
  754MOL0     C 1666  10.185   5.166   3.726 -0.2606 -0.2360 -0.0919
  754MOL0     C 1667  10.131   5.297   3.784 -0.5696  0.5180  0.1467
  754MOL0     C 1668  10.104   5.393   3.660  1.1281 -0.2931  0.1826
  754MOL0     C 1669  10.039   5.510   3.730  1.0279 -0.7978  0.5183
  754MOL0     C 1670   9.982   5.616   3.635  0.3308 -0.3919  0.7525
  754MOL0     C 1671  10.087   5.733   3.611  0.7305 -0.0125  0.2586
  754MOL0     N 1672  10.124   5.817   3.721  0.3122 -0.2660 -0.6835
  754MOL0     C 1673  10.095   5.946   3.742 -0.5129 -0.6904 -0.8657
  754MOL0     C 1674  10.145   5.993   3.856 -0.3364  0.7013 -0.1119
  754MOL0     C 1675  10.137   6.122   3.922 -0.0110 -0.6575 -0.0906
  754MOL0     C 1676   9.995   6.162   3.968 -0.5602  0.4458  0.0254
  754MOL0     C 1677  10.006   6.300   4.021  0.5754  0.7040  0.2851
  754MOL0     C 1678   9.860   6.361   4.033  0.0546  0.0901  0.9369
  754MOL0     O 1679   9.861   6.497   4.006 -0.5567 -0.2032 -0.1939
  754MOL0     C 1680   9.866   6.557   3.893  0.1048 -0.4238  0.7673
  754MOL0     C 1681   9.863   6.693   3.894  0.3113 -0.0922 -0.3837
  754MOL0     C 1682   9.862   6.771   3.783  0.1515 -1.3112 -0.3743
  754MOL0     C 1683   9.864   6.720   3.660 -0.4646  0.0091  0.0292
  754MOL0     C 1684   9.873   6.805   3.543  0.8672  0.2739  0.7214
  754MOL0     O 1685   9.911   6.741   3.433 -0.2543 -0.1148  0.3979
  754MOL0     C 1686   9.917   6.814   3.310  0.2238 -0.0849  0.2099
  754MOL0     C 1687  10.023   6.897   3.279  0.0879 -0.5910  0.2257
  754MOL0     C 1688  10.033   6.945   3.143 -0.6594 -0.8033 -0.6122
  754MOL0     C 1689   9.935   6.926   3.044  0.2746  0.1235 -0.8365
  754MOL0     O 1690   9.923   6.975   2.924 -0.5599  0.1280  0.5287
  754MOL0     C 1691  10.049   7.013   2.852  0.3190 -0.0443  0.5695
  754MOL0     C 1692  10.014   7.070   2.711  0.4837 -0.4351  0.8252
  754MOL0     C 1693   9.988   7.221   2.725 -0.0751  0.3882 -0.3447
  754MOL0     C 1694   9.960   7.278   2.585 -0.1601 -0.1185 -0.6922
  754MOL0     C 1695   9.842   7.376   2.583  0.8441 -0.5036  0.6329
  754MOL0     C 1696   9.803   7.398   2.441 -0.0527 -0.1458 -1.2177
  754MOL0     C 1697   9.716   7.528   2.422  0.5936  1.0721  0.0481
  754MOL0     C 1698   9.702   7.574   2.285 -1.1775  0.9413 -0.5068
  754MOL0    Cl 1699   9.650   7.441   2.177 -0.1599 -0.1534 -0.3120
  754MOL0     C 1700   9.830   6.837   3.078 -0.4998 -0.8161  0.4873
  754MOL0     C 1701   9.826   6.790   3.212  0.9132 -0.3022  0.0073
  754MOL0     O 1702   9.857   6.927   3.558 -0.2950 -0.3391 -0.4259
  754MOL0     C 1703   9.847   6.579   3.651  0.4468  0.3206  0.3102
  754MOL0     C 1704   9.843   6.497   3.764 -0.2477 -0.2986 -0.1526
  754MOL0     N 1705  10.209   5.886   3.903 -0.5689 -0.5913 -0.0528
  754MOL0     N 1706  10.204   5.786   3.825 -0.3310 -0.3437  0.3823
  754MOL0     C 1707  10.169   4.626   3.729  0.1485  0.4102 -0.0040
  754MOL0     C 1708  10.179   4.500   3.667  0.6370  0.0135  0.5246
  754MOL0     C 1709  10.271   4.178   3.364  0.2343  0.9184  0.5778
  754MOL0     C 1710  10.331   4.241   3.247 -0.2652 -0.2861 -0.0828
  754MOL0     C 1711  10.320   4.179   3.125 -1.0181  0.2798 -0.6253
  754MOL0     C 1712  10.276   4.051   3.112  0.0937  0.2097  0.1323
  754MOL0     O 1713  10.285   3.992   2.987 -0.2571 -1.1466 -0.4301
  754MOL0     C 1714  10.187   3.886   2.949 -0.1615  0.0136  0.0614
  754MOL0     C 1715  10.047   3.931   2.969 -0.7983 -0.3155 -0.0570
  754MOL0     C 1716  10.015   4.052   2.891 -0.2416 -0.5003  0.3172
  754MOL0     C 1717   9.871   4.090   2.912  0.0110  0.9167  0.1477
  754MOL0     C 1718   9.775   4.006   2.840 -1.1534  0.5955  1.2842
  754MOL0     C 1719   9.690   3.939   2.792  0.5193  0.3041  0.1329
  754MOL0     C 1720  10.264   3.980   3.227  0.0764 -0.1186  0.0539
  754MOL0     C 1721  10.254   4.036   3.352  0.1357 -0.2839 -0.5050
  754MOL0     C 1722  10.200   3.943   3.461  1.0022 -0.8630 -0.9834
  754MOL0     H 1723  10.449   4.594   3.466  1.4070 -3.7045  0.4172
  754MOL0     H 1724  10.421   4.785   3.562  1.3578 -0.6136  1.3525
  754MOL0     H 1725  10.409   4.920   3.819 -0.3250  0.0493  1.5178
  754MOL0     H 1726  10.363   4.974   3.656 -2.2059  2.1243  0.0459
  754MOL0     H 1727  10.346   5.151   3.859 -0.9851  2.2383 -3.3028
  754MOL0     H 1728  10.208   5.059   3.915  0.9288  2.1323  2.2593
  754MOL0     H 1729  10.098   5.111   3.686 -3.0729  2.9592  1.1594
  754MOL0     H 1730  10.244   5.178   3.635 -1.6189 -1.6691 -1.2376
  754MOL0     H 1731  10.036   5.276   3.833 -0.1557 -0.2427  0.6362
  754MOL0     H 1732  10.197   5.346   3.857 -0.7135  0.5911  0.2267
  754MOL0     H 1733  10.193   5.433   3.611 -0.2559  1.9999 -0.6032
  754MOL0     H 1734  10.026   5.353   3.595 -1.7328  3.8564  0.6636
  754MOL0     H 1735   9.962   5.471   3.798  0.7855 -2.3476 -0.5955
  754MOL0     H 1736  10.109   5.559   3.799  0.8078  2.2644 -1.2650
  754MOL0     H 1737   9.892   5.658   3.682  1.9535  2.1706  1.8368
  754MOL0     H 1738   9.950   5.574   3.539 -2.3168 -0.4470  1.5616
  754MOL0     H 1739  10.178   5.687   3.571  0.1300 -0.6796 -0.3678
  754MOL0     H 1740  10.049   5.803   3.536  0.3056 -1.0319 -0.4930
  754MOL0     H 1741  10.032   6.010   3.680 -0.0895  0.6825  0.0616
  754MOL0     H 1742  10.216   6.127   3.997 -0.8930 -2.6760  1.0303
  754MOL0     H 1743  10.175   6.186   3.841  2.5591 -0.7258  0.9968
  754MOL0     H 1744   9.927   6.149   3.883 -0.6022  1.4386 -0.0960
  754MOL0     H 1745   9.953   6.096   4.045  1.5184 -3.3055 -1.7570
  754MOL0     H 1746  10.053   6.374   3.955 -1.1242  2.3821  0.8666
  754MOL0     H 1747  10.061   6.305   4.116 -0.4567 -3.5753  1.3201
  754MOL0     H 1748   9.819   6.337   4.132 -1.2071 -1.0442  0.1851
  754MOL0     H 1749   9.796   6.311   3.960  0.3737  2.9493 -1.4743
  754MOL0     H 1750   9.859   6.737   3.993 -0.2662 -2.3535  0.6487
  754MOL0     H 1751   9.860   6.877   3.807  0.8020 -0.7939 -2.3774
  754MOL0     H 1752  10.104   6.926   3.346 -0.8812  1.1208  0.7314
  754MOL0     H 1753  10.114   7.013   3.121  0.8439 -3.0240 -2.4090
  754MOL0     H 1754  10.109   7.088   2.905 -0.8442  3.4728 -2.7055
  754MOL0     H 1755  10.104   6.920   2.832 -1.1421 -0.5571 -1.3254
  754MOL0     H 1756  10.096   7.060   2.639  0.5148  0.8281  0.6565
  754MOL0     H 1757   9.928   7.016   2.671 -0.7286  1.1034  1.2443
  754MOL0     H 1758   9.902   7.239   2.790  1.2492  0.0200  1.6058
  754MOL0     H 1759  10.075   7.272   2.766  0.3531  0.5707 -1.4460
  754MOL0     H 1760   9.937   7.196   2.517 -0.7887  1.5051 -2.5244
  754MOL0     H 1761  10.055   7.326   2.556  0.2069 -0.8399 -0.6940
  754MOL0     H 1762   9.873   7.472   2.626 -0.6193  1.3698 -2.1741
  754MOL0     H 1763   9.755   7.334   2.635 -0.1395  0.8934  0.1564
  754MOL0     H 1764   9.904   7.404   2.400  1.1883 -0.1541  1.6095
  754MOL0     H 1765   9.756   7.301   2.423 -1.1109 -0.5610  2.7227
  754MOL0     H 1766   9.764   7.602   2.486 -0.7456  1.4372  0.6528
  754MOL0     H 1767   9.617   7.521   2.466  1.1359  0.4141  1.2154
  754MOL0     H 1768   9.636   7.661   2.279  0.3050  2.4731  2.7127
  754MOL0     H 1769   9.805   7.597   2.257 -0.9722  0.3989 -0.2165
  754MOL0     H 1770   9.755   6.816   3.003 -0.8718  2.7317 -0.2995
  754MOL0     H 1771   9.744   6.727   3.244 -1.1784  2.6188  0.8855
  754MOL0     H 1772   9.833   6.534   3.554  0.3348  2.7083 -0.8688
  754MOL0     H 1773   9.828   6.390   3.758  3.5003 -0.9674 -0.1577
  754MOL0     H 1774  10.094   4.650   3.804 -1.1004  4.3252 -2.2043
  754MOL0     H 1775  10.126   4.413   3.703 -1.1337  0.6744 -0.3506
  754MOL0     H 1776  10.364   4.343   3.261  0.5015 -0.9350  4.7300
  754MOL0     H 1777  10.367   4.233   3.043 -3.0532  2.0774 -0.7010
  754MOL0     H 1778  10.213   3.800   3.010  2.3705  0.2105 -0.6370
  754MOL0     H 1779  10.214   3.864   2.845  2.4246  2.9092 -0.0296
  754MOL0     H 1780  10.027   3.949   3.075 -0.2668 -0.2823  0.0389
  754MOL0     H 1781   9.977   3.852   2.938  0.3329 -0.5510 -2.1437
  754MOL0     H 1782  10.052   4.029   2.791  0.1698 -0.3654  0.4376
  754MOL0     H 1783  10.065   4.139   2.933  1.8615 -0.3557 -2.2125
  754MOL0     H 1784   9.852   4.102   3.019 -1.1849  3.1830 -0.2444
  754MOL0     H 1785   9.872   4.188   2.862  2.2918  2.3995  2.7612
  754MOL0     H 1786   9.617   3.874   2.749  0.1648  1.7847 -1.6673
  754MOL0     H 1787  10.236   3.878   3.203 -1.7639  0.1647  0.8451
  754MOL0     H 1788  10.106   3.987   3.496  2.5797  2.0196 -0.1064
  754MOL0     H 1789  10.178   3.849   3.409  2.2789  0.6089 -4.5152
  754MOL0     H 1790  10.273   3.930   3.541  1.3091 -0.9185 -1.2755
  755MOL0     O 1791   7.589   5.102   3.028 -0.4918  0.0110 -0.0747
  755MOL0     C 1792   7.597   5.212   3.084 -0.0319 -0.2219 -0.3549
  755MOL0     O 1793   7.494   5.259   3.159 -0.3004 -0.0557  0.3977
  755MOL0     C 1794   7.366   5.224   3.122 -0.0844 -0.1871  0.7532
  755MOL0     C 1795   7.318   5.223   2.988  0.0666 -0.6311  0.1101
  755MOL0     C 1796   7.184   5.214   2.961 -0.5717 -0.1782 -0.4118
  755MOL0     C 1797   7.090   5.217   3.063 -0.0642  0.7910  0.9102
  755MOL0     O 1798   6.956   5.228   3.033 -0.2755 -0.1820 -0.2162
  755MOL0     C 1799   6.858   5.202   3.138 -0.5149  0.1356 -0.4497
  755MOL0     C 1800   6.718   5.195   3.078  0.4223 -0.7231 -0.7281
  755MOL0     C 1801   6.686   5.332   3.019  0.5762 -0.3037  0.2941
  755MOL0     C 1802   6.546   5.338   2.956  0.1005 -0.3529  0.0727
  755MOL0     C 1803   6.462   5.461   2.995 -0.0612  0.3602 -0.3289
  755MOL0     C 1804   6.527   5.598   2.985 -0.6023 -0.6113 -0.2283
  755MOL0     C 1805   6.416   5.707   3.008  0.6971 -0.0691 -0.3495
  755MOL0     C 1806   6.474   5.854   2.990  0.4075 -0.3363 -0.9629
  755MOL0     N 1807   6.386   5.951   3.051 -0.6153 -0.0664 -0.0262
  755MOL0     C 1808   6.374   5.983   3.181  0.6554  0.1936  0.6218
  755MOL0     C 1809   6.304   6.099   3.178  0.4223 -0.1953  0.1614
  755MOL0     C 1810   6.234   6.154   3.298 -0.3819  0.0212  0.5414
  755MOL0     C 1811   6.332   6.228   3.391 -1.0948  0.1399 -0.0955
  755MOL0     C 1812   6.288   6.238   3.536 -0.9575  0.2325  0.4767
  755MOL0     C 1813   6.161   6.316   3.565 -0.1139  0.5206  0.0648
  755MOL0     O 1814   6.046   6.248   3.503  0.6968 -0.3956  0.0654
  755MOL0     C 1815   5.984   6.142   3.567  0.3261 -0.1762  0.5667
  755MOL0     C 1816   5.885   6.072   3.499  0.6350 -0.4206 -0.6169
  755MOL0     C 1817   5.830   5.955   3.561 -0.9660 -0.3915 -0.3700
  755MOL0     C 1818   5.875   5.898   3.683  0.6523 -0.0414 -0.6346
  755MOL0     C 1819   5.807   5.775   3.746 -1.2859  0.1287 -0.2330
  755MOL0     O 1820   5.870   5.722   3.858  0.3883 -0.0112 -0.1746
  755MOL0     C 1821   5.840   5.595   3.901 -0.0635 -0.6548  0.9467
  755MOL0     C 1822   5.847   5.575   4.036  0.3947 -0.6058  0.3662
  755MOL0     C 1823   5.831   5.445   4.088  0.6121 -0.1671 -0.8313
  755MOL0     C 1824   5.806   5.340   4.006 -0.3952 -0.9527 -0.9087
  755MOL0     O 1825   5.766   5.220   4.051 -0.2050  0.1516  0.0201
  755MOL0     C 1826   5.639   5.216   4.131 -0.3374 -0.2370  0.9639
  755MOL0     C 1827   5.525   5.306   4.068 -0.4695  0.5137 -0.3173
  755MOL0     C 1828   5.394   5.273   4.131 -0.4423  0.1782  0.1485
  755MOL0     C 1829   5.265   5.342   4.088 -0.0732 -0.1692  0.4022
  755MOL0     C 1830   5.251   5.485   4.149  0.3675 -0.7908  0.5008
  755MOL0     C 1831   5.132   5.541   4.078 -1.3283 -0.2589 -0.3455
  755MOL0     C 1832   5.085   5.663   4.156  0.6742  0.3541  0.1527
  755MOL0     C 1833   5.188   5.776   4.162  0.9380  0.6281  0.2916
  755MOL0    Cl 1834   5.115   5.917   4.245  0.0951  0.2900 -0.6496
  755MOL0     C 1835   5.814   5.369   3.868 -0.2940 -0.3460 -0.5120
  755MOL0     C 1836   5.822   5.490   3.803 -0.0384  0.2806 -0.4568
  755MOL0     O 1837   5.701   5.734   3.705 -0.3611  0.8583 -0.1038
  755MOL0     C 1838   5.982   5.963   3.744 -0.1898 -0.1309 -0.1236
  755MOL0     C 1839   6.030   6.084   3.688  1.1294  0.3684 -0.9922
  755MOL0     N 1840   6.284   6.141   3.049 -0.4903 -0.1242 -0.4504
  755MOL0     N 1841   6.334   6.049   2.976 -0.0299 -0.0701 -0.8309
  755MOL0     C 1842   7.134   5.227   3.191  0.6836  0.1473  0.1535
  755MOL0     C 1843   7.271   5.233   3.222  0.3884 -0.4732  0.2527
  755MOL0     C 1844   7.731   5.280   3.083  0.2912 -0.1907  0.4098
  755MOL0     C 1845   7.742   5.395   3.168 -0.5381 -0.3465 -1.1058
  755MOL0     C 1846   7.856   5.481   3.185 -0.0607  0.0009 -0.7792
  755MOL0     C 1847   7.967   5.455   3.107  0.2254  0.7618  0.7624
  755MOL0     O 1848   8.062   5.557   3.108 -0.4090  0.8546  0.4896
  755MOL0     C 1849   8.150   5.592   2.996  0.2860  0.2079 -0.5686
  755MOL0     C 1850   8.086   5.686   2.889 -0.5135  0.5776 -0.1277
  755MOL0     C 1851   8.156   5.668   2.753  0.0639  0.2822  0.2221
  755MOL0     C 1852   8.161   5.522   2.696 -0.7398  0.3648 -0.5655
  755MOL0     C 1853   8.031   5.456   2.678  0.4918 -0.5157  0.7771
  755MOL0     C 1854   7.934   5.398   2.649 -0.5613  0.4161 -0.1057
  755MOL0     C 1855   7.962   5.350   3.010  0.5800  0.5756  0.0630
  755MOL0     C 1856   7.849   5.259   3.010 -0.6700  0.8702  0.7276
  755MOL0     C 1857   7.859   5.143   2.917  0.3919 -0.2562  0.1334
  755MOL0     H 1858   7.400   5.230   2.918 -0.6100 -1.8546 -0.8541
  755MOL0     H 1859   7.154   5.224   2.857 -1.4376 -0.3752 -0.1921
  755MOL0     H 1860   6.881   5.110   3.192  0.1254  0.7028  0.2622
  755MOL0     H 1861   6.849   5.282   3.212 -2.3694 -0.1676 -0.2949
  755MOL0     H 1862   6.650   5.195   3.164 -0.9065  1.1418 -1.7088
  755MOL0     H 1863   6.697   5.110   3.013 -0.2513 -0.8622 -0.3388
  755MOL0     H 1864   6.755   5.346   2.935 -0.7553  0.7556 -0.6609
  755MOL0     H 1865   6.702   5.408   3.095 -1.4286 -0.5464  1.0201
  755MOL0     H 1866   6.568   5.358   2.851 -0.0569  1.0968  0.3042
  755MOL0     H 1867   6.495   5.246   2.986  2.8499 -1.2766  2.3498
  755MOL0     H 1868   6.381   5.459   2.922  2.1805  1.0682 -2.9733
  755MOL0     H 1869   6.427   5.456   3.099 -3.3390 -0.5846 -1.3553
  755MOL0     H 1870   6.610   5.601   3.056 -0.0543  1.1206 -0.9102
  755MOL0     H 1871   6.566   5.622   2.886 -2.1581 -0.0477 -0.7421
  755MOL0     H 1872   6.367   5.685   3.103 -0.6011 -2.4172 -1.4908
  755MOL0     H 1873   6.338   5.690   2.934 -0.8446 -2.0042  1.5808
  755MOL0     H 1874   6.574   5.849   3.033  0.5036  1.6011 -0.8768
  755MOL0     H 1875   6.487   5.881   2.885 -2.1396  0.6525 -1.0929
  755MOL0     H 1876   6.402   5.924   3.268 -0.5136  1.2051  1.7211
  755MOL0     H 1877   6.153   6.222   3.270 -1.0124 -1.2403 -0.8243
  755MOL0     H 1878   6.190   6.074   3.358  0.4305 -0.2338  0.8129
  755MOL0     H 1879   6.429   6.179   3.386 -0.3631  1.6501 -2.5085
  755MOL0     H 1880   6.351   6.327   3.347  0.3394 -0.1831 -0.2323
  755MOL0     H 1881   6.374   6.275   3.591 -0.7725 -2.8636  2.5453
  755MOL0     H 1882   6.275   6.136   3.575 -0.2753 -0.3213 -0.6841
  755MOL0     H 1883   6.169   6.418   3.528 -3.1216  0.9261  0.2242
  755MOL0     H 1884   6.143   6.330   3.672  0.6909  0.6087  0.1939
  755MOL0     H 1885   5.851   6.120   3.407  1.7515  1.2380 -0.1962
  755MOL0     H 1886   5.745   5.894   3.531 -1.9318 -0.6806  2.6829
  755MOL0     H 1887   5.834   5.650   4.113  1.0466  0.6226 -0.6730
  755MOL0     H 1888   5.837   5.421   4.194  0.0927  0.2885 -0.6957
  755MOL0     H 1889   5.597   5.116   4.129 -3.9771  1.1494  0.2349
  755MOL0     H 1890   5.668   5.226   4.236  0.0743  1.2179  0.7352
  755MOL0     H 1891   5.544   5.412   4.052 -2.9062  1.0634 -0.0455
  755MOL0     H 1892   5.506   5.266   3.967 -0.9752  1.1078 -0.4600
  755MOL0     H 1893   5.380   5.168   4.103  0.9739  0.0388 -0.0988
  755MOL0     H 1894   5.406   5.278   4.239 -0.2833  3.1262  0.0874
  755MOL0     H 1895   5.174   5.285   4.107 -0.0339 -0.1108  0.7825
  755MOL0     H 1896   5.259   5.366   3.982 -0.9659  4.0483  1.2534
  755MOL0     H 1897   5.339   5.550   4.148 -0.5816  0.5338  0.2179
  755MOL0     H 1898   5.224   5.469   4.253 -4.0196 -2.1829 -0.6225
  755MOL0     H 1899   5.165   5.564   3.976  2.0358 -2.0889  0.1768
  755MOL0     H 1900   5.043   5.477   4.078 -0.8234 -0.9763  0.0133
  755MOL0     H 1901   5.052   5.636   4.257  1.1791  0.7338  0.4269
  755MOL0     H 1902   4.993   5.707   4.118 -0.5313 -1.9211  0.2950
  755MOL0     H 1903   5.275   5.736   4.215  0.9140 -1.0874 -0.8822
  755MOL0     H 1904   5.212   5.788   4.056  1.5632 -3.8381 -0.2269
  755MOL0     H 1905   5.808   5.277   3.812  3.9697  0.0017 -1.9368
  755MOL0     H 1906   5.840   5.491   3.696 -0.8600 -1.5441 -0.6513
  755MOL0     H 1907   6.021   5.932   3.841 -3.2365 -2.5309  0.4820
  755MOL0     H 1908   6.113   6.126   3.742  1.5247 -0.1400 -1.1907
  755MOL0     H 1909   7.068   5.239   3.276  2.8998 -0.9346  2.1682
  755MOL0     H 1910   7.311   5.242   3.323  1.2701  0.1574 -0.1356
  755MOL0     H 1911   7.655   5.425   3.227  0.0510  3.1374 -1.8290
  755MOL0     H 1912   7.853   5.565   3.254  2.3550  0.3147 -0.9660
  755MOL0     H 1913   8.184   5.496   2.956  0.9896 -0.5656  1.7286
  755MOL0     H 1914   8.233   5.642   3.047  0.9801 -2.7957  1.5154
  755MOL0     H 1915   8.103   5.785   2.934 -0.3846  1.1205 -1.3338
  755MOL0     H 1916   7.978   5.668   2.886 -0.7927  1.4688  2.0784
  755MOL0     H 1917   8.259   5.699   2.770  0.7283 -0.9778 -1.2672
  755MOL0     H 1918   8.101   5.729   2.680  0.4233  1.5361  0.9780
  755MOL0     H 1919   8.209   5.520   2.598 -0.5334  0.0521 -0.4594
  755MOL0     H 1920   8.218   5.459   2.764 -1.7179  2.2681  2.1836
  755MOL0     H 1921   7.855   5.344   2.601 -0.9461  3.0357 -2.6960
  755MOL0     H 1922   8.043   5.333   2.940 -0.8210  1.3035 -1.8199
  755MOL0     H 1923   7.782   5.155   2.841  0.2824  0.4664  0.3458
  755MOL0     H 1924   7.958   5.145   2.870  0.9967  2.9090  1.2908
  755MOL0     H 1925   7.837   5.053   2.976 -2.0643  1.1356  1.5061
  756MOL0     O 1926   4.117   6.176   0.122  0.1225  0.6052 -0.1636
  756MOL0     C 1927   4.233   6.213   0.101  0.3007  0.1198  0.1917
  756MOL0     O 1928   4.307   6.304   0.181  0.3173  0.3164  0.0961
  756MOL0     C 1929   4.282   6.342   0.308  0.8027  0.2328  0.0275
  756MOL0     C 1930   4.178   6.309   0.388  0.4853  1.0235 -0.6921
  756MOL0     C 1931   4.154   6.349   0.526 -1.8074 -0.0577 -0.0478
  756MOL0     C 1932   4.246   6.436   0.580 -0.5658 -0.2780  0.6370
  756MOL0     O 1933   4.236   6.483   0.711  0.7027  0.5371 -0.4412
  756MOL0     C 1934   4.146   6.411   0.809  0.7529 -0.5625 -0.0043
  756MOL0     C 1935   4.152   6.480   0.944 -0.4534  0.1343 -0.7066
  756MOL0     C 1936   4.068   6.616   0.962 -0.0856  1.1279 -0.4764
  756MOL0     C 1937   4.130   6.737   0.900  0.2876  0.1534 -0.3393
  756MOL0     C 1938   4.020   6.835   0.861 -0.6414 -0.0502  0.1926
  756MOL0     C 1939   4.065   6.982   0.843  0.3060 -0.0163  0.7221
  756MOL0     C 1940   3.949   7.058   0.790 -0.0434  0.7491 -0.6253
  756MOL0     C 1941   3.967   7.210   0.791 -0.5435  0.6538  0.5723
  756MOL0     N 1942   3.917   7.276   0.911 -0.0198  0.3943  0.0149
  756MOL0     C 1943   3.980   7.269   1.034  0.6179  0.1361  0.1961
  756MOL0     C 1944   3.897   7.342   1.114  0.7567  0.3183  0.3734
  756MOL0     C 1945   3.917   7.380   1.257  0.3570 -0.9994 -0.4693
  756MOL0     C 1946   3.925   7.535   1.258  0.0673 -0.1393  0.0531
  756MOL0     C 1947   4.019   7.574   1.371  0.1963 -0.2614  0.1332
  756MOL0     C 1948   3.968   7.550   1.514 -0.1570  0.3360 -0.0934
  756MOL0     O 1949   4.052   7.611   1.606 -0.4614  0.7182  0.7436
  756MOL0     C 1950   4.017   7.644   1.734 -0.9120  0.2204 -0.6873
  756MOL0     C 1951   3.896   7.624   1.805  0.8194 -0.2993  0.9252
  756MOL0     C 1952   3.879   7.637   1.938 -0.4698 -0.2584  0.5486
  756MOL0     C 1953   3.993   7.681   2.019  0.3419 -0.8458  0.4110
  756MOL0     C 1954   3.975   7.716   2.158  1.0492 -0.0100 -0.5029
  756MOL0     O 1955   3.853   7.726   2.209 -0.0913 -0.0536  0.4976
  756MOL0     C 1956   3.842   7.796   2.323 -0.2994  0.0315 -1.5092
  756MOL0     C 1957   3.736   7.755   2.410  1.0044  0.1897 -0.0701
  756MOL0     C 1958   3.703   7.815   2.532  0.5331 -0.1464 -0.5224
  756MOL0     C 1959   3.785   7.918   2.578 -0.0362  0.2544  0.1183
  756MOL0     O 1960   3.759   7.999   2.689  0.1781  0.0881  0.8498
  756MOL0     C 1961   3.682   7.960   2.799  0.6637  0.1857 -0.1849
  756MOL0     C 1962   3.676   8.072   2.906 -0.2004  1.1519 -0.1076
  756MOL0     C 1963   3.556   8.056   2.998  0.7066  0.9306  0.4606
  756MOL0     C 1964   3.549   7.921   3.067 -0.5404 -0.4444  0.2111
  756MOL0     C 1965   3.421   7.921   3.148  0.0157 -0.2833  0.3333
  756MOL0     C 1966   3.421   7.799   3.244 -0.2221 -0.1670  0.0462
  756MOL0     C 1967   3.324   7.804   3.363  0.1649 -0.4042 -0.8847
  756MOL0     C 1968   3.295   7.647   3.403  0.1966 -0.5378 -0.4171
  756MOL0    Cl 1969   3.170   7.591   3.290  0.0389 -0.3359 -0.2751
  756MOL0     C 1970   3.894   7.953   2.499  0.1764 -0.4630  0.0935
  756MOL0     C 1971   3.919   7.900   2.377  0.3045 -1.0743 -0.2296
  756MOL0     O 1972   4.077   7.719   2.228  0.0213 -0.4391 -0.5228
  756MOL0     C 1973   4.112   7.699   1.950 -0.1817 -0.4070 -0.6015
  756MOL0     C 1974   4.128   7.695   1.812  0.4235 -0.2183 -1.2241
  756MOL0     N 1975   3.801   7.400   1.037  0.0282  0.1524  0.1901
  756MOL0     N 1976   3.813   7.370   0.917 -0.3011  0.2982 -0.2848
  756MOL0     C 1977   4.351   6.483   0.501 -0.1273  0.2872  0.6318
  756MOL0     C 1978   4.369   6.436   0.366  0.0369  0.6160  0.1512
  756MOL0     C 1979   4.283   6.187  -0.041  0.3036 -0.2888 -0.1858
  756MOL0     C 1980   4.215   6.082  -0.111 -0.0280 -0.0292  0.0806
  756MOL0     C 1981   4.236   6.047  -0.242 -0.6358 -0.0127  0.1511
  756MOL0     C 1982   4.340   6.116  -0.318 -0.0304  0.4763 -0.4602
  756MOL0     O 1983   4.360   6.080  -0.455 -0.8607 -0.4353  0.7752
  756MOL0     C 1984   4.498   6.082  -0.507 -0.3315 -0.0474 -0.0219
  756MOL0     C 1985   4.511   5.990  -0.637 -0.3135 -1.1269 -0.6634
  756MOL0     C 1986   4.412   6.019  -0.751  1.3572  0.1243  1.2342
  756MOL0     C 1987   4.368   6.160  -0.789  1.0595  0.4171 -1.4029
  756MOL0     C 1988   4.262   6.160  -0.885  2.1899  0.8053 -0.2963
  756MOL0     C 1989   4.162   6.145  -0.966 -0.4966  0.1101 -0.4536
  756MOL0     C 1990   4.411   6.228  -0.252  0.4781  0.4726  0.0771
  756MOL0     C 1991   4.390   6.257  -0.116  0.1588  0.1395 -0.5003
  756MOL0     C 1992   4.474   6.359  -0.043 -0.8099  0.4423 -0.2812
  756MOL0     H 1993   4.103   6.241   0.349  0.8296 -1.4439  2.4858
  756MOL0     H 1994   4.071   6.303   0.579 -3.4750  1.6142 -1.0871
  756MOL0     H 1995   4.044   6.421   0.771 -0.3888  1.8515  3.2190
  756MOL0     H 1996   4.168   6.304   0.809 -0.9257 -0.9456 -0.9206
  756MOL0     H 1997   4.255   6.500   0.974 -1.4259  0.9144  2.6106
  756MOL0     H 1998   4.097   6.421   1.019 -1.1088  0.7457 -0.6954
  756MOL0     H 1999   4.031   6.615   1.065 -3.0821  1.1789 -1.4501
  756MOL0     H 2000   3.976   6.596   0.907 -1.3579  2.1879  1.1816
  756MOL0     H 2001   4.194   6.784   0.975 -0.9078  1.0392  0.1495
  756MOL0     H 2002   4.185   6.714   0.808  2.3786  1.0653  0.6123
  756MOL0     H 2003   3.978   6.815   0.762  0.4814  3.2113 -1.0754
  756MOL0     H 2004   3.943   6.837   0.939 -0.4792 -0.1603  0.3604
  756MOL0     H 2005   4.092   7.036   0.934 -1.6608  0.9009  0.8123
  756MOL0     H 2006   4.148   6.991   0.772 -0.1710  4.4968  0.4277
  756MOL0     H 2007   3.859   7.029   0.845 -0.1781  2.1289 -0.0953
  756MOL0     H 2008   3.932   7.024   0.687 -0.7069  1.3992 -0.7358
  756MOL0     H 2009   4.073   7.236   0.781 -0.8265  0.9985 -2.5889
  756MOL0     H 2010   3.931   7.246   0.694  0.0394 -1.6382 -0.5796
  756MOL0     H 2011   4.080   7.229   1.045  1.2451  1.7090  0.4475
  756MOL0     H 2012   3.836   7.347   1.324 -0.6462 -2.0940 -2.1444
  756MOL0     H 2013   4.011   7.337   1.292  0.7851 -1.3054 -1.9523
  756MOL0     H 2014   3.971   7.559   1.161  2.2126 -3.2657  0.1554
  756MOL0     H 2015   3.832   7.592   1.266  0.2966  0.2404  0.0599
  756MOL0     H 2016   4.051   7.676   1.352  2.3261 -0.6919  1.0983
  756MOL0     H 2017   4.113   7.519   1.368  0.3034 -0.1810  1.5145
  756MOL0     H 2018   3.955   7.443   1.531 -0.7755 -0.0221 -2.5445
  756MOL0     H 2019   3.867   7.588   1.537 -0.8510 -1.8491  0.7119
  756MOL0     H 2020   3.827   7.577   1.736 -0.9325  1.1996  1.5884
  756MOL0     H 2021   3.792   7.614   1.998 -1.8644  2.2847 -0.3843
  756MOL0     H 2022   3.682   7.665   2.384 -1.5736  1.2052  1.3791
  756MOL0     H 2023   3.620   7.779   2.592 -1.3870  2.2742 -1.5368
  756MOL0     H 2024   3.578   7.943   2.769 -0.2258  0.7775  2.3377
  756MOL0     H 2025   3.727   7.877   2.855 -1.5368 -1.6159 -0.9653
  756MOL0     H 2026   3.763   8.072   2.973 -2.9453  1.7970  3.8478
  756MOL0     H 2027   3.665   8.169   2.858 -1.5657  1.7695  1.3552
  756MOL0     H 2028   3.555   8.128   3.080 -1.3864 -2.2937  3.5942
  756MOL0     H 2029   3.470   8.079   2.934  1.3217  0.3271 -0.6229
  756MOL0     H 2030   3.636   7.920   3.133 -1.0303  2.1024  0.9934
  756MOL0     H 2031   3.551   7.834   3.001  1.7212  0.7083 -1.3622
  756MOL0     H 2032   3.339   7.906   3.077  1.7745 -1.6406 -1.5159
  756MOL0     H 2033   3.414   8.016   3.202 -1.8531 -0.3986  0.3705
  756MOL0     H 2034   3.415   7.711   3.179  3.3284 -1.7524  1.5917
  756MOL0     H 2035   3.523   7.787   3.282  1.7302  0.3153 -4.3406
  756MOL0     H 2036   3.226   7.849   3.345  0.3085  1.0920  1.6612
  756MOL0     H 2037   3.366   7.857   3.449  0.9839 -3.1107  0.4794
  756MOL0     H 2038   3.387   7.589   3.415  0.3646  0.0897  1.8151
  756MOL0     H 2039   3.250   7.651   3.502 -1.2370 -1.0869 -1.0182
  756MOL0     H 2040   3.956   8.035   2.534  0.7163 -0.5061 -0.7180
  756MOL0     H 2041   4.013   7.943   2.345  2.7472 -3.0450  3.5133
  756MOL0     H 2042   4.189   7.750   2.006 -0.6354 -0.5765  0.1824
  756MOL0     H 2043   4.222   7.727   1.769  1.3964 -0.2913  0.7163
  756MOL0     H 2044   4.425   6.551   0.542  0.2726  2.2141 -2.9071
  756MOL0     H 2045   4.442   6.475   0.297 -1.5278 -0.7375 -2.4149
  756MOL0     H 2046   4.147   6.014  -0.060  0.4322 -1.3640 -1.0189
  756MOL0     H 2047   4.183   5.965  -0.289 -0.3140 -1.9717  2.8940
  756MOL0     H 2048   4.555   6.030  -0.430  0.0155 -1.6956 -1.3097
  756MOL0     H 2049   4.538   6.183  -0.514 -2.3555  0.7730 -0.5179
  756MOL0     H 2050   4.502   5.890  -0.592  2.2037 -0.1505  2.3560
  756MOL0     H 2051   4.613   6.012  -0.668 -0.9628  0.4247 -1.8125
  756MOL0     H 2052   4.315   5.974  -0.727  0.9333  1.0553  1.3337
  756MOL0     H 2053   4.455   5.977  -0.842 -0.9232 -0.6521  0.4535
  756MOL0     H 2054   4.337   6.213  -0.699 -1.7329 -1.4819 -1.1329
  756MOL0     H 2055   4.457   6.202  -0.838  1.8250  0.7349  0.1834
  756MOL0     H 2056   4.066   6.112  -1.000 -1.5204 -0.4216  2.6807
  756MOL0     H 2057   4.497   6.269  -0.302  0.0668  1.7446  0.3862
  756MOL0     H 2058   4.567   6.359  -0.101  0.6977  0.3443  1.9562
  756MOL0     H 2059   4.438   6.462  -0.040 -0.4129  0.6502 -1.9373
  756MOL0     H 2060   4.521   6.319   0.048 -3.8450 -2.7241  0.1014
  757MOL0     O 2061   7.418   7.514   6.124  0.1988 -0.2323  0.3619
  757MOL0     C 2062   7.475   7.481   6.229 -0.2363 -0.4830  0.4817
  757MOL0     O 2063   7.428   7.523   6.355 -0.5785 -0.2670  0.0655
  757MOL0     C 2064   7.301   7.580   6.357  0.2212 -1.2442  0.8432
  757MOL0     C 2065   7.297   7.723   6.367  0.3735 -0.5396  0.6412
  757MOL0     C 2066   7.176   7.787   6.363 -0.6683 -0.8549  0.9110
  757MOL0     C 2067   7.052   7.719   6.343 -0.9278  0.0197  0.8441
  757MOL0     O 2068   6.937   7.792   6.347 -0.3284  0.0835  0.7000
  757MOL0     C 2069   6.883   7.842   6.471 -0.0932 -0.2248 -0.2961
  757MOL0     C 2070   6.785   7.733   6.511 -0.0845  0.4276  0.4479
  757MOL0     C 2071   6.721   7.773   6.643 -0.2407  0.2963  0.0158
  757MOL0     C 2072   6.585   7.710   6.659  0.1477 -0.0514  0.5686
  757MOL0     C 2073   6.531   7.743   6.803 -0.0498 -0.2720 -0.4095
  757MOL0     C 2074   6.582   7.640   6.903 -0.2388  0.0587 -0.1091
  757MOL0     C 2075   6.468   7.627   7.008  0.2376 -0.2418  0.1946
  757MOL0     C 2076   6.508   7.551   7.136  0.2686  0.0099 -0.0224
  757MOL0     N 2077   6.616   7.601   7.203 -0.0877  0.2045  0.1869
  757MOL0     C 2078   6.611   7.721   7.270  0.5157  0.5781  0.3278
  757MOL0     C 2079   6.729   7.755   7.304 -0.2494  0.6732 -1.2625
  757MOL0     C 2080   6.781   7.854   7.405 -1.0258 -0.3476 -0.0375
  757MOL0     C 2081   6.836   7.779   7.537  0.8159  0.1474  1.3497
  757MOL0     C 2082   6.883   7.860   7.656 -0.2155 -0.0373  0.4763
  757MOL0     C 2083   6.767   7.954   7.718 -0.4452 -0.9258 -0.0714
  757MOL0     O 2084   6.657   7.866   7.762 -0.2910 -0.1346  0.0163
  757MOL0     C 2085   6.529   7.919   7.793  1.1688 -0.3003 -0.6905
  757MOL0     C 2086   6.515   8.057   7.810  0.6288  0.2833  0.0789
  757MOL0     C 2087   6.401   8.123   7.852  0.0830  1.0378  1.0820
  757MOL0     C 2088   6.292   8.041   7.882 -0.1060 -0.4988  0.4403
  757MOL0     C 2089   6.165   8.100   7.945 -0.1018 -1.0117  0.4939
  757MOL0     O 2090   6.131   8.233   7.926  0.5898 -0.3161 -0.6074
  757MOL0     C 2091   6.053   8.287   8.022  0.4498 -0.8747 -0.5885
  757MOL0     C 2092   6.090   8.308   8.152 -0.6073  0.2548 -0.7748
  757MOL0     C 2093   6.009   8.359   8.255 -0.0976  0.2273  0.0800
  757MOL0     C 2094   5.875   8.397   8.225  0.3856 -0.0767  0.3022
  757MOL0     O 2095   5.789   8.454   8.318 -0.5007  0.0675  0.1271
  757MOL0     C 2096   5.808   8.441   8.450  0.2449  0.1957  0.3962
  757MOL0     C 2097   5.790   8.306   8.514 -0.0458 -0.1285  0.2972
  757MOL0     C 2098   5.653   8.247   8.503 -0.7836  0.2719 -0.1669
  757MOL0     C 2099   5.622   8.114   8.576 -0.0621 -0.1609 -0.6106
  757MOL0     C 2100   5.476   8.090   8.598  0.0542  0.5586  0.2550
  757MOL0     C 2101   5.389   8.105   8.476  0.5250 -0.2135  1.1685
  757MOL0     C 2102   5.387   7.986   8.374 -0.4573 -0.4350 -0.0565
  757MOL0     C 2103   5.292   8.001   8.257  0.4481 -0.7720  0.3239
  757MOL0    Cl 2104   5.296   7.845   8.168 -0.2108  0.2583 -0.5162
  757MOL0     C 2105   5.829   8.369   8.097  0.5923  0.8483  0.4989
  757MOL0     C 2106   5.917   8.318   7.998  0.1942  0.1967  0.2914
  757MOL0     O 2107   6.106   8.012   8.013 -0.2654 -0.9930  0.5503
  757MOL0     C 2108   6.305   7.900   7.863 -0.1251 -0.2607  0.1428
  757MOL0     C 2109   6.419   7.836   7.823  0.1043 -0.0604 -0.4339
  757MOL0     N 2110   6.808   7.657   7.257  0.6520  0.1214 -0.0618
  757MOL0     N 2111   6.746   7.578   7.181  0.4642  0.2020  0.5194
  757MOL0     C 2112   7.060   7.590   6.335  0.2889 -0.2889 -0.1130
  757MOL0     C 2113   7.180   7.514   6.332  0.8152  0.2237 -0.7190
  757MOL0     C 2114   7.581   7.387   6.223  0.7857 -0.6279 -0.0663
  757MOL0     C 2115   7.677   7.384   6.113  0.8588 -0.5468  0.1559
  757MOL0     C 2116   7.769   7.283   6.107 -0.0991  0.5987 -0.0481
  757MOL0     C 2117   7.778   7.182   6.208 -0.5335 -1.0989  0.3415
  757MOL0     O 2118   7.883   7.099   6.206 -0.7370 -0.1268 -0.1094
  757MOL0     C 2119   7.992   7.148   6.293  0.1157  0.6660  0.4406
  757MOL0     C 2120   8.088   7.245   6.218  0.0171  0.0083  0.1659
  757MOL0     C 2121   8.144   7.184   6.083 -0.1411  0.7681  0.4039
  757MOL0     C 2122   8.262   7.275   6.036 -0.7388  0.2467  0.8189
  757MOL0     C 2123   8.317   7.206   5.915  0.1219  0.1736  0.1141
  757MOL0     C 2124   8.352   7.170   5.804  0.7021  0.5675 -0.6693
  757MOL0     C 2125   7.691   7.197   6.317 -0.1313 -0.5617  0.2037
  757MOL0     C 2126   7.595   7.293   6.324  0.4404  0.3592 -0.6555
  757MOL0     C 2127   7.504   7.277   6.446  0.1762  0.4587  0.5442
  757MOL0     H 2128   7.390   7.772   6.394  3.0399 -2.4070 -3.9433
  757MOL0     H 2129   7.161   7.893   6.380 -2.6134 -1.1791  1.4536
  757MOL0     H 2130   6.967   7.861   6.540 -1.7248  1.7047  1.2610
  757MOL0     H 2131   6.825   7.932   6.453 -0.1445 -0.3544 -0.7991
  757MOL0     H 2132   6.812   7.627   6.506 -1.8687 -0.0176 -1.9387
  757MOL0     H 2133   6.710   7.747   6.432  0.8854  2.6894 -0.1567
  757MOL0     H 2134   6.705   7.881   6.648 -0.5249  0.4466 -2.8898
  757MOL0     H 2135   6.776   7.737   6.732  0.4472 -1.5248 -1.0780
  757MOL0     H 2136   6.535   7.748   6.570 -1.1955 -3.1183 -0.1316
  757MOL0     H 2137   6.594   7.602   6.646  1.9591  0.3258 -1.9553
  757MOL0     H 2138   6.564   7.839   6.843  2.3468 -0.9282 -0.6162
  757MOL0     H 2139   6.423   7.756   6.801 -0.0354  0.0791 -3.2716
  757MOL0     H 2140   6.596   7.545   6.851  0.2764 -0.1856  0.4651
  757MOL0     H 2141   6.675   7.683   6.941  0.0471 -0.2743 -0.4280
  757MOL0     H 2142   6.377   7.584   6.963 -1.6481  2.5656  1.0858
  757MOL0     H 2143   6.449   7.729   7.040  1.2407  0.3741 -1.0678
  757MOL0     H 2144   6.424   7.571   7.202 -0.1907  3.0148 -1.3528
  757MOL0     H 2145   6.494   7.449   7.099  1.5455  0.0135 -0.5614
  757MOL0     H 2146   6.521   7.777   7.299 -0.5195 -0.4551 -0.7923
  757MOL0     H 2147   6.872   7.889   7.356 -1.0174 -1.0933 -0.5815
  757MOL0     H 2148   6.709   7.933   7.429  0.8100  1.2487  0.4718
  757MOL0     H 2149   6.749   7.725   7.575 -0.9565  1.5763 -0.4743
  757MOL0     H 2150   6.908   7.703   7.504 -1.0483 -1.1525  0.0844
  757MOL0     H 2151   6.969   7.919   7.621  0.8740 -1.7651  0.1274
  757MOL0     H 2152   6.912   7.792   7.736 -4.6974 -2.2657  0.5517
  757MOL0     H 2153   6.746   8.025   7.638  0.0528 -4.2481 -3.4415
  757MOL0     H 2154   6.800   8.003   7.810 -3.3078 -1.3495  1.2747
  757MOL0     H 2155   6.608   8.112   7.795  0.4059  0.3505 -1.1718
  757MOL0     H 2156   6.410   8.229   7.873 -2.5320  1.0360  2.7221
  757MOL0     H 2157   6.193   8.287   8.176 -0.3386 -2.4027 -3.6116
  757MOL0     H 2158   6.051   8.370   8.355  1.2013 -0.6454 -0.3542
  757MOL0     H 2159   5.912   8.466   8.473 -1.0448  2.5808  5.1602
  757MOL0     H 2160   5.751   8.517   8.504 -0.5044  2.7740 -3.5665
  757MOL0     H 2161   5.867   8.236   8.481  0.5089 -1.2147  3.5047
  757MOL0     H 2162   5.819   8.314   8.619 -1.4840 -2.8309  0.9914
  757MOL0     H 2163   5.584   8.320   8.547  0.4633  1.4897 -0.1544
  757MOL0     H 2164   5.623   8.236   8.399 -2.2091  1.1358  0.1235
  757MOL0     H 2165   5.668   8.109   8.675 -0.6407 -1.8677 -0.3913
  757MOL0     H 2166   5.661   8.033   8.514  2.2386  0.7314 -0.4564
  757MOL0     H 2167   5.436   8.152   8.680  2.0095  2.9610 -0.4828
  757MOL0     H 2168   5.455   7.986   8.624 -2.6465  0.3624 -2.1595
  757MOL0     H 2169   5.284   8.105   8.506  0.0621 -1.0293 -0.3842
  757MOL0     H 2170   5.399   8.199   8.421  1.9987 -0.1562  1.4855
  757MOL0     H 2171   5.361   7.889   8.418  1.5776 -1.5990 -1.2754
  757MOL0     H 2172   5.487   7.966   8.334  0.3712 -0.3993  1.9018
  757MOL0     H 2173   5.198   8.040   8.296  1.2632  3.3442 -1.2799
  757MOL0     H 2174   5.333   8.083   8.198 -2.3718  0.7421  0.3383
  757MOL0     H 2175   5.733   8.407   8.065 -0.5316 -1.1876  1.2980
  757MOL0     H 2176   5.879   8.280   7.903  0.4182 -5.2315  2.0569
  757MOL0     H 2177   6.216   7.840   7.877 -0.5986  0.7243  1.5752
  757MOL0     H 2178   6.437   7.732   7.799  2.1051  1.0780 -4.9480
  757MOL0     H 2179   6.966   7.545   6.305  1.3347 -1.9541 -1.0665
  757MOL0     H 2180   7.181   7.405   6.325 -0.2017 -0.0493  1.8846
  757MOL0     H 2181   7.682   7.478   6.060 -1.1783 -0.7245 -0.4427
  757MOL0     H 2182   7.848   7.280   6.032  0.5798  0.9653  0.6384
  757MOL0     H 2183   8.049   7.066   6.338  1.4921 -0.4101 -2.9557
  757MOL0     H 2184   7.960   7.201   6.383 -1.5374 -1.7712  1.3886
  757MOL0     H 2185   8.168   7.282   6.284  0.6616  0.7194 -0.9800
  757MOL0     H 2186   8.040   7.341   6.194 -0.4243 -0.7503 -2.2060
  757MOL0     H 2187   8.072   7.183   6.001  0.1996  3.0733 -0.0005
  757MOL0     H 2188   8.184   7.084   6.102 -0.0573 -0.2533 -4.0302
  757MOL0     H 2189   8.218   7.372   6.010  3.4407  2.2554  0.4083
  757MOL0     H 2190   8.343   7.302   6.106 -1.8025  2.7299  1.1775
  757MOL0     H 2191   8.387   7.148   5.705  1.5146 -1.8554  0.0731
  757MOL0     H 2192   7.705   7.138   6.407 -1.4405  1.5250  1.8513
  757MOL0     H 2193   7.545   7.349   6.518  2.6984  0.0969 -0.4061
  757MOL0     H 2194   7.404   7.316   6.426  0.1974  0.0058 -0.5267
  757MOL0     H 2195   7.492   7.172   6.475  1.0459 -0.2781 -1.5650
  758MOL0     O 2196  10.338   3.098   5.541 -0.8169 -0.4135 -0.4327
  758MOL0     C 2197  10.255   3.028   5.479  0.0912  0.8455  0.4622
  758MOL0     O 2198  10.144   2.965   5.538  0.7595 -0.3418  0.9754
  758MOL0     C 2199  10.119   2.973   5.680 -0.3294  0.3639 -0.4211
  758MOL0     C 2200  10.223   2.930   5.770  0.2786 -0.3254  0.3753
  758MOL0     C 2201  10.207   2.939   5.909 -0.4882 -0.7891 -0.1238
  758MOL0     C 2202  10.080   2.964   5.959  0.4917  0.1615 -0.2041
  758MOL0     O 2203  10.050   2.970   6.090  0.6344  0.7865 -0.6863
  758MOL0     C 2204  10.100   2.873   6.179 -1.3306  1.6826  0.0501
  758MOL0     C 2205  10.062   2.919   6.319  1.6802 -0.1018 -0.2736
  758MOL0     C 2206  10.101   2.827   6.422  0.3334  0.2867  0.1448
  758MOL0     C 2207  10.021   2.863   6.553 -0.7027 -0.7749  0.8027
  758MOL0     C 2208  10.083   2.818   6.688  0.3752  0.7537  1.5992
  758MOL0     C 2209  10.085   2.660   6.684 -0.1596 -0.3004 -0.0049
  758MOL0     C 2210  10.114   2.607   6.821  0.8317 -0.0741  0.2581
  758MOL0     C 2211  10.129   2.455   6.822 -0.2497  0.0889 -0.2304
  758MOL0     N 2212  10.132   2.406   6.961 -0.9236 -0.1061 -0.4319
  758MOL0     C 2213  10.058   2.305   7.015 -0.3116 -0.7618 -0.1772
  758MOL0     C 2214  10.093   2.304   7.145 -0.2685 -0.4838  0.1079
  758MOL0     C 2215  10.019   2.213   7.247 -0.9104 -0.8313  0.2586
  758MOL0     C 2216  10.114   2.210   7.370  0.4076 -0.1043 -0.4843
  758MOL0     C 2217  10.057   2.097   7.457  0.1915 -0.6818 -0.1072
  758MOL0     C 2218  10.132   2.077   7.578 -0.1328  1.1217 -0.1808
  758MOL0     O 2219  10.056   1.989   7.666 -0.6837  0.4153  1.1271
  758MOL0     C 2220  10.118   1.952   7.786  0.6119  0.0620  1.0038
  758MOL0     C 2221  10.237   2.016   7.834  1.0153 -0.7384  0.5453
  758MOL0     C 2222  10.269   2.003   7.967 -0.8892 -0.4461 -0.9067
  758MOL0     C 2223  10.194   1.917   8.060 -0.4911 -0.2816 -0.1763
  758MOL0     C 2224  10.221   1.922   8.212 -0.4427 -0.1565  0.4848
  758MOL0     O 2225  10.167   1.821   8.283 -0.0379 -0.3738 -0.6806
  758MOL0     C 2226  10.205   1.826   8.412  0.3294  0.7121  0.5272
  758MOL0     C 2227  10.341   1.810   8.445 -0.2875  0.0705 -0.2063
  758MOL0     C 2228  10.374   1.835   8.582 -1.2226  1.6307  0.2941
  758MOL0     C 2229  10.287   1.876   8.678 -0.0799 -0.2049 -0.5451
  758MOL0     O 2230  10.319   1.900   8.809  0.0979  0.7920  1.4807
  758MOL0     C 2231  10.439   1.830   8.863 -0.0764 -0.0854 -0.1191
  758MOL0     C 2232  10.562   1.924   8.883 -0.7384  0.2943  0.9865
  758MOL0     C 2233  10.700   1.840   8.872  0.1303 -0.6220 -0.3424
  758MOL0     C 2234  10.735   1.771   9.015 -0.2140  0.1845  0.0733
  758MOL0     C 2235  10.870   1.682   9.022 -0.2453 -0.9341 -0.3522
  758MOL0     C 2236  10.915   1.669   9.173 -0.1082 -0.5395  0.9765
  758MOL0     C 2237  10.815   1.581   9.240  0.6453  0.8715 -0.9186
  758MOL0     C 2238  10.865   1.569   9.392 -0.0724  0.3999  0.3881
  758MOL0    Cl 2239  10.808   1.698   9.492  0.4634 -0.3312 -0.1317
  758MOL0     C 2240  10.156   1.884   8.642 -0.1600 -0.3484  0.3024
  758MOL0     C 2241  10.109   1.872   8.512  0.4109  0.1082 -0.7880
  758MOL0     O 2242  10.286   2.017   8.253 -0.3227 -0.5771  0.6422
  758MOL0     C 2243  10.085   1.858   8.010  0.0114 -0.5803 -0.3696
  758MOL0     C 2244  10.043   1.874   7.878 -0.2542  0.1702 -0.4665
  758MOL0     N 2245  10.192   2.395   7.163 -0.0083  0.2814 -0.5804
  758MOL0     N 2246  10.208   2.460   7.056 -0.4179  0.1381 -0.6082
  758MOL0     C 2247   9.980   2.995   5.874 -0.3122  0.2511 -0.3558
  758MOL0     C 2248   9.993   2.989   5.740  0.3488 -0.2152  0.7981
  758MOL0     C 2249  10.271   2.999   5.328 -0.6175 -0.3386 -0.9028
  758MOL0     C 2250  10.156   3.033   5.253 -0.6016 -0.3760 -0.4364
  758MOL0     C 2251  10.151   3.018   5.116 -0.6495  0.3755  0.3523
  758MOL0     C 2252  10.265   2.960   5.048 -0.0186 -0.8770 -0.6651
  758MOL0     O 2253  10.276   2.942   4.905  0.3732  0.3088 -0.0246
  758MOL0     C 2254  10.167   2.955   4.818 -0.7955  0.4030 -0.3326
  758MOL0     C 2255  10.132   3.090   4.764  0.4163  0.3654  0.3485
  758MOL0     C 2256  10.027   3.087   4.661 -0.6232 -0.1182  0.0735
  758MOL0     C 2257  10.067   3.025   4.520  0.2069 -0.7673 -0.7319
  758MOL0     C 2258  10.027   2.885   4.518  0.1231  0.5139 -0.3657
  758MOL0     C 2259   9.992   2.769   4.511 -0.5395  0.3267  0.2142
  758MOL0     C 2260  10.373   2.924   5.131 -0.1410  0.3672 -0.6098
  758MOL0     C 2261  10.385   2.936   5.269 -0.0894  0.8983 -0.2977
  758MOL0     C 2262  10.512   2.887   5.348 -0.4735  0.4104 -0.4202
  758MOL0     H 2263  10.318   2.908   5.723  1.2683  1.2799  1.5098
  758MOL0     H 2264  10.297   2.917   5.966  0.3710 -4.8919 -2.7035
  758MOL0     H 2265  10.055   2.777   6.152 -0.1250  1.3337 -0.7994
  758MOL0     H 2266  10.209   2.867   6.169 -1.2548  2.2993  0.4348
  758MOL0     H 2267   9.953   2.934   6.322  1.6879  0.0417 -0.6149
  758MOL0     H 2268  10.120   3.010   6.336 -0.6750  1.3112  0.7651
  758MOL0     H 2269  10.206   2.833   6.451 -0.1963 -0.2417  2.3848
  758MOL0     H 2270  10.085   2.721   6.399  2.1221 -0.0043  0.1010
  758MOL0     H 2271  10.005   2.971   6.567 -2.0363 -1.0031  1.2143
  758MOL0     H 2272   9.919   2.823   6.551 -1.0153  0.0029 -0.8236
  758MOL0     H 2273  10.185   2.855   6.709  0.8399  0.6738 -0.3727
  758MOL0     H 2274  10.013   2.859   6.762 -3.5790 -0.4233 -1.1691
  758MOL0     H 2275   9.988   2.619   6.656 -0.3532  1.0730 -1.5266
  758MOL0     H 2276  10.152   2.625   6.606 -3.4234  1.5957 -4.0393
  758MOL0     H 2277  10.035   2.637   6.891  0.0740 -1.9668  0.2802
  758MOL0     H 2278  10.210   2.643   6.857  0.4634  1.6509 -0.3313
  758MOL0     H 2279  10.049   2.412   6.761  2.7291 -1.9409 -3.0337
  758MOL0     H 2280  10.221   2.427   6.771 -0.4519  0.1140 -0.6157
  758MOL0     H 2281   9.980   2.242   6.973  0.2574 -1.6532  0.0621
  758MOL0     H 2282   9.919   2.254   7.263 -0.7356  0.4529 -1.6572
  758MOL0     H 2283  10.018   2.118   7.192 -0.4388 -0.2679 -0.7608
  758MOL0     H 2284  10.217   2.183   7.343 -0.5079 -6.4926  0.8653
  758MOL0     H 2285  10.123   2.307   7.420  0.6913 -0.8860  1.0648
  758MOL0     H 2286  10.050   2.005   7.398 -1.4001 -1.0658  0.6383
  758MOL0     H 2287   9.953   2.117   7.485  0.0051 -1.8612  0.1073
  758MOL0     H 2288  10.164   2.167   7.631  0.8798  0.5159  0.2654
  758MOL0     H 2289  10.220   2.024   7.539 -1.9967  0.1451 -3.5011
  758MOL0     H 2290  10.290   2.087   7.772 -0.7374 -2.2468 -2.9852
  758MOL0     H 2291  10.347   2.065   8.011 -1.8673  2.3562 -2.8390
  758MOL0     H 2292  10.414   1.778   8.371  0.4640  2.0922 -0.4087
  758MOL0     H 2293  10.479   1.823   8.606 -0.5867  1.0079 -2.4274
  758MOL0     H 2294  10.409   1.796   8.962  3.2220  3.4469  2.3771
  758MOL0     H 2295  10.461   1.734   8.815 -0.2846 -0.0867 -0.2143
  758MOL0     H 2296  10.557   2.012   8.817 -1.1557  0.3315  1.0647
  758MOL0     H 2297  10.548   1.981   8.976  0.7090  1.1187  0.7341
  758MOL0     H 2298  10.680   1.752   8.809 -1.7095  0.1512 -0.9249
  758MOL0     H 2299  10.784   1.899   8.835 -1.2981  0.9589 -1.2548
  758MOL0     H 2300  10.653   1.702   9.032  0.4103 -0.1700  1.8818
  758MOL0     H 2301  10.759   1.851   9.085  1.9856 -0.1155 -0.2542
  758MOL0     H 2302  10.951   1.738   8.973 -0.2727  0.2285  0.8659
  758MOL0     H 2303  10.850   1.587   8.972  2.2857 -0.1015 -3.2677
  758MOL0     H 2304  11.015   1.626   9.163  0.4763  1.0062 -0.0260
  758MOL0     H 2305  10.932   1.760   9.231  1.3542 -0.4511  0.4525
  758MOL0     H 2306  10.805   1.490   9.180 -0.8229  1.2390 -1.2781
  758MOL0     H 2307  10.719   1.633   9.251  1.0400  1.4117  0.0662
  758MOL0     H 2308  10.825   1.476   9.435  1.4049 -0.3306  0.2433
  758MOL0     H 2309  10.974   1.580   9.395 -0.1043  0.6356  0.7776
  758MOL0     H 2310  10.083   1.918   8.715  1.3822  1.3187  1.1484
  758MOL0     H 2311  10.004   1.884   8.487 -0.4723 -2.4612  1.2880
  758MOL0     H 2312  10.021   1.804   8.079  0.4229  1.4853  1.7477
  758MOL0     H 2313   9.949   1.829   7.849 -0.2257  0.5484 -1.1506
  758MOL0     H 2314   9.882   3.001   5.920 -0.5355  1.3618 -0.9284
  758MOL0     H 2315   9.910   3.029   5.682  1.5045  3.6540  1.5280
  758MOL0     H 2316  10.068   3.064   5.309  1.0825  0.9821  1.6255
  758MOL0     H 2317  10.064   3.040   5.056 -0.4225 -3.4162 -1.6733
  758MOL0     H 2318  10.083   2.901   4.865  0.4726 -2.5520 -1.2276
  758MOL0     H 2319  10.208   2.898   4.734  1.3477 -2.1500  2.2235
  758MOL0     H 2320  10.216   3.148   4.724 -0.9553  1.0200 -1.7648
  758MOL0     H 2321  10.095   3.148   4.849 -1.1107 -1.8735  1.2953
  758MOL0     H 2322   9.985   3.187   4.646 -3.0760 -1.0292  0.4476
  758MOL0     H 2323   9.947   3.026   4.703 -0.5329 -0.7617 -0.6669
  758MOL0     H 2324  10.017   3.078   4.439 -0.5512 -0.1903  0.1006
  758MOL0     H 2325  10.175   3.026   4.500  0.2824 -2.6633 -0.6535
  758MOL0     H 2326   9.974   2.663   4.509 -0.9089  0.3961 -1.1343
  758MOL0     H 2327  10.449   2.862   5.086 -2.1174 -3.3131  0.7181
  758MOL0     H 2328  10.547   2.954   5.427 -0.0636 -0.3725  0.0742
  758MOL0     H 2329  10.498   2.784   5.381 -1.8454  0.2006 -1.5549
  758MOL0     H 2330  10.586   2.884   5.267 -0.5092 -0.0827 -0.4395
  759MOL0     O 2331   9.723   6.558  10.733 -0.3076 -0.0287  0.6870
  759MOL0     C 2332   9.735   6.520  10.850 -0.7898 -0.1301  0.3349
  759MOL0     O 2333   9.643   6.524  10.942  0.6618 -0.2586  0.7058
  759MOL0     C 2334   9.512   6.540  10.901 -0.0036  0.6149 -0.1029
  759MOL0     C 2335   9.429   6.639  10.951  0.0734 -0.0059 -0.5343
  759MOL0     C 2336   9.293   6.633  10.921 -0.4987  0.5150 -0.1768
  759MOL0     C 2337   9.230   6.528  10.857 -0.4328  0.6882  0.3660
  759MOL0     O 2338   9.094   6.518  10.844 -0.1545 -0.2232  1.6364
  759MOL0     C 2339   9.036   6.583  10.721  0.5098  0.7285 -0.8014
  759MOL0     C 2340   8.902   6.513  10.708  0.0662  0.5278  0.2389
  759MOL0     C 2341   8.927   6.374  10.626 -0.2443 -0.0600 -0.3765
  759MOL0     C 2342   8.800   6.283  10.642 -0.4735  0.3763  0.5505
  759MOL0     C 2343   8.803   6.212  10.780 -0.4161  0.0966  0.1455
  759MOL0     C 2344   8.674   6.132  10.809 -1.2712  0.3300 -0.2749
  759MOL0     C 2345   8.696   6.055  10.938 -0.2239 -0.3322  0.1938
  759MOL0     C 2346   8.745   6.120  11.077 -0.3743 -0.2604 -1.0794
  759MOL0     N 2347   8.892   6.135  11.103 -1.2332 -0.4047 -0.4769
  759MOL0     C 2348   8.975   6.247  11.102 -0.6358  0.1266 -0.2915
  759MOL0     C 2349   9.102   6.200  11.121 -0.6562  0.4926  0.3084
  759MOL0     C 2350   9.229   6.284  11.105 -0.6239 -0.8923 -0.3977
  759MOL0     C 2351   9.357   6.229  11.167 -0.1826 -0.4078 -0.4453
  759MOL0     C 2352   9.362   6.215  11.313  0.8245 -0.1508  0.6653
  759MOL0     C 2353   9.300   6.331  11.396  0.2701 -1.1651  0.4466
  759MOL0     O 2354   9.385   6.444  11.375  0.6652 -0.1413  0.8176
  759MOL0     C 2355   9.362   6.574  11.408  0.0637 -0.1766  0.3678
  759MOL0     C 2356   9.248   6.620  11.465 -0.0249  0.0898 -0.1743
  759MOL0     C 2357   9.234   6.760  11.488 -1.0270 -0.5328 -0.4365
  759MOL0     C 2358   9.344   6.847  11.469 -0.0783 -0.2737  0.1955
  759MOL0     C 2359   9.340   6.995  11.496  1.5404  0.6898  0.1730
  759MOL0     O 2360   9.214   7.046  11.521  0.8198  0.3190 -0.0823
  759MOL0     C 2361   9.180   7.179  11.540  0.5582 -0.2191  0.4346
  759MOL0     C 2362   9.050   7.219  11.503  0.3968  0.0095 -0.1552
  759MOL0     C 2363   9.000   7.351  11.529  0.1006  0.3775 -0.5137
  759MOL0     C 2364   9.079   7.446  11.595 -0.5379  0.6890 -0.1647
  759MOL0     O 2365   9.028   7.569  11.628  0.9483  0.3373 -0.5944
  759MOL0     C 2366   9.126   7.671  11.628  0.2884  0.5196  0.0400
  759MOL0     C 2367   9.078   7.815  11.621  0.5507 -0.0698  0.0307
  759MOL0     C 2368   9.187   7.922  11.568  0.0217 -0.2806  0.5986
  759MOL0     C 2369   9.127   8.054  11.581  0.1633  0.1164  0.6915
  759MOL0     C 2370   9.179   8.128  11.704 -1.6373 -0.6598 -0.4548
  759MOL0     C 2371   9.088   8.249  11.726 -0.6359  0.0067 -0.0472
  759MOL0     C 2372   9.050   8.328  11.600  1.0416  0.0130 -0.4304
  759MOL0     C 2373   8.964   8.448  11.635  0.0472  0.1813  0.7714
  759MOL0    Cl 2374   9.055   8.567  11.736 -0.4137  0.0236 -0.1550
  759MOL0     C 2375   9.207   7.408  11.632  0.6103  0.3079  0.3813
  759MOL0     C 2376   9.255   7.275  11.606 -0.2802  0.5767 -0.1977
  759MOL0     O 2377   9.449   7.045  11.514  0.2916 -0.1459  0.5108
  759MOL0     C 2378   9.464   6.798  11.419 -0.9887  0.2603 -0.1474
  759MOL0     C 2379   9.469   6.662  11.369 -0.4296 -0.3458  0.6184
  759MOL0     N 2380   9.091   6.062  11.145  0.1987  0.1629 -0.1152
  759MOL0     N 2381   8.971   6.030  11.141 -0.2516 -0.7122 -0.6693
  759MOL0     C 2382   9.312   6.422  10.819 -0.2739 -0.2730  0.6290
  759MOL0     C 2383   9.453   6.433  10.829 -0.1387  0.1724  0.0148
  759MOL0     C 2384   9.878   6.479  10.898  0.2710  0.5087  0.8753
  759MOL0     C 2385   9.973   6.499  10.792  0.7359 -1.3108 -0.4004
  759MOL0     C 2386  10.109   6.506  10.828  0.1594 -0.2792 -0.2114
  759MOL0     C 2387  10.159   6.459  10.951 -0.7999 -0.2678 -0.6696
  759MOL0     O 2388  10.293   6.447  10.985  0.4116  0.1197  0.3534
  759MOL0     C 2389  10.356   6.564  11.017 -0.6535  0.2063  0.7291
  759MOL0     C 2390  10.294   6.631  11.139  0.0271  0.3250 -1.2918
  759MOL0     C 2391  10.215   6.768  11.126  0.4392  0.0712 -0.9777
  759MOL0     C 2392  10.163   6.830  11.262  0.0808  0.0093  0.1246
  759MOL0     C 2393  10.266   6.856  11.361 -0.5736  0.8524  0.1892
  759MOL0     C 2394  10.347   6.881  11.442 -0.4501 -0.4823  0.1499
  759MOL0     C 2395  10.061   6.411  11.041 -0.5302 -0.3917  0.4390
  759MOL0     C 2396   9.921   6.441  11.028 -0.7283  0.5427 -0.8244
  759MOL0     C 2397   9.820   6.413  11.141 -0.4632  0.1108 -0.4314
  759MOL0     H 2398   9.466   6.729  11.001  0.3793  0.0960 -0.9393
  759MOL0     H 2399   9.216   6.703  10.951  0.9545  1.5883  1.2236
  759MOL0     H 2400   9.026   6.689  10.749  0.2341  0.2805  0.9115
  759MOL0     H 2401   9.096   6.565  10.632 -1.4572 -2.8086 -1.6026
  759MOL0     H 2402   8.842   6.582  10.647 -0.1970  2.5360  2.6099
  759MOL0     H 2403   8.848   6.490  10.801  0.6001 -2.2025 -0.0319
  759MOL0     H 2404   9.019   6.327  10.661 -0.4771 -0.2930 -0.0726
  759MOL0     H 2405   8.946   6.391  10.520  0.1999 -3.9340 -1.0709
  759MOL0     H 2406   8.714   6.350  10.640  1.5321  3.2144 -2.7615
  759MOL0     H 2407   8.790   6.210  10.560 -0.6964 -1.0356  1.7844
  759MOL0     H 2408   8.882   6.137  10.774  0.3589  0.9822 -1.3226
  759MOL0     H 2409   8.834   6.273  10.865  0.7927  0.3806 -0.4776
  759MOL0     H 2410   8.588   6.200  10.807 -0.6734  1.0976 -0.5294
  759MOL0     H 2411   8.653   6.062  10.727 -2.3073  1.7567 -1.2869
  759MOL0     H 2412   8.767   5.973  10.924  0.3380  0.0580  0.6971
  759MOL0     H 2413   8.599   6.009  10.957 -1.7527  3.1156  1.5114
  759MOL0     H 2414   8.701   6.219  11.091  0.9909  0.0659  1.6253
  759MOL0     H 2415   8.706   6.067  11.165  0.1496 -0.7278 -1.1211
  759MOL0     H 2416   8.952   6.350  11.079 -0.6109  1.1262  3.4330
  759MOL0     H 2417   9.241   6.276  10.997 -0.6138 -1.8726 -0.3407
  759MOL0     H 2418   9.201   6.383  11.141  0.1068  0.7113 -3.9094
  759MOL0     H 2419   9.387   6.136  11.119  0.2643  1.1003 -3.3313
  759MOL0     H 2420   9.437   6.291  11.125  2.0271 -2.5420  0.4002
  759MOL0     H 2421   9.466   6.205  11.346  1.3141 -1.4013 -1.1224
  759MOL0     H 2422   9.292   6.133  11.331 -3.3949  2.9070 -0.3275
  759MOL0     H 2423   9.289   6.325  11.505 -2.3462 -2.9704  0.1769
  759MOL0     H 2424   9.206   6.358  11.346  1.1147 -0.0598 -0.6117
  759MOL0     H 2425   9.159   6.558  11.470 -0.1259  0.2607  0.2605
  759MOL0     H 2426   9.137   6.803  11.511  0.1266  1.5705  0.7455
  759MOL0     H 2427   8.976   7.152  11.459  1.6823 -1.2473 -0.4809
  759MOL0     H 2428   8.904   7.372  11.483 -1.0521  0.5782  1.8472
  759MOL0     H 2429   9.196   7.662  11.712  1.4484  0.8204 -0.8513
  759MOL0     H 2430   9.182   7.649  11.536  1.0612 -1.8866  1.0203
  759MOL0     H 2431   8.997   7.819  11.547 -0.8953  1.3024  1.6150
  759MOL0     H 2432   9.031   7.839  11.717 -5.0929  1.9895 -2.7724
  759MOL0     H 2433   9.280   7.921  11.626 -0.7913 -1.4829  1.9475
  759MOL0     H 2434   9.202   7.899  11.462 -2.1423 -1.5187  0.5025
  759MOL0     H 2435   9.019   8.038  11.579  0.3521 -1.3761  1.2164
  759MOL0     H 2436   9.156   8.117  11.496 -3.1335  1.0714  0.1467
  759MOL0     H 2437   9.279   8.162  11.675 -1.2443 -0.0426  1.4906
  759MOL0     H 2438   9.179   8.067  11.794  2.3680  1.7158  1.4248
  759MOL0     H 2439   8.996   8.222  11.779 -0.3768  0.0477  0.4346
  759MOL0     H 2440   9.132   8.321  11.796  1.1488  0.7000 -1.7880
  759MOL0     H 2441   8.989   8.273  11.527  2.6692 -1.3973 -0.7866
  759MOL0     H 2442   9.133   8.360  11.536 -0.3046  3.3199 -0.7503
  759MOL0     H 2443   8.928   8.499  11.546  0.3692  0.3343  0.7274
  759MOL0     H 2444   8.882   8.421  11.703 -0.7079  3.2959  1.2450
  759MOL0     H 2445   9.269   7.472  11.694  4.0912  0.6063 -3.0111
  759MOL0     H 2446   9.350   7.239  11.643  0.2556 -1.9573 -3.5505
  759MOL0     H 2447   9.557   6.850  11.401 -0.6975 -0.5788 -1.1707
  759MOL0     H 2448   9.559   6.626  11.321 -1.0752 -0.8512 -0.2452
  759MOL0     H 2449   9.267   6.343  10.760  0.8088  0.0508 -0.6919
  759MOL0     H 2450   9.516   6.355  10.788 -1.2475  0.3346 -2.1654
  759MOL0     H 2451   9.955   6.531  10.689  4.4310 -0.5394 -0.9595
  759MOL0     H 2452  10.188   6.542  10.762 -1.5004 -1.3393 -2.9332
  759MOL0     H 2453  10.353   6.623  10.925  0.7115 -1.8680 -0.7363
  759MOL0     H 2454  10.462   6.545  11.040 -0.8858  0.4918  2.1743
  759MOL0     H 2455  10.376   6.653  11.208 -1.5007  2.7608 -0.1198
  759MOL0     H 2456  10.240   6.563  11.205  0.6898  2.7455  1.9580
  759MOL0     H 2457  10.135   6.771  11.052 -0.5877  0.4685  0.1039
  759MOL0     H 2458  10.294   6.839  11.102  1.7425 -0.2287  1.9658
  759MOL0     H 2459  10.115   6.925  11.236 -0.0883 -0.5158 -1.5524
  759MOL0     H 2460  10.089   6.760  11.300  0.7057 -2.5406 -2.9388
  759MOL0     H 2461  10.420   6.916  11.512 -2.0002 -1.9078  2.6545
  759MOL0     H 2462  10.098   6.388  11.140  4.5178  1.1163 -0.7917
  759MOL0     H 2463   9.730   6.358  11.112 -0.4044  0.5523 -1.5086
  759MOL0     H 2464   9.867   6.369  11.230 -0.6306  2.6071  0.9845
  759MOL0     H 2465   9.781   6.503  11.189  1.0081  0.2014  0.6661
  760MOL0     O 2466  11.163   9.918  10.279 -0.3907 -0.4933  0.9839
  760MOL0     C 2467  11.056   9.884  10.338 -0.8691 -0.4489 -0.7731
  760MOL0     O 2468  11.053   9.775  10.416 -0.1954  0.6866  0.6334
  760MOL0     C 2469  11.140   9.670  10.398  1.7579 -0.2674  0.6736
  760MOL0     C 2470  11.192   9.605  10.508  0.5995  0.2238  1.0500
  760MOL0     C 2471  11.277   9.493  10.488 -0.4793 -0.3942 -0.5309
  760MOL0     C 2472  11.316   9.448  10.363  0.0014  0.7177 -0.7336
  760MOL0     O 2473  11.399   9.338  10.362 -0.7729  0.4230  0.3275
  760MOL0     C 2474  11.519   9.375  10.289  0.0685  0.0330 -0.1216
  760MOL0     C 2475  11.643   9.287  10.306  0.6920 -0.3714 -0.7571
  760MOL0     C 2476  11.690   9.297  10.454 -0.3424  0.1298  0.5777
  760MOL0     C 2477  11.828   9.232  10.465 -0.1294 -0.1905 -0.3344
  760MOL0     C 2478  11.828   9.074  10.463 -0.1016 -0.1505 -0.4208
  760MOL0     C 2479  11.735   9.005  10.570  0.4849  0.6475  0.3116
  760MOL0     C 2480  11.751   8.852  10.585 -0.1177  0.6073  0.2420
  760MOL0     C 2481  11.902   8.822  10.610  0.4278 -0.0147  0.8152
  760MOL0     N 2482  11.902   8.707  10.701 -0.2054 -0.6179 -0.1737
  760MOL0     C 2483  11.911   8.578  10.666  0.8749 -0.2397  0.6414
  760MOL0     C 2484  11.955   8.511  10.776 -0.4641  0.5657 -0.3110
  760MOL0     C 2485  11.983   8.365  10.780 -0.1689  0.1465  1.2959
  760MOL0     C 2486  11.912   8.290  10.900  0.4633 -1.1218 -0.8550
  760MOL0     C 2487  11.980   8.329  11.031 -0.1192 -0.2341  0.1363
  760MOL0     C 2488  11.973   8.217  11.132  0.0415  1.3692 -0.1715
  760MOL0     O 2489  11.835   8.201  11.168 -0.4232  0.5560 -0.5326
  760MOL0     C 2490  11.809   8.266  11.288  0.7267  0.4055  0.1292
  760MOL0     C 2491  11.750   8.389  11.282 -0.0364 -0.5277  0.3369
  760MOL0     C 2492  11.716   8.443  11.404  0.3717  0.5086  1.0077
  760MOL0     C 2493  11.750   8.387  11.526 -0.4739  0.1997  0.1406
  760MOL0     C 2494  11.714   8.461  11.645 -0.5806 -0.7634 -0.1591
  760MOL0     O 2495  11.755   8.396  11.762 -1.2658 -0.3953  0.1803
  760MOL0     C 2496  11.685   8.418  11.876 -0.8044  0.1480 -0.5275
  760MOL0     C 2497  11.635   8.307  11.947  0.1857 -0.8062  0.2093
  760MOL0     C 2498  11.588   8.324  12.076  1.2596  0.1229 -0.6443
  760MOL0     C 2499  11.603   8.446  12.144 -0.6206 -1.2878  0.0983
  760MOL0     O 2500  11.575   8.450  12.276  0.3029 -0.8999 -0.2634
  760MOL0     C 2501  11.572   8.581  12.348 -1.1178  0.2514  0.2036
  760MOL0     C 2502  11.714   8.629  12.403  0.4114  1.2398  0.1383
  760MOL0     C 2503  11.706   8.753  12.481  0.0743  0.8461 -0.7404
  760MOL0     C 2504  11.671   8.729  12.629 -0.4172  0.2342 -0.0383
  760MOL0     C 2505  11.618   8.850  12.709 -0.0322 -1.3625  0.2449
  760MOL0     C 2506  11.480   8.894  12.651  0.1858 -0.0461 -0.3948
  760MOL0     C 2507  11.400   8.961  12.755  0.1831  0.7681 -0.6699
  760MOL0     C 2508  11.286   9.043  12.692 -0.1283 -0.0688  0.2286
  760MOL0    Cl 2509  11.337   9.190  12.601  0.5777 -0.0200  0.1953
  760MOL0     C 2510  11.673   8.552  12.082 -0.6665  0.1957 -0.3112
  760MOL0     C 2511  11.708   8.529  11.946  0.3110 -0.0095 -0.0134
  760MOL0     O 2512  11.640   8.566  11.641 -1.0392 -0.2797 -0.6721
  760MOL0     C 2513  11.825   8.273  11.530 -0.0860  1.2620  0.2029
  760MOL0     C 2514  11.846   8.208  11.408  0.2058  0.2337  0.4796
  760MOL0     N 2515  11.970   8.606  10.875 -1.0069  1.2410  0.9080
  760MOL0     N 2516  11.948   8.721  10.830  0.9012  0.9526  0.1852
  760MOL0     C 2517  11.271   9.516  10.246  0.0689 -0.8259  0.4775
  760MOL0     C 2518  11.178   9.624  10.264  0.7648  0.3049  0.9306
  760MOL0     C 2519  10.951   9.985  10.349 -0.2911 -1.0018 -0.1719
  760MOL0     C 2520  10.980  10.122  10.344 -0.9672 -0.3667  1.1548
  760MOL0     C 2521  10.881  10.224  10.380 -0.9945  0.0215  0.4889
  760MOL0     C 2522  10.760  10.183  10.416 -0.0357 -0.8955  1.1257
  760MOL0     O 2523  10.671  10.284  10.450 -0.5358 -1.0983 -0.5427
  760MOL0     C 2524  10.570  10.253  10.551 -0.6082  1.0029  0.0022
  760MOL0     C 2525  10.511  10.394  10.597  0.0388  0.4525  0.5403
  760MOL0     C 2526  10.439  10.463  10.475 -0.7984 -0.2893  0.0884
  760MOL0     C 2527  10.348  10.584  10.496 -0.6149  0.2974  0.7856
  760MOL0     C 2528  10.246  10.540  10.596 -0.5079  0.3855 -0.4395
  760MOL0     C 2529  10.169  10.502  10.678  0.0586  0.2902  0.1701
  760MOL0     C 2530  10.732  10.044  10.414 -0.2145  0.7011 -0.2768
  760MOL0     C 2531  10.823   9.942  10.378  0.0230 -0.7930 -1.1459
  760MOL0     C 2532  10.762   9.805  10.370 -0.8759 -0.2516 -0.4252
  760MOL0     H 2533  11.160   9.626  10.609  3.3310 -2.3965  2.6332
  760MOL0     H 2534  11.316   9.452  10.581  3.3315  1.0329 -1.2903
  760MOL0     H 2535  11.491   9.375  10.183  2.5315 -0.2617 -0.8262
  760MOL0     H 2536  11.541   9.482  10.298  0.9420  0.0644 -2.1605
  760MOL0     H 2537  11.712   9.327  10.230 -1.2584 -0.3385 -2.6123
  760MOL0     H 2538  11.614   9.188  10.271  1.2718 -0.4483 -1.0382
  760MOL0     H 2539  11.619   9.246  10.520 -1.4761  2.4381  1.2502
  760MOL0     H 2540  11.696   9.403  10.479  2.5465  0.0736  0.4521
  760MOL0     H 2541  11.894   9.265  10.384 -0.0361 -0.4617 -0.3672
  760MOL0     H 2542  11.861   9.261  10.565 -2.1327  3.2476 -0.5170
  760MOL0     H 2543  11.799   9.026  10.369 -0.2618  1.3000 -1.1304
  760MOL0     H 2544  11.928   9.042  10.494 -1.3402 -3.0785  1.0257
  760MOL0     H 2545  11.755   9.051  10.667 -1.5616  0.4219  0.8971
  760MOL0     H 2546  11.629   9.028  10.553  1.1446  3.0495 -0.9570
  760MOL0     H 2547  11.720   8.806  10.491  3.3502 -2.3697  0.3611
  760MOL0     H 2548  11.690   8.809  10.665 -1.3230 -2.4770 -2.1280
  760MOL0     H 2549  11.953   8.801  10.516 -2.9948  1.2215 -1.4836
  760MOL0     H 2550  11.958   8.901  10.662 -3.0709  2.4597  1.1530
  760MOL0     H 2551  11.885   8.548  10.565  1.6492  2.2103 -0.3590
  760MOL0     H 2552  11.941   8.329  10.685 -2.0965  2.8725  1.0030
  760MOL0     H 2553  12.090   8.345  10.774 -0.3775 -2.0738  3.3044
  760MOL0     H 2554  11.806   8.320  10.899  0.2399 -1.6621  1.7550
  760MOL0     H 2555  11.930   8.183  10.884  1.6128 -1.4671  2.1108
  760MOL0     H 2556  11.945   8.421  11.080  2.1307  0.2145  1.0285
  760MOL0     H 2557  12.085   8.340  11.000  0.0144 -2.2472 -0.2358
  760MOL0     H 2558  12.041   8.237  11.215  0.1518  1.5259 -0.2987
  760MOL0     H 2559  12.013   8.121  11.098 -0.4543 -0.1304  3.0594
  760MOL0     H 2560  11.714   8.440  11.194 -2.7214 -3.4727 -0.4677
  760MOL0     H 2561  11.655   8.533  11.395  2.8989  2.3303  1.1662
  760MOL0     H 2562  11.645   8.215  11.891 -0.3239 -1.5047  1.2099
  760MOL0     H 2563  11.550   8.241  12.134 -1.4824  1.1971 -0.7757
  760MOL0     H 2564  11.522   8.655  12.286 -1.8437 -0.9956 -0.7360
  760MOL0     H 2565  11.512   8.560  12.437 -0.9312  2.2886  0.8559
  760MOL0     H 2566  11.763   8.543  12.449 -2.2858 -1.7357 -2.0363
  760MOL0     H 2567  11.775   8.659  12.317  1.4916  0.6241  0.6722
  760MOL0     H 2568  11.806   8.795  12.494 -0.8152  2.9033 -0.1546
  760MOL0     H 2569  11.636   8.826  12.440 -1.7374 -1.0888 -1.2700
  760MOL0     H 2570  11.753   8.685  12.687 -0.1980  0.8109  0.0969
  760MOL0     H 2571  11.590   8.656  12.619  0.6931 -0.7232 -3.3238
  760MOL0     H 2572  11.692   8.928  12.724 -2.1231  0.0914  5.2543
  760MOL0     H 2573  11.602   8.821  12.813  3.8119 -1.8113  0.8682
  760MOL0     H 2574  11.494   8.953  12.560  0.9604 -0.3976 -0.5131
  760MOL0     H 2575  11.426   8.804  12.621  0.8528 -0.4839 -0.3211
  760MOL0     H 2576  11.465   9.028  12.812  1.9523 -1.9027  0.6562
  760MOL0     H 2577  11.356   8.899  12.834  0.5045  2.7092  1.1194
  760MOL0     H 2578  11.228   8.978  12.627  1.3849 -0.7188 -0.5327
  760MOL0     H 2579  11.223   9.081  12.773 -1.4337  0.6096 -1.0693
  760MOL0     H 2580  11.706   8.644  12.129  3.6136 -1.4779  0.4606
  760MOL0     H 2581  11.754   8.611  11.892  1.3393  0.7004  1.8626
  760MOL0     H 2582  11.857   8.232  11.626 -2.7603  0.9424  1.0554
  760MOL0     H 2583  11.891   8.109  11.402  0.5332  0.4719 -2.5086
  760MOL0     H 2584  11.307   9.476  10.152 -1.3677 -0.4177 -0.2788
  760MOL0     H 2585  11.147   9.677  10.175 -0.0079 -1.1097  0.3248
  760MOL0     H 2586  11.080  10.155  10.314 -0.5716 -0.0971  2.6513
  760MOL0     H 2587  10.908  10.329  10.372 -1.1811 -0.0492 -2.8261
  760MOL0     H 2588  10.610  10.216  10.646 -3.3063 -2.4993 -0.0606
  760MOL0     H 2589  10.498  10.176  10.525  2.4124 -0.9569 -3.5791
  760MOL0     H 2590  10.594  10.458  10.628  0.4684  0.2606 -0.1819
  760MOL0     H 2591  10.440  10.367  10.675 -0.7001 -0.8180 -0.5420
  760MOL0     H 2592  10.398  10.383  10.413 -2.0030  0.5238 -0.1967
  760MOL0     H 2593  10.524  10.500  10.417  0.8426 -4.1288 -0.2443
  760MOL0     H 2594  10.401  10.669  10.540  1.2686 -1.2584  1.6832
  760MOL0     H 2595  10.307  10.615  10.400 -2.2047 -2.2138  0.5558
  760MOL0     H 2596  10.096  10.476  10.753 -1.4637  2.8998 -0.3034
  760MOL0     H 2597  10.633  10.008  10.441  0.3998 -0.9051 -0.0858
  760MOL0     H 2598  10.840   9.731  10.348 -0.0104  0.4371  0.2496
  760MOL0     H 2599  10.707   9.789  10.463  0.0339  5.3775  1.4579
  760MOL0     H 2600  10.694   9.809  10.284 -1.1666  2.4848 -0.1367
  761MOL0     O 2601   1.493   7.878   0.322  0.0709  0.4485 -0.3303
  761MOL0     C 2602   1.419   7.858   0.423 -0.2319 -0.2803  0.6796
  761MOL0     O 2603   1.282   7.861   0.425  0.6936 -0.2237  0.7839
  761MOL0     C 2604   1.210   7.914   0.324 -0.1383  0.4420  0.0666
  761MOL0     C 2605   1.078   7.858   0.295  0.1131  0.1442 -0.3275
  761MOL0     C 2606   0.999   7.913   0.194  0.6295  1.0096  0.5584
  761MOL0     C 2607   1.042   8.011   0.106 -0.3069  0.5185 -0.2289
  761MOL0     O 2608   0.952   8.056   0.009 -0.0468  0.2962  0.4084
  761MOL0     C 2609   1.010   8.146  -0.089  0.4067  0.1534  0.0161
  761MOL0     C 2610   0.906   8.203  -0.188 -0.1391 -0.0321  0.0908
  761MOL0     C 2611   0.968   8.317  -0.264  0.0220  0.6533 -0.7446
  761MOL0     C 2612   0.892   8.364  -0.384 -0.7312  1.1139 -0.3512
  761MOL0     C 2613   0.934   8.497  -0.430  0.0127  0.5085 -0.0330
  761MOL0     C 2614   0.846   8.559  -0.541  0.0563 -1.2177 -0.4778
  761MOL0     C 2615   0.898   8.694  -0.585 -0.0593  0.0773  0.2286
  761MOL0     C 2616   0.783   8.764  -0.673 -0.6035 -0.1411  0.3885
  761MOL0     N 2617   0.774   8.729  -0.820  0.1476 -0.2908 -0.1845
  761MOL0     C 2618   0.727   8.605  -0.860 -0.2801 -0.0229 -0.2149
  761MOL0     C 2619   0.711   8.615  -0.990  0.1851  0.1449 -0.1226
  761MOL0     C 2620   0.668   8.499  -1.079  0.0733  0.5761  0.2027
  761MOL0     C 2621   0.793   8.440  -1.130  0.0624 -0.5617 -0.6360
  761MOL0     C 2622   0.779   8.294  -1.154 -0.0016 -0.8166  0.3057
  761MOL0     C 2623   0.736   8.205  -1.036 -0.8618 -0.1742  0.1994
  761MOL0     O 2624   0.831   8.215  -0.926  0.3196 -1.3494  0.0657
  761MOL0     C 2625   0.815   8.129  -0.823  0.6193  0.3720  1.0290
  761MOL0     C 2626   0.704   8.048  -0.794 -0.2625 -0.0844 -0.0886
  761MOL0     C 2627   0.712   7.948  -0.694  0.6911 -0.8247  1.0288
  761MOL0     C 2628   0.826   7.931  -0.613  0.0724  1.9726  0.5400
  761MOL0     C 2629   0.836   7.832  -0.496  0.1597  0.0988  0.1912
  761MOL0     O 2630   0.963   7.814  -0.439 -0.3386 -1.3038  0.8297
  761MOL0     C 2631   0.976   7.725  -0.340 -0.0122  0.1719 -0.0016
  761MOL0     C 2632   0.959   7.750  -0.197  0.2099  0.1708  0.9842
  761MOL0     C 2633   0.997   7.655  -0.098  0.2710 -0.0441  0.1610
  761MOL0     C 2634   1.052   7.533  -0.133  0.3689 -0.7787  0.4050
  761MOL0     O 2635   1.078   7.452  -0.019  0.7141 -1.0044 -0.2912
  761MOL0     C 2636   1.167   7.343  -0.037 -0.1893  0.7887  0.6961
  761MOL0     C 2637   1.229   7.300   0.099  0.1676 -0.4462  0.5445
  761MOL0     C 2638   1.140   7.340   0.219 -0.7541 -1.1266  0.3303
  761MOL0     C 2639   1.190   7.289   0.369 -0.3102  0.0749 -0.3688
  761MOL0     C 2640   1.089   7.312   0.479 -0.0984  0.3211 -0.4750
  761MOL0     C 2641   0.992   7.190   0.503  0.3067  0.6631  0.0922
  761MOL0     C 2642   0.895   7.236   0.603 -0.3653 -0.1025 -0.4721
  761MOL0     C 2643   0.954   7.235   0.745  0.1161  0.8843 -1.0693
  761MOL0    Cl 2644   0.824   7.264   0.874 -0.1222 -0.0586 -0.3002
  761MOL0     C 2645   1.060   7.506  -0.268 -0.8380  0.1009 -0.3802
  761MOL0     C 2646   1.034   7.603  -0.363 -0.2305 -0.6979  0.4374
  761MOL0     O 2647   0.736   7.779  -0.461 -0.0912 -0.2709  0.0976
  761MOL0     C 2648   0.935   8.015  -0.645  0.1717 -1.3089 -0.2614
  761MOL0     C 2649   0.926   8.118  -0.738 -0.3781  0.7216 -0.5089
  761MOL0     N 2650   0.758   8.744  -1.027  0.3848  0.7397  0.0499
  761MOL0     N 2651   0.777   8.817  -0.923  0.9113  0.5302 -0.1032
  761MOL0     C 2652   1.168   8.066   0.134  0.6132 -0.0814  0.2867
  761MOL0     C 2653   1.250   8.018   0.242 -0.7842 -0.0620 -0.4296
  761MOL0     C 2654   1.490   7.822   0.544 -0.3525  0.4548  1.1994
  761MOL0     C 2655   1.616   7.880   0.583  0.3753 -0.3528 -0.6582
  761MOL0     C 2656   1.682   7.849   0.701 -0.3183  0.0086  0.6531
  761MOL0     C 2657   1.629   7.768   0.796  0.4345 -0.0522  0.8509
  761MOL0     O 2658   1.685   7.723   0.913  0.1864  0.1844  0.5281
  761MOL0     C 2659   1.815   7.774   0.961  0.5818 -0.0062  0.2997
  761MOL0     C 2660   1.925   7.696   0.888 -0.0382 -0.0656  0.1877
  761MOL0     C 2661   2.049   7.698   0.989  0.1498 -0.2308 -0.1436
  761MOL0     C 2662   2.114   7.835   1.031  0.2596  1.1956  0.2139
  761MOL0     C 2663   2.182   7.910   0.920 -0.5294  0.8997 -0.2018
  761MOL0     C 2664   2.244   7.975   0.839 -0.1459 -0.1409 -0.1034
  761MOL0     C 2665   1.507   7.711   0.772 -0.1936  0.2160  0.4765
  761MOL0     C 2666   1.444   7.725   0.643  0.5959  0.1654 -0.0061
  761MOL0     C 2667   1.337   7.625   0.606 -0.8104  0.6599 -0.8756
  761MOL0     H 2668   1.048   7.777   0.360  2.0836  1.4489  2.4249
  761MOL0     H 2669   0.899   7.872   0.180 -0.1102  1.1445  4.4365
  761MOL0     H 2670   1.040   8.237  -0.036  0.2696 -0.5103  1.2741
  761MOL0     H 2671   1.089   8.096  -0.145  0.9294  1.2004 -0.2058
  761MOL0     H 2672   0.819   8.237  -0.132  1.2538  0.0639  2.2867
  761MOL0     H 2673   0.870   8.136  -0.267  0.9421  0.5732 -0.9589
  761MOL0     H 2674   1.069   8.295  -0.297 -1.5098 -4.0461 -3.1611
  761MOL0     H 2675   0.966   8.405  -0.199  0.4090 -0.7399  1.2246
  761MOL0     H 2676   0.897   8.298  -0.471  0.3490  0.1137  0.4388
  761MOL0     H 2677   0.789   8.381  -0.351  0.2195  3.2807  1.8246
  761MOL0     H 2678   0.943   8.562  -0.342  0.7420  1.1322 -0.5536
  761MOL0     H 2679   1.031   8.485  -0.477 -0.2208  2.0482 -0.9920
  761MOL0     H 2680   0.847   8.495  -0.630  1.9510 -1.7949 -0.1078
  761MOL0     H 2681   0.742   8.559  -0.509  0.2871 -0.5436  0.2986
  761MOL0     H 2682   0.993   8.683  -0.637 -0.2984  2.0932 -0.7251
  761MOL0     H 2683   0.916   8.755  -0.496  2.2952  1.0369 -0.8232
  761MOL0     H 2684   0.684   8.752  -0.628 -1.3563  2.0463 -0.5314
  761MOL0     H 2685   0.810   8.870  -0.677 -2.4255  0.3131 -1.3089
  761MOL0     H 2686   0.711   8.512  -0.805  1.0875 -0.7729 -1.0269
  761MOL0     H 2687   0.615   8.442  -1.002  0.9400 -2.1596 -1.1088
  761MOL0     H 2688   0.601   8.527  -1.161 -1.3141  2.5388  1.8985
  761MOL0     H 2689   0.817   8.494  -1.222 -0.9977  0.5487 -0.2882
  761MOL0     H 2690   0.880   8.449  -1.064  2.1563  1.4868 -3.4201
  761MOL0     H 2691   0.881   8.264  -1.182  0.2340 -2.0777  2.3073
  761MOL0     H 2692   0.710   8.283  -1.239  0.5261  0.8650 -0.3767
  761MOL0     H 2693   0.730   8.103  -1.075 -1.0541 -0.9592  2.1627
  761MOL0     H 2694   0.634   8.224  -1.001 -1.0473  2.3844 -1.5171
  761MOL0     H 2695   0.618   8.049  -0.860 -0.7567 -1.6752  0.4813
  761MOL0     H 2696   0.626   7.888  -0.664  0.8069 -0.4509  2.1750
  761MOL0     H 2697   0.907   7.839  -0.162 -3.6817 -1.6723  0.4189
  761MOL0     H 2698   0.977   7.681   0.006  0.3234  0.6769  0.0010
  761MOL0     H 2699   1.118   7.256  -0.083  2.4481 -1.1142  1.2475
  761MOL0     H 2700   1.248   7.369  -0.105  0.4660  1.2616  1.6320
  761MOL0     H 2701   1.270   7.200   0.112 -1.2358 -1.1356 -0.1476
  761MOL0     H 2702   1.316   7.367   0.102 -1.7019  2.8792 -5.2016
  761MOL0     H 2703   1.123   7.448   0.227  2.8720 -0.3961 -0.2846
  761MOL0     H 2704   1.036   7.312   0.198 -2.2193  3.5387  0.2353
  761MOL0     H 2705   1.272   7.353   0.402 -1.4548  1.0698  0.6502
  761MOL0     H 2706   1.212   7.182   0.362  1.1869  0.2866  0.5905
  761MOL0     H 2707   1.028   7.400   0.459 -0.2907  0.8359  2.0604
  761MOL0     H 2708   1.149   7.330   0.569 -2.3338 -3.3792  2.0171
  761MOL0     H 2709   0.953   7.177   0.402  4.5890 -2.3111 -1.4299
  761MOL0     H 2710   1.039   7.094   0.527 -1.5767 -0.4725 -0.4926
  761MOL0     H 2711   0.810   7.167   0.595 -2.1256  1.9985 -0.6646
  761MOL0     H 2712   0.868   7.338   0.575  1.6557 -0.0158 -2.3768
  761MOL0     H 2713   0.986   7.134   0.771 -4.3792  0.0756  2.7114
  761MOL0     H 2714   1.032   7.310   0.762  0.6327  0.1246  0.0442
  761MOL0     H 2715   1.110   7.413  -0.295 -2.5968 -0.5148 -1.6405
  761MOL0     H 2716   1.053   7.578  -0.467 -0.9680  2.3507 -0.5196
  761MOL0     H 2717   1.021   8.017  -0.579 -0.0377  1.5252  0.0164
  761MOL0     H 2718   1.011   8.186  -0.737 -1.1119  1.8464 -3.2899
  761MOL0     H 2719   1.206   8.155   0.083 -1.1134  0.0507 -0.8496
  761MOL0     H 2720   1.342   8.073   0.260 -0.8401 -0.1088  0.0061
  761MOL0     H 2721   1.671   7.928   0.502  0.7081 -2.1206 -1.5439
  761MOL0     H 2722   1.777   7.894   0.727 -1.0087  2.3475 -0.5531
  761MOL0     H 2723   1.820   7.764   1.070  1.4142  0.3386  0.2970
  761MOL0     H 2724   1.820   7.881   0.940  0.0898  0.2048  1.1841
  761MOL0     H 2725   1.942   7.752   0.795 -0.1626  1.7444  1.2190
  761MOL0     H 2726   1.898   7.591   0.867 -0.2270  0.3063 -1.6195
  761MOL0     H 2727   2.129   7.632   0.956 -0.1573  0.1711 -1.7885
  761MOL0     H 2728   2.001   7.660   1.080  0.9478 -2.4456 -0.5987
  761MOL0     H 2729   2.044   7.901   1.082 -5.3112 -3.7412 -0.0251
  761MOL0     H 2730   2.194   7.804   1.098  1.3278  0.4245 -1.3563
  761MOL0     H 2731   2.325   8.007   0.775  1.4489 -3.2673  0.1609
  761MOL0     H 2732   1.456   7.634   0.828 -0.1764 -0.3582 -0.2787
  761MOL0     H 2733   1.309   7.628   0.501 -0.8243 -4.2275 -1.2239
  761MOL0     H 2734   1.382   7.526   0.616  0.7988  1.4593  0.4966
  761MOL0     H 2735   1.249   7.635   0.670  0.8200  1.8932  1.3257
  762MOL0     O 2736   5.468   9.219  10.082  0.7476  0.2496 -0.2024
  762MOL0     C 2737   5.349   9.221  10.116 -0.3162 -0.1543  0.1195
  762MOL0     O 2738   5.262   9.103  10.127 -0.1049  0.5812 -0.3485
  762MOL0     C 2739   5.329   8.988  10.112 -0.5079  0.1963 -0.7255
  762MOL0     C 2740   5.331   8.895  10.206 -0.0846  0.4922 -0.4319
  762MOL0     C 2741   5.401   8.775  10.199  0.6047  0.6628  0.4736
  762MOL0     C 2742   5.471   8.738  10.076 -0.8146 -0.2975 -0.1213
  762MOL0     O 2743   5.547   8.618  10.065 -0.3948 -1.1362  0.0652
  762MOL0     C 2744   5.625   8.587   9.943  0.0081 -0.2668  1.0436
  762MOL0     C 2745   5.522   8.545   9.821 -0.4150 -0.1421  0.1107
  762MOL0     C 2746   5.413   8.454   9.859  0.0629 -0.3789 -0.2071
  762MOL0     C 2747   5.326   8.409   9.747  0.4635 -0.0332  0.4933
  762MOL0     C 2748   5.201   8.358   9.814  0.2735  0.0323 -0.3661
  762MOL0     C 2749   5.215   8.227   9.907 -0.9154 -0.3402 -0.8030
  762MOL0     C 2750   5.226   8.119   9.814 -0.1042 -0.4747 -0.0804
  762MOL0     C 2751   5.237   7.986   9.889 -0.1391 -0.4231  0.4917
  762MOL0     N 2752   5.367   7.958   9.935  0.3385 -0.7647  1.1238
  762MOL0     C 2753   5.472   7.918   9.857 -0.6904  0.3631 -1.0223
  762MOL0     C 2754   5.561   7.859   9.940  0.3694 -0.3621  0.7165
  762MOL0     C 2755   5.697   7.811   9.901  0.7591  0.1612  0.2794
  762MOL0     C 2756   5.701   7.668   9.826  0.4146  0.1572 -0.5641
  762MOL0     C 2757   5.634   7.572   9.929  0.1989  0.6478 -0.2544
  762MOL0     C 2758   5.606   7.426   9.880  0.9378 -0.1383 -0.6092
  762MOL0     O 2759   5.497   7.435   9.782 -0.4155  0.0583 -0.2796
  762MOL0     C 2760   5.365   7.435   9.821 -0.5324  0.3163  0.7556
  762MOL0     C 2761   5.316   7.395   9.951  0.5526  0.7698  0.3391
  762MOL0     C 2762   5.180   7.389   9.974  0.1766  1.0536 -0.3576
  762MOL0     C 2763   5.088   7.411   9.873 -0.3733 -1.3347  0.3942
  762MOL0     C 2764   4.946   7.389   9.906 -0.0427 -0.1891 -0.6262
  762MOL0     O 2765   4.865   7.410   9.806  0.6702 -0.1941 -0.2416
  762MOL0     C 2766   4.728   7.443   9.837 -0.4370 -0.3369 -0.0646
  762MOL0     C 2767   4.654   7.329   9.867  0.2135  0.1056 -0.3828
  762MOL0     C 2768   4.522   7.336   9.903  0.0636  1.2451 -0.3631
  762MOL0     C 2769   4.464   7.464   9.910  0.3557  0.6036  0.2303
  762MOL0     O 2770   4.324   7.472   9.935  0.0901  0.1496  0.3981
  762MOL0     C 2771   4.231   7.537   9.842 -0.6392  0.0543 -0.9015
  762MOL0     C 2772   4.105   7.471   9.828 -0.8875  0.7508 -0.5872
  762MOL0     C 2773   4.037   7.429   9.962 -0.6138  0.7326  0.5479
  762MOL0     C 2774   4.049   7.277   9.994  0.0984  0.4984  0.7917
  762MOL0     C 2775   3.992   7.239  10.122  0.5689 -0.0755  0.0985
  762MOL0     C 2776   3.974   7.086  10.140 -0.1913  0.2891  0.6387
  762MOL0     C 2777   3.959   7.042  10.285  0.7913 -0.3606  0.2294
  762MOL0     C 2778   3.885   6.910  10.290  0.4250 -0.1361 -0.9651
  762MOL0    Cl 2779   3.716   6.928  10.275 -0.1620 -0.3623  0.0723
  762MOL0     C 2780   4.528   7.577   9.856  0.0354  0.1273 -0.1082
  762MOL0     C 2781   4.666   7.574   9.831  0.3040  0.2008  0.3581
  762MOL0     O 2782   4.910   7.381  10.027 -0.3416 -0.3322 -0.8131
  762MOL0     C 2783   5.128   7.448   9.746  0.2540 -0.0014 -0.4340
  762MOL0     C 2784   5.267   7.456   9.718  0.5964 -0.7091 -0.4393
  762MOL0     N 2785   5.501   7.884  10.060 -0.0216 -0.7505 -0.0918
  762MOL0     N 2786   5.393   7.948  10.058 -0.2729  0.1947 -1.0561
  762MOL0     C 2787   5.464   8.837   9.976 -0.3641 -0.9035 -0.3906
  762MOL0     C 2788   5.391   8.962   9.990  0.5707 -0.1849  1.0954
  762MOL0     C 2789   5.313   9.347  10.185  0.0868  0.9934  0.8954
  762MOL0     C 2790   5.363   9.473  10.134 -0.6782  0.5812  0.5585
  762MOL0     C 2791   5.323   9.593  10.198  0.4616 -0.3525 -0.0171
  762MOL0     C 2792   5.240   9.595  10.313  0.2139 -0.7272  0.1947
  762MOL0     O 2793   5.204   9.720  10.361  0.0568  0.2219  0.2831
  762MOL0     C 2794   5.080   9.737  10.434 -0.7201  0.3886  0.3900
  762MOL0     C 2795   5.072   9.888  10.438 -0.3069 -0.0236 -0.0270
  762MOL0     C 2796   5.197   9.973  10.451 -0.7924 -0.3391 -0.1251
  762MOL0     C 2797   5.195  10.125  10.488  0.0808  0.0748 -0.4459
  762MOL0     C 2798   5.100  10.208  10.410 -0.9585  0.6747 -0.0019
  762MOL0     C 2799   5.017  10.259  10.340 -1.5282 -0.7068 -0.5572
  762MOL0     C 2800   5.187   9.478  10.357 -0.2696  0.4552  0.6203
  762MOL0     C 2801   5.220   9.350  10.291  0.2702 -0.0627 -0.7443
  762MOL0     C 2802   5.142   9.230  10.353 -0.4816 -0.8646  0.0284
  762MOL0     H 2803   5.283   8.915  10.301  0.4442  1.8062 -0.4171
  762MOL0     H 2804   5.402   8.704  10.281  0.8324 -0.9435 -0.8811
  762MOL0     H 2805   5.683   8.672   9.907  3.7259 -3.2880 -0.8044
  762MOL0     H 2806   5.695   8.504   9.957  1.5298  1.1197  1.9661
  762MOL0     H 2807   5.580   8.496   9.742 -0.1197 -0.5984  0.5977
  762MOL0     H 2808   5.469   8.632   9.782 -4.3609 -2.4958 -0.3324
  762MOL0     H 2809   5.351   8.499   9.936  0.3965 -1.3730  0.6741
  762MOL0     H 2810   5.474   8.378   9.910 -0.1996 -1.5209 -1.5267
  762MOL0     H 2811   5.287   8.489   9.685 -0.7215  0.8185  2.2518
  762MOL0     H 2812   5.370   8.340   9.675  3.3179  0.8755  1.2144
  762MOL0     H 2813   5.157   8.446   9.861 -0.0332 -0.0818 -0.4333
  762MOL0     H 2814   5.114   8.343   9.749 -2.9477  0.8793  3.3228
  762MOL0     H 2815   5.305   8.230   9.968  0.7114  0.7640 -3.1069
  762MOL0     H 2816   5.128   8.230   9.973 -0.5043  3.9260 -0.1753
  762MOL0     H 2817   5.309   8.127   9.744 -0.8384 -1.7246 -1.1408
  762MOL0     H 2818   5.128   8.121   9.764 -0.3629 -2.8658  0.2325
  762MOL0     H 2819   5.166   7.976   9.972  1.0419 -3.9039  1.2510
  762MOL0     H 2820   5.207   7.900   9.827  2.9556 -2.0487  1.0727
  762MOL0     H 2821   5.492   7.921   9.750 -0.6593  1.3679 -1.0007
  762MOL0     H 2822   5.745   7.886   9.838 -1.6689  0.6316 -1.1371
  762MOL0     H 2823   5.753   7.831   9.993 -1.2523  0.2192  1.5694
  762MOL0     H 2824   5.645   7.673   9.732 -0.0820  2.0012 -0.2085
  762MOL0     H 2825   5.805   7.648   9.797  1.1539  2.6922  0.0599
  762MOL0     H 2826   5.538   7.609   9.965 -0.2499 -2.8937  2.8949
  762MOL0     H 2827   5.701   7.552  10.013 -0.0995 -1.8030 -0.5269
  762MOL0     H 2828   5.581   7.361   9.965  0.0181  0.5123 -0.3733
  762MOL0     H 2829   5.698   7.384   9.838  0.6785 -1.6112  0.2329
  762MOL0     H 2830   5.379   7.372  10.037  0.2446  0.5605  0.5118
  762MOL0     H 2831   5.159   7.357  10.076 -0.0553 -3.2310 -1.5469
  762MOL0     H 2832   4.701   7.231   9.865  0.1701  0.0615  0.3931
  762MOL0     H 2833   4.471   7.245   9.932  4.0622 -0.9584  0.4072
  762MOL0     H 2834   4.208   7.640   9.873  2.1909  0.2307  0.9863
  762MOL0     H 2835   4.274   7.551   9.742  0.9465  0.1026 -0.2505
  762MOL0     H 2836   4.044   7.541   9.771 -0.5579 -0.0862 -2.0130
  762MOL0     H 2837   4.125   7.390   9.757  0.5551  0.8842 -0.3807
  762MOL0     H 2838   4.077   7.500  10.035  0.6616  1.2577 -0.6052
  762MOL0     H 2839   3.931   7.452   9.959 -0.7043  0.3793 -2.7450
  762MOL0     H 2840   4.150   7.235   9.994  0.2093  0.7486  1.5507
  762MOL0     H 2841   4.013   7.218   9.909  3.4691 -2.3529  1.1304
  762MOL0     H 2842   3.897   7.291  10.139 -1.0532 -3.0191  0.6046
  762MOL0     H 2843   4.057   7.276  10.202 -0.2623  2.4781 -0.3039
  762MOL0     H 2844   3.886   7.049  10.086 -0.6593  1.2044  0.7507
  762MOL0     H 2845   4.055   7.032  10.089 -1.9522 -0.5973 -1.3967
  762MOL0     H 2846   3.907   7.118  10.344  3.2098  1.7058 -0.0708
  762MOL0     H 2847   4.058   7.036  10.331  0.2482 -2.3701  1.2327
  762MOL0     H 2848   3.921   6.833  10.221 -1.0967 -1.2232 -0.5954
  762MOL0     H 2849   3.894   6.871  10.391  1.2560 -0.3167 -1.1011
  762MOL0     H 2850   4.478   7.669   9.828 -0.1070 -0.4048 -1.7224
  762MOL0     H 2851   4.720   7.665   9.808  2.8110 -1.0852  0.7735
  762MOL0     H 2852   5.056   7.484   9.673 -2.2411  2.0637  2.8065
  762MOL0     H 2853   5.306   7.473   9.619  1.0121 -0.1419 -0.1801
  762MOL0     H 2854   5.536   8.834   9.894  0.9957  1.6754  0.5830
  762MOL0     H 2855   5.391   9.029   9.905 -4.6952 -2.4096 -1.0979
  762MOL0     H 2856   5.429   9.477  10.048 -1.4935  0.6577 -0.0808
  762MOL0     H 2857   5.367   9.687  10.165 -1.3710 -0.0737 -1.9222
  762MOL0     H 2858   5.097   9.691  10.531  0.3281 -0.9439 -0.3988
  762MOL0     H 2859   4.990   9.691  10.392  0.2543 -0.5587 -0.7266
  762MOL0     H 2860   5.018   9.936  10.521 -1.0630  2.0203 -1.6241
  762MOL0     H 2861   5.018   9.928  10.352 -1.0378 -0.2408  0.3145
  762MOL0     H 2862   5.249   9.986  10.356 -1.8009  1.1606 -0.5096
  762MOL0     H 2863   5.271   9.932  10.520 -0.2258  3.3025  1.7149
  762MOL0     H 2864   5.167  10.131  10.594  1.9154 -3.3733  0.3820
  762MOL0     H 2865   5.298  10.160  10.481 -0.2398  1.4717  1.1198
  762MOL0     H 2866   4.939  10.304  10.282 -1.2343 -0.6822 -0.9383
  762MOL0     H 2867   5.104   9.484  10.427 -0.7585 -1.4476  0.2698
  762MOL0     H 2868   5.061   9.188  10.294  1.0739 -1.3854 -1.8359
  762MOL0     H 2869   5.212   9.152  10.386 -0.1951 -0.8802 -0.5899
  762MOL0     H 2870   5.084   9.269  10.437  0.1411 -0.0796  0.1097
  763MOL0     O 2871  10.058   5.686   7.416 -0.4873  0.0040  0.2239
  763MOL0     C 2872  10.097   5.801   7.390  0.0904  0.7172  0.2661
  763MOL0     O 2873  10.224   5.846   7.416 -0.2094  0.0164 -0.1064
  763MOL0     C 2874  10.313   5.753   7.456  0.5735  0.7516  0.5087
  763MOL0     C 2875  10.353   5.649   7.375 -0.3741  1.2396  0.6486
  763MOL0     C 2876  10.463   5.564   7.400 -0.0814  0.4993 -0.5882
  763MOL0     C 2877  10.529   5.576   7.518 -1.0962 -0.6400 -0.2742
  763MOL0     O 2878  10.627   5.490   7.548 -0.1432 -0.0986  0.9693
  763MOL0     C 2879  10.569   5.376   7.621 -0.1063  0.3500 -0.4994
  763MOL0     C 2880  10.684   5.273   7.658  0.1279  0.6172 -0.6209
  763MOL0     C 2881  10.784   5.329   7.764  0.0091 -1.1586  0.7492
  763MOL0     C 2882  10.869   5.228   7.838 -0.1440  1.3994 -1.0196
  763MOL0     C 2883  10.960   5.153   7.747  0.2693  0.0263 -0.1814
  763MOL0     C 2884  11.057   5.071   7.824  0.7881 -0.3127  0.3295
  763MOL0     C 2885  11.136   4.992   7.722 -0.1795 -0.4101  0.1863
  763MOL0     C 2886  11.225   4.884   7.795 -0.6314 -0.0076 -0.3334
  763MOL0     N 2887  11.351   4.942   7.859  0.0547  0.3853 -0.2024
  763MOL0     C 2888  11.468   4.982   7.795  1.4528 -0.2111 -0.0837
  763MOL0     C 2889  11.565   5.001   7.892 -0.3054  0.5021  0.0918
  763MOL0     C 2890  11.708   5.035   7.871  0.6632  0.2763 -0.7519
  763MOL0     C 2891  11.808   4.963   7.967 -0.5116 -0.4327  0.7772
  763MOL0     C 2892  11.835   5.047   8.101  0.2382  1.3775  1.1287
  763MOL0     C 2893  11.739   5.025   8.207  1.2455  0.4104 -0.6584
  763MOL0     O 2894  11.818   5.038   8.329  0.3592  0.9725 -0.0204
  763MOL0     C 2895  11.891   4.931   8.385 -0.3364 -0.0477 -0.8666
  763MOL0     C 2896  11.908   4.801   8.328  0.3258 -0.3926 -0.3228
  763MOL0     C 2897  11.988   4.705   8.391 -0.3463 -0.5109  1.0312
  763MOL0     C 2898  12.050   4.730   8.519 -1.0315  0.1128  0.5649
  763MOL0     C 2899  12.144   4.626   8.591 -0.0848 -0.4543 -0.2625
  763MOL0     O 2900  12.225   4.669   8.685 -0.7835 -0.6918  0.5985
  763MOL0     C 2901  12.262   4.583   8.788 -0.5785  0.3792 -0.1602
  763MOL0     C 2902  12.283   4.656   8.910  0.9076 -0.2588  0.0302
  763MOL0     C 2903  12.314   4.580   9.025 -0.4845  0.3273  0.1141
  763MOL0     C 2904  12.351   4.443   9.022  0.3537 -0.9742  1.1154
  763MOL0     O 2905  12.394   4.397   9.138 -0.7497  0.3692 -0.4743
  763MOL0     C 2906  12.424   4.253   9.148 -0.2764  0.5623  0.0915
  763MOL0     C 2907  12.292   4.172   9.128  0.3674  0.3165 -0.1804
  763MOL0     C 2908  12.312   4.024   9.164  0.0214  0.2786 -0.0136
  763MOL0     C 2909  12.173   3.959   9.161  0.3501 -0.2205  0.2861
  763MOL0     C 2910  12.176   3.809   9.189  0.6781 -0.2019  0.6237
  763MOL0     C 2911  12.046   3.741   9.151 -1.1873  1.4133 -0.1121
  763MOL0     C 2912  12.057   3.583   9.163  0.1867 -0.1355  0.6774
  763MOL0     C 2913  12.166   3.531   9.074  0.2176  0.7464 -0.4628
  763MOL0    Cl 2914  12.161   3.351   9.056 -0.2165 -0.6607  0.0209
  763MOL0     C 2915  12.365   4.387   8.895 -0.4682 -0.8565  0.5804
  763MOL0     C 2916  12.315   4.451   8.781 -0.5438  0.8424  0.0477
  763MOL0     O 2917  12.148   4.517   8.545  0.3425  0.7210  0.6663
  763MOL0     C 2918  12.033   4.859   8.576 -1.0086  0.0575  0.0567
  763MOL0     C 2919  11.957   4.957   8.505  0.0252 -0.7468  0.6234
  763MOL0     N 2920  11.506   4.989   8.017 -0.2102  0.4063  0.4362
  763MOL0     N 2921  11.378   4.948   7.990  0.2911 -0.3530 -0.3327
  763MOL0     C 2922  10.493   5.674   7.615 -0.9401 -0.8588 -0.2100
  763MOL0     C 2923  10.393   5.775   7.569 -0.5002 -0.3360 -0.2674
  763MOL0     C 2924  10.008   5.896   7.320 -0.3788  0.6781 -0.0311
  763MOL0     C 2925   9.876   5.853   7.287  0.3165 -0.1247 -0.5016
  763MOL0     C 2926   9.784   5.936   7.224 -0.5487  0.2308  0.0042
  763MOL0     C 2927   9.823   6.065   7.191  0.4843 -0.1005  0.0102
  763MOL0     O 2928   9.736   6.168   7.152  0.1822 -0.1191  0.0842
  763MOL0     C 2929   9.604   6.127   7.103  0.1769  0.3174 -0.6611
  763MOL0     C 2930   9.519   6.247   7.060  1.2125  0.2839 -0.5133
  763MOL0     C 2931   9.502   6.339   7.188  0.4778 -0.2254 -0.1708
  763MOL0     C 2932   9.420   6.455   7.137  1.0876 -0.6170  0.6608
  763MOL0     C 2933   9.394   6.544   7.253  0.3390  1.1094 -0.5017
  763MOL0     C 2934   9.389   6.611   7.354  0.6819  0.0749  0.6204
  763MOL0     C 2935   9.948   6.114   7.226 -0.1027  0.2670 -0.5928
  763MOL0     C 2936  10.042   6.033   7.301  0.3066 -0.4182  0.6168
  763MOL0     C 2937  10.165   6.102   7.353  0.2600 -0.3555  0.1565
  763MOL0     H 2938  10.293   5.646   7.284  2.4796  2.4510 -1.4138
  763MOL0     H 2939  10.497   5.491   7.327  1.4668 -0.0353  0.6215
  763MOL0     H 2940  10.515   5.412   7.709  2.1125  2.4397  0.1301
  763MOL0     H 2941  10.496   5.328   7.556  2.6096 -3.6160 -0.9874
  763MOL0     H 2942  10.739   5.254   7.565 -0.3890  2.9812 -1.4705
  763MOL0     H 2943  10.628   5.182   7.685 -0.0035  1.0781  0.7054
  763MOL0     H 2944  10.734   5.393   7.837 -0.7734 -1.0606  0.1378
  763MOL0     H 2945  10.857   5.386   7.705 -1.2665  0.9392  1.1043
  763MOL0     H 2946  10.927   5.281   7.915 -0.0490  1.9886 -1.4953
  763MOL0     H 2947  10.805   5.149   7.880  1.9216 -1.7073 -3.2510
  763MOL0     H 2948  10.898   5.090   7.683 -1.9093 -0.4901  2.2568
  763MOL0     H 2949  11.028   5.217   7.691  0.8677 -0.9321 -0.5746
  763MOL0     H 2950  11.129   5.132   7.880  1.0484 -0.7367  0.4599
  763MOL0     H 2951  11.005   5.010   7.897 -3.2245  3.7022  1.2525
  763MOL0     H 2952  11.204   5.058   7.669 -0.2077  1.7411  2.6269
  763MOL0     H 2953  11.074   4.933   7.654 -1.7742  1.3689  0.0202
  763MOL0     H 2954  11.179   4.825   7.874 -0.2950  2.4230  1.8268
  763MOL0     H 2955  11.243   4.811   7.715  0.5892 -0.1020  0.0064
  763MOL0     H 2956  11.477   4.987   7.687  0.5657 -0.9017 -0.2047
  763MOL0     H 2957  11.723   4.987   7.774  0.0954 -0.3778 -0.5308
  763MOL0     H 2958  11.714   5.144   7.871  1.0409  0.3029  1.1344
  763MOL0     H 2959  11.765   4.865   7.988 -2.5458  0.4520  0.9560
  763MOL0     H 2960  11.904   4.952   7.916 -0.6005 -1.3577  0.7903
  763MOL0     H 2961  11.843   5.152   8.071 -2.3437  1.5638  0.9011
  763MOL0     H 2962  11.933   5.012   8.135 -0.0525 -3.5408 -2.0922
  763MOL0     H 2963  11.695   4.925   8.205 -0.7367  1.1222  1.6830
  763MOL0     H 2964  11.655   5.096   8.210 -0.2816 -1.3425  0.4276
  763MOL0     H 2965  11.867   4.781   8.230  0.1007  1.6810 -0.7003
  763MOL0     H 2966  11.987   4.608   8.342 -2.9831 -1.6511  3.0963
  763MOL0     H 2967  12.252   4.759   8.923  0.5272 -0.4788  0.9644
  763MOL0     H 2968  12.300   4.632   9.118  0.8108 -0.1560  0.6025
  763MOL0     H 2969  12.494   4.212   9.074 -1.1761  1.4517 -1.2962
  763MOL0     H 2970  12.451   4.224   9.250 -0.6937  2.6665  0.8605
  763MOL0     H 2971  12.218   4.225   9.188 -1.0517  0.1822 -1.7504
  763MOL0     H 2972  12.257   4.187   9.025  3.4415  1.5808 -1.1757
  763MOL0     H 2973  12.370   3.988   9.078  1.9474  0.5702  1.1095
  763MOL0     H 2974  12.366   4.008   9.258 -0.6429 -2.0091  0.0410
  763MOL0     H 2975  12.147   3.960   9.055  4.3901  0.4140 -0.8494
  763MOL0     H 2976  12.096   4.009   9.220  1.3458 -0.1839  1.5955
  763MOL0     H 2977  12.220   3.779   9.285  2.3463  1.6241  0.4904
  763MOL0     H 2978  12.247   3.785   9.110 -1.2142 -0.4108 -1.0838
  763MOL0     H 2979  11.967   3.786   9.212 -2.0844  0.3726 -0.4591
  763MOL0     H 2980  12.024   3.765   9.046  1.0941  1.2903 -0.6589
  763MOL0     H 2981  11.968   3.539   9.117  0.9387 -1.5176  0.4824
  763MOL0     H 2982  12.061   3.546   9.266 -3.8730 -0.9086  0.7199
  763MOL0     H 2983  12.159   3.578   8.975 -1.8389  2.3710  0.3792
  763MOL0     H 2984  12.259   3.558   9.124 -0.0058 -2.8227  2.2471
  763MOL0     H 2985  12.411   4.289   8.890 -0.9119 -1.0157 -0.5285
  763MOL0     H 2986  12.324   4.415   8.680 -0.3504  0.5592  0.1647
  763MOL0     H 2987  12.070   4.879   8.676 -1.3921 -1.3533  0.5074
  763MOL0     H 2988  11.961   5.056   8.549  1.5697 -0.7415  0.5232
  763MOL0     H 2989  10.539   5.682   7.713  3.8416 -0.2211 -2.2371
  763MOL0     H 2990  10.386   5.861   7.634  0.7953 -0.7045  0.4038
  763MOL0     H 2991   9.838   5.753   7.307  0.3464 -0.1520 -0.5823
  763MOL0     H 2992   9.683   5.899   7.211 -0.5097 -0.6921  1.9661
  763MOL0     H 2993   9.547   6.074   7.179 -1.5666 -1.5320 -3.0868
  763MOL0     H 2994   9.607   6.060   7.016  3.0041  0.2791 -0.6389
  763MOL0     H 2995   9.420   6.209   7.032  2.3085 -5.2525  1.6907
  763MOL0     H 2996   9.572   6.291   6.976  0.9902 -0.5037 -1.0755
  763MOL0     H 2997   9.603   6.375   7.210  0.5607 -2.1189  3.2159
  763MOL0     H 2998   9.464   6.288   7.277 -0.3086  0.1932 -0.2571
  763MOL0     H 2999   9.478   6.509   7.061 -2.3164 -2.3042 -3.5896
  763MOL0     H 3000   9.328   6.432   7.082  1.2233  2.3379 -1.0129
  763MOL0     H 3001   9.385   6.677   7.439 -1.6074 -0.5347  1.0448
  763MOL0     H 3002   9.969   6.220   7.220 -1.0131  0.6158  1.4143
  763MOL0     H 3003  10.170   6.210   7.339  0.5141 -0.1371  1.7562
  763MOL0     H 3004  10.193   6.073   7.455 -2.7194 -1.4712  0.7631
  763MOL0     H 3005  10.245   6.059   7.293  2.6449 -0.8927  3.4604
  764MOL0     O 3006   8.654   5.683   8.973 -0.4423 -0.5448  0.4068
  764MOL0     C 3007   8.551   5.742   8.957 -0.1112 -0.1503  0.5684
  764MOL0     O 3008   8.517   5.861   9.018  0.2775 -0.0566  1.0312
  764MOL0     C 3009   8.629   5.936   9.050 -0.5045  0.1443 -0.2456
  764MOL0     C 3010   8.688   6.021   8.961 -1.0173 -1.3845  0.0980
  764MOL0     C 3011   8.806   6.087   8.985 -0.3674  0.0796  0.4319
  764MOL0     C 3012   8.876   6.082   9.107 -0.3485  0.9569 -0.2256
  764MOL0     O 3013   8.988   6.157   9.128  0.4625  0.7977 -0.0775
  764MOL0     C 3014   8.989   6.244   9.242 -0.7224 -0.7383 -0.2016
  764MOL0     C 3015   9.117   6.328   9.219  0.7818  0.1068  0.0831
  764MOL0     C 3016   9.147   6.419   9.338 -0.0039  0.0735 -0.0856
  764MOL0     C 3017   9.198   6.337   9.469 -0.1596 -0.4084 -0.8512
  764MOL0     C 3018   9.342   6.307   9.446 -0.5044 -0.7409 -0.1334
  764MOL0     C 3019   9.404   6.229   9.565 -0.4032 -0.2275  0.4394
  764MOL0     C 3020   9.537   6.166   9.513 -0.2470  1.2589  0.3126
  764MOL0     C 3021   9.586   6.051   9.594  0.0675  0.4051 -0.1051
  764MOL0     N 3022   9.695   5.970   9.522  0.5725  0.7995 -0.3356
  764MOL0     C 3023   9.667   5.868   9.435  0.1469  1.0777 -0.1108
  764MOL0     C 3024   9.787   5.832   9.386  0.4567  0.9638 -0.3308
  764MOL0     C 3025   9.820   5.714   9.304 -0.2899  0.2871  0.1681
  764MOL0     C 3026   9.836   5.583   9.380 -0.3956 -0.8382 -1.0784
  764MOL0     C 3027   9.709   5.542   9.454 -0.5665  0.8883  0.1748
  764MOL0     C 3028   9.735   5.399   9.519 -0.2757  0.2638 -0.0990
  764MOL0     O 3029   9.597   5.352   9.553 -0.1450 -0.8514 -0.0886
  764MOL0     C 3030   9.541   5.247   9.485  0.9292  0.5456 -0.8381
  764MOL0     C 3031   9.565   5.118   9.530 -0.4737  0.4067 -0.3308
  764MOL0     C 3032   9.510   5.008   9.457  0.4027  0.0147  0.0440
  764MOL0     C 3033   9.444   5.033   9.334  0.2666  0.5143 -0.1550
  764MOL0     C 3034   9.371   4.918   9.267 -0.0658 -0.7213 -0.9788
  764MOL0     O 3035   9.395   4.798   9.309 -0.6063 -0.1735  0.1561
  764MOL0     C 3036   9.305   4.696   9.285  0.1287 -0.4832 -0.2276
  764MOL0     C 3037   9.349   4.570   9.230 -0.8586  0.2179 -0.5211
  764MOL0     C 3038   9.269   4.460   9.225  0.1338 -0.0285  0.8893
  764MOL0     C 3039   9.128   4.479   9.254 -1.4586  0.3450  0.4827
  764MOL0     O 3040   9.031   4.384   9.231  0.1993  0.0142 -0.3587
  764MOL0     C 3041   9.080   4.271   9.148  0.9477 -0.0877 -0.4215
  764MOL0     C 3042   9.154   4.161   9.225  0.7132  0.2401 -0.2518
  764MOL0     C 3043   9.205   4.039   9.126 -0.6095 -0.7386  0.2122
  764MOL0     C 3044   9.206   3.901   9.194  0.6856  0.2729 -0.3202
  764MOL0     C 3045   9.284   3.799   9.112 -0.0244  0.1086 -0.8945
  764MOL0     C 3046   9.341   3.689   9.211  0.6822 -0.6485 -0.8178
  764MOL0     C 3047   9.235   3.608   9.300 -0.8721  0.3805  0.2790
  764MOL0     C 3048   9.148   3.492   9.236  0.2718 -0.0933 -0.3581
  764MOL0    Cl 3049   9.045   3.414   9.374 -0.7325  0.2293 -0.5222
  764MOL0     C 3050   9.085   4.609   9.301  0.5999  0.5439  0.4837
  764MOL0     C 3051   9.174   4.706   9.325 -0.0968 -0.0761 -0.4511
  764MOL0     O 3052   9.286   4.952   9.183  1.2788  0.3547  0.0278
  764MOL0     C 3053   9.442   5.161   9.282  0.9582 -0.0303  0.0682
  764MOL0     C 3054   9.484   5.269   9.360 -0.4419 -0.4936  0.0271
  764MOL0     N 3055   9.886   5.914   9.437  0.7776  0.3268 -0.5028
  764MOL0     N 3056   9.830   5.995   9.523 -0.2774  0.6903  0.1218
  764MOL0     C 3057   8.818   5.996   9.202 -1.0816 -0.2174  0.0271
  764MOL0     C 3058   8.704   5.920   9.166 -1.0296  0.4306 -0.2286
  764MOL0     C 3059   8.445   5.691   8.864 -0.3611  0.2168  0.5685
  764MOL0     C 3060   8.465   5.576   8.781 -0.0716 -0.4822 -0.1620
  764MOL0     C 3061   8.383   5.524   8.686 -0.5673 -0.7435  0.0106
  764MOL0     C 3062   8.261   5.578   8.671 -0.2288  0.2180 -0.9805
  764MOL0     O 3063   8.171   5.498   8.603  0.1825  0.2726  0.3746
  764MOL0     C 3064   8.032   5.498   8.637 -0.0550  0.0417 -0.0521
  764MOL0     C 3065   8.005   5.364   8.720 -0.1028 -1.0841  1.2634
  764MOL0     C 3066   8.012   5.397   8.869 -0.3860 -0.8837 -0.0632
  764MOL0     C 3067   7.925   5.301   8.955  0.0484 -0.5114 -0.3009
  764MOL0     C 3068   7.790   5.349   8.954  0.7593  0.3965 -0.3134
  764MOL0     C 3069   7.680   5.407   8.943 -0.5517 -0.6500  1.6217
  764MOL0     C 3070   8.227   5.698   8.740  0.4204 -0.3627 -0.8628
  764MOL0     C 3071   8.316   5.756   8.829 -0.8250 -0.4137  1.1364
  764MOL0     C 3072   8.264   5.883   8.876 -0.6254  0.6321  0.8531
  764MOL0     H 3073   8.649   6.023   8.860  3.1650  1.0477 -1.7533
  764MOL0     H 3074   8.843   6.147   8.903  1.3627  1.7694  2.3316
  764MOL0     H 3075   8.897   6.303   9.243 -0.1763  0.1807 -1.5706
  764MOL0     H 3076   9.000   6.202   9.343  2.7109  0.8136  0.2082
  764MOL0     H 3077   9.115   6.388   9.127 -0.3040  0.0555  0.0648
  764MOL0     H 3078   9.206   6.265   9.208  2.9343  2.9430  0.0024
  764MOL0     H 3079   9.057   6.477   9.361  1.3724  1.9253  0.9297
  764MOL0     H 3080   9.225   6.486   9.300 -0.8774  2.0674  1.4845
  764MOL0     H 3081   9.194   6.397   9.561  0.4422 -1.0966 -0.3617
  764MOL0     H 3082   9.134   6.250   9.482 -0.9644  0.3430  0.4297
  764MOL0     H 3083   9.359   6.262   9.348 -2.8869 -0.7192 -0.6239
  764MOL0     H 3084   9.398   6.400   9.440  1.5381 -1.7176  1.9606
  764MOL0     H 3085   9.411   6.289   9.656 -0.8645 -2.0488  1.7185
  764MOL0     H 3086   9.325   6.154   9.576 -0.4415 -0.5794 -1.7881
  764MOL0     H 3087   9.620   6.236   9.501  1.0418 -0.0534  1.2630
  764MOL0     H 3088   9.510   6.118   9.419  1.7292 -0.3617  0.5217
  764MOL0     H 3089   9.627   6.092   9.687 -1.1984  2.3493 -0.3525
  764MOL0     H 3090   9.495   5.996   9.619 -0.3606  1.1326 -0.0137
  764MOL0     H 3091   9.574   5.815   9.414  1.0795 -0.6127 -0.1485
  764MOL0     H 3092   9.749   5.699   9.222  1.2708  3.0211 -1.8199
  764MOL0     H 3093   9.913   5.751   9.260  0.5603  0.2752  1.8641
  764MOL0     H 3094   9.857   5.502   9.310  0.6203 -1.0902 -0.4971
  764MOL0     H 3095   9.909   5.587   9.461 -2.2150 -2.3475  0.7550
  764MOL0     H 3096   9.614   5.543   9.399 -1.1956  2.5460  1.2381
  764MOL0     H 3097   9.692   5.615   9.534 -3.8480  1.7388 -1.1101
  764MOL0     H 3098   9.802   5.397   9.606 -2.8509 -1.0675  2.0203
  764MOL0     H 3099   9.782   5.340   9.439 -1.2123  0.2444 -0.6452
  764MOL0     H 3100   9.638   5.107   9.609  0.1374 -0.2065 -0.9725
  764MOL0     H 3101   9.532   4.906   9.486  0.2280 -0.1856 -0.5151
  764MOL0     H 3102   9.451   4.590   9.199 -1.1264  4.3581  0.5829
  764MOL0     H 3103   9.305   4.368   9.181 -6.2652 -3.1023  1.0166
  764MOL0     H 3104   8.994   4.223   9.101 -0.3369  1.2072  0.5388
  764MOL0     H 3105   9.146   4.301   9.065  0.6389  0.6580 -0.4036
  764MOL0     H 3106   9.244   4.188   9.281  0.3005 -1.2850  1.2425
  764MOL0     H 3107   9.081   4.128   9.300 -0.0314 -0.9852 -1.4613
  764MOL0     H 3108   9.134   4.044   9.043  0.4421 -1.3128 -0.7435
  764MOL0     H 3109   9.309   4.070   9.110 -0.8658  0.7767  1.2003
  764MOL0     H 3110   9.106   3.860   9.210  0.0518  1.7600 -0.3389
  764MOL0     H 3111   9.247   3.921   9.294  0.8584  0.6866 -0.4737
  764MOL0     H 3112   9.369   3.830   9.051 -1.6037  0.5393 -2.9996
  764MOL0     H 3113   9.216   3.748   9.043  0.9820 -1.6033 -0.6709
  764MOL0     H 3114   9.411   3.623   9.159  1.3644  1.2976 -2.5122
  764MOL0     H 3115   9.398   3.748   9.283 -0.5489  0.4139 -0.6804
  764MOL0     H 3116   9.173   3.686   9.346 -0.5737 -0.0762  1.5009
  764MOL0     H 3117   9.295   3.556   9.375 -0.3002 -0.9888 -1.0760
  764MOL0     H 3118   9.091   3.526   9.149  0.2719  0.1960 -0.2478
  764MOL0     H 3119   9.215   3.411   9.207  2.6281  1.8199 -0.6111
  764MOL0     H 3120   8.986   4.628   9.340 -0.0235 -1.8516  0.2136
  764MOL0     H 3121   9.139   4.794   9.379 -0.7921 -1.0822  0.8032
  764MOL0     H 3122   9.395   5.176   9.186  0.4118  1.1437  0.4973
  764MOL0     H 3123   9.473   5.368   9.316  0.6533 -0.8749 -1.1728
  764MOL0     H 3124   8.870   5.986   9.296 -0.7726 -1.1762 -0.2396
  764MOL0     H 3125   8.657   5.853   9.238 -2.4608  1.0748 -0.5139
  764MOL0     H 3126   8.561   5.525   8.784  0.6989  0.4089 -3.8928
  764MOL0     H 3127   8.404   5.436   8.626 -0.0126 -1.5994  1.4253
  764MOL0     H 3128   7.968   5.484   8.550  0.2260 -2.0903  0.0477
  764MOL0     H 3129   7.994   5.590   8.684  0.0969  0.7242 -1.2263
  764MOL0     H 3130   8.080   5.289   8.695  2.4463  1.7630 -0.2325
  764MOL0     H 3131   7.901   5.353   8.688  0.1416  3.2330 -1.7973
  764MOL0     H 3132   7.971   5.495   8.895 -0.0588 -0.9591  0.7718
  764MOL0     H 3133   8.118   5.388   8.895  0.4396  1.1639 -2.2352
  764MOL0     H 3134   7.914   5.198   8.920 -2.6125 -0.7607  1.0078
  764MOL0     H 3135   7.965   5.297   9.057 -1.0062 -1.2404  0.1030
  764MOL0     H 3136   7.584   5.454   8.935 -0.6049 -0.9961 -0.2859
  764MOL0     H 3137   8.133   5.743   8.709  0.8599  0.8504 -0.4798
  764MOL0     H 3138   8.195   5.857   8.957 -0.1038 -1.0633  0.8114
  764MOL0     H 3139   8.340   5.959   8.895 -0.9748  2.1847 -3.0760
  764MOL0     H 3140   8.208   5.938   8.800  0.6872  2.2602  1.0107
  765MOL0     O 3141  10.880   5.858   6.046 -0.5481 -0.7614 -0.6663
  765MOL0     C 3142  10.894   5.759   6.120 -0.5352 -0.3561  1.1528
  765MOL0     O 3143  10.947   5.639   6.076 -0.5581  0.2472 -0.1807
  765MOL0     C 3144  11.015   5.640   5.961 -0.1817 -0.5327  0.5059
  765MOL0     C 3145  10.955   5.585   5.844  0.3202 -0.0827 -0.6858
  765MOL0     C 3146  11.012   5.571   5.721  0.1128 -0.5339 -0.6574
  765MOL0     C 3147  11.126   5.635   5.693  0.2508 -0.0903  0.2851
  765MOL0     O 3148  11.183   5.621   5.580 -0.8458 -0.2253  0.3778
  765MOL0     C 3149  11.173   5.495   5.505  0.0741 -0.5460 -0.4477
  765MOL0     C 3150  11.248   5.510   5.371  0.6764 -0.3337  0.1264
  765MOL0     C 3151  11.146   5.569   5.280  0.6616  0.5104  0.8205
  765MOL0     C 3152  11.207   5.597   5.141  0.4946  0.3097 -0.1317
  765MOL0     C 3153  11.096   5.646   5.042 -1.0452 -0.1587 -0.6910
  765MOL0     C 3154  11.156   5.653   4.894 -0.5893  0.0654 -1.3111
  765MOL0     C 3155  11.058   5.657   4.785 -0.1318 -0.1953 -0.1161
  765MOL0     C 3156  10.954   5.543   4.773 -0.0969  0.2500 -0.4056
  765MOL0     N 3157  11.038   5.423   4.726 -0.2148 -0.3003  0.0483
  765MOL0     C 3158  11.053   5.382   4.593 -0.2947  0.3562 -0.3867
  765MOL0     C 3159  11.094   5.252   4.597  0.8467 -0.3827  0.3829
  765MOL0     C 3160  11.095   5.156   4.488 -0.4972 -0.0448 -0.3005
  765MOL0     C 3161  10.962   5.084   4.472  0.1194 -0.3905 -0.0522
  765MOL0     C 3162  10.932   5.022   4.338 -0.3557 -0.3029 -0.2382
  765MOL0     C 3163  10.861   4.879   4.333  0.0903  0.3541 -0.1186
  765MOL0     O 3164  10.796   4.867   4.208  0.3692  0.3071 -0.0410
  765MOL0     C 3165  10.846   4.780   4.108  0.0142  0.1127  0.6303
  765MOL0     C 3166  10.761   4.773   3.996  0.2838  0.8548  0.0441
  765MOL0     C 3167  10.802   4.698   3.878  0.1958  0.9028 -0.5358
  765MOL0     C 3168  10.918   4.626   3.884 -0.1919 -0.3454 -0.6357
  765MOL0     C 3169  10.942   4.540   3.764  0.4119 -0.8053 -0.1251
  765MOL0     O 3170  11.071   4.485   3.754  0.3466 -0.6808  0.1454
  765MOL0     C 3171  11.089   4.395   3.656 -0.1486  0.6584 -0.3939
  765MOL0     C 3172  11.020   4.272   3.663  0.3788 -0.1923 -0.4461
  765MOL0     C 3173  11.029   4.176   3.569  0.1867 -0.4191  0.7810
  765MOL0     C 3174  11.115   4.203   3.452  0.4633 -0.7154 -0.5347
  765MOL0     O 3175  11.125   4.114   3.356 -0.4983  0.0130  0.0160
  765MOL0     C 3176  11.145   4.159   3.218 -0.9061  0.6291 -0.0504
  765MOL0     C 3177  11.028   4.244   3.177 -0.3489 -0.1914 -0.4753
  765MOL0     C 3178  11.049   4.320   3.048  0.1538 -0.5904 -1.0946
  765MOL0     C 3179  11.071   4.229   2.929  0.0909 -0.2091  0.1271
  765MOL0     C 3180  11.003   4.290   2.802 -0.0724 -0.4192 -0.3250
  765MOL0     C 3181  11.065   4.215   2.682 -0.3004 -0.1895 -0.0140
  765MOL0     C 3182  11.030   4.076   2.652  1.0832 -0.2259 -0.2425
  765MOL0     C 3183  10.969   4.067   2.513 -0.1981 -0.3742  0.3301
  765MOL0    Cl 3184  10.910   3.911   2.472  0.2213  0.0811  0.3627
  765MOL0     C 3185  11.188   4.317   3.450  0.2140  0.0708  1.2587
  765MOL0     C 3186  11.179   4.417   3.548 -0.5490 -0.7094 -0.5805
  765MOL0     O 3187  10.844   4.514   3.689  0.0018 -0.1991  0.8852
  765MOL0     C 3188  11.010   4.644   3.990 -0.9477  0.0890  0.6707
  765MOL0     C 3189  10.960   4.707   4.107 -0.5189 -0.1124  0.7602
  765MOL0     N 3190  11.088   5.215   4.733  0.9566  0.4830  0.7361
  765MOL0     N 3191  11.043   5.313   4.804 -0.7699 -0.5336 -0.2355
  765MOL0     C 3192  11.188   5.710   5.795  0.6905  0.7220 -1.1617
  765MOL0     C 3193  11.137   5.705   5.934  0.1779 -0.4674 -0.0496
  765MOL0     C 3194  10.843   5.763   6.265  0.0678 -0.0262 -0.4282
  765MOL0     C 3195  10.703   5.776   6.283 -0.1052 -0.2346  0.2936
  765MOL0     C 3196  10.639   5.766   6.408 -0.2047  0.2170 -0.7222
  765MOL0     C 3197  10.715   5.727   6.522 -0.3773 -1.1254  0.9228
  765MOL0     O 3198  10.665   5.703   6.650  0.0207 -0.2762  0.6221
  765MOL0     C 3199  10.531   5.749   6.665 -0.7078  0.8108  0.5138
  765MOL0     C 3200  10.524   5.769   6.822 -0.6378  0.6767  0.2068
  765MOL0     C 3201  10.395   5.827   6.865  0.2720 -0.1668 -0.2468
  765MOL0     C 3202  10.282   5.737   6.898 -0.0028 -0.3043 -0.3203
  765MOL0     C 3203  10.148   5.794   6.924 -0.2453  0.8866 -0.6784
  765MOL0     C 3204  10.052   5.857   6.961  0.7378  0.4038 -0.3029
  765MOL0     C 3205  10.854   5.705   6.497 -0.7407 -0.3995 -0.2579
  765MOL0     C 3206  10.923   5.727   6.375  0.2624  0.1830 -0.5166
  765MOL0     C 3207  11.079   5.718   6.358  0.2429  0.1316  0.0794
  765MOL0     H 3208  10.855   5.548   5.867  1.1725  0.3547  5.2943
  765MOL0     H 3209  10.957   5.522   5.641 -1.7262  0.4575 -0.0554
  765MOL0     H 3210  11.222   5.426   5.574  0.0636  0.3946  0.5240
  765MOL0     H 3211  11.072   5.458   5.486 -1.1749  2.4716 -0.3532
  765MOL0     H 3212  11.284   5.413   5.335  1.0584 -0.8681  1.8171
  765MOL0     H 3213  11.333   5.579   5.380  1.3233 -0.6499 -2.7791
  765MOL0     H 3214  11.117   5.661   5.330 -0.0154  0.4854  0.4829
  765MOL0     H 3215  11.048   5.524   5.260 -0.0486  3.3843 -3.5887
  765MOL0     H 3216  11.286   5.670   5.160 -0.6496  1.0870  2.0698
  765MOL0     H 3217  11.253   5.508   5.097 -1.6908 -0.0078 -1.9478
  765MOL0     H 3218  11.001   5.594   5.057 -3.6747  4.0883 -1.0443
  765MOL0     H 3219  11.077   5.748   5.076  0.4976 -0.4109  1.0451
  765MOL0     H 3220  11.215   5.745   4.890  1.2499 -0.9379  0.5623
  765MOL0     H 3221  11.227   5.571   4.884  1.2146  1.2148  0.9809
  765MOL0     H 3222  11.121   5.660   4.696 -0.8423 -1.8003 -0.7133
  765MOL0     H 3223  11.003   5.751   4.802  3.2606  1.5996  2.0585
  765MOL0     H 3224  10.904   5.521   4.868  2.5901  0.0239  1.0503
  765MOL0     H 3225  10.879   5.576   4.700 -0.8114  1.0632  0.6628
  765MOL0     H 3226  11.047   5.443   4.503 -1.2164  2.1730  0.8283
  765MOL0     H 3227  11.123   5.206   4.395  0.0142 -0.5315 -0.4184
  765MOL0     H 3228  11.179   5.086   4.503  1.4383  2.0972 -0.5871
  765MOL0     H 3229  10.941   5.006   4.545  0.1170 -0.2169  0.1339
  765MOL0     H 3230  10.882   5.157   4.488  1.3086  0.7909  0.7145
  765MOL0     H 3231  11.025   5.012   4.282 -0.2861 -0.1879 -0.1417
  765MOL0     H 3232  10.862   5.082   4.279 -0.5871 -2.5636 -2.4174
  765MOL0     H 3233  10.789   4.881   4.416  0.8302  0.9075  0.5324
  765MOL0     H 3234  10.921   4.790   4.357 -1.4039 -0.6492  0.0612
  765MOL0     H 3235  10.666   4.826   3.995 -0.4273 -0.3619  0.4385
  765MOL0     H 3236  10.737   4.686   3.792  3.4531 -3.1725 -2.7866
  765MOL0     H 3237  10.947   4.250   3.739  4.9534 -3.4223  3.6379
  765MOL0     H 3238  10.966   4.087   3.577 -0.3570  0.0204  1.4211
  765MOL0     H 3239  11.249   4.193   3.210 -1.2941  3.3840  3.5450
  765MOL0     H 3240  11.148   4.076   3.147  1.5015  0.3561  0.2831
  765MOL0     H 3241  10.937   4.184   3.169 -2.0167  2.1691 -0.4638
  765MOL0     H 3242  11.018   4.324   3.251 -2.7364 -0.6400 -0.2186
  765MOL0     H 3243  10.973   4.396   3.025  3.2949  3.2798  0.1966
  765MOL0     H 3244  11.138   4.373   3.082 -1.7209  0.9434  1.9034
  765MOL0     H 3245  11.031   4.130   2.953 -2.0240  0.2464 -1.2468
  765MOL0     H 3246  11.177   4.209   2.916 -0.1472 -3.5406  2.1969
  765MOL0     H 3247  11.032   4.395   2.797 -1.0791 -0.0387  1.2843
  765MOL0     H 3248  10.895   4.280   2.813 -0.0506  0.1249  0.4766
  765MOL0     H 3249  11.060   4.273   2.590  1.8049 -1.3570 -0.9100
  765MOL0     H 3250  11.172   4.223   2.702  0.2310  2.1047 -3.1023
  765MOL0     H 3251  10.968   4.041   2.734 -1.5443  0.4519 -1.8057
  765MOL0     H 3252  11.116   4.009   2.650  2.2191  1.1659 -1.0327
  765MOL0     H 3253  10.884   4.136   2.519  1.6003  2.1981 -1.5257
  765MOL0     H 3254  11.035   4.101   2.433  0.5142 -0.0754  1.0270
  765MOL0     H 3255  11.260   4.342   3.373 -1.0651  1.7610  0.5348
  765MOL0     H 3256  11.231   4.511   3.540 -0.8599 -0.3217  1.3967
  765MOL0     H 3257  11.105   4.592   3.998 -1.1964 -0.7481 -1.1935
  765MOL0     H 3258  11.026   4.718   4.193  0.4170 -2.4621  0.4181
  765MOL0     H 3259  11.289   5.748   5.783  0.4458  1.0082 -2.3548
  765MOL0     H 3260  11.212   5.741   6.004  0.4812 -0.6633 -0.2699
  765MOL0     H 3261  10.649   5.789   6.189 -1.3535  0.2657  1.0491
  765MOL0     H 3262  10.532   5.785   6.410 -0.0877  0.8330  0.3628
  765MOL0     H 3263  10.459   5.672   6.638  0.9925 -0.8292  0.4356
  765MOL0     H 3264  10.508   5.840   6.609  0.8044  0.3705 -0.8979
  765MOL0     H 3265  10.598   5.843   6.851 -1.9568  1.7823  0.8723
  765MOL0     H 3266  10.538   5.677   6.881 -3.0611 -0.3654 -0.6924
  765MOL0     H 3267  10.372   5.898   6.785 -0.6299  1.5030  1.4478
  765MOL0     H 3268  10.418   5.888   6.953  1.5313 -0.9856  0.0247
  765MOL0     H 3269  10.272   5.649   6.833  0.3599 -0.3613 -0.3001
  765MOL0     H 3270  10.319   5.700   6.995 -2.2629 -0.7315  0.4499
  765MOL0     H 3271   9.962   5.903   6.998  0.4636  0.2343 -0.7513
  765MOL0     H 3272  10.903   5.676   6.590  0.7119  2.0634 -0.1587
  765MOL0     H 3273  11.114   5.821   6.344  1.6976 -0.5373 -1.5337
  765MOL0     H 3274  11.126   5.669   6.444  0.2556 -4.5822 -2.3176
  765MOL0     H 3275  11.106   5.649   6.278  0.9841 -0.8113  1.1080
  766MOL0     O 3276   1.047   0.647   2.810 -0.5304  0.0835  0.0752
  766MOL0     C 3277   1.032   0.567   2.892 -0.3979 -0.3493 -0.6334
  766MOL0     O 3278   1.137   0.507   2.955  0.2054 -0.9498 -0.1932
  766MOL0     C 3279   1.267   0.540   2.941  0.2483  0.5690 -0.0258
  766MOL0     C 3280   1.327   0.623   3.027 -0.5056  0.1128 -0.1087
  766MOL0     C 3281   1.463   0.670   3.008  0.6742 -0.2334  0.7916
  766MOL0     C 3282   1.525   0.632   2.892 -0.2295  0.4766 -1.0062
  766MOL0     O 3283   1.650   0.690   2.865  0.1499 -0.3534  0.7048
  766MOL0     C 3284   1.756   0.611   2.892  0.6893  0.3049  0.6147
  766MOL0     C 3285   1.894   0.683   2.904 -0.3361  0.2712  0.2130
  766MOL0     C 3286   1.949   0.714   2.761  0.4421  0.1210  0.4484
  766MOL0     C 3287   2.053   0.826   2.765  0.3955 -0.5924  0.1719
  766MOL0     C 3288   2.173   0.794   2.843 -0.5300 -0.8471  1.0129
  766MOL0     C 3289   2.265   0.922   2.840  0.3408 -0.2375 -0.0332
  766MOL0     C 3290   2.402   0.892   2.895 -0.9605 -0.5187 -0.6083
  766MOL0     C 3291   2.497   1.016   2.884  0.0847  0.6748 -0.3289
  766MOL0     N 3292   2.645   0.995   2.899  0.7099 -0.1826  0.3174
  766MOL0     C 3293   2.709   0.994   3.021  0.0810  1.2367 -0.2170
  766MOL0     C 3294   2.848   0.996   2.990  0.4873  0.6301  0.7683
  766MOL0     C 3295   2.968   0.996   3.084  0.1578  0.3306  0.4130
  766MOL0     C 3296   2.959   1.110   3.172  0.0462 -0.3821 -0.2852
  766MOL0     C 3297   3.097   1.167   3.214  0.4306  0.1611  0.1968
  766MOL0     C 3298   3.088   1.314   3.253  0.1184  0.2252  0.1834
  766MOL0     O 3299   3.194   1.368   3.343 -0.0057 -0.0148  0.1930
  766MOL0     C 3300   3.157   1.494   3.408  0.6336 -0.0971 -0.6044
  766MOL0     C 3301   3.071   1.589   3.347  0.4301 -0.1390  0.4333
  766MOL0     C 3302   3.043   1.709   3.410 -0.3484 -0.4191  0.1645
  766MOL0     C 3303   3.108   1.746   3.527 -0.7958  0.4062  0.1877
  766MOL0     C 3304   3.072   1.872   3.592 -0.1984 -0.3253  0.2391
  766MOL0     O 3305   3.035   1.981   3.514  0.2453  0.1111 -0.8746
  766MOL0     C 3306   2.989   2.097   3.582  0.6661 -0.1716  0.0593
  766MOL0     C 3307   2.867   2.140   3.531  0.8587 -0.9955  0.8730
  766MOL0     C 3308   2.818   2.262   3.565  0.6567 -0.0120  0.3064
  766MOL0     C 3309   2.900   2.349   3.643  0.3337 -1.0284  0.5469
  766MOL0     O 3310   2.856   2.475   3.666  0.5159 -0.7482 -0.0966
  766MOL0     C 3311   2.950   2.572   3.711  0.8329  0.3621  0.2820
  766MOL0     C 3312   2.874   2.705   3.739 -0.3837  0.3607 -0.1829
  766MOL0     C 3313   2.856   2.795   3.618 -0.0681  0.4317  1.1647
  766MOL0     C 3314   2.878   2.946   3.640 -0.6248 -0.5041 -0.4304
  766MOL0     C 3315   2.816   3.048   3.529  0.3692  0.6274 -0.0430
  766MOL0     C 3316   2.665   3.044   3.536 -0.3261 -0.3616  0.6918
  766MOL0     C 3317   2.619   3.162   3.452  0.4226 -0.4180 -0.6747
  766MOL0     C 3318   2.465   3.176   3.460 -0.6463 -1.6784 -0.5342
  766MOL0    Cl 3319   2.407   3.052   3.333 -0.0723 -0.4693  0.4528
  766MOL0     C 3320   3.025   2.304   3.690 -0.5826  0.3614 -0.1353
  766MOL0     C 3321   3.073   2.175   3.657  0.5596 -0.7657 -0.8598
  766MOL0     O 3322   3.084   1.875   3.717 -0.3049  0.0696  0.8016
  766MOL0     C 3323   3.208   1.667   3.581 -0.9558  0.2454 -0.9246
  766MOL0     C 3324   3.231   1.541   3.525 -0.2681  0.8061 -0.4278
  766MOL0     N 3325   2.860   1.011   2.853 -0.4370  0.3609  0.0373
  766MOL0     N 3326   2.735   1.010   2.795  0.5022 -0.1702 -0.0914
  766MOL0     C 3327   1.459   0.544   2.800 -0.1616  0.2024  1.1378
  766MOL0     C 3328   1.334   0.496   2.829 -0.3512  0.3310  0.9239
  766MOL0     C 3329   0.893   0.526   2.920  0.7849  0.0379 -0.1135
  766MOL0     C 3330   0.790   0.580   2.842 -0.6827 -0.2085  0.4641
  766MOL0     C 3331   0.655   0.545   2.843  0.9598 -0.1463 -0.5018
  766MOL0     C 3332   0.601   0.466   2.942 -0.5749  0.2065  1.3123
  766MOL0     O 3333   0.479   0.417   2.950  0.3956 -0.4356  0.4377
  766MOL0     C 3334   0.383   0.440   2.838 -0.2799 -0.7668 -0.6244
  766MOL0     C 3335   0.427   0.373   2.709  0.0633  0.1727 -1.0594
  766MOL0     C 3336   0.301   0.367   2.621  0.5086  0.9307 -0.1071
  766MOL0     C 3337   0.333   0.325   2.478  0.6126  0.1789 -0.7129
  766MOL0     C 3338   0.450   0.383   2.411 -0.0905 -0.3925 -0.3226
  766MOL0     C 3339   0.543   0.431   2.356 -0.6053 -0.2989 -0.3492
  766MOL0     C 3340   0.701   0.423   3.038  0.3768 -0.0267 -0.0174
  766MOL0     C 3341   0.839   0.450   3.027 -0.6062 -0.0686 -0.1608
  766MOL0     C 3342   0.934   0.392   3.127  0.2206  0.3626  0.1966
  766MOL0     H 3343   1.278   0.647   3.120  0.3633  2.6546 -0.2109
  766MOL0     H 3344   1.516   0.731   3.081  0.9015 -0.2514  0.6419
  766MOL0     H 3345   1.743   0.565   2.990  0.4503  0.0924  0.4825
  766MOL0     H 3346   1.775   0.538   2.814 -0.2598  1.9392 -1.2252
  766MOL0     H 3347   1.962   0.621   2.963  1.4580  1.5035 -0.4911
  766MOL0     H 3348   1.891   0.782   2.950  1.8346  0.5321 -0.0944
  766MOL0     H 3349   1.871   0.745   2.691  0.0505 -0.6654  0.5222
  766MOL0     H 3350   1.988   0.619   2.725 -0.5155 -0.5403  1.1104
  766MOL0     H 3351   2.083   0.832   2.660 -1.1651  4.1665 -0.2442
  766MOL0     H 3352   2.020   0.925   2.796  2.3503 -0.0152  0.5271
  766MOL0     H 3353   2.140   0.772   2.945 -0.6383 -4.2428  0.3778
  766MOL0     H 3354   2.223   0.708   2.796  1.9850  0.5434  0.9751
  766MOL0     H 3355   2.281   0.958   2.738  4.7694  1.0337  0.8790
  766MOL0     H 3356   2.230   1.014   2.888 -1.7654  0.3838 -2.5609
  766MOL0     H 3357   2.441   0.797   2.855  0.4613  1.1289 -3.4362
  766MOL0     H 3358   2.383   0.866   3.000 -1.8235 -1.0955 -0.9017
  766MOL0     H 3359   2.479   1.068   2.789 -0.9111  0.6051 -0.1903
  766MOL0     H 3360   2.481   1.079   2.972  3.8201 -0.0750  1.0949
  766MOL0     H 3361   2.666   0.974   3.118  0.5525 -1.6466 -0.5186
  766MOL0     H 3362   2.961   0.904   3.143  0.0676 -1.1297 -1.7572
  766MOL0     H 3363   3.061   1.003   3.027  1.1740 -1.9204  1.6458
  766MOL0     H 3364   2.916   1.187   3.107 -1.5530  1.0222  2.2864
  766MOL0     H 3365   2.889   1.099   3.254  2.1028 -0.6910  1.5115
  766MOL0     H 3366   3.184   1.156   3.149  0.0130  0.9609 -0.5245
  766MOL0     H 3367   3.127   1.118   3.307  0.3481 -0.9477 -0.3467
  766MOL0     H 3368   2.987   1.324   3.295  0.2312 -1.5739  0.9795
  766MOL0     H 3369   3.097   1.378   3.165 -0.5737 -1.3407 -1.0770
  766MOL0     H 3370   3.020   1.557   3.257  0.9009 -2.6255  0.9692
  766MOL0     H 3371   2.971   1.783   3.377  0.0250  1.0441  2.3545
  766MOL0     H 3372   2.811   2.064   3.478  2.3084 -1.7032  0.3194
  766MOL0     H 3373   2.720   2.284   3.524  1.1683  1.9623  0.0557
  766MOL0     H 3374   2.990   2.537   3.807  1.0571  0.9641  0.4123
  766MOL0     H 3375   3.039   2.576   3.649  2.7920  1.0054  2.9490
  766MOL0     H 3376   2.780   2.696   3.794 -0.2558 -0.1082 -0.0348
  766MOL0     H 3377   2.947   2.754   3.805  2.1474 -1.5620 -1.3694
  766MOL0     H 3378   2.935   2.759   3.553 -1.9087 -3.7452  0.9281
  766MOL0     H 3379   2.763   2.788   3.561  1.4445  1.5768 -1.6348
  766MOL0     H 3380   2.987   2.955   3.643 -0.5139 -1.6236 -0.8146
  766MOL0     H 3381   2.847   2.982   3.739  1.6014  0.4244 -0.0026
  766MOL0     H 3382   2.865   3.007   3.441 -1.9822 -1.1917 -0.6224
  766MOL0     H 3383   2.841   3.152   3.547  3.3007  0.1309 -0.8288
  766MOL0     H 3384   2.627   2.953   3.489  2.2921 -1.2788  0.1697
  766MOL0     H 3385   2.632   3.056   3.639 -2.9395  1.0135 -0.2205
  766MOL0     H 3386   2.659   3.131   3.356 -1.3878 -5.1174 -0.1794
  766MOL0     H 3387   2.674   3.252   3.480  1.6129 -1.5859  0.9092
  766MOL0     H 3388   2.424   3.145   3.557 -1.3757 -0.0248 -0.2768
  766MOL0     H 3389   2.434   3.276   3.430 -2.8075 -1.9907  0.4651
  766MOL0     H 3390   3.073   2.352   3.774  0.5461 -1.3459  0.2501
  766MOL0     H 3391   3.171   2.139   3.685  0.8224 -2.0998 -3.2240
  766MOL0     H 3392   3.265   1.705   3.665 -1.8937  1.9372 -1.0076
  766MOL0     H 3393   3.296   1.473   3.581 -0.7806  0.6904  0.0367
  766MOL0     H 3394   1.512   0.530   2.706  2.0922  1.0954  2.2017
  766MOL0     H 3395   1.271   0.441   2.760  0.2939  0.6939  0.0203
  766MOL0     H 3396   0.810   0.647   2.758 -1.3195  1.8666  1.8776
  766MOL0     H 3397   0.588   0.582   2.766  1.5237  3.0122  0.3670
  766MOL0     H 3398   0.375   0.549   2.832  2.5073 -0.4533  0.0240
  766MOL0     H 3399   0.291   0.391   2.871 -0.9120  0.2512 -0.8241
  766MOL0     H 3400   0.467   0.271   2.718  0.1250  0.1023 -2.0079
  766MOL0     H 3401   0.513   0.421   2.664  0.3101  1.0081  0.2500
  766MOL0     H 3402   0.248   0.462   2.619 -0.6470  0.3111  0.3679
  766MOL0     H 3403   0.224   0.303   2.665 -0.4603  1.5964 -0.8075
  766MOL0     H 3404   0.340   0.216   2.485 -1.4198  0.0721  0.3077
  766MOL0     H 3405   0.242   0.341   2.420  0.7506  2.2779 -0.4408
  766MOL0     H 3406   0.631   0.451   2.297 -0.2219  2.2566  0.9570
  766MOL0     H 3407   0.693   0.347   3.115 -1.5329 -0.6983 -0.8254
  766MOL0     H 3408   0.887   0.367   3.223  0.8230 -0.3997  0.3022
  766MOL0     H 3409   0.964   0.292   3.093  0.9425 -0.3007  2.5789
  766MOL0     H 3410   1.019   0.454   3.156  2.0153 -0.6029 -2.5940
  767MOL0     O 3411   0.069   5.991   0.759  0.0011  0.6397 -0.5479
  767MOL0     C 3412  -0.001   5.903   0.810  0.1955  0.1621 -0.1303
  767MOL0     O 3413  -0.067   5.921   0.936  0.0289  0.0621  0.3003
  767MOL0     C 3414  -0.053   6.048   0.992 -1.1361  0.4900 -0.0755
  767MOL0     C 3415   0.073   6.102   1.027  0.3083 -0.9482 -0.2667
  767MOL0     C 3416   0.087   6.238   1.064  0.7918 -0.0530 -0.3642
  767MOL0     C 3417  -0.035   6.311   1.106  0.3309  0.3519  0.0042
  767MOL0     O 3418  -0.049   6.431   1.171  0.2347  0.2029  0.9216
  767MOL0     C 3419   0.068   6.507   1.189  0.3003 -0.4482  0.0211
  767MOL0     C 3420   0.041   6.581   1.321  0.1214 -0.0430  0.7359
  767MOL0     C 3421   0.160   6.675   1.356 -0.8304 -0.1963  0.0907
  767MOL0     C 3422   0.137   6.821   1.309  0.1016  0.6317 -0.5317
  767MOL0     C 3423   0.142   6.839   1.162 -0.7225 -0.0405  0.9329
  767MOL0     C 3424   0.197   6.988   1.117  0.4371 -0.2067  0.0493
  767MOL0     C 3425   0.101   7.109   1.145 -1.0766 -0.2546  1.0613
  767MOL0     C 3426  -0.034   7.113   1.061  0.1558 -0.6691 -0.3791
  767MOL0     N 3427  -0.024   7.081   0.918  0.4499 -0.0585 -0.6848
  767MOL0     C 3428  -0.056   7.171   0.820  0.0702 -1.0023 -0.3153
  767MOL0     C 3429  -0.067   7.108   0.707  0.0580 -0.3518  0.4079
  767MOL0     C 3430  -0.095   7.161   0.573 -0.2801  0.9968  0.2618
  767MOL0     C 3431  -0.143   7.056   0.473  0.2418 -1.1243 -0.3373
  767MOL0     C 3432  -0.202   7.127   0.344  0.7559 -0.2294 -0.8557
  767MOL0     C 3433  -0.285   7.034   0.260  0.8304  0.2060 -0.5350
  767MOL0     O 3434  -0.311   7.120   0.145  0.4227  0.0828 -1.2522
  767MOL0     C 3435  -0.389   7.062   0.051  0.0125 -0.4370 -0.1321
  767MOL0     C 3436  -0.347   6.969  -0.042 -0.5382  0.3516 -0.5771
  767MOL0     C 3437  -0.424   6.922  -0.142 -0.1304  0.5916  0.3587
  767MOL0     C 3438  -0.571   6.948  -0.131 -1.1611 -0.1435 -0.1346
  767MOL0     C 3439  -0.667   6.886  -0.227 -0.2172 -0.1103  0.0569
  767MOL0     O 3440  -0.616   6.847  -0.350 -0.5784  0.0829  0.2945
  767MOL0     C 3441  -0.702   6.814  -0.458 -0.1127  0.2683  0.8577
  767MOL0     C 3442  -0.647   6.731  -0.557  0.0176  0.1301 -0.0390
  767MOL0     C 3443  -0.725   6.696  -0.667 -0.7566  0.6348  0.0391
  767MOL0     C 3444  -0.865   6.732  -0.675  0.3808 -0.0819  0.9880
  767MOL0     O 3445  -0.941   6.703  -0.790  0.2563 -0.3411  0.3692
  767MOL0     C 3446  -0.960   6.808  -0.886  0.3483  0.2884 -0.0272
  767MOL0     C 3447  -1.018   6.779  -1.024  1.0758  0.1820  0.4528
  767MOL0     C 3448  -0.954   6.657  -1.087 -0.8683  0.4284  0.6016
  767MOL0     C 3449  -1.041   6.617  -1.206  0.6490 -0.3447  1.0033
  767MOL0     C 3450  -0.976   6.507  -1.308 -0.8782 -0.1977 -0.6760
  767MOL0     C 3451  -0.905   6.569  -1.434 -0.1494 -0.3935 -0.0937
  767MOL0     C 3452  -0.846   6.464  -1.538 -0.3122  0.9729 -0.4617
  767MOL0     C 3453  -0.774   6.546  -1.647 -0.8131 -0.7006  0.1064
  767MOL0    Cl 3454  -0.888   6.643  -1.741 -0.4199  0.0405 -0.0428
  767MOL0     C 3455  -0.908   6.827  -0.580 -0.9533  0.5490  0.2665
  767MOL0     C 3456  -0.824   6.867  -0.477 -0.5002 -0.5574  0.0641
  767MOL0     O 3457  -0.787   6.871  -0.185 -0.2718  0.3442  0.6657
  767MOL0     C 3458  -0.615   7.040  -0.039 -0.7232 -0.1782  0.5810
  767MOL0     C 3459  -0.525   7.101   0.054  0.0570  0.4105  0.1765
  767MOL0     N 3460  -0.061   6.975   0.730 -0.5891 -0.7258 -0.3699
  767MOL0     N 3461  -0.047   6.956   0.861  0.0209 -0.9987 -0.2210
  767MOL0     C 3462  -0.159   6.242   1.086 -0.7595  0.1940 -0.1189
  767MOL0     C 3463  -0.169   6.111   1.036 -0.2291 -0.8122 -0.5981
  767MOL0     C 3464  -0.013   5.772   0.742  0.4847  0.1105  0.4041
  767MOL0     C 3465  -0.066   5.663   0.819  0.1681  0.0024 -1.1883
  767MOL0     C 3466  -0.066   5.533   0.766 -0.7943  0.5184  0.1940
  767MOL0     C 3467  -0.045   5.513   0.631 -0.2047 -0.5489  0.0480
  767MOL0     O 3468  -0.055   5.391   0.566  0.1445 -0.3735 -0.1739
  767MOL0     C 3469   0.064   5.345   0.503 -0.3553 -0.0750  1.1771
  767MOL0     C 3470   0.024   5.270   0.369  0.1650 -0.8626 -0.5919
  767MOL0     C 3471   0.153   5.192   0.315  0.3616 -0.6941  0.4051
  767MOL0     C 3472   0.136   5.127   0.174 -0.2200 -0.7706 -0.1262
  767MOL0     C 3473   0.034   5.024   0.155  1.0259 -0.1398  0.3171
  767MOL0     C 3474  -0.070   4.972   0.150  0.3613  1.1242  0.1863
  767MOL0     C 3475   0.002   5.619   0.557  1.0606 -0.6627  0.0007
  767MOL0     C 3476   0.007   5.757   0.606 -0.1834  0.4656 -0.0125
  767MOL0     C 3477   0.033   5.866   0.508  0.4077 -0.0297  0.5785
  767MOL0     H 3478   0.171   6.061   1.005  0.7468 -1.1158  1.7719
  767MOL0     H 3479   0.185   6.285   1.074  2.1360 -2.8568  0.8065
  767MOL0     H 3480   0.152   6.438   1.198 -0.3329 -0.9928  2.2600
  767MOL0     H 3481   0.082   6.566   1.098 -1.2175  1.5962  1.0429
  767MOL0     H 3482   0.012   6.519   1.406 -2.1498  1.5481  1.2186
  767MOL0     H 3483  -0.053   6.633   1.299 -1.4089 -3.3604 -1.3544
  767MOL0     H 3484   0.250   6.639   1.306 -1.1032  0.6964 -1.1058
  767MOL0     H 3485   0.176   6.681   1.464 -2.7712  0.9280  0.3773
  767MOL0     H 3486   0.035   6.844   1.341 -1.4520 -2.1433 -2.9729
  767MOL0     H 3487   0.215   6.886   1.347  2.1880 -2.1605  0.3144
  767MOL0     H 3488   0.217   6.770   1.122 -0.5447  0.5909  0.1606
  767MOL0     H 3489   0.044   6.822   1.115 -0.1913  1.0187 -0.6445
  767MOL0     H 3490   0.294   7.010   1.162  1.0536  1.7518 -1.9878
  767MOL0     H 3491   0.210   6.989   1.008  2.7340 -0.6644  0.2825
  767MOL0     H 3492   0.146   7.204   1.113 -0.5104 -0.9993 -0.4410
  767MOL0     H 3493   0.076   7.129   1.250 -0.6321  2.6901  0.6996
  767MOL0     H 3494  -0.095   7.034   1.107  0.5320 -1.7787 -1.7144
  767MOL0     H 3495  -0.083   7.211   1.062  0.8092 -0.2675 -2.6651
  767MOL0     H 3496  -0.068   7.278   0.833  1.2168 -1.0099  1.0719
  767MOL0     H 3497  -0.177   7.231   0.590 -2.1906 -1.3527  1.2122
  767MOL0     H 3498  -0.006   7.219   0.545 -1.2655  2.3229 -0.2347
  767MOL0     H 3499  -0.062   6.984   0.456  0.9801 -0.0057 -1.9043
  767MOL0     H 3500  -0.234   7.007   0.509 -0.0021 -0.3051  0.2017
  767MOL0     H 3501  -0.121   7.178   0.291  1.2771 -1.2728 -1.1031
  767MOL0     H 3502  -0.272   7.200   0.384  0.8844 -1.6711  2.3402
  767MOL0     H 3503  -0.387   7.015   0.295 -0.0542  0.6844 -2.7124
  767MOL0     H 3504  -0.241   6.937   0.232  0.1074 -0.7801  1.5564
  767MOL0     H 3505  -0.244   6.934  -0.034 -1.0035 -1.0510 -0.3646
  767MOL0     H 3506  -0.386   6.866  -0.227  2.7844  1.6879  0.8102
  767MOL0     H 3507  -0.542   6.709  -0.567  0.2052  0.1452  1.6487
  767MOL0     H 3508  -0.681   6.629  -0.740 -1.3601 -1.1386  1.2651
  767MOL0     H 3509  -1.018   6.883  -0.830 -0.2069 -1.4009  1.7719
  767MOL0     H 3510  -0.865   6.853  -0.916 -1.7523  3.5456 -2.4516
  767MOL0     H 3511  -1.122   6.770  -0.991  1.1854 -0.2343  0.6950
  767MOL0     H 3512  -1.010   6.869  -1.084  3.9454 -1.6635 -2.2404
  767MOL0     H 3513  -0.856   6.695  -1.117 -0.6474  1.2333  2.2435
  767MOL0     H 3514  -0.938   6.587  -1.005 -0.0309  0.8422  0.7984
  767MOL0     H 3515  -1.085   6.705  -1.252 -0.7335 -0.6676  1.6364
  767MOL0     H 3516  -1.124   6.566  -1.157  0.6618 -0.2922  1.0794
  767MOL0     H 3517  -1.061   6.450  -1.346 -0.6358 -2.7976  2.2971
  767MOL0     H 3518  -0.908   6.440  -1.254  3.6460  1.7626 -3.3179
  767MOL0     H 3519  -0.986   6.625  -1.481 -1.3137 -1.9411 -0.0101
  767MOL0     H 3520  -0.823   6.634  -1.403 -0.5730 -0.9865  2.4947
  767MOL0     H 3521  -0.923   6.397  -1.575 -0.6896  1.9436 -1.4794
  767MOL0     H 3522  -0.770   6.401  -1.491 -3.6424 -1.2347  2.4632
  767MOL0     H 3523  -0.686   6.604  -1.618 -0.1725 -0.6749 -1.7537
  767MOL0     H 3524  -0.741   6.472  -1.720 -0.1981  0.7489 -1.1550
  767MOL0     H 3525  -1.011   6.856  -0.596 -1.3733  0.3921  2.4577
  767MOL0     H 3526  -0.867   6.923  -0.395 -1.1406 -0.4787 -0.3170
  767MOL0     H 3527  -0.717   7.077  -0.039 -1.0362 -0.9358 -1.5585
  767MOL0     H 3528  -0.566   7.191   0.100 -1.3903  0.9790 -2.0949
  767MOL0     H 3529  -0.250   6.281   1.131 -0.5092 -1.3657  1.8455
  767MOL0     H 3530  -0.259   6.055   1.014  0.7097 -1.4840 -2.9530
  767MOL0     H 3531  -0.092   5.678   0.923 -1.6153  0.3320 -1.6493
  767MOL0     H 3532  -0.103   5.454   0.831  0.8799 -0.4831 -0.0078
  767MOL0     H 3533   0.119   5.279   0.570 -0.4054  0.9532  2.2538
  767MOL0     H 3534   0.127   5.429   0.474  0.0064 -0.8073 -0.2303
  767MOL0     H 3535  -0.019   5.330   0.289 -0.3679  1.3542  1.2672
  767MOL0     H 3536  -0.053   5.193   0.384 -0.5239  0.1621  1.5263
  767MOL0     H 3537   0.191   5.119   0.387 -0.0634 -1.8680 -0.5236
  767MOL0     H 3538   0.230   5.268   0.297  0.3464 -0.7356  0.1639
  767MOL0     H 3539   0.114   5.210   0.106  1.8833  0.4385  0.5744
  767MOL0     H 3540   0.234   5.090   0.143  0.8601  0.8019  1.2176
  767MOL0     H 3541  -0.163   4.920   0.138  0.0561  1.6858  0.0911
  767MOL0     H 3542  -0.005   5.600   0.450 -3.9268 -3.7943  0.5470
  767MOL0     H 3543  -0.045   5.942   0.518  0.4202  0.0200  0.2899
  767MOL0     H 3544   0.129   5.916   0.519  1.1154 -1.2852  0.3438
  767MOL0     H 3545   0.042   5.838   0.403 -1.2939  1.4396 -0.0046
  768MOL0     O 3546   3.465  11.003   6.223  0.1423  0.5110  0.2862
  768MOL0     C 3547   3.352  11.026   6.176  0.1444 -0.0338  0.6234
  768MOL0     O 3548   3.269  11.115   6.220 -0.1791 -0.1652  0.6059
  768MOL0     C 3549   3.277  11.242   6.175 -0.5098 -0.1129  0.9959
  768MOL0     C 3550   3.160  11.322   6.199  0.0990  0.4476  0.0572
  768MOL0     C 3551   3.158  11.449   6.137 -0.0232  0.2069 -0.0111
  768MOL0     C 3552   3.267  11.501   6.063  0.0230 -1.4187 -0.0803
  768MOL0     O 3553   3.239  11.627   6.010 -0.4070 -0.8314 -0.4019
  768MOL0     C 3554   3.345  11.727   6.025 -0.3306 -0.6880  0.2040
  768MOL0     C 3555   3.339  11.827   5.909 -0.6697 -0.6866  1.4145
  768MOL0     C 3556   3.393  11.759   5.780 -0.9534 -0.5751 -0.0993
  768MOL0     C 3557   3.435  11.867   5.680 -0.7011 -0.5859  0.3298
  768MOL0     C 3558   3.462  11.815   5.548 -1.0687  0.8807 -1.1444
  768MOL0     C 3559   3.329  11.776   5.483  0.0272 -0.6842 -0.2232
  768MOL0     C 3560   3.341  11.772   5.333  0.2883 -0.3302 -0.2673
  768MOL0     C 3561   3.218  11.706   5.266  0.5741 -0.8471  0.1784
  768MOL0     N 3562   3.209  11.567   5.293 -0.6217 -0.1074  0.0434
  768MOL0     C 3563   3.285  11.459   5.243  0.1592 -0.0765 -0.0729
  768MOL0     C 3564   3.240  11.350   5.318  0.4225 -0.3916  0.2546
  768MOL0     C 3565   3.275  11.216   5.287 -0.1008  1.2766 -0.2175
  768MOL0     C 3566   3.394  11.162   5.367  0.3059 -0.4481  1.2047
  768MOL0     C 3567   3.381  11.156   5.516 -0.5807 -0.0773 -0.6787
  768MOL0     C 3568   3.517  11.148   5.575 -0.3408 -0.3968 -0.0747
  768MOL0     O 3569   3.559  11.013   5.552 -0.6715  0.2696 -0.0936
  768MOL0     C 3570   3.675  10.989   5.488 -0.2001 -0.3361  0.6979
  768MOL0     C 3571   3.762  11.086   5.426  0.2921  0.9269  0.3662
  768MOL0     C 3572   3.867  11.042   5.344  0.2780 -0.1552  0.1721
  768MOL0     C 3573   3.908  10.907   5.323  0.7620  0.4977  0.3279
  768MOL0     C 3574   3.983  10.870   5.200  0.0163 -0.1237 -0.2575
  768MOL0     O 3575   4.026  10.966   5.112  0.1482 -0.5805  0.1593
  768MOL0     C 3576   4.065  10.933   4.993 -0.5769 -0.0762  0.0152
  768MOL0     C 3577   3.988  10.848   4.908 -0.6610 -0.0966 -0.6248
  768MOL0     C 3578   4.036  10.817   4.777  1.2144 -0.1920 -0.1791
  768MOL0     C 3579   4.170  10.858   4.743  1.3854  0.8890  0.0164
  768MOL0     O 3580   4.239  10.799   4.639  0.4518  0.2542 -0.7247
  768MOL0     C 3581   4.170  10.724   4.535 -0.6181 -0.9184  0.1592
  768MOL0     C 3582   4.089  10.817   4.436 -0.6740 -1.2928  0.1204
  768MOL0     C 3583   4.011  10.735   4.346  0.3062 -0.3129  0.1147
  768MOL0     C 3584   3.891  10.813   4.287  0.3417  1.4644 -0.2311
  768MOL0     C 3585   3.783  10.849   4.386 -0.4935  0.4002 -0.7975
  768MOL0     C 3586   3.661  10.871   4.298  0.0574 -0.1910 -0.4837
  768MOL0     C 3587   3.680  10.964   4.168  0.6246  0.0755 -0.1326
  768MOL0     C 3588   3.553  10.969   4.082  0.3584  1.3360 -0.7834
  768MOL0    Cl 3589   3.535  10.821   3.969 -0.2064  0.1195  0.2678
  768MOL0     C 3590   4.248  10.940   4.836  0.6665  0.0924  0.4602
  768MOL0     C 3591   4.200  10.970   4.963 -0.1852 -0.0575  0.3274
  768MOL0     O 3592   4.035  10.756   5.204  0.2882  0.7471  0.5051
  768MOL0     C 3593   3.820  10.807   5.386 -0.4582 -0.2777  0.8692
  768MOL0     C 3594   3.716  10.848   5.477  0.4057 -0.4960  0.2764
  768MOL0     N 3595   3.133  11.390   5.399 -0.3060  0.2322  0.5887
  768MOL0     N 3596   3.127  11.521   5.387  0.1438 -0.0539  0.9941
  768MOL0     C 3597   3.376  11.415   6.030 -0.1336 -0.1031 -0.2731
  768MOL0     C 3598   3.377  11.286   6.085 -0.4346 -0.3183  0.3200
  768MOL0     C 3599   3.309  10.953   6.049  0.0398  1.2238  0.0696
  768MOL0     C 3600   3.414  10.919   5.959 -1.0873  0.7526  1.0113
  768MOL0     C 3601   3.388  10.850   5.841  0.1429  0.0759  0.9777
  768MOL0     C 3602   3.259  10.823   5.794 -0.4449 -0.4093 -0.6548
  768MOL0     O 3603   3.246  10.743   5.688 -0.4883  0.1152 -0.2674
  768MOL0     C 3604   3.351  10.708   5.600 -0.5641  0.6500 -0.1206
  768MOL0     C 3605   3.278  10.653   5.478  0.6574 -0.5906  0.6689
  768MOL0     C 3606   3.349  10.546   5.409  0.0545  0.8306 -0.4393
  768MOL0     C 3607   3.296  10.526   5.269 -0.9553  0.3476 -0.2709
  768MOL0     C 3608   3.167  10.466   5.290 -0.3170 -1.1016 -0.5235
  768MOL0     C 3609   3.058  10.415   5.292 -0.0770 -1.6147 -0.0790
  768MOL0     C 3610   3.160  10.862   5.890  0.4110  0.5094  0.6466
  768MOL0     C 3611   3.173  10.922   6.012  0.0097 -0.1831 -0.0626
  768MOL0     C 3612   3.043  10.962   6.082  0.4182 -0.0315 -0.4178
  768MOL0     H 3613   3.077  11.298   6.265  0.2264  1.5083  0.6135
  768MOL0     H 3614   3.084  11.522   6.167  2.5834  2.7340  0.7471
  768MOL0     H 3615   3.317  11.779   6.117  0.6776  1.3618 -0.5779
  768MOL0     H 3616   3.442  11.679   6.046  0.8847  0.3976 -2.4908
  768MOL0     H 3617   3.397  11.912   5.946 -1.7106 -0.3943  2.4112
  768MOL0     H 3618   3.235  11.854   5.890 -0.5805 -0.5688  1.0765
  768MOL0     H 3619   3.319  11.692   5.735  1.8884 -3.7067 -0.4278
  768MOL0     H 3620   3.473  11.688   5.803 -0.7869 -0.1037  0.8266
  768MOL0     H 3621   3.354  11.938   5.659  1.2751  1.9489  0.8088
  768MOL0     H 3622   3.522  11.923   5.715 -1.3050 -0.8289  2.3438
  768MOL0     H 3623   3.502  11.896   5.487  2.8106  0.0172  0.0258
  768MOL0     H 3624   3.531  11.730   5.552  1.3845  2.7916  1.7980
  768MOL0     H 3625   3.312  11.675   5.523  0.1156  0.1315  2.0149
  768MOL0     H 3626   3.241  11.839   5.502  0.6979  0.6271 -1.3222
  768MOL0     H 3627   3.435  11.722   5.309  0.2582 -1.0301  0.9741
  768MOL0     H 3628   3.330  11.875   5.298 -1.7889  0.5016  2.4680
  768MOL0     H 3629   3.132  11.758   5.309  2.0599  0.8368  1.2792
  768MOL0     H 3630   3.219  11.720   5.157 -0.4062 -3.4363 -0.2175
  768MOL0     H 3631   3.370  11.460   5.176  0.1104 -0.0764 -0.1344
  768MOL0     H 3632   3.196  11.148   5.318 -0.7247  1.1744 -1.9405
  768MOL0     H 3633   3.280  11.198   5.180 -0.3716 -2.6084  0.2899
  768MOL0     H 3634   3.414  11.058   5.337  1.4633 -0.8479  3.1378
  768MOL0     H 3635   3.486  11.217   5.348  0.2490 -1.2966 -2.0903
  768MOL0     H 3636   3.313  11.079   5.552  0.0741 -0.4379 -0.2049
  768MOL0     H 3637   3.341  11.253   5.547 -1.4536 -0.7083  0.2091
  768MOL0     H 3638   3.514  11.175   5.681 -1.3205  3.6650 -0.9658
  768MOL0     H 3639   3.565  11.241   5.543 -3.9240  2.4367  1.9693
  768MOL0     H 3640   3.746  11.193   5.438  2.1832  1.6373 -2.4413
  768MOL0     H 3641   3.906  11.119   5.278  1.8754 -1.5181 -0.5378
  768MOL0     H 3642   3.887  10.822   4.938 -0.6873  0.2550 -0.3921
  768MOL0     H 3643   3.970  10.757   4.715 -4.3396  4.8952 -0.1252
  768MOL0     H 3644   4.253  10.676   4.482  1.0111  1.6802  0.2003
  768MOL0     H 3645   4.107  10.650   4.585 -3.6988  0.4505 -1.4473
  768MOL0     H 3646   4.033  10.895   4.489  2.7838  0.2837  1.8268
  768MOL0     H 3647   4.157  10.874   4.371 -2.9999 -0.8691 -2.0998
  768MOL0     H 3648   4.079  10.698   4.269  1.4008 -0.3385  1.0760
  768MOL0     H 3649   3.959  10.652   4.395 -0.1265 -1.0408 -1.4878
  768MOL0     H 3650   3.841  10.744   4.219 -0.1114  1.4220  0.1356
  768MOL0     H 3651   3.924  10.897   4.226  1.3956 -0.2185 -2.1207
  768MOL0     H 3652   3.799  10.952   4.419 -2.8062  0.4464  0.4281
  768MOL0     H 3653   3.769  10.780   4.470  4.4978  0.2175  0.2050
  768MOL0     H 3654   3.607  10.777   4.281 -1.5827  0.9091 -1.7635
  768MOL0     H 3655   3.610  10.947   4.358 -0.1331  0.1981 -1.1327
  768MOL0     H 3656   3.757  10.934   4.097  1.0698  0.6333  0.1070
  768MOL0     H 3657   3.700  11.065   4.206 -0.4286  0.6286 -0.9787
  768MOL0     H 3658   3.466  10.971   4.148 -0.4675 -1.5266 -1.6476
  768MOL0     H 3659   3.561  11.051   4.010  0.0168 -1.0806 -3.7552
  768MOL0     H 3660   4.348  10.966   4.804  1.5226 -1.1697  1.9601
  768MOL0     H 3661   4.255  11.024   5.040  1.2884 -3.1839  1.6258
  768MOL0     H 3662   3.828  10.702   5.357 -1.6950  0.4178 -2.4116
  768MOL0     H 3663   3.667  10.768   5.531 -0.0091 -2.8297 -3.2146
  768MOL0     H 3664   3.448  11.429   5.950  0.1930  0.8563  0.1729
  768MOL0     H 3665   3.443  11.210   6.044 -0.2322 -1.3257  2.3700
  768MOL0     H 3666   3.517  10.942   5.985 -0.8095  1.6359 -0.7534
  768MOL0     H 3667   3.487  10.835   5.799  0.4606  1.9090  0.9764
  768MOL0     H 3668   3.405  10.633   5.658  0.6111  0.5194 -1.3518
  768MOL0     H 3669   3.415  10.790   5.566 -0.0650 -0.2879 -1.5012
  768MOL0     H 3670   3.248  10.734   5.411  0.5033 -2.3167 -1.5040
  768MOL0     H 3671   3.184  10.609   5.511 -0.4836 -0.3083 -1.9331
  768MOL0     H 3672   3.340  10.457   5.472 -1.0551 -2.3421 -4.6127
  768MOL0     H 3673   3.456  10.567   5.403 -0.0569  1.7368  0.4849
  768MOL0     H 3674   3.284  10.616   5.208 -0.9560  0.5709  0.0562
  768MOL0     H 3675   3.367  10.458   5.221 -1.7380  0.1840 -1.2465
  768MOL0     H 3676   2.967  10.361   5.276  0.1177 -1.4923 -1.7558
  768MOL0     H 3677   3.071  10.816   5.850  1.4823  0.1628 -1.4612
  768MOL0     H 3678   3.036  11.070   6.095 -1.8293 -0.2284  0.4285
  768MOL0     H 3679   2.953  10.925   6.032  0.5410  1.0618 -1.5083
  768MOL0     H 3680   3.042  10.919   6.182 -2.1247  1.2319  0.1890
  769MOL0     O 3681  10.094   1.592   1.300  0.9145 -0.0262  0.2840
  769MOL0     C 3682  10.089   1.513   1.395 -0.3357  0.5313  0.7651
  769MOL0     O 3683  10.082   1.543   1.529  0.7889 -0.2825 -0.2171
  769MOL0     C 3684  10.084   1.678   1.566  0.0831 -0.8101  0.1862
  769MOL0     C 3685  10.167   1.775   1.511  0.3709 -0.7287  0.6759
  769MOL0     C 3686  10.153   1.909   1.553  0.0566 -0.4559  0.6436
  769MOL0     C 3687  10.054   1.949   1.651 -0.8271  0.1394 -0.6858
  769MOL0     O 3688  10.049   2.080   1.693 -0.2456  0.2956 -0.4578
  769MOL0     C 3689   9.920   2.153   1.684 -0.2542 -0.1129  0.4712
  769MOL0     C 3690   9.919   2.238   1.810  0.3088 -0.0130  0.3327
  769MOL0     C 3691   9.802   2.332   1.815 -0.0297  0.2695  0.1223
  769MOL0     C 3692   9.834   2.459   1.907  0.3982 -0.3030  0.1018
  769MOL0     C 3693   9.710   2.553   1.936 -0.1208 -0.3335  0.6073
  769MOL0     C 3694   9.757   2.699   1.982  1.0128 -0.0695  0.2218
  769MOL0     C 3695   9.800   2.700   2.133 -0.0139  0.3043  0.2115
  769MOL0     C 3696   9.830   2.850   2.185 -0.7452 -0.1451  0.1818
  769MOL0     N 3697   9.710   2.933   2.190 -0.6353 -0.3123 -0.4158
  769MOL0     C 3698   9.600   2.927   2.278 -0.5136 -0.1158  0.7437
  769MOL0     C 3699   9.518   3.026   2.236 -0.4818 -0.1870  0.7867
  769MOL0     C 3700   9.390   3.060   2.296  0.5725  0.2586 -0.1379
  769MOL0     C 3701   9.420   3.118   2.432  0.1161 -0.4004 -0.4283
  769MOL0     C 3702   9.290   3.128   2.523  0.0184  0.3927  0.3159
  769MOL0     C 3703   9.321   3.182   2.659 -0.5367 -0.1110 -0.6757
  769MOL0     O 3704   9.328   3.322   2.650 -0.7574  0.5501 -0.9274
  769MOL0     C 3705   9.378   3.391   2.771  0.7227  1.3172  0.2030
  769MOL0     C 3706   9.383   3.520   2.744 -0.9240 -0.3867 -0.5247
  769MOL0     C 3707   9.444   3.608   2.835 -0.6208 -1.5317  0.4071
  769MOL0     C 3708   9.481   3.569   2.958  0.7616  0.7755  0.7803
  769MOL0     C 3709   9.538   3.660   3.061  0.7189 -0.0396  0.5376
  769MOL0     O 3710   9.590   3.779   3.021  0.2732  0.3686 -0.4966
  769MOL0     C 3711   9.637   3.870   3.116  0.1023 -0.6736 -0.4037
  769MOL0     C 3712   9.763   3.863   3.190 -0.7722  0.9189  0.4753
  769MOL0     C 3713   9.796   3.956   3.281  0.3351 -0.2028 -0.2183
  769MOL0     C 3714   9.699   4.062   3.313  0.1122  0.2657  0.1353
  769MOL0     O 3715   9.721   4.175   3.389  0.1277 -0.3806 -0.4944
  769MOL0     C 3716   9.839   4.173   3.471  0.4332 -0.9386 -0.0795
  769MOL0     C 3717   9.847   4.315   3.540  0.1577 -0.3689  0.5249
  769MOL0     C 3718   9.891   4.434   3.446 -0.1997 -0.6532 -0.0188
  769MOL0     C 3719   9.871   4.581   3.513 -0.1511 -0.0191  0.3974
  769MOL0     C 3720   9.928   4.688   3.431 -0.6231  0.2306  0.1525
  769MOL0     C 3721   9.886   4.837   3.487  0.5941 -0.3681  1.1011
  769MOL0     C 3722   9.989   4.916   3.407  0.5268 -0.7899 -0.2954
  769MOL0     C 3723   9.961   5.069   3.417 -0.4490  1.0244 -0.1137
  769MOL0    Cl 3724   9.816   5.099   3.310 -0.2628  0.0277  0.1004
  769MOL0     C 3725   9.575   4.066   3.241 -1.2722  0.2841 -0.5329
  769MOL0     C 3726   9.547   3.970   3.154 -0.0610  0.5766 -0.2589
  769MOL0     O 3727   9.555   3.612   3.173  0.7775 -0.2934 -0.1987
  769MOL0     C 3728   9.461   3.430   2.993 -0.3237 -0.3586  0.1623
  769MOL0     C 3729   9.419   3.344   2.898 -0.3782 -0.7731  0.8389
  769MOL0     N 3730   9.566   3.090   2.118  0.6086 -0.6914 -0.0717
  769MOL0     N 3731   9.682   3.029   2.105  0.4444  0.3157  0.0352
  769MOL0     C 3732   9.970   1.848   1.700  0.4837  0.9065 -0.3673
  769MOL0     C 3733   9.988   1.716   1.660  0.0970  0.6914 -0.2523
  769MOL0     C 3734  10.110   1.371   1.349 -0.8534  0.5782  0.6784
  769MOL0     C 3735  10.111   1.274   1.453 -0.7814 -0.4362  0.2578
  769MOL0     C 3736  10.132   1.140   1.431  0.2601 -0.2058  1.0102
  769MOL0     C 3737  10.151   1.088   1.300  0.9888  0.4559 -0.5087
  769MOL0     O 3738  10.156   0.958   1.259  0.7589 -0.0966  0.3878
  769MOL0     C 3739  10.147   0.846   1.345  0.9766  0.6070  0.3133
  769MOL0     C 3740  10.303   0.819   1.376  0.5105  0.6044 -1.2891
  769MOL0     C 3741  10.391   0.798   1.251 -0.3560  0.6101  0.4727
  769MOL0     C 3742  10.512   0.733   1.286  0.6528  0.7507 -0.2640
  769MOL0     C 3743  10.589   0.800   1.388 -0.2732 -0.1732  0.1116
  769MOL0     C 3744  10.633   0.881   1.473 -0.2048  0.3095 -1.4281
  769MOL0     C 3745  10.157   1.184   1.197 -0.4500 -0.1690 -0.9673
  769MOL0     C 3746  10.139   1.322   1.219 -0.5472  0.8576  0.1927
  769MOL0     C 3747  10.146   1.408   1.096 -0.6934 -0.4426  0.3344
  769MOL0     H 3748  10.242   1.759   1.434 -2.4360 -0.8110 -2.2802
  769MOL0     H 3749  10.219   1.984   1.511 -1.0334 -0.2481 -0.7816
  769MOL0     H 3750   9.921   2.219   1.597 -0.0883 -0.0909  0.4897
  769MOL0     H 3751   9.833   2.086   1.680  0.2718 -0.8599  1.2885
  769MOL0     H 3752  10.010   2.298   1.797  0.3531 -0.5755 -3.0319
  769MOL0     H 3753   9.917   2.176   1.900 -0.9661 -0.9266 -0.2984
  769MOL0     H 3754   9.716   2.273   1.848  2.6678 -5.3065 -1.6676
  769MOL0     H 3755   9.780   2.385   1.722  3.2906  1.9293  0.1369
  769MOL0     H 3756   9.877   2.420   2.000  0.1140  1.6305  1.1048
  769MOL0     H 3757   9.916   2.505   1.851  3.5314 -1.5494  3.3003
  769MOL0     H 3758   9.647   2.566   1.848  0.5754  3.0339  0.5004
  769MOL0     H 3759   9.644   2.515   2.016  0.3691  0.5713  1.4607
  769MOL0     H 3760   9.835   2.739   1.917  0.0608 -0.2923 -1.0818
  769MOL0     H 3761   9.666   2.757   1.964  0.9554 -0.2793 -0.1635
  769MOL0     H 3762   9.879   2.625   2.142 -0.3029  0.0149  0.3897
  769MOL0     H 3763   9.718   2.662   2.195  1.1402  1.3351  2.4692
  769MOL0     H 3764   9.880   2.847   2.282 -1.7214  0.9558  0.7542
  769MOL0     H 3765   9.911   2.886   2.120  0.3561 -1.8882  0.5259
  769MOL0     H 3766   9.595   2.863   2.365 -1.5027  0.1898  0.9177
  769MOL0     H 3767   9.339   3.127   2.225 -2.8197 -2.7937 -0.8843
  769MOL0     H 3768   9.323   2.974   2.303 -0.4736  0.7135 -3.0582
  769MOL0     H 3769   9.499   3.062   2.482 -0.2811 -1.5577 -1.0538
  769MOL0     H 3770   9.455   3.220   2.414 -0.2943 -0.4629 -1.7407
  769MOL0     H 3771   9.244   3.029   2.532 -0.7085  0.3190 -2.9212
  769MOL0     H 3772   9.205   3.184   2.481 -0.6462 -0.5799  0.3312
  769MOL0     H 3773   9.409   3.129   2.699 -1.0373  1.0502  2.2511
  769MOL0     H 3774   9.242   3.157   2.731  0.5479 -1.9565 -0.0436
  769MOL0     H 3775   9.363   3.556   2.644 -0.8009 -1.2222 -0.8548
  769MOL0     H 3776   9.453   3.712   2.805 -0.2266 -1.9811 -1.1470
  769MOL0     H 3777   9.833   3.784   3.167  1.3392  1.4438  4.3600
  769MOL0     H 3778   9.896   3.952   3.323 -1.4422 -2.7488  4.3824
  769MOL0     H 3779   9.842   4.102   3.554 -2.0588 -1.8928 -0.7193
  769MOL0     H 3780   9.922   4.154   3.403 -1.3911 -0.1470 -2.6847
  769MOL0     H 3781   9.755   4.349   3.589 -1.1095  0.0052 -1.9309
  769MOL0     H 3782   9.926   4.303   3.614  1.3453  3.1505 -0.0072
  769MOL0     H 3783   9.998   4.420   3.429  0.1636  0.1875  1.3957
  769MOL0     H 3784   9.834   4.431   3.353  1.0823 -1.0400 -0.8099
  769MOL0     H 3785   9.908   4.578   3.615  0.4487  1.9938  0.2895
  769MOL0     H 3786   9.762   4.586   3.519 -0.2207 -1.9893  1.6998
  769MOL0     H 3787   9.898   4.671   3.327  1.6099 -4.9659  0.0712
  769MOL0     H 3788  10.037   4.679   3.420 -0.5041  2.6840 -1.4928
  769MOL0     H 3789   9.784   4.857   3.454 -0.4710 -4.3665  1.4152
  769MOL0     H 3790   9.889   4.840   3.596  2.1319 -2.4369  1.1819
  769MOL0     H 3791   9.988   4.889   3.301  2.5248  2.3547 -1.2510
  769MOL0     H 3792  10.086   4.891   3.451  0.4786 -1.1001 -0.3613
  769MOL0     H 3793   9.940   5.074   3.524 -0.6041  0.4659 -0.1125
  769MOL0     H 3794  10.048   5.125   3.381  2.1456 -0.8075  2.8291
  769MOL0     H 3795   9.498   4.140   3.260 -0.5879  0.6278  1.1910
  769MOL0     H 3796   9.456   3.973   3.094  0.0285  0.9345 -0.3833
  769MOL0     H 3797   9.481   3.393   3.093 -0.8187 -1.9270 -0.2976
  769MOL0     H 3798   9.400   3.238   2.910 -2.3902 -0.6433 -0.6743
  769MOL0     H 3799   9.891   1.876   1.769 -2.5577  3.5587 -4.4376
  769MOL0     H 3800   9.920   1.638   1.694 -0.4446  0.6522 -1.3801
  769MOL0     H 3801  10.103   1.289   1.561  0.6318 -0.7130  0.4244
  769MOL0     H 3802  10.142   1.084   1.523  0.9299  0.5373  1.3995
  769MOL0     H 3803  10.098   0.760   1.297  1.8300 -1.1381  2.3961
  769MOL0     H 3804  10.084   0.863   1.432 -3.7512  1.9172 -2.9327
  769MOL0     H 3805  10.302   0.721   1.425  0.7365  0.7419 -1.0064
  769MOL0     H 3806  10.344   0.893   1.445  0.1526 -0.0634 -0.3197
  769MOL0     H 3807  10.406   0.896   1.204  1.1456 -0.1026 -0.6439
  769MOL0     H 3808  10.351   0.742   1.166  0.6367 -2.3639  1.8336
  769MOL0     H 3809  10.479   0.637   1.326  0.1544  1.4730  1.1084
  769MOL0     H 3810  10.568   0.717   1.193  0.2720  1.5150 -0.6291
  769MOL0     H 3811  10.683   0.934   1.552  1.3427 -3.0889  0.0613
  769MOL0     H 3812  10.187   1.151   1.098 -4.8013  0.5604 -2.7097
  769MOL0     H 3813  10.249   1.446   1.093 -0.1757 -1.7877  0.1141
  769MOL0     H 3814  10.135   1.336   1.014  0.3879 -1.5283  1.0922
  769MOL0     H 3815  10.067   1.483   1.093  0.2385  0.5515 -0.0571
  770MOL0     O 3816   6.432   5.037   5.685 -0.3611 -0.1420  0.0437
  770MOL0     C 3817   6.516   4.964   5.629 -0.0579 -0.6638  0.0197
  770MOL0     O 3818   6.584   4.860   5.693  0.5128 -0.0288  0.1069
  770MOL0     C 3819   6.556   4.810   5.813  0.6398 -0.5329  0.0763
  770MOL0     C 3820   6.591   4.880   5.929  0.1691 -0.3927 -0.1472
  770MOL0     C 3821   6.547   4.833   6.054  0.2814  0.4530  0.7283
  770MOL0     C 3822   6.481   4.707   6.069 -0.1416 -0.0009  0.1517
  770MOL0     O 3823   6.449   4.666   6.195  0.5284  0.2627  0.4922
  770MOL0     C 3824   6.357   4.754   6.266 -0.0161 -0.0265 -0.9549
  770MOL0     C 3825   6.265   4.687   6.368  0.2238 -0.9999  0.0926
  770MOL0     C 3826   6.193   4.555   6.321  0.4181 -0.2856  0.4195
  770MOL0     C 3827   6.147   4.467   6.436 -0.5560  0.1418  0.5255
  770MOL0     C 3828   6.029   4.528   6.510 -0.5665  0.1800 -0.8181
  770MOL0     C 3829   6.008   4.448   6.636  0.1462 -0.6972 -0.2365
  770MOL0     C 3830   5.880   4.483   6.713  0.2697 -0.9150 -0.2386
  770MOL0     C 3831   5.748   4.431   6.659 -0.4784  0.4698 -0.0530
  770MOL0     N 3832   5.642   4.431   6.756 -0.0427 -0.0290 -0.0567
  770MOL0     C 3833   5.616   4.334   6.841 -0.1485  0.1587 -0.2633
  770MOL0     C 3834   5.506   4.362   6.904 -0.4658  0.6579 -0.2081
  770MOL0     C 3835   5.431   4.265   6.992 -0.3321 -0.9543 -0.0023
  770MOL0     C 3836   5.381   4.152   6.901  0.6898  0.1666 -0.5116
  770MOL0     C 3837   5.466   4.028   6.902  0.7565 -1.0855  0.7726
  770MOL0     C 3838   5.506   3.973   7.032  0.1894  0.4163  0.5406
  770MOL0     O 3839   5.633   4.024   7.083 -0.8383  0.2591  0.2804
  770MOL0     C 3840   5.678   3.985   7.209  0.5553 -0.5737  0.5346
  770MOL0     C 3841   5.791   4.045   7.269 -0.0480 -0.2481  0.3578
  770MOL0     C 3842   5.851   4.005   7.392 -0.8971  0.5099  0.1950
  770MOL0     C 3843   5.785   3.903   7.453 -0.2226 -0.6801 -0.6362
  770MOL0     C 3844   5.847   3.849   7.581  0.3433 -0.7476  0.0582
  770MOL0     O 3845   5.765   3.750   7.635 -0.4481 -0.2544  1.0244
  770MOL0     C 3846   5.775   3.722   7.766 -0.5498  0.3254  0.1841
  770MOL0     C 3847   5.667   3.752   7.846  0.3771 -0.0160  0.1227
  770MOL0     C 3848   5.681   3.747   7.980  0.6345 -0.0565 -0.1836
  770MOL0     C 3849   5.795   3.701   8.045 -1.0346  0.0746  0.6337
  770MOL0     O 3850   5.835   3.722   8.179 -0.7255  0.0622 -0.4968
  770MOL0     C 3851   5.750   3.792   8.271 -0.1288  0.5363 -0.3538
  770MOL0     C 3852   5.625   3.719   8.315 -0.0878 -0.3304 -0.1279
  770MOL0     C 3853   5.664   3.647   8.450 -0.3031 -0.2945  0.0636
  770MOL0     C 3854   5.596   3.513   8.487  0.1406 -0.0311 -0.4313
  770MOL0     C 3855   5.636   3.462   8.622  0.2906 -0.9559 -0.4037
  770MOL0     C 3856   5.568   3.321   8.635  1.1681 -0.1566 -0.0037
  770MOL0     C 3857   5.560   3.263   8.783  0.0046  0.3169  0.7264
  770MOL0     C 3858   5.513   3.360   8.889 -0.1871 -0.9893  0.6333
  770MOL0    Cl 3859   5.346   3.402   8.841  0.1850 -0.2159 -0.0207
  770MOL0     C 3860   5.909   3.665   7.963 -0.7680 -0.2455 -0.9468
  770MOL0     C 3861   5.893   3.670   7.830  0.9624  0.2558 -0.1172
  770MOL0     O 3862   5.945   3.905   7.629 -0.5373  0.3123  0.2610
  770MOL0     C 3863   5.666   3.843   7.404 -0.5933 -1.1783 -0.6180
  770MOL0     C 3864   5.613   3.889   7.290  1.3305  0.5462  0.8935
  770MOL0     N 3865   5.459   4.480   6.841  0.0991  0.4230 -0.6677
  770MOL0     N 3866   5.546   4.524   6.757 -0.2373  0.8099  0.6101
  770MOL0     C 3867   6.470   4.628   5.962  0.5151 -0.1121 -0.8125
  770MOL0     C 3868   6.493   4.682   5.834 -0.3591 -0.9556  0.0072
  770MOL0     C 3869   6.554   4.995   5.487 -1.2713 -0.0759  0.3034
  770MOL0     C 3870   6.684   4.945   5.458  1.0871 -0.8710  0.6534
  770MOL0     C 3871   6.740   4.979   5.333 -0.6798 -0.4161  0.3224
  770MOL0     C 3872   6.675   5.070   5.248  0.7081  0.2368  0.0367
  770MOL0     O 3873   6.731   5.135   5.139  1.8897 -0.9971  0.4364
  770MOL0     C 3874   6.854   5.086   5.078 -0.4942  0.8368  0.4173
  770MOL0     C 3875   6.849   5.095   4.924 -0.3353 -0.1352  0.3653
  770MOL0     C 3876   6.740   5.012   4.855 -0.4183  0.0240 -0.0088
  770MOL0     C 3877   6.762   4.995   4.709 -0.4985 -0.0724 -0.1886
  770MOL0     C 3878   6.647   4.925   4.642 -0.2761  0.4954  0.6312
  770MOL0     C 3879   6.549   4.864   4.596 -0.1444  0.1641  1.3907
  770MOL0     C 3880   6.546   5.111   5.272 -0.0524 -0.4313 -1.1570
  770MOL0     C 3881   6.485   5.071   5.393 -0.6896 -0.2427  0.2137
  770MOL0     C 3882   6.351   5.127   5.426 -1.0676 -0.4016 -0.6240
  770MOL0     H 3883   6.640   4.977   5.923  0.6711 -0.7206 -1.9938
  770MOL0     H 3884   6.548   4.887   6.149 -0.1126 -1.6143  1.9655
  770MOL0     H 3885   6.422   4.833   6.305  1.8089 -1.7680 -0.3043
  770MOL0     H 3886   6.297   4.801   6.188  2.7628 -0.2415 -3.4203
  770MOL0     H 3887   6.187   4.758   6.398 -1.1433 -1.6533 -1.6794
  770MOL0     H 3888   6.328   4.658   6.452  3.6867 -0.3244 -2.0794
  770MOL0     H 3889   6.267   4.496   6.265  3.9398  2.4094  1.8808
  770MOL0     H 3890   6.107   4.575   6.256 -1.0160 -1.4625  1.8920
  770MOL0     H 3891   6.116   4.372   6.390 -1.3504  1.4512 -1.8294
  770MOL0     H 3892   6.233   4.444   6.500 -0.8982 -0.2633  0.8500
  770MOL0     H 3893   6.066   4.627   6.541  0.8342 -1.2386  2.4924
  770MOL0     H 3894   5.945   4.534   6.440 -0.7404 -0.8273 -0.7079
  770MOL0     H 3895   6.017   4.344   6.602  1.0746  0.2993 -3.4003
  770MOL0     H 3896   6.095   4.460   6.702  1.2201  2.2748 -1.9783
  770MOL0     H 3897   5.867   4.592   6.719  1.5463 -0.7254 -0.4462
  770MOL0     H 3898   5.898   4.449   6.816 -2.3259  1.9013  1.3373
  770MOL0     H 3899   5.738   4.496   6.571  4.6037 -2.3194 -3.2009
  770MOL0     H 3900   5.758   4.329   6.621  1.3771  0.0198  1.4965
  770MOL0     H 3901   5.677   4.244   6.840  0.0216  0.2762 -0.6726
  770MOL0     H 3902   5.509   4.239   7.064  2.3709  0.4019 -2.2138
  770MOL0     H 3903   5.353   4.311   7.053  1.1506  0.3315  0.9836
  770MOL0     H 3904   5.285   4.111   6.935  0.8120 -1.9224 -2.4316
  770MOL0     H 3905   5.361   4.194   6.802  0.6860  2.6580  0.4801
  770MOL0     H 3906   5.556   4.032   6.840  1.0531  1.0505  1.2626
  770MOL0     H 3907   5.403   3.952   6.855 -0.7735  1.9864 -2.6095
  770MOL0     H 3908   5.516   3.865   7.017  1.8535 -0.1348  4.3581
  770MOL0     H 3909   5.420   3.992   7.097 -1.0489 -0.6852 -0.7317
  770MOL0     H 3910   5.846   4.113   7.205 -2.0502 -0.8772 -2.2318
  770MOL0     H 3911   5.943   4.049   7.429  1.2694 -4.1777  1.1266
  770MOL0     H 3912   5.576   3.803   7.814  0.5922  0.3907  0.1428
  770MOL0     H 3913   5.594   3.791   8.029 -1.2391  0.5836 -3.7397
  770MOL0     H 3914   5.804   3.812   8.364 -1.7830  0.7868  0.5919
  770MOL0     H 3915   5.727   3.891   8.230 -1.3555  0.3626 -0.1172
  770MOL0     H 3916   5.541   3.788   8.332 -1.4208 -2.4067  2.4538
  770MOL0     H 3917   5.608   3.648   8.234 -0.2899 -4.0618  2.8744
  770MOL0     H 3918   5.770   3.621   8.439 -0.4883 -0.2845 -2.4122
  770MOL0     H 3919   5.647   3.718   8.531  1.7945  0.9725 -0.5280
  770MOL0     H 3920   5.632   3.445   8.409  2.2830  0.8587 -0.2695
  770MOL0     H 3921   5.487   3.525   8.484 -0.0394 -1.1181  0.6388
  770MOL0     H 3922   5.597   3.519   8.707  1.3731 -2.1727  0.9734
  770MOL0     H 3923   5.745   3.455   8.627  0.3630  0.2268 -0.0291
  770MOL0     H 3924   5.464   3.315   8.601  1.0873  0.6430  0.0795
  770MOL0     H 3925   5.617   3.248   8.570 -0.3511 -2.6809  1.5230
  770MOL0     H 3926   5.666   3.241   8.799 -0.0012 -0.3575 -0.0481
  770MOL0     H 3927   5.502   3.170   8.789 -0.8806  0.9052  1.5036
  770MOL0     H 3928   5.530   3.313   8.987  0.9230 -0.8347  0.5349
  770MOL0     H 3929   5.574   3.450   8.898  0.3260 -1.2803  0.1431
  770MOL0     H 3930   6.007   3.636   8.000 -2.4032 -2.3760  2.2228
  770MOL0     H 3931   5.979   3.641   7.771  2.1843 -1.1970  2.2013
  770MOL0     H 3932   5.618   3.759   7.454  1.5721 -3.9750 -2.8563
  770MOL0     H 3933   5.524   3.837   7.255  1.0277  1.2084  0.6473
  770MOL0     H 3934   6.421   4.533   5.981 -0.1868  0.6587  1.5785
  770MOL0     H 3935   6.465   4.624   5.747  0.8765 -0.2619 -0.8770
  770MOL0     H 3936   6.747   4.904   5.536  2.1851  0.9848  0.8035
  770MOL0     H 3937   6.843   4.954   5.310 -0.3696  0.6793  0.4860
  770MOL0     H 3938   6.881   4.981   5.096 -0.7304  0.6872 -0.0971
  770MOL0     H 3939   6.941   5.134   5.123 -1.2106  1.2420  1.3953
  770MOL0     H 3940   6.938   5.058   4.874  0.2052  0.8865  0.5341
  770MOL0     H 3941   6.844   5.202   4.901  1.8091 -0.3145 -1.1767
  770MOL0     H 3942   6.638   5.052   4.855 -0.2129  0.6332  1.7781
  770MOL0     H 3943   6.740   4.918   4.912  1.2589 -0.9939 -1.6072
  770MOL0     H 3944   6.775   5.093   4.661  1.8385 -0.9827 -1.5819
  770MOL0     H 3945   6.856   4.942   4.690 -0.3795  0.8061 -2.4365
  770MOL0     H 3946   6.465   4.812   4.554 -1.4239  2.5076  0.8504
  770MOL0     H 3947   6.499   5.184   5.207  2.5482  1.4022 -1.1171
  770MOL0     H 3948   6.380   5.186   5.513  2.6085 -4.7583  1.4929
  770MOL0     H 3949   6.312   5.182   5.339  2.4110  0.9260 -1.5059
  770MOL0     H 3950   6.277   5.072   5.485 -0.6559 -0.0935  0.1915
  771MOL0     O 3951   0.791   1.774  11.477  0.1921 -0.7909 -0.0949
  771MOL0     C 3952   0.705   1.731  11.553  0.4940  0.0555 -0.2114
  771MOL0     O 3953   0.606   1.799  11.611  0.5689 -0.4088  0.9875
  771MOL0     C 3954   0.638   1.928  11.647 -0.0409 -0.3223  0.7538
  771MOL0     C 3955   0.619   2.032  11.557 -0.3385 -0.2843 -0.1315
  771MOL0     C 3956   0.663   2.165  11.591  0.0515 -0.6679 -0.9495
  771MOL0     C 3957   0.719   2.192  11.715  0.2644  0.0062 -0.2490
  771MOL0     O 3958   0.769   2.315  11.750 -0.1050 -1.0956  0.7706
  771MOL0     C 3959   0.782   2.415  11.647 -0.7663 -0.2710 -1.1863
  771MOL0     C 3960   0.821   2.542  11.734 -0.2049 -0.4806  0.6936
  771MOL0     C 3961   0.893   2.650  11.645  0.3388  0.8844  0.6429
  771MOL0     C 3962   1.044   2.634  11.639  0.9553  0.2352  0.2199
  771MOL0     C 3963   1.117   2.722  11.537 -0.2686  0.4989  0.3365
  771MOL0     C 3964   1.278   2.722  11.546  0.1118 -0.4717 -0.0697
  771MOL0     C 3965   1.319   2.578  11.513  0.4711 -0.3409 -0.4128
  771MOL0     C 3966   1.469   2.572  11.502 -0.0478  0.6025  0.3254
  771MOL0     N 3967   1.508   2.434  11.481  0.5438  0.0797 -0.1891
  771MOL0     C 3968   1.493   2.356  11.357 -0.6848 -0.5619 -0.2159
  771MOL0     C 3969   1.539   2.230  11.389 -0.6455  0.0396  0.7253
  771MOL0     C 3970   1.556   2.106  11.303 -0.3465 -0.4729 -0.4740
  771MOL0     C 3971   1.703   2.108  11.253 -0.2638  0.0465  0.8461
  771MOL0     C 3972   1.725   2.209  11.152 -0.3498 -0.1562 -0.4331
  771MOL0     C 3973   1.863   2.271  11.150  0.2386 -0.3016  0.6177
  771MOL0     O 3974   1.979   2.180  11.145  0.9587  0.3264 -0.0056
  771MOL0     C 3975   1.995   2.068  11.067  0.5944  0.6496 -0.1696
  771MOL0     C 3976   2.067   1.962  11.128  0.6026  0.4007 -0.4114
  771MOL0     C 3977   2.108   1.855  11.060 -0.2197  0.0796  0.1148
  771MOL0     C 3978   2.073   1.842  10.920 -0.1250  0.1780  0.8222
  771MOL0     C 3979   2.113   1.718  10.848  0.1297 -0.9398 -0.9084
  771MOL0     O 3980   2.180   1.628  10.921 -1.0019  0.3912 -0.2335
  771MOL0     C 3981   2.197   1.499  10.860 -0.4749 -0.9074  0.9497
  771MOL0     C 3982   2.313   1.480  10.777 -0.1362  0.4532 -0.2164
  771MOL0     C 3983   2.342   1.355  10.721  0.2720 -0.3290 -0.2914
  771MOL0     C 3984   2.258   1.254  10.753  0.3007  0.5612 -0.4007
  771MOL0     O 3985   2.269   1.140  10.683  0.1870 -0.2636 -0.2716
  771MOL0     C 3986   2.380   1.065  10.730 -1.3834  0.2349 -0.1096
  771MOL0     C 3987   2.404   0.940  10.638 -0.1517  0.1325 -0.3782
  771MOL0     C 3988   2.279   0.852  10.619  0.8450  0.2741 -0.1484
  771MOL0     C 3989   2.289   0.709  10.667 -0.1133  0.2007 -0.6624
  771MOL0     C 3990   2.155   0.638  10.697  0.5300 -0.2955 -0.2165
  771MOL0     C 3991   2.080   0.584  10.574  0.9196 -0.5811 -0.2616
  771MOL0     C 3992   1.949   0.521  10.618 -0.1510  0.3281  0.3363
  771MOL0     C 3993   1.872   0.473  10.503  0.0144 -0.5450 -0.5292
  771MOL0    Cl 3994   1.961   0.337  10.435  0.0670 -0.0667 -0.2855
  771MOL0     C 3995   2.149   1.259  10.835  0.6002 -0.0407  0.6343
  771MOL0     C 3996   2.115   1.388  10.890 -0.0015 -0.6931 -0.9553
  771MOL0     O 3997   2.094   1.717  10.725 -0.1342 -0.2890 -0.3076
  771MOL0     C 3998   2.001   1.946  10.854 -0.3850  0.1780 -0.4420
  771MOL0     C 3999   1.968   2.057  10.929  0.0848  0.0107 -0.6234
  771MOL0     N 4000   1.573   2.224  11.527  0.3407 -0.3128  0.7012
  771MOL0     N 4001   1.548   2.342  11.575  0.3421 -0.7603 -0.9552
  771MOL0     C 4002   0.734   2.081  11.808 -1.0364  0.7115  0.0852
  771MOL0     C 4003   0.700   1.949  11.768 -0.9358  0.6743  0.9567
  771MOL0     C 4004   0.686   1.592  11.569  0.0003  0.7186  0.0558
  771MOL0     C 4005   0.566   1.533  11.520 -0.5218  0.3202 -0.5832
  771MOL0     C 4006   0.554   1.389  11.514  0.1540 -0.7983  0.1931
  771MOL0     C 4007   0.654   1.305  11.543 -0.4522  0.5360  0.3753
  771MOL0     O 4008   0.627   1.166  11.532 -0.8864  0.1825 -0.0769
  771MOL0     C 4009   0.647   1.106  11.400 -0.2847  0.3772 -0.1082
  771MOL0     C 4010   0.518   1.056  11.351  0.3157 -0.0195  0.0614
  771MOL0     C 4011   0.441   0.963  11.435  0.2037 -0.1625  0.5449
  771MOL0     C 4012   0.354   0.864  11.367  0.4186 -0.2997 -0.2279
  771MOL0     C 4013   0.244   0.926  11.302  0.0612  0.0676 -0.8345
  771MOL0     C 4014   0.146   0.959  11.247 -0.3417  0.0257  0.6330
  771MOL0     C 4015   0.781   1.356  11.577 -0.4184 -0.0998  0.6797
  771MOL0     C 4016   0.800   1.501  11.585 -0.2222  0.4743 -0.4090
  771MOL0     C 4017   0.936   1.542  11.642 -0.1237  0.0770 -1.2537
  771MOL0     H 4018   0.588   2.027  11.453  1.5773 -1.4749 -0.7094
  771MOL0     H 4019   0.675   2.234  11.508 -0.1796 -1.6607 -1.8389
  771MOL0     H 4020   0.857   2.384  11.573  1.1102 -0.0291  0.5500
  771MOL0     H 4021   0.696   2.446  11.586  0.2584  3.3430 -1.0608
  771MOL0     H 4022   0.884   2.508  11.817 -0.0777  1.9636  1.7027
  771MOL0     H 4023   0.728   2.574  11.782 -1.1132 -1.5718 -0.2843
  771MOL0     H 4024   0.871   2.747  11.691 -4.2658 -0.1365  1.0649
  771MOL0     H 4025   0.860   2.650  11.541  0.8406  2.2147  0.4593
  771MOL0     H 4026   1.091   2.648  11.736  0.4620  2.0178  0.2424
  771MOL0     H 4027   1.066   2.531  11.610  1.3284  0.5606 -0.6975
  771MOL0     H 4028   1.079   2.690  11.440  1.3405 -2.7218  0.6358
  771MOL0     H 4029   1.088   2.825  11.558 -1.9522 -0.1581  1.4499
  771MOL0     H 4030   1.333   2.790  11.480 -0.6370  1.3283  1.0742
  771MOL0     H 4031   1.304   2.760  11.645 -0.4776  1.7201 -0.7000
  771MOL0     H 4032   1.276   2.542  11.419  0.9323 -0.0536 -0.7407
  771MOL0     H 4033   1.284   2.520  11.599  1.9304 -0.7143 -0.0444
  771MOL0     H 4034   1.487   2.622  11.406 -1.2811 -1.3776 -1.0244
  771MOL0     H 4035   1.529   2.613  11.583 -0.3557  0.0958  0.8175
  771MOL0     H 4036   1.452   2.377  11.260  1.0092 -3.2376 -1.6557
  771MOL0     H 4037   1.530   2.020  11.366  3.0064 -1.1453  0.1786
  771MOL0     H 4038   1.500   2.087  11.211  0.3080 -1.8085 -0.6219
  771MOL0     H 4039   1.772   2.139  11.332  0.1752  2.3670 -0.3548
  771MOL0     H 4040   1.728   2.011  11.208 -0.6497  0.0975  0.5206
  771MOL0     H 4041   1.660   2.294  11.176 -0.6367 -0.7053  0.7847
  771MOL0     H 4042   1.703   2.159  11.057  1.4667 -2.3979  0.2473
  771MOL0     H 4043   1.868   2.332  11.240  2.6418 -0.0835  0.3841
  771MOL0     H 4044   1.874   2.340  11.065  0.0357 -3.0667 -1.8385
  771MOL0     H 4045   2.096   1.963  11.233  0.3931 -2.2657 -0.2672
  771MOL0     H 4046   2.162   1.783  11.120 -0.9659 -0.1138  0.5705
  771MOL0     H 4047   2.380   1.563  10.752  3.5889 -2.4595 -0.8398
  771MOL0     H 4048   2.428   1.358  10.654  0.8228  2.2048  0.4068
  771MOL0     H 4049   2.472   1.122  10.738 -2.4586  2.0944 -0.3537
  771MOL0     H 4050   2.348   1.030  10.829 -1.7647  0.2497 -0.2270
  771MOL0     H 4051   2.439   0.976  10.541 -0.3754 -3.0123 -1.7394
  771MOL0     H 4052   2.491   0.881  10.667  0.8544  0.6141 -2.2562
  771MOL0     H 4053   2.201   0.896  10.683  1.8371 -1.3776  2.3707
  771MOL0     H 4054   2.256   0.845  10.512 -0.9015 -1.2023  0.2689
  771MOL0     H 4055   2.357   0.708  10.753 -3.1185  2.6952  1.9926
  771MOL0     H 4056   2.330   0.653  10.583  0.9482  0.4781 -0.3451
  771MOL0     H 4057   2.087   0.710  10.743  1.5139  0.5465 -0.0458
  771MOL0     H 4058   2.167   0.557  10.769  0.6117 -0.2860 -0.2187
  771MOL0     H 4059   2.056   0.658  10.496 -2.2935 -1.1625  0.0509
  771MOL0     H 4060   2.144   0.512  10.522 -0.3164 -0.6130 -1.8181
  771MOL0     H 4061   1.896   0.600  10.672  0.6090  0.2435  1.2460
  771MOL0     H 4062   1.970   0.438  10.685  3.5710  2.1318  1.6937
  771MOL0     H 4063   1.776   0.442  10.545 -0.3982 -0.0744 -1.1010
  771MOL0     H 4064   1.850   0.553  10.433 -1.9575  0.0359  0.6969
  771MOL0     H 4065   2.094   1.166  10.840 -2.7741  1.5495 -2.3952
  771MOL0     H 4066   2.030   1.403  10.956 -1.2804 -1.0008 -2.4603
  771MOL0     H 4067   1.991   1.961  10.747  0.9750  2.2354 -0.3482
  771MOL0     H 4068   1.924   2.133  10.864 -0.2020  0.6301  0.2703
  771MOL0     H 4069   0.762   2.088  11.913  1.7081 -0.1459 -0.5279
  771MOL0     H 4070   0.711   1.863  11.833 -0.1160 -0.1568 -0.2197
  771MOL0     H 4071   0.481   1.598  11.500 -0.1363  1.8905  2.3384
  771MOL0     H 4072   0.454   1.354  11.490 -1.6940  1.6405  3.6076
  771MOL0     H 4073   0.722   1.026  11.398 -1.4255 -0.7798 -3.3897
  771MOL0     H 4074   0.692   1.178  11.331  1.9501 -0.3956  0.4389
  771MOL0     H 4075   0.521   0.999  11.257  1.1773 -0.9982  0.6485
  771MOL0     H 4076   0.465   1.151  11.339  1.9290  1.3317  2.7733
  771MOL0     H 4077   0.393   1.025  11.511 -1.8835 -1.1223  0.0975
  771MOL0     H 4078   0.525   0.909  11.479  0.3342 -0.8325 -0.4852
  771MOL0     H 4079   0.417   0.807  11.298 -0.8861 -3.3057  0.9422
  771MOL0     H 4080   0.319   0.791  11.439  0.1804  3.0241  3.3646
  771MOL0     H 4081   0.048   0.990  11.218 -0.1186  0.5683  0.4354
  771MOL0     H 4082   0.863   1.289  11.596  1.1309  1.2932 -0.7365
  771MOL0     H 4083   0.987   1.615  11.579 -0.0351  0.5932 -0.5970
  771MOL0     H 4084   0.913   1.595  11.735  2.0756 -1.6040  0.3712
  771MOL0     H 4085   0.988   1.456  11.686 -1.3004  0.4677  1.0837
  772MOL0     O 4086   1.737   2.312   6.495  0.1254 -0.2479  0.3036
  772MOL0     C 4087   1.710   2.397   6.576  0.5135 -0.3398  0.4145
  772MOL0     O 4088   1.804   2.463   6.656 -0.1809  0.0041  0.6391
  772MOL0     C 4089   1.932   2.446   6.627  0.0708  0.5188  1.4865
  772MOL0     C 4090   2.000   2.526   6.528  0.7239 -0.6360 -0.1298
  772MOL0     C 4091   2.127   2.492   6.482  0.0415  0.3540  0.1855
  772MOL0     C 4092   2.184   2.376   6.536  0.5877  0.0523 -1.2428
  772MOL0     O 4093   2.308   2.336   6.505 -0.5917  0.2426 -0.0097
  772MOL0     C 4094   2.331   2.226   6.416  0.5032  0.1257 -1.0606
  772MOL0     C 4095   2.450   2.143   6.466  0.3075 -0.2537  0.5049
  772MOL0     C 4096   2.453   2.098   6.610 -0.5595  0.3144  0.1213
  772MOL0     C 4097   2.588   2.091   6.679  0.2069  0.2323 -0.5814
  772MOL0     C 4098   2.669   1.969   6.636 -0.1453  0.4849  0.3963
  772MOL0     C 4099   2.807   1.982   6.706 -0.4397  0.1431 -1.0559
  772MOL0     C 4100   2.882   1.846   6.699  0.0243  0.9192  0.3227
  772MOL0     C 4101   2.951   1.814   6.565  0.3889 -0.7461 -0.3075
  772MOL0     N 4102   3.083   1.889   6.559 -0.2415 -0.2285  0.1534
  772MOL0     C 4103   3.130   1.967   6.457  0.0744  0.5958  0.0886
  772MOL0     C 4104   3.265   1.988   6.485  0.0422  0.0709  0.3966
  772MOL0     C 4105   3.358   2.037   6.380 -0.4078  0.0383 -0.2460
  772MOL0     C 4106   3.330   2.162   6.286  0.7734  0.2453  0.0789
  772MOL0     C 4107   3.420   2.160   6.159 -1.2703  0.1079 -0.7535
  772MOL0     C 4108   3.535   2.267   6.156  0.2810  0.0580  0.7272
  772MOL0     O 4109   3.617   2.231   6.035  0.0521 -0.4988 -0.7973
  772MOL0     C 4110   3.681   2.324   5.959  0.0720 -0.9332  0.8859
  772MOL0     C 4111   3.706   2.447   6.019 -0.5391  0.1867 -0.0103
  772MOL0     C 4112   3.782   2.541   5.940 -0.4892  0.2410  0.8208
  772MOL0     C 4113   3.806   2.527   5.808 -0.5885  0.5257 -0.0807
  772MOL0     C 4114   3.889   2.628   5.740  0.0178  0.5780  1.0971
  772MOL0     O 4115   3.906   2.617   5.601  0.2552  0.2126 -0.0210
  772MOL0     C 4116   3.968   2.710   5.517 -0.1016 -0.7071  0.3178
  772MOL0     C 4117   4.057   2.663   5.417  0.9672 -0.0781 -0.8050
  772MOL0     C 4118   4.104   2.748   5.320  0.0910 -0.3547  0.1594
  772MOL0     C 4119   4.074   2.882   5.311  0.2808  0.3602  0.2075
  772MOL0     O 4120   4.126   2.951   5.204 -0.4606 -0.3699  0.2385
  772MOL0     C 4121   4.147   3.087   5.232 -0.3733 -0.5891 -0.7821
  772MOL0     C 4122   4.237   3.158   5.129  0.2930 -0.0048 -0.2389
  772MOL0     C 4123   4.377   3.105   5.126 -0.2604  0.2315  0.5985
  772MOL0     C 4124   4.488   3.220   5.097 -0.3345  0.2622 -0.0276
  772MOL0     C 4125   4.638   3.178   5.077  0.6027 -0.7400  0.0533
  772MOL0     C 4126   4.667   3.051   5.005  0.2328 -0.3741  0.9278
  772MOL0     C 4127   4.613   3.053   4.859  0.2357 -0.4544 -1.4033
  772MOL0     C 4128   4.662   2.936   4.782  0.3774 -1.1954 -0.2234
  772MOL0    Cl 4129   4.661   2.777   4.862  0.1036  0.2261 -0.4686
  772MOL0     C 4130   3.994   2.934   5.415 -0.4424  0.1220 -0.1091
  772MOL0     C 4131   3.946   2.854   5.517  0.4040  0.5950 -0.6270
  772MOL0     O 4132   3.946   2.713   5.812  0.7160  0.2565 -0.6629
  772MOL0     C 4133   3.779   2.407   5.742 -0.4640 -0.1687  0.4348
  772MOL0     C 4134   3.712   2.306   5.821 -0.0028 -1.1654  0.0638
  772MOL0     N 4135   3.300   1.909   6.590 -1.2498  0.1700 -0.5954
  772MOL0     N 4136   3.192   1.852   6.633  0.5379 -0.7496 -0.0083
  772MOL0     C 4137   2.117   2.302   6.640  0.7436  0.0953  0.2028
  772MOL0     C 4138   1.991   2.337   6.678  0.0122 -0.1628 -0.0499
  772MOL0     C 4139   1.570   2.448   6.588 -0.3452  0.0649 -0.3446
  772MOL0     C 4140   1.563   2.585   6.615 -0.1889 -0.0014  0.0016
  772MOL0     C 4141   1.447   2.640   6.642  0.1588  0.0988 -0.2351
  772MOL0     C 4142   1.324   2.566   6.625 -0.3405 -0.4650 -0.5056
  772MOL0     O 4143   1.203   2.617   6.651  0.7775  0.1289 -0.3335
  772MOL0     C 4144   1.191   2.747   6.711  0.3171  0.0829  0.7029
  772MOL0     C 4145   1.047   2.787   6.756 -1.1293  1.0350  1.0840
  772MOL0     C 4146   0.931   2.729   6.668 -0.2030  0.1547 -0.3954
  772MOL0     C 4147   0.949   2.789   6.532 -0.3845 -0.5008  0.2400
  772MOL0     C 4148   0.850   2.756   6.431  0.9805  0.3710  0.9537
  772MOL0     C 4149   0.768   2.717   6.346 -0.0591  0.0557  0.0593
  772MOL0     C 4150   1.332   2.432   6.596 -0.4121  0.0144 -0.1921
  772MOL0     C 4151   1.456   2.366   6.576 -0.5500 -0.0549 -0.2927
  772MOL0     C 4152   1.462   2.221   6.551 -0.9340  0.6833 -0.2232
  772MOL0     H 4153   1.955   2.619   6.493  0.8856 -0.1610  0.8801
  772MOL0     H 4154   2.176   2.551   6.406 -3.8878  0.1663 -2.8034
  772MOL0     H 4155   2.241   2.164   6.417 -0.5967  1.5551  2.5528
  772MOL0     H 4156   2.342   2.281   6.322  0.1245  1.3931 -0.3846
  772MOL0     H 4157   2.544   2.198   6.449 -0.1783  0.0640 -1.3703
  772MOL0     H 4158   2.451   2.052   6.406  2.9146  0.2634 -0.3946
  772MOL0     H 4159   2.393   2.006   6.606 -1.5360  0.9098 -3.7523
  772MOL0     H 4160   2.393   2.163   6.674  0.0290  1.5604 -0.5589
  772MOL0     H 4161   2.647   2.183   6.674 -2.8238  2.2513 -2.0591
  772MOL0     H 4162   2.562   2.089   6.785 -0.0638 -0.8383 -0.6604
  772MOL0     H 4163   2.614   1.876   6.651  0.8807 -0.5389 -1.7583
  772MOL0     H 4164   2.687   1.990   6.530  0.0262  0.6568  0.4587
  772MOL0     H 4165   2.868   2.057   6.655 -0.2409 -1.0181 -2.6027
  772MOL0     H 4166   2.778   2.019   6.805 -2.3274  0.5871 -1.7240
  772MOL0     H 4167   2.811   1.768   6.727  0.0405  1.1465  1.0207
  772MOL0     H 4168   2.957   1.844   6.779 -1.4623 -0.6952  1.7691
  772MOL0     H 4169   2.982   1.710   6.569  2.4885 -0.1606 -0.5113
  772MOL0     H 4170   2.891   1.835   6.476 -0.0323  1.9204  0.4968
  772MOL0     H 4171   3.078   1.991   6.364 -1.7834 -1.1019  0.6341
  772MOL0     H 4172   3.453   2.054   6.431 -1.6980  0.2582  2.2634
  772MOL0     H 4173   3.367   1.949   6.315  2.8076  0.4929 -0.5886
  772MOL0     H 4174   3.229   2.173   6.246  1.2481  1.1124 -0.9169
  772MOL0     H 4175   3.358   2.256   6.335 -1.3832  0.7103  0.5329
  772MOL0     H 4176   3.353   2.178   6.075 -3.5422  0.9111  1.1142
  772MOL0     H 4177   3.477   2.067   6.153  1.2050  1.5414 -1.0046
  772MOL0     H 4178   3.597   2.265   6.246  1.9699  2.1882 -0.2904
  772MOL0     H 4179   3.490   2.366   6.159  0.7459  0.3506 -0.7581
  772MOL0     H 4180   3.672   2.473   6.118  2.0983 -0.7052  1.2219
  772MOL0     H 4181   3.799   2.638   5.985  0.5707 -0.4490  1.9591
  772MOL0     H 4182   4.073   2.557   5.405 -3.0082 -0.6347 -2.6810
  772MOL0     H 4183   4.163   2.713   5.236  0.3736 -2.5121  1.2026
  772MOL0     H 4184   4.045   3.128   5.229  0.2844  1.1097 -2.1955
  772MOL0     H 4185   4.189   3.115   5.329 -0.1376  0.8326 -1.2712
  772MOL0     H 4186   4.196   3.145   5.029  2.3382 -2.0703 -0.9223
  772MOL0     H 4187   4.254   3.264   5.148  3.2807 -0.8553  2.8360
  772MOL0     H 4188   4.391   3.045   5.217  1.2579  1.9614  1.5627
  772MOL0     H 4189   4.383   3.029   5.047  0.9723 -0.4170  1.2879
  772MOL0     H 4190   4.499   3.309   5.159  2.6635  0.8448 -1.2205
  772MOL0     H 4191   4.467   3.260   4.997  0.7129  2.1550  0.4557
  772MOL0     H 4192   4.681   3.165   5.177  2.2722  2.1863 -0.1757
  772MOL0     H 4193   4.696   3.254   5.025 -1.2413  1.8238  1.5246
  772MOL0     H 4194   4.775   3.036   5.006 -0.0322 -2.7630  1.6793
  772MOL0     H 4195   4.622   2.967   5.059 -1.8073 -0.7627 -1.2113
  772MOL0     H 4196   4.666   3.133   4.807  1.5523 -1.4432 -1.6394
  772MOL0     H 4197   4.504   3.061   4.869  0.4074  1.2482 -0.3791
  772MOL0     H 4198   4.612   2.931   4.685 -1.9865 -0.6270  0.8968
  772MOL0     H 4199   4.767   2.960   4.762  0.4765 -0.9275  0.5898
  772MOL0     H 4200   3.977   3.041   5.411 -0.8844  0.0519 -0.1282
  772MOL0     H 4201   3.890   2.888   5.603  1.2024 -0.8624  0.5268
  772MOL0     H 4202   3.794   2.393   5.635  1.4346 -2.2455  0.8843
  772MOL0     H 4203   3.688   2.209   5.778  0.9674 -1.5155  0.2923
  772MOL0     H 4204   2.160   2.219   6.695  2.5042 -0.7757 -2.2947
  772MOL0     H 4205   1.937   2.284   6.755  1.7073 -2.2257 -0.1992
  772MOL0     H 4206   1.656   2.640   6.622 -0.5188  0.4970  0.4850
  772MOL0     H 4207   1.459   2.746   6.662 -1.4661  0.4439 -0.9185
  772MOL0     H 4208   1.220   2.829   6.645 -3.9926 -0.6302 -2.5139
  772MOL0     H 4209   1.243   2.745   6.808 -2.9002  1.0344  2.5983
  772MOL0     H 4210   1.053   2.896   6.765  0.6896  0.9781  0.8546
  772MOL0     H 4211   1.051   2.749   6.858 -0.5416 -0.0361  0.6811
  772MOL0     H 4212   0.833   2.770   6.695  1.1182  2.0143  2.0864
  772MOL0     H 4213   0.933   2.620   6.659  0.1867 -0.1196  2.0574
  772MOL0     H 4214   0.938   2.896   6.554 -2.8405 -1.1339  2.7461
  772MOL0     H 4215   1.043   2.754   6.488 -1.3368  0.8380 -3.1044
  772MOL0     H 4216   0.700   2.686   6.269  1.2489  0.8994 -1.5061
  772MOL0     H 4217   1.241   2.374   6.600 -0.8537  0.3658 -3.1111
  772MOL0     H 4218   1.370   2.172   6.586 -0.7889 -0.7466 -1.7515
  772MOL0     H 4219   1.459   2.210   6.443  0.4992  2.0603 -0.4462
  772MOL0     H 4220   1.551   2.172   6.592 -1.9130 -0.4757  0.6165
  773MOL0     O 4221   6.459  10.168   9.680  0.9009  0.0039  0.0242
  773MOL0     C 4222   6.395  10.259   9.633  0.1502 -0.4827  0.3536
  773MOL0     O 4223   6.321  10.356   9.704  0.1469  0.2244 -0.2184
  773MOL0     C 4224   6.270  10.307   9.821  0.2704 -0.0432  0.9306
  773MOL0     C 4225   6.264  10.389   9.937  0.8900 -0.1137  1.2972
  773MOL0     C 4226   6.206  10.346  10.053  0.7091 -0.8737  0.7628
  773MOL0     C 4227   6.139  10.222  10.070 -0.5133  0.2651 -0.0432
  773MOL0     O 4228   6.079  10.181  10.185  0.0883  0.0091 -0.9973
  773MOL0     C 4229   6.019  10.277  10.277  1.1573  0.1537  0.2158
  773MOL0     C 4230   6.132  10.334  10.367  0.0361 -1.1731 -0.0123
  773MOL0     C 4231   6.067  10.448  10.442  0.1125 -0.0823  0.4474
  773MOL0     C 4232   6.164  10.517  10.531  0.3862  0.1229 -0.0880
  773MOL0     C 4233   6.114  10.649  10.572  0.6957  0.0986  0.6511
  773MOL0     C 4234   6.179  10.698  10.707 -0.2702 -0.7302 -0.2785
  773MOL0     C 4235   6.125  10.837  10.765  0.0655  0.3892  1.3208
  773MOL0     C 4236   6.195  10.867  10.888 -0.0903 -0.2615 -1.5209
  773MOL0     N 4237   6.154  10.994  10.947 -0.5709  0.0824  0.5400
  773MOL0     C 4238   6.187  11.112  10.884 -1.1838  0.0306  0.3378
  773MOL0     C 4239   6.133  11.209  10.957 -0.6211 -0.0672 -0.0518
  773MOL0     C 4240   6.162  11.354  10.952  0.5583  0.7424 -0.5319
  773MOL0     C 4241   6.087  11.439  11.065 -0.5021  0.1558 -0.3736
  773MOL0     C 4242   6.126  11.587  11.079  0.3378  0.7127  0.7820
  773MOL0     C 4243   6.051  11.658  10.966 -0.1006 -0.2856 -0.9445
  773MOL0     O 4244   6.110  11.650  10.833  0.9532 -0.5396 -0.6257
  773MOL0     C 4245   6.025  11.654  10.724  0.3803 -0.2851 -0.1782
  773MOL0     C 4246   5.902  11.720  10.725 -0.0918 -1.2201  1.4243
  773MOL0     C 4247   5.810  11.721  10.613  0.0118 -0.0762  0.1655
  773MOL0     C 4248   5.852  11.653  10.492  0.2805 -0.1219 -1.5109
  773MOL0     C 4249   5.766  11.654  10.380 -0.0917 -0.9256  0.1137
  773MOL0     O 4250   5.636  11.684  10.409  0.1789  0.4488  0.9358
  773MOL0     C 4251   5.571  11.750  10.311  0.6723  0.6057 -0.2774
  773MOL0     C 4252   5.603  11.881  10.278  0.0722  0.0588  0.8605
  773MOL0     C 4253   5.525  11.956  10.193 -0.1237 -0.3779  0.6670
  773MOL0     C 4254   5.414  11.903  10.129  0.3551  0.7991 -0.4695
  773MOL0     O 4255   5.363  11.987  10.036  0.0411 -1.2580  0.0811
  773MOL0     C 4256   5.284  11.925   9.930  0.8196  0.5263  0.3612
  773MOL0     C 4257   5.133  11.954   9.962 -0.4655 -0.0507  0.5413
  773MOL0     C 4258   5.094  12.106   9.977 -0.2450  0.7114  0.2636
  773MOL0     C 4259   4.937  12.122   9.966  0.0845  0.7377 -0.2553
  773MOL0     C 4260   4.854  12.187  10.089 -0.0655 -0.2712 -0.1058
  773MOL0     C 4261   4.702  12.157  10.062 -0.0889  0.0455  0.5214
  773MOL0     C 4262   4.631  12.261   9.976  0.3881 -0.1918  1.2206
  773MOL0     C 4263   4.579  12.383  10.052 -1.0998  0.5662  0.0083
  773MOL0    Cl 4264   4.420  12.343  10.111 -0.2292  0.4391 -0.2134
  773MOL0     C 4265   5.369  11.773  10.166 -0.1564 -0.4939  0.3482
  773MOL0     C 4266   5.446  11.699  10.260 -0.4410  0.1760  0.2644
  773MOL0     O 4267   5.820  11.662  10.272 -0.6337  0.3988 -0.0364
  773MOL0     C 4268   5.983  11.597  10.488  0.4787 -0.5904 -0.3609
  773MOL0     C 4269   6.062  11.600  10.604  0.0273 -0.0129  0.3112
  773MOL0     N 4270   6.067  11.153  11.065  0.2232  0.3976 -0.1006
  773MOL0     N 4271   6.088  11.023  11.058  0.5140  0.4668 -0.5099
  773MOL0     C 4272   6.146  10.134   9.961  0.3693  0.3666  0.6330
  773MOL0     C 4273   6.211  10.178   9.837  0.9897  0.2316 -0.6613
  773MOL0     C 4274   6.407  10.277   9.486  0.0449  0.9886 -0.7873
  773MOL0     C 4275   6.522  10.230   9.417  0.0927 -0.2534 -0.7633
  773MOL0     C 4276   6.534  10.234   9.282 -0.0346  0.1827 -1.5567
  773MOL0     C 4277   6.436  10.307   9.213  0.6026 -0.0605  0.4118
  773MOL0     O 4278   6.420  10.333   9.081 -0.1284 -1.0256  0.3759
  773MOL0     C 4279   6.505  10.270   8.984  0.0765  0.2127  0.4218
  773MOL0     C 4280   6.602  10.368   8.898  0.5312 -0.4170  0.7175
  773MOL0     C 4281   6.699  10.448   8.981 -0.4200 -0.1340  0.3390
  773MOL0     C 4282   6.639  10.596   9.003 -0.6180  0.9137  0.8070
  773MOL0     C 4283   6.637  10.678   8.884  0.1748 -0.7083 -0.4030
  773MOL0     C 4284   6.624  10.740   8.777 -0.9431 -0.3294 -0.0299
  773MOL0     C 4285   6.323  10.351   9.271  0.5640  0.7632  0.0356
  773MOL0     C 4286   6.301  10.341   9.408 -0.6878 -0.9236  0.2836
  773MOL0     C 4287   6.180  10.408   9.461 -0.9927  0.3967 -0.1011
  773MOL0     H 4288   6.307  10.488   9.928 -1.3069  0.8820  1.1696
  773MOL0     H 4289   6.215  10.427  10.125  1.1802  1.4247 -1.6822
  773MOL0     H 4290   5.978  10.351  10.208 -2.7484 -2.8973 -1.1651
  773MOL0     H 4291   5.938  10.244  10.343  3.0082  1.2184  3.2750
  773MOL0     H 4292   6.225  10.358  10.314  0.6298 -1.4027  0.9038
  773MOL0     H 4293   6.157  10.266  10.449  1.5981  0.1701  0.6722
  773MOL0     H 4294   5.982  10.415  10.502  0.4809  2.9003  2.8584
  773MOL0     H 4295   6.026  10.519  10.370 -3.0312 -0.8456  1.3411
  773MOL0     H 4296   6.167  10.455  10.621 -0.4407 -0.0889 -0.1990
  773MOL0     H 4297   6.265  10.524  10.489 -0.7515  1.9846 -2.8059
  773MOL0     H 4298   6.128  10.728  10.498  1.1167  0.3551  0.9975
  773MOL0     H 4299   6.005  10.643  10.584  0.6327  1.0230  0.6107
  773MOL0     H 4300   6.166  10.637  10.797 -6.4361  2.3423  1.4826
  773MOL0     H 4301   6.286  10.699  10.685 -0.5546  0.6331 -1.8272
  773MOL0     H 4302   6.018  10.818  10.777 -0.8128  2.9732 -1.1318
  773MOL0     H 4303   6.138  10.916  10.690 -0.5138 -0.6187  0.1169
  773MOL0     H 4304   6.174  10.794  10.967  0.7170 -0.7348 -1.7362
  773MOL0     H 4305   6.303  10.861  10.875 -0.2067 -1.9280 -1.9763
  773MOL0     H 4306   6.253  11.117  10.799 -3.4367 -0.7718 -1.5729
  773MOL0     H 4307   6.268  11.380  10.962  1.0982 -1.3151 -0.3550
  773MOL0     H 4308   6.131  11.391  10.854  2.7348  0.2380 -1.4821
  773MOL0     H 4309   5.980  11.428  11.046 -0.7927 -0.4534  1.4658
  773MOL0     H 4310   6.106  11.388  11.160 -2.2922  2.0990  1.1290
  773MOL0     H 4311   6.232  11.599  11.055  0.2144 -1.1767 -0.8962
  773MOL0     H 4312   6.096  11.638  11.171 -1.6123  0.0299  0.5704
  773MOL0     H 4313   6.051  11.760  11.007  0.7804 -1.3252  1.9164
  773MOL0     H 4314   5.946  11.629  10.974 -0.2008  0.3260  0.2529
  773MOL0     H 4315   5.876  11.786  10.807  0.5280 -0.3011  0.9040
  773MOL0     H 4316   5.716  11.771  10.630 -1.5753 -2.3378 -1.4093
  773MOL0     H 4317   5.691  11.925  10.324 -0.1571 -1.2694  2.6691
  773MOL0     H 4318   5.570  12.051  10.166 -1.2800 -0.3457 -1.4068
  773MOL0     H 4319   5.309  11.961   9.830 -1.6881 -1.9419 -1.2784
  773MOL0     H 4320   5.278  11.817   9.919  2.2939  0.6335 -2.0850
  773MOL0     H 4321   5.088  11.920   9.868  4.3680 -4.4134 -0.6514
  773MOL0     H 4322   5.095  11.894  10.045 -0.3468 -0.8575  0.0163
  773MOL0     H 4323   5.122  12.141  10.077 -1.6035  3.0289 -0.0909
  773MOL0     H 4324   5.138  12.164   9.896  0.2215  0.2925  0.2066
  773MOL0     H 4325   4.884  12.029   9.944 -2.0422  1.8881 -0.2433
  773MOL0     H 4326   4.916  12.184   9.879  1.7593  0.6073 -0.7937
  773MOL0     H 4327   4.880  12.293  10.094  3.4805 -1.0897  4.0236
  773MOL0     H 4328   4.882  12.164  10.192 -0.2376 -0.2843 -0.0597
  773MOL0     H 4329   4.698  12.058  10.016  1.2813 -2.5159  5.2262
  773MOL0     H 4330   4.651  12.148  10.158  0.7396  0.2751  1.0031
  773MOL0     H 4331   4.548  12.213   9.923  0.3166 -0.3808  1.5016
  773MOL0     H 4332   4.711  12.294   9.909 -1.1092 -0.8696 -0.9799
  773MOL0     H 4333   4.646  12.402  10.136 -2.2007  0.6551  0.8885
  773MOL0     H 4334   4.568  12.471   9.989  1.2823  3.6051  3.4562
  773MOL0     H 4335   5.280  11.729  10.123 -0.8269  0.2177  0.9970
  773MOL0     H 4336   5.406  11.602  10.290 -1.3067  1.5176  3.9472
  773MOL0     H 4337   6.013  11.543  10.399 -0.2298 -0.1961 -0.8573
  773MOL0     H 4338   6.155  11.546  10.588  0.0116  0.1483 -0.3312
  773MOL0     H 4339   6.118  10.029   9.963  0.6822  0.2477 -0.5677
  773MOL0     H 4340   6.211  10.113   9.750  2.3386 -0.7050  0.0054
  773MOL0     H 4341   6.593  10.182   9.484 -0.7961  1.3203  1.4116
  773MOL0     H 4342   6.628  10.198   9.241  0.9148  0.2132  0.4601
  773MOL0     H 4343   6.441  10.200   8.930 -1.0764  0.0397  1.9758
  773MOL0     H 4344   6.570  10.197   9.033 -3.5626 -3.2237  0.6050
  773MOL0     H 4345   6.534  10.439   8.851 -0.7780 -2.1718 -0.1569
  773MOL0     H 4346   6.650  10.310   8.819  0.3315 -0.8158  0.8833
  773MOL0     H 4347   6.788  10.466   8.920 -1.2049  1.5522 -0.3690
  773MOL0     H 4348   6.728  10.401   9.076  1.6412  2.5573  1.1865
  773MOL0     H 4349   6.541  10.583   9.049 -0.7279 -1.1568  0.0885
  773MOL0     H 4350   6.707  10.641   9.075  4.4162 -2.6987 -1.0759
  773MOL0     H 4351   6.594  10.802   8.694  1.6006  1.0617 -0.0026
  773MOL0     H 4352   6.239  10.397   9.220 -0.9670  0.0490  1.8147
  773MOL0     H 4353   6.127  10.360   9.544  0.1647 -0.7513  0.0043
  773MOL0     H 4354   6.200  10.503   9.511 -1.2797 -1.1837  3.3520
  773MOL0     H 4355   6.103  10.428   9.385 -1.8446  0.6312  0.7899
  774MOL0     O 4356   4.463   8.280   6.071  0.1387 -0.5682 -0.3448
  774MOL0     C 4357   4.464   8.195   6.160 -0.2801 -0.5704 -0.3427
  774MOL0     O 4358   4.560   8.096   6.159 -0.1419  0.2998  0.0257
  774MOL0     C 4359   4.690   8.128   6.115  0.4508 -0.2599  0.5054
  774MOL0     C 4360   4.761   8.224   6.181 -0.5668 -0.8516  0.2001
  774MOL0     C 4361   4.890   8.247   6.147 -0.5802  0.7856  0.5105
  774MOL0     C 4362   4.950   8.188   6.041 -0.3534  0.1964  0.0602
  774MOL0     O 4363   5.074   8.223   6.015 -0.0580 -0.9074  0.2339
  774MOL0     C 4364   5.171   8.121   5.989  0.6230 -0.3552  0.2663
  774MOL0     C 4365   5.312   8.183   5.971 -0.7533 -0.2247  0.0927
  774MOL0     C 4366   5.404   8.062   6.005 -0.8523  0.0725 -0.1078
  774MOL0     C 4367   5.548   8.101   6.005 -1.0274  0.8620 -0.1060
  774MOL0     C 4368   5.641   7.979   6.025 -0.0225 -0.3862 -0.0592
  774MOL0     C 4369   5.613   7.882   6.136  0.6626 -0.5202 -0.0111
  774MOL0     C 4370   5.717   7.765   6.151  0.2552  0.3673  0.3092
  774MOL0     C 4371   5.802   7.785   6.282  1.1151 -0.1284 -0.5080
  774MOL0     N 4372   5.716   7.790   6.399  0.1484 -0.5716  0.3990
  774MOL0     C 4373   5.667   7.684   6.471  0.5195 -0.7541 -0.3578
  774MOL0     C 4374   5.587   7.742   6.566  0.2398  0.4425  0.0733
  774MOL0     C 4375   5.540   7.678   6.693  0.0373 -0.2970 -0.9204
  774MOL0     C 4376   5.654   7.655   6.792 -0.3467 -0.5997 -1.0347
  774MOL0     C 4377   5.725   7.785   6.842  0.2729 -0.2449  0.2608
  774MOL0     C 4378   5.647   7.874   6.935  0.3897  0.3822 -0.0168
  774MOL0     O 4379   5.725   7.952   7.023  0.0050 -0.3831  0.3139
  774MOL0     C 4380   5.787   8.059   6.968  0.6338 -0.4908 -0.6646
  774MOL0     C 4381   5.885   8.121   7.047  0.3608  0.2157  0.4038
  774MOL0     C 4382   5.966   8.222   7.001  0.9345  0.5201 -0.8015
  774MOL0     C 4383   5.942   8.273   6.880  0.4596 -0.2251  0.5315
  774MOL0     C 4384   6.013   8.389   6.826 -0.0564 -0.2690 -0.5833
  774MOL0     O 4385   6.040   8.489   6.923  0.4874  1.3029 -0.6560
  774MOL0     C 4386   6.097   8.611   6.895  0.2973 -0.0959  0.1476
  774MOL0     C 4387   6.071   8.701   6.787  0.3811 -0.4957 -0.3289
  774MOL0     C 4388   6.148   8.819   6.778  0.5570  0.2463 -0.0448
  774MOL0     C 4389   6.254   8.853   6.864 -0.0639  0.3675 -0.7282
  774MOL0     O 4390   6.323   8.967   6.826  0.4026  0.2459 -0.0737
  774MOL0     C 4391   6.454   8.984   6.862 -0.4531  0.4010  0.3839
  774MOL0     C 4392   6.465   9.048   7.011 -0.5999  0.3515  0.9690
  774MOL0     C 4393   6.581   9.157   7.025 -0.3058  0.2063  0.1264
  774MOL0     C 4394   6.575   9.216   7.171 -0.1961 -0.3161  0.8343
  774MOL0     C 4395   6.664   9.332   7.204  0.2082 -0.1672 -0.6295
  774MOL0     C 4396   6.810   9.301   7.200  0.2399  0.2102  0.0853
  774MOL0     C 4397   6.879   9.438   7.227  0.2446  0.6592 -0.6471
  774MOL0     C 4398   7.023   9.416   7.226  0.3743  0.1347  0.0286
  774MOL0    Cl 4399   7.064   9.415   7.049 -0.2152  0.1695  0.3459
  774MOL0     C 4400   6.282   8.770   6.970  0.6858  0.3202  0.5730
  774MOL0     C 4401   6.200   8.656   6.983  0.1078  0.2075 -0.7019
  774MOL0     O 4402   6.032   8.404   6.706  0.0351 -0.3183 -0.4620
  774MOL0     C 4403   5.853   8.213   6.789  0.4644 -0.3258  0.1680
  774MOL0     C 4404   5.772   8.105   6.832  1.0964  0.0587  0.3098
  774MOL0     N 4405   5.579   7.876   6.540 -0.9180 -1.0822  0.0532
  774MOL0     N 4406   5.668   7.905   6.452 -0.1464 -0.5226  0.3755
  774MOL0     C 4407   4.880   8.090   5.970  0.0565 -1.0068  1.2255
  774MOL0     C 4408   4.745   8.055   6.013 -0.0992  0.4580 -1.3127
  774MOL0     C 4409   4.350   8.209   6.258  0.0074 -0.2490 -0.0951
  774MOL0     C 4410   4.249   8.306   6.234 -0.2211  0.2543  0.6638
  774MOL0     C 4411   4.158   8.336   6.329  0.7382  0.6157 -0.1862
  774MOL0     C 4412   4.152   8.270   6.456  0.8216 -0.2551 -0.1825
  774MOL0     O 4413   4.060   8.282   6.557  0.5027  0.5179  0.0776
  774MOL0     C 4414   3.962   8.383   6.536 -1.0145  0.1877 -0.6727
  774MOL0     C 4415   3.865   8.379   6.649 -0.0981 -0.5600  0.4441
  774MOL0     C 4416   3.762   8.501   6.664 -0.7643 -1.0702  0.6861
  774MOL0     C 4417   3.834   8.640   6.642 -1.0008  0.6204  0.5458
  774MOL0     C 4418   3.835   8.687   6.504 -0.3847  0.3085 -0.1118
  774MOL0     C 4419   3.834   8.718   6.385  0.7539 -1.0985 -0.1212
  774MOL0     C 4420   4.238   8.164   6.470  0.2786  0.3032 -0.0549
  774MOL0     C 4421   4.336   8.135   6.376 -0.3018 -0.9720 -0.7200
  774MOL0     C 4422   4.448   8.032   6.414  0.6503  0.4854 -0.8430
  774MOL0     H 4423   4.715   8.276   6.265 -0.7988 -0.3616 -0.2236
  774MOL0     H 4424   4.949   8.320   6.201 -0.9378  1.8735 -0.5133
  774MOL0     H 4425   5.173   8.042   6.065  3.3536 -1.2496 -0.6314
  774MOL0     H 4426   5.146   8.069   5.896  0.6811  1.3651 -0.7504
  774MOL0     H 4427   5.323   8.273   6.031  1.2020 -1.8899  2.4490
  774MOL0     H 4428   5.332   8.216   5.868  0.5858 -2.4705 -0.4465
  774MOL0     H 4429   5.385   7.989   5.926 -0.7963 -0.1205  0.0577
  774MOL0     H 4430   5.376   8.018   6.100  1.8766 -0.2142  0.6522
  774MOL0     H 4431   5.549   8.157   5.911 -0.9018  0.8367 -0.1198
  774MOL0     H 4432   5.565   8.179   6.079  1.2782 -2.2248  2.9728
  774MOL0     H 4433   5.659   7.925   5.931 -2.3890 -1.1040 -0.1716
  774MOL0     H 4434   5.738   8.022   6.052  1.6751 -2.4256 -2.3937
  774MOL0     H 4435   5.587   7.941   6.224 -0.1819 -2.1197  0.8496
  774MOL0     H 4436   5.521   7.836   6.099 -0.2632  1.5406 -0.4572
  774MOL0     H 4437   5.777   7.763   6.059 -0.5275  0.0848 -0.2073
  774MOL0     H 4438   5.668   7.669   6.167  0.8906  0.2157  1.4350
  774MOL0     H 4439   5.877   7.710   6.309  0.8442  0.0768  0.9052
  774MOL0     H 4440   5.856   7.878   6.264  0.3444  0.7257  1.3225
  774MOL0     H 4441   5.701   7.582   6.461 -1.0583 -1.4136  0.6778
  774MOL0     H 4442   5.470   7.749   6.738  1.5797  0.4686  0.3531
  774MOL0     H 4443   5.484   7.587   6.669  0.9401 -1.2641  0.4884
  774MOL0     H 4444   5.623   7.604   6.884 -0.0628  1.2001  0.1182
  774MOL0     H 4445   5.727   7.595   6.738 -0.1660 -2.6048  1.2369
  774MOL0     H 4446   5.768   7.843   6.760  0.4223 -1.7735 -0.7818
  774MOL0     H 4447   5.818   7.753   6.891  0.1135 -1.1350 -0.0058
  774MOL0     H 4448   5.586   7.805   6.994  0.5759 -0.6184 -0.9738
  774MOL0     H 4449   5.574   7.936   6.882 -0.1131 -0.7765 -0.6953
  774MOL0     H 4450   5.898   8.074   7.144  0.9747 -0.3529  0.0561
  774MOL0     H 4451   6.044   8.267   7.062 -0.4016  3.3625 -1.0366
  774MOL0     H 4452   6.011   8.684   6.698  0.5705 -1.3719 -0.2989
  774MOL0     H 4453   6.129   8.886   6.695  3.7458 -1.6984 -2.6149
  774MOL0     H 4454   6.503   8.887   6.854  0.9997  0.6197  4.4009
  774MOL0     H 4455   6.496   9.054   6.789 -0.7690 -1.0659 -1.2906
  774MOL0     H 4456   6.368   9.095   7.028 -2.4232 -3.6541  3.0686
  774MOL0     H 4457   6.486   8.971   7.086 -3.1942  0.1382  1.5673
  774MOL0     H 4458   6.677   9.108   7.010  1.1731  2.7236  0.8378
  774MOL0     H 4459   6.579   9.234   6.948  4.2312  0.1079 -0.3069
  774MOL0     H 4460   6.595   9.135   7.241  0.5022 -0.6005  0.3170
  774MOL0     H 4461   6.474   9.257   7.184 -0.6097 -1.4417  1.2233
  774MOL0     H 4462   6.639   9.364   7.306  1.8292 -3.9591  1.1562
  774MOL0     H 4463   6.633   9.413   7.137  1.5173  2.8529  2.1442
  774MOL0     H 4464   6.821   9.248   7.295 -4.1851  1.8456  1.7690
  774MOL0     H 4465   6.837   9.246   7.109  0.3811  0.2152  0.1238
  774MOL0     H 4466   6.852   9.474   7.327  1.3844  3.5225 -1.2535
  774MOL0     H 4467   6.852   9.527   7.168 -0.1886  1.4656  0.7283
  774MOL0     H 4468   7.088   9.481   7.285  2.4576 -0.3873 -1.5450
  774MOL0     H 4469   7.038   9.316   7.268  1.6150 -0.1949 -1.1111
  774MOL0     H 4470   6.381   8.780   7.014  0.8745 -0.3476  0.3286
  774MOL0     H 4471   6.233   8.583   7.057 -0.4837 -1.4925 -2.0586
  774MOL0     H 4472   5.846   8.250   6.687 -0.6697 -1.3814 -0.1645
  774MOL0     H 4473   5.699   8.065   6.762  1.7029  1.1782 -1.0092
  774MOL0     H 4474   4.919   8.028   5.891  2.3650 -1.7515  2.8466
  774MOL0     H 4475   4.690   7.986   5.951  0.0248 -3.3017  2.3159
  774MOL0     H 4476   4.253   8.373   6.148 -0.9232  0.6967  0.9688
  774MOL0     H 4477   4.080   8.411   6.319  0.7117  0.8030  1.2759
  774MOL0     H 4478   3.913   8.363   6.440  1.2123 -5.0750 -1.0593
  774MOL0     H 4479   4.014   8.480   6.537 -1.7480  0.6286  1.8923
  774MOL0     H 4480   3.908   8.351   6.745  0.0206 -1.5471  0.1181
  774MOL0     H 4481   3.796   8.296   6.631 -3.6544  1.6538  2.5709
  774MOL0     H 4482   3.712   8.493   6.761 -0.3884 -0.6593  0.9112
  774MOL0     H 4483   3.683   8.493   6.588  1.0041 -1.0712 -1.2189
  774MOL0     H 4484   3.789   8.722   6.698  2.8660  2.1957  1.7158
  774MOL0     H 4485   3.937   8.634   6.680  0.4336 -2.2592 -3.1232
  774MOL0     H 4486   3.828   8.760   6.286 -0.2453  2.4004  1.2595
  774MOL0     H 4487   4.237   8.098   6.556  2.7412 -0.4117 -0.4901
  774MOL0     H 4488   4.549   8.074   6.419  0.1663  1.5362  1.5687
  774MOL0     H 4489   4.439   7.981   6.510 -0.0096 -0.1941 -1.2583
  774MOL0     H 4490   4.439   7.947   6.346  0.6172 -0.6269  0.5062
  775MOL0     O 4491   9.991   0.634   8.487  0.0105  0.2093  0.4471
  775MOL0     C 4492   9.888   0.572   8.524  0.9677 -0.7216  0.4047
  775MOL0     O 4493   9.829   0.457   8.462 -0.3307 -0.0860  0.2853
  775MOL0     C 4494   9.906   0.391   8.368  1.2930  0.6317 -0.3493
  775MOL0     C 4495   9.844   0.372   8.244  0.0666 -0.5468  0.0162
  775MOL0     C 4496   9.915   0.327   8.132 -0.2834  0.3624  0.2162
  775MOL0     C 4497  10.047   0.275   8.155  0.0078  0.2663  0.6159
  775MOL0     O 4498  10.133   0.215   8.059  0.2410 -0.3370 -0.4541
  775MOL0     C 4499  10.076   0.178   7.937  0.2622  0.7744 -0.2463
  775MOL0     C 4500  10.133   0.039   7.895 -0.2282 -0.4050 -0.0389
  775MOL0     C 4501  10.035  -0.056   7.815 -0.5485 -0.2341  0.7614
  775MOL0     C 4502  10.091  -0.202   7.799  0.3100 -0.7092 -0.2157
  775MOL0     C 4503  10.024  -0.266   7.675  0.1962 -0.2311  0.0291
  775MOL0     C 4504  10.071  -0.401   7.652  0.0334  0.1288  0.2577
  775MOL0     C 4505  10.100  -0.499   7.776 -0.2756 -0.5019  0.1458
  775MOL0     C 4506   9.983  -0.559   7.848  0.5861 -0.7614 -0.3971
  775MOL0     N 4507   9.881  -0.593   7.748 -0.3517  0.4042  0.1277
  775MOL0     C 4508   9.773  -0.515   7.728 -0.5041 -0.4454  0.7357
  775MOL0     C 4509   9.690  -0.589   7.647 -0.3792 -0.4562 -0.1312
  775MOL0     C 4510   9.555  -0.565   7.588  0.0003  1.0181  0.0466
  775MOL0     C 4511   9.451  -0.605   7.696  0.4105  0.2149  0.1388
  775MOL0     C 4512   9.313  -0.597   7.642 -0.3488  0.2134  0.1955
  775MOL0     C 4513   9.254  -0.453   7.613 -0.6254 -0.3118  1.1065
  775MOL0     O 4514   9.294  -0.395   7.479  0.3353  0.0815 -0.2542
  775MOL0     C 4515   9.231  -0.284   7.439  0.5833 -0.2559 -0.2334
  775MOL0     C 4516   9.132  -0.206   7.511 -1.0632  0.3140  0.6927
  775MOL0     C 4517   9.103  -0.084   7.448  0.5316  0.6070  0.3170
  775MOL0     C 4518   9.152  -0.038   7.327 -0.7668  0.7576 -1.0123
  775MOL0     C 4519   9.119   0.100   7.291 -0.0386  0.3201 -0.0386
  775MOL0     O 4520   9.146   0.124   7.163 -0.1330 -0.5631 -1.1427
  775MOL0     C 4521   9.108   0.238   7.111  1.4102 -0.2420  0.5652
  775MOL0     C 4522   9.149   0.365   7.156 -0.6712  0.0830 -0.2545
  775MOL0     C 4523   9.101   0.479   7.099 -0.6496 -0.5451 -1.0431
  775MOL0     C 4524   8.999   0.472   7.000 -1.5918  0.1474 -0.3775
  775MOL0     O 4525   8.939   0.583   6.941  0.1441  0.0439  0.4015
  775MOL0     C 4526   8.986   0.714   6.978 -0.0116 -0.9035 -0.3694
  775MOL0     C 4527   8.889   0.813   6.918 -0.1156 -0.4561  0.0186
  775MOL0     C 4528   8.954   0.952   6.906  0.5724 -0.5644 -0.2393
  775MOL0     C 4529   8.892   1.030   6.788  0.7013 -0.8735 -0.7215
  775MOL0     C 4530   8.972   1.161   6.766  1.3314  0.0699  0.1973
  775MOL0     C 4531   9.100   1.138   6.681 -0.2222  0.1301  0.8872
  775MOL0     C 4532   9.088   1.106   6.527  0.0120  0.0051  0.1009
  775MOL0     C 4533   9.232   1.125   6.466  0.7432 -0.0975 -0.0466
  775MOL0    Cl 4534   9.213   1.106   6.290  0.1029 -0.0770 -0.6013
  775MOL0     C 4535   8.979   0.352   6.940 -0.9328 -0.3361 -0.1118
  775MOL0     C 4536   9.018   0.235   6.997  0.2681  0.0397 -0.2659
  775MOL0     O 4537   9.070   0.175   7.369 -0.2672 -0.1949 -0.8581
  775MOL0     C 4538   9.251  -0.124   7.263  0.2903 -0.6222 -0.1565
  775MOL0     C 4539   9.281  -0.250   7.317  0.6824 -0.3328  0.4825
  775MOL0     N 4540   9.755  -0.711   7.611 -0.4463 -0.7002  1.0449
  775MOL0     N 4541   9.866  -0.709   7.675 -0.2168 -0.2017 -1.1026
  775MOL0     C 4542  10.096   0.276   8.289 -0.0192  0.0475 -0.0565
  775MOL0     C 4543  10.037   0.339   8.399 -0.7589 -0.1200  0.8076
  775MOL0     C 4544   9.805   0.639   8.628 -0.8628 -0.6066 -0.2485
  775MOL0     C 4545   9.689   0.570   8.676 -1.0898 -0.5680  0.3844
  775MOL0     C 4546   9.602   0.624   8.769 -0.4221 -0.4870 -0.5161
  775MOL0     C 4547   9.640   0.739   8.838  0.7251  0.2975 -0.5129
  775MOL0     O 4548   9.575   0.796   8.943 -0.8088 -0.6099  0.0818
  775MOL0     C 4549   9.445   0.745   8.981 -0.3725 -0.1120 -0.6951
  775MOL0     C 4550   9.465   0.613   9.069  0.0095 -1.0106  0.2818
  775MOL0     C 4551   9.551   0.659   9.194 -0.2249  0.0859  0.4798
  775MOL0     C 4552   9.561   0.549   9.305 -0.2583  0.5147 -0.4159
  775MOL0     C 4553   9.575   0.415   9.243 -0.8032 -0.1232  0.5590
  775MOL0     C 4554   9.576   0.311   9.189 -0.5745  0.4736 -0.4523
  775MOL0     C 4555   9.755   0.808   8.806 -0.7207 -0.2029 -0.3647
  775MOL0     C 4556   9.843   0.761   8.708 -0.5422  0.0233  0.3488
  775MOL0     C 4557   9.969   0.838   8.687  0.1522  0.2741  0.7595
  775MOL0     H 4558   9.752   0.427   8.225 -0.3194 -0.0583  2.9436
  775MOL0     H 4559   9.860   0.327   8.038 -0.5297 -0.1162  0.3569
  775MOL0     H 4560   9.969   0.156   7.946  0.2745 -2.4752 -4.6333
  775MOL0     H 4561  10.078   0.260   7.865 -4.6171  4.4288  3.1552
  775MOL0     H 4562  10.149  -0.023   7.983 -1.0034 -0.1726  0.2790
  775MOL0     H 4563  10.225   0.048   7.837  1.0388  2.7169  2.1787
  775MOL0     H 4564  10.001  -0.019   7.718  4.2165 -1.0118 -1.5006
  775MOL0     H 4565   9.945  -0.063   7.876 -0.3286 -5.9920  1.0249
  775MOL0     H 4566  10.198  -0.190   7.784  0.3176  2.4352  1.4311
  775MOL0     H 4567  10.070  -0.249   7.896  0.8618  1.0627  0.8182
  775MOL0     H 4568   9.916  -0.263   7.693  0.7863  1.0332  4.4892
  775MOL0     H 4569  10.042  -0.221   7.577 -2.7465 -1.5298 -1.2212
  775MOL0     H 4570  10.001  -0.444   7.579  0.9471 -1.5314  0.3059
  775MOL0     H 4571  10.166  -0.394   7.599 -0.2048  0.1430 -0.1711
  775MOL0     H 4572  10.169  -0.449   7.845 -2.4559  0.6412  1.5995
  775MOL0     H 4573  10.152  -0.588   7.739  1.2869 -0.0032  1.0529
  775MOL0     H 4574  10.017  -0.642   7.912  1.0929  0.2376  0.6647
  775MOL0     H 4575   9.938  -0.478   7.905  0.7715 -1.5884  0.9866
  775MOL0     H 4576   9.739  -0.417   7.762  0.9855 -0.6286  2.9355
  775MOL0     H 4577   9.549  -0.457   7.572 -0.7999  1.3696  2.3754
  775MOL0     H 4578   9.525  -0.628   7.504 -1.5048 -0.1857  1.4170
  775MOL0     H 4579   9.476  -0.702   7.738 -2.2640 -0.5522  0.1604
  775MOL0     H 4580   9.459  -0.530   7.775  1.7951  0.1672  0.0600
  775MOL0     H 4581   9.251  -0.651   7.715 -2.5984  0.3600 -1.4953
  775MOL0     H 4582   9.308  -0.656   7.550 -0.6611 -0.3451  0.5654
  775MOL0     H 4583   9.260  -0.372   7.686  0.2458  2.8126 -2.1635
  775MOL0     H 4584   9.148  -0.481   7.604 -0.2813 -1.2499 -0.3142
  775MOL0     H 4585   9.087  -0.246   7.601  0.8637 -1.9405  0.7677
  775MOL0     H 4586   9.040  -0.015   7.503 -0.9196 -0.2675 -0.1872
  775MOL0     H 4587   9.220   0.368   7.238 -0.2724 -1.8387 -0.4848
  775MOL0     H 4588   9.139   0.576   7.130 -0.2483  0.1797 -3.5767
  775MOL0     H 4589   8.983   0.726   7.087  1.4043 -4.5211  0.2201
  775MOL0     H 4590   9.085   0.729   6.936  0.3083  0.8111  0.9105
  775MOL0     H 4591   8.851   0.774   6.823  1.9158  2.0920 -2.0113
  775MOL0     H 4592   8.816   0.823   6.999  1.8429  1.1859  1.6849
  775MOL0     H 4593   8.944   1.004   7.001  3.0447 -1.9701  0.9021
  775MOL0     H 4594   9.061   0.948   6.887  0.7440  0.5785  0.4504
  775MOL0     H 4595   8.791   1.054   6.825  0.6355 -2.7547  0.4747
  775MOL0     H 4596   8.885   0.975   6.693 -1.2849 -2.0526  0.0448
  775MOL0     H 4597   8.992   1.206   6.863  1.6942 -3.7076  2.0769
  775MOL0     H 4598   8.905   1.229   6.712 -1.2083 -2.8049 -0.5558
  775MOL0     H 4599   9.166   1.222   6.703 -0.7764  1.1302 -1.0255
  775MOL0     H 4600   9.148   1.058   6.739  0.4140  1.7816  2.7493
  775MOL0     H 4601   9.001   1.162   6.490 -1.9410 -5.2148 -4.6060
  775MOL0     H 4602   9.069   0.999   6.518  3.3027 -0.6284 -0.4514
  775MOL0     H 4603   9.254   1.232   6.474 -1.2460  0.5504 -2.2852
  775MOL0     H 4604   9.305   1.060   6.515  0.7153  0.2690  0.4853
  775MOL0     H 4605   8.913   0.351   6.855  2.1617  1.8003 -2.7500
  775MOL0     H 4606   8.975   0.146   6.953  0.4993  0.1011 -0.6187
  775MOL0     H 4607   9.302  -0.084   7.176 -1.5856 -0.7432 -1.3725
  775MOL0     H 4608   9.357  -0.313   7.274  3.0072  2.4656  0.1386
  775MOL0     H 4609  10.193   0.234   8.314  0.7178  0.8179 -1.4820
  775MOL0     H 4610  10.077   0.346   8.500 -1.4774 -0.0958  1.0995
  775MOL0     H 4611   9.664   0.474   8.631  4.1969 -2.2705  0.4141
  775MOL0     H 4612   9.504   0.578   8.776  0.0850 -2.0154 -2.4684
  775MOL0     H 4613   9.387   0.725   8.891  1.1874 -1.9825 -1.3512
  775MOL0     H 4614   9.399   0.821   9.045  0.8280 -2.0474  2.7609
  775MOL0     H 4615   9.522   0.541   9.010  0.6278  0.2116 -0.6615
  775MOL0     H 4616   9.375   0.565   9.109 -1.4353  1.5609  0.3355
  775MOL0     H 4617   9.509   0.751   9.235  0.3478  1.6972 -2.3080
  775MOL0     H 4618   9.640   0.708   9.154 -1.7394  1.3028 -1.6053
  775MOL0     H 4619   9.643   0.579   9.371 -1.7279  1.4818  1.0375
  775MOL0     H 4620   9.472   0.551   9.368 -0.4171  4.9362 -0.5081
  775MOL0     H 4621   9.579   0.222   9.129  3.8127 -1.7293  2.5273
  775MOL0     H 4622   9.778   0.894   8.868 -3.2442  0.2087  0.1006
  775MOL0     H 4623   9.977   0.938   8.731 -0.7734  1.0507 -0.7859
  775MOL0     H 4624  10.051   0.776   8.726 -0.2476 -0.2357  0.8145
  775MOL0     H 4625   9.986   0.859   8.581  3.3505 -1.4216  0.8034
  776MOL0     O 4626   4.693   3.481   3.643 -0.1719 -0.3257  0.2364
  776MOL0     C 4627   4.671   3.403   3.735  0.5490 -0.6628  0.1760
  776MOL0     O 4628   4.763   3.351   3.815  0.2669  0.0113 -0.5653
  776MOL0     C 4629   4.902   3.377   3.790 -0.0318  0.0968  0.9225
  776MOL0     C 4630   4.961   3.487   3.852  0.1421 -0.2213  0.2555
  776MOL0     C 4631   5.090   3.529   3.825  0.2357  0.7977 -0.0528
  776MOL0     C 4632   5.175   3.456   3.732  0.0975  0.3321 -0.6504
  776MOL0     O 4633   5.299   3.483   3.685  0.2722  0.5770 -0.5303
  776MOL0     C 4634   5.342   3.623   3.687 -0.8408  0.3630  0.0136
  776MOL0     C 4635   5.448   3.655   3.579  0.7243  0.5870 -0.0367
  776MOL0     C 4636   5.553   3.759   3.629  0.1537 -0.2251 -0.0868
  776MOL0     C 4637   5.688   3.694   3.668  0.5778  0.1705  0.0515
  776MOL0     C 4638   5.778   3.794   3.740 -0.3757  0.5006  0.2515
  776MOL0     C 4639   5.814   3.921   3.660 -1.1046 -0.2311  0.1269
  776MOL0     C 4640   5.899   4.016   3.743 -0.1085  0.2747 -0.1619
  776MOL0     C 4641   5.814   4.084   3.853  1.2302 -0.5213 -0.1113
  776MOL0     N 4642   5.902   4.125   3.959  0.0585  0.6858 -0.2099
  776MOL0     C 4643   5.967   4.032   4.042  0.2916 -0.6355 -0.6859
  776MOL0     C 4644   6.038   4.114   4.125  0.0362  0.6726  0.3595
  776MOL0     C 4645   6.141   4.058   4.233  0.8983 -0.7417  0.6067
  776MOL0     C 4646   6.086   4.084   4.369 -0.5750  0.2155 -0.2155
  776MOL0     C 4647   6.194   4.061   4.481  0.3509  0.2860 -0.9808
  776MOL0     C 4648   6.173   4.143   4.614  0.6886 -0.2897 -0.0528
  776MOL0     O 4649   6.050   4.108   4.686 -0.3982 -0.7398  0.7831
  776MOL0     C 4650   6.052   3.983   4.742 -0.0587 -0.0202  0.2840
  776MOL0     C 4651   6.139   3.960   4.853 -0.2582  0.3468 -0.1221
  776MOL0     C 4652   6.153   3.828   4.897 -0.0803 -0.1445  0.1582
  776MOL0     C 4653   6.091   3.719   4.846  0.8906  0.0259 -0.5198
  776MOL0     C 4654   6.115   3.585   4.904  0.4475 -1.0714  0.1304
  776MOL0     O 4655   6.173   3.574   5.024 -0.7096 -0.1276 -0.5220
  776MOL0     C 4656   6.182   3.446   5.080  0.0957 -0.7490 -0.2407
  776MOL0     C 4657   6.136   3.447   5.211 -0.5668  0.5010 -0.2154
  776MOL0     C 4658   6.148   3.333   5.288  0.4739 -0.2640  1.0919
  776MOL0     C 4659   6.202   3.215   5.237  1.0670 -0.2537  0.5092
  776MOL0     O 4660   6.216   3.109   5.321  0.1830 -0.3638 -0.3246
  776MOL0     C 4661   6.333   3.028   5.304 -0.1180  0.0212 -0.6607
  776MOL0     C 4662   6.291   2.898   5.234 -0.3973 -0.1987 -0.4052
  776MOL0     C 4663   6.395   2.787   5.246 -0.6274  1.3052  0.2612
  776MOL0     C 4664   6.358   2.674   5.141  0.6965 -0.1832 -0.2406
  776MOL0     C 4665   6.444   2.551   5.126  0.3613  0.5402 -0.0255
  776MOL0     C 4666   6.454   2.463   5.253 -0.2923 -0.2028 -0.0888
  776MOL0     C 4667   6.545   2.350   5.235  0.2651 -0.5857  0.8362
  776MOL0     C 4668   6.504   2.247   5.134  0.8379 -0.6904 -1.5280
  776MOL0    Cl 4669   6.641   2.135   5.141  0.1776 -0.5043 -0.1706
  776MOL0     C 4670   6.228   3.211   5.099 -0.2950 -0.3576  0.9601
  776MOL0     C 4671   6.234   3.330   5.019 -0.0342 -0.2241 -0.3013
  776MOL0     O 4672   6.076   3.494   4.837 -0.1210 -0.4850  0.3629
  776MOL0     C 4673   5.998   3.750   4.745  0.9372 -0.9078  1.2639
  776MOL0     C 4674   5.983   3.882   4.687  0.4075  0.1115 -0.1764
  776MOL0     N 4675   6.014   4.251   4.089 -0.2528 -0.1453  0.1174
  776MOL0     N 4676   5.928   4.260   3.995  0.3748  0.2503  0.7172
  776MOL0     C 4677   5.122   3.335   3.687  0.4178  0.4300  0.5184
  776MOL0     C 4678   4.990   3.293   3.713 -1.3076  0.9915 -1.3233
  776MOL0     C 4679   4.527   3.382   3.766  0.1037 -0.2731  0.3485
  776MOL0     C 4680   4.477   3.435   3.885 -0.3549 -0.2479  0.1138
  776MOL0     C 4681   4.338   3.425   3.915 -0.4915  0.2136 -0.7513
  776MOL0     C 4682   4.246   3.358   3.831 -0.6770 -1.1741  0.1598
  776MOL0     O 4683   4.114   3.340   3.861  0.6473 -0.2994  1.3184
  776MOL0     C 4684   4.052   3.411   3.974 -0.7747 -0.0627  0.1906
  776MOL0     C 4685   3.906   3.383   3.979 -1.0448  0.5622 -0.8060
  776MOL0     C 4686   3.884   3.240   4.051  1.3178 -0.5104 -0.4315
  776MOL0     C 4687   3.742   3.222   4.105  0.1578 -0.0266 -0.2200
  776MOL0     C 4688   3.711   3.325   4.200  0.4820  0.0489 -0.6700
  776MOL0     C 4689   3.674   3.418   4.259 -0.3466 -0.8063 -0.3272
  776MOL0     C 4690   4.300   3.307   3.714  0.2486  0.3863  0.0526
  776MOL0     C 4691   4.436   3.314   3.682 -0.4997  0.4215 -0.3253
  776MOL0     C 4692   4.495   3.248   3.559  0.3112  0.1592  0.9621
  776MOL0     H 4693   4.899   3.548   3.916 -0.4906 -0.3886 -0.1853
  776MOL0     H 4694   5.127   3.622   3.867 -1.1979  0.7567  1.4031
  776MOL0     H 4695   5.259   3.688   3.657 -1.2935  0.4013  1.2436
  776MOL0     H 4696   5.375   3.654   3.787  2.4232 -1.1643 -0.4522
  776MOL0     H 4697   5.400   3.696   3.491  0.9066 -0.8226 -0.8300
  776MOL0     H 4698   5.504   3.569   3.539 -1.8868 -1.1257 -0.2359
  776MOL0     H 4699   5.519   3.816   3.716 -1.5253 -2.3901  0.7569
  776MOL0     H 4700   5.584   3.825   3.547  0.2897 -0.8496 -0.5438
  776MOL0     H 4701   5.666   3.625   3.749 -1.4382  3.0114  2.1556
  776MOL0     H 4702   5.734   3.647   3.581 -1.1061 -0.6148 -0.4553
  776MOL0     H 4703   5.732   3.815   3.838 -0.2389 -0.1278  0.4530
  776MOL0     H 4704   5.868   3.741   3.772  0.4647  2.1250  0.6789
  776MOL0     H 4705   5.879   3.890   3.578  0.3557  3.4290 -0.3165
  776MOL0     H 4706   5.725   3.975   3.625 -0.3055  0.1141 -1.4975
  776MOL0     H 4707   5.931   4.091   3.669  1.1249  1.4933  1.5389
  776MOL0     H 4708   5.995   3.975   3.776 -0.2925  1.9397  2.7535
  776MOL0     H 4709   5.777   4.177   3.810  1.0316 -1.1533 -1.3310
  776MOL0     H 4710   5.731   4.024   3.892 -0.3821  0.0539 -2.4643
  776MOL0     H 4711   5.953   3.926   4.058 -2.6393 -0.1131  0.9213
  776MOL0     H 4712   6.136   3.950   4.218  0.3145 -0.7326  0.6898
  776MOL0     H 4713   6.241   4.100   4.223  1.2535 -0.3851  4.2038
  776MOL0     H 4714   6.055   4.188   4.381 -3.4112 -0.2862 -2.0752
  776MOL0     H 4715   6.002   4.015   4.385  1.9187 -3.1914 -0.6351
  776MOL0     H 4716   6.294   4.090   4.451  0.3660 -1.4031 -2.7696
  776MOL0     H 4717   6.188   3.954   4.504  0.3713 -0.2192 -3.1050
  776MOL0     H 4718   6.145   4.246   4.590 -2.2976 -0.9455  0.1843
  776MOL0     H 4719   6.264   4.138   4.675  0.1494 -1.3765  0.6835
  776MOL0     H 4720   6.191   4.046   4.892  1.0178 -1.7394  3.1551
  776MOL0     H 4721   6.240   3.806   4.957  1.6274 -1.8641 -2.7005
  776MOL0     H 4722   6.107   3.531   5.274  0.1316  0.4137  0.2339
  776MOL0     H 4723   6.111   3.327   5.390 -0.0632  0.9450  0.9799
  776MOL0     H 4724   6.407   3.087   5.249  2.0924 -0.4875  1.5820
  776MOL0     H 4725   6.379   3.024   5.404 -0.1571 -1.5390 -0.6741
  776MOL0     H 4726   6.193   2.863   5.267 -0.3337 -1.7216 -1.7094
  776MOL0     H 4727   6.279   2.924   5.129  2.5984  0.6095 -0.6469
  776MOL0     H 4728   6.494   2.828   5.222 -0.8749  0.5489 -2.3794
  776MOL0     H 4729   6.386   2.735   5.342 -5.6040 -0.2128 -0.7569
  776MOL0     H 4730   6.350   2.717   5.041 -0.4015 -0.5129 -0.3125
  776MOL0     H 4731   6.256   2.645   5.170  1.0151  0.5826  1.8562
  776MOL0     H 4732   6.543   2.589   5.097  0.2223  0.5155 -0.5371
  776MOL0     H 4733   6.392   2.495   5.048 -1.2922  1.7200  0.1820
  776MOL0     H 4734   6.487   2.529   5.334 -1.5189  1.0290 -0.5523
  776MOL0     H 4735   6.361   2.409   5.271 -0.5280 -1.9531 -5.0413
  776MOL0     H 4736   6.543   2.293   5.329 -2.7048 -3.9496 -1.0236
  776MOL0     H 4737   6.647   2.388   5.220 -0.3742  0.5817 -0.7513
  776MOL0     H 4738   6.404   2.206   5.154  1.4275 -2.6057 -2.2697
  776MOL0     H 4739   6.492   2.289   5.034  0.3149  2.7198 -0.1801
  776MOL0     H 4740   6.254   3.117   5.051 -2.3120 -1.2100  1.4266
  776MOL0     H 4741   6.276   3.330   4.919  1.4627 -3.1518  0.2185
  776MOL0     H 4742   5.946   3.672   4.690  1.3349  1.2892 -2.5813
  776MOL0     H 4743   5.913   3.895   4.605 -0.9408  1.2878  1.1014
  776MOL0     H 4744   5.167   3.265   3.617 -2.5918 -1.7995  0.6211
  776MOL0     H 4745   4.963   3.194   3.677  1.1675 -1.9677  3.8206
  776MOL0     H 4746   4.546   3.493   3.945  1.6041 -0.8192 -1.5058
  776MOL0     H 4747   4.301   3.473   4.005 -2.6679 -1.4871 -0.6498
  776MOL0     H 4748   4.059   3.518   3.951 -3.7079 -0.1896 -1.8630
  776MOL0     H 4749   4.100   3.382   4.067 -0.0598 -1.2369 -0.5140
  776MOL0     H 4750   3.872   3.385   3.876 -0.7367 -1.9316 -1.0361
  776MOL0     H 4751   3.852   3.457   4.039  0.8621  0.2029  1.5656
  776MOL0     H 4752   3.954   3.218   4.132  2.8986  3.3846 -0.4953
  776MOL0     H 4753   3.890   3.150   3.989  0.3758 -1.9741  1.4787
  776MOL0     H 4754   3.667   3.223   4.025 -2.3839 -0.5501  2.0102
  776MOL0     H 4755   3.748   3.121   4.146  1.1875  1.2015  2.9781
  776MOL0     H 4756   3.650   3.507   4.314 -0.8012 -2.4224  2.2334
  776MOL0     H 4757   4.244   3.243   3.647 -1.4598 -2.1603  3.6200
  776MOL0     H 4758   4.545   3.158   3.597  0.3657 -0.1518  0.1692
  776MOL0     H 4759   4.413   3.220   3.492  2.0501 -2.5012 -0.2587
  776MOL0     H 4760   4.559   3.316   3.502  1.0932 -2.6316 -1.8380
  777MOL0     O 4761   2.362   4.631  11.360  0.3749  0.3260 -0.1390
  777MOL0     C 4762   2.321   4.681  11.253 -0.0899  0.5968 -0.0395
  777MOL0     O 4763   2.396   4.745  11.165  1.5685  0.4592 -0.0555
  777MOL0     C 4764   2.529   4.758  11.181  0.1378 -0.3988 -0.2243
  777MOL0     C 4765   2.588   4.872  11.133  0.2512 -0.9464  0.4665
  777MOL0     C 4766   2.726   4.890  11.137 -0.6367 -0.4899  0.2305
  777MOL0     C 4767   2.809   4.786  11.177  0.3666 -1.5252 -0.2058
  777MOL0     O 4768   2.946   4.800  11.178 -0.0823 -0.3669 -1.4649
  777MOL0     C 4769   3.017   4.779  11.058 -1.3745 -0.0824 -0.9606
  777MOL0     C 4770   3.100   4.652  11.053  0.7690 -0.0817  0.7044
  777MOL0     C 4771   3.187   4.646  11.182 -0.1541 -0.2179 -0.0659
  777MOL0     C 4772   3.310   4.746  11.202 -0.7435  0.8561 -0.5819
  777MOL0     C 4773   3.314   4.762  11.353  0.4684 -0.2858  0.0333
  777MOL0     C 4774   3.439   4.850  11.398 -0.0627 -1.1698  0.4181
  777MOL0     C 4775   3.419   4.933  11.523  0.1837 -0.1253  0.0768
  777MOL0     C 4776   3.528   5.044  11.540 -0.8546  0.0860 -0.3536
  777MOL0     N 4777   3.510   5.107  11.681  0.7694 -0.5399  1.3410
  777MOL0     C 4778   3.526   5.052  11.803  0.1294 -0.2471  1.3302
  777MOL0     C 4779   3.451   5.125  11.875  0.2960 -0.1624 -0.0455
  777MOL0     C 4780   3.439   5.091  12.016  0.7975  0.3610 -0.4664
  777MOL0     C 4781   3.289   5.084  12.066 -0.8918 -0.6685 -0.5595
  777MOL0     C 4782   3.276   5.065  12.225  0.0733 -1.6720  0.1987
  777MOL0     C 4783   3.134   5.017  12.246 -0.1827 -1.1804  0.3151
  777MOL0     O 4784   3.090   5.051  12.377 -0.0048  0.7034 -0.1138
  777MOL0     C 4785   3.151   4.986  12.485  0.2907  0.6148 -1.1009
  777MOL0     C 4786   3.109   5.042  12.609  0.8695 -0.3320 -0.2725
  777MOL0     C 4787   3.193   5.002  12.721  0.1133  0.2608 -0.4860
  777MOL0     C 4788   3.291   4.898  12.713 -0.3297 -0.8309  0.4713
  777MOL0     C 4789   3.381   4.882  12.825  0.5460  0.3540 -0.3615
  777MOL0     O 4790   3.496   4.811  12.794  1.4689  0.1854 -0.5385
  777MOL0     C 4791   3.599   4.809  12.883 -0.2541 -0.3094  0.9974
  777MOL0     C 4792   3.637   4.907  12.966 -0.7830 -0.4149 -0.2512
  777MOL0     C 4793   3.725   4.898  13.066  0.7557  0.1320 -0.1666
  777MOL0     C 4794   3.792   4.775  13.089 -0.2195 -0.3276  1.0053
  777MOL0     O 4795   3.892   4.739  13.176  0.0567 -0.1907  0.3732
  777MOL0     C 4796   3.895   4.812  13.303 -0.0988  0.1430  0.3469
  777MOL0     C 4797   4.015   4.780  13.399  0.6453 -0.2071  0.2272
  777MOL0     C 4798   4.047   4.634  13.388 -0.0694 -0.3544  0.2794
  777MOL0     C 4799   4.160   4.584  13.481 -0.0836  0.5022 -0.5016
  777MOL0     C 4800   4.171   4.433  13.505 -0.5960  0.7902  0.2010
  777MOL0     C 4801   4.217   4.365  13.369 -0.7129 -0.4630  0.3981
  777MOL0     C 4802   4.248   4.220  13.388 -0.0262  0.2695  0.6728
  777MOL0     C 4803   4.251   4.150  13.247 -0.3201 -0.0589 -0.0892
  777MOL0    Cl 4804   4.358   4.234  13.130  0.1352  0.1947  0.6169
  777MOL0     C 4805   3.767   4.670  12.996 -0.0399  0.3969  0.7477
  777MOL0     C 4806   3.671   4.689  12.895 -0.3086  0.5774  0.6590
  777MOL0     O 4807   3.362   4.936  12.935  0.0374  0.9071 -0.4415
  777MOL0     C 4808   3.304   4.826  12.594  0.1478  0.9721 -1.0600
  777MOL0     C 4809   3.234   4.871  12.487 -1.2190 -0.0757  0.6796
  777MOL0     N 4810   3.390   5.223  11.793  1.3630 -0.0060 -1.0556
  777MOL0     N 4811   3.432   5.216  11.673 -0.1718 -0.8041 -0.5845
  777MOL0     C 4812   2.751   4.665  11.216  0.5266 -0.2040  0.5526
  777MOL0     C 4813   2.609   4.655  11.216 -0.3668 -0.3648  0.4434
  777MOL0     C 4814   2.178   4.687  11.251 -0.2400  0.7681 -0.1342
  777MOL0     C 4815   2.101   4.744  11.353  0.4375 -0.1660 -0.2192
  777MOL0     C 4816   1.963   4.753  11.344  0.0900 -0.1726 -0.2856
  777MOL0     C 4817   1.895   4.706  11.234  0.1227 -0.3476  1.0686
  777MOL0     O 4818   1.760   4.722  11.248  0.7022 -1.3738  0.3947
  777MOL0     C 4819   1.663   4.704  11.143  0.4090  0.5413 -0.4519
  777MOL0     C 4820   1.525   4.746  11.199  1.3954 -0.3337  0.2487
  777MOL0     C 4821   1.500   4.668  11.326  0.1600 -0.5068 -1.0035
  777MOL0     C 4822   1.359   4.653  11.366 -0.3627  0.4775  0.5211
  777MOL0     C 4823   1.294   4.780  11.403 -0.4776  0.1812 -0.4457
  777MOL0     C 4824   1.246   4.889  11.433 -0.3825 -0.6832  0.1517
  777MOL0     C 4825   1.962   4.665  11.121  0.8178 -0.6824 -0.1475
  777MOL0     C 4826   2.104   4.661  11.128 -0.7097  0.1690  0.0704
  777MOL0     C 4827   2.168   4.614  10.994 -0.2393  0.0165 -1.0962
  777MOL0     H 4828   2.534   4.954  11.086 -1.1007 -1.6444  0.7469
  777MOL0     H 4829   2.780   4.977  11.100 -2.7975  1.1904  0.8115
  777MOL0     H 4830   2.961   4.783  10.965  1.6897  0.0920 -2.9226
  777MOL0     H 4831   3.097   4.853  11.047 -0.8462 -0.9219 -3.0445
  777MOL0     H 4832   3.158   4.651  10.961 -1.9056 -2.3352 -1.1404
  777MOL0     H 4833   3.031   4.566  11.051 -2.0423  1.8844  3.1833
  777MOL0     H 4834   3.235   4.549  11.197  0.7794  0.3076  0.5031
  777MOL0     H 4835   3.115   4.658  11.263 -2.1009 -3.7598 -1.0987
  777MOL0     H 4836   3.401   4.694  11.170 -1.9764 -1.7691 -0.0215
  777MOL0     H 4837   3.293   4.839  11.147 -2.9048 -0.7823 -2.8797
  777MOL0     H 4838   3.222   4.805  11.395  1.3345  1.9310 -0.1896
  777MOL0     H 4839   3.335   4.667  11.402  0.5624 -0.8720 -1.1098
  777MOL0     H 4840   3.525   4.784  11.411  0.3284 -1.0876 -1.4596
  777MOL0     H 4841   3.478   4.908  11.313  0.6831 -3.1602 -0.6776
  777MOL0     H 4842   3.422   4.871  11.613 -4.3115 -0.4593  0.2015
  777MOL0     H 4843   3.318   4.974  11.526 -0.8050 -2.4580  1.1574
  777MOL0     H 4844   3.626   4.999  11.522 -1.0638 -0.3937 -0.3010
  777MOL0     H 4845   3.504   5.118  11.463  0.0303  0.5504 -0.1920
  777MOL0     H 4846   3.584   4.964  11.831 -0.4334 -0.4334  1.9394
  777MOL0     H 4847   3.486   4.993  12.032  1.1102 -0.3011 -4.4348
  777MOL0     H 4848   3.499   5.166  12.070  2.7214 -0.8649 -0.8020
  777MOL0     H 4849   3.249   5.177  12.026  1.4744  0.8675  0.4627
  777MOL0     H 4850   3.239   4.996  12.023  0.5356 -1.5475 -0.5004
  777MOL0     H 4851   3.284   5.166  12.267  0.0613 -0.9262 -1.5252
  777MOL0     H 4852   3.356   5.004  12.268  2.9683  1.3856 -0.4702
  777MOL0     H 4853   3.126   4.909  12.233  0.2236 -1.1543 -0.1673
  777MOL0     H 4854   3.070   5.079  12.183  1.0831  2.1519  2.0620
  777MOL0     H 4855   3.033   5.115  12.635 -0.6055 -2.3061  1.3252
  777MOL0     H 4856   3.158   5.032  12.820  3.1113 -0.7714  1.0153
  777MOL0     H 4857   3.583   5.001  12.973  3.9119  2.5331  1.1463
  777MOL0     H 4858   3.743   4.991  13.119 -1.0944 -0.4158  1.5269
  777MOL0     H 4859   3.880   4.920  13.299 -3.1355 -0.1558  1.2318
  777MOL0     H 4860   3.804   4.779  13.353 -0.8915  0.2949 -0.9505
  777MOL0     H 4861   4.093   4.847  13.361 -0.8714  1.2190 -0.4492
  777MOL0     H 4862   3.986   4.801  13.502  1.7081  0.3314  0.4338
  777MOL0     H 4863   3.952   4.583  13.404  0.6859 -1.1684  2.6103
  777MOL0     H 4864   4.087   4.609  13.289  6.7686  1.2740  2.0626
  777MOL0     H 4865   4.146   4.634  13.577  0.8219  2.1672 -1.2032
  777MOL0     H 4866   4.267   4.592  13.460  0.4002 -0.5895  1.3463
  777MOL0     H 4867   4.075   4.397  13.543 -0.6358 -2.6157 -2.5848
  777MOL0     H 4868   4.251   4.415  13.578 -1.1208 -3.8716 -0.0239
  777MOL0     H 4869   4.142   4.366  13.290 -2.1933 -1.8024  1.7195
  777MOL0     H 4870   4.308   4.415  13.335 -2.3268  1.6145 -1.0702
  777MOL0     H 4871   4.173   4.166  13.447 -0.5717 -2.0653 -1.9363
  777MOL0     H 4872   4.347   4.212  13.433  1.4345 -0.0359 -2.3035
  777MOL0     H 4873   4.294   4.049  13.251  3.5475  1.3348 -1.3774
  777MOL0     H 4874   4.149   4.144  13.208  0.0825 -0.1500 -1.1603
  777MOL0     H 4875   3.834   4.586  12.980 -0.8234 -0.4557  1.7869
  777MOL0     H 4876   3.660   4.599  12.835 -0.2432  1.0994 -0.1433
  777MOL0     H 4877   3.379   4.753  12.566  0.1189  0.7395 -0.5382
  777MOL0     H 4878   3.245   4.829  12.388 -0.1823  0.4948  0.5465
  777MOL0     H 4879   2.809   4.573  11.222 -0.5940 -1.2649 -2.5996
  777MOL0     H 4880   2.551   4.563  11.218 -1.5888  0.3112 -1.1668
  777MOL0     H 4881   2.155   4.783  11.439 -0.5748 -0.7124  0.6967
  777MOL0     H 4882   1.906   4.784  11.430  0.2304 -1.5203  0.3113
  777MOL0     H 4883   1.652   4.599  11.115 -3.3557  0.7127 -0.2289
  777MOL0     H 4884   1.684   4.765  11.054 -2.4584  1.2562 -0.7471
  777MOL0     H 4885   1.444   4.738  11.126  2.7443  4.0464 -2.0861
  777MOL0     H 4886   1.531   4.852  11.225 -0.8140 -0.2655  0.6254
  777MOL0     H 4887   1.548   4.722  11.408  2.1764 -0.2390 -2.2943
  777MOL0     H 4888   1.549   4.572  11.311  0.2371 -0.0958 -4.0714
  777MOL0     H 4889   1.304   4.613  11.280  1.8774  3.0494 -2.3339
  777MOL0     H 4890   1.358   4.571  11.437 -0.9555 -1.2295 -1.3534
  777MOL0     H 4891   1.205   4.986  11.455  1.1785  0.1244 -0.3689
  777MOL0     H 4892   1.896   4.643  11.038 -0.7482  1.7056  0.3542
  777MOL0     H 4893   2.084   4.605  10.924 -3.3988  0.1015  2.3270
  777MOL0     H 4894   2.243   4.680  10.951 -0.2010  0.9837  0.3920
  777MOL0     H 4895   2.217   4.518  11.012  3.0837  1.2772 -2.7915
  778MOL0     O 4896   8.274   3.476   7.441 -0.3540 -0.8100  0.2422
  778MOL0     C 4897   8.171   3.542   7.469 -0.4020  0.5700  0.1473
  778MOL0     O 4898   8.076   3.587   7.376 -0.9382 -0.0535 -0.3876
  778MOL0     C 4899   8.077   3.541   7.247  0.2712 -0.2144 -0.2607
  778MOL0     C 4900   8.045   3.632   7.153 -0.1019  0.3508  0.4309
  778MOL0     C 4901   8.056   3.602   7.018  0.2760 -0.4309 -0.6095
  778MOL0     C 4902   8.078   3.469   6.983 -0.2691  0.8525 -0.2464
  778MOL0     O 4903   8.064   3.436   6.852 -0.9201  0.4610 -0.2639
  778MOL0     C 4904   8.125   3.318   6.795 -0.2763  0.8685 -0.0426
  778MOL0     C 4905   8.136   3.343   6.641 -0.7291 -0.4306 -0.3411
  778MOL0     C 4906   7.995   3.339   6.565 -0.0280  0.0132  0.8514
  778MOL0     C 4907   8.020   3.383   6.412 -0.4694 -1.0689 -1.7968
  778MOL0     C 4908   7.899   3.394   6.329  0.6782 -0.4434  0.8864
  778MOL0     C 4909   7.787   3.488   6.368  0.1769 -0.4533  0.4266
  778MOL0     C 4910   7.658   3.454   6.284  0.1949  0.0592 -0.1428
  778MOL0     C 4911   7.560   3.378   6.371  0.0151 -0.2149 -0.2282
  778MOL0     N 4912   7.618   3.270   6.451 -0.3705 -0.8048  0.1638
  778MOL0     C 4913   7.628   3.138   6.411 -0.1530 -0.9843  0.0627
  778MOL0     C 4914   7.682   3.082   6.521  0.1547 -0.4540 -0.3247
  778MOL0     C 4915   7.718   2.934   6.545  0.1823  0.8221  0.1145
  778MOL0     C 4916   7.864   2.923   6.505  0.0161 -0.5406 -1.1849
  778MOL0     C 4917   7.925   2.784   6.528  0.6265  0.2297  0.2590
  778MOL0     C 4918   7.871   2.679   6.431  1.1342 -1.0161 -0.2531
  778MOL0     O 4919   7.904   2.735   6.297 -0.4077 -0.3506 -0.1185
  778MOL0     C 4920   7.913   2.636   6.199 -0.6198  0.0903 -0.5533
  778MOL0     C 4921   7.827   2.530   6.175 -0.0603  0.3769  0.4249
  778MOL0     C 4922   7.846   2.439   6.062  0.2434  0.0389 -0.0828
  778MOL0     C 4923   7.931   2.487   5.967  1.2914  1.0123 -0.2335
  778MOL0     C 4924   7.951   2.405   5.841  0.5148 -0.0704 -0.1086
  778MOL0     O 4925   8.053   2.439   5.752  0.4438  0.0433  0.0056
  778MOL0     C 4926   8.062   2.372   5.632  0.7500 -0.0034  0.3870
  778MOL0     C 4927   8.130   2.441   5.535 -0.4954 -0.7922 -0.3385
  778MOL0     C 4928   8.145   2.392   5.410 -0.1621 -0.2889  0.6391
  778MOL0     C 4929   8.134   2.254   5.387 -0.2823  0.0558 -0.9496
  778MOL0     O 4930   8.179   2.210   5.262  0.0670  0.3802  0.5270
  778MOL0     C 4931   8.120   2.088   5.189 -0.4101 -0.1829  0.1847
  778MOL0     C 4932   8.191   1.963   5.240 -0.4291  0.4510 -0.2090
  778MOL0     C 4933   8.124   1.826   5.211  0.0478 -0.2598  0.2356
  778MOL0     C 4934   8.138   1.783   5.060  0.0059 -0.3666 -0.7284
  778MOL0     C 4935   8.041   1.677   5.019 -0.6195  0.7896 -0.2425
  778MOL0     C 4936   8.048   1.544   5.088 -0.2248  0.4584 -0.0733
  778MOL0     C 4937   7.909   1.486   5.126  1.0835  0.3474  0.3113
  778MOL0     C 4938   7.927   1.338   5.142 -0.2257  0.8521 -0.8940
  778MOL0    Cl 4939   7.781   1.240   5.122  0.6794  0.2417 -0.5365
  778MOL0     C 4940   8.071   2.178   5.482  0.5202 -0.2219 -0.6293
  778MOL0     C 4941   8.037   2.240   5.607  0.9588 -0.2983  0.8352
  778MOL0     O 4942   7.875   2.301   5.832 -0.5260 -0.8564 -0.0344
  778MOL0     C 4943   8.010   2.597   5.984 -0.0772 -0.0542  0.9263
  778MOL0     C 4944   8.003   2.676   6.104 -0.4799  0.3467 -0.8642
  778MOL0     N 4945   7.694   3.165   6.627  1.3073  0.6792  0.4094
  778MOL0     N 4946   7.642   3.281   6.585  0.5043  0.3183 -0.4843
  778MOL0     C 4947   8.110   3.370   7.084  0.1584 -0.0242  0.9082
  778MOL0     C 4948   8.112   3.403   7.215 -0.3811 -0.6656  0.5523
  778MOL0     C 4949   8.142   3.555   7.615  0.2093  0.9218 -0.3604
  778MOL0     C 4950   8.115   3.682   7.663 -0.2333  0.5069 -0.0611
  778MOL0     C 4951   8.100   3.696   7.801 -1.2796  0.2762 -0.5449
  778MOL0     C 4952   8.100   3.592   7.891 -0.0159  0.3562  0.7585
  778MOL0     O 4953   8.080   3.616   8.022  0.2853 -0.4552 -0.4612
  778MOL0     C 4954   8.147   3.725   8.093 -0.2204 -0.3534 -0.2732
  778MOL0     C 4955   8.301   3.702   8.097 -0.0496  0.9620  0.3091
  778MOL0     C 4956   8.355   3.778   8.214 -0.2076  0.2029  0.7010
  778MOL0     C 4957   8.487   3.710   8.260 -0.0454 -0.0536  0.1339
  778MOL0     C 4958   8.582   3.676   8.154  0.5983  1.7811  0.2345
  778MOL0     C 4959   8.654   3.638   8.061  0.5069 -0.4718 -0.1056
  778MOL0     C 4960   8.120   3.463   7.841 -0.2558  0.2665 -2.4477
  778MOL0     C 4961   8.149   3.441   7.701 -0.6724 -0.3021  0.1247
  778MOL0     C 4962   8.214   3.300   7.657 -1.1413  0.4176  0.2850
  778MOL0     H 4963   8.021   3.734   7.184  0.3633  0.8729 -0.8285
  778MOL0     H 4964   8.051   3.681   6.944  0.5686 -1.9457 -2.2982
  778MOL0     H 4965   8.221   3.303   6.846  0.2729  0.1757 -1.2395
  778MOL0     H 4966   8.066   3.232   6.827  0.3662  1.9763  5.0344
  778MOL0     H 4967   8.219   3.284   6.602 -0.3648 -1.7795  2.2505
  778MOL0     H 4968   8.161   3.449   6.637 -2.6606  0.0692 -0.1597
  778MOL0     H 4969   7.923   3.411   6.606 -2.1193 -0.9916 -0.8033
  778MOL0     H 4970   7.948   3.240   6.563 -0.4315  0.1198  2.6851
  778MOL0     H 4971   8.075   3.477   6.421  0.2438 -1.6578  0.7923
  778MOL0     H 4972   8.091   3.317   6.362  3.1815  1.3325 -0.2158
  778MOL0     H 4973   7.934   3.431   6.232  1.3078 -1.2286  0.8016
  778MOL0     H 4974   7.856   3.294   6.333 -0.6339  0.0192 -0.6617
  778MOL0     H 4975   7.770   3.486   6.476  1.1220  3.2163  0.7769
  778MOL0     H 4976   7.830   3.582   6.334 -0.4883 -1.3838 -3.3877
  778MOL0     H 4977   7.688   3.401   6.193  4.5578  1.3720  0.2899
  778MOL0     H 4978   7.611   3.544   6.244 -0.3073 -0.9064 -1.8105
  778MOL0     H 4979   7.514   3.449   6.441  3.7459  1.4916  0.7547
  778MOL0     H 4980   7.475   3.352   6.308  1.3152  2.0148 -3.1840
  778MOL0     H 4981   7.601   3.108   6.310 -0.7363  2.3005 -0.8987
  778MOL0     H 4982   7.693   2.897   6.645 -1.3261  0.4204 -0.3763
  778MOL0     H 4983   7.661   2.873   6.473 -1.6288 -0.1206  2.2234
  778MOL0     H 4984   7.878   2.944   6.399  3.1849  1.9191 -0.4572
  778MOL0     H 4985   7.920   2.992   6.569  4.2780 -3.3864 -1.4255
  778MOL0     H 4986   7.903   2.750   6.629  2.1128 -2.2344 -0.1620
  778MOL0     H 4987   8.032   2.802   6.511  0.5015  0.1637 -0.6584
  778MOL0     H 4988   7.763   2.667   6.449  0.4480 -1.7751 -4.0279
  778MOL0     H 4989   7.919   2.581   6.441 -0.1386 -1.7526 -0.9967
  778MOL0     H 4990   7.746   2.492   6.238  0.8999 -2.6757 -0.0191
  778MOL0     H 4991   7.790   2.347   6.055  3.1470 -1.8548 -0.1565
  778MOL0     H 4992   8.170   2.541   5.555 -0.1587 -1.0301  0.2212
  778MOL0     H 4993   8.192   2.448   5.331 -0.1051  0.8248  1.4311
  778MOL0     H 4994   8.012   2.084   5.201 -0.5857  1.5386 -0.5188
  778MOL0     H 4995   8.133   2.097   5.080  0.3811 -0.1202  0.2779
  778MOL0     H 4996   8.291   1.954   5.196 -0.2507  2.2473 -0.2210
  778MOL0     H 4997   8.204   1.970   5.348 -0.6163  0.5267 -0.1918
  778MOL0     H 4998   8.148   1.744   5.279 -1.6796 -0.1067  1.0906
  778MOL0     H 4999   8.017   1.844   5.226  0.4458  1.5873  1.2285
  778MOL0     H 5000   8.243   1.754   5.054  0.1213 -0.1760  0.1197
  778MOL0     H 5001   8.118   1.863   4.989  0.0559 -1.1425 -1.6354
  778MOL0     H 5002   8.048   1.674   4.910 -1.7877 -0.5667 -0.3042
  778MOL0     H 5003   7.938   1.711   5.034 -0.7639  0.7006 -0.9876
  778MOL0     H 5004   8.108   1.476   5.026 -1.5376 -1.3419  0.5355
  778MOL0     H 5005   8.092   1.557   5.187 -2.3362  0.0347  0.9822
  778MOL0     H 5006   7.836   1.505   5.047  1.4205  1.6211  0.2857
  778MOL0     H 5007   7.874   1.531   5.219  2.5590 -0.8513  1.5033
  778MOL0     H 5008   8.000   1.288   5.078 -3.0408 -3.3547 -1.2484
  778MOL0     H 5009   7.966   1.314   5.242  6.0663 -2.9978 -3.6535
  778MOL0     H 5010   8.077   2.070   5.472 -1.1921 -0.6492  1.9947
  778MOL0     H 5011   8.010   2.167   5.683  1.4193 -2.5738 -1.0454
  778MOL0     H 5012   8.086   2.632   5.915 -0.0872 -0.4265  0.7256
  778MOL0     H 5013   8.068   2.756   6.137  0.8539 -1.2669  0.5870
  778MOL0     H 5014   8.141   3.274   7.044  1.2575  0.9020 -0.5729
  778MOL0     H 5015   8.135   3.329   7.291 -1.0154 -0.7568  0.6641
  778MOL0     H 5016   8.114   3.765   7.593  0.0917  1.2741  0.8174
  778MOL0     H 5017   8.080   3.798   7.832  2.3261  0.3219  2.3629
  778MOL0     H 5018   8.108   3.726   8.196 -0.1173 -0.6213 -0.2319
  778MOL0     H 5019   8.122   3.822   8.049 -0.7295  0.2657  1.3088
  778MOL0     H 5020   8.352   3.728   8.004  1.0557  2.0934  1.2101
  778MOL0     H 5021   8.321   3.595   8.106 -1.8272  0.6655  1.3061
  778MOL0     H 5022   8.290   3.769   8.302 -3.7319  2.4413 -1.3957
  778MOL0     H 5023   8.360   3.886   8.198  0.5843 -0.0444 -0.8414
  778MOL0     H 5024   8.539   3.767   8.337 -1.3846 -2.1613  2.7379
  778MOL0     H 5025   8.452   3.620   8.311 -0.4001 -0.7591 -1.2985
  778MOL0     H 5026   8.729   3.608   7.990  0.4805 -1.8138  0.4085
  778MOL0     H 5027   8.114   3.372   7.899 -0.6737  1.2556 -0.8978
  778MOL0     H 5028   8.174   3.225   7.726  2.4966 -4.2465 -2.1345
  778MOL0     H 5029   8.184   3.279   7.554 -0.5187  1.9207 -0.2409
  778MOL0     H 5030   8.323   3.295   7.661 -1.1711  0.3744  1.5970
  779MOL0     O 5031   1.476   0.302   5.250  0.7959  0.1241  0.0396
  779MOL0     C 5032   1.400   0.307   5.348 -0.2723 -0.3888  0.5977
  779MOL0     O 5033   1.441   0.330   5.472  0.5499  0.5535 -0.0224
  779MOL0     C 5034   1.574   0.303   5.498 -0.1081  0.0487 -0.3354
  779MOL0     C 5035   1.652   0.414   5.540  0.1674  0.1942 -1.2453
  779MOL0     C 5036   1.783   0.382   5.600 -0.0538  0.1401 -0.0325
  779MOL0     C 5037   1.825   0.255   5.610 -0.0698 -0.0303 -0.3879
  779MOL0     O 5038   1.953   0.234   5.653 -0.0217  0.2103 -0.5329
  779MOL0     C 5039   2.052   0.152   5.587  0.7989  1.0143  0.0238
  779MOL0     C 5040   2.191   0.135   5.665  0.7309 -0.5450 -0.0620
  779MOL0     C 5041   2.287   0.068   5.571  0.4301 -0.1605 -0.2427
  779MOL0     C 5042   2.410   0.014   5.644 -0.3536 -0.0409  1.2275
  779MOL0     C 5043   2.513  -0.041   5.548 -0.5248  0.2461 -1.2393
  779MOL0     C 5044   2.473  -0.076   5.403  0.6046  0.1974  0.0879
  779MOL0     C 5045   2.586  -0.156   5.340 -0.1149 -0.4933  0.9561
  779MOL0     C 5046   2.705  -0.060   5.313  0.3227 -0.2715  0.9132
  779MOL0     N 5047   2.800  -0.104   5.203 -0.3769 -0.6925  0.3738
  779MOL0     C 5048   2.854  -0.226   5.190  0.6094 -0.2645  0.3832
  779MOL0     C 5049   2.906  -0.235   5.065  0.1963  0.2200  0.2642
  779MOL0     C 5050   2.973  -0.361   5.015 -0.5829 -1.1677  0.7359
  779MOL0     C 5051   2.914  -0.496   5.059 -0.2226 -0.8668 -0.5281
  779MOL0     C 5052   3.025  -0.604   5.035 -0.3129 -0.3016 -0.1306
  779MOL0     C 5053   2.966  -0.740   5.014  0.3733 -0.1291  0.9118
  779MOL0     O 5054   2.934  -0.783   5.148  0.1190  0.3284 -0.1323
  779MOL0     C 5055   2.842  -0.877   5.159 -0.6726  0.1060  0.3582
  779MOL0     C 5056   2.797  -0.947   5.055  0.6939  0.0626 -0.6103
  779MOL0     C 5057   2.682  -1.032   5.078 -0.8966 -0.4875  0.4176
  779MOL0     C 5058   2.616  -1.046   5.207  0.2803 -0.3953  0.9753
  779MOL0     C 5059   2.505  -1.141   5.238 -0.2878 -0.6563  0.4011
  779MOL0     O 5060   2.421  -1.141   5.126 -0.0533  0.7127  0.1598
  779MOL0     C 5061   2.306  -1.222   5.129 -1.4696  0.1600 -0.1753
  779MOL0     C 5062   2.336  -1.352   5.090 -0.0359  1.2903 -0.2253
  779MOL0     C 5063   2.247  -1.457   5.088  0.5280  0.7043 -0.3242
  779MOL0     C 5064   2.123  -1.436   5.145  0.4189  0.2735  0.2128
  779MOL0     O 5065   2.028  -1.542   5.147 -0.1264 -0.5515 -0.2191
  779MOL0     C 5066   1.958  -1.561   5.269 -0.0130  0.2458 -0.1081
  779MOL0     C 5067   1.878  -1.687   5.270  0.2781  0.9682  0.8964
  779MOL0     C 5068   1.951  -1.814   5.318 -0.9966  0.1571 -0.0183
  779MOL0     C 5069   1.863  -1.900   5.420 -0.4657  0.3235  0.4527
  779MOL0     C 5070   1.749  -1.981   5.341 -0.7696 -0.5027  0.8719
  779MOL0     C 5071   1.608  -1.916   5.351  0.1163 -0.7814  0.1245
  779MOL0     C 5072   1.502  -2.013   5.300  0.7278 -0.1144  0.0883
  779MOL0     C 5073   1.367  -1.956   5.287  0.2600  0.1408 -0.4758
  779MOL0    Cl 5074   1.303  -1.948   5.455 -0.1765 -0.2464  0.2612
  779MOL0     C 5075   2.086  -1.311   5.178 -0.7123 -0.3979 -0.0807
  779MOL0     C 5076   2.176  -1.200   5.172 -0.6696 -0.4162 -0.7756
  779MOL0     O 5077   2.488  -1.200   5.345  0.8846  1.0784 -0.9121
  779MOL0     C 5078   2.676  -0.981   5.313  0.1800 -0.4464 -0.3995
  779MOL0     C 5079   2.784  -0.896   5.287  0.1224 -0.0559  1.6100
  779MOL0     N 5080   2.893  -0.115   5.009  0.3819  0.3033  0.3507
  779MOL0     N 5081   2.821  -0.039   5.085  0.1993  0.3620  0.6261
  779MOL0     C 5082   1.750   0.150   5.559 -0.0319  0.3616  0.6650
  779MOL0     C 5083   1.625   0.174   5.508 -0.4114  0.9802  0.3992
  779MOL0     C 5084   1.251   0.316   5.311  0.0933 -0.2715 -0.1079
  779MOL0     C 5085   1.210   0.229   5.208  0.5114  0.1945 -0.7152
  779MOL0     C 5086   1.069   0.231   5.166 -0.6941 -0.8714  0.3794
  779MOL0     C 5087   0.974   0.329   5.224 -0.6724 -0.2063 -0.7881
  779MOL0     O 5088   0.843   0.339   5.179  0.1438 -0.0571  0.1597
  779MOL0     C 5089   0.797   0.246   5.078  0.3538  0.0853 -0.8337
  779MOL0     C 5090   0.822   0.291   4.927  0.0842 -0.8192 -0.2040
  779MOL0     C 5091   0.772   0.202   4.808  0.6040 -0.3535 -0.0813
  779MOL0     C 5092   0.807   0.055   4.813  0.5779  0.1019  1.4066
  779MOL0     C 5093   0.950   0.039   4.803 -0.2444  0.2127  0.1548
  779MOL0     C 5094   1.077   0.026   4.802  0.2767  0.3691 -0.1635
  779MOL0     C 5095   1.023   0.409   5.327 -0.1141  0.3164  0.2313
  779MOL0     C 5096   1.157   0.401   5.372  0.7244 -1.0973 -0.3903
  779MOL0     C 5097   1.187   0.500   5.477  0.3195  0.3132 -0.1218
  779MOL0     H 5098   1.608   0.513   5.534 -0.8494 -0.2745 -1.7473
  779MOL0     H 5099   1.845   0.458   5.646  2.5097 -0.2827 -2.5393
  779MOL0     H 5100   2.008   0.054   5.567  1.3576  0.8523 -0.4344
  779MOL0     H 5101   2.069   0.192   5.487  1.4845 -2.6502 -1.4918
  779MOL0     H 5102   2.163   0.072   5.751 -1.7028  0.1298 -0.3085
  779MOL0     H 5103   2.226   0.232   5.701 -0.2253 -0.6003  1.0610
  779MOL0     H 5104   2.312   0.139   5.491 -0.9712 -1.2907 -1.7452
  779MOL0     H 5105   2.231  -0.020   5.537 -1.2055 -0.2136  2.3328
  779MOL0     H 5106   2.436   0.090   5.718  1.6054  0.0905  0.4629
  779MOL0     H 5107   2.364  -0.070   5.696 -0.8390  0.7983  2.1998
  779MOL0     H 5108   2.589   0.036   5.531  1.6338 -2.0059 -2.3983
  779MOL0     H 5109   2.556  -0.120   5.610  0.7218  3.0066  1.7290
  779MOL0     H 5110   2.375  -0.126   5.402  0.3787  0.6526 -1.1958
  779MOL0     H 5111   2.453   0.013   5.343 -3.9699 -1.5765 -1.4570
  779MOL0     H 5112   2.558  -0.193   5.240  2.4555 -1.1312  0.4078
  779MOL0     H 5113   2.614  -0.248   5.392  0.5515 -0.3843  0.7999
  779MOL0     H 5114   2.669   0.033   5.269  0.5898 -0.8835 -0.6633
  779MOL0     H 5115   2.763  -0.050   5.406 -0.3812 -1.5958  1.5214
  779MOL0     H 5116   2.841  -0.304   5.264  3.5808 -2.1040 -0.8577
  779MOL0     H 5117   2.993  -0.365   4.908  5.1384 -1.1005  1.5025
  779MOL0     H 5118   3.078  -0.352   5.045 -0.2617  2.4900 -0.9637
  779MOL0     H 5119   2.887  -0.483   5.164 -0.3062  1.2188 -0.7713
  779MOL0     H 5120   2.825  -0.518   5.000 -2.6989  3.5519  1.1405
  779MOL0     H 5121   3.092  -0.596   5.122  1.6030 -0.4649 -1.5350
  779MOL0     H 5122   3.077  -0.583   4.941 -2.5572 -2.0695 -1.8889
  779MOL0     H 5123   3.026  -0.809   4.955  0.0794 -0.3622  0.8862
  779MOL0     H 5124   2.874  -0.736   4.955  2.7355 -3.1759 -3.5266
  779MOL0     H 5125   2.842  -0.941   4.956  2.7798  1.4668  0.3542
  779MOL0     H 5126   2.636  -1.074   4.989 -1.0317  0.6307 -0.0559
  779MOL0     H 5127   2.439  -1.386   5.081 -1.0944 -3.2528  1.8319
  779MOL0     H 5128   2.275  -1.561   5.078  0.5018  0.5360  1.0929
  779MOL0     H 5129   2.029  -1.557   5.352 -0.7309 -0.2031  0.5347
  779MOL0     H 5130   1.899  -1.473   5.299 -1.6686 -1.4955  2.0387
  779MOL0     H 5131   1.782  -1.670   5.320  0.3073  0.1673  1.2413
  779MOL0     H 5132   1.859  -1.710   5.165  0.1355  0.8486  0.9479
  779MOL0     H 5133   1.989  -1.873   5.234 -0.8158 -1.5610  1.2049
  779MOL0     H 5134   2.048  -1.793   5.365  0.5680 -1.2019 -2.4319
  779MOL0     H 5135   1.837  -1.830   5.500  2.5162  1.4150  0.6073
  779MOL0     H 5136   1.927  -1.976   5.465 -1.8829 -2.8696 -2.4655
  779MOL0     H 5137   1.743  -2.085   5.376  2.2375 -1.1977 -0.3798
  779MOL0     H 5138   1.779  -1.991   5.236 -1.1415 -2.1765  0.8931
  779MOL0     H 5139   1.579  -1.891   5.453 -1.6938 -0.0740 -0.5211
  779MOL0     H 5140   1.610  -1.821   5.297 -3.3841  0.5809  2.0018
  779MOL0     H 5141   1.506  -2.107   5.356 -0.4098 -0.9531 -1.1657
  779MOL0     H 5142   1.535  -2.030   5.197  0.4804 -0.0778  0.0025
  779MOL0     H 5143   1.368  -1.854   5.246 -1.3937  0.0998 -0.6550
  779MOL0     H 5144   1.308  -2.018   5.218 -0.8372 -1.7453  2.0131
  779MOL0     H 5145   1.989  -1.285   5.221 -2.4232 -3.0666 -2.0619
  779MOL0     H 5146   2.147  -1.096   5.181 -2.0063 -0.5439 -2.8367
  779MOL0     H 5147   2.652  -1.004   5.416 -0.0460  0.3516 -0.2677
  779MOL0     H 5148   2.830  -0.840   5.366 -0.9521  1.0681  1.4759
  779MOL0     H 5149   1.787   0.048   5.567 -1.5261 -0.2091  0.7421
  779MOL0     H 5150   1.546   0.101   5.491  0.0626  0.3198  0.9392
  779MOL0     H 5151   1.278   0.159   5.162  0.4000 -1.1232  1.0310
  779MOL0     H 5152   1.037   0.162   5.088 -0.1413 -0.1037 -0.5498
  779MOL0     H 5153   0.690   0.237   5.099  0.1342 -1.5321 -2.4242
  779MOL0     H 5154   0.842   0.150   5.105  1.6308  1.0765  0.7768
  779MOL0     H 5155   0.930   0.302   4.916 -0.1770  1.3869 -1.0104
  779MOL0     H 5156   0.785   0.393   4.918 -1.4097 -1.1085  1.9207
  779MOL0     H 5157   0.814   0.243   4.716  1.5402  2.0365  1.3105
  779MOL0     H 5158   0.663   0.204   4.810  0.5455 -0.4916 -1.7758
  779MOL0     H 5159   0.769  -0.002   4.899 -2.2406 -0.5830 -0.1731
  779MOL0     H 5160   0.774   0.005   4.722  0.0285  0.1040  1.6054
  779MOL0     H 5161   1.181   0.009   4.821 -0.1419 -1.1887  0.9336
  779MOL0     H 5162   0.946   0.476   5.364 -0.1487  1.0485 -1.1255
  779MOL0     H 5163   1.112   0.580   5.478  1.9249  2.1200 -4.0092
  779MOL0     H 5164   1.188   0.453   5.576  2.0873 -1.2676 -0.8491
  779MOL0     H 5165   1.282   0.551   5.455  1.7583 -1.9075  0.6522
  780MOL0     O 5166   3.852   1.910  10.021  0.2139 -0.0028  0.6468
  780MOL0     C 5167   3.743   1.934   9.967 -0.2645  0.5812 -1.0264
  780MOL0     O 5168   3.709   1.909   9.839 -0.1659 -0.3559  0.5728
  780MOL0     C 5169   3.778   1.819   9.759 -0.3820  0.5045  0.3940
  780MOL0     C 5170   3.772   1.686   9.782 -0.5686  0.7835 -0.0607
  780MOL0     C 5171   3.851   1.590   9.707 -1.1318  0.4346 -1.1211
  780MOL0     C 5172   3.938   1.646   9.602  0.2623  0.5252 -1.0361
  780MOL0     O 5173   4.004   1.562   9.517  0.5655 -0.3293 -0.1349
  780MOL0     C 5174   4.145   1.562   9.492 -0.4304  0.0726 -0.7333
  780MOL0     C 5175   4.204   1.417   9.530 -0.3927 -0.7113 -0.0808
  780MOL0     C 5176   4.351   1.412   9.517 -0.2991 -0.1593 -0.4159
  780MOL0     C 5177   4.412   1.438   9.647  0.2175 -0.2095 -0.4841
  780MOL0     C 5178   4.559   1.485   9.659  0.0323 -0.0566  0.1315
  780MOL0     C 5179   4.656   1.393   9.596  0.2453 -1.3713 -0.2589
  780MOL0     C 5180   4.801   1.427   9.626 -0.4333 -0.0837  0.0955
  780MOL0     C 5181   4.871   1.378   9.752  0.1438  0.6655  0.0968
  780MOL0     N 5182   4.884   1.230   9.755  0.7533 -0.8604 -0.0511
  780MOL0     C 5183   4.965   1.150   9.681  0.5605 -0.0399 -1.0133
  780MOL0     C 5184   4.966   1.025   9.741  1.0148  0.3976 -0.4092
  780MOL0     C 5185   5.033   0.903   9.692 -1.1961  0.1698  0.5604
  780MOL0     C 5186   5.178   0.901   9.742 -0.2507 -0.5069  0.3868
  780MOL0     C 5187   5.271   0.812   9.665  0.1630 -0.8987  0.3171
  780MOL0     C 5188   5.424   0.846   9.677 -0.0797 -0.1533  0.4004
  780MOL0     O 5189   5.457   0.810   9.810  0.6032 -0.3321 -0.6938
  780MOL0     C 5190   5.485   0.901   9.915  0.6714  0.3852  0.0596
  780MOL0     C 5191   5.497   0.833  10.041  0.3232 -0.4680  0.0990
  780MOL0     C 5192   5.543   0.902  10.157 -0.4302 -0.5363  0.6774
  780MOL0     C 5193   5.577   1.038  10.149  0.3219  0.0152  0.3869
  780MOL0     C 5194   5.597   1.120  10.265 -0.3897  0.4088 -1.6558
  780MOL0     O 5195   5.578   1.253  10.250  0.2838 -0.4635  0.4484
  780MOL0     C 5196   5.555   1.337  10.353  0.7283 -1.0447 -0.6937
  780MOL0     C 5197   5.610   1.475  10.344 -0.6528 -0.2152  0.1663
  780MOL0     C 5198   5.582   1.566  10.444  0.3208 -0.4349 -0.3995
  780MOL0     C 5199   5.503   1.531  10.547  1.0976 -0.0547 -0.1482
  780MOL0     O 5200   5.479   1.631  10.642 -0.1611  0.4589 -0.1013
  780MOL0     C 5201   5.512   1.601  10.779  0.5157  1.0312  0.0896
  780MOL0     C 5202   5.380   1.596  10.856  0.2833  0.1290 -0.7637
  780MOL0     C 5203   5.318   1.735  10.868 -0.2743 -0.1086  0.5442
  780MOL0     C 5204   5.229   1.747  10.989  0.4982  0.0352  0.5204
  780MOL0     C 5205   5.154   1.883  10.997 -0.2527  0.3369  0.1153
  780MOL0     C 5206   5.067   1.891  11.132 -0.0870 -0.1743 -0.1415
  780MOL0     C 5207   4.956   2.009  11.140  0.0860  0.2751  0.1134
  780MOL0     C 5208   5.007   2.152  11.136  0.7648 -0.0822 -0.0482
  780MOL0    Cl 5209   4.877   2.283  11.155 -0.3954 -0.3500  0.0835
  780MOL0     C 5210   5.455   1.404  10.563  1.2845  0.7671  0.2329
  780MOL0     C 5211   5.474   1.305  10.464 -1.0825 -0.1471  0.0314
  780MOL0     O 5212   5.647   1.073  10.368  0.1465  0.2113  0.4161
  780MOL0     C 5213   5.561   1.100  10.020 -0.2233 -0.2792  0.1964
  780MOL0     C 5214   5.513   1.035   9.909 -0.1150 -0.6834  0.0142
  780MOL0     N 5215   4.893   1.040   9.860  0.4447  0.3375 -0.3193
  780MOL0     N 5216   4.838   1.153   9.859  0.1807 -0.1496 -1.1262
  780MOL0     C 5217   3.934   1.779   9.576 -0.3056  0.4284 -0.1462
  780MOL0     C 5218   3.861   1.863   9.651 -0.2551 -1.1800 -0.2810
  780MOL0     C 5219   3.646   2.003  10.048 -0.1937  0.1595  0.4760
  780MOL0     C 5220   3.626   2.140  10.004  0.8166 -0.1719 -0.0798
  780MOL0     C 5221   3.547   2.221  10.079 -0.2016  0.7263  0.8824
  780MOL0     C 5222   3.464   2.175  10.192 -1.2669 -0.1783  0.0229
  780MOL0     O 5223   3.379   2.261  10.249  0.5722  0.5506 -1.1343
  780MOL0     C 5224   3.263   2.207  10.321  0.2529  0.1252  0.3279
  780MOL0     C 5225   3.180   2.119  10.222 -0.9288 -0.0844  0.2167
  780MOL0     C 5226   3.030   2.112  10.222 -0.2898  0.1020  0.6113
  780MOL0     C 5227   2.986   1.998  10.322 -0.4543  0.7625 -0.3785
  780MOL0     C 5228   2.840   1.991  10.327  0.1061 -0.8243 -0.1480
  780MOL0     C 5229   2.721   1.972  10.311  0.0960 -0.2784 -0.0643
  780MOL0     C 5230   3.498   2.043  10.225  0.4199 -0.4903 -0.5250
  780MOL0     C 5231   3.585   1.956  10.160  0.3479  0.3322  0.4641
  780MOL0     C 5232   3.610   1.830  10.233  1.0668 -0.3313  0.1548
  780MOL0     H 5233   3.703   1.651   9.859 -1.8791  0.6352 -1.2566
  780MOL0     H 5234   3.843   1.484   9.724  1.7158 -0.1433 -2.7482
  780MOL0     H 5235   4.158   1.591   9.387 -0.6608 -0.8291 -1.0255
  780MOL0     H 5236   4.189   1.635   9.560 -1.3710  0.2491 -0.2935
  780MOL0     H 5237   4.155   1.354   9.455 -0.7514  0.8728 -1.2362
  780MOL0     H 5238   4.172   1.374   9.625 -0.0427  1.1166  0.9263
  780MOL0     H 5239   4.382   1.474   9.432 -0.8673  1.7525  0.7037
  780MOL0     H 5240   4.382   1.309   9.497  0.3554  0.1961 -1.3242
  780MOL0     H 5241   4.369   1.526   9.695 -0.0690 -1.0117  0.7905
  780MOL0     H 5242   4.383   1.358   9.716  3.0230  0.6829  1.9689
  780MOL0     H 5243   4.575   1.589   9.629  1.4921 -0.4863 -0.6717
  780MOL0     H 5244   4.587   1.472   9.764  0.8995 -2.4060 -0.3268
  780MOL0     H 5245   4.641   1.290   9.628 -1.5634 -0.5025  1.8911
  780MOL0     H 5246   4.636   1.392   9.488 -0.4886  1.6597 -0.2426
  780MOL0     H 5247   4.821   1.534   9.614  2.7903 -0.5480  0.4942
  780MOL0     H 5248   4.861   1.396   9.540 -2.7139 -3.3900 -0.4880
  780MOL0     H 5249   4.972   1.418   9.742  0.1434  0.6871  0.1874
  780MOL0     H 5250   4.819   1.402   9.846  1.4002 -4.3060  2.3595
  780MOL0     H 5251   5.021   1.177   9.592  1.5134  1.4647 -0.0070
  780MOL0     H 5252   4.983   0.813   9.728 -0.3736 -1.1602 -1.4286
  780MOL0     H 5253   5.038   0.895   9.583  2.0623 -0.0344  0.6403
  780MOL0     H 5254   5.215   1.001   9.717 -1.0596 -0.6934 -1.8219
  780MOL0     H 5255   5.180   0.879   9.849  0.1303  0.7553  0.6653
  780MOL0     H 5256   5.258   0.821   9.556 -1.5359 -0.5272  0.5213
  780MOL0     H 5257   5.245   0.711   9.698 -0.6614 -0.0722  2.3470
  780MOL0     H 5258   5.452   0.947   9.647 -2.1355  0.9493  1.9743
  780MOL0     H 5259   5.485   0.775   9.619 -1.9773 -1.6802  0.1796
  780MOL0     H 5260   5.484   0.726  10.056 -0.3141 -0.3750  0.2190
  780MOL0     H 5261   5.539   0.856  10.256  0.9941  2.2902  2.1840
  780MOL0     H 5262   5.674   1.510  10.264 -1.9298 -3.1471 -2.3850
  780MOL0     H 5263   5.594   1.674  10.443 -1.2849 -0.1539 -3.6749
  780MOL0     H 5264   5.559   1.502  10.777 -1.6299 -0.0332 -0.0301
  780MOL0     H 5265   5.584   1.675  10.814  0.3748 -0.4408  3.9271
  780MOL0     H 5266   5.318   1.526  10.800 -1.0078  1.6202 -1.2789
  780MOL0     H 5267   5.400   1.551  10.954 -1.1336  0.1680 -0.4239
  780MOL0     H 5268   5.402   1.806  10.868  1.4230 -1.9893 -0.6310
  780MOL0     H 5269   5.267   1.744  10.772 -0.4916 -3.2759  0.2575
  780MOL0     H 5270   5.280   1.724  11.083  2.4101  0.5350 -0.3313
  780MOL0     H 5271   5.158   1.664  10.983  1.1576 -0.4204 -1.9157
  780MOL0     H 5272   5.085   1.882  10.912 -0.9383 -1.3478  0.6584
  780MOL0     H 5273   5.220   1.970  10.991  0.0634  0.0103 -1.8184
  780MOL0     H 5274   5.015   1.797  11.148 -1.0492  0.4654  0.5754
  780MOL0     H 5275   5.146   1.899  11.207 -0.6520  0.1328  0.4236
  780MOL0     H 5276   4.901   1.992  11.233 -3.2025  2.5504 -1.2169
  780MOL0     H 5277   4.888   2.002  11.055  0.0536  2.3405 -0.0626
  780MOL0     H 5278   5.081   2.167  11.215  2.0359 -2.1065 -0.7855
  780MOL0     H 5279   5.047   2.161  11.035 -3.1775  0.0241 -1.7599
  780MOL0     H 5280   5.396   1.388  10.653  0.3310  3.7779  0.2451
  780MOL0     H 5281   5.416   1.214  10.473 -0.4238 -0.4231  1.7960
  780MOL0     H 5282   5.580   1.206  10.007  0.1207 -0.6364 -3.4119
  780MOL0     H 5283   5.493   1.083   9.814 -0.7077 -5.3523 -2.5260
  780MOL0     H 5284   3.983   1.818   9.487  2.0667 -0.5134  0.6815
  780MOL0     H 5285   3.860   1.966   9.616 -1.2554 -0.7574  0.8956
  780MOL0     H 5286   3.682   2.189   9.925  0.8664  3.3652  1.9316
  780MOL0     H 5287   3.543   2.327  10.057  1.6719  1.4862  3.5808
  780MOL0     H 5288   3.197   2.284  10.362  0.7891 -0.4161  2.3529
  780MOL0     H 5289   3.290   2.145  10.407 -3.0478 -2.5359 -0.3507
  780MOL0     H 5290   3.228   2.021  10.234  1.0142  0.7247 -0.5316
  780MOL0     H 5291   3.202   2.161  10.123  1.9985 -0.9879  0.3838
  780MOL0     H 5292   3.001   2.068  10.125 -0.3231  3.3790 -1.0194
  780MOL0     H 5293   2.981   2.210  10.234 -0.4397  0.1121 -0.0167
  780MOL0     H 5294   3.027   1.903  10.286 -0.9993  0.9442 -1.5448
  780MOL0     H 5295   3.028   2.004  10.422 -0.8433 -1.6762 -0.0048
  780MOL0     H 5296   2.617   1.987  10.287  0.1610  0.3058  0.0100
  780MOL0     H 5297   3.439   2.006  10.308  1.1028 -2.0613 -0.7003
  780MOL0     H 5298   3.544   1.831  10.320  0.0950  2.3661 -0.5078
  780MOL0     H 5299   3.605   1.734  10.180  3.7976 -0.2649 -0.3749
  780MOL0     H 5300   3.704   1.836  10.288  0.7069  1.3332  0.6289
  781MOL0     O 5301  10.865  10.780   7.163  0.3252 -0.7544  0.2419
  781MOL0     C 5302  10.939  10.860   7.101 -0.5550 -0.2895  0.0691
  781MOL0     O 5303  10.899  10.990   7.056  0.0343  0.5546  0.2956
  781MOL0     C 5304  10.779  11.032   7.103 -0.0601 -0.1586  0.9069
  781MOL0     C 5305  10.795  11.139   7.194  0.4384 -0.4680 -0.3525
  781MOL0     C 5306  10.675  11.200   7.245 -0.2740  0.2390  0.5299
  781MOL0     C 5307  10.553  11.140   7.218  0.6990  0.6174  0.0210
  781MOL0     O 5308  10.436  11.178   7.269  0.3052  0.0980 -0.0136
  781MOL0     C 5309  10.400  11.312   7.249  0.7243 -0.3877 -0.4067
  781MOL0     C 5310  10.257  11.338   7.291  0.9198  1.5267 -0.5720
  781MOL0     C 5311  10.216  11.479   7.290 -0.3127 -0.9466  0.4799
  781MOL0     C 5312  10.063  11.512   7.308  0.2629  0.3344  0.5132
  781MOL0     C 5313  10.037  11.664   7.362 -1.1010  0.0580  0.1300
  781MOL0     C 5314   9.892  11.675   7.399 -1.1281  0.0758  0.5099
  781MOL0     C 5315   9.872  11.810   7.461  0.8884  0.0291  0.0453
  781MOL0     C 5316   9.926  11.818   7.607  0.4335  0.4442 -0.7011
  781MOL0     N 5317   9.853  11.930   7.670  0.4618 -0.3057 -0.3082
  781MOL0     C 5318   9.731  11.909   7.734 -0.1491 -1.0735 -0.2794
  781MOL0     C 5319   9.676  12.032   7.741  0.8315  1.3258 -0.6849
  781MOL0     C 5320   9.551  12.063   7.820 -0.0316 -0.6246  0.4946
  781MOL0     C 5321   9.427  12.051   7.734  1.1720  0.2084  0.0737
  781MOL0     C 5322   9.388  11.924   7.669  0.2435  0.7798 -0.2133
  781MOL0     C 5323   9.272  11.941   7.576  0.6984  0.0625  0.0712
  781MOL0     O 5324   9.156  11.992   7.646 -0.4239  0.3562  0.2860
  781MOL0     C 5325   9.048  12.030   7.568 -0.0417 -1.0973  0.2073
  781MOL0     C 5326   8.930  11.955   7.573  0.4950  0.1917 -0.5150
  781MOL0     C 5327   8.817  12.000   7.507 -0.5519  0.0600 -0.2860
  781MOL0     C 5328   8.817  12.127   7.435  0.5638 -0.4837  0.9964
  781MOL0     C 5329   8.695  12.165   7.357 -0.7872  0.4809  0.0710
  781MOL0     O 5330   8.583  12.089   7.351 -0.3348 -0.2352 -0.2610
  781MOL0     C 5331   8.476  12.151   7.284  1.1197  0.1044  0.5718
  781MOL0     C 5332   8.480  12.173   7.145 -0.5826 -0.1221 -0.5025
  781MOL0     C 5333   8.366  12.216   7.070 -0.1887 -0.3909  0.7481
  781MOL0     C 5334   8.245  12.233   7.139 -0.6270  0.4519  0.3761
  781MOL0     O 5335   8.132  12.294   7.079 -0.5172  0.0870  0.3981
  781MOL0     C 5336   8.125  12.325   6.947  0.5595 -1.4674  0.6324
  781MOL0     C 5337   7.991  12.384   6.915  0.2089 -0.6640 -0.7567
  781MOL0     C 5338   7.971  12.511   6.997  0.0301 -0.3767  0.4120
  781MOL0     C 5339   7.859  12.612   6.960 -0.2237 -0.3024  0.3542
  781MOL0     C 5340   7.828  12.727   7.053  0.4336  0.4183 -0.0019
  781MOL0     C 5341   7.937  12.841   7.063 -0.1336  0.8662 -0.4487
  781MOL0     C 5342   7.885  12.975   7.122 -0.0649  0.5296 -0.4532
  781MOL0     C 5343   8.001  13.072   7.160 -0.3354 -0.8281  0.3293
  781MOL0    Cl 5344   8.018  13.172   7.016 -0.1514 -0.7546  0.0316
  781MOL0     C 5345   8.244  12.211   7.279  0.0043 -0.1262  0.3919
  781MOL0     C 5346   8.357  12.160   7.353  0.4653 -0.8230 -0.7928
  781MOL0     O 5347   8.713  12.269   7.297 -0.7600 -0.2897  0.1646
  781MOL0     C 5348   8.937  12.197   7.429  0.2746 -0.0216  0.3465
  781MOL0     C 5349   9.054  12.145   7.489  0.4487  0.5613 -0.2553
  781MOL0     N 5350   9.751  12.121   7.670 -1.1766  0.4687  0.4396
  781MOL0     N 5351   9.865  12.065   7.638  0.8016  0.3704 -0.7958
  781MOL0     C 5352  10.546  11.024   7.142 -0.3161  0.2313  0.1171
  781MOL0     C 5353  10.655  10.977   7.078  0.0891  0.4712 -0.1574
  781MOL0     C 5354  11.071  10.813   7.068  0.6952 -0.0225 -0.3088
  781MOL0     C 5355  11.153  10.909   7.008  0.2753 -1.2320 -0.7494
  781MOL0     C 5356  11.286  10.892   6.988 -0.4634  0.0826  0.2022
  781MOL0     C 5357  11.351  10.785   7.047  0.5101  1.1653  0.0446
  781MOL0     O 5358  11.483  10.806   7.047 -0.7783  0.3605 -0.1508
  781MOL0     C 5359  11.574  10.695   7.057 -0.1862  1.2965 -0.5317
  781MOL0     C 5360  11.704  10.765   7.078  0.4635  0.6654  0.5360
  781MOL0     C 5361  11.826  10.695   7.018  0.7959  0.1528 -0.3211
  781MOL0     C 5362  11.950  10.784   7.050  0.4884  0.5342 -0.7453
  781MOL0     C 5363  12.063  10.708   7.020  0.7186  0.1021  1.2850
  781MOL0     C 5364  12.151  10.624   6.987 -0.0845  0.4421 -1.1170
  781MOL0     C 5365  11.273  10.674   7.097  0.8729  0.4084  0.4296
  781MOL0     C 5366  11.134  10.692   7.107 -1.1277  0.6165  0.0493
  781MOL0     C 5367  11.055  10.580   7.164  0.3590  0.1061 -0.6100
  781MOL0     H 5368  10.891  11.182   7.220 -0.8109  1.2963  1.6533
  781MOL0     H 5369  10.676  11.283   7.314 -0.4726  2.0788 -1.5797
  781MOL0     H 5370  10.457  11.383   7.310 -0.9967  1.0240 -0.3424
  781MOL0     H 5371  10.397  11.348   7.146 -0.0849  3.5249  0.7958
  781MOL0     H 5372  10.254  11.306   7.396  2.4185 -0.1613 -0.9943
  781MOL0     H 5373  10.183  11.288   7.229 -0.9339  0.2299  2.4486
  781MOL0     H 5374  10.253  11.510   7.192 -1.4136  0.0980  0.3817
  781MOL0     H 5375  10.280  11.534   7.359 -2.0077  0.4950  0.9664
  781MOL0     H 5376  10.001  11.491   7.221  0.0727  1.6116  0.3152
  781MOL0     H 5377  10.024  11.441   7.382 -1.6801 -0.9012 -1.5855
  781MOL0     H 5378  10.109  11.686   7.442  1.0055 -1.4117 -1.2460
  781MOL0     H 5379  10.056  11.720   7.270 -1.3221 -0.1701 -0.0557
  781MOL0     H 5380   9.826  11.677   7.312 -0.5267  2.6046  0.0103
  781MOL0     H 5381   9.865  11.597   7.471 -1.4278 -1.2066 -0.9429
  781MOL0     H 5382   9.767  11.838   7.457  1.3478  2.1904  1.6006
  781MOL0     H 5383   9.931  11.877   7.398  1.1985 -0.3894 -0.1180
  781MOL0     H 5384   9.908  11.727   7.664  5.6380 -0.0091  0.7260
  781MOL0     H 5385  10.036  11.821   7.604  0.4228  1.2874 -0.5312
  781MOL0     H 5386   9.698  11.817   7.782 -0.1070 -1.4134 -0.8963
  781MOL0     H 5387   9.554  11.991   7.902 -0.1887 -0.6842  0.4478
  781MOL0     H 5388   9.554  12.167   7.855  0.3547  0.6194 -2.8845
  781MOL0     H 5389   9.351  12.053   7.813 -0.1573 -0.6985 -1.1186
  781MOL0     H 5390   9.410  12.133   7.663 -0.4724 -0.3082 -0.1886
  781MOL0     H 5391   9.369  11.847   7.744  1.7019  1.4934  0.9432
  781MOL0     H 5392   9.469  11.880   7.609  0.0978 -2.1916  1.5555
  781MOL0     H 5393   9.231  11.850   7.532  1.1214 -0.2507  0.3085
  781MOL0     H 5394   9.304  12.014   7.502  1.9830  0.4285  0.9489
  781MOL0     H 5395   8.901  11.868   7.631 -1.4086  0.7639 -0.5542
  781MOL0     H 5396   8.731  11.936   7.517 -1.8558  1.4301 -2.0603
  781MOL0     H 5397   8.578  12.154   7.102  0.3458  0.4444  1.2709
  781MOL0     H 5398   8.380  12.238   6.965  2.3936  2.7883  1.6065
  781MOL0     H 5399   8.202  12.395   6.916  0.9341 -2.0089  0.3297
  781MOL0     H 5400   8.138  12.235   6.887 -2.3390  1.6523 -5.6389
  781MOL0     H 5401   7.981  12.402   6.807  1.0091 -2.2704 -1.1358
  781MOL0     H 5402   7.918  12.305   6.935  1.9609 -2.9010 -2.5607
  781MOL0     H 5403   7.961  12.482   7.102  2.3957 -2.8125  0.0987
  781MOL0     H 5404   8.064  12.564   6.976  1.1888 -1.6476  2.0794
  781MOL0     H 5405   7.759  12.569   6.949  0.6307 -2.2259 -0.4005
  781MOL0     H 5406   7.872  12.655   6.860  2.2475 -1.6292  0.0286
  781MOL0     H 5407   7.812  12.690   7.154  0.4881 -0.0357 -0.1560
  781MOL0     H 5408   7.737  12.770   7.011 -1.5452 -0.7431  2.8227
  781MOL0     H 5409   8.017  12.799   7.125 -2.3729 -1.8539  0.8530
  781MOL0     H 5410   7.983  12.856   6.965  1.2985  1.7964  0.3316
  781MOL0     H 5411   7.844  12.950   7.221  0.1061  3.6002  0.4837
  781MOL0     H 5412   7.803  13.017   7.062 -1.3890 -0.8464  0.2889
  781MOL0     H 5413   7.978  13.135   7.245  1.9428 -1.1879  1.2835
  781MOL0     H 5414   8.089  13.011   7.181 -1.5759 -2.9839 -0.3634
  781MOL0     H 5415   8.155  12.222   7.341  1.5910 -2.4280  3.3463
  781MOL0     H 5416   8.368  12.143   7.459  4.3228  0.0825 -0.9294
  781MOL0     H 5417   8.937  12.299   7.391  0.2531 -0.2037 -0.1494
  781MOL0     H 5418   9.140  12.211   7.488 -0.3357  1.7483  2.3514
  781MOL0     H 5419  10.456  10.968   7.115  0.3548  0.4780 -2.9916
  781MOL0     H 5420  10.631  10.898   7.008 -1.3498  0.8999 -0.1920
  781MOL0     H 5421  11.105  11.005   6.992  0.8875 -0.6250  0.8324
  781MOL0     H 5422  11.353  10.962   6.938  4.6774 -1.9066  3.5230
  781MOL0     H 5423  11.575  10.630   6.969  2.1325 -2.2917  1.8989
  781MOL0     H 5424  11.547  10.629   7.141 -0.3146  2.4679  0.3751
  781MOL0     H 5425  11.711  10.772   7.187  1.8753  0.3143  0.4900
  781MOL0     H 5426  11.709  10.867   7.038  2.5192  1.1627  1.8768
  781MOL0     H 5427  11.811  10.691   6.910 -0.3191  0.2701 -0.1845
  781MOL0     H 5428  11.834  10.595   7.062 -1.1491 -0.1955 -0.6794
  781MOL0     H 5429  11.947  10.875   6.989 -0.4014  3.1294  2.8315
  781MOL0     H 5430  11.952  10.803   7.158 -1.1758 -0.3778 -0.5122
  781MOL0     H 5431  12.223  10.549   6.960  0.7389  0.0760  1.7577
  781MOL0     H 5432  11.311  10.578   7.131 -3.1685 -1.3035  0.6722
  781MOL0     H 5433  11.112  10.489   7.185  0.1047  0.1754  0.4575
  781MOL0     H 5434  11.004  10.608   7.257 -3.2964 -4.0521 -1.0467
  781MOL0     H 5435  10.976  10.543   7.098 -1.8169  2.3688  0.5524
  782MOL0     O 5436  10.239   1.373   0.733  0.0464  0.8507 -0.2438
  782MOL0     C 5437  10.256   1.447   0.639  0.6823 -0.1187 -0.0851
  782MOL0     O 5438  10.176   1.470   0.539  0.0489 -0.0920  0.0769
  782MOL0     C 5439  10.078   1.375   0.527  0.0518 -0.0185  1.0450
  782MOL0     C 5440  10.091   1.256   0.459 -0.2510  1.0333  0.1495
  782MOL0     C 5441   9.994   1.150   0.458  0.6690  0.5209 -0.0409
  782MOL0     C 5442   9.872   1.172   0.521  0.4205  0.3329  0.3169
  782MOL0     O 5443   9.772   1.081   0.520 -0.0121  0.0020 -0.2616
  782MOL0     C 5444   9.811   0.949   0.570  0.2764 -0.3913 -0.7668
  782MOL0     C 5445   9.679   0.864   0.579 -0.3787  0.0268  0.3888
  782MOL0     C 5446   9.691   0.725   0.628 -0.1594 -0.4817 -0.8095
  782MOL0     C 5447   9.770   0.639   0.540 -0.0331  0.9621  0.4493
  782MOL0     C 5448   9.809   0.517   0.632 -0.3432 -0.9589  0.8874
  782MOL0     C 5449   9.960   0.545   0.680  1.9432 -0.4714 -0.1461
  782MOL0     C 5450  10.036   0.418   0.720  0.5281  0.4576  0.0079
  782MOL0     C 5451  10.109   0.344   0.604  0.5285  0.6104 -0.1092
  782MOL0     N 5452  10.014   0.322   0.496 -0.0136  0.1423  0.8699
  782MOL0     C 5453   9.999   0.391   0.386 -1.4237  0.9541  0.4808
  782MOL0     C 5454   9.916   0.311   0.305 -0.4878 -0.7616  0.3921
  782MOL0     C 5455   9.852   0.368   0.174  0.8492  1.0636  0.1523
  782MOL0     C 5456   9.706   0.392   0.190  0.1932  0.1760 -0.1192
  782MOL0     C 5457   9.629   0.463   0.072  0.3880  0.4486 -0.3866
  782MOL0     C 5458   9.679   0.594   0.019  0.5412 -1.0102  0.3557
  782MOL0     O 5459   9.650   0.686   0.133 -0.0551  0.1395  0.7472
  782MOL0     C 5460   9.712   0.810   0.125  1.2214  0.0027 -0.5315
  782MOL0     C 5461   9.855   0.817   0.137  0.5589 -0.5996 -0.3332
  782MOL0     C 5462   9.918   0.945   0.123  0.4492  0.3944 -0.2533
  782MOL0     C 5463   9.841   1.063   0.103  0.0374  0.5832  0.8686
  782MOL0     C 5464   9.891   1.202   0.081 -0.4763 -0.2786 -0.2755
  782MOL0     O 5465   9.811   1.313   0.076  0.4351  0.3627  0.6317
  782MOL0     C 5466   9.873   1.426   0.092 -0.4782 -1.1601  0.2737
  782MOL0     C 5467   9.954   1.457   0.203  0.0968  1.2032  0.8999
  782MOL0     C 5468  10.009   1.578   0.220  0.3529  0.1680 -0.4599
  782MOL0     C 5469   9.979   1.686   0.134 -0.5335  0.0439 -0.2663
  782MOL0     O 5470  10.022   1.812   0.158 -0.4935 -0.3663  0.4010
  782MOL0     C 5471  10.165   1.825   0.184 -0.0766 -0.1726 -0.1341
  782MOL0     C 5472  10.207   1.978   0.165  0.1834 -0.3353  0.2818
  782MOL0     C 5473  10.356   2.008   0.201  0.1656 -0.0209 -0.5888
  782MOL0     C 5474  10.444   2.010   0.072  0.1470  0.2549  0.2258
  782MOL0     C 5475  10.600   2.017   0.098  0.0845  0.0610  0.3217
  782MOL0     C 5476  10.663   1.874   0.112 -0.1770 -0.2992 -0.2839
  782MOL0     C 5477  10.814   1.866   0.133  0.1400 -0.4171 -0.3812
  782MOL0     C 5478  10.895   1.898   0.013 -1.1122 -0.0195 -0.0974
  782MOL0    Cl 5479  10.838   1.830  -0.144  0.0092  0.2322 -0.0310
  782MOL0     C 5480   9.900   1.650   0.023  0.1119 -0.0172 -0.2544
  782MOL0     C 5481   9.859   1.524  -0.004 -0.8837 -0.3477  0.4771
  782MOL0     O 5482  10.016   1.206   0.072 -0.2761  0.0406 -1.1429
  782MOL0     C 5483   9.707   1.041   0.083 -0.4256 -0.5144 -0.5699
  782MOL0     C 5484   9.636   0.934   0.104  0.4775 -0.0059  0.2095
  782MOL0     N 5485   9.888   0.196   0.367 -0.0213  0.6220 -1.1949
  782MOL0     N 5486   9.948   0.204   0.487  0.5935 -0.1574 -0.6959
  782MOL0     C 5487   9.848   1.296   0.587 -0.5661 -0.2184  0.1756
  782MOL0     C 5488   9.956   1.392   0.574  1.5192 -0.8076 -0.5917
  782MOL0     C 5489  10.381   1.519   0.631  0.7484  0.4707  0.0494
  782MOL0     C 5490  10.426   1.561   0.505  0.5473 -0.9200 -0.0057
  782MOL0     C 5491  10.558   1.603   0.489  0.0412  0.3778  0.3685
  782MOL0     C 5492  10.649   1.600   0.594 -0.5649  0.2495  0.4409
  782MOL0     O 5493  10.774   1.655   0.560 -0.4380 -0.1603 -0.3013
  782MOL0     C 5494  10.881   1.637   0.655 -1.0422 -0.8459  0.1681
  782MOL0     C 5495  11.010   1.688   0.583 -0.1334 -0.2722  0.0944
  782MOL0     C 5496  11.060   1.605   0.460 -0.0553 -0.0419 -0.6103
  782MOL0     C 5497  11.194   1.659   0.426 -0.1773 -0.2411  0.2616
  782MOL0     C 5498  11.185   1.801   0.374  0.1543  0.6775  0.1590
  782MOL0     C 5499  11.162   1.903   0.313 -0.2133 -1.1153 -0.2972
  782MOL0     C 5500  10.613   1.549   0.718  0.0686  0.8619  0.4357
  782MOL0     C 5501  10.476   1.511   0.733 -0.0110  0.2617 -0.0907
  782MOL0     C 5502  10.447   1.479   0.881 -0.1283 -0.6273 -0.0382
  782MOL0     H 5503  10.190   1.265   0.417 -1.1434  1.7926 -1.9018
  782MOL0     H 5504  10.000   1.067   0.388 -1.2690 -2.1391  2.6828
  782MOL0     H 5505   9.877   0.901   0.498  0.6136  1.9515 -2.0966
  782MOL0     H 5506   9.861   0.970   0.665 -1.0745  0.8200 -0.2686
  782MOL0     H 5507   9.640   0.853   0.477 -1.3318 -1.4096  0.8795
  782MOL0     H 5508   9.603   0.917   0.637  2.0021  0.0903  3.6748
  782MOL0     H 5509   9.593   0.677   0.629 -0.4866  0.1412 -2.0641
  782MOL0     H 5510   9.746   0.734   0.723 -0.0835 -4.0485 -0.3669
  782MOL0     H 5511   9.699   0.587   0.475  1.7119 -0.5396 -0.3422
  782MOL0     H 5512   9.856   0.685   0.492 -0.0729 -2.2106 -3.1662
  782MOL0     H 5513   9.737   0.503   0.714 -0.9477 -1.9868  0.2148
  782MOL0     H 5514   9.795   0.425   0.574  0.4629 -2.7174  3.3044
  782MOL0     H 5515  10.025   0.605   0.615  1.5593 -1.7048 -1.7543
  782MOL0     H 5516   9.938   0.595   0.774  1.9567 -1.7321  0.5458
  782MOL0     H 5517   9.956   0.352   0.758 -0.7430  2.3576  0.7960
  782MOL0     H 5518  10.114   0.432   0.795  0.5954 -1.1641  0.2840
  782MOL0     H 5519  10.205   0.391   0.581  1.8266 -1.0259  1.6467
  782MOL0     H 5520  10.135   0.242   0.633 -1.3595 -0.0613 -0.6366
  782MOL0     H 5521  10.042   0.490   0.370 -2.4147  1.5020  1.1113
  782MOL0     H 5522   9.895   0.463   0.140  0.7946  0.7902 -0.7120
  782MOL0     H 5523   9.862   0.298   0.090 -0.9868  1.9739 -0.9130
  782MOL0     H 5524   9.656   0.297   0.213 -0.7160  1.4047  3.8378
  782MOL0     H 5525   9.685   0.450   0.280 -1.6457 -1.2749  0.4545
  782MOL0     H 5526   9.523   0.468   0.095  0.0541 -0.9570 -1.4205
  782MOL0     H 5527   9.648   0.395  -0.012  1.5411  0.9947 -0.5917
  782MOL0     H 5528   9.611   0.617  -0.063 -1.0369 -2.5364  1.1785
  782MOL0     H 5529   9.785   0.584  -0.010  1.6541 -3.4353  4.4116
  782MOL0     H 5530   9.910   0.728   0.164 -0.0498 -1.7385 -2.6051
  782MOL0     H 5531  10.023   0.963   0.143  1.3203 -2.1931 -2.0091
  782MOL0     H 5532   9.962   1.376   0.275  2.2874 -0.9534 -1.5625
  782MOL0     H 5533  10.064   1.602   0.310 -0.4801 -3.3132  1.1546
  782MOL0     H 5534  10.180   1.791   0.287  2.3363 -0.6082 -0.5651
  782MOL0     H 5535  10.219   1.753   0.122 -1.3533 -3.7289  2.5374
  782MOL0     H 5536  10.186   2.016   0.064 -1.6036 -0.4999  0.5614
  782MOL0     H 5537  10.160   2.036   0.244  0.4187 -0.3207  0.4097
  782MOL0     H 5538  10.362   2.107   0.248  2.3232  0.4110 -1.6721
  782MOL0     H 5539  10.394   1.926   0.262 -0.7459  0.2343  0.3557
  782MOL0     H 5540  10.415   2.106   0.029  1.1090  0.4247 -0.0634
  782MOL0     H 5541  10.422   1.926   0.006  2.8480 -0.3738 -0.0246
  782MOL0     H 5542  10.624   2.069   0.191  1.8570  2.0872 -1.1683
  782MOL0     H 5543  10.658   2.063   0.018  1.6392  0.5510  1.6748
  782MOL0     H 5544  10.619   1.817   0.194 -1.5669  1.6489  0.4014
  782MOL0     H 5545  10.635   1.827   0.017  0.1726 -1.5319  0.1968
  782MOL0     H 5546  10.834   1.761   0.155  0.3824 -0.2123  0.3913
  782MOL0     H 5547  10.840   1.919   0.225 -1.4758 -0.9992  0.4552
  782MOL0     H 5548  10.893   2.005  -0.007 -0.1818  0.4140  1.8640
  782MOL0     H 5549  10.996   1.860   0.031 -1.4259 -1.7432 -1.6277
  782MOL0     H 5550   9.856   1.727  -0.041  2.5236  3.2266  1.6867
  782MOL0     H 5551   9.799   1.516  -0.094 -1.1172 -2.1467  0.7699
  782MOL0     H 5552   9.647   1.125   0.052 -2.2584 -1.9436 -1.0669
  782MOL0     H 5553   9.528   0.933   0.101  0.3579  3.1082  0.1845
  782MOL0     H 5554   9.755   1.313   0.640 -0.0973 -0.4709  1.1056
  782MOL0     H 5555   9.931   1.488   0.619 -1.1344 -1.5640 -0.2607
  782MOL0     H 5556  10.349   1.563   0.428  0.8794 -3.7057 -0.5109
  782MOL0     H 5557  10.593   1.654   0.399  1.1918  0.4089  0.8148
  782MOL0     H 5558  10.899   1.534   0.686 -2.4731 -1.0097  0.5325
  782MOL0     H 5559  10.852   1.701   0.739 -2.1857 -0.6350 -0.3662
  782MOL0     H 5560  11.087   1.694   0.661 -0.0416 -0.8119  0.0430
  782MOL0     H 5561  10.991   1.791   0.550 -0.0330 -0.8412 -1.8575
  782MOL0     H 5562  11.005   1.614   0.366 -1.3714  0.0884  0.1483
  782MOL0     H 5563  11.064   1.500   0.491 -0.8650 -0.0669 -0.5672
  782MOL0     H 5564  11.257   1.663   0.515 -0.5707  1.5367  0.4882
  782MOL0     H 5565  11.241   1.593   0.352 -1.3209 -1.2025  0.3521
  782MOL0     H 5566  11.143   1.994   0.259  2.4154  1.2605  2.4261
  782MOL0     H 5567  10.676   1.532   0.805  5.8006 -2.4878 -3.6480
  782MOL0     H 5568  10.440   1.372   0.904  1.9687 -0.5887  1.0570
  782MOL0     H 5569  10.509   1.545   0.943 -0.4164 -0.4280  0.0391
  782MOL0     H 5570  10.345   1.516   0.892 -0.6855 -0.7061 -3.6785
  783MOL0     O 5571   7.913   3.297   3.590 -1.1769 -0.0212  1.0116
  783MOL0     C 5572   8.028   3.335   3.632  0.6666 -0.0487  0.2778
  783MOL0     O 5573   8.110   3.428   3.574  0.1941 -0.1916 -0.0780
  783MOL0     C 5574   8.050   3.514   3.481 -0.7080 -0.2430  0.4804
  783MOL0     C 5575   8.089   3.505   3.346 -0.5694 -1.1076 -0.5986
  783MOL0     C 5576   8.037   3.586   3.249 -0.1957 -0.4825  0.9766
  783MOL0     C 5577   7.952   3.692   3.289  0.2039  0.9410  0.6160
  783MOL0     O 5578   7.895   3.783   3.202  0.4722 -0.1500 -0.5072
  783MOL0     C 5579   7.784   3.737   3.142  0.0660  0.1506  0.3596
  783MOL0     C 5580   7.760   3.778   2.999 -1.1325 -1.1352 -0.3860
  783MOL0     C 5581   7.882   3.728   2.912  0.1263 -0.6141 -0.1262
  783MOL0     C 5582   7.862   3.792   2.779  0.3971  0.0647  0.9597
  783MOL0     C 5583   7.984   3.762   2.685  0.6514 -0.9214  0.1041
  783MOL0     C 5584   7.975   3.841   2.555  1.0596 -0.0668  0.1064
  783MOL0     C 5585   7.869   3.774   2.464  0.1414  0.1382  0.1991
  783MOL0     C 5586   7.877   3.834   2.328  0.3075 -0.4537 -0.2424
  783MOL0     N 5587   7.800   3.761   2.229 -0.6962  0.7331  0.8146
  783MOL0     C 5588   7.663   3.778   2.193  0.4996 -0.3513  0.9558
  783MOL0     C 5589   7.639   3.677   2.108 -1.4448 -0.5497  0.8186
  783MOL0     C 5590   7.502   3.638   2.062  0.0601  0.0454  0.0266
  783MOL0     C 5591   7.488   3.482   2.048 -0.4540  0.4071  0.5137
  783MOL0     C 5592   7.369   3.440   1.955  0.3349 -0.0842 -0.3557
  783MOL0     C 5593   7.358   3.290   1.938  0.7363  0.3391 -0.2577
  783MOL0     O 5594   7.299   3.221   2.052  0.2455  0.7818  0.4324
  783MOL0     C 5595   7.293   3.088   2.035  0.2716 -0.1377  0.7241
  783MOL0     C 5596   7.188   3.035   2.107  0.1639 -0.5343 -0.0762
  783MOL0     C 5597   7.170   2.895   2.104  1.0306  0.8301  0.0304
  783MOL0     C 5598   7.243   2.817   2.016 -0.0064  0.7999  0.5667
  783MOL0     C 5599   7.206   2.669   1.990  1.5916 -0.3668  1.0509
  783MOL0     O 5600   7.070   2.623   2.016 -1.0671 -0.2047 -0.1106
  783MOL0     C 5601   7.032   2.491   2.026  0.8031  0.3147  0.0405
  783MOL0     C 5602   6.890   2.479   2.020 -0.7925 -0.4367  1.2714
  783MOL0     C 5603   6.830   2.356   2.029 -0.1829 -0.6970 -0.5180
  783MOL0     C 5604   6.912   2.244   2.048  0.1600 -0.3575  0.2610
  783MOL0     O 5605   6.857   2.121   2.053  0.1464 -0.5809 -0.6874
  783MOL0     C 5606   6.767   2.080   1.954  0.4802 -0.3751 -0.2384
  783MOL0     C 5607   6.837   1.965   1.876 -0.9921 -0.3466  0.1917
  783MOL0     C 5608   6.900   1.845   1.957 -0.5597  0.2833  0.7819
  783MOL0     C 5609   6.993   1.754   1.883 -0.9986  0.5914  0.8297
  783MOL0     C 5610   6.917   1.684   1.759 -0.4139  0.2535  0.2472
  783MOL0     C 5611   7.001   1.578   1.684  0.2300  0.3318  0.0230
  783MOL0     C 5612   7.152   1.593   1.675  0.1655  0.9559  0.4169
  783MOL0     C 5613   7.202   1.481   1.586  0.2428 -0.4507 -0.0106
  783MOL0    Cl 5614   7.138   1.493   1.415 -0.7112  0.1699  0.5732
  783MOL0     C 5615   7.046   2.260   2.055  0.1042  0.2007  0.2253
  783MOL0     C 5616   7.112   2.387   2.054  0.3947 -0.1550  0.4655
  783MOL0     O 5617   7.291   2.600   1.947  0.0916 -0.1104  0.1074
  783MOL0     C 5618   7.338   2.871   1.929  0.0679  0.1976  0.8153
  783MOL0     C 5619   7.364   3.009   1.940  0.3498  0.3276 -0.9962
  783MOL0     N 5620   7.757   3.617   2.070  0.0224 -0.2291  0.0712
  783MOL0     N 5621   7.851   3.657   2.150 -0.5605 -0.3861  0.1665
  783MOL0     C 5622   7.905   3.701   3.425 -0.7610  0.2260  0.6743
  783MOL0     C 5623   7.957   3.611   3.518 -0.4142  0.2136 -0.3910
  783MOL0     C 5624   8.075   3.265   3.758 -0.4289  0.2955 -0.1417
  783MOL0     C 5625   8.157   3.337   3.845  0.8126 -0.2995  1.1861
  783MOL0     C 5626   8.194   3.288   3.966 -0.4570 -0.0588 -0.0847
  783MOL0     C 5627   8.161   3.163   4.001 -0.0863  0.1906  0.5289
  783MOL0     O 5628   8.207   3.134   4.122  0.3678  0.9065 -0.7092
  783MOL0     C 5629   8.213   2.998   4.164  0.4079 -0.2311 -0.5730
  783MOL0     C 5630   8.101   2.958   4.253  1.0640 -1.1708  0.2108
  783MOL0     C 5631   8.089   2.806   4.272 -0.7067 -0.3487 -0.1895
  783MOL0     C 5632   7.981   2.754   4.356 -0.3226 -0.1066 -0.5211
  783MOL0     C 5633   7.977   2.803   4.488  0.1984  0.2503 -2.5569
  783MOL0     C 5634   7.964   2.827   4.614  0.1849  0.2085  0.4920
  783MOL0     C 5635   8.087   3.081   3.918  0.3395 -0.3478 -0.6469
  783MOL0     C 5636   8.046   3.131   3.796 -1.0252 -0.1124  1.3328
  783MOL0     C 5637   7.989   3.041   3.691  0.6064  0.3109  0.5051
  783MOL0     H 5638   8.170   3.441   3.314  0.6302 -0.8583  1.7339
  783MOL0     H 5639   8.085   3.581   3.152  0.5603  1.1013  1.2288
  783MOL0     H 5640   7.789   3.629   3.128  0.2549 -0.0075  1.5603
  783MOL0     H 5641   7.692   3.761   3.196  1.0760  0.5772  1.9359
  783MOL0     H 5642   7.758   3.887   3.000 -0.0386 -1.1031  0.7593
  783MOL0     H 5643   7.665   3.741   2.960 -1.3555 -1.3982  0.3883
  783MOL0     H 5644   7.906   3.622   2.902 -0.4148 -0.5185 -3.2186
  783MOL0     H 5645   7.977   3.769   2.949 -0.3663 -0.2224  0.7291
  783MOL0     H 5646   7.767   3.757   2.739 -0.0222 -0.2057  2.1370
  783MOL0     H 5647   7.854   3.901   2.791  0.6330  0.2212 -0.2303
  783MOL0     H 5648   8.077   3.785   2.738 -0.2366 -0.8269  1.7040
  783MOL0     H 5649   7.996   3.654   2.668  2.1561 -0.9874  1.3387
  783MOL0     H 5650   7.940   3.944   2.567  0.0772 -0.2910 -0.6308
  783MOL0     H 5651   8.069   3.848   2.501  1.6409 -7.2946 -0.6975
  783MOL0     H 5652   7.763   3.778   2.492 -0.4750 -1.7154 -1.5897
  783MOL0     H 5653   7.896   3.669   2.459 -6.3042 -1.9177 -1.4892
  783MOL0     H 5654   7.844   3.938   2.329 -0.3343 -0.6519  0.1687
  783MOL0     H 5655   7.980   3.838   2.293  0.0385  1.9450 -0.9286
  783MOL0     H 5656   7.582   3.823   2.249  0.3909  0.7928 -0.0942
  783MOL0     H 5657   7.440   3.678   2.143 -0.9369 -1.1325 -0.1217
  783MOL0     H 5658   7.460   3.691   1.975 -2.3960 -2.8201 -0.7112
  783MOL0     H 5659   7.571   3.432   1.998 -0.2006  0.1021  1.2382
  783MOL0     H 5660   7.475   3.440   2.148 -1.5269  0.3436  0.3577
  783MOL0     H 5661   7.366   3.478   1.853  1.2589 -1.9281 -1.1219
  783MOL0     H 5662   7.272   3.453   2.002 -1.1751 -4.2451 -1.8297
  783MOL0     H 5663   7.461   3.257   1.924  2.1485  4.3799 -0.4699
  783MOL0     H 5664   7.303   3.261   1.847  2.3138 -3.1280 -0.2702
  783MOL0     H 5665   7.132   3.107   2.166  3.1065  0.9925  1.0471
  783MOL0     H 5666   7.092   2.841   2.155  0.9189 -0.9001 -1.8246
  783MOL0     H 5667   6.832   2.567   1.994  1.8094  0.8754 -0.6309
  783MOL0     H 5668   6.723   2.338   2.022 -0.9721  2.7902  0.6766
  783MOL0     H 5669   6.672   2.033   1.979 -1.6103  2.7622 -1.5893
  783MOL0     H 5670   6.738   2.165   1.892 -0.2412  0.5019  1.2248
  783MOL0     H 5671   6.784   1.933   1.785 -1.1159 -0.9775  0.4854
  783MOL0     H 5672   6.915   2.034   1.843 -0.1236 -0.7757  1.2922
  783MOL0     H 5673   6.945   1.887   2.048 -1.7722  2.8206  0.3014
  783MOL0     H 5674   6.820   1.777   1.986  0.7248 -2.2165 -1.1985
  783MOL0     H 5675   7.026   1.679   1.954  0.6871 -1.0514 -1.5076
  783MOL0     H 5676   7.080   1.808   1.843 -1.2995  0.4178 -0.0828
  783MOL0     H 5677   6.878   1.756   1.686 -2.1057  0.9096  1.7157
  783MOL0     H 5678   6.825   1.640   1.797 -1.7374  2.8723  0.3446
  783MOL0     H 5679   6.983   1.480   1.729  2.5625 -1.3496 -2.3987
  783MOL0     H 5680   6.955   1.565   1.585 -2.0661 -0.0465  1.0717
  783MOL0     H 5681   7.207   1.566   1.765 -0.5453 -0.8189  0.3575
  783MOL0     H 5682   7.185   1.689   1.634 -0.8992  0.3776 -2.0233
  783MOL0     H 5683   7.311   1.488   1.587  0.1706  1.1142 -1.0531
  783MOL0     H 5684   7.176   1.388   1.639  1.5128  1.5410  4.6482
  783MOL0     H 5685   7.111   2.174   2.068  1.9471  1.5002  0.1132
  783MOL0     H 5686   7.216   2.408   2.079  0.0706 -0.1951  1.8769
  783MOL0     H 5687   7.395   2.824   1.849 -1.4060  3.8758 -2.7747
  783MOL0     H 5688   7.435   3.046   1.867 -0.9360  0.3610 -2.2721
  783MOL0     H 5689   7.837   3.780   3.451 -1.4720 -0.3078  0.4617
  783MOL0     H 5690   7.930   3.620   3.622  1.3978 -2.8308  0.4666
  783MOL0     H 5691   8.178   3.440   3.815 -0.2323 -0.9511 -2.0994
  783MOL0     H 5692   8.250   3.343   4.041  0.4743 -3.3063  1.8440
  783MOL0     H 5693   8.299   2.981   4.230 -1.4283  2.3812  2.8286
  783MOL0     H 5694   8.222   2.934   4.076  0.4464 -0.7683 -0.1854
  783MOL0     H 5695   8.008   2.991   4.205 -1.5323 -5.4461  1.7306
  783MOL0     H 5696   8.107   3.006   4.351  1.3944 -0.8690  0.0470
  783MOL0     H 5697   8.176   2.778   4.332  1.6484  2.9314 -1.7152
  783MOL0     H 5698   8.091   2.759   4.174  0.2035  4.2135 -2.6796
  783MOL0     H 5699   7.886   2.772   4.305  0.7291  0.7198 -2.2754
  783MOL0     H 5700   7.988   2.645   4.366  4.5428  0.1783  2.9100
  783MOL0     H 5701   7.938   2.845   4.716  0.4547 -0.9221  0.7725
  783MOL0     H 5702   8.052   2.987   3.961 -1.7211  1.0457  0.9252
  783MOL0     H 5703   7.880   3.027   3.691  0.9222 -3.2297  0.6953
  783MOL0     H 5704   8.012   3.084   3.593 -0.2844  2.2812  1.1282
  783MOL0     H 5705   8.022   2.939   3.716  1.5408  0.8077  1.3720
  784MOL0     O 5706   9.345   0.027   1.207 -0.1403 -0.4231 -0.6488
  784MOL0     C 5707   9.230   0.044   1.155 -0.0177 -0.0274 -0.4925
  784MOL0     O 5708   9.196   0.018   1.020 -0.7122  0.4415  0.2294
  784MOL0     C 5709   9.297  -0.011   0.928  0.9116  1.3559  0.3770
  784MOL0     C 5710   9.267  -0.103   0.824 -0.7948 -0.3131  1.3919
  784MOL0     C 5711   9.353  -0.132   0.721  0.2637 -0.1491  0.5963
  784MOL0     C 5712   9.482  -0.083   0.713  0.1839  0.3405  0.6839
  784MOL0     O 5713   9.547  -0.103   0.596 -0.1717 -0.1327  0.1980
  784MOL0     C 5714   9.568   0.015   0.514 -0.4177  0.9186  0.6832
  784MOL0     C 5715   9.566  -0.016   0.370 -0.2854  0.0255 -0.1245
  784MOL0     C 5716   9.683  -0.103   0.327  0.6240  0.4536  0.6318
  784MOL0     C 5717   9.686  -0.158   0.188 -0.2405  0.5118  0.3847
  784MOL0     C 5718   9.594  -0.281   0.159  0.3516 -0.5387  0.2005
  784MOL0     C 5719   9.627  -0.410   0.232  0.7186  0.8527  0.8440
  784MOL0     C 5720   9.530  -0.534   0.182 -1.1254 -0.4132  0.4792
  784MOL0     C 5721   9.537  -0.574   0.034 -0.3211  0.2075  0.6045
  784MOL0     N 5722   9.671  -0.621  -0.010 -0.4117  0.4200  0.3899
  784MOL0     C 5723   9.747  -0.723   0.042 -0.9445 -0.8417  0.9548
  784MOL0     C 5724   9.870  -0.696  -0.010  0.5806  0.1334  0.7483
  784MOL0     C 5725   9.981  -0.790   0.020 -0.6168 -0.2663  0.0279
  784MOL0     C 5726  10.102  -0.716   0.059  0.7090 -0.6830  0.0617
  784MOL0     C 5727  10.207  -0.807   0.103 -0.3863  0.7948  0.9467
  784MOL0     C 5728  10.336  -0.736   0.145 -0.3698 -0.0184  0.2683
  784MOL0     O 5729  10.439  -0.837   0.185  0.3832 -0.1158 -0.4062
  784MOL0     C 5730  10.533  -0.892   0.098 -0.0034 -0.1571  0.9689
  784MOL0     C 5731  10.618  -0.982   0.159  0.2580  0.7894 -0.3376
  784MOL0     C 5732  10.691  -1.058   0.069  0.0525 -0.1926 -0.5798
  784MOL0     C 5733  10.683  -1.052  -0.074 -0.5400 -0.1829 -0.3376
  784MOL0     C 5734  10.767  -1.138  -0.155 -0.1282  0.0925  1.1158
  784MOL0     O 5735  10.762  -1.119  -0.296  0.6473  0.0037  0.3325
  784MOL0     C 5736  10.808  -1.205  -0.387 -0.5578 -0.2606  0.7371
  784MOL0     C 5737  10.894  -1.312  -0.365 -0.3353  0.0325  0.5549
  784MOL0     C 5738  10.935  -1.381  -0.482  0.9594  0.6530  1.0124
  784MOL0     C 5739  10.875  -1.355  -0.606 -0.6937  0.2193  0.8760
  784MOL0     O 5740  10.888  -1.444  -0.707 -0.3538  0.1968 -0.3335
  784MOL0     C 5741  10.942  -1.399  -0.832  0.2454  0.7212  0.0357
  784MOL0     C 5742  11.097  -1.362  -0.806 -0.0276  0.0408  0.3036
  784MOL0     C 5743  11.182  -1.491  -0.789 -0.3679 -0.1580 -0.5980
  784MOL0     C 5744  11.334  -1.463  -0.800  0.1399 -0.2145 -0.3508
  784MOL0     C 5745  11.413  -1.581  -0.735  0.0786 -0.2168  0.2832
  784MOL0     C 5746  11.369  -1.710  -0.797  0.3327 -0.9363 -0.7940
  784MOL0     C 5747  11.466  -1.829  -0.775  0.8193  0.4962 -1.1142
  784MOL0     C 5748  11.580  -1.820  -0.863 -0.5675 -0.0995 -0.0692
  784MOL0    Cl 5749  11.723  -1.905  -0.792 -0.1898  0.4295 -0.4543
  784MOL0     C 5750  10.794  -1.248  -0.623 -0.1535  0.5563  0.3954
  784MOL0     C 5751  10.769  -1.166  -0.515 -0.0162  0.4576 -0.1452
  784MOL0     O 5752  10.845  -1.216  -0.097  0.9185 -0.5880 -1.4875
  784MOL0     C 5753  10.592  -0.968  -0.133 -1.0427 -0.2183  0.8027
  784MOL0     C 5754  10.518  -0.885  -0.042  0.1795 -0.4464  0.5445
  784MOL0     N 5755   9.859  -0.593  -0.101 -0.3521 -0.0845 -0.9500
  784MOL0     N 5756   9.747  -0.539  -0.090 -0.2679  0.5581  0.4765
  784MOL0     C 5757   9.506   0.023   0.808 -0.3645 -0.2336 -0.0035
  784MOL0     C 5758   9.429   0.044   0.918  0.6729  0.3151 -1.0054
  784MOL0     C 5759   9.117   0.083   1.243 -0.6793 -0.6688  0.4704
  784MOL0     C 5760   8.992   0.033   1.198  0.2292 -0.1879 -0.7766
  784MOL0     C 5761   8.879   0.052   1.281  0.3915  0.3145  0.2972
  784MOL0     C 5762   8.891   0.125   1.392  0.7620 -0.6531  0.2465
  784MOL0     O 5763   8.776   0.143   1.460 -0.1933 -0.0276 -0.8432
  784MOL0     C 5764   8.763   0.162   1.596 -0.4731  0.9584 -0.3805
  784MOL0     C 5765   8.703   0.301   1.605 -0.6524  0.1471  0.0325
  784MOL0     C 5766   8.640   0.321   1.745  0.0781  0.5978  0.9457
  784MOL0     C 5767   8.623   0.466   1.790 -0.0789 -0.6089  0.2772
  784MOL0     C 5768   8.554   0.542   1.692 -0.8288  0.1464  0.3089
  784MOL0     C 5769   8.490   0.613   1.619  0.0551  0.6935 -0.9123
  784MOL0     C 5770   9.014   0.179   1.434 -0.4622  0.9855  0.5336
  784MOL0     C 5771   9.132   0.160   1.356 -0.3777 -0.2809 -0.4735
  784MOL0     C 5772   9.254   0.235   1.389 -0.8736  0.4203 -1.1230
  784MOL0     H 5773   9.167  -0.143   0.837 -1.7754  1.8550  0.9481
  784MOL0     H 5774   9.313  -0.186   0.636  0.8235  2.1539 -1.2295
  784MOL0     H 5775   9.494   0.092   0.534 -1.4479  0.4971 -1.2943
  784MOL0     H 5776   9.663   0.064   0.537  0.1373  0.4809 -0.5646
  784MOL0     H 5777   9.583   0.072   0.308 -1.7483 -1.2788 -2.5899
  784MOL0     H 5778   9.474  -0.074   0.355 -0.3159  0.6723 -3.0064
  784MOL0     H 5779   9.692  -0.184   0.400  2.0696 -0.2387 -0.2681
  784MOL0     H 5780   9.774  -0.045   0.343  0.6876 -0.0503  2.4084
  784MOL0     H 5781   9.650  -0.083   0.117  1.2440  1.0240  0.1357
  784MOL0     H 5782   9.787  -0.183   0.155  0.2905  0.4614  1.9430
  784MOL0     H 5783   9.495  -0.254   0.197  0.3095  1.4881 -1.2408
  784MOL0     H 5784   9.582  -0.300   0.052 -1.2451  2.0266 -0.1669
  784MOL0     H 5785   9.729  -0.444   0.213  0.2256 -0.4003  0.2856
  784MOL0     H 5786   9.614  -0.396   0.340 -0.5785  2.1609  0.5421
  784MOL0     H 5787   9.429  -0.494   0.190  0.1654  3.6171 -0.7856
  784MOL0     H 5788   9.527  -0.627   0.240 -0.5341 -1.6540 -1.3719
  784MOL0     H 5789   9.465  -0.656   0.023  0.0361  0.1853 -2.4486
  784MOL0     H 5790   9.502  -0.492  -0.028  0.4389  0.8238  0.9738
  784MOL0     H 5791   9.721  -0.802   0.111 -1.7805 -0.4396  1.1240
  784MOL0     H 5792   9.962  -0.868   0.095  1.0937 -1.8693 -1.1132
  784MOL0     H 5793   9.990  -0.831  -0.081 -0.3139  1.6547 -0.7725
  784MOL0     H 5794  10.136  -0.650  -0.022  0.3966 -1.2541 -0.5452
  784MOL0     H 5795  10.095  -0.654   0.149  0.5653 -1.4621  0.6024
  784MOL0     H 5796  10.229  -0.874   0.020 -3.7612 -0.5872  0.9844
  784MOL0     H 5797  10.174  -0.871   0.186  2.3828 -2.7197 -0.4172
  784MOL0     H 5798  10.318  -0.666   0.226 -2.7321 -3.0845  2.6778
  784MOL0     H 5799  10.361  -0.680   0.055 -1.7539  1.3960  0.7224
  784MOL0     H 5800  10.647  -0.977   0.264  2.4355  3.5097 -0.9367
  784MOL0     H 5801  10.770  -1.122   0.107  1.1129  1.3972 -0.0185
  784MOL0     H 5802  10.937  -1.349  -0.272  3.0303 -0.1176 -0.9033
  784MOL0     H 5803  11.009  -1.460  -0.481 -1.8911 -2.2413  1.2766
  784MOL0     H 5804  10.950  -1.486  -0.899  3.0351 -0.7575  2.0691
  784MOL0     H 5805  10.886  -1.313  -0.870 -1.8703  0.2899  1.9404
  784MOL0     H 5806  11.134  -1.323  -0.901  0.7305 -3.8913 -1.2266
  784MOL0     H 5807  11.102  -1.288  -0.725 -0.7970  0.5033 -0.0553
  784MOL0     H 5808  11.160  -1.556  -0.704 -0.2294 -2.4541 -2.2080
  784MOL0     H 5809  11.175  -1.553  -0.879  4.7199  2.7417 -3.4997
  784MOL0     H 5810  11.358  -1.363  -0.763 -2.7092  0.2231  0.5233
  784MOL0     H 5811  11.352  -1.459  -0.908 -0.8728  3.1099 -0.4940
  784MOL0     H 5812  11.394  -1.601  -0.629 -1.1477 -1.8202 -0.1987
  784MOL0     H 5813  11.521  -1.577  -0.748  0.1320  0.7231  0.9888
  784MOL0     H 5814  11.276  -1.744  -0.751 -1.4847 -0.5752 -3.8885
  784MOL0     H 5815  11.336  -1.694  -0.900  2.4460 -0.9353 -1.5178
  784MOL0     H 5816  11.412  -1.922  -0.792  0.0811  0.9557 -1.3570
  784MOL0     H 5817  11.497  -1.822  -0.670  2.3858 -0.6738 -1.4670
  784MOL0     H 5818  11.561  -1.876  -0.956 -1.8350  1.5121 -0.8244
  784MOL0     H 5819  11.622  -1.721  -0.883  2.2651 -1.4490 -1.5212
  784MOL0     H 5820  10.741  -1.230  -0.716 -0.1436 -2.1090 -0.1973
  784MOL0     H 5821  10.696  -1.090  -0.544  0.7309 -0.2172 -4.4590
  784MOL0     H 5822  10.579  -0.965  -0.241  2.0482 -1.3337  0.2893
  784MOL0     H 5823  10.460  -0.813  -0.099 -0.5454 -0.6114  1.0544
  784MOL0     H 5824   9.592   0.085   0.784 -1.3238  1.4074  0.6592
  784MOL0     H 5825   9.447   0.129   0.983 -1.4451  0.2775 -0.2976
  784MOL0     H 5826   8.982  -0.017   1.102  1.4876 -1.4212 -0.3197
  784MOL0     H 5827   8.784   0.002   1.261 -2.0261  4.3479  0.5681
  784MOL0     H 5828   8.854   0.161   1.656 -0.5425  0.5818 -0.2751
  784MOL0     H 5829   8.696   0.085   1.636  0.3390  0.6838  0.4965
  784MOL0     H 5830   8.619   0.318   1.537 -0.6690  1.8813  0.4262
  784MOL0     H 5831   8.779   0.376   1.583 -0.0790  0.0774  1.6168
  784MOL0     H 5832   8.703   0.277   1.823  1.7217  0.3309 -0.4657
  784MOL0     H 5833   8.544   0.268   1.745 -0.2125  0.5352 -4.9727
  784MOL0     H 5834   8.562   0.476   1.880 -0.6444  1.1754 -0.2735
  784MOL0     H 5835   8.724   0.507   1.797  0.3402 -1.7764  1.3871
  784MOL0     H 5836   8.444   0.682   1.552  2.1378  1.7311 -1.3724
  784MOL0     H 5837   9.013   0.229   1.531  0.6669 -0.2284  1.2144
  784MOL0     H 5838   9.309   0.172   1.460 -0.6674  2.0096  0.1857
  784MOL0     H 5839   9.306   0.274   1.302 -0.9367  0.1333 -1.2925
  784MOL0     H 5840   9.222   0.324   1.445  2.5810  0.4953  1.0277
  785MOL0     O 5841   8.415  10.743   1.649  0.4536 -0.1222  0.1670
  785MOL0     C 5842   8.523  10.793   1.655 -0.0828  0.6442  0.3946
  785MOL0     O 5843   8.551  10.926   1.683  0.2441  0.4898 -0.3819
  785MOL0     C 5844   8.457  11.031   1.686  0.0350 -0.3269 -0.7024
  785MOL0     C 5845   8.518  11.159   1.684 -0.4672  0.3587  0.9338
  785MOL0     C 5846   8.446  11.277   1.684 -0.2278  0.7244  0.0931
  785MOL0     C 5847   8.310  11.272   1.705 -1.0689  0.0397  0.2448
  785MOL0     O 5848   8.243  11.388   1.702 -1.0706  0.7671 -0.0117
  785MOL0     C 5849   8.101  11.388   1.693 -0.0461  0.6488 -0.4169
  785MOL0     C 5850   8.065  11.523   1.644  0.1029 -0.1015 -0.0814
  785MOL0     C 5851   8.064  11.526   1.487 -0.8378 -0.0415 -0.5937
  785MOL0     C 5852   7.977  11.636   1.422  0.0948 -0.4554  0.6512
  785MOL0     C 5853   7.938  11.764   1.513  0.7458  0.7905  0.0456
  785MOL0     C 5854   8.055  11.842   1.574  0.2651  0.0143  0.1962
  785MOL0     C 5855   8.044  11.995   1.557 -0.7447  0.3203 -1.2874
  785MOL0     C 5856   8.172  12.072   1.601 -0.0865 -0.4200  0.4508
  785MOL0     N 5857   8.188  12.063   1.743 -0.2866 -0.3620 -0.5958
  785MOL0     C 5858   8.155  12.167   1.821  0.7984 -0.2031 -0.1077
  785MOL0     C 5859   8.193  12.114   1.940  0.1911  0.4008  0.1901
  785MOL0     C 5860   8.141  12.182   2.060 -0.5521 -0.3180 -0.6732
  785MOL0     C 5861   8.241  12.284   2.117  0.1368 -0.3869 -0.3363
  785MOL0     C 5862   8.258  12.265   2.266 -0.1780  0.2207 -0.4783
  785MOL0     C 5863   8.156  12.327   2.354 -0.0065 -0.5490 -0.1791
  785MOL0     O 5864   8.030  12.263   2.331  0.7039  0.1502 -0.3532
  785MOL0     C 5865   7.951  12.212   2.440  0.1354 -0.8929  0.9405
  785MOL0     C 5866   7.898  12.291   2.544  0.2731 -0.1342  0.1898
  785MOL0     C 5867   7.816  12.216   2.633  0.5118 -0.3238 -0.2070
  785MOL0     C 5868   7.778  12.083   2.611 -0.5078  0.2017  0.1227
  785MOL0     C 5869   7.671  12.012   2.696  0.5042  0.4731  1.1379
  785MOL0     O 5870   7.688  11.877   2.702  0.2769  0.0168  0.4889
  785MOL0     C 5871   7.584  11.799   2.746 -0.1100 -0.0824 -0.4706
  785MOL0     C 5872   7.614  11.715   2.850 -0.1183 -0.0283 -0.3236
  785MOL0     C 5873   7.507  11.640   2.900 -0.5886  0.1026  0.7495
  785MOL0     C 5874   7.376  11.646   2.843  0.4755 -1.6853 -0.6109
  785MOL0     O 5875   7.272  11.576   2.904 -0.7285  0.2473 -0.7781
  785MOL0     C 5876   7.154  11.659   2.926  0.5850 -0.3998 -0.4656
  785MOL0     C 5877   7.044  11.596   3.001  0.6882 -0.2161  0.6615
  785MOL0     C 5878   6.941  11.702   3.043 -0.2698 -0.4187  0.2173
  785MOL0     C 5879   6.980  11.811   3.148 -0.7627  0.0096  0.1754
  785MOL0     C 5880   6.877  11.921   3.164  0.1738 -1.2033  0.1673
  785MOL0     C 5881   6.751  11.858   3.215 -0.4667 -0.0104  0.0755
  785MOL0     C 5882   6.656  11.959   3.260  0.3274 -0.4054  0.1312
  785MOL0     C 5883   6.511  11.904   3.242  0.1509 -0.6907  0.2739
  785MOL0    Cl 5884   6.383  11.994   3.331 -0.1380  0.1268 -0.5338
  785MOL0     C 5885   7.352  11.731   2.733  0.1160  0.3606 -0.3874
  785MOL0     C 5886   7.455  11.809   2.686  1.0728 -0.1671 -0.8180
  785MOL0     O 5887   7.585  12.077   2.751 -0.2176  0.1322 -0.5871
  785MOL0     C 5888   7.838  12.013   2.505  0.0157  0.2475  0.6710
  785MOL0     C 5889   7.925  12.077   2.420 -0.4298 -0.5686  0.4359
  785MOL0     N 5890   8.267  12.001   1.928  0.8062  0.4188  0.3995
  785MOL0     N 5891   8.249  11.964   1.810 -0.7460  0.5540  0.1548
  785MOL0     C 5892   8.250  11.151   1.738 -0.8477 -0.2364 -0.7911
  785MOL0     C 5893   8.325  11.026   1.716  0.2092 -0.0537  0.8906
  785MOL0     C 5894   8.630  10.696   1.622  0.4754  1.0653  0.7481
  785MOL0     C 5895   8.757  10.738   1.670  0.5219  1.2033 -0.8191
  785MOL0     C 5896   8.877  10.662   1.650 -1.0671 -0.3359  0.5569
  785MOL0     C 5897   8.868  10.544   1.581  0.9896  0.3561 -0.2149
  785MOL0     O 5898   8.983  10.470   1.571  0.1537  1.1844 -0.0110
  785MOL0     C 5899   8.998  10.383   1.456 -0.0372  0.4657  0.8480
  785MOL0     C 5900   9.017  10.448   1.315 -0.2049  0.2220 -1.1046
  785MOL0     C 5901   9.156  10.440   1.250 -0.0072  0.3109 -0.0009
  785MOL0     C 5902   9.271  10.500   1.337  0.0183 -0.5440 -0.6522
  785MOL0     C 5903   9.250  10.644   1.356 -0.7935  0.1349 -0.4730
  785MOL0     C 5904   9.219  10.758   1.385 -0.1882 -0.8340 -0.2903
  785MOL0     C 5905   8.747  10.512   1.513 -0.5415  0.1998  0.2371
  785MOL0     C 5906   8.620  10.585   1.531  0.4514 -0.6609  0.0143
  785MOL0     C 5907   8.496  10.524   1.467 -0.4267 -0.0099 -0.8518
  785MOL0     H 5908   8.626  11.171   1.687 -0.4025  0.7515 -1.5148
  785MOL0     H 5909   8.498  11.373   1.684  0.5186  0.3381  1.1125
  785MOL0     H 5910   8.066  11.308   1.627  0.8991 -0.3591  0.2695
  785MOL0     H 5911   8.051  11.376   1.789  0.0320 -1.8006 -0.5979
  785MOL0     H 5912   8.121  11.607   1.686 -1.8821  1.8954 -1.2093
  785MOL0     H 5913   7.968  11.553   1.684  0.7527 -2.1838  3.4073
  785MOL0     H 5914   8.060  11.421   1.455  1.4726 -0.2401 -0.3961
  785MOL0     H 5915   8.165  11.552   1.454 -0.8030  1.2718  0.4564
  785MOL0     H 5916   8.011  11.677   1.326 -1.9771 -2.3794 -1.0179
  785MOL0     H 5917   7.888  11.576   1.400  0.6932 -1.0330 -0.2577
  785MOL0     H 5918   7.876  11.829   1.451 -2.0252 -2.0536 -0.4670
  785MOL0     H 5919   7.869  11.741   1.595  1.4773  0.2730  0.5297
  785MOL0     H 5920   8.048  11.821   1.681  2.1642 -1.4939  0.0693
  785MOL0     H 5921   8.149  11.798   1.538  1.3443  0.5591  2.2187
  785MOL0     H 5922   7.965  12.025   1.627  1.7876  1.9896  1.0830
  785MOL0     H 5923   8.021  12.032   1.457  0.5850  2.6084 -0.8176
  785MOL0     H 5924   8.253  12.032   1.541 -0.5372  1.2278 -1.3567
  785MOL0     H 5925   8.168  12.180   1.583  2.9474 -0.4562 -0.9928
  785MOL0     H 5926   8.105  12.260   1.798  1.4718 -0.0257 -0.9118
  785MOL0     H 5927   8.045  12.229   2.038  0.5609  1.4132 -2.0648
  785MOL0     H 5928   8.126  12.105   2.137 -1.7111  0.2024 -0.3518
  785MOL0     H 5929   8.338  12.262   2.071  0.3055 -0.4572  0.0473
  785MOL0     H 5930   8.211  12.384   2.083  0.8576 -0.5734 -1.6051
  785MOL0     H 5931   8.345  12.325   2.294 -0.2285 -0.5705  1.6341
  785MOL0     H 5932   8.263  12.160   2.297 -0.1346  0.2174 -0.4955
  785MOL0     H 5933   8.154  12.433   2.325  3.0265 -0.1280  0.8639
  785MOL0     H 5934   8.191  12.318   2.457  5.5679  0.9000 -1.5923
  785MOL0     H 5935   7.899  12.399   2.548  0.7114 -0.1479  0.5362
  785MOL0     H 5936   7.772  12.269   2.717  3.2356  1.1755  0.4265
  785MOL0     H 5937   7.715  11.712   2.887  0.4156  0.4477 -1.6858
  785MOL0     H 5938   7.523  11.578   2.988  0.1646  0.7316  1.0683
  785MOL0     H 5939   7.193  11.747   2.978  2.8564 -1.3398 -0.4626
  785MOL0     H 5940   7.103  11.683   2.832 -0.8741  0.9524  0.6362
  785MOL0     H 5941   6.993  11.534   2.927 -2.0275  1.9199  0.5794
  785MOL0     H 5942   7.073  11.531   3.084  2.0396 -0.4782  0.0075
  785MOL0     H 5943   6.908  11.750   2.950  1.6674  0.5801 -0.0094
  785MOL0     H 5944   6.862  11.639   3.083  1.2792 -3.1515 -0.7865
  785MOL0     H 5945   7.073  11.853   3.108  1.3747 -4.2530 -0.0177
  785MOL0     H 5946   7.004  11.748   3.234  0.7167 -0.7727 -0.7615
  785MOL0     H 5947   6.862  11.981   3.073 -0.7631  2.5316  2.5646
  785MOL0     H 5948   6.917  11.999   3.230 -0.9329 -1.3487  1.0261
  785MOL0     H 5949   6.719  11.800   3.128  2.1148 -1.4320 -0.0400
  785MOL0     H 5950   6.786  11.793   3.295  2.1003 -1.1180 -1.8073
  785MOL0     H 5951   6.670  12.059   3.219  3.1197  0.1226  2.0962
  785MOL0     H 5952   6.672  11.976   3.367 -0.4587  1.9472 -0.0593
  785MOL0     H 5953   6.486  11.892   3.136 -2.1211  1.1400  0.5092
  785MOL0     H 5954   6.526  11.805   3.284 -4.8693 -2.4893 -1.4011
  785MOL0     H 5955   7.253  11.740   2.691 -0.1024 -2.3838 -0.6315
  785MOL0     H 5956   7.453  11.874   2.599 -0.7910 -0.9896 -1.4229
  785MOL0     H 5957   7.821  11.908   2.485  0.3523  0.0386  1.4580
  785MOL0     H 5958   7.961  12.043   2.323  0.5792  0.5251  0.3979
  785MOL0     H 5959   8.147  11.152   1.772 -0.3328 -1.3649  0.9266
  785MOL0     H 5960   8.276  10.929   1.709 -2.5224  1.3339 -3.5885
  785MOL0     H 5961   8.756  10.818   1.744 -1.9672  0.5545 -0.0582
  785MOL0     H 5962   8.974  10.698   1.683 -1.1452  2.8863 -2.1943
  785MOL0     H 5963   8.908  10.323   1.445 -0.1407  0.1304  2.9435
  785MOL0     H 5964   9.084  10.317   1.470  1.1958  0.5425 -4.5079
  785MOL0     H 5965   8.971  10.546   1.332 -0.9055 -0.4182  0.9845
  785MOL0     H 5966   8.948  10.412   1.238 -0.2396  1.5339 -1.7151
  785MOL0     H 5967   9.150  10.491   1.153 -0.9963  0.5654  0.1800
  785MOL0     H 5968   9.178  10.336   1.224 -1.2355  0.3261 -1.1783
  785MOL0     H 5969   9.289  10.445   1.429 -0.6044  0.2579 -0.0430
  785MOL0     H 5970   9.366  10.495   1.282  1.0671 -0.5529  1.0797
  785MOL0     H 5971   9.195  10.852   1.430 -0.2797 -1.4509  0.9938
  785MOL0     H 5972   8.740  10.431   1.441 -1.9764 -0.1754  0.7754
  785MOL0     H 5973   8.527  10.433   1.414 -2.0743 -0.2831 -1.3987
  785MOL0     H 5974   8.417  10.496   1.537  0.6306 -0.6279  0.1200
  785MOL0     H 5975   8.453  10.596   1.397  0.4573  1.1897 -0.1948
  786MOL0     O 5976   7.517   5.520   4.191  0.6880 -0.1865  0.3991
  786MOL0     C 5977   7.607   5.502   4.116  0.4332  0.0735  0.4666
  786MOL0     O 5978   7.721   5.430   4.140  0.3078 -0.4116 -0.4631
  786MOL0     C 5979   7.726   5.332   4.244 -0.3085 -0.0529 -0.7769
  786MOL0     C 5980   7.798   5.342   4.366  0.2739  0.0878  0.0033
  786MOL0     C 5981   7.796   5.240   4.460 -0.4104 -0.1379  0.1342
  786MOL0     C 5982   7.711   5.124   4.446  0.7274 -0.4601 -0.1058
  786MOL0     O 5983   7.699   5.026   4.542  0.7087  0.2358  0.3059
  786MOL0     C 5984   7.564   4.982   4.562  0.0907 -0.6833 -0.1506
  786MOL0     C 5985   7.579   4.897   4.691  0.2336 -0.7647  0.0449
  786MOL0     C 5986   7.446   4.839   4.762  0.0939 -0.7034  0.5033
  786MOL0     C 5987   7.493   4.766   4.891  0.3616 -0.2948  0.6397
  786MOL0     C 5988   7.393   4.715   4.986  1.1791 -0.0210 -0.6588
  786MOL0     C 5989   7.328   4.847   5.056 -1.3010  0.0377  0.7151
  786MOL0     C 5990   7.268   4.813   5.186 -0.2007  0.2965  0.2118
  786MOL0     C 5991   7.144   4.737   5.172  1.0804  0.0652 -0.9250
  786MOL0     N 5992   7.093   4.706   5.310 -0.6255 -1.0329  0.2474
  786MOL0     C 5993   7.109   4.590   5.382  0.7164 -0.4653  0.7153
  786MOL0     C 5994   7.051   4.618   5.504 -0.1493  0.4835 -0.3378
  786MOL0     C 5995   7.052   4.522   5.624  0.0439 -0.7457  1.0612
  786MOL0     C 5996   6.958   4.407   5.597 -0.1088  0.2966  0.1188
  786MOL0     C 5997   6.816   4.447   5.624 -0.4033 -0.1310  0.5351
  786MOL0     C 5998   6.725   4.322   5.622  0.2529 -0.0969  0.1762
  786MOL0     O 5999   6.598   4.351   5.673  0.7698 -0.2157 -0.3325
  786MOL0     C 6000   6.511   4.245   5.684 -0.9168 -0.0818 -0.4357
  786MOL0     C 6001   6.411   4.228   5.592 -0.2109 -0.0454 -0.6527
  786MOL0     C 6002   6.341   4.105   5.603  1.1976 -0.5481 -1.2295
  786MOL0     C 6003   6.362   4.011   5.702  0.3369  0.0726  0.2382
  786MOL0     C 6004   6.286   3.881   5.723  0.0732  1.1145  0.1264
  786MOL0     O 6005   6.199   3.851   5.614 -0.2700  0.2041 -0.1210
  786MOL0     C 6006   6.144   3.725   5.603  0.7052  1.2452 -0.1741
  786MOL0     C 6007   6.216   3.604   5.618 -0.1744  0.8228  0.1864
  786MOL0     C 6008   6.155   3.475   5.604  0.3285 -0.4590  0.7055
  786MOL0     C 6009   6.019   3.463   5.577  0.5739  0.5810 -0.5921
  786MOL0     O 6010   5.960   3.336   5.578  0.6160  0.3548 -0.6050
  786MOL0     C 6011   5.859   3.322   5.676 -0.3532  0.6432 -0.4186
  786MOL0     C 6012   5.734   3.326   5.599  0.4854  0.2459  0.0927
  786MOL0     C 6013   5.606   3.279   5.666  0.1920 -0.6134 -0.5126
  786MOL0     C 6014   5.476   3.308   5.585  0.9823  0.1938  0.5103
  786MOL0     C 6015   5.356   3.223   5.618  0.4934 -0.5376 -1.4986
  786MOL0     C 6016   5.288   3.257   5.759 -0.1501  0.3608  0.5606
  786MOL0     C 6017   5.227   3.402   5.769 -0.7995  0.5141  0.0462
  786MOL0     C 6018   5.166   3.445   5.907 -0.1064 -0.1761 -0.1352
  786MOL0    Cl 6019   5.265   3.367   6.031 -0.6253 -0.5065  0.2329
  786MOL0     C 6020   5.950   3.587   5.556  0.6513  0.3310  0.1351
  786MOL0     C 6021   6.008   3.710   5.573  0.6900 -0.6262 -0.2405
  786MOL0     O 6022   6.308   3.795   5.816 -0.3576 -0.3623 -0.0699
  786MOL0     C 6023   6.458   4.045   5.800 -0.4821  0.0575 -0.5617
  786MOL0     C 6024   6.539   4.158   5.785 -1.0977 -0.0256  1.3142
  786MOL0     N 6025   6.993   4.746   5.506 -0.3053  0.6294  0.0353
  786MOL0     N 6026   7.019   4.793   5.387 -1.0927  0.7485 -0.0395
  786MOL0     C 6027   7.635   5.116   4.320  0.7927 -0.4324  0.3312
  786MOL0     C 6028   7.646   5.219   4.224 -0.7543 -0.5103 -0.1219
  786MOL0     C 6029   7.612   5.568   3.990  0.1250 -0.5340  0.3542
  786MOL0     C 6030   7.498   5.555   3.917 -0.0928 -0.0713 -0.4204
  786MOL0     C 6031   7.479   5.616   3.798 -0.6402  0.0010  0.5473
  786MOL0     C 6032   7.589   5.688   3.735  0.3019 -1.2389  0.1770
  786MOL0     O 6033   7.585   5.745   3.612 -0.2837  0.1487  0.6242
  786MOL0     C 6034   7.461   5.780   3.551 -0.5407 -0.9568 -0.2309
  786MOL0     C 6035   7.493   5.831   3.405 -0.2658  0.4824 -0.2062
  786MOL0     C 6036   7.583   5.955   3.414 -0.0209  0.7183 -1.1346
  786MOL0     C 6037   7.616   6.027   3.282  0.0159 -0.7755 -0.4296
  786MOL0     C 6038   7.679   5.946   3.184 -0.5257  0.4424  1.6586
  786MOL0     C 6039   7.732   5.864   3.110  0.2203 -0.2643  0.4041
  786MOL0     C 6040   7.707   5.696   3.806 -0.2840 -0.3028 -0.0945
  786MOL0     C 6041   7.722   5.632   3.932  0.0254  0.0286  0.2980
  786MOL0     C 6042   7.847   5.648   4.004 -0.3373 -0.1638  1.6519
  786MOL0     H 6043   7.865   5.418   4.404 -1.9599  2.2650 -0.1484
  786MOL0     H 6044   7.864   5.252   4.544  1.7671 -0.7203 -1.4576
  786MOL0     H 6045   7.496   5.064   4.587 -1.2691 -1.0178 -2.4704
  786MOL0     H 6046   7.516   4.929   4.479 -0.6627  0.0114 -0.1718
  786MOL0     H 6047   7.619   4.970   4.763  1.6980 -2.8124  1.4132
  786MOL0     H 6048   7.644   4.811   4.673  2.0525  0.1758  1.7380
  786MOL0     H 6049   7.398   4.761   4.702 -0.1264 -2.5644  2.8899
  786MOL0     H 6050   7.373   4.918   4.783 -1.0134 -0.6960 -2.8806
  786MOL0     H 6051   7.557   4.682   4.863 -0.6603 -1.1778  0.8922
  786MOL0     H 6052   7.570   4.827   4.939  2.3478 -2.0028 -0.2026
  786MOL0     H 6053   7.326   4.641   4.941  1.0729 -0.2712 -0.1028
  786MOL0     H 6054   7.443   4.656   5.064 -0.7912  0.0700  0.7519
  786MOL0     H 6055   7.405   4.924   5.063 -1.8981  0.9506 -1.7982
  786MOL0     H 6056   7.245   4.890   4.998 -1.6784 -0.5261  0.8228
  786MOL0     H 6057   7.251   4.906   5.241  1.5063 -0.6653  2.5396
  786MOL0     H 6058   7.330   4.749   5.249 -1.5933 -0.6795  0.6419
  786MOL0     H 6059   7.070   4.803   5.126  1.0929  0.4423 -0.4204
  786MOL0     H 6060   7.137   4.642   5.119 -1.0412 -1.6363  2.0876
  786MOL0     H 6061   7.172   4.507   5.354  0.6530  0.0854 -1.1764
  786MOL0     H 6062   7.150   4.475   5.633 -0.4203 -2.2523 -1.0413
  786MOL0     H 6063   7.020   4.575   5.714 -2.2103  0.5376 -0.3807
  786MOL0     H 6064   6.976   4.382   5.493  2.4615 -0.8585  0.7508
  786MOL0     H 6065   6.976   4.312   5.648 -1.0251 -2.3543 -4.0344
  786MOL0     H 6066   6.778   4.519   5.550 -1.4767 -1.0419  0.1593
  786MOL0     H 6067   6.807   4.489   5.724 -2.0315  0.0848  0.3376
  786MOL0     H 6068   6.772   4.244   5.683 -0.9115 -0.1405  1.0376
  786MOL0     H 6069   6.720   4.301   5.514 -0.3679  4.8546 -0.9795
  786MOL0     H 6070   6.402   4.291   5.504 -0.3044  0.5315 -0.2361
  786MOL0     H 6071   6.275   4.082   5.519  0.6072 -1.7527 -0.4669
  786MOL0     H 6072   6.319   3.616   5.650 -0.7196  3.3059  1.2880
  786MOL0     H 6073   6.210   3.382   5.614 -0.7750 -1.3098 -0.6891
  786MOL0     H 6074   5.857   3.225   5.726  0.9061  1.0327  0.4190
  786MOL0     H 6075   5.858   3.405   5.747 -1.0548  1.1949 -1.0628
  786MOL0     H 6076   5.717   3.432   5.576  0.5380 -0.3042 -2.8784
  786MOL0     H 6077   5.741   3.278   5.501 -0.2935  2.9879 -1.4350
  786MOL0     H 6078   5.602   3.170   5.679  1.7647 -0.4434  2.0203
  786MOL0     H 6079   5.602   3.321   5.767  1.2597  1.7046 -1.3851
  786MOL0     H 6080   5.488   3.292   5.477  0.7092  3.3136 -0.0925
  786MOL0     H 6081   5.456   3.416   5.585  1.1922  0.2341  1.3942
  786MOL0     H 6082   5.379   3.117   5.609 -0.1698 -1.0429  1.7245
  786MOL0     H 6083   5.275   3.232   5.545 -0.0608 -1.6826 -1.0448
  786MOL0     H 6084   5.210   3.184   5.782  0.4975 -0.7884 -0.7510
  786MOL0     H 6085   5.365   3.242   5.835  0.0994 -1.7021 -0.0491
  786MOL0     H 6086   5.166   3.425   5.681  1.3837 -0.5260 -1.8486
  786MOL0     H 6087   5.312   3.468   5.751  0.2580 -0.6996  0.4988
  786MOL0     H 6088   5.171   3.554   5.920  0.0130 -0.0124 -1.3915
  786MOL0     H 6089   5.067   3.398   5.906  1.5564 -4.0805 -1.8429
  786MOL0     H 6090   5.843   3.580   5.542  0.4829 -1.1936  1.8372
  786MOL0     H 6091   5.931   3.786   5.563 -0.2703 -1.8071 -2.9524
  786MOL0     H 6092   6.476   3.979   5.884  2.6371  1.8940  0.3709
  786MOL0     H 6093   6.623   4.174   5.853 -0.2832 -3.0439  1.1786
  786MOL0     H 6094   7.586   5.025   4.288  1.3089 -0.7936  0.5544
  786MOL0     H 6095   7.612   5.206   4.121 -3.4595  1.5619  0.3844
  786MOL0     H 6096   7.420   5.487   3.951 -1.4463  0.0880 -2.9792
  786MOL0     H 6097   7.380   5.612   3.755 -0.4827 -2.7638  0.2498
  786MOL0     H 6098   7.401   5.855   3.604  3.3527  0.7348  2.2947
  786MOL0     H 6099   7.404   5.688   3.535 -0.8732 -1.4244  2.9693
  786MOL0     H 6100   7.400   5.848   3.351 -1.4941  2.5108  2.3596
  786MOL0     H 6101   7.547   5.748   3.358  0.8007  0.5063  0.9076
  786MOL0     H 6102   7.682   5.931   3.452 -0.8829  0.5281  1.1432
  786MOL0     H 6103   7.525   6.022   3.478  0.4060  1.5001 -1.5511
  786MOL0     H 6104   7.522   6.067   3.244  1.2683 -0.2517 -3.2051
  786MOL0     H 6105   7.688   6.108   3.300  1.1053 -1.7730 -0.1665
  786MOL0     H 6106   7.769   5.791   3.041  1.4312 -0.0037  0.7501
  786MOL0     H 6107   7.784   5.752   3.755  0.8514 -2.4537 -0.8656
  786MOL0     H 6108   7.900   5.732   3.958 -0.6346 -0.4071  0.8561
  786MOL0     H 6109   7.829   5.675   4.109 -2.1987  0.5240  1.1856
  786MOL0     H 6110   7.910   5.561   3.984  2.3075  2.3450 -2.5072
  787MOL0     O 6111   7.908   2.609   3.052 -0.5775 -0.5026  0.0590
  787MOL0     C 6112   7.883   2.520   2.977 -0.2526  0.2295 -0.0912
  787MOL0     O 6113   7.980   2.468   2.879  0.5304  0.5671 -0.1342
  787MOL0     C 6114   8.114   2.471   2.888  0.4433  0.3790 -0.4023
  787MOL0     C 6115   8.170   2.346   2.883  0.5150  0.3655  0.6151
  787MOL0     C 6116   8.308   2.337   2.881  0.1896 -0.1518  0.1084
  787MOL0     C 6117   8.384   2.455   2.855  0.1052 -0.2282 -0.8002
  787MOL0     O 6118   8.520   2.454   2.819  0.2035  0.3667 -0.7847
  787MOL0     C 6119   8.611   2.360   2.885  0.1000  0.7227 -0.1108
  787MOL0     C 6120   8.622   2.370   3.042  0.0120 -0.3413  0.0972
  787MOL0     C 6121   8.720   2.284   3.107 -0.0586  0.5953 -0.1832
  787MOL0     C 6122   8.871   2.321   3.066 -0.2996 -0.1204  0.1885
  787MOL0     C 6123   8.960   2.278   3.183 -0.5486  0.1886 -0.3513
  787MOL0     C 6124   8.964   2.127   3.205  1.0405  0.2561 -0.4380
  787MOL0     C 6125   9.022   2.099   3.340 -0.4543  0.9752 -0.7200
  787MOL0     C 6126   8.983   1.954   3.394 -0.2925  0.8958 -0.1004
  787MOL0     N 6127   9.005   1.931   3.537  0.1031 -0.5105 -0.3388
  787MOL0     C 6128   8.927   1.999   3.628 -0.0797  0.6460 -0.3442
  787MOL0     C 6129   8.924   1.929   3.743 -0.0488  0.2249 -0.7858
  787MOL0     C 6130   8.847   1.947   3.873  0.5440  0.0370  0.4453
  787MOL0     C 6131   8.921   2.031   3.973  0.0110 -0.9118 -0.0142
  787MOL0     C 6132   8.832   2.019   4.102 -0.5126 -1.0369  0.5663
  787MOL0     C 6133   8.902   2.096   4.215 -0.1214 -0.0712  0.3698
  787MOL0     O 6134   8.843   2.062   4.346  0.1907 -0.0216 -0.4833
  787MOL0     C 6135   8.933   2.048   4.450 -0.3898  0.0293 -0.5160
  787MOL0     C 6136   9.021   1.944   4.454  2.0392  0.3629 -0.3809
  787MOL0     C 6137   9.113   1.942   4.554 -0.2269 -0.3440 -0.7964
  787MOL0     C 6138   9.121   2.043   4.652 -0.4540 -0.4597  0.1374
  787MOL0     C 6139   9.237   2.047   4.746 -0.5837 -0.0517  0.0641
  787MOL0     O 6140   9.305   1.931   4.770 -0.2090  0.0676  0.4951
  787MOL0     C 6141   9.426   1.939   4.839  0.7909 -0.3717 -0.3563
  787MOL0     C 6142   9.515   2.037   4.804  0.6448  0.1277  1.2903
  787MOL0     C 6143   9.633   2.044   4.869 -0.4324  0.0787 -1.1082
  787MOL0     C 6144   9.673   1.954   4.974  0.2530  0.0200  0.1889
  787MOL0     O 6145   9.805   1.956   5.020  0.1315  0.5499  0.3650
  787MOL0     C 6146   9.832   1.930   5.158 -0.5941  0.3062  0.5834
  787MOL0     C 6147   9.992   1.920   5.174  0.5858  0.3050  0.2116
  787MOL0     C 6148  10.040   2.010   5.289 -0.3334 -0.0601 -0.4577
  787MOL0     C 6149  10.193   2.043   5.282 -0.2601 -0.9181 -0.4844
  787MOL0     C 6150  10.227   2.145   5.386 -0.4172  0.2573 -0.2721
  787MOL0     C 6151  10.251   2.084   5.524 -0.2318  0.6915 -0.6243
  787MOL0     C 6152  10.362   2.173   5.602 -0.0563  0.4840 -0.1243
  787MOL0     C 6153  10.408   2.097   5.721 -0.2044  0.5895 -0.3432
  787MOL0    Cl 6154  10.511   2.203   5.827 -0.3600  0.3058  0.4655
  787MOL0     C 6155   9.577   1.862   5.011 -0.5522 -0.1222  0.3208
  787MOL0     C 6156   9.451   1.855   4.950 -0.2015  0.0154 -0.1506
  787MOL0     O 6157   9.268   2.151   4.797 -0.4191 -0.0135 -0.3807
  787MOL0     C 6158   9.032   2.146   4.642  0.3613  0.4908 -0.8054
  787MOL0     C 6159   8.933   2.149   4.548 -0.1910  0.1617 -0.4703
  787MOL0     N 6160   9.012   1.823   3.728 -0.8443 -0.0910 -0.3042
  787MOL0     N 6161   9.052   1.821   3.603 -0.0526  0.1228 -0.4169
  787MOL0     C 6162   8.324   2.579   2.868 -1.1008 -0.9875 -0.4299
  787MOL0     C 6163   8.186   2.595   2.897  0.5304  1.3849  0.3102
  787MOL0     C 6164   7.759   2.450   2.993 -0.1041 -0.3045  0.4180
  787MOL0     C 6165   7.711   2.366   2.888 -0.4035 -0.2178 -0.1730
  787MOL0     C 6166   7.583   2.301   2.895  0.2861 -0.4953 -1.0068
  787MOL0     C 6167   7.495   2.341   2.996  0.8702  0.2295  0.8812
  787MOL0     O 6168   7.375   2.288   2.980  0.0852 -0.1173 -0.1511
  787MOL0     C 6169   7.254   2.364   3.017 -0.1207 -0.8210 -1.3172
  787MOL0     C 6170   7.136   2.263   2.982 -0.5536  0.3243 -0.4668
  787MOL0     C 6171   7.117   2.259   2.830  0.1240  0.6020  0.4126
  787MOL0     C 6172   6.987   2.176   2.794 -0.1666  0.1467 -0.1966
  787MOL0     C 6173   6.984   2.144   2.655 -0.0045 -0.2835 -0.1147
  787MOL0     C 6174   6.991   2.123   2.535 -0.8352 -0.5086  0.9174
  787MOL0     C 6175   7.529   2.432   3.091 -0.7526 -0.3445 -0.4716
  787MOL0     C 6176   7.663   2.473   3.097  0.3223  0.6563  0.2710
  787MOL0     C 6177   7.688   2.549   3.225  0.2584  0.7323 -0.3760
  787MOL0     H 6178   8.099   2.265   2.870  1.5114 -0.1507 -2.4924
  787MOL0     H 6179   8.361   2.242   2.878 -0.8794 -0.7209 -2.3060
  787MOL0     H 6180   8.591   2.255   2.862 -0.5876  1.2627 -2.2229
  787MOL0     H 6181   8.708   2.370   2.834 -0.3451 -1.6227 -1.5682
  787MOL0     H 6182   8.522   2.357   3.085 -0.1008 -1.4260 -0.4611
  787MOL0     H 6183   8.651   2.474   3.062 -0.5199  0.3813 -2.4854
  787MOL0     H 6184   8.699   2.183   3.073  2.0711 -0.1730  0.6040
  787MOL0     H 6185   8.711   2.303   3.215 -2.8142 -2.2364  0.2108
  787MOL0     H 6186   8.898   2.272   2.972  1.0093  0.4130  0.2631
  787MOL0     H 6187   8.880   2.428   3.047  4.1510 -0.2091  0.7166
  787MOL0     H 6188   9.055   2.330   3.165 -2.2242  4.5149  1.9597
  787MOL0     H 6189   8.922   2.329   3.272  2.4135  3.0031 -0.5221
  787MOL0     H 6190   8.858   2.100   3.192  1.4104 -1.4080 -0.2269
  787MOL0     H 6191   9.015   2.089   3.116 -0.9645  0.0722 -1.5752
  787MOL0     H 6192   9.006   2.174   3.418  2.1272 -0.5915  1.4910
  787MOL0     H 6193   9.131   2.098   3.333 -0.3526 -1.9338 -0.0174
  787MOL0     H 6194   8.879   1.929   3.373  0.6848 -2.9546 -1.0221
  787MOL0     H 6195   9.048   1.885   3.340  0.8768  3.4849 -2.2686
  787MOL0     H 6196   8.867   2.089   3.622  0.5733  1.1937  0.9989
  787MOL0     H 6197   8.749   1.987   3.847  1.7451  2.5209 -0.6157
  787MOL0     H 6198   8.829   1.848   3.915 -2.2810  0.1368 -0.3347
  787MOL0     H 6199   9.020   1.988   3.992 -0.4229 -1.0418  2.3495
  787MOL0     H 6200   8.931   2.131   3.932 -0.5859  0.1679  2.2912
  787MOL0     H 6201   8.831   1.914   4.135  1.9846 -2.3773 -2.9617
  787MOL0     H 6202   8.732   2.059   4.083 -0.1222  1.3227  2.9612
  787MOL0     H 6203   8.901   2.205   4.204  0.5915 -0.1185 -0.2279
  787MOL0     H 6204   9.010   2.080   4.213  0.2830  1.5522  3.2668
  787MOL0     H 6205   9.004   1.855   4.394  5.1576 -0.6309  0.0380
  787MOL0     H 6206   9.190   1.866   4.554  2.8634  2.5082  0.2159
  787MOL0     H 6207   9.500   2.111   4.726  1.4634 -0.0935  0.9168
  787MOL0     H 6208   9.704   2.118   4.835  2.3645 -0.5467  2.6174
  787MOL0     H 6209   9.804   2.019   5.215 -0.2223 -0.3656  1.8570
  787MOL0     H 6210   9.793   1.835   5.195  2.0699 -0.6109  1.3221
  787MOL0     H 6211  10.013   1.817   5.203 -0.5555  1.7508  8.2869
  787MOL0     H 6212  10.047   1.937   5.080 -0.6383  3.2770 -0.0854
  787MOL0     H 6213  10.001   2.111   5.278 -0.4602  0.4222  3.0277
  787MOL0     H 6214  10.028   1.971   5.391  0.4931  2.9828  0.9456
  787MOL0     H 6215  10.213   2.092   5.187 -1.3872 -1.4271 -1.0168
  787MOL0     H 6216  10.245   1.947   5.289 -1.2516 -1.4514 -0.2146
  787MOL0     H 6217  10.149   2.223   5.383 -2.0077 -1.2287  0.5384
  787MOL0     H 6218  10.322   2.194   5.364  0.1273 -0.5392  0.2762
  787MOL0     H 6219  10.155   2.086   5.576  0.5996  1.8662  0.9138
  787MOL0     H 6220  10.281   1.979   5.517  0.3291  0.8158 -0.1653
  787MOL0     H 6221  10.315   2.261   5.647  0.3157  0.4934  0.2507
  787MOL0     H 6222  10.446   2.197   5.535 -1.0586  0.1522 -1.5536
  787MOL0     H 6223  10.324   2.063   5.782 -0.4382 -0.5031 -1.2317
  787MOL0     H 6224  10.466   2.008   5.696  0.8113  0.9761  0.5532
  787MOL0     H 6225   9.596   1.797   5.096 -4.1935  0.4341  1.7132
  787MOL0     H 6226   9.378   1.776   4.965  1.2044 -1.1072  1.0411
  787MOL0     H 6227   9.042   2.229   4.712 -1.7561  2.0216 -2.1941
  787MOL0     H 6228   8.860   2.230   4.548 -0.4060  0.0007  1.1951
  787MOL0     H 6229   8.379   2.673   2.858  0.3797 -1.6996  0.6016
  787MOL0     H 6230   8.147   2.696   2.896  0.0941  1.2171 -0.5757
  787MOL0     H 6231   7.767   2.359   2.796  1.3711  3.2222  0.4789
  787MOL0     H 6232   7.530   2.244   2.820 -2.7201  0.8014 -0.0122
  787MOL0     H 6233   7.242   2.458   2.962  3.8264 -0.0048 -1.0561
  787MOL0     H 6234   7.257   2.379   3.126  1.6388 -0.0409 -1.4466
  787MOL0     H 6235   7.044   2.295   3.033  1.7411 -1.1279  5.4309
  787MOL0     H 6236   7.155   2.164   3.023 -0.6883  0.3227 -0.4067
  787MOL0     H 6237   7.204   2.201   2.798  0.8087  2.1029 -0.5329
  787MOL0     H 6238   7.125   2.361   2.793  0.2966  0.1532 -0.8191
  787MOL0     H 6239   6.973   2.085   2.852 -1.4774  0.4872  0.0640
  787MOL0     H 6240   6.900   2.238   2.821 -1.9326 -2.7505  1.2334
  787MOL0     H 6241   7.003   2.074   2.441  0.5292  2.7371 -0.7164
  787MOL0     H 6242   7.466   2.462   3.174 -0.1982  0.6122 -0.3876
  787MOL0     H 6243   7.599   2.538   3.287  0.6855 -2.1881 -0.1520
  787MOL0     H 6244   7.782   2.506   3.262 -0.3785 -0.5017 -0.1470
  787MOL0     H 6245   7.705   2.657   3.224  0.2933  0.7347  0.5073
  788MOL0     O 6246   8.767   9.899   5.291 -0.0260 -0.5604  0.2078
  788MOL0     C 6247   8.678   9.822   5.341 -0.0412 -0.9466 -0.1995
  788MOL0     O 6248   8.672   9.792   5.480 -0.0582 -0.5345  0.1314
  788MOL0     C 6249   8.777   9.816   5.567  0.3454 -0.2754  0.1098
  788MOL0     C 6250   8.775   9.737   5.685  0.2986 -0.4070 -0.0914
  788MOL0     C 6251   8.859   9.754   5.791 -0.1463 -1.3835 -0.5673
  788MOL0     C 6252   8.954   9.856   5.781  1.4604 -0.6395 -0.7453
  788MOL0     O 6253   9.031   9.892   5.894 -0.9023 -0.0932  0.6084
  788MOL0     C 6254   8.946   9.904   6.005 -0.5959  0.3839  0.2060
  788MOL0     C 6255   9.030   9.977   6.108 -0.1908 -0.7150  0.3249
  788MOL0     C 6256   9.113   9.889   6.191 -0.6720 -0.5254 -0.1653
  788MOL0     C 6257   9.210   9.977   6.274  0.6858  0.3783 -0.4400
  788MOL0     C 6258   9.234   9.907   6.399 -0.8247  0.2936 -0.7979
  788MOL0     C 6259   9.288   9.763   6.398 -0.5511 -0.4873 -0.2348
  788MOL0     C 6260   9.361   9.726   6.529 -0.3719 -0.9634  0.0627
  788MOL0     C 6261   9.470   9.828   6.564  0.3654 -1.3146 -0.7159
  788MOL0     N 6262   9.569   9.770   6.651  0.9440 -0.6988  0.7550
  788MOL0     C 6263   9.694   9.735   6.617  0.6052  0.6812  0.3504
  788MOL0     C 6264   9.745   9.676   6.724 -1.1682 -0.8727 -0.1261
  788MOL0     C 6265   9.878   9.593   6.732  0.4606 -0.9963  0.8710
  788MOL0     C 6266   9.872   9.480   6.835 -1.1524 -0.0513 -0.1661
  788MOL0     C 6267  10.016   9.407   6.850  0.4036  0.7264  0.7349
  788MOL0     C 6268  10.110   9.470   6.952 -0.0197  0.5594  0.6150
  788MOL0     O 6269  10.149   9.595   6.896  0.4152 -0.2425 -0.4493
  788MOL0     C 6270  10.265   9.670   6.948  1.0396  0.0295  0.5356
  788MOL0     C 6271  10.308   9.792   6.871  0.2408  0.5072 -0.3456
  788MOL0     C 6272  10.422   9.855   6.910 -0.9114  0.2085 -0.5584
  788MOL0     C 6273  10.493   9.801   7.019  0.1464  0.8226 -0.4302
  788MOL0     C 6274  10.630   9.857   7.060 -0.0713 -0.2433 -0.6436
  788MOL0     O 6275  10.662   9.849   7.196  0.3736 -0.0128  0.4087
  788MOL0     C 6276  10.788   9.858   7.244  0.9878 -0.5357  0.6587
  788MOL0     C 6277  10.898   9.839   7.161  0.0365  0.5343  0.2725
  788MOL0     C 6278  11.024   9.818   7.218  0.1397  1.3198 -0.4021
  788MOL0     C 6279  11.043   9.798   7.356 -0.7655 -0.2184  0.0627
  788MOL0     O 6280  11.153   9.753   7.415 -0.7978 -0.2598  0.2871
  788MOL0     C 6281  11.259   9.845   7.404  0.6153 -0.8664 -1.0535
  788MOL0     C 6282  11.385   9.778   7.438  0.6010  0.4949 -0.3941
  788MOL0     C 6283  11.377   9.709   7.579 -0.1345 -1.1871 -0.1236
  788MOL0     C 6284  11.521   9.678   7.633 -0.6626 -0.5203 -0.1835
  788MOL0     C 6285  11.506   9.597   7.762 -1.4258  0.4524 -0.6751
  788MOL0     C 6286  11.647   9.576   7.823  0.3189 -0.7623  0.3015
  788MOL0     C 6287  11.648   9.641   7.963 -0.3260  0.7499 -0.0742
  788MOL0     C 6288  11.799   9.664   8.006  0.9445  0.0647  0.9489
  788MOL0    Cl 6289  11.794   9.783   8.131 -0.2305  0.1797 -1.1204
  788MOL0     C 6290  10.934   9.811   7.437  0.5807 -0.7383  0.1003
  788MOL0     C 6291  10.801   9.841   7.382 -0.4892  0.1446 -0.1500
  788MOL0     O 6292  10.693   9.924   6.980 -0.1330 -0.6347 -0.3381
  788MOL0     C 6293  10.442   9.698   7.098  0.2070 -0.0478  0.3189
  788MOL0     C 6294  10.330   9.635   7.061  0.0488 -0.0399  0.3930
  788MOL0     N 6295   9.649   9.679   6.824  0.5661  0.8151  0.1971
  788MOL0     N 6296   9.542   9.742   6.784 -0.4606  0.3899  0.0737
  788MOL0     C 6297   8.967   9.930   5.664 -0.9396  0.7353 -0.1350
  788MOL0     C 6298   8.878   9.909   5.562 -0.0860 -0.5557 -0.2442
  788MOL0     C 6299   8.562   9.769   5.258 -0.0503 -0.0940  0.5088
  788MOL0     C 6300   8.556   9.628   5.262  0.5055 -0.2777  0.4355
  788MOL0     C 6301   8.463   9.564   5.179 -0.3204  0.1110  0.1470
  788MOL0     C 6302   8.384   9.637   5.090 -1.2050 -0.0678  0.3939
  788MOL0     O 6303   8.286   9.585   5.003  0.9016 -0.4516 -0.0771
  788MOL0     C 6304   8.266   9.446   4.994 -0.2179  0.0615  0.3814
  788MOL0     C 6305   8.364   9.382   4.898 -0.2023  0.5217  0.3536
  788MOL0     C 6306   8.373   9.428   4.753  0.3060 -0.8246  0.2505
  788MOL0     C 6307   8.269   9.530   4.706  0.2655  0.4457 -0.6723
  788MOL0     C 6308   8.278   9.555   4.558  0.2528 -0.5315 -0.5010
  788MOL0     C 6309   8.283   9.575   4.439  0.7377 -0.2458  0.3409
  788MOL0     C 6310   8.397   9.774   5.088 -0.2338 -0.6108 -0.0545
  788MOL0     C 6311   8.491   9.845   5.162 -0.3267  0.0549 -0.4624
  788MOL0     C 6312   8.502   9.993   5.167  0.4315  0.1043 -0.1776
  788MOL0     H 6313   8.689   9.671   5.693 -2.3339  2.8986  1.2854
  788MOL0     H 6314   8.848   9.690   5.878 -0.9388  0.1664  0.5202
  788MOL0     H 6315   8.852   9.958   5.986 -1.1051  0.4077  2.4973
  788MOL0     H 6316   8.913   9.805   6.038 -2.2129  0.7123 -0.3386
  788MOL0     H 6317   8.962  10.038   6.168  1.7274  3.5558 -1.4118
  788MOL0     H 6318   9.097  10.053   6.067 -0.3292  0.4801  2.2226
  788MOL0     H 6319   9.187   9.839   6.128  0.1600  1.1869 -0.5990
  788MOL0     H 6320   9.048   9.829   6.256 -2.5946  2.7527  1.1661
  788MOL0     H 6321   9.310   9.985   6.230  0.5087 -3.9266 -2.1247
  788MOL0     H 6322   9.164  10.073   6.301 -1.2502 -0.4371 -0.6725
  788MOL0     H 6323   9.286   9.977   6.464  0.2272 -2.0495  1.0376
  788MOL0     H 6324   9.135   9.913   6.445 -1.1066  3.8725 -1.5516
  788MOL0     H 6325   9.200   9.698   6.391 -2.0076  1.1595  1.6136
  788MOL0     H 6326   9.355   9.755   6.312 -1.7226  1.9720 -1.4693
  788MOL0     H 6327   9.392   9.621   6.530 -3.4701 -1.9962  1.3117
  788MOL0     H 6328   9.278   9.741   6.599 -1.0019  2.5210 -1.2408
  788MOL0     H 6329   9.519   9.866   6.474 -2.1461  0.6636 -1.3735
  788MOL0     H 6330   9.417   9.913   6.610  0.1549 -1.3283 -0.9311
  788MOL0     H 6331   9.732   9.724   6.516 -0.2369 -2.8120  0.2955
  788MOL0     H 6332   9.908   9.559   6.632  1.0548 -0.2935  0.7946
  788MOL0     H 6333   9.953   9.669   6.757  0.1229  0.5877 -2.3064
  788MOL0     H 6334   9.846   9.525   6.931 -2.0564 -1.9144  0.5257
  788MOL0     H 6335   9.797   9.413   6.792 -0.0189  0.3231 -2.9689
  788MOL0     H 6336  10.060   9.398   6.750 -0.2305 -1.0909  0.5877
  788MOL0     H 6337   9.996   9.305   6.882 -0.8775  0.0082 -2.0400
  788MOL0     H 6338  10.190   9.398   6.973  0.2856  0.9118  0.6790
  788MOL0     H 6339  10.056   9.493   7.045 -0.2819 -0.8138  0.8286
  788MOL0     H 6340  10.247   9.835   6.792  0.3807  1.4784  0.0602
  788MOL0     H 6341  10.456   9.947   6.864  0.6946 -0.7373 -1.3754
  788MOL0     H 6342  10.896   9.826   7.053 -2.2652 -3.2153  0.5667
  788MOL0     H 6343  11.118   9.821   7.164  1.0827  2.6036  1.2079
  788MOL0     H 6344  11.264   9.900   7.310 -1.3107  0.8004 -0.2786
  788MOL0     H 6345  11.241   9.922   7.480  1.3206 -1.7684  0.0574
  788MOL0     H 6346  11.404   9.698   7.366 -0.1695 -1.4783  1.5000
  788MOL0     H 6347  11.466   9.851   7.428  0.1237  1.3539  1.5044
  788MOL0     H 6348  11.323   9.767   7.655 -0.7869 -0.6065 -1.0178
  788MOL0     H 6349  11.318   9.617   7.586  0.3894 -1.6934 -1.9997
  788MOL0     H 6350  11.573   9.769   7.664 -0.5852  0.7344 -3.5243
  788MOL0     H 6351  11.565   9.635   7.543 -0.1344  0.2907 -0.3214
  788MOL0     H 6352  11.475   9.495   7.735  0.9132 -0.2010 -1.1828
  788MOL0     H 6353  11.433   9.632   7.836 -0.7013 -2.7518  1.7760
  788MOL0     H 6354  11.671   9.470   7.825  1.6689 -0.4700  0.3118
  788MOL0     H 6355  11.714   9.630   7.755  1.0116 -0.5534  1.1417
  788MOL0     H 6356  11.603   9.566   8.028  1.6432 -1.3695 -1.0321
  788MOL0     H 6357  11.593   9.735   7.970 -0.1602  0.9750 -1.4445
  788MOL0     H 6358  11.842   9.568   8.035 -2.5065 -1.9962 -0.1717
  788MOL0     H 6359  11.870   9.703   7.933 -0.7912  2.3286  0.3519
  788MOL0     H 6360  10.939   9.791   7.543  1.5661  0.0329  0.2068
  788MOL0     H 6361  10.714   9.856   7.445  0.3437 -0.3719  1.1415
  788MOL0     H 6362  10.488   9.668   7.192  0.2296  2.5938  1.2368
  788MOL0     H 6363  10.297   9.548   7.118 -0.9727  0.5009  0.6512
  788MOL0     H 6364   9.050   9.999   5.646 -2.0870  1.5758 -2.6484
  788MOL0     H 6365   8.884   9.971   5.473 -0.3318 -2.2111 -1.4503
  788MOL0     H 6366   8.626   9.566   5.316 -0.2505  1.0068  3.0380
  788MOL0     H 6367   8.458   9.455   5.179 -0.1193  0.0970 -0.9370
  788MOL0     H 6368   8.167   9.430   4.950  1.3924 -0.1174 -3.5777
  788MOL0     H 6369   8.270   9.402   5.094 -3.4258  1.6614  1.3372
  788MOL0     H 6370   8.326   9.279   4.900 -1.1981  0.8675 -0.0223
  788MOL0     H 6371   8.459   9.385   4.952 -1.1356  3.4577  2.0523
  788MOL0     H 6372   8.355   9.340   4.691 -0.7306 -0.3063 -0.1994
  788MOL0     H 6373   8.467   9.477   4.726 -1.2010  0.8985 -2.2281
  788MOL0     H 6374   8.169   9.503   4.740  1.4029 -1.0178  1.8084
  788MOL0     H 6375   8.297   9.628   4.745  4.3491 -0.7410 -0.0761
  788MOL0     H 6376   8.299   9.602   4.337 -2.2621  2.1719  0.3568
  788MOL0     H 6377   8.331   9.821   5.016 -1.4017  2.2034  2.6143
  788MOL0     H 6378   8.432  10.039   5.098 -1.4159  0.6376  1.9407
  788MOL0     H 6379   8.471  10.032   5.265  1.2211 -1.0495  0.5617
  788MOL0     H 6380   8.597  10.037   5.135  0.7383  1.7812  2.6346
  789MOL0     O 6381   5.570   8.372   0.570  0.8256 -0.1963  0.4093
  789MOL0     C 6382   5.660   8.304   0.522 -0.6955  0.5694 -0.1468
  789MOL0     O 6383   5.791   8.345   0.523 -0.3479  0.1417  0.5328
  789MOL0     C 6384   5.810   8.477   0.534 -0.1644 -0.3614  1.0041
  789MOL0     C 6385   5.866   8.527   0.651 -0.9006 -0.8014  0.2299
  789MOL0     C 6386   5.898   8.665   0.662 -1.0018  1.3045 -0.2741
  789MOL0     C 6387   5.869   8.759   0.562  0.1424  0.5970  0.4742
  789MOL0     O 6388   5.921   8.882   0.552  0.3891  0.2779 -0.1780
  789MOL0     C 6389   6.017   8.901   0.444 -0.5756  0.3216  1.0143
  789MOL0     C 6390   6.091   9.036   0.466  0.4847 -0.2101 -0.3004
  789MOL0     C 6391   5.984   9.143   0.505 -0.3227 -0.5830  0.4940
  789MOL0     C 6392   6.044   9.281   0.486  0.8187 -0.0454  0.8057
  789MOL0     C 6393   5.956   9.401   0.530 -0.0327  0.3283 -0.2517
  789MOL0     C 6394   5.815   9.404   0.465 -0.1911  0.2192 -0.3767
  789MOL0     C 6395   5.729   9.533   0.479 -0.3655  0.0642 -0.9060
  789MOL0     C 6396   5.694   9.564   0.626 -0.0587  0.2998  1.1447
  789MOL0     N 6397   5.617   9.693   0.626 -0.3555 -0.9177 -0.0107
  789MOL0     C 6398   5.478   9.707   0.638  0.3379  0.4971 -0.1532
  789MOL0     C 6399   5.443   9.834   0.594 -0.7572  0.5373 -0.7760
  789MOL0     C 6400   5.305   9.898   0.576 -0.2028 -1.4733  0.3117
  789MOL0     C 6401   5.290  10.018   0.679 -0.7432  0.3853 -0.5347
  789MOL0     C 6402   5.151  10.082   0.688 -0.1627 -0.0685  0.0532
  789MOL0     C 6403   5.136  10.185   0.797  0.2583 -0.3570 -0.0995
  789MOL0     O 6404   4.995  10.207   0.810  0.5064  0.2799  0.0881
  789MOL0     C 6405   4.949  10.289   0.905  0.5890 -0.3579  0.0561
  789MOL0     C 6406   4.816  10.311   0.919  0.1245 -0.5327  0.2702
  789MOL0     C 6407   4.771  10.387   1.031  0.8864 -0.2976 -0.1177
  789MOL0     C 6408   4.849  10.455   1.119 -0.4903  0.3256  0.3222
  789MOL0     C 6409   4.795  10.555   1.216 -0.3164  0.3535 -0.4236
  789MOL0     O 6410   4.671  10.531   1.268  0.5903 -0.5024  0.2332
  789MOL0     C 6411   4.628  10.615   1.368 -0.0502 -1.1596 -0.2144
  789MOL0     C 6412   4.525  10.709   1.344 -1.2730 -0.2016 -1.0234
  789MOL0     C 6413   4.482  10.788   1.455  0.2194 -0.3020  0.1750
  789MOL0     C 6414   4.542  10.793   1.584 -0.1103 -0.3545 -0.3363
  789MOL0     O 6415   4.507  10.888   1.681  0.1352 -0.4032  0.3202
  789MOL0     C 6416   4.392  10.971   1.662 -1.1789 -0.2363 -0.6495
  789MOL0     C 6417   4.349  11.030   1.800 -0.5575  0.2421 -0.8770
  789MOL0     C 6418   4.426  11.141   1.871 -0.5597  1.2602  0.0699
  789MOL0     C 6419   4.565  11.100   1.889  0.3137  0.1890  0.0596
  789MOL0     C 6420   4.639  11.185   1.990 -0.0006  0.2111  0.5199
  789MOL0     C 6421   4.781  11.152   2.025 -0.1941  1.3720 -1.7653
  789MOL0     C 6422   4.843  11.244   2.125  0.0394 -0.2943  0.0169
  789MOL0     C 6423   4.992  11.250   2.149  0.6296  1.1460  0.2605
  789MOL0    Cl 6424   5.079  11.218   1.994 -0.0819 -0.4289 -0.1628
  789MOL0     C 6425   4.646  10.696   1.601  0.2223 -0.4191  0.3408
  789MOL0     C 6426   4.690  10.609   1.493  0.2244  0.0065  0.2033
  789MOL0     O 6427   4.878  10.639   1.255 -0.4975 -0.9864 -0.7558
  789MOL0     C 6428   4.990  10.439   1.088 -0.1645 -0.8144  0.0655
  789MOL0     C 6429   5.043  10.357   0.987 -0.3172 -0.4717  0.3695
  789MOL0     N 6430   5.558   9.898   0.558  0.3305  0.7083 -0.5003
  789MOL0     N 6431   5.656   9.816   0.579 -0.3609 -0.1502  0.1151
  789MOL0     C 6432   5.800   8.707   0.456  0.5240  0.6425  0.2484
  789MOL0     C 6433   5.772   8.571   0.433 -1.0030  0.3755 -0.0888
  789MOL0     C 6434   5.617   8.180   0.459  0.1000 -0.4570 -0.0490
  789MOL0     C 6435   5.487   8.171   0.393 -0.2837 -0.4432 -0.0181
  789MOL0     C 6436   5.430   8.058   0.347  0.0957 -0.3161  0.0684
  789MOL0     C 6437   5.498   7.932   0.356 -0.5560  0.0440 -0.6697
  789MOL0     O 6438   5.439   7.816   0.308  0.0436  0.0390 -1.2832
  789MOL0     C 6439   5.516   7.690   0.317  0.4090 -0.8022 -0.0369
  789MOL0     C 6440   5.489   7.597   0.431  1.4082 -1.5134  0.1685
  789MOL0     C 6441   5.336   7.596   0.465 -0.1715 -0.3818  0.2003
  789MOL0     C 6442   5.287   7.505   0.576 -0.2182 -0.2528 -0.6999
  789MOL0     C 6443   5.276   7.357   0.537 -0.0693 -0.0396 -0.0175
  789MOL0     C 6444   5.278   7.241   0.547 -0.2304  0.6468  0.2205
  789MOL0     C 6445   5.630   7.935   0.427  0.7949 -0.2009  0.7157
  789MOL0     C 6446   5.691   8.050   0.476  0.3180 -0.4558  0.5701
  789MOL0     C 6447   5.841   8.041   0.523  1.1795 -0.1951 -0.1329
  789MOL0     H 6448   5.910   8.466   0.730  0.3410  1.0290  1.0437
  789MOL0     H 6449   5.943   8.691   0.757 -0.5378  0.5754 -0.2918
  789MOL0     H 6450   6.082   8.815   0.423  4.5651  3.8182  0.6588
  789MOL0     H 6451   5.968   8.915   0.347  0.5257 -0.3904  0.3180
  789MOL0     H 6452   6.134   9.064   0.370  2.9182  2.4999  1.4001
  789MOL0     H 6453   6.177   9.049   0.533  0.0397  0.5691  0.1401
  789MOL0     H 6454   5.933   9.130   0.601 -0.4406 -0.2528  0.4776
  789MOL0     H 6455   5.902   9.139   0.432 -2.2926 -2.8977  2.6751
  789MOL0     H 6456   6.137   9.294   0.541  0.1367  1.5237  1.6607
  789MOL0     H 6457   6.062   9.283   0.378  0.5913  0.8629  0.7757
  789MOL0     H 6458   5.954   9.409   0.639  1.5079 -0.8778 -0.1017
  789MOL0     H 6459   6.007   9.496   0.508  0.0285  1.2625  3.2821
  789MOL0     H 6460   5.824   9.385   0.357 -2.4422 -0.1505 -0.5424
  789MOL0     H 6461   5.761   9.320   0.509 -3.7200  1.1956 -2.4365
  789MOL0     H 6462   5.643   9.518   0.412 -0.6596  1.3319 -0.8446
  789MOL0     H 6463   5.790   9.620   0.451  2.5591 -0.4808  2.9835
  789MOL0     H 6464   5.637   9.480   0.667  1.6493 -1.4024  0.2019
  789MOL0     H 6465   5.775   9.585   0.696  0.4817  1.4716  0.1935
  789MOL0     H 6466   5.406   9.634   0.674  0.1336  1.4527  1.4762
  789MOL0     H 6467   5.295   9.929   0.472  0.1333  0.4337  0.7950
  789MOL0     H 6468   5.235   9.815   0.584  0.8279 -2.5167 -1.1110
  789MOL0     H 6469   5.322   9.987   0.779  0.9079  0.9030 -0.8805
  789MOL0     H 6470   5.350  10.107   0.660  0.2681  0.8203  3.6610
  789MOL0     H 6471   5.088   9.993   0.691 -1.3136  0.6068 -2.0450
  789MOL0     H 6472   5.139  10.135   0.593  0.9128 -2.2244 -1.3734
  789MOL0     H 6473   5.195  10.270   0.760  0.9895 -0.8066  0.0218
  789MOL0     H 6474   5.180  10.160   0.894  2.7851 -1.6814 -1.4589
  789MOL0     H 6475   4.757  10.264   0.841 -0.3647  0.4207  0.0594
  789MOL0     H 6476   4.666  10.405   1.050  0.5911 -2.3466  0.4853
  789MOL0     H 6477   4.481  10.698   1.245 -0.6899 -1.4198 -1.1681
  789MOL0     H 6478   4.399  10.857   1.444  1.2288  0.6340 -2.6313
  789MOL0     H 6479   4.410  11.050   1.588 -1.1704  0.4154  0.0333
  789MOL0     H 6480   4.319  10.900   1.623 -1.8867  0.9910 -1.6269
  789MOL0     H 6481   4.247  11.066   1.782 -1.9739 -1.5554  2.5118
  789MOL0     H 6482   4.348  10.941   1.865  2.2418  0.2330 -0.7330
  789MOL0     H 6483   4.439  11.229   1.808 -1.5266  0.9290 -0.6120
  789MOL0     H 6484   4.378  11.155   1.968 -1.4455 -1.7179  0.1516
  789MOL0     H 6485   4.620  11.092   1.795  1.0066 -0.7981  0.5311
  789MOL0     H 6486   4.571  10.996   1.922 -0.5938 -0.1786 -0.8631
  789MOL0     H 6487   4.574  11.198   2.077  1.0758 -0.3534  1.4239
  789MOL0     H 6488   4.647  11.287   1.949 -0.6043  0.2464  0.4724
  789MOL0     H 6489   4.790  11.054   2.073  0.6133 -0.1727 -4.8031
  789MOL0     H 6490   4.842  11.153   1.934 -0.4446 -1.4147 -2.0463
  789MOL0     H 6491   4.807  11.212   2.224  3.8532  2.5743  2.6220
  789MOL0     H 6492   4.816  11.344   2.092 -0.5543 -0.1774  0.8122
  789MOL0     H 6493   5.024  11.334   2.210  3.1312 -1.1941  2.4251
  789MOL0     H 6494   5.003  11.159   2.209  3.3700  1.5838  0.5453
  789MOL0     H 6495   4.691  10.695   1.700 -0.8685  2.6061  0.9573
  789MOL0     H 6496   4.775  10.544   1.509 -2.5199 -3.0088  4.9193
  789MOL0     H 6497   5.049  10.515   1.138 -3.0486  1.1312  0.7281
  789MOL0     H 6498   5.150  10.350   0.969 -0.7932  0.6804 -4.3272
  789MOL0     H 6499   5.771   8.769   0.372  3.3193 -0.4485 -1.7020
  789MOL0     H 6500   5.717   8.531   0.349 -0.7045  0.9053 -0.5394
  789MOL0     H 6501   5.432   8.264   0.393 -0.7827 -0.6077 -3.8606
  789MOL0     H 6502   5.327   8.068   0.313 -0.3367 -3.7130  0.0058
  789MOL0     H 6503   5.620   7.716   0.300  0.3014 -1.4236 -1.8145
  789MOL0     H 6504   5.485   7.642   0.224  0.5270  0.5220 -0.7902
  789MOL0     H 6505   5.540   7.623   0.524 -1.6904 -2.7988  2.4046
  789MOL0     H 6506   5.527   7.499   0.400  0.2747 -2.5577  1.9041
  789MOL0     H 6507   5.274   7.575   0.377 -1.0697  1.2822  0.3813
  789MOL0     H 6508   5.301   7.696   0.494 -0.2337 -0.5162  0.5953
  789MOL0     H 6509   5.354   7.519   0.661 -2.2965  0.6010  0.8660
  789MOL0     H 6510   5.190   7.545   0.607 -0.8982 -2.2945 -0.0512
  789MOL0     H 6511   5.301   7.137   0.559 -1.0601 -0.0512 -3.0864
  789MOL0     H 6512   5.695   7.848   0.428  0.5425 -0.4201 -0.2923
  789MOL0     H 6513   5.903   8.062   0.435 -0.3651 -3.1229 -2.0790
  789MOL0     H 6514   5.868   8.113   0.602  1.4947 -0.6627  0.1899
  789MOL0     H 6515   5.855   7.945   0.574 -0.6670  0.5965  2.0542
  790MOL0     O 6516   4.965   6.851   4.811 -0.5572 -0.0301  0.8173
  790MOL0     C 6517   5.005   6.939   4.882  0.0897 -0.2889  0.9232
  790MOL0     O 6518   4.920   7.018   4.944 -0.5292 -0.7109 -1.0058
  790MOL0     C 6519   4.811   7.071   4.879  0.0317  0.5835  0.7811
  790MOL0     C 6520   4.824   7.106   4.741  0.6116 -0.7120  0.6066
  790MOL0     C 6521   4.710   7.173   4.683  0.0564  0.0561 -0.2567
  790MOL0     C 6522   4.601   7.209   4.762  0.8857  0.4827 -1.0082
  790MOL0     O 6523   4.508   7.286   4.695  0.1580 -0.1141  0.3223
  790MOL0     C 6524   4.378   7.283   4.742  0.5664 -0.7502  0.4053
  790MOL0     C 6525   4.277   7.313   4.632 -0.1324 -0.5885  0.1261
  790MOL0     C 6526   4.265   7.183   4.542 -0.2593  0.1072 -0.9232
  790MOL0     C 6527   4.187   7.217   4.416 -0.2642  0.3503  0.2513
  790MOL0     C 6528   4.154   7.088   4.324  0.9281  0.5227 -0.3556
  790MOL0     C 6529   4.086   7.133   4.197 -0.1931 -0.1370  0.7156
  790MOL0     C 6530   4.020   7.037   4.101  0.5957  0.4808  0.0597
  790MOL0     C 6531   4.121   6.973   3.996 -0.5482 -0.5253  0.0069
  790MOL0     N 6532   4.206   6.874   4.068  0.4689 -0.0242 -0.1543
  790MOL0     C 6533   4.338   6.852   4.035 -0.1981  0.0064  0.1759
  790MOL0     C 6534   4.384   6.766   4.138 -0.5810 -0.4516  0.5349
  790MOL0     C 6535   4.527   6.707   4.143 -0.0267  0.3067 -0.6545
  790MOL0     C 6536   4.591   6.666   4.002 -0.2261  0.4524  0.6246
  790MOL0     C 6537   4.727   6.612   4.019  0.6895  0.3504 -0.0406
  790MOL0     C 6538   4.833   6.722   4.043  0.3812 -0.2828 -0.8338
  790MOL0     O 6539   4.957   6.652   4.071 -0.4469 -0.1284 -0.2469
  790MOL0     C 6540   5.056   6.634   3.975 -0.3788 -0.0066  0.6327
  790MOL0     C 6541   5.054   6.648   3.840 -0.1957 -0.1556 -0.6426
  790MOL0     C 6542   5.156   6.634   3.746  0.3708  0.6169 -0.0449
  790MOL0     C 6543   5.275   6.582   3.794  0.0921  0.1232  0.2176
  790MOL0     C 6544   5.399   6.577   3.707  0.6454  0.2711 -0.0995
  790MOL0     O 6545   5.378   6.620   3.577  0.1722 -0.2330  0.0889
  790MOL0     C 6546   5.464   6.596   3.482  0.0486 -0.4462 -0.6317
  790MOL0     C 6547   5.406   6.542   3.370  0.5902 -1.6283  0.5568
  790MOL0     C 6548   5.487   6.501   3.258  0.3666  0.2612 -0.8651
  790MOL0     C 6549   5.621   6.514   3.253 -0.4981 -0.6832  0.3001
  790MOL0     O 6550   5.692   6.490   3.143 -0.6759 -0.0250 -0.2060
  790MOL0     C 6551   5.758   6.364   3.122  0.9074 -0.6456 -1.0009
  790MOL0     C 6552   5.648   6.277   3.061 -0.8850  0.5942  0.3478
  790MOL0     C 6553   5.622   6.302   2.907 -0.0922 -0.2621 -0.2064
  790MOL0     C 6554   5.553   6.179   2.855  0.0491 -0.1475 -0.4084
  790MOL0     C 6555   5.515   6.197   2.710 -0.6481  0.7138 -0.3577
  790MOL0     C 6556   5.490   6.059   2.638 -0.4672  0.0083 -0.8031
  790MOL0     C 6557   5.453   6.086   2.490  0.8033  0.1509 -1.7501
  790MOL0     C 6558   5.414   5.966   2.399  0.1780  0.8534 -0.0711
  790MOL0    Cl 6559   5.360   6.023   2.239  0.1658 -0.7154 -0.5334
  790MOL0     C 6560   5.688   6.580   3.364  0.0318 -0.5825  0.7808
  790MOL0     C 6561   5.611   6.624   3.485  0.7251 -1.8291  0.2371
  790MOL0     O 6562   5.503   6.527   3.747  0.6687 -0.2018  0.2675
  790MOL0     C 6563   5.290   6.564   3.931 -0.0807 -0.5759  0.5485
  790MOL0     C 6564   5.188   6.597   4.019 -0.4188  0.1346  0.7162
  790MOL0     N 6565   4.267   6.712   4.202  0.2250 -0.3021  1.0687
  790MOL0     N 6566   4.167   6.780   4.161 -0.4274  0.0281  0.1014
  790MOL0     C 6567   4.596   7.179   4.896 -0.2124 -0.0321  0.1387
  790MOL0     C 6568   4.698   7.102   4.945  0.0626 -0.3566 -0.3837
  790MOL0     C 6569   5.144   6.956   4.920  0.2088 -0.0400  0.3290
  790MOL0     C 6570   5.184   7.047   5.020  0.1388 -0.4005 -0.2206
  790MOL0     C 6571   5.316   7.052   5.067 -0.0881 -0.5671 -0.3939
  790MOL0     C 6572   5.419   6.959   5.019  0.6515  0.4345 -0.7929
  790MOL0     O 6573   5.539   6.935   5.070 -0.7083  0.0608  0.1911
  790MOL0     C 6574   5.598   7.024   5.169 -0.4097  0.1606 -0.0833
  790MOL0     C 6575   5.672   7.141   5.116 -0.0053 -0.0085  0.2990
  790MOL0     C 6576   5.751   7.126   4.980 -0.0715 -0.3018 -0.0649
  790MOL0     C 6577   5.805   7.256   4.933  0.0372 -0.8397 -0.1590
  790MOL0     C 6578   5.929   7.285   5.001  0.6044  0.7352  0.5453
  790MOL0     C 6579   6.035   7.319   5.054 -0.2404  0.1348  0.2985
  790MOL0     C 6580   5.378   6.875   4.919  0.6732  0.1057 -0.9669
  790MOL0     C 6581   5.248   6.868   4.864  0.2183 -0.1885  0.7231
  790MOL0     C 6582   5.234   6.773   4.748  0.9801 -0.2429  0.6940
  790MOL0     H 6583   4.900   7.069   4.673 -2.2096 -2.6331 -1.7341
  790MOL0     H 6584   4.707   7.209   4.581  1.4533 -0.2539 -0.4319
  790MOL0     H 6585   4.357   7.182   4.778 -2.2738 -1.2038 -2.1779
  790MOL0     H 6586   4.360   7.347   4.828 -2.0785  0.1291 -0.7137
  790MOL0     H 6587   4.316   7.391   4.566  0.6624 -0.2420  0.9751
  790MOL0     H 6588   4.174   7.326   4.667 -0.6679 -0.2490 -1.4818
  790MOL0     H 6589   4.206   7.112   4.602 -1.2098 -0.1791 -2.1561
  790MOL0     H 6590   4.357   7.128   4.520 -1.2695 -1.3647 -1.7111
  790MOL0     H 6591   4.094   7.267   4.444  1.0376  4.4030 -1.8372
  790MOL0     H 6592   4.256   7.282   4.359  1.2435  2.0094  3.6721
  790MOL0     H 6593   4.250   7.040   4.301 -0.6063 -3.6865  1.1342
  790MOL0     H 6594   4.088   7.023   4.381  1.0481  0.4883 -0.2552
  790MOL0     H 6595   4.017   7.213   4.224  0.2345  0.2395  0.7027
  790MOL0     H 6596   4.167   7.181   4.142 -3.8258  3.7963 -1.8079
  790MOL0     H 6597   3.946   7.088   4.039  1.3739 -0.6404 -1.8970
  790MOL0     H 6598   3.969   6.964   4.164  0.8888 -0.9263 -1.2472
  790MOL0     H 6599   4.070   6.920   3.915 -0.3754 -0.4725 -0.1368
  790MOL0     H 6600   4.182   7.048   3.945  2.3507 -2.8180 -0.1184
  790MOL0     H 6601   4.384   6.906   3.953 -1.0530  0.2086 -0.1820
  790MOL0     H 6602   4.590   6.787   4.184 -0.9624  1.8450 -2.0451
  790MOL0     H 6603   4.534   6.628   4.218  3.9247  1.9204  0.9508
  790MOL0     H 6604   4.523   6.594   3.955  2.1987 -1.3023 -0.4293
  790MOL0     H 6605   4.586   6.744   3.925 -3.3124  1.5388  1.7808
  790MOL0     H 6606   4.754   6.555   3.930 -1.4048 -3.8033  1.6737
  790MOL0     H 6607   4.725   6.534   4.096 -0.8984  0.0778 -0.3211
  790MOL0     H 6608   4.813   6.789   4.127  0.1429 -1.3293 -0.0341
  790MOL0     H 6609   4.837   6.783   3.952  1.9808  0.6086 -0.1966
  790MOL0     H 6610   4.954   6.673   3.805  0.3694  1.7754 -1.0088
  790MOL0     H 6611   5.126   6.653   3.643 -1.6357 -1.2755  0.1295
  790MOL0     H 6612   5.298   6.542   3.357  0.2993  1.0349  2.2894
  790MOL0     H 6613   5.430   6.461   3.175 -2.7493 -0.9546  1.6700
  790MOL0     H 6614   5.846   6.375   3.059  1.5295  0.8154  0.0508
  790MOL0     H 6615   5.788   6.318   3.217  1.9505  0.4267 -0.7825
  790MOL0     H 6616   5.681   6.175   3.082  0.0933  0.6602 -0.7535
  790MOL0     H 6617   5.554   6.281   3.116 -1.1210  2.9980 -0.1170
  790MOL0     H 6618   5.567   6.396   2.895 -0.8710 -0.6729  0.1052
  790MOL0     H 6619   5.719   6.323   2.859 -0.3857  3.4175  0.4833
  790MOL0     H 6620   5.459   6.172   2.909  0.3734 -2.8920 -0.0511
  790MOL0     H 6621   5.615   6.091   2.873  0.3588  0.7006  3.6594
  790MOL0     H 6622   5.606   6.231   2.660 -1.4651  1.6141 -1.2723
  790MOL0     H 6623   5.442   6.277   2.693  0.8609  1.4129 -4.8543
  790MOL0     H 6624   5.582   6.000   2.644  1.2563  1.8980 -4.8517
  790MOL0     H 6625   5.416   5.998   2.690  1.9277 -1.3946  1.1921
  790MOL0     H 6626   5.531   6.145   2.441  1.5824  3.1065  2.5138
  790MOL0     H 6627   5.361   6.145   2.486  0.7647  0.0485 -4.4902
  790MOL0     H 6628   5.502   5.901   2.390 -0.7288 -0.2994 -0.9465
  790MOL0     H 6629   5.333   5.905   2.439 -1.0870  1.4534 -1.5870
  790MOL0     H 6630   5.796   6.584   3.360  0.0762 -1.6355  0.4861
  790MOL0     H 6631   5.658   6.673   3.569  0.0690 -3.0475  1.3604
  790MOL0     H 6632   5.390   6.532   3.958  0.5385 -0.9824 -2.0052
  790MOL0     H 6633   5.220   6.594   4.123  1.2051  0.3418  0.2435
  790MOL0     H 6634   4.508   7.200   4.956  0.5600 -0.2326  1.3906
  790MOL0     H 6635   4.693   7.075   5.050  1.5817 -0.6664 -0.3817
  790MOL0     H 6636   5.100   7.097   5.069 -1.1979 -2.5302 -0.1949
  790MOL0     H 6637   5.354   7.121   5.142  0.5194 -1.0267 -0.2711
  790MOL0     H 6638   5.673   6.975   5.231  1.2717  1.5385 -0.9492
  790MOL0     H 6639   5.524   7.066   5.238 -0.3026  1.2141 -0.5890
  790MOL0     H 6640   5.734   7.186   5.193 -3.1721 -1.2763  3.9081
  790MOL0     H 6641   5.601   7.221   5.094  0.5415  0.2552 -0.5750
  790MOL0     H 6642   5.679   7.074   4.916  1.3083 -1.7437 -0.4979
  790MOL0     H 6643   5.832   7.054   4.995 -1.2441 -1.6455  0.0160
  790MOL0     H 6644   5.830   7.246   4.827 -2.7608  0.4109 -1.0405
  790MOL0     H 6645   5.730   7.334   4.951 -0.2933 -1.4311  1.2570
  790MOL0     H 6646   6.128   7.357   5.091  0.9583 -1.3791 -1.0531
  790MOL0     H 6647   5.451   6.802   4.885 -0.0420 -0.9936 -0.2252
  790MOL0     H 6648   5.146   6.708   4.752  0.3424  0.3365 -2.0114
  790MOL0     H 6649   5.212   6.840   4.664 -1.5592 -1.6069  0.1540
  790MOL0     H 6650   5.317   6.704   4.737  0.8914 -0.5276  1.7041
  791MOL0     O 6651   0.581   3.783   7.649  0.0076 -0.0359  0.0476
  791MOL0     C 6652   0.592   3.866   7.559  0.0083  0.1888 -0.8097
  791MOL0     O 6653   0.663   3.984   7.564  0.3554 -0.3371  0.1246
  791MOL0     C 6654   0.773   3.991   7.641 -0.5378 -0.9581 -0.6274
  791MOL0     C 6655   0.898   4.022   7.590  0.2252  1.1469  0.6636
  791MOL0     C 6656   1.013   4.026   7.677 -0.7554 -0.0255 -0.2181
  791MOL0     C 6657   1.006   4.017   7.813  0.3574 -0.8649 -0.2712
  791MOL0     O 6658   1.120   4.037   7.884  0.2517  1.1798  0.0758
  791MOL0     C 6659   1.136   3.954   7.998 -0.2591 -0.2608  0.2888
  791MOL0     C 6660   1.292   3.947   8.022 -0.4377  0.5673 -0.5838
  791MOL0     C 6661   1.370   3.946   7.894 -0.6909 -0.9719 -0.0804
  791MOL0     C 6662   1.525   3.913   7.921  0.3560 -0.4289 -0.0967
  791MOL0     C 6663   1.592   3.915   7.783  0.0440  0.1328  0.6144
  791MOL0     C 6664   1.747   3.942   7.794 -0.7496 -0.4552  0.0762
  791MOL0     C 6665   1.816   3.942   7.652 -1.2182 -0.0348  0.3437
  791MOL0     C 6666   1.796   4.070   7.572  0.0839 -0.3750 -0.0192
  791MOL0     N 6667   1.866   4.187   7.631  0.2855  1.3281 -0.1112
  791MOL0     C 6668   2.005   4.183   7.648 -0.2272 -0.4178 -0.8492
  791MOL0     C 6669   2.029   4.284   7.728 -0.8928  0.1139 -0.1439
  791MOL0     C 6670   2.162   4.304   7.794  0.0249 -0.3848  0.0585
  791MOL0     C 6671   2.228   4.428   7.725  0.1670  0.2970  0.1951
  791MOL0     C 6672   2.360   4.463   7.783 -0.7127 -0.3452 -0.7423
  791MOL0     C 6673   2.459   4.350   7.749 -0.0459  0.4270 -0.0984
  791MOL0     O 6674   2.469   4.352   7.608  0.9798  0.0882 -0.4411
  791MOL0     C 6675   2.579   4.300   7.532  0.2859  0.3194  0.7297
  791MOL0     C 6676   2.575   4.319   7.397 -0.2419  0.2211 -0.6442
  791MOL0     C 6677   2.676   4.274   7.315  0.0160 -0.6597  0.5666
  791MOL0     C 6678   2.789   4.200   7.368 -0.1414  0.2391  0.2690
  791MOL0     C 6679   2.889   4.134   7.276  0.3485 -1.5788 -0.1003
  791MOL0     O 6680   2.829   4.103   7.152 -0.6463  0.1961 -0.1202
  791MOL0     C 6681   2.915   4.038   7.072 -0.6928  0.5769 -0.8405
  791MOL0     C 6682   2.959   3.905   7.108 -0.1493 -0.6661 -0.0952
  791MOL0     C 6683   3.045   3.844   7.017 -0.2122  0.5254 -0.7743
  791MOL0     C 6684   3.089   3.914   6.903  0.2683  0.2217 -0.2912
  791MOL0     O 6685   3.163   3.845   6.816 -0.7314  0.6808 -0.3698
  791MOL0     C 6686   3.083   3.779   6.720 -0.3282  0.3338 -0.6917
  791MOL0     C 6687   3.124   3.820   6.582 -0.1799  0.1434 -0.2718
  791MOL0     C 6688   3.081   3.724   6.470 -0.1967  0.6781 -0.4649
  791MOL0     C 6689   3.164   3.591   6.468  0.2183 -0.7781 -0.1788
  791MOL0     C 6690   3.120   3.488   6.370  0.6564  1.0264 -0.5470
  791MOL0     C 6691   3.212   3.364   6.376 -0.7219  0.4779 -0.5412
  791MOL0     C 6692   3.174   3.256   6.267 -0.2250  0.2549  1.0917
  791MOL0     C 6693   3.112   3.129   6.316  0.1695  0.2025 -0.5196
  791MOL0    Cl 6694   3.163   3.051   6.476  0.1243 -0.5659 -0.2980
  791MOL0     C 6695   3.053   4.046   6.879 -0.2526  0.7498  0.6499
  791MOL0     C 6696   2.959   4.107   6.960 -0.1070 -1.2676 -0.1899
  791MOL0     O 6697   2.999   4.107   7.322  0.1405 -0.2404  0.6008
  791MOL0     C 6698   2.784   4.183   7.505  0.1168 -0.7449 -0.8719
  791MOL0     C 6699   2.683   4.233   7.587 -0.2592  0.8497 -0.3044
  791MOL0     N 6700   1.908   4.339   7.770 -0.3215  0.9626  0.5369
  791MOL0     N 6701   1.808   4.290   7.699 -0.8154  0.3188  0.1686
  791MOL0     C 6702   0.884   3.982   7.864 -0.2706 -0.3148  0.1399
  791MOL0     C 6703   0.772   3.974   7.784 -0.0491  0.9081  0.6628
  791MOL0     C 6704   0.501   3.863   7.433 -0.4593  0.5323 -0.3507
  791MOL0     C 6705   0.554   3.923   7.315 -0.2664  1.3894  0.4762
  791MOL0     C 6706   0.482   3.927   7.201  0.1914  0.9863 -0.1067
  791MOL0     C 6707   0.355   3.872   7.193 -0.2939 -0.5654 -0.2472
  791MOL0     O 6708   0.283   3.889   7.078 -0.0331 -0.2616  0.3216
  791MOL0     C 6709   0.202   4.003   7.083  0.0631 -0.3359 -0.3633
  791MOL0     C 6710   0.144   4.038   6.952  0.0530  0.1849 -0.1231
  791MOL0     C 6711   0.084   4.178   6.919 -0.6283  0.6486  0.1195
  791MOL0     C 6712  -0.034   4.228   7.005 -0.5754 -0.6979 -0.2753
  791MOL0     C 6713   0.010   4.260   7.135  0.2026 -1.1763 -0.5500
  791MOL0     C 6714   0.041   4.319   7.241  0.6310  0.6639 -0.1650
  791MOL0     C 6715   0.304   3.816   7.312  0.8349  0.6586  0.8975
  791MOL0     C 6716   0.374   3.800   7.429 -0.7659 -0.7586 -0.7019
  791MOL0     C 6717   0.307   3.738   7.539  0.4481 -0.5732 -0.5589
  791MOL0     H 6718   0.899   4.028   7.481 -0.1663  1.9468  0.6996
  791MOL0     H 6719   1.108   4.042   7.627  0.0654 -0.2900  1.1873
  791MOL0     H 6720   1.080   4.003   8.079 -1.3158  0.9905 -1.1454
  791MOL0     H 6721   1.107   3.850   7.985 -0.7315 -0.1963  0.7688
  791MOL0     H 6722   1.307   3.858   8.084 -0.2056 -0.2652 -1.7940
  791MOL0     H 6723   1.319   4.036   8.080 -1.1411 -0.3130  1.1738
  791MOL0     H 6724   1.369   4.041   7.840  1.0251 -1.9415 -1.9417
  791MOL0     H 6725   1.325   3.871   7.829  0.8148 -1.5595 -0.4804
  791MOL0     H 6726   1.582   3.977   7.990  2.0153 -0.1859 -1.6257
  791MOL0     H 6727   1.523   3.811   7.961 -0.1867 -0.0938  0.7800
  791MOL0     H 6728   1.570   3.826   7.722  1.1074  1.5183 -1.9706
  791MOL0     H 6729   1.550   4.005   7.736  0.0130  0.5056  1.3563
  791MOL0     H 6730   1.767   4.036   7.846 -1.4819  1.1794 -2.4202
  791MOL0     H 6731   1.805   3.864   7.843  1.6476  2.2239  1.8128
  791MOL0     H 6732   1.788   3.850   7.600 -0.0393  0.5905 -1.4886
  791MOL0     H 6733   1.924   3.926   7.664 -0.5588  1.8346 -2.4296
  791MOL0     H 6734   1.835   4.056   7.470  1.0407  0.0459  0.2740
  791MOL0     H 6735   1.690   4.093   7.562 -0.2967 -1.5416  1.0562
  791MOL0     H 6736   2.071   4.102   7.620  1.3446  0.4618  0.1084
  791MOL0     H 6737   2.146   4.325   7.901 -0.5264  0.0385 -0.1040
  791MOL0     H 6738   2.223   4.215   7.778 -0.4071 -0.8747  1.0145
  791MOL0     H 6739   2.229   4.407   7.618 -0.0878 -1.3617  0.4951
  791MOL0     H 6740   2.161   4.513   7.745  2.2767  2.3489 -0.9933
  791MOL0     H 6741   2.358   4.484   7.890 -1.7811  1.4535 -1.0868
  791MOL0     H 6742   2.398   4.547   7.725  1.4116 -2.6315 -2.9388
  791MOL0     H 6743   2.430   4.247   7.771 -0.3758  0.5823  0.1963
  791MOL0     H 6744   2.559   4.369   7.788 -0.2326  0.1764  0.4992
  791MOL0     H 6745   2.486   4.375   7.371 -1.5459 -0.6228  1.6692
  791MOL0     H 6746   2.663   4.307   7.212  1.2106 -0.7068  0.3902
  791MOL0     H 6747   2.922   3.868   7.203 -0.8439 -2.7506 -1.1153
  791MOL0     H 6748   3.074   3.741   7.032 -2.1108 -0.0984 -1.1502
  791MOL0     H 6749   3.095   3.670   6.729  1.1754  0.6456  2.0226
  791MOL0     H 6750   2.976   3.800   6.722 -0.4144 -0.1629  0.0816
  791MOL0     H 6751   3.073   3.915   6.565  0.3612  0.5194  0.1523
  791MOL0     H 6752   3.230   3.843   6.569 -0.6582  2.3328 -0.7298
  791MOL0     H 6753   2.976   3.696   6.477  0.0445 -1.1843 -2.7925
  791MOL0     H 6754   3.098   3.775   6.375 -0.6905 -0.9469 -1.4772
  791MOL0     H 6755   3.143   3.540   6.562  1.1859 -1.0812 -0.1114
  791MOL0     H 6756   3.268   3.615   6.446 -0.7620  2.4313 -1.9125
  791MOL0     H 6757   3.127   3.549   6.279 -0.2495  2.1898  0.1209
  791MOL0     H 6758   3.017   3.469   6.402  1.6386 -1.4573  1.4093
  791MOL0     H 6759   3.307   3.411   6.350  0.3287 -2.9157 -3.6179
  791MOL0     H 6760   3.232   3.317   6.473 -0.2385 -0.9710 -1.3154
  791MOL0     H 6761   3.262   3.214   6.218 -0.0911 -0.8740  2.2421
  791MOL0     H 6762   3.108   3.303   6.193  1.0061  2.8134  1.5297
  791MOL0     H 6763   3.002   3.136   6.316  0.1224 -0.0196  1.4236
  791MOL0     H 6764   3.139   3.052   6.243 -2.0894 -1.9369  0.7308
  791MOL0     H 6765   3.089   4.097   6.790  2.5436 -0.4328  0.9770
  791MOL0     H 6766   2.937   4.213   6.946  2.9654 -0.0916  2.5332
  791MOL0     H 6767   2.859   4.126   7.560  0.3548 -0.7659 -1.2191
  791MOL0     H 6768   2.685   4.221   7.695  1.1563  1.9128 -0.1815
  791MOL0     H 6769   0.872   3.979   7.972  0.0527  0.6597  0.2122
  791MOL0     H 6770   0.673   3.954   7.822 -1.5534 -1.2635 -3.6682
  791MOL0     H 6771   0.653   3.968   7.313 -0.0261  0.9573  1.7699
  791MOL0     H 6772   0.512   3.980   7.111 -3.3929  1.3380 -1.2565
  791MOL0     H 6773   0.267   4.083   7.119 -0.2235 -0.2257 -0.0803
  791MOL0     H 6774   0.120   3.992   7.155 -4.0361  0.9028 -4.3380
  791MOL0     H 6775   0.059   3.972   6.933  0.3871  0.0305 -1.1346
  791MOL0     H 6776   0.217   4.009   6.876 -1.1488 -0.5313 -1.0261
  791MOL0     H 6777   0.056   4.170   6.813 -1.5006 -2.2361  0.4923
  791MOL0     H 6778   0.161   4.256   6.928  1.4941 -1.4168  0.8399
  791MOL0     H 6779  -0.082   4.315   6.958 -3.7798  0.8069  4.9156
  791MOL0     H 6780  -0.099   4.141   7.017 -1.6924  0.1820  0.2247
  791MOL0     H 6781   0.071   4.372   7.329  2.9003 -0.2939 -0.3000
  791MOL0     H 6782   0.201   3.782   7.303  1.1263  0.3133 -1.7404
  791MOL0     H 6783   0.273   3.803   7.621  2.2946 -0.6835  0.3609
  791MOL0     H 6784   0.224   3.674   7.508  0.4966 -1.3183  0.7923
  791MOL0     H 6785   0.374   3.672   7.595  0.3807  1.4158  2.0879
  792MOL0     O 6786   6.493  10.416   5.396  0.4808 -0.4400 -0.6351
  792MOL0     C 6787   6.573  10.399   5.488 -0.0308  1.1945  1.0114
  792MOL0     O 6788   6.709  10.373   5.467  0.1748  1.0055 -0.1409
  792MOL0     C 6789   6.746  10.385   5.337 -0.8976 -0.5948  0.8060
  792MOL0     C 6790   6.819  10.279   5.289  0.2307 -0.5986 -0.3171
  792MOL0     C 6791   6.889  10.286   5.168  0.4768 -0.8321  0.7844
  792MOL0     C 6792   6.871  10.390   5.071 -0.1558 -0.2512  0.9837
  792MOL0     O 6793   6.918  10.400   4.952  0.5521  0.0567  0.5881
  792MOL0     C 6794   6.898  10.291   4.862  0.1520  0.4707  0.0757
  792MOL0     C 6795   6.958  10.352   4.734  0.0084  0.2960  0.2915
  792MOL0     C 6796   6.960  10.240   4.628  0.5622 -0.2122 -0.0225
  792MOL0     C 6797   7.003  10.293   4.483  0.3740  0.1706 -0.5343
  792MOL0     C 6798   6.991  10.176   4.381  0.6188  0.2412  0.3507
  792MOL0     C 6799   7.039  10.189   4.239 -0.2906 -0.0935 -0.4287
  792MOL0     C 6800   7.190  10.189   4.246 -1.1917 -0.5482 -0.0677
  792MOL0     C 6801   7.233  10.184   4.104 -0.3151 -0.4951  0.4691
  792MOL0     N 6802   7.387  10.180   4.106  0.6900 -0.2949  0.0739
  792MOL0     C 6803   7.475  10.280   4.119 -0.4198 -0.1183  0.9465
  792MOL0     C 6804   7.590  10.241   4.053  0.6168 -0.3868  0.5309
  792MOL0     C 6805   7.722  10.309   4.045  0.1943 -1.0117 -0.0042
  792MOL0     C 6806   7.827  10.229   4.111  0.1624  0.2128 -0.6547
  792MOL0     C 6807   7.952  10.301   4.103 -0.6007  0.7943 -0.5291
  792MOL0     C 6808   8.063  10.198   4.131  0.0227  0.1251  0.3006
  792MOL0     O 6809   8.022  10.100   4.240 -0.4733 -1.1379 -0.0354
  792MOL0     C 6810   8.140  10.048   4.295  0.0129 -0.0204  0.4757
  792MOL0     C 6811   8.231   9.970   4.225  0.0308 -0.2692 -0.6069
  792MOL0     C 6812   8.346   9.916   4.288  0.0671 -0.3963 -0.3428
  792MOL0     C 6813   8.377   9.927   4.421  0.9691  0.7992 -0.1555
  792MOL0     C 6814   8.501   9.873   4.478 -0.0243 -0.4547 -0.4698
  792MOL0     O 6815   8.528   9.915   4.607  0.1915  0.1082  0.4022
  792MOL0     C 6816   8.641   9.875   4.674 -0.3057  0.1894  1.0207
  792MOL0     C 6817   8.657   9.912   4.808  0.2027  0.0422  0.0214
  792MOL0     C 6818   8.740   9.846   4.885  0.7078 -0.6399 -0.9637
  792MOL0     C 6819   8.830   9.754   4.841  0.1521 -0.2697 -0.2163
  792MOL0     O 6820   8.915   9.673   4.917  0.6772  0.8416  0.2067
  792MOL0     C 6821   8.891   9.673   5.052 -0.0711  0.6940  0.1935
  792MOL0     C 6822   8.970   9.560   5.119  0.2516  0.6381 -0.8497
  792MOL0     C 6823   8.929   9.422   5.067 -0.2876 -0.7106 -0.7007
  792MOL0     C 6824   8.785   9.370   5.093 -0.5504 -1.1333 -0.1935
  792MOL0     C 6825   8.772   9.223   5.077 -0.3483  0.6966  0.6232
  792MOL0     C 6826   8.794   9.169   4.928 -0.1069 -0.1399 -0.6364
  792MOL0     C 6827   8.765   9.020   4.899  0.0097  0.8363  0.9710
  792MOL0     C 6828   8.879   8.946   4.962 -0.9189  0.2894  0.4573
  792MOL0    Cl 6829   9.024   8.948   4.861  0.0541 -0.5172 -0.5632
  792MOL0     C 6830   8.827   9.717   4.711  0.0298 -0.7499  1.3337
  792MOL0     C 6831   8.727   9.768   4.632 -0.4840  0.4460  0.1652
  792MOL0     O 6832   8.570   9.807   4.408  0.1885 -0.0427  0.0066
  792MOL0     C 6833   8.275   9.997   4.500 -0.3114  1.2728 -0.6600
  792MOL0     C 6834   8.173  10.064   4.434  0.2426  0.7242  0.4492
  792MOL0     N 6835   7.570  10.112   4.003  0.3482  1.1842  0.5408
  792MOL0     N 6836   7.458  10.072   4.048  0.5251 -0.3753  0.1353
  792MOL0     C 6837   6.797  10.500   5.125  0.5486  0.3115  0.3763
  792MOL0     C 6838   6.739  10.503   5.256  0.8249  0.2331  0.1323
  792MOL0     C 6839   6.519  10.404   5.631  0.7083 -0.1162  0.1391
  792MOL0     C 6840   6.382  10.431   5.654  0.4035 -0.3099 -0.3433
  792MOL0     C 6841   6.325  10.461   5.777 -0.2051  0.1481 -0.3342
  792MOL0     C 6842   6.408  10.461   5.886 -1.0678 -0.7107 -0.4873
  792MOL0     O 6843   6.348  10.477   6.009 -0.0283 -0.0207 -0.1217
  792MOL0     C 6844   6.441  10.482   6.124 -1.8385 -0.2311  0.5332
  792MOL0     C 6845   6.365  10.546   6.226 -0.6563  0.8759 -0.9698
  792MOL0     C 6846   6.355  10.696   6.219 -0.1002 -0.1409 -0.9183
  792MOL0     C 6847   6.286  10.748   6.346 -0.1441 -0.1890 -0.1106
  792MOL0     C 6848   6.144  10.703   6.356 -0.9335  0.1929  0.3289
  792MOL0     C 6849   6.031  10.668   6.377  0.0298  0.3852  0.6662
  792MOL0     C 6850   6.540  10.421   5.874  0.3148 -0.6477 -0.7279
  792MOL0     C 6851   6.603  10.400   5.746  0.1458 -0.1235  0.2652
  792MOL0     C 6852   6.750  10.387   5.756  0.2344  0.6259 -0.8764
  792MOL0     H 6853   6.825  10.195   5.357 -1.4555  0.0947  0.7409
  792MOL0     H 6854   6.951  10.213   5.117 -0.0594 -1.8717  1.5666
  792MOL0     H 6855   6.943  10.200   4.901 -0.6390  2.2093  5.9324
  792MOL0     H 6856   6.791  10.274   4.844  0.3834 -3.7941  1.6049
  792MOL0     H 6857   7.052  10.403   4.754 -1.6400  3.3016  0.9358
  792MOL0     H 6858   6.895  10.431   4.693  0.3422 -0.3164 -1.4860
  792MOL0     H 6859   6.863  10.200   4.599  1.2989  0.0712 -3.2862
  792MOL0     H 6860   7.030  10.164   4.664  2.2136  1.9014  1.5904
  792MOL0     H 6861   6.931  10.366   4.445  0.8247  1.5374  1.1427
  792MOL0     H 6862   7.103  10.337   4.476 -0.6422  2.4025 -2.4524
  792MOL0     H 6863   7.032  10.087   4.430  1.4975  0.5597  0.2037
  792MOL0     H 6864   6.883  10.160   4.368  0.5787  1.7642 -1.5080
  792MOL0     H 6865   7.008  10.100   4.184 -0.3929  0.9734 -2.2148
  792MOL0     H 6866   7.006  10.281   4.190  0.8201  0.7862  0.4077
  792MOL0     H 6867   7.232  10.108   4.306 -0.3866 -1.5561 -1.9006
  792MOL0     H 6868   7.229  10.282   4.287  2.1931 -1.4928 -0.7657
  792MOL0     H 6869   7.189  10.103   4.045 -3.0624  0.3244  1.2302
  792MOL0     H 6870   7.202  10.271   4.045  0.2491  0.8764  2.1219
  792MOL0     H 6871   7.463  10.377   4.165  0.8403  0.0567  0.9516
  792MOL0     H 6872   7.748  10.330   3.941 -0.1602  2.6060  0.4997
  792MOL0     H 6873   7.723  10.404   4.100  1.3741 -0.8835 -0.2271
  792MOL0     H 6874   7.795  10.196   4.210 -0.0080 -0.9148 -1.0684
  792MOL0     H 6875   7.834  10.135   4.054 -2.3806 -1.8479  2.0877
  792MOL0     H 6876   7.952  10.387   4.170  1.2882 -0.0634  0.6702
  792MOL0     H 6877   7.970  10.331   3.999 -3.5801  1.2902 -0.9888
  792MOL0     H 6878   8.151  10.257   4.158  0.4863  0.4587 -1.7622
  792MOL0     H 6879   8.091  10.154   4.034  3.0885  3.5225 -0.5709
  792MOL0     H 6880   8.209   9.952   4.120 -0.1324 -0.8968 -0.4679
  792MOL0     H 6881   8.413   9.871   4.217  0.0433 -0.8774 -0.0673
  792MOL0     H 6882   8.603   9.997   4.850 -3.4073 -2.0679  0.1020
  792MOL0     H 6883   8.741   9.872   4.991 -0.6362  1.4869 -1.4050
  792MOL0     H 6884   8.921   9.770   5.093 -3.2464  1.8908 -0.0579
  792MOL0     H 6885   8.785   9.652   5.070  0.7313 -2.9914  1.6774
  792MOL0     H 6886   9.078   9.579   5.123  0.2517  1.7285  5.5635
  792MOL0     H 6887   8.950   9.571   5.226  0.8289  2.9089 -0.9121
  792MOL0     H 6888   8.959   9.412   4.962  1.9707  0.7382 -0.2542
  792MOL0     H 6889   8.981   9.351   5.132 -0.1123  1.1304  1.2713
  792MOL0     H 6890   8.713   9.425   5.033  0.0789  0.9959  0.9162
  792MOL0     H 6891   8.762   9.414   5.190 -1.1265 -0.0326 -0.8187
  792MOL0     H 6892   8.673   9.193   5.111 -0.1316 -0.7904  0.0490
  792MOL0     H 6893   8.845   9.191   5.152 -1.8041  1.0650  2.2508
  792MOL0     H 6894   8.749   9.221   4.842  2.0644  1.1311 -1.0732
  792MOL0     H 6895   8.901   9.190   4.929 -0.6884  3.6381  0.5454
  792MOL0     H 6896   8.768   8.989   4.794  4.0979 -0.8297  1.3849
  792MOL0     H 6897   8.667   8.999   4.943 -1.4369  1.6981 -1.6459
  792MOL0     H 6898   8.903   8.978   5.063 -0.0447 -0.5951  0.5435
  792MOL0     H 6899   8.858   8.839   4.975  2.1443 -1.1653 -4.0796
  792MOL0     H 6900   8.901   9.651   4.666 -1.5186 -1.6800  0.0283
  792MOL0     H 6901   8.745   9.723   4.534  0.6153 -0.6564  0.8436
  792MOL0     H 6902   8.266  10.001   4.608 -0.9516  0.1603 -0.6544
  792MOL0     H 6903   8.098  10.109   4.498  1.5964  0.8031  2.0462
  792MOL0     H 6904   6.771  10.585   5.062  0.0604  1.7206  2.3929
  792MOL0     H 6905   6.699  10.598   5.289  2.0745  0.5244  0.8828
  792MOL0     H 6906   6.316  10.434   5.568 -0.2077  1.2300  0.1520
  792MOL0     H 6907   6.223  10.491   5.799  0.2548  1.7100 -0.2088
  792MOL0     H 6908   6.527  10.547   6.105 -2.3148  0.0787 -0.6195
  792MOL0     H 6909   6.459  10.375   6.142 -0.7484 -1.4832 -5.7477
  792MOL0     H 6910   6.394  10.512   6.326 -1.7165 -0.6716 -1.1452
  792MOL0     H 6911   6.269  10.494   6.219  1.5354 -3.5394 -2.1789
  792MOL0     H 6912   6.318  10.731   6.122 -0.2739 -1.4398 -1.3411
  792MOL0     H 6913   6.459  10.730   6.213 -0.8214  2.3711 -0.3638
  792MOL0     H 6914   6.339  10.710   6.434 -1.8659  1.4416  1.7047
  792MOL0     H 6915   6.294  10.856   6.335  1.4927 -0.3999 -1.4999
  792MOL0     H 6916   5.931  10.633   6.369  0.2984 -0.6412  1.6641
  792MOL0     H 6917   6.602  10.409   5.962  0.4146  0.1133 -0.6861
  792MOL0     H 6918   6.783  10.294   5.707 -1.2221 -1.7090  2.2093
  792MOL0     H 6919   6.804  10.469   5.708  1.5223 -1.7039 -3.7308
  792MOL0     H 6920   6.794  10.372   5.855 -1.4083  0.6625 -0.1085
  793MOL0     O 6921  11.299   2.113   9.257 -0.5828 -0.7492 -0.0476
  793MOL0     C 6922  11.375   2.090   9.166 -0.2226  1.0918 -0.4112
  793MOL0     O 6923  11.339   2.037   9.040  0.6922 -0.7500  0.2504
  793MOL0     C 6924  11.215   2.062   8.981  0.2455 -1.1811 -0.2436
  793MOL0     C 6925  11.130   2.168   9.018 -0.4102 -0.1931 -0.0655
  793MOL0     C 6926  11.024   2.204   8.942 -0.7323 -0.3201  0.1621
  793MOL0     C 6927  10.990   2.130   8.833  0.1546 -0.8023  0.0922
  793MOL0     O 6928  10.877   2.147   8.756  0.8494  0.0386  0.0896
  793MOL0     C 6929  10.855   2.286   8.713  0.8068  0.3078  0.3456
  793MOL0     C 6930  10.773   2.291   8.586 -0.3509 -0.6886 -0.0311
  793MOL0     C 6931  10.628   2.262   8.611 -0.3218 -0.6039 -0.0185
  793MOL0     C 6932  10.526   2.311   8.510  0.0260  0.2642  0.4730
  793MOL0     C 6933  10.389   2.312   8.574  0.2743 -0.3514 -0.5262
  793MOL0     C 6934  10.282   2.326   8.470 -0.0571 -0.2700  0.4684
  793MOL0     C 6935  10.253   2.459   8.400  0.3383  0.3942 -0.4873
  793MOL0     C 6936  10.148   2.530   8.481 -1.2984  0.2868 -0.6800
  793MOL0     N 6937  10.160   2.668   8.443  0.2331 -0.6367  0.0451
  793MOL0     C 6938  10.142   2.719   8.316 -0.2917 -0.4867  0.1883
  793MOL0     C 6939  10.180   2.846   8.321  0.2916  1.7507  0.3214
  793MOL0     C 6940  10.155   2.942   8.204 -0.1669 -0.6047  0.3261
  793MOL0     C 6941  10.283   3.004   8.144  0.2713  0.8472 -0.4708
  793MOL0     C 6942  10.337   2.903   8.040 -0.3860 -0.2673  0.0689
  793MOL0     C 6943  10.432   2.974   7.956  0.4512 -0.7623 -0.0657
  793MOL0     O 6944  10.516   2.886   7.879 -0.6347  0.7531  1.1316
  793MOL0     C 6945  10.591   2.948   7.781  0.1405 -0.2067 -0.4016
  793MOL0     C 6946  10.598   3.085   7.758 -0.5891  0.7178  0.5987
  793MOL0     C 6947  10.689   3.140   7.662  0.3564  0.0406  1.0514
  793MOL0     C 6948  10.792   3.061   7.596 -0.1262 -0.8720 -1.1461
  793MOL0     C 6949  10.901   3.111   7.516 -0.2515  0.0725 -0.6985
  793MOL0     O 6950  11.025   3.041   7.534  0.6676  0.5457  0.8644
  793MOL0     C 6951  11.140   3.104   7.505 -0.0888  0.0616 -0.1679
  793MOL0     C 6952  11.156   3.248   7.500 -0.4193  0.3330 -0.3631
  793MOL0     C 6953  11.279   3.305   7.477 -0.4271  0.0556  0.5994
  793MOL0     C 6954  11.393   3.224   7.465  0.6556  0.6190 -0.0569
  793MOL0     O 6955  11.514   3.288   7.438 -0.0636 -0.1476 -0.0823
  793MOL0     C 6956  11.556   3.356   7.563 -1.3044  0.1079 -0.3568
  793MOL0     C 6957  11.699   3.395   7.544  0.3631 -0.0764 -0.4545
  793MOL0     C 6958  11.802   3.287   7.510 -0.3248 -0.5977 -0.3409
  793MOL0     C 6959  11.824   3.180   7.623 -0.8023 -0.7901 -0.2125
  793MOL0     C 6960  11.874   3.233   7.757 -0.0683  0.0184  0.1662
  793MOL0     C 6961  11.990   3.328   7.752 -0.0877 -0.0599 -0.0164
  793MOL0     C 6962  12.035   3.377   7.884  0.9325  0.6902 -0.7191
  793MOL0     C 6963  11.930   3.482   7.945 -0.5797  0.4787 -0.2923
  793MOL0    Cl 6964  12.008   3.592   8.073  0.4097 -0.2880  0.3074
  793MOL0     C 6965  11.377   3.089   7.490 -0.3892 -0.7119  1.1462
  793MOL0     C 6966  11.258   3.028   7.502  0.2887  0.4715  0.4198
  793MOL0     O 6967  10.879   3.219   7.456  0.0733 -0.3524  0.5911
  793MOL0     C 6968  10.797   2.930   7.647  1.2919 -0.5999 -0.1282
  793MOL0     C 6969  10.703   2.876   7.735 -0.5237  0.2753  0.3269
  793MOL0     N 6970  10.236   2.871   8.438 -0.2684 -0.6848 -0.5225
  793MOL0     N 6971  10.217   2.772   8.512 -0.3103 -0.1050 -0.0370
  793MOL0     C 6972  11.066   2.018   8.799 -0.2974  1.0312 -0.0511
  793MOL0     C 6973  11.178   1.986   8.874 -0.5815 -0.5605 -0.0725
  793MOL0     C 6974  11.527   2.101   9.185  0.1263  0.1734  0.7769
  793MOL0     C 6975  11.605   1.990   9.147  0.7859 -0.1953 -0.0843
  793MOL0     C 6976  11.734   1.994   9.174 -1.3224  0.4046 -0.0407
  793MOL0     C 6977  11.791   2.097   9.243 -0.3761 -0.4479  0.9881
  793MOL0     O 6978  11.922   2.074   9.266 -0.9937  0.2220  0.1645
  793MOL0     C 6979  11.996   2.191   9.283 -0.4435 -0.8488  0.4931
  793MOL0     C 6980  12.021   2.268   9.151 -0.0795  0.2490  0.1209
  793MOL0     C 6981  12.087   2.177   9.052 -0.7920  0.0516  0.9394
  793MOL0     C 6982  12.219   2.123   9.105 -0.5919 -0.8292  0.1198
  793MOL0     C 6983  12.325   2.106   9.005  0.4207  0.3434  0.0284
  793MOL0     C 6984  12.431   2.113   8.947 -0.0908 -0.8696 -0.6823
  793MOL0     C 6985  11.705   2.200   9.292 -0.4532  0.4420  0.3091
  793MOL0     C 6986  11.575   2.204   9.259  0.1143 -0.7121  0.1167
  793MOL0     C 6987  11.505   2.326   9.294 -0.1474 -0.5072 -1.1066
  793MOL0     H 6988  11.141   2.229   9.107  2.5044  1.8302 -1.6431
  793MOL0     H 6989  10.955   2.286   8.957  0.3747  0.3782  1.7379
  793MOL0     H 6990  10.813   2.345   8.795 -3.5339 -2.7711  0.7081
  793MOL0     H 6991  10.947   2.341   8.691  0.6451  1.4661  2.3531
  793MOL0     H 6992  10.821   2.225   8.513 -0.4964 -1.5658  0.6525
  793MOL0     H 6993  10.777   2.390   8.539 -1.8503 -2.3429 -4.1670
  793MOL0     H 6994  10.609   2.311   8.707  1.5282  0.7321 -0.2719
  793MOL0     H 6995  10.606   2.156   8.626 -2.7315 -0.0967  0.5619
  793MOL0     H 6996  10.550   2.415   8.483 -0.3847  0.7423  1.8281
  793MOL0     H 6997  10.519   2.245   8.423  0.6179 -1.3037  1.5742
  793MOL0     H 6998  10.368   2.217   8.623  0.4061  0.1663  0.5449
  793MOL0     H 6999  10.393   2.398   8.641  0.8683  0.4990 -1.5993
  793MOL0     H 7000  10.313   2.251   8.396  3.4452  2.1704 -0.8240
  793MOL0     H 7001  10.191   2.292   8.521  1.3732 -2.0686  1.9851
  793MOL0     H 7002  10.221   2.436   8.298 -1.1113 -0.3875  0.1111
  793MOL0     H 7003  10.348   2.514   8.394  0.6927  0.4485  3.3060
  793MOL0     H 7004  10.049   2.487   8.459  0.3748 -6.8905  2.8796
  793MOL0     H 7005  10.174   2.525   8.587 -0.6283  0.9301 -0.8066
  793MOL0     H 7006  10.098   2.671   8.229  0.4382 -1.1330  0.1725
  793MOL0     H 7007  10.086   2.896   8.133  0.1432 -1.6489  0.6820
  793MOL0     H 7008  10.109   3.032   8.245 -1.8422 -1.3047  0.0711
  793MOL0     H 7009  10.259   3.103   8.105  1.0679  1.9088  1.5660
  793MOL0     H 7010  10.364   3.025   8.215  1.5530  0.9495 -1.9276
  793MOL0     H 7011  10.249   2.871   7.985 -0.6194  1.9998 -0.9761
  793MOL0     H 7012  10.390   2.824   8.094  4.7390  2.4492 -0.3228
  793MOL0     H 7013  10.500   3.041   8.008  0.8793  0.7624 -2.4672
  793MOL0     H 7014  10.371   3.038   7.892  0.6667 -3.0226 -2.7418
  793MOL0     H 7015  10.518   3.149   7.793  0.3814  1.4945  1.4762
  793MOL0     H 7016  10.698   3.247   7.642 -3.1454  0.5199  1.5217
  793MOL0     H 7017  11.079   3.321   7.519 -3.2517 -2.5200 -0.0442
  793MOL0     H 7018  11.295   3.407   7.443 -1.4309 -0.4569 -1.5787
  793MOL0     H 7019  11.495   3.447   7.575 -0.6691  0.3325  1.6512
  793MOL0     H 7020  11.544   3.297   7.654  1.2431  0.1559  0.0668
  793MOL0     H 7021  11.710   3.475   7.470  5.5440 -1.5147 -1.6869
  793MOL0     H 7022  11.725   3.420   7.647  1.1929 -4.4035  0.5691
  793MOL0     H 7023  11.764   3.237   7.420 -1.5967 -0.1104 -0.0917
  793MOL0     H 7024  11.896   3.332   7.479 -0.3006  0.1798  0.8096
  793MOL0     H 7025  11.903   3.115   7.584  1.0509  0.3134  1.5408
  793MOL0     H 7026  11.733   3.121   7.642 -0.6392 -0.0440  3.8012
  793MOL0     H 7027  11.897   3.148   7.821  1.7150 -0.8766 -1.5491
  793MOL0     H 7028  11.786   3.287   7.793  1.6025  2.7714  0.4300
  793MOL0     H 7029  12.061   3.263   7.701 -0.6829 -1.7222  1.2054
  793MOL0     H 7030  11.961   3.410   7.686  0.1215  1.7697  2.0155
  793MOL0     H 7031  12.131   3.431   7.874  0.5886  1.8603  1.6699
  793MOL0     H 7032  12.046   3.297   7.957 -2.4251  2.2290  1.7379
  793MOL0     H 7033  11.883   3.545   7.869  0.3883  1.7345  0.1289
  793MOL0     H 7034  11.845   3.428   7.987 -0.6432 -0.5462 -1.6518
  793MOL0     H 7035  11.463   3.023   7.485 -2.5198 -3.6563 -0.8098
  793MOL0     H 7036  11.263   2.920   7.502 -0.2075  0.3083 -3.3097
  793MOL0     H 7037  10.866   2.855   7.610  2.7724  1.4691 -1.8342
  793MOL0     H 7038  10.711   2.770   7.759  0.6026  0.2651 -0.0727
  793MOL0     H 7039  11.047   1.945   8.721 -3.9303  1.2790  0.4053
  793MOL0     H 7040  11.242   1.898   8.864 -1.0442 -1.0100  0.7992
  793MOL0     H 7041  11.559   1.896   9.118 -5.0035  1.4436  2.4153
  793MOL0     H 7042  11.795   1.908   9.148 -1.4128  0.9014 -2.1311
  793MOL0     H 7043  12.089   2.172   9.338 -0.4622 -2.6440 -0.0333
  793MOL0     H 7044  11.950   2.265   9.348  4.3328  3.5443 -0.4729
  793MOL0     H 7045  12.091   2.349   9.171 -1.7227  1.8478 -0.3586
  793MOL0     H 7046  11.930   2.309   9.107  0.8309  0.5753 -1.5545
  793MOL0     H 7047  12.112   2.236   8.964 -2.1676 -0.1259  0.4053
  793MOL0     H 7048  12.013   2.101   9.025 -0.6132 -0.2276  1.2287
  793MOL0     H 7049  12.259   2.202   9.170  1.7774 -0.7945 -1.2601
  793MOL0     H 7050  12.197   2.028   9.155 -0.9593 -1.1135 -0.5639
  793MOL0     H 7051  12.517   2.138   8.888  1.8440  0.2638  2.4094
  793MOL0     H 7052  11.735   2.269   9.369  0.1443 -1.4173  1.8244
  793MOL0     H 7053  11.569   2.406   9.333 -1.7984  0.6984 -0.7432
  793MOL0     H 7054  11.440   2.370   9.217 -0.8277 -1.5052 -1.1232
  793MOL0     H 7055  11.435   2.303   9.375  0.4424 -1.7775 -0.9304
  794MOL0     O 7056  10.852   8.754   8.893 -1.0066  0.1602 -0.3257
  794MOL0     C 7057  10.973   8.755   8.896  0.8915 -0.8508 -1.2860
  794MOL0     O 7058  11.047   8.654   8.844 -0.4533  0.1266  0.4546
  794MOL0     C 7059  11.011   8.569   8.742  0.2807  0.3295 -0.5548
  794MOL0     C 7060  10.920   8.592   8.634  0.4956 -0.2862  0.2671
  794MOL0     C 7061  10.899   8.490   8.540 -0.4267 -0.2583  0.1778
  794MOL0     C 7062  10.958   8.370   8.557 -0.0660 -0.3736  0.4830
  794MOL0     O 7063  10.949   8.279   8.454 -0.6589 -0.3706  0.1895
  794MOL0     C 7064  11.067   8.214   8.424 -0.3583  0.3074 -0.3444
  794MOL0     C 7065  11.063   8.128   8.291  0.5798  0.1731 -0.6181
  794MOL0     C 7066  10.923   8.078   8.254 -0.0097  0.0113 -0.2215
  794MOL0     C 7067  10.936   7.966   8.162  0.1228 -0.2020 -0.1367
  794MOL0     C 7068  10.951   7.828   8.228 -0.0173 -0.0613  0.4372
  794MOL0     C 7069  10.944   7.713   8.121 -0.2394  0.1165  0.3436
  794MOL0     C 7070  10.805   7.715   8.048  0.2219 -0.4891 -0.6030
  794MOL0     C 7071  10.777   7.579   7.978 -0.2922 -0.2382  0.2333
  794MOL0     N 7072  10.766   7.474   8.072 -0.7486  0.4444  0.3626
  794MOL0     C 7073  10.715   7.475   8.196  0.5805 -1.2955 -0.5074
  794MOL0     C 7074  10.709   7.342   8.234  0.9630 -0.2504 -0.3529
  794MOL0     C 7075  10.631   7.274   8.341 -0.5900  1.5371  0.0396
  794MOL0     C 7076  10.685   7.344   8.470  0.4605 -0.8365 -0.4184
  794MOL0     C 7077  10.586   7.323   8.576 -1.0709 -0.1873 -1.2578
  794MOL0     C 7078  10.442   7.382   8.575  0.9691  0.1132 -0.2303
  794MOL0     O 7079  10.365   7.331   8.689  0.4281  0.1559 -0.2742
  794MOL0     C 7080  10.230   7.303   8.675  0.1128  0.3387 -0.1829
  794MOL0     C 7081  10.163   7.277   8.796 -1.5920  0.0548  0.3701
  794MOL0     C 7082  10.033   7.248   8.806  0.5497  0.3297  0.2184
  794MOL0     C 7083   9.952   7.248   8.690 -0.5192  0.4777 -0.9875
  794MOL0     C 7084   9.811   7.209   8.694 -0.0071  0.5544  0.8682
  794MOL0     O 7085   9.751   7.168   8.578 -0.0913  0.8071  0.5806
  794MOL0     C 7086   9.619   7.195   8.562  0.7585 -0.5666  1.0838
  794MOL0     C 7087   9.526   7.099   8.517 -0.4587  0.6629 -1.0348
  794MOL0     C 7088   9.398   7.122   8.461 -0.1968 -0.6454 -0.8994
  794MOL0     C 7089   9.366   7.261   8.442  0.6094  0.3732  0.4708
  794MOL0     O 7090   9.240   7.314   8.397 -0.1168  1.2007  0.2547
  794MOL0     C 7091   9.141   7.211   8.387 -0.1005 -0.1423  0.2829
  794MOL0     C 7092   9.000   7.282   8.400  1.1708 -1.4162  0.3848
  794MOL0     C 7093   8.898   7.221   8.497  0.8946  0.9552 -0.1214
  794MOL0     C 7094   8.755   7.267   8.466 -0.0162  0.7588 -0.8510
  794MOL0     C 7095   8.657   7.198   8.566  0.4002 -0.0286  0.5658
  794MOL0     C 7096   8.522   7.275   8.574  0.4165  0.9202 -0.5255
  794MOL0     C 7097   8.425   7.200   8.667 -0.7797 -0.8575 -0.4245
  794MOL0     C 7098   8.353   7.289   8.767  0.3595  0.2313  0.2756
  794MOL0    Cl 7099   8.229   7.364   8.674 -0.1705  0.2409 -0.1482
  794MOL0     C 7100   9.461   7.359   8.466  0.4200  0.2868 -0.1268
  794MOL0     C 7101   9.575   7.325   8.534 -0.3369 -1.3152 -0.5094
  794MOL0     O 7102   9.762   7.218   8.809  0.3253  0.0969  0.4103
  794MOL0     C 7103  10.022   7.251   8.560  0.9044 -0.4561 -0.1345
  794MOL0     C 7104  10.158   7.280   8.558  0.1243 -0.4829  0.6823
  794MOL0     N 7105  10.768   7.271   8.132 -1.1975  0.8368  0.2703
  794MOL0     N 7106  10.798   7.351   8.036  0.3628 -0.1937  0.0843
  794MOL0     C 7107  11.041   8.345   8.664  0.0798 -0.5221  0.4787
  794MOL0     C 7108  11.069   8.442   8.752 -0.0019  0.3101  0.5571
  794MOL0     C 7109  11.033   8.852   8.992 -0.4387  0.1858 -0.3607
  794MOL0     C 7110  10.955   8.922   9.087 -0.9848  0.5762  0.5051
  794MOL0     C 7111  11.002   9.009   9.182  0.1478  0.6105 -0.1022
  794MOL0     C 7112  11.143   9.040   9.186  0.7902 -0.1823 -0.5674
  794MOL0     O 7113  11.204   9.132   9.264 -0.4778  0.3840 -0.7334
  794MOL0     C 7114  11.129   9.216   9.351  0.4013  0.1471  0.2453
  794MOL0     C 7115  11.104   9.349   9.279  0.2979  0.0968  0.0497
  794MOL0     C 7116  11.037   9.465   9.366  0.7370 -0.4791  0.0268
  794MOL0     C 7117  10.936   9.432   9.474 -0.0355 -1.1748  0.5917
  794MOL0     C 7118  10.810   9.408   9.409 -0.2019  0.7940  0.8718
  794MOL0     C 7119  10.707   9.375   9.348  0.6356  0.4491  0.1827
  794MOL0     C 7120  11.221   8.971   9.096 -0.3466  0.0686 -0.1803
  794MOL0     C 7121  11.170   8.887   8.994  0.7637  0.0899 -0.0406
  794MOL0     C 7122  11.267   8.837   8.889  0.6527 -0.7831 -0.7917
  794MOL0     H 7123  10.887   8.693   8.616 -0.6011  0.1511  3.9532
  794MOL0     H 7124  10.831   8.514   8.459 -0.1829  1.9761  0.5546
  794MOL0     H 7125  11.152   8.283   8.419  0.6427 -0.8986 -0.9092
  794MOL0     H 7126  11.082   8.140   8.503 -0.7333  0.2147 -0.3616
  794MOL0     H 7127  11.119   8.037   8.312  2.1778  1.4351  0.8787
  794MOL0     H 7128  11.106   8.177   8.203  1.9803  0.4794  0.2143
  794MOL0     H 7129  10.878   8.161   8.200  1.1684  0.6399 -0.2617
  794MOL0     H 7130  10.866   8.055   8.345  0.1212 -3.4284 -0.8636
  794MOL0     H 7131  10.841   7.971   8.108 -1.7655 -0.7262  2.8913
  794MOL0     H 7132  11.014   7.992   8.091  0.2300  3.1537  1.0385
  794MOL0     H 7133  11.055   7.834   8.261  0.3512 -3.6317  0.3453
  794MOL0     H 7134  10.883   7.799   8.309  1.8414 -2.2169  1.3242
  794MOL0     H 7135  11.019   7.730   8.043  1.3888  0.5613  1.9404
  794MOL0     H 7136  10.973   7.625   8.177  0.5380 -0.0097 -0.2385
  794MOL0     H 7137  10.827   7.787   7.968  2.9810 -1.2127 -0.5973
  794MOL0     H 7138  10.723   7.752   8.109  0.1314  2.8456 -2.5327
  794MOL0     H 7139  10.689   7.593   7.916 -2.0600  2.0489  2.9823
  794MOL0     H 7140  10.852   7.556   7.902 -0.7522 -1.8890  0.2395
  794MOL0     H 7141  10.685   7.557   8.261  1.7457 -2.6232  1.8310
  794MOL0     H 7142  10.525   7.293   8.322 -0.6534  2.9855  1.6456
  794MOL0     H 7143  10.642   7.165   8.343  1.6347  1.6623 -1.5996
  794MOL0     H 7144  10.780   7.296   8.499 -0.7802 -3.3094 -0.2145
  794MOL0     H 7145  10.696   7.453   8.471 -1.6946 -0.5905 -0.0203
  794MOL0     H 7146  10.636   7.369   8.661  2.0392 -0.4603 -2.8149
  794MOL0     H 7147  10.558   7.218   8.588 -0.3177 -0.1012  2.6153
  794MOL0     H 7148  10.406   7.355   8.476 -1.6212 -0.9247  0.9141
  794MOL0     H 7149  10.436   7.491   8.570  0.3742  0.0463 -1.0500
  794MOL0     H 7150  10.231   7.275   8.880 -0.7564 -0.8525 -0.3112
  794MOL0     H 7151   9.982   7.222   8.898 -0.3000  0.7585 -0.1240
  794MOL0     H 7152   9.564   6.998   8.529 -2.3789  0.0904  0.8449
  794MOL0     H 7153   9.334   7.040   8.430 -1.4324  1.4919 -4.5811
  794MOL0     H 7154   9.150   7.169   8.286 -1.3195 -0.4759  0.2966
  794MOL0     H 7155   9.145   7.135   8.465  2.8095 -0.6221 -0.2269
  794MOL0     H 7156   9.017   7.388   8.424  2.6658 -2.2022  3.3034
  794MOL0     H 7157   8.948   7.286   8.304  0.5272 -1.5652  0.7276
  794MOL0     H 7158   8.896   7.112   8.486 -2.4912  0.8206  0.6325
  794MOL0     H 7159   8.918   7.239   8.603  1.5518 -0.5877  0.0330
  794MOL0     H 7160   8.722   7.228   8.369  1.7017 -0.5628 -0.9416
  794MOL0     H 7161   8.740   7.375   8.470  1.5738  0.9492  2.0514
  794MOL0     H 7162   8.686   7.193   8.671 -0.9362 -1.4055  0.8959
  794MOL0     H 7163   8.649   7.093   8.537  1.4847  0.3582 -1.2725
  794MOL0     H 7164   8.533   7.369   8.629 -0.8509  1.0863 -0.5269
  794MOL0     H 7165   8.484   7.293   8.473  1.7329 -1.2612 -1.4826
  794MOL0     H 7166   8.483   7.139   8.737  0.2604  1.1697  0.5867
  794MOL0     H 7167   8.351   7.142   8.610  1.5939  0.9061 -5.9799
  794MOL0     H 7168   8.300   7.224   8.837  2.4300 -2.8135 -0.7639
  794MOL0     H 7169   8.424   7.357   8.815  0.9857 -0.0046 -0.2903
  794MOL0     H 7170   9.421   7.458   8.448  0.2362  0.4782  1.1982
  794MOL0     H 7171   9.631   7.414   8.559 -2.4165 -0.4835  1.6072
  794MOL0     H 7172   9.967   7.242   8.467 -0.3308 -1.1719  0.6329
  794MOL0     H 7173  10.204   7.298   8.461  0.6235  0.3538  1.0683
  794MOL0     H 7174  11.092   8.252   8.688  0.9944  0.3957  2.3120
  794MOL0     H 7175  11.142   8.418   8.828  0.8780 -0.3156 -0.4546
  794MOL0     H 7176  10.847   8.914   9.074 -1.2229  2.4623  1.0858
  794MOL0     H 7177  10.928   9.061   9.243  1.2525 -0.1864  2.0313
  794MOL0     H 7178  11.174   9.219   9.451  1.8213 -1.0019 -0.3204
  794MOL0     H 7179  11.029   9.179   9.376 -1.3773  2.7965 -2.2570
  794MOL0     H 7180  11.068   9.340   9.177 -0.5593  1.8267  0.1663
  794MOL0     H 7181  11.205   9.389   9.264  0.0406  0.9398  0.5086
  794MOL0     H 7182  11.002   9.536   9.290  3.6366 -0.8487 -1.7977
  794MOL0     H 7183  11.125   9.508   9.414  2.4206  3.8453 -5.7588
  794MOL0     H 7184  10.957   9.335   9.520 -2.0244 -2.3036 -0.7421
  794MOL0     H 7185  10.929   9.514   9.545 -0.6907  0.5741 -1.3934
  794MOL0     H 7186  10.626   9.344   9.285  1.4848 -2.2148  0.2521
  794MOL0     H 7187  11.329   8.983   9.096  0.0542 -2.5973 -2.2125
  794MOL0     H 7188  11.328   8.751   8.919  3.9897  1.5208 -0.3706
  794MOL0     H 7189  11.211   8.819   8.797  0.1277  0.5960 -0.7640
  794MOL0     H 7190  11.342   8.913   8.862  1.6217 -2.5643 -3.5970
  795MOL0     O 7191   2.301   6.564   9.109 -1.0635  0.9799  0.1488
  795MOL0     C 7192   2.248   6.515   9.009 -0.3438 -0.8717  0.9917
  795MOL0     O 7193   2.305   6.434   8.911 -1.0118 -0.0707  0.1598
  795MOL0     C 7194   2.437   6.436   8.884  0.1716 -0.0343 -0.5413
  795MOL0     C 7195   2.535   6.527   8.927  0.2041  0.2039 -0.0626
  795MOL0     C 7196   2.674   6.517   8.896 -0.1887 -0.4637  0.2758
  795MOL0     C 7197   2.718   6.415   8.810 -0.4740  0.3441 -0.1205
  795MOL0     O 7198   2.851   6.395   8.766  0.3596 -0.2548 -0.5440
  795MOL0     C 7199   2.961   6.428   8.848  0.1266  0.4050 -0.8257
  795MOL0     C 7200   3.072   6.469   8.758 -0.1037 -0.1815 -0.0593
  795MOL0     C 7201   3.209   6.485   8.814 -1.0349  0.4571 -0.7817
  795MOL0     C 7202   3.237   6.617   8.878 -0.7947  0.2417  0.4013
  795MOL0     C 7203   3.378   6.664   8.902  0.4311 -0.5353  0.2065
  795MOL0     C 7204   3.459   6.657   8.769  0.8377  0.8665 -0.5371
  795MOL0     C 7205   3.572   6.761   8.750  0.0130  0.9394  0.8039
  795MOL0     C 7206   3.521   6.899   8.708  0.9314 -0.3948  0.3266
  795MOL0     N 7207   3.636   6.981   8.671  0.0685 -0.4911  0.0137
  795MOL0     C 7208   3.733   7.041   8.751 -0.1408  0.2590  0.5027
  795MOL0     C 7209   3.823   7.092   8.662 -0.2977  0.1827  0.3256
  795MOL0     C 7210   3.955   7.155   8.691 -0.1412 -0.2487 -0.0395
  795MOL0     C 7211   3.941   7.299   8.749  0.1396 -0.9137  1.4616
  795MOL0     C 7212   4.067   7.342   8.826  0.5870 -0.4502 -0.0621
  795MOL0     C 7213   4.032   7.439   8.941  0.0339  0.9860 -0.7774
  795MOL0     O 7214   4.056   7.372   9.060 -0.0460 -0.0056  0.4087
  795MOL0     C 7215   3.945   7.304   9.114 -1.5760 -0.5252  0.6301
  795MOL0     C 7216   3.962   7.166   9.135  0.2977  0.5050  0.0703
  795MOL0     C 7217   3.850   7.090   9.167 -0.0860  0.3113 -0.9839
  795MOL0     C 7218   3.724   7.150   9.197  0.7210 -0.0856 -0.6927
  795MOL0     C 7219   3.609   7.076   9.247  1.6442 -0.0493 -0.5109
  795MOL0     O 7220   3.633   6.957   9.286 -0.1739  0.6753 -0.2184
  795MOL0     C 7221   3.534   6.865   9.308 -0.4099 -0.3447 -0.4100
  795MOL0     C 7222   3.528   6.799   9.436  0.6083 -0.2051 -0.7370
  795MOL0     C 7223   3.438   6.705   9.466 -0.2568 -0.3223  0.1676
  795MOL0     C 7224   3.332   6.680   9.383 -0.6581 -0.3727 -0.1041
  795MOL0     O 7225   3.251   6.572   9.407  0.3658 -0.7156  1.2170
  795MOL0     C 7226   3.111   6.587   9.407 -0.2971 -0.2618 -0.3038
  795MOL0     C 7227   3.045   6.476   9.325 -0.0134  0.3929  0.0873
  795MOL0     C 7228   2.895   6.512   9.325  0.3758 -0.3527  0.7907
  795MOL0     C 7229   2.808   6.418   9.250 -0.0343 -0.6847  0.5860
  795MOL0     C 7230   2.658   6.458   9.252  0.2654  0.5041 -0.0578
  795MOL0     C 7231   2.601   6.379   9.370  0.6936 -0.5855 -0.3613
  795MOL0     C 7232   2.443   6.369   9.364  0.1786  0.8160  0.0812
  795MOL0     C 7233   2.392   6.297   9.242  0.5571  0.0009 -0.4557
  795MOL0    Cl 7234   2.435   6.126   9.237 -0.3025 -0.3690  0.1766
  795MOL0     C 7235   3.334   6.730   9.255  0.7029  1.1781  0.3599
  795MOL0     C 7236   3.429   6.822   9.220  0.4955 -0.5996 -0.2130
  795MOL0     O 7237   3.496   7.114   9.227  0.2901 -0.2477  0.2699
  795MOL0     C 7238   3.718   7.290   9.171 -0.1748 -0.1023 -1.4478
  795MOL0     C 7239   3.828   7.365   9.133  0.4207 -0.4240  1.0901
  795MOL0     N 7240   3.773   7.079   8.533 -0.2650 -0.7203  1.1162
  795MOL0     N 7241   3.663   7.013   8.541  0.2724  0.6076 -0.0747
  795MOL0     C 7242   2.622   6.326   8.765 -0.2494  0.0779  0.1261
  795MOL0     C 7243   2.487   6.332   8.794 -0.0458 -0.2578  0.1121
  795MOL0     C 7244   2.102   6.534   8.997  0.3669 -0.3087  0.2883
  795MOL0     C 7245   2.024   6.428   8.948 -0.9528 -0.1198  0.5416
  795MOL0     C 7246   1.890   6.427   8.922  0.3707 -0.0232  0.4260
  795MOL0     C 7247   1.814   6.541   8.951  0.9306  0.8466  0.3495
  795MOL0     O 7248   1.684   6.545   8.912  0.1240 -0.3295  0.4872
  795MOL0     C 7249   1.590   6.642   8.960  0.6302  0.2832 -0.5951
  795MOL0     C 7250   1.464   6.626   8.893  0.0873  1.1143 -0.1934
  795MOL0     C 7251   1.363   6.750   8.901 -0.1735  0.3451  0.3895
  795MOL0     C 7252   1.332   6.781   9.052  0.3842  0.5138 -0.4484
  795MOL0     C 7253   1.249   6.907   9.064  0.1523  0.2721  0.9975
  795MOL0     C 7254   1.189   7.014   9.077  0.0995 -0.3953  0.2239
  795MOL0     C 7255   1.886   6.654   9.004  0.0083 -0.1900 -1.1725
  795MOL0     C 7256   2.028   6.657   9.022 -0.1392  0.7976 -0.1696
  795MOL0     C 7257   2.085   6.776   9.094 -0.4495 -0.0138  0.7057
  795MOL0     H 7258   2.506   6.616   8.982 -1.1707  1.0738 -2.0795
  795MOL0     H 7259   2.749   6.580   8.942  0.0042 -1.8931  2.0226
  795MOL0     H 7260   2.951   6.506   8.924 -0.1184 -1.3517  1.0199
  795MOL0     H 7261   2.979   6.330   8.893 -1.1170  1.1837  1.5173
  795MOL0     H 7262   3.048   6.558   8.699 -3.7246  1.7068  3.8177
  795MOL0     H 7263   3.078   6.380   8.693  4.1279 -1.4919  1.7416
  795MOL0     H 7264   3.275   6.450   8.734 -1.3770  1.0496 -1.3341
  795MOL0     H 7265   3.225   6.418   8.899 -0.7440  2.7382  1.0874
  795MOL0     H 7266   3.195   6.693   8.811  3.9677 -0.1515 -3.6413
  795MOL0     H 7267   3.188   6.607   8.976  0.1579 -0.3730  0.8247
  795MOL0     H 7268   3.370   6.768   8.936  1.1774  0.6284 -2.8321
  795MOL0     H 7269   3.422   6.602   8.981  0.6923 -0.3566  0.2015
  795MOL0     H 7270   3.505   6.558   8.770  2.5995  1.6120 -2.2630
  795MOL0     H 7271   3.392   6.664   8.682 -0.1325 -1.7564 -0.0855
  795MOL0     H 7272   3.640   6.724   8.672  0.7176  1.1158  1.3187
  795MOL0     H 7273   3.632   6.771   8.841  2.1513 -0.9057 -0.2821
  795MOL0     H 7274   3.467   6.878   8.615  0.6507 -3.0118  1.0222
  795MOL0     H 7275   3.444   6.939   8.775 -2.7626 -2.1545 -2.5262
  795MOL0     H 7276   3.736   7.048   8.859 -3.6790  2.3533  0.6478
  795MOL0     H 7277   4.003   7.083   8.758 -1.0108 -0.1557  0.7071
  795MOL0     H 7278   4.011   7.169   8.598 -0.7500  0.0717 -0.3616
  795MOL0     H 7279   3.919   7.371   8.670 -1.4044  1.3244  3.7783
  795MOL0     H 7280   3.862   7.289   8.824  1.7765  1.4475  3.6852
  795MOL0     H 7281   4.142   7.381   8.756  1.9059  0.1822  1.6362
  795MOL0     H 7282   4.119   7.256   8.869  0.8786  1.0790  2.8813
  795MOL0     H 7283   3.929   7.473   8.932  0.0533  0.7120 -2.4219
  795MOL0     H 7284   4.100   7.524   8.927  0.6088  0.9720  1.5613
  795MOL0     H 7285   4.057   7.113   9.133  1.5432  2.3546  3.0501
  795MOL0     H 7286   3.853   6.983   9.186 -0.8005  0.5218  0.4225
  795MOL0     H 7287   3.601   6.822   9.513  0.0893 -1.5445  0.1977
  795MOL0     H 7288   3.434   6.654   9.562  2.0748 -1.6694 -0.3815
  795MOL0     H 7289   3.072   6.576   9.509  1.7308 -3.2300  0.2926
  795MOL0     H 7290   3.079   6.686   9.373  0.0040  0.9863  2.7959
  795MOL0     H 7291   3.099   6.461   9.231 -1.2177  1.9060 -0.8839
  795MOL0     H 7292   3.060   6.382   9.380 -1.5629 -0.2992 -0.5979
  795MOL0     H 7293   2.859   6.529   9.427  1.8062 -2.1104  1.6280
  795MOL0     H 7294   2.877   6.606   9.271  0.8196  0.3488  1.8437
  795MOL0     H 7295   2.828   6.315   9.282  1.9463 -0.1815  1.0907
  795MOL0     H 7296   2.846   6.426   9.148 -1.0370  2.4777  0.3514
  795MOL0     H 7297   2.612   6.428   9.158  1.5501 -4.6589  0.6555
  795MOL0     H 7298   2.640   6.561   9.285  3.0245  0.7066  1.1171
  795MOL0     H 7299   2.634   6.277   9.394  1.0321 -0.0963  1.3924
  795MOL0     H 7300   2.628   6.436   9.459 -1.0397 -1.6734  0.9208
  795MOL0     H 7301   2.394   6.466   9.359  3.0801  2.4200  0.6763
  795MOL0     H 7302   2.398   6.325   9.454 -3.5764 -0.5290 -2.2125
  795MOL0     H 7303   2.283   6.305   9.250  0.6915  0.8837  0.9174
  795MOL0     H 7304   2.431   6.331   9.146  2.3439 -1.1541 -0.1975
  795MOL0     H 7305   3.262   6.697   9.181  0.7731 -0.4700  0.9807
  795MOL0     H 7306   3.430   6.882   9.130 -2.4165  1.2990  0.8849
  795MOL0     H 7307   3.631   7.354   9.172  0.4826  0.9638  2.0805
  795MOL0     H 7308   3.817   7.472   9.116 -1.0425 -0.9770 -2.0846
  795MOL0     H 7309   2.664   6.243   8.710  0.7207  1.3291 -1.0920
  795MOL0     H 7310   2.419   6.259   8.752  1.9364 -3.0417  1.4148
  795MOL0     H 7311   2.079   6.337   8.926  2.1667  1.8699 -0.6354
  795MOL0     H 7312   1.837   6.339   8.886 -0.6803 -0.0203  1.8862
  795MOL0     H 7313   1.605   6.747   8.934 -2.4949  0.6037 -1.4998
  795MOL0     H 7314   1.580   6.633   9.068  2.4057 -3.2808 -0.5755
  795MOL0     H 7315   1.412   6.537   8.931  0.5067  0.7003 -0.5745
  795MOL0     H 7316   1.487   6.622   8.786  1.1038  2.1236 -0.0299
  795MOL0     H 7317   1.264   6.727   8.860 -1.2547  2.8861  1.3352
  795MOL0     H 7318   1.391   6.834   8.837 -2.7719  0.9164 -0.0892
  795MOL0     H 7319   1.281   6.697   9.100 -2.7045  2.7960  0.5567
  795MOL0     H 7320   1.427   6.800   9.103  0.8339 -2.3650 -0.0323
  795MOL0     H 7321   1.141   7.110   9.079 -2.7341 -1.6899 -0.4710
  795MOL0     H 7322   1.833   6.746   9.027  0.8164 -0.0098  0.0522
  795MOL0     H 7323   2.191   6.779   9.066 -0.2163 -1.7109  1.2868
  795MOL0     H 7324   2.035   6.870   9.069  0.0208  0.1667  0.4294
  795MOL0     H 7325   2.069   6.768   9.202  0.9703 -4.3592  0.8131
  796MOL0     O 7326   6.334   7.908   1.593 -0.3568  0.4308  0.5632
  796MOL0     C 7327   6.367   8.027   1.588 -1.0216 -0.7759 -0.3619
  796MOL0     O 7328   6.285   8.132   1.614 -0.3431 -0.4990  0.2267
  796MOL0     C 7329   6.156   8.118   1.639  0.2882 -0.3360 -0.1469
  796MOL0     C 7330   6.070   8.036   1.564  0.6586 -0.4402  0.0344
  796MOL0     C 7331   5.929   8.032   1.590 -0.1912  0.7450 -0.1496
  796MOL0     C 7332   5.873   8.096   1.702  0.6090  0.4683  0.1756
  796MOL0     O 7333   5.738   8.093   1.736 -0.3446  0.3530 -0.2631
  796MOL0     C 7334   5.641   8.053   1.647  0.3979  0.1838  0.5158
  796MOL0     C 7335   5.514   8.029   1.720 -0.0937  0.4135  0.3601
  796MOL0     C 7336   5.474   8.153   1.795 -0.0199 -0.0302  0.4749
  796MOL0     C 7337   5.324   8.127   1.834 -0.3748  0.1245 -0.1484
  796MOL0     C 7338   5.308   8.037   1.957 -0.2642 -0.4230 -1.9067
  796MOL0     C 7339   5.409   8.049   2.076  0.3371  0.3168 -0.6226
  796MOL0     C 7340   5.422   8.185   2.146  0.4662 -0.2051  0.3567
  796MOL0     C 7341   5.284   8.245   2.170  0.7389  0.0708 -0.5044
  796MOL0     N 7342   5.275   8.354   2.270  0.1656  0.0593 -0.2405
  796MOL0     C 7343   5.174   8.447   2.257 -0.1417 -0.7240  0.1285
  796MOL0     C 7344   5.189   8.532   2.360 -0.0305 -0.0618 -0.0135
  796MOL0     C 7345   5.088   8.634   2.409  0.3923  0.2914  0.9476
  796MOL0     C 7346   5.152   8.759   2.444 -0.2725 -0.1844 -0.0736
  796MOL0     C 7347   5.195   8.758   2.591  0.0405 -0.0276 -0.0057
  796MOL0     C 7348   5.225   8.906   2.626 -0.9380 -0.5600  0.5160
  796MOL0     O 7349   5.102   8.982   2.649 -0.0284 -0.2796 -0.4187
  796MOL0     C 7350   5.113   9.120   2.684 -0.0547  0.9445  0.2067
  796MOL0     C 7351   4.999   9.194   2.725  0.0645  1.3368  0.0602
  796MOL0     C 7352   5.003   9.335   2.724  0.0380  0.0820 -0.2333
  796MOL0     C 7353   5.125   9.401   2.711  0.0556  0.0847 -0.1459
  796MOL0     C 7354   5.142   9.546   2.705  0.2164  0.1268  0.0304
  796MOL0     O 7355   5.022   9.612   2.694  0.7592  0.3393 -0.7453
  796MOL0     C 7356   5.023   9.743   2.727  0.2804 -1.2062  0.1574
  796MOL0     C 7357   5.097   9.799   2.829 -0.2669 -0.3327  0.6038
  796MOL0     C 7358   5.099   9.941   2.859 -0.1585 -0.2516 -0.0871
  796MOL0     C 7359   5.035  10.027   2.769  0.1874 -0.3138  0.3973
  796MOL0     O 7360   5.046  10.159   2.802 -0.6633 -0.7243  0.3195
  796MOL0     C 7361   4.931  10.237   2.815  0.2367  0.5079 -0.7742
  796MOL0     C 7362   4.830  10.185   2.927 -0.0835 -1.3800  1.3471
  796MOL0     C 7363   4.897  10.201   3.055 -0.9052  0.2648 -0.2870
  796MOL0     C 7364   4.808  10.140   3.157  0.4876 -0.1521  0.2276
  796MOL0     C 7365   4.865  10.011   3.213  0.4928 -0.8557  0.4525
  796MOL0     C 7366   4.793   9.962   3.335  0.0035 -0.1623  0.3503
  796MOL0     C 7367   4.838  10.046   3.460  0.3908  1.1785  0.4147
  796MOL0     C 7368   4.784   9.978   3.586  0.3446 -0.0308 -0.0488
  796MOL0    Cl 7369   4.850   9.821   3.625 -0.0669  0.6085  0.4093
  796MOL0     C 7370   4.956   9.976   2.669 -0.2801 -0.0046  0.5214
  796MOL0     C 7371   4.943   9.829   2.652 -0.4635  0.5457 -0.0970
  796MOL0     O 7372   5.255   9.598   2.708  0.1796  0.0765  0.3657
  796MOL0     C 7373   5.247   9.327   2.686 -0.2072  0.3156  0.0277
  796MOL0     C 7374   5.235   9.190   2.663  0.1683  0.0605 -0.8648
  796MOL0     N 7375   5.299   8.485   2.431 -1.4836 -0.3789  0.3381
  796MOL0     N 7376   5.355   8.382   2.376  0.4173  0.7380  0.0774
  796MOL0     C 7377   5.958   8.186   1.764 -0.6570 -0.1367 -0.3334
  796MOL0     C 7378   6.093   8.192   1.739  0.2234 -0.8172  0.3209
  796MOL0     C 7379   6.500   8.063   1.547 -0.6071 -0.7378 -0.6985
  796MOL0     C 7380   6.555   8.190   1.583  0.4222  0.2983  0.1164
  796MOL0     C 7381   6.694   8.219   1.565  0.2943 -0.1499 -0.3694
  796MOL0     C 7382   6.776   8.128   1.504 -0.2061  0.0468  0.6885
  796MOL0     O 7383   6.911   8.147   1.495  0.4749 -0.5453  0.3860
  796MOL0     C 7384   6.975   8.126   1.625 -0.3292 -0.7188 -0.4069
  796MOL0     C 7385   7.125   8.114   1.610  0.2768  0.5539  0.7676
  796MOL0     C 7386   7.200   8.221   1.512 -0.2880  0.4728 -0.6992
  796MOL0     C 7387   7.172   8.360   1.532  0.6844 -0.7800 -0.3932
  796MOL0     C 7388   7.236   8.455   1.439 -0.3033  0.7978 -0.0973
  796MOL0     C 7389   7.281   8.548   1.369 -0.3749  0.1118 -0.7193
  796MOL0     C 7390   6.724   8.001   1.474 -0.6502  0.4299 -0.3183
  796MOL0     C 7391   6.588   7.970   1.489 -0.0027  0.3230  0.4188
  796MOL0     C 7392   6.562   7.824   1.452  1.0658 -0.9737 -0.4426
  796MOL0     H 7393   6.115   7.977   1.484  3.4861 -0.6102  1.5972
  796MOL0     H 7394   5.865   7.967   1.531 -0.8435 -2.9682  4.1429
  796MOL0     H 7395   5.624   8.127   1.568 -3.5060  2.2342  2.9691
  796MOL0     H 7396   5.663   7.958   1.598 -2.1365 -0.3903  0.3370
  796MOL0     H 7397   5.544   7.949   1.788  1.0093 -1.6576 -2.3513
  796MOL0     H 7398   5.430   8.005   1.654  1.1722  1.1308 -1.6002
  796MOL0     H 7399   5.479   8.234   1.721 -0.0964  1.0733  1.6369
  796MOL0     H 7400   5.534   8.172   1.885  1.6123 -0.9234 -0.3841
  796MOL0     H 7401   5.297   8.229   1.866 -1.0571 -0.4639  1.2338
  796MOL0     H 7402   5.260   8.088   1.754  2.3251 -5.3164 -0.0819
  796MOL0     H 7403   5.204   8.060   1.982 -0.4308 -2.6094 -0.3192
  796MOL0     H 7404   5.302   7.932   1.928  2.6586  0.0733 -4.8887
  796MOL0     H 7405   5.367   7.972   2.141 -3.4696 -0.5338 -3.7338
  796MOL0     H 7406   5.507   8.010   2.049  0.3002 -0.3815  0.2070
  796MOL0     H 7407   5.477   8.250   2.078 -0.8003 -1.2454 -1.7642
  796MOL0     H 7408   5.474   8.182   2.242  0.2580 -0.1238  0.4742
  796MOL0     H 7409   5.235   8.274   2.076  1.6324 -1.4022 -1.4429
  796MOL0     H 7410   5.228   8.160   2.209 -0.7892  0.3391 -1.9867
  796MOL0     H 7411   5.089   8.462   2.190 -1.5392  0.3309  2.0238
  796MOL0     H 7412   5.011   8.660   2.336  2.8313  0.2188 -1.8590
  796MOL0     H 7413   5.051   8.588   2.501 -1.5676  1.1610  0.6409
  796MOL0     H 7414   5.229   8.797   2.376 -0.4202  3.0899  1.3959
  796MOL0     H 7415   5.072   8.833   2.443 -0.7572 -0.6883  0.5036
  796MOL0     H 7416   5.279   8.687   2.591  0.4392  0.3879 -1.6947
  796MOL0     H 7417   5.119   8.726   2.662  0.1611  0.2278  0.2409
  796MOL0     H 7418   5.275   8.953   2.542 -1.9417  1.4223  0.9765
  796MOL0     H 7419   5.282   8.915   2.720  1.6692 -2.2364 -0.7847
  796MOL0     H 7420   4.910   9.132   2.729  2.5417 -2.6372 -0.5122
  796MOL0     H 7421   4.912   9.394   2.730  0.5086  0.9200 -0.9200
  796MOL0     H 7422   5.138   9.721   2.893 -1.0200  0.3906  2.0111
  796MOL0     H 7423   5.139   9.987   2.949  0.1014 -2.6188  1.0887
  796MOL0     H 7424   4.967  10.338   2.836  3.7922 -0.3305 -2.0156
  796MOL0     H 7425   4.873  10.252   2.724  0.4590  0.5121 -0.9149
  796MOL0     H 7426   4.746  10.254   2.922  1.9125  1.0901 -1.0282
  796MOL0     H 7427   4.797  10.083   2.906  1.0074 -1.5811  0.4710
  796MOL0     H 7428   4.997  10.159   3.056 -1.0164 -0.2178  3.2282
  796MOL0     H 7429   4.905  10.307   3.083 -0.2252 -0.2255  1.4839
  796MOL0     H 7430   4.704  10.128   3.126  0.3270 -0.9250  1.0315
  796MOL0     H 7431   4.801  10.208   3.243  0.0317 -0.4520  0.4297
  796MOL0     H 7432   4.971  10.035   3.227 -0.1292  3.3418 -0.7932
  796MOL0     H 7433   4.856   9.939   3.132  0.7287 -0.5196  0.1222
  796MOL0     H 7434   4.684   9.959   3.322 -0.4041  2.9210  2.0334
  796MOL0     H 7435   4.826   9.858   3.338 -1.7103 -0.7389  0.8537
  796MOL0     H 7436   4.795  10.146   3.451  2.0701  1.8460 -0.9679
  796MOL0     H 7437   4.948  10.050   3.464  0.4969 -0.4231 -0.3877
  796MOL0     H 7438   4.805  10.043   3.672 -2.2970 -0.3339  0.9247
  796MOL0     H 7439   4.676   9.960   3.583  0.1032  1.3913 -0.5768
  796MOL0     H 7440   4.900  10.034   2.597  1.2775 -0.0175 -0.7555
  796MOL0     H 7441   4.882   9.793   2.570 -1.2726 -0.8474  1.0646
  796MOL0     H 7442   5.344   9.375   2.669  0.3360 -0.8670 -0.3029
  796MOL0     H 7443   5.321   9.139   2.621  1.7104 -1.1283  3.2457
  796MOL0     H 7444   5.911   8.256   1.832 -0.9941 -0.2324 -0.4661
  796MOL0     H 7445   6.145   8.259   1.806 -2.5194 -0.0635  1.8503
  796MOL0     H 7446   6.504   8.274   1.630 -0.6062  0.9006 -1.9428
  796MOL0     H 7447   6.724   8.318   1.595 -0.2135  0.2480 -1.1474
  796MOL0     H 7448   6.936   8.038   1.677  1.1752  0.3260  2.7227
  796MOL0     H 7449   6.953   8.208   1.694 -0.0976  0.4832 -1.7059
  796MOL0     H 7450   7.154   8.014   1.578 -1.2298  0.9147 -1.9437
  796MOL0     H 7451   7.158   8.121   1.715 -0.9486  0.6939  1.1596
  796MOL0     H 7452   7.174   8.197   1.408 -0.0357 -0.3411 -0.5871
  796MOL0     H 7453   7.307   8.199   1.526 -0.9702 -2.8214  0.2095
  796MOL0     H 7454   7.064   8.380   1.523  0.2456 -1.0331  3.0473
  796MOL0     H 7455   7.206   8.388   1.632  0.5664 -0.0384 -0.5528
  796MOL0     H 7456   7.342   8.613   1.310  1.6061  0.1214  1.1901
  796MOL0     H 7457   6.799   7.930   1.442  1.6925  2.6088 -0.0109
  796MOL0     H 7458   6.489   7.847   1.373  3.2416  3.6950 -1.3905
  796MOL0     H 7459   6.634   7.753   1.410  0.3547 -1.2088 -1.2992
  796MOL0     H 7460   6.514   7.774   1.537  1.9783  0.1896  0.7903
  797MOL0     O 7461   9.394   2.460   0.699 -0.8111 -0.0652 -0.7619
  797MOL0     C 7462   9.292   2.488   0.754 -0.9892 -0.8773  0.2092
  797MOL0     O 7463   9.167   2.435   0.720 -0.8691  0.0100 -0.1088
  797MOL0     C 7464   9.156   2.341   0.619  0.8272 -0.3975 -0.7854
  797MOL0     C 7465   9.250   2.255   0.557 -0.6212 -0.6561  0.0287
  797MOL0     C 7466   9.216   2.159   0.462 -1.4371  0.1591 -0.3135
  797MOL0     C 7467   9.090   2.144   0.419 -0.8541 -0.4495  0.4818
  797MOL0     O 7468   9.056   2.067   0.304  0.5942  1.2620 -0.3703
  797MOL0     C 7469   9.138   2.064   0.193  0.2263 -0.2906 -0.5019
  797MOL0     C 7470   9.120   2.187   0.112  0.5752 -0.4927  0.0597
  797MOL0     C 7471   9.133   2.155  -0.036  0.2246  0.1425 -0.6520
  797MOL0     C 7472   9.207   2.266  -0.111  0.1080 -0.1518  0.2093
  797MOL0     C 7473   9.116   2.386  -0.128  0.7626  0.6272  0.4128
  797MOL0     C 7474   9.131   2.433  -0.270 -0.0674 -0.1319 -0.6150
  797MOL0     C 7475   9.040   2.556  -0.309 -0.8636 -0.8936 -0.0774
  797MOL0     C 7476   9.103   2.693  -0.270 -1.2895  0.1864  0.0886
  797MOL0     N 7477   9.214   2.740  -0.351  0.2446  0.4771  0.3060
  797MOL0     C 7478   9.195   2.824  -0.461 -0.4853 -0.5269 -0.8308
  797MOL0     C 7479   9.316   2.877  -0.496  0.6635 -0.1925 -0.3358
  797MOL0     C 7480   9.351   2.977  -0.606  0.1761  0.7571 -0.5773
  797MOL0     C 7481   9.252   3.091  -0.617  0.2359  0.7766 -0.7850
  797MOL0     C 7482   9.264   3.165  -0.751 -0.1756 -0.1479  0.0891
  797MOL0     C 7483   9.245   3.319  -0.722 -0.5002  0.3330 -0.0450
  797MOL0     O 7484   9.109   3.341  -0.677  0.3154 -0.3258  1.3185
  797MOL0     C 7485   9.079   3.464  -0.623 -0.0497  0.2826 -1.4499
  797MOL0     C 7486   9.165   3.560  -0.562  0.7413  0.2639 -0.6673
  797MOL0     C 7487   9.124   3.685  -0.508  0.7159 -0.2542  0.7455
  797MOL0     C 7488   8.992   3.704  -0.513 -0.7518  0.1425  0.6292
  797MOL0     C 7489   8.941   3.829  -0.456 -0.0607 -0.3068  0.0938
  797MOL0     O 7490   9.027   3.903  -0.387 -0.3426  0.7254  0.8290
  797MOL0     C 7491   9.013   4.032  -0.396  0.1730 -0.9782 -0.4332
  797MOL0     C 7492   9.051   4.098  -0.521  0.2682 -0.1009 -0.5142
  797MOL0     C 7493   9.030   4.233  -0.540  0.6991 -0.4458 -0.2581
  797MOL0     C 7494   8.985   4.310  -0.433  0.0947 -0.2281 -0.6211
  797MOL0     O 7495   8.951   4.434  -0.464 -0.2819 -0.0391  0.4571
  797MOL0     C 7496   8.950   4.527  -0.362  0.4676 -0.7070  0.0023
  797MOL0     C 7497   9.103   4.550  -0.330  0.2283 -0.3841  0.4239
  797MOL0     C 7498   9.199   4.597  -0.444 -0.2238 -0.0366  0.1985
  797MOL0     C 7499   9.331   4.644  -0.383 -0.6382  1.0856 -0.8136
  797MOL0     C 7500   9.417   4.702  -0.492 -0.1633 -1.1806 -0.1106
  797MOL0     C 7501   9.563   4.713  -0.439  0.0830  0.1061  0.2922
  797MOL0     C 7502   9.651   4.761  -0.552  0.8754 -0.0497  0.1939
  797MOL0     C 7503   9.795   4.780  -0.520  1.0372  0.1674  1.0675
  797MOL0    Cl 7504   9.819   4.919  -0.415  0.4880 -0.6880 -0.0299
  797MOL0     C 7505   8.975   4.241  -0.304 -0.2394 -0.2341 -0.4437
  797MOL0     C 7506   8.970   4.104  -0.281  0.1650  0.2701 -0.2194
  797MOL0     O 7507   8.819   3.854  -0.465 -0.7784 -0.3983 -0.6498
  797MOL0     C 7508   8.904   3.607  -0.561  0.1037 -0.0432  0.5590
  797MOL0     C 7509   8.947   3.498  -0.627 -0.4933  0.1714 -0.5359
  797MOL0     N 7510   9.405   2.823  -0.402  0.4619 -0.1339 -0.4987
  797MOL0     N 7511   9.344   2.739  -0.324 -1.2315 -0.3941 -0.3477
  797MOL0     C 7512   8.994   2.218   0.489 -0.8094  0.1637 -0.5328
  797MOL0     C 7513   9.024   2.311   0.598 -0.0475  0.2308 -0.6639
  797MOL0     C 7514   9.300   2.580   0.874  1.0687  0.7413 -0.2328
  797MOL0     C 7515   9.177   2.616   0.940  0.0667  0.9086 -0.2796
  797MOL0     C 7516   9.178   2.718   1.038  0.4133 -0.2736  0.0094
  797MOL0     C 7517   9.291   2.787   1.071  0.0492 -0.1153 -0.4671
  797MOL0     O 7518   9.287   2.902   1.157 -0.5789  0.4029 -0.0663
  797MOL0     C 7519   9.333   2.864   1.292 -0.2131 -0.5498 -0.5007
  797MOL0     C 7520   9.345   2.993   1.376  0.1901 -0.7793 -1.2004
  797MOL0     C 7521   9.217   3.073   1.413 -0.3519  0.4827 -0.0284
  797MOL0     C 7522   9.238   3.199   1.496  0.6276  0.2762 -0.2450
  797MOL0     C 7523   9.315   3.178   1.620 -0.2158 -0.0089  0.3857
  797MOL0     C 7524   9.368   3.154   1.727  0.1166 -0.4983  0.5413
  797MOL0     C 7525   9.410   2.742   1.011 -0.4565  0.1752 -0.0745
  797MOL0     C 7526   9.415   2.629   0.920 -0.2474 -0.3930  0.2679
  797MOL0     C 7527   9.562   2.595   0.873  0.7078  0.3854 -0.2172
  797MOL0     H 7528   9.345   2.257   0.608 -0.4222  1.1763 -0.3457
  797MOL0     H 7529   9.301   2.101   0.429  0.3058  3.1335 -1.4196
  797MOL0     H 7530   9.244   2.045   0.217  0.6316  2.2992  0.0234
  797MOL0     H 7531   9.103   1.973   0.142 -0.6231 -0.8793  1.0662
  797MOL0     H 7532   9.201   2.256   0.137  1.6053 -0.9284 -1.8284
  797MOL0     H 7533   9.028   2.242   0.133  1.1720  1.1428 -1.3753
  797MOL0     H 7534   9.041   2.127  -0.089  1.7012 -3.8755 -1.4514
  797MOL0     H 7535   9.196   2.068  -0.051 -1.1238 -1.0074  0.1008
  797MOL0     H 7536   9.298   2.302  -0.061 -0.0650 -0.3791  0.6928
  797MOL0     H 7537   9.243   2.227  -0.206  1.3023  0.4497  0.3913
  797MOL0     H 7538   9.009   2.377  -0.109 -0.5603  3.7692 -3.8173
  797MOL0     H 7539   9.152   2.462  -0.057 -1.8432  0.0319  2.5037
  797MOL0     H 7540   9.237   2.450  -0.291 -0.2741 -0.4492 -2.0083
  797MOL0     H 7541   9.103   2.353  -0.339 -1.0722 -1.8800  1.6791
  797MOL0     H 7542   8.954   2.544  -0.242  0.4349 -0.6357  1.6879
  797MOL0     H 7543   8.996   2.557  -0.410 -0.0602  0.1508 -0.4315
  797MOL0     H 7544   9.030   2.772  -0.292  0.9495  1.5773 -3.0504
  797MOL0     H 7545   9.129   2.706  -0.164 -0.6230  2.0626 -0.2553
  797MOL0     H 7546   9.104   2.858  -0.509 -1.1342 -0.7116  0.2363
  797MOL0     H 7547   9.449   3.021  -0.584 -0.0807  0.8125  0.4827
  797MOL0     H 7548   9.375   2.922  -0.698  1.3603 -1.4385  0.9468
  797MOL0     H 7549   9.148   3.059  -0.606  0.5695 -1.0473 -2.4438
  797MOL0     H 7550   9.269   3.154  -0.529  1.2533 -0.7568  0.1715
  797MOL0     H 7551   9.185   3.137  -0.822 -1.1430  2.2754  0.1330
  797MOL0     H 7552   9.357   3.143  -0.803 -0.8413 -0.6172 -0.9516
  797MOL0     H 7553   9.256   3.361  -0.822 -2.0543 -1.0274 -0.8405
  797MOL0     H 7554   9.321   3.344  -0.648  0.4450 -1.3789 -0.3757
  797MOL0     H 7555   9.273   3.558  -0.558  0.7925  0.8707  3.5459
  797MOL0     H 7556   9.198   3.755  -0.470  1.6681  0.0639 -1.4879
  797MOL0     H 7557   9.092   4.052  -0.610 -1.7440 -0.0371 -1.5438
  797MOL0     H 7558   9.038   4.284  -0.635 -3.1262 -0.2908 -0.6464
  797MOL0     H 7559   8.911   4.626  -0.385 -0.4384 -1.1637 -0.4697
  797MOL0     H 7560   8.891   4.496  -0.275  0.0966  3.0278  1.2333
  797MOL0     H 7561   9.097   4.623  -0.249 -0.5900  1.9365 -1.6044
  797MOL0     H 7562   9.136   4.454  -0.288  0.8690 -2.3036 -3.9535
  797MOL0     H 7563   9.228   4.511  -0.505 -2.9541 -0.2636 -0.9266
  797MOL0     H 7564   9.155   4.670  -0.512 -1.4206 -1.0022 -0.0958
  797MOL0     H 7565   9.383   4.564  -0.329  0.7744  3.3519  1.4661
  797MOL0     H 7566   9.310   4.717  -0.304 -1.1888 -1.3023  1.4203
  797MOL0     H 7567   9.366   4.797  -0.512 -2.0344 -1.9270  0.8657
  797MOL0     H 7568   9.412   4.645  -0.585 -1.1938 -2.4234  0.6824
  797MOL0     H 7569   9.584   4.781  -0.356 -1.0749 -1.4867  1.9803
  797MOL0     H 7570   9.591   4.611  -0.411 -0.1588  0.2308  1.0027
  797MOL0     H 7571   9.600   4.851  -0.589 -1.4227  0.5827  4.2237
  797MOL0     H 7572   9.637   4.689  -0.633 -1.9581  0.3222  0.2439
  797MOL0     H 7573   9.837   4.689  -0.477  0.5097 -1.3820 -1.5211
  797MOL0     H 7574   9.847   4.802  -0.613  0.4354 -1.3335  0.3562
  797MOL0     H 7575   8.955   4.310  -0.222 -1.4329  2.8996 -3.1502
  797MOL0     H 7576   8.961   4.062  -0.181 -2.1921  3.7472  1.2175
  797MOL0     H 7577   8.798   3.630  -0.566  0.1765  0.1065 -0.3853
  797MOL0     H 7578   8.861   3.444  -0.665 -1.5560  0.4890  1.2950
  797MOL0     H 7579   8.891   2.207   0.455 -0.9217 -1.0877  0.1586
  797MOL0     H 7580   8.950   2.357   0.662 -3.3712 -5.2649  0.0730
  797MOL0     H 7581   9.084   2.561   0.928  0.0169  1.2342 -1.5580
  797MOL0     H 7582   9.085   2.739   1.089  0.2019 -1.0737 -0.0297
  797MOL0     H 7583   9.424   2.805   1.285  0.1216 -0.3765  1.7255
  797MOL0     H 7584   9.257   2.804   1.343 -3.7379  2.9375 -1.1182
  797MOL0     H 7585   9.420   3.056   1.327 -0.6838  1.9631  0.7801
  797MOL0     H 7586   9.390   2.955   1.468 -1.2255  0.2192 -0.0603
  797MOL0     H 7587   9.150   3.005   1.466  1.8538 -3.2314 -1.5752
  797MOL0     H 7588   9.162   3.103   1.323  1.6429 -0.2105 -1.5729
  797MOL0     H 7589   9.284   3.281   1.441  1.1897  0.0174 -0.1658
  797MOL0     H 7590   9.134   3.231   1.506  0.2123 -1.4597  1.7873
  797MOL0     H 7591   9.418   3.149   1.822 -0.5238  0.0323  0.9166
  797MOL0     H 7592   9.498   2.804   1.027  1.0686 -1.8356 -0.1740
  797MOL0     H 7593   9.638   2.638   0.939  2.8009  1.4647 -3.1488
  797MOL0     H 7594   9.590   2.489   0.878  2.8416  0.9313  0.6429
  797MOL0     H 7595   9.569   2.629   0.770  0.7933  3.7636  0.7916
  798MOL0     O 7596   4.325   3.781   5.530  0.2410 -0.3135  1.2851
  798MOL0     C 7597   4.397   3.871   5.495 -0.0572  0.1493 -0.5938
  798MOL0     O 7598   4.492   3.934   5.575  0.7752 -0.1096  0.1968
  798MOL0     C 7599   4.545   3.879   5.691  0.1826  0.2597 -0.0360
  798MOL0     C 7600   4.542   3.749   5.736  0.0465 -0.0525  0.2244
  798MOL0     C 7601   4.610   3.712   5.858  0.5109  0.4031  0.2623
  798MOL0     C 7602   4.688   3.800   5.928 -0.3983  0.1083 -0.0560
  798MOL0     O 7603   4.748   3.750   6.035 -0.7620 -0.1572 -0.2242
  798MOL0     C 7604   4.887   3.787   6.025  0.5142  0.7918  0.6567
  798MOL0     C 7605   4.968   3.748   6.147 -0.1980  0.5967  0.2266
  798MOL0     C 7606   5.122   3.774   6.123 -0.4938 -0.1878 -0.1006
  798MOL0     C 7607   5.211   3.732   6.237  0.0627 -0.3341  0.8211
  798MOL0     C 7608   5.354   3.771   6.216  0.0097  1.1218  0.6237
  798MOL0     C 7609   5.427   3.681   6.115  0.1907 -0.9893  0.0003
  798MOL0     C 7610   5.581   3.733   6.100  0.1770 -1.1048 -0.4836
  798MOL0     C 7611   5.656   3.616   6.029  1.2325  0.2062 -0.3871
  798MOL0     N 7612   5.795   3.612   6.070 -0.5160  0.1004  0.4878
  798MOL0     C 7613   5.908   3.603   5.984 -0.6015 -0.4298 -0.2204
  798MOL0     C 7614   6.019   3.580   6.068 -0.7238 -0.0979 -0.1872
  798MOL0     C 7615   6.171   3.594   6.041 -0.3047 -0.6676  0.2419
  798MOL0     C 7616   6.263   3.484   6.085 -1.0172 -1.1983  0.2704
  798MOL0     C 7617   6.235   3.359   6.002  0.9797 -0.8999 -0.6118
  798MOL0     C 7618   6.125   3.284   6.080  0.9796 -0.7076  0.7167
  798MOL0     O 7619   6.160   3.154   6.121 -0.1083  0.5387  0.0796
  798MOL0     C 7620   6.208   3.059   6.032  0.5791 -0.1335  0.7344
  798MOL0     C 7621   6.260   2.949   6.100  0.5901 -0.3144  0.1928
  798MOL0     C 7622   6.302   2.837   6.030  0.8165 -0.1988  0.2599
  798MOL0     C 7623   6.285   2.825   5.890  0.2139  0.3190 -0.6251
  798MOL0     C 7624   6.339   2.713   5.821 -0.3373 -0.6077 -1.2166
  798MOL0     O 7625   6.425   2.636   5.887 -0.4682 -0.0520  0.2689
  798MOL0     C 7626   6.471   2.523   5.825  0.7853 -0.9506  0.2350
  798MOL0     C 7627   6.569   2.522   5.736 -0.9449 -0.7348 -0.2763
  798MOL0     C 7628   6.605   2.402   5.675  0.1338  0.3871 -0.2876
  798MOL0     C 7629   6.550   2.273   5.711  0.3528  0.2520 -0.9043
  798MOL0     O 7630   6.578   2.157   5.651  0.2738  0.4411 -0.4947
  798MOL0     C 7631   6.630   2.055   5.742  0.2080 -0.6028 -0.4478
  798MOL0     C 7632   6.578   1.922   5.696  1.0115  0.1203 -0.0626
  798MOL0     C 7633   6.616   1.798   5.775 -0.2443 -0.4803 -0.1346
  798MOL0     C 7634   6.586   1.674   5.703  0.8049  0.9639  0.1717
  798MOL0     C 7635   6.609   1.548   5.787 -0.7247 -0.8860 -0.1376
  798MOL0     C 7636   6.643   1.425   5.705  1.3002 -0.7460  0.4442
  798MOL0     C 7637   6.539   1.374   5.606  1.1736  0.2106 -0.3870
  798MOL0     C 7638   6.602   1.266   5.516 -0.4759 -0.6938  0.6146
  798MOL0    Cl 7639   6.479   1.163   5.441 -0.2115 -0.3121 -0.4422
  798MOL0     C 7640   6.442   2.276   5.811 -0.1134 -0.2312  0.1940
  798MOL0     C 7641   6.397   2.408   5.848  0.6138  1.0478 -0.1620
  798MOL0     O 7642   6.298   2.696   5.706  0.6617  0.3248 -0.7510
  798MOL0     C 7643   6.214   2.928   5.826  0.9508 -0.3279 -0.1522
  798MOL0     C 7644   6.182   3.046   5.892  0.3756  0.1246  0.0176
  798MOL0     N 7645   5.962   3.554   6.197 -0.1218 -0.4561 -0.1021
  798MOL0     N 7646   5.835   3.559   6.186 -0.0122  0.1390 -0.0130
  798MOL0     C 7647   4.686   3.935   5.885 -0.2367  0.1125 -0.3972
  798MOL0     C 7648   4.606   3.970   5.782  0.5735 -0.6206 -0.1233
  798MOL0     C 7649   4.341   3.938   5.383  0.7204  0.4914 -0.1004
  798MOL0     C 7650   4.331   4.076   5.383 -0.0344 -0.5172  0.2797
  798MOL0     C 7651   4.282   4.144   5.275  1.3821  0.5710 -0.0210
  798MOL0     C 7652   4.241   4.075   5.166 -0.2060  0.5352  0.8023
  798MOL0     O 7653   4.199   4.136   5.051 -0.3824  0.3437  0.6570
  798MOL0     C 7654   4.259   4.091   4.929  0.8527 -0.4683  0.9854
  798MOL0     C 7655   4.141   4.075   4.830 -0.5382 -0.5818  0.0171
  798MOL0     C 7656   4.087   4.202   4.766  0.8367  0.4550  0.0502
  798MOL0     C 7657   3.985   4.277   4.859 -1.0085  0.0942 -0.6743
  798MOL0     C 7658   3.906   4.365   4.775 -0.1748  0.1418 -0.5644
  798MOL0     C 7659   3.834   4.437   4.705  0.2817  0.2141  0.1093
  798MOL0     C 7660   4.239   3.935   5.167 -1.2191 -0.6472  0.0464
  798MOL0     C 7661   4.275   3.863   5.277  0.5098 -0.3097 -0.1117
  798MOL0     C 7662   4.267   3.714   5.263  1.0326 -0.2874  0.7073
  798MOL0     H 7663   4.500   3.667   5.678 -1.2099  1.4979 -1.1371
  798MOL0     H 7664   4.601   3.612   5.898 -1.1262  0.0587 -0.8445
  798MOL0     H 7665   4.930   3.731   5.941  1.4696  2.7711 -0.2656
  798MOL0     H 7666   4.903   3.893   5.999  0.2072  0.8381  0.6445
  798MOL0     H 7667   4.952   3.640   6.160 -1.3873  0.8789  1.2356
  798MOL0     H 7668   4.940   3.800   6.239 -0.5865  0.1192  0.3851
  798MOL0     H 7669   5.140   3.878   6.096  0.1651 -0.6217 -1.4666
  798MOL0     H 7670   5.154   3.720   6.033 -0.8533 -3.0263  1.3571
  798MOL0     H 7671   5.182   3.792   6.324  3.2146  2.6020  0.0379
  798MOL0     H 7672   5.199   3.625   6.259 -0.2424 -0.0690  2.0648
  798MOL0     H 7673   5.353   3.877   6.187 -2.8943  0.6880 -1.3994
  798MOL0     H 7674   5.419   3.763   6.303  2.1745 -0.5818 -1.0692
  798MOL0     H 7675   5.424   3.579   6.155 -1.6265 -0.8020  0.4164
  798MOL0     H 7676   5.380   3.704   6.019  0.3126  2.2833  0.5990
  798MOL0     H 7677   5.627   3.750   6.198 -0.6119 -3.4585  0.3777
  798MOL0     H 7678   5.587   3.821   6.036  1.8250 -0.0934  0.9658
  798MOL0     H 7679   5.602   3.524   6.055 -2.2768  2.1836 -0.0799
  798MOL0     H 7680   5.652   3.638   5.922  0.5837  3.8110  0.2578
  798MOL0     H 7681   5.912   3.625   5.878  3.9205  1.1927  0.0614
  798MOL0     H 7682   6.175   3.610   5.933  1.7349  0.0654  0.3857
  798MOL0     H 7683   6.196   3.689   6.089 -1.6928 -0.6707  1.0355
  798MOL0     H 7684   6.363   3.526   6.070 -1.0647 -0.2033  2.3706
  798MOL0     H 7685   6.253   3.456   6.190 -1.7316 -0.8582  0.3010
  798MOL0     H 7686   6.327   3.300   5.993  0.3689 -1.7714 -1.3893
  798MOL0     H 7687   6.183   3.385   5.910 -1.2764  0.3395  0.9170
  798MOL0     H 7688   6.044   3.289   6.008  2.1581  1.6639 -0.5558
  798MOL0     H 7689   6.094   3.345   6.165 -1.4843  1.2494 -1.4274
  798MOL0     H 7690   6.259   2.962   6.208 -0.9831 -0.7771  0.2676
  798MOL0     H 7691   6.351   2.765   6.095  0.6601  2.6388  3.8498
  798MOL0     H 7692   6.610   2.620   5.711 -1.3085 -0.3980  0.4046
  798MOL0     H 7693   6.685   2.398   5.602  2.6146  1.2559  2.2315
  798MOL0     H 7694   6.739   2.057   5.753  0.0803  1.2065  1.0581
  798MOL0     H 7695   6.599   2.069   5.846  2.5384  0.5800  0.1497
  798MOL0     H 7696   6.468   1.926   5.698  0.9601 -1.3273  0.8000
  798MOL0     H 7697   6.614   1.916   5.593  0.3382  1.6324 -0.4211
  798MOL0     H 7698   6.721   1.806   5.805 -0.2839  2.2295 -0.5249
  798MOL0     H 7699   6.565   1.792   5.871 -0.4750 -1.5906 -0.3117
  798MOL0     H 7700   6.648   1.676   5.613 -2.1216  1.5703 -1.9987
  798MOL0     H 7701   6.482   1.690   5.672  0.3053  3.7663  2.7858
  798MOL0     H 7702   6.518   1.517   5.839 -1.1689  1.1455  0.3860
  798MOL0     H 7703   6.697   1.566   5.850 -0.3130 -0.6313 -0.7755
  798MOL0     H 7704   6.729   1.448   5.641  0.4349 -0.6802 -0.7287
  798MOL0     H 7705   6.670   1.338   5.766 -1.1591 -1.7728  0.1852
  798MOL0     H 7706   6.497   1.456   5.547  0.2880  1.0597  1.3575
  798MOL0     H 7707   6.452   1.325   5.651  1.1475  0.2595 -0.3839
  798MOL0     H 7708   6.676   1.309   5.449 -2.4897  0.6117 -0.8682
  798MOL0     H 7709   6.657   1.204   5.588  1.1157  3.5250  3.4216
  798MOL0     H 7710   6.389   2.185   5.835 -2.4972  1.1917  0.6430
  798MOL0     H 7711   6.314   2.418   5.917  0.1805  1.1435 -0.6887
  798MOL0     H 7712   6.192   2.928   5.720 -2.4854  2.8116  0.3709
  798MOL0     H 7713   6.127   3.118   5.833  0.7532 -0.4098 -1.0060
  798MOL0     H 7714   4.727   4.008   5.955 -1.9092 -0.8023  1.6314
  798MOL0     H 7715   4.587   4.075   5.765  0.5833 -0.6278 -0.1794
  798MOL0     H 7716   4.364   4.130   5.471 -2.5064  1.6384  0.0005
  798MOL0     H 7717   4.289   4.253   5.278  1.7829  0.6621 -2.4909
  798MOL0     H 7718   4.314   3.997   4.938 -1.3918 -2.1367 -1.3553
  798MOL0     H 7719   4.324   4.171   4.893  0.1967  0.2528  1.3550
  798MOL0     H 7720   4.063   4.020   4.884  1.2598 -2.2403  1.0642
  798MOL0     H 7721   4.174   4.005   4.753  1.2472 -2.2481  2.1330
  798MOL0     H 7722   4.034   4.174   4.674  1.4285  1.9556 -0.7762
  798MOL0     H 7723   4.170   4.262   4.728  3.4594 -2.2631  1.0499
  798MOL0     H 7724   3.927   4.195   4.903 -0.0591 -0.9455 -1.3030
  798MOL0     H 7725   4.029   4.337   4.939 -0.2912 -0.6748 -0.4810
  798MOL0     H 7726   3.779   4.502   4.641  1.7849  0.0894 -1.3846
  798MOL0     H 7727   4.195   3.880   5.085  0.6926 -1.1987 -0.6473
  798MOL0     H 7728   4.349   3.662   5.312  0.6070 -1.2705  0.3877
  798MOL0     H 7729   4.171   3.681   5.303  2.4224 -2.2879  2.5904
  798MOL0     H 7730   4.281   3.692   5.157  0.1243 -1.6191  0.8433
  799MOL0     O 7731  10.009   6.016   8.983 -0.0677  0.3908 -0.8974
  799MOL0     C 7732   9.969   5.899   8.974  0.8083 -0.1104 -0.3767
  799MOL0     O 7733   9.854   5.862   8.921 -0.1974 -0.0529 -0.2041
  799MOL0     C 7734   9.759   5.956   8.900  0.2670 -0.1507 -0.5306
  799MOL0     C 7735   9.663   5.957   8.997  0.0718  0.0581  0.2030
  799MOL0     C 7736   9.563   6.052   8.991  0.1262 -0.0369  0.7293
  799MOL0     C 7737   9.554   6.149   8.888 -0.5829  0.6103 -0.2781
  799MOL0     O 7738   9.457   6.231   8.871 -0.1786 -0.7631  0.3539
  799MOL0     C 7739   9.321   6.186   8.890  0.1335 -0.6956 -0.5049
  799MOL0     C 7740   9.218   6.290   8.851  0.3261 -0.1337 -0.0963
  799MOL0     C 7741   9.218   6.326   8.705 -0.1108 -0.2030  0.4426
  799MOL0     C 7742   9.082   6.357   8.650 -0.5740  0.5836 -0.1577
  799MOL0     C 7743   9.021   6.466   8.721 -0.7032  0.9963 -0.1421
  799MOL0     C 7744   8.875   6.488   8.676  0.4557  0.0766  0.1523
  799MOL0     C 7745   8.771   6.417   8.765  0.1704 -0.3215  0.1373
  799MOL0     C 7746   8.625   6.469   8.745 -0.1329 -0.1069  0.6202
  799MOL0     N 7747   8.534   6.439   8.859 -0.7006  0.6834 -0.4762
  799MOL0     C 7748   8.473   6.323   8.905 -0.9481 -0.1957  0.1644
  799MOL0     C 7749   8.411   6.356   9.021 -0.3078  0.1175  0.7352
  799MOL0     C 7750   8.323   6.264   9.093  0.5573  0.0524 -0.3364
  799MOL0     C 7751   8.179   6.256   9.031 -0.8047 -1.0073  0.0911
  799MOL0     C 7752   8.107   6.144   9.107 -1.2570  0.4896 -0.1955
  799MOL0     C 7753   7.967   6.125   9.042  0.6293 -0.2081 -0.0028
  799MOL0     O 7754   7.960   5.986   8.995  0.2602 -0.1879  0.9230
  799MOL0     C 7755   7.853   5.938   8.920  0.2182 -0.2775  0.5483
  799MOL0     C 7756   7.843   5.808   8.885 -0.1608  0.5468 -0.5100
  799MOL0     C 7757   7.745   5.758   8.797 -0.4250  1.0847  0.6021
  799MOL0     C 7758   7.649   5.843   8.734 -0.2566  0.6677 -1.2945
  799MOL0     C 7759   7.540   5.784   8.658  0.8264  0.5289 -0.3395
  799MOL0     O 7760   7.443   5.868   8.617 -0.2560  0.2490 -0.1184
  799MOL0     C 7761   7.340   5.810   8.547  0.8907 -0.0156 -0.7812
  799MOL0     C 7762   7.220   5.753   8.607 -0.8917  0.5057 -0.4126
  799MOL0     C 7763   7.102   5.706   8.543 -0.1013 -0.3466  0.5283
  799MOL0     C 7764   7.122   5.691   8.405  1.0721 -0.0708  0.8480
  799MOL0     O 7765   7.023   5.625   8.324 -0.1868  0.3874  0.1499
  799MOL0     C 7766   6.986   5.489   8.358 -0.7436 -0.1470 -0.4357
  799MOL0     C 7767   6.884   5.448   8.258  0.7626  0.6436  0.4932
  799MOL0     C 7768   6.873   5.292   8.291 -0.0970 -0.6582  0.4590
  799MOL0     C 7769   6.738   5.221   8.236  0.4350 -0.0315 -0.0711
  799MOL0     C 7770   6.606   5.280   8.280  0.0544 -0.5439 -0.1826
  799MOL0     C 7771   6.494   5.196   8.221  0.5317 -0.9430 -0.4911
  799MOL0     C 7772   6.372   5.290   8.194 -0.7766  0.2671 -0.6825
  799MOL0     C 7773   6.244   5.209   8.166  0.2428  0.1250  0.2909
  799MOL0    Cl 7774   6.280   5.081   8.050 -0.0197  0.1812  0.1286
  799MOL0     C 7775   7.237   5.745   8.345  0.4471 -0.6997  0.2124
  799MOL0     C 7776   7.349   5.799   8.415 -0.2756 -0.3211  0.1553
  799MOL0     O 7777   7.546   5.664   8.635 -0.0090  0.0029 -0.1622
  799MOL0     C 7778   7.660   5.976   8.767  0.1079  0.6072 -0.1138
  799MOL0     C 7779   7.756   6.022   8.854 -0.2953 -0.1555  0.1278
  799MOL0     N 7780   8.423   6.492   9.037  0.3200 -0.1191  0.1878
  799MOL0     N 7781   8.492   6.538   8.949 -0.2111  0.1148  1.2525
  799MOL0     C 7782   9.658   6.153   8.799  0.0165  0.4600 -0.2435
  799MOL0     C 7783   9.760   6.055   8.803  0.5791 -0.3073 -0.0555
  799MOL0     C 7784  10.057   5.790   9.021 -0.3390  0.7247  0.4907
  799MOL0     C 7785  10.032   5.667   8.948 -0.0472  0.5550  0.4945
  799MOL0     C 7786  10.104   5.551   8.976  0.3900  0.0510 -0.3707
  799MOL0     C 7787  10.195   5.542   9.073  0.2678 -0.6028  0.0752
  799MOL0     O 7788  10.245   5.420   9.097 -0.2772  0.1035  0.1162
  799MOL0     C 7789  10.325   5.414   9.218  0.5396  0.8183 -0.3635
  799MOL0     C 7790  10.468   5.410   9.172  0.4794 -0.0185  0.0286
  799MOL0     C 7791  10.561   5.355   9.278  0.1497  0.0574  0.2228
  799MOL0     C 7792  10.701   5.361   9.230 -0.7757 -0.1090 -0.2058
  799MOL0     C 7793  10.778   5.479   9.291  0.6274  0.2344  0.2102
  799MOL0     C 7794  10.856   5.561   9.344 -0.3290  0.5205  0.2127
  799MOL0     C 7795  10.219   5.663   9.150  0.7814  0.0058 -0.3483
  799MOL0     C 7796  10.149   5.794   9.123 -0.5072  0.3030  0.8261
  799MOL0     C 7797  10.188   5.921   9.199 -0.7918  0.3046  0.3218
  799MOL0     H 7798   9.658   5.879   9.072 -2.3485  0.6399  0.7280
  799MOL0     H 7799   9.490   6.063   9.071  1.1403  1.0655  1.5305
  799MOL0     H 7800   9.310   6.096   8.829  0.4904  0.1321 -1.8292
  799MOL0     H 7801   9.316   6.151   8.994  0.2568  2.4666  0.6805
  799MOL0     H 7802   9.232   6.382   8.909  3.5352 -0.3278 -0.3668
  799MOL0     H 7803   9.120   6.255   8.884 -0.9330  3.2688  0.2112
  799MOL0     H 7804   9.257   6.255   8.631 -0.3291  3.3999 -3.5481
  799MOL0     H 7805   9.271   6.420   8.689 -2.1282  0.7411 -1.1154
  799MOL0     H 7806   9.077   6.377   8.543  0.1326 -2.0062 -0.7496
  799MOL0     H 7807   9.014   6.271   8.660 -3.0727  2.5789  1.4207
  799MOL0     H 7808   9.028   6.454   8.829  1.3090  3.6079  0.1130
  799MOL0     H 7809   9.091   6.547   8.699  1.8288 -0.8149  0.8272
  799MOL0     H 7810   8.848   6.594   8.676 -0.4623 -0.1451  0.7800
  799MOL0     H 7811   8.866   6.455   8.572  0.4777  2.8463 -0.8134
  799MOL0     H 7812   8.789   6.449   8.868 -1.6041 -1.8352  0.9880
  799MOL0     H 7813   8.772   6.308   8.756  0.6845 -0.3066 -0.0110
  799MOL0     H 7814   8.623   6.579   8.744 -0.1715 -0.0445  3.0175
  799MOL0     H 7815   8.578   6.426   8.656 -0.3229 -1.0628  1.1763
  799MOL0     H 7816   8.475   6.229   8.851  0.1590  0.2205 -0.5638
  799MOL0     H 7817   8.363   6.166   9.118 -0.0325 -0.1005  0.0162
  799MOL0     H 7818   8.317   6.319   9.187  3.2253  1.0475 -0.6767
  799MOL0     H 7819   8.122   6.347   9.048 -0.5662 -1.0426  1.0980
  799MOL0     H 7820   8.194   6.239   8.924  1.4824  0.8466  0.0312
  799MOL0     H 7821   8.119   6.154   9.215 -1.1594 -0.3016 -0.1264
  799MOL0     H 7822   8.160   6.051   9.087  1.4435  1.9706 -0.4187
  799MOL0     H 7823   7.944   6.201   8.967 -0.0610 -0.2125  0.1981
  799MOL0     H 7824   7.890   6.148   9.116 -1.0912 -3.8459 -0.4668
  799MOL0     H 7825   7.920   5.746   8.930 -2.4022 -0.1101  2.7934
  799MOL0     H 7826   7.737   5.654   8.766 -0.6892  0.9572  1.0887
  799MOL0     H 7827   7.231   5.754   8.715 -0.3623 -2.7755 -0.3483
  799MOL0     H 7828   7.021   5.654   8.593 -1.1170  0.6940  0.0250
  799MOL0     H 7829   7.079   5.436   8.335  1.8168  2.8883  1.9971
  799MOL0     H 7830   6.960   5.485   8.464  0.3917 -1.4279 -0.1770
  799MOL0     H 7831   6.791   5.505   8.257  0.9314  1.0079 -2.2075
  799MOL0     H 7832   6.932   5.465   8.162 -0.0135  1.5221  0.2507
  799MOL0     H 7833   6.957   5.238   8.246  0.6900 -2.1500  3.4226
  799MOL0     H 7834   6.879   5.276   8.399 -2.6584  1.1172  0.9405
  799MOL0     H 7835   6.754   5.116   8.265  1.5052 -0.1636 -1.0784
  799MOL0     H 7836   6.736   5.220   8.127 -0.4560  1.6531 -0.0968
  799MOL0     H 7837   6.605   5.382   8.240  1.5801 -0.9907 -1.4822
  799MOL0     H 7838   6.610   5.280   8.389  0.6065 -0.7524 -0.2002
  799MOL0     H 7839   6.521   5.158   8.122  0.1800 -0.8498 -0.6237
  799MOL0     H 7840   6.465   5.121   8.295 -0.0772  0.3961  0.6847
  799MOL0     H 7841   6.394   5.353   8.108  2.1318 -0.4252 -0.5552
  799MOL0     H 7842   6.365   5.353   8.283  0.1150  0.6666 -0.8850
  799MOL0     H 7843   6.208   5.155   8.254  0.6136 -2.9625 -1.3013
  799MOL0     H 7844   6.157   5.263   8.127 -1.3127 -2.9853 -0.8886
  799MOL0     H 7845   7.253   5.730   8.239  0.1861 -0.8403  0.1920
  799MOL0     H 7846   7.435   5.832   8.357 -1.1103  0.3145 -0.7627
  799MOL0     H 7847   7.585   6.042   8.725 -1.5011 -1.2562 -0.2737
  799MOL0     H 7848   7.759   6.130   8.865 -0.7658 -0.0362 -0.8002
  799MOL0     H 7849   9.648   6.236   8.729 -1.0324  1.8272  1.4449
  799MOL0     H 7850   9.852   6.053   8.745  1.7764 -3.5659  1.6951
  799MOL0     H 7851   9.970   5.641   8.864  2.2844 -3.9047 -0.1882
  799MOL0     H 7852  10.075   5.459   8.926 -0.1683 -0.0410  0.1094
  799MOL0     H 7853  10.289   5.319   9.258  1.2813  0.3181 -0.8781
  799MOL0     H 7854  10.314   5.485   9.300 -2.7410 -0.6797  0.6890
  799MOL0     H 7855  10.490   5.509   9.130 -2.1100 -0.6222 -3.1025
  799MOL0     H 7856  10.486   5.356   9.079  0.8751  2.1906 -1.2387
  799MOL0     H 7857  10.542   5.247   9.284  3.3039 -0.8195 -2.4776
  799MOL0     H 7858  10.553   5.407   9.374  2.5342 -0.0235  0.5293
  799MOL0     H 7859  10.754   5.265   9.237 -0.3209  0.1278 -0.3383
  799MOL0     H 7860  10.719   5.385   9.125  5.9287 -0.5565  0.4007
  799MOL0     H 7861  10.933   5.623   9.385  2.2856 -3.3082  1.6659
  799MOL0     H 7862  10.285   5.669   9.236 -0.7765  0.3998  0.8501
  799MOL0     H 7863  10.277   5.907   9.262 -0.3125 -2.6393 -0.8305
  799MOL0     H 7864  10.205   5.988   9.114 -3.6841 -1.2633 -1.6726
  799MOL0     H 7865  10.103   5.959   9.256 -1.5116 -2.5471  1.3227
  800MOL0     O 7866   9.810   1.974   0.986  0.7036 -0.9668 -0.4128
  800MOL0     C 7867   9.880   2.027   0.906 -0.8728 -0.5215 -0.2101
  800MOL0     O 7868   9.833   2.091   0.791 -0.0424 -0.3294 -0.3219
  800MOL0     C 7869   9.692   2.097   0.795 -0.1377 -0.1944  0.0941
  800MOL0     C 7870   9.617   1.983   0.744  0.0911 -0.3566  0.1573
  800MOL0     C 7871   9.475   1.971   0.777 -0.3333 -0.3206  0.3759
  800MOL0     C 7872   9.414   2.074   0.845 -0.9443  0.1720  0.5686
  800MOL0     O 7873   9.278   2.080   0.879 -0.7004  0.1234  0.2544
  800MOL0     C 7874   9.181   2.023   0.780 -0.2950  0.4082  0.3975
  800MOL0     C 7875   9.130   1.887   0.820  0.5621  0.2341 -0.6582
  800MOL0     C 7876   9.027   1.856   0.718 -0.8700  0.4844  0.7274
  800MOL0     C 7877   9.094   1.780   0.594  0.9709  0.5010  0.4683
  800MOL0     C 7878   8.983   1.746   0.491  0.1569  0.1680 -0.3935
  800MOL0     C 7879   9.047   1.656   0.382  0.8867 -0.9049  0.0284
  800MOL0     C 7880   8.964   1.649   0.245 -0.0938  0.2048 -0.0530
  800MOL0     C 7881   9.045   1.594   0.132  0.1813 -0.3564 -0.1197
  800MOL0     N 7882   9.000   1.653   0.001  1.3648  0.0216  0.5819
  800MOL0     C 7883   9.078   1.717  -0.092  0.3072  0.4374  0.4274
  800MOL0     C 7884   9.004   1.718  -0.206  0.8225 -0.1969  0.1665
  800MOL0     C 7885   9.035   1.788  -0.335 -0.3675  1.0960 -0.2181
  800MOL0     C 7886   9.084   1.929  -0.314  0.3596  1.6043 -0.3031
  800MOL0     C 7887   9.116   1.998  -0.448 -1.1232 -0.0453 -0.9927
  800MOL0     C 7888   9.021   1.991  -0.563 -0.1821  0.4435  0.0191
  800MOL0     O 7889   9.033   1.870  -0.640 -0.2175 -0.5322 -0.5557
  800MOL0     C 7890   8.924   1.818  -0.708 -0.9681  0.1514  0.2999
  800MOL0     C 7891   8.936   1.689  -0.772 -1.0958  0.2610 -0.2856
  800MOL0     C 7892   8.838   1.631  -0.850 -0.4452  0.2551 -0.0798
  800MOL0     C 7893   8.720   1.704  -0.875  0.9355  0.1017  0.0079
  800MOL0     C 7894   8.623   1.646  -0.975  0.3202 -1.0344 -0.5644
  800MOL0     O 7895   8.638   1.508  -1.006 -0.1901 -0.4314  0.1673
  800MOL0     C 7896   8.571   1.455  -1.117 -0.5926 -0.4933 -0.6052
  800MOL0     C 7897   8.513   1.331  -1.095  0.0249 -0.8230  0.4522
  800MOL0     C 7898   8.437   1.283  -1.195 -0.0101  0.6153 -0.3310
  800MOL0     C 7899   8.416   1.350  -1.317 -0.0039  0.8972  0.4119
  800MOL0     O 7900   8.349   1.267  -1.404 -0.3008 -0.0280  0.5271
  800MOL0     C 7901   8.284   1.308  -1.520  0.6943  0.7848  1.0115
  800MOL0     C 7902   8.277   1.196  -1.629 -0.0673  0.4313 -0.0731
  800MOL0     C 7903   8.421   1.177  -1.687  0.7759 -0.1340 -0.3587
  800MOL0     C 7904   8.412   1.091  -1.810  0.7100  1.0960 -0.1001
  800MOL0     C 7905   8.550   1.027  -1.854 -0.3356 -0.2934 -0.0491
  800MOL0     C 7906   8.631   1.112  -1.957  0.0827 -0.0178  0.2707
  800MOL0     C 7907   8.755   1.025  -2.010  0.1479 -0.2671  0.1200
  800MOL0     C 7908   8.853   1.123  -2.043 -0.7931  0.4778 -0.3821
  800MOL0    Cl 7909   8.803   1.227  -2.182 -0.0308 -0.0673  0.2448
  800MOL0     C 7910   8.479   1.469  -1.335  0.6346 -0.1330 -0.3065
  800MOL0     C 7911   8.557   1.523  -1.239  0.0012 -0.5887 -0.3283
  800MOL0     O 7912   8.535   1.723  -1.020 -0.6816  0.9301 -0.2306
  800MOL0     C 7913   8.696   1.825  -0.804 -0.1057 -0.3335 -0.5755
  800MOL0     C 7914   8.799   1.879  -0.728 -0.3779  0.7025 -0.6689
  800MOL0     N 7915   8.883   1.658  -0.176 -0.0578 -1.0526 -0.1824
  800MOL0     N 7916   8.880   1.622  -0.055  0.6601 -0.1333  0.0139
  800MOL0     C 7917   9.488   2.182   0.886  0.9092 -0.3755 -0.3174
  800MOL0     C 7918   9.624   2.193   0.862 -0.5484  0.1197 -0.6914
  800MOL0     C 7919  10.025   2.045   0.936  0.2830 -0.5625 -0.1597
  800MOL0     C 7920  10.104   2.128   0.858 -1.3070  1.0653  0.0779
  800MOL0     C 7921  10.234   2.165   0.888 -0.3501  0.4250 -1.1231
  800MOL0     C 7922  10.302   2.102   1.005 -0.5866 -0.0775 -0.2048
  800MOL0     O 7923  10.438   2.129   1.027 -0.6864  0.4536  0.0488
  800MOL0     C 7924  10.521   2.186   0.932  0.1913  0.3303  0.4000
  800MOL0     C 7925  10.503   2.340   0.934 -0.2553  0.5872  0.1234
  800MOL0     C 7926  10.600   2.431   0.850 -0.1558  0.4940 -0.2802
  800MOL0     C 7927  10.563   2.577   0.882  0.5835  0.8131 -0.5742
  800MOL0     C 7928  10.598   2.616   1.020 -1.1777  0.3505  0.4166
  800MOL0     C 7929  10.613   2.634   1.133 -0.9850  0.3117  0.0163
  800MOL0     C 7930  10.229   2.008   1.081 -1.2670  0.0700  0.9399
  800MOL0     C 7931  10.094   1.996   1.053  0.3418 -0.0270 -0.4203
  800MOL0     C 7932  10.030   1.906   1.163  0.6582  0.2700 -0.3306
  800MOL0     H 7933   9.668   1.908   0.684 -0.6873 -1.5352  0.9182
  800MOL0     H 7934   9.421   1.888   0.734 -0.7389  0.9351 -1.6794
  800MOL0     H 7935   9.099   2.094   0.787  2.4139  4.1158 -1.8775
  800MOL0     H 7936   9.225   2.015   0.680 -1.8346  0.3112 -0.2866
  800MOL0     H 7937   9.088   1.895   0.921 -0.1117  2.3912 -1.0604
  800MOL0     H 7938   9.193   1.797   0.829  2.1771  1.5021  2.1715
  800MOL0     H 7939   8.975   1.945   0.681  1.8682  1.3521 -1.2973
  800MOL0     H 7940   8.954   1.785   0.756  2.3247 -3.2225  0.5188
  800MOL0     H 7941   9.172   1.846   0.555  2.7378 -1.0116  1.2696
  800MOL0     H 7942   9.140   1.687   0.629  2.0288  0.6817 -0.3833
  800MOL0     H 7943   8.910   1.682   0.542  1.7091 -2.3169 -1.0604
  800MOL0     H 7944   8.952   1.842   0.451  2.0259 -1.0265 -5.4614
  800MOL0     H 7945   9.152   1.683   0.370  0.1957  2.8423  1.2386
  800MOL0     H 7946   9.058   1.554   0.422  0.6574 -1.5363 -1.4820
  800MOL0     H 7947   8.934   1.749   0.215 -2.4075 -0.9002 -1.7090
  800MOL0     H 7948   8.881   1.580   0.262 -1.0951  0.7206 -2.4682
  800MOL0     H 7949   9.144   1.640   0.146 -0.3630  0.2120  2.2390
  800MOL0     H 7950   9.054   1.485   0.134 -0.2533 -0.3765  1.4326
  800MOL0     H 7951   9.176   1.760  -0.074  0.4771  0.2279  0.0220
  800MOL0     H 7952   9.112   1.723  -0.378 -1.7864  0.5151 -1.9750
  800MOL0     H 7953   8.945   1.778  -0.396 -2.7274  1.6458  2.9016
  800MOL0     H 7954   9.000   1.981  -0.266 -0.7824  2.1816 -2.7267
  800MOL0     H 7955   9.163   1.926  -0.239  1.1217 -0.5152 -1.1335
  800MOL0     H 7956   9.206   1.956  -0.493 -0.5599  1.7212 -1.6049
  800MOL0     H 7957   9.138   2.103  -0.427  2.4179 -0.6306 -1.1749
  800MOL0     H 7958   9.042   2.072  -0.634  1.8117  0.7666  0.9058
  800MOL0     H 7959   8.922   2.006  -0.519 -0.3546  0.7962 -0.4796
  800MOL0     H 7960   9.031   1.636  -0.767 -1.9786 -1.3229  0.2886
  800MOL0     H 7961   8.852   1.533  -0.895  0.9013  0.5660 -0.3752
  800MOL0     H 7962   8.524   1.290  -0.995 -3.6184 -1.5969  0.6634
  800MOL0     H 7963   8.386   1.189  -1.178 -1.0668  1.5536  2.3397
  800MOL0     H 7964   8.185   1.352  -1.504  0.2701  1.6180 -2.8132
  800MOL0     H 7965   8.347   1.387  -1.564  0.7145  0.4289  0.3909
  800MOL0     H 7966   8.257   1.102  -1.575  0.6537  1.9326  3.0532
  800MOL0     H 7967   8.203   1.213  -1.708  0.8483  0.2370 -0.9975
  800MOL0     H 7968   8.466   1.273  -1.713 -3.4058  1.8358 -1.1369
  800MOL0     H 7969   8.486   1.118  -1.622 -1.4062 -0.6429  1.4721
  800MOL0     H 7970   8.371   1.144  -1.896 -1.5775  0.3105  0.4505
  800MOL0     H 7971   8.343   1.008  -1.792 -0.3990  1.6673 -1.5401
  800MOL0     H 7972   8.525   0.933  -1.904  3.0400 -0.0233 -2.6619
  800MOL0     H 7973   8.612   1.003  -1.767 -1.5900  0.7458  1.1769
  800MOL0     H 7974   8.570   1.155  -2.036 -0.3307  0.8237  1.0274
  800MOL0     H 7975   8.676   1.198  -1.907  2.8412  0.3768 -2.6043
  800MOL0     H 7976   8.729   0.967  -2.099  0.7734  1.2704 -1.1083
  800MOL0     H 7977   8.784   0.963  -1.925  3.4747  1.4227  0.3753
  800MOL0     H 7978   8.891   1.179  -1.957 -0.8312  0.6390 -0.4691
  800MOL0     H 7979   8.942   1.074  -2.084 -1.3623  1.2804 -2.7835
  800MOL0     H 7980   8.464   1.525  -1.427 -1.2979 -2.9022 -1.8587
  800MOL0     H 7981   8.597   1.623  -1.255 -3.1771  0.8836  0.1039
  800MOL0     H 7982   8.608   1.887  -0.813  0.3628  0.2554 -1.2152
  800MOL0     H 7983   8.779   1.976  -0.684 -2.4801 -1.0142  2.5742
  800MOL0     H 7984   9.425   2.257   0.932 -3.5640 -3.4675 -0.8110
  800MOL0     H 7985   9.677   2.280   0.899 -1.7430  0.9463 -0.8651
  800MOL0     H 7986  10.069   2.166   0.762 -0.6861  0.4024 -0.4302
  800MOL0     H 7987  10.269   2.229   0.808 -4.2701  1.9588 -1.8070
  800MOL0     H 7988  10.496   2.148   0.833 -0.2287  2.6413 -0.4339
  800MOL0     H 7989  10.620   2.159   0.971  0.6429  3.2621  1.5505
  800MOL0     H 7990  10.528   2.354   1.039 -3.2918 -0.8960  1.1653
  800MOL0     H 7991  10.399   2.362   0.908  0.2012 -0.5925 -3.1345
  800MOL0     H 7992  10.590   2.413   0.743  0.5253 -0.1752 -0.2345
  800MOL0     H 7993  10.701   2.412   0.886 -0.8308  0.3481  1.6594
  800MOL0     H 7994  10.611   2.647   0.814  2.4487 -0.0013 -0.1702
  800MOL0     H 7995  10.455   2.593   0.881 -0.1610 -2.7226  2.6769
  800MOL0     H 7996  10.633   2.657   1.236 -0.3121 -0.0227 -0.0307
  800MOL0     H 7997  10.280   1.945   1.154 -1.9778 -2.4036 -0.5577
  800MOL0     H 7998  10.087   1.901   1.256 -1.3729 -4.4719  0.9992
  800MOL0     H 7999   9.931   1.944   1.190  1.6119  1.8853  1.0354
  800MOL0     H 8000  10.027   1.801   1.130  0.1494 -0.1233  0.8949
  801MOL0     O 8001   5.062   7.954   2.251  0.2381  0.2781 -0.2346
  801MOL0     C 8002   5.033   7.850   2.315 -0.7065  0.2638 -1.0610
  801MOL0     O 8003   5.069   7.816   2.448  0.2441  0.4385  0.1427
  801MOL0     C 8004   5.165   7.883   2.510  0.6813 -1.4456 -1.2189
  801MOL0     C 8005   5.278   7.935   2.454  0.2336 -0.5625 -0.0682
  801MOL0     C 8006   5.369   8.023   2.518 -0.3936 -0.6156  1.2515
  801MOL0     C 8007   5.348   8.049   2.644 -0.2863  0.0194  0.1269
  801MOL0     O 8008   5.421   8.144   2.700 -0.6390  1.1660  0.4888
  801MOL0     C 8009   5.512   8.096   2.802 -1.6892  0.1370  0.1951
  801MOL0     C 8010   5.531   8.203   2.901  0.5638 -0.9810 -0.0560
  801MOL0     C 8011   5.571   8.186   3.043  1.2315  0.2636  0.2044
  801MOL0     C 8012   5.480   8.111   3.140  0.6639  0.3261 -0.6075
  801MOL0     C 8013   5.332   8.120   3.138  0.6891  0.1524  0.5551
  801MOL0     C 8014   5.263   8.003   3.209 -0.1886  1.3163 -0.0548
  801MOL0     C 8015   5.317   7.967   3.351  0.5386  0.4468  0.3592
  801MOL0     C 8016   5.320   8.078   3.456  1.3172 -0.6938  0.3373
  801MOL0     N 8017   5.388   8.051   3.582 -0.1745  0.1005  0.0275
  801MOL0     C 8018   5.360   7.945   3.658 -0.8321  0.0055 -0.1592
  801MOL0     C 8019   5.468   7.934   3.740 -0.5372  0.3574 -0.4910
  801MOL0     C 8020   5.474   7.853   3.866  0.3943  0.8308  0.1117
  801MOL0     C 8021   5.559   7.735   3.872 -0.3448  0.0949 -0.5805
  801MOL0     C 8022   5.713   7.759   3.880  0.7242  0.1985 -0.0982
  801MOL0     C 8023   5.789   7.619   3.883  0.3265 -0.6459 -0.8660
  801MOL0     O 8024   5.932   7.637   3.895  0.4592  0.4514 -0.0789
  801MOL0     C 8025   6.025   7.537   3.865  0.0834  0.3117 -0.3281
  801MOL0     C 8026   5.988   7.413   3.803  0.4475  0.1250 -0.2314
  801MOL0     C 8027   6.091   7.336   3.745 -1.0710 -0.1884 -1.2219
  801MOL0     C 8028   6.231   7.361   3.767  0.4618 -0.4210  0.9824
  801MOL0     C 8029   6.331   7.258   3.711 -0.2949  0.3853  0.1419
  801MOL0     O 8030   6.451   7.280   3.764  0.1876 -0.4026 -0.6591
  801MOL0     C 8031   6.563   7.209   3.730 -0.1926 -0.3142 -0.7033
  801MOL0     C 8032   6.615   7.208   3.603  0.9601  0.7024 -0.3773
  801MOL0     C 8033   6.730   7.132   3.583 -0.8761 -0.2869 -0.0193
  801MOL0     C 8034   6.793   7.060   3.684  0.7015  0.0935 -0.8061
  801MOL0     O 8035   6.907   6.998   3.645  0.0742  0.2595  0.1588
  801MOL0     C 8036   6.987   6.942   3.752 -0.7250 -0.3535  0.2248
  801MOL0     C 8037   7.125   6.889   3.700  0.0950 -0.2329  0.1130
  801MOL0     C 8038   7.135   6.838   3.552  0.4103 -0.5159 -1.2620
  801MOL0     C 8039   7.230   6.715   3.536 -0.6575  0.3881  0.1644
  801MOL0     C 8040   7.146   6.577   3.541  0.2834  0.6104 -0.7324
  801MOL0     C 8041   7.228   6.447   3.547 -0.3222  0.1453 -0.1667
  801MOL0     C 8042   7.290   6.415   3.412 -0.9065  1.1116 -0.1868
  801MOL0     C 8043   7.385   6.299   3.414  0.0020  0.6087 -0.2891
  801MOL0    Cl 8044   7.278   6.151   3.428  0.3654 -0.4683  0.3193
  801MOL0     C 8045   6.735   7.058   3.812  0.2059  0.5180  0.3015
  801MOL0     C 8046   6.618   7.125   3.837 -0.0263 -0.0572 -0.6132
  801MOL0     O 8047   6.296   7.171   3.630  0.1025  0.3559  0.4270
  801MOL0     C 8048   6.257   7.485   3.832 -0.0121 -0.3756  0.3931
  801MOL0     C 8049   6.158   7.569   3.882 -0.4440  0.0596  0.3174
  801MOL0     N 8050   5.557   8.031   3.701 -0.4903  0.0233  0.7351
  801MOL0     N 8051   5.514   8.090   3.595  0.1117  0.0916 -0.4980
  801MOL0     C 8052   5.233   8.005   2.703 -0.1483 -0.3448  0.5650
  801MOL0     C 8053   5.138   7.924   2.640 -0.0397  0.4165  0.8929
  801MOL0     C 8054   4.950   7.745   2.256 -0.0071  0.0016 -0.1993
  801MOL0     C 8055   4.878   7.658   2.333  0.3171  0.7814 -0.1285
  801MOL0     C 8056   4.814   7.547   2.276 -0.1980 -0.3491 -0.0911
  801MOL0     C 8057   4.826   7.513   2.142  0.2891  0.0816 -0.0936
  801MOL0     O 8058   4.760   7.404   2.096 -0.0709  0.2321  0.3342
  801MOL0     C 8059   4.863   7.311   2.039 -0.3986 -0.1117  0.1242
  801MOL0     C 8060   4.797   7.169   2.004 -0.5193 -0.0649  0.8949
  801MOL0     C 8061   4.736   7.156   1.864 -0.5095 -0.6239 -0.1009
  801MOL0     C 8062   4.683   7.009   1.845 -0.0461  0.3092 -0.1735
  801MOL0     C 8063   4.624   6.995   1.716 -0.1753 -1.3080  0.4046
  801MOL0     C 8064   4.588   6.983   1.601 -1.1557 -0.5930 -0.1055
  801MOL0     C 8065   4.898   7.602   2.063  0.1053  0.6770 -0.1752
  801MOL0     C 8066   4.961   7.710   2.113  0.6741 -0.2438  0.0032
  801MOL0     C 8067   5.027   7.801   2.006 -1.0440  0.0768 -0.3007
  801MOL0     H 8068   5.300   7.914   2.350 -0.7951  1.0665 -0.6330
  801MOL0     H 8069   5.446   8.063   2.453 -0.4521  1.4069  2.3255
  801MOL0     H 8070   5.477   8.009   2.857  0.9032 -2.0222 -1.3354
  801MOL0     H 8071   5.611   8.081   2.758 -1.3772  3.3443 -0.4526
  801MOL0     H 8072   5.431   8.245   2.913  0.9508 -0.3846  1.2451
  801MOL0     H 8073   5.606   8.268   2.853 -0.4738 -1.0940 -1.9457
  801MOL0     H 8074   5.584   8.287   3.081 -1.4883  0.0311  2.0822
  801MOL0     H 8075   5.671   8.142   3.051  1.1705  0.1236  0.2104
  801MOL0     H 8076   5.498   8.007   3.111  0.5053  0.0623  0.2065
  801MOL0     H 8077   5.512   8.137   3.241 -0.4398  0.1985 -0.2029
  801MOL0     H 8078   5.298   8.213   3.186 -3.9927 -0.7545 -0.5272
  801MOL0     H 8079   5.283   8.118   3.041 -3.3224  1.9546  2.2888
  801MOL0     H 8080   5.156   8.026   3.204 -0.7341 -0.3240  2.3893
  801MOL0     H 8081   5.272   7.912   3.149 -3.2046 -0.4189  1.8676
  801MOL0     H 8082   5.423   7.945   3.340  0.5461  1.2006 -1.3766
  801MOL0     H 8083   5.259   7.881   3.387  0.4111 -0.5111 -1.9187
  801MOL0     H 8084   5.368   8.166   3.412 -1.9640 -0.1305 -2.5836
  801MOL0     H 8085   5.218   8.108   3.481  0.1027 -3.5516 -0.7728
  801MOL0     H 8086   5.270   7.884   3.657 -0.3513 -0.7315  0.5794
  801MOL0     H 8087   5.509   7.923   3.942 -0.0612 -3.4546  4.8048
  801MOL0     H 8088   5.370   7.828   3.890 -0.2220  3.3652  0.4481
  801MOL0     H 8089   5.517   7.664   3.944 -2.7331  3.1967  1.3658
  801MOL0     H 8090   5.548   7.689   3.773 -0.5608 -0.6290 -0.2324
  801MOL0     H 8091   5.724   7.813   3.975  0.4197 -2.0037  1.2664
  801MOL0     H 8092   5.753   7.824   3.802 -2.2058  0.8466 -1.1955
  801MOL0     H 8093   5.769   7.570   3.787  0.7125 -0.6588 -0.9397
  801MOL0     H 8094   5.747   7.561   3.965 -1.7086 -1.1235 -2.1624
  801MOL0     H 8095   5.886   7.396   3.771  0.5883  0.0455 -0.6376
  801MOL0     H 8096   6.058   7.244   3.697 -1.6136  0.6803 -2.5710
  801MOL0     H 8097   6.561   7.259   3.524 -0.8716  0.2298  0.5130
  801MOL0     H 8098   6.787   7.123   3.491 -2.8534 -0.6211 -1.2525
  801MOL0     H 8099   7.017   7.020   3.822 -1.8098  0.6805 -0.4238
  801MOL0     H 8100   6.931   6.867   3.809  0.1393 -0.9396  0.3182
  801MOL0     H 8101   7.197   6.970   3.709 -0.5759  0.3371  0.4532
  801MOL0     H 8102   7.159   6.809   3.767 -2.3396  1.1083  3.2250
  801MOL0     H 8103   7.033   6.819   3.517 -0.6853 -2.6297  2.4573
  801MOL0     H 8104   7.185   6.918   3.497 -0.8375  1.4424  0.3223
  801MOL0     H 8105   7.310   6.721   3.611 -0.8793  0.4366  0.3950
  801MOL0     H 8106   7.281   6.719   3.439 -0.9782  1.5953  0.0411
  801MOL0     H 8107   7.086   6.581   3.450  0.0208  1.4492 -0.5321
  801MOL0     H 8108   7.080   6.575   3.628  4.9240  2.8038  3.3179
  801MOL0     H 8109   7.302   6.454   3.627 -0.7047 -0.5675  0.2614
  801MOL0     H 8110   7.159   6.364   3.564  0.3390 -1.0006 -2.6066
  801MOL0     H 8111   7.345   6.508   3.393  1.1727  0.7181  3.1442
  801MOL0     H 8112   7.214   6.395   3.336  0.4037  0.1637 -1.2786
  801MOL0     H 8113   7.450   6.304   3.326  0.7723 -0.8735  0.1560
  801MOL0     H 8114   7.456   6.299   3.498  0.9757  1.1830 -1.0809
  801MOL0     H 8115   6.778   6.999   3.892  0.0268 -0.9399 -0.6553
  801MOL0     H 8116   6.576   7.116   3.936  3.8196 -1.4161  1.0640
  801MOL0     H 8117   6.360   7.508   3.856  0.1967 -2.7003  2.0349
  801MOL0     H 8118   6.175   7.664   3.933  0.2218  1.7229 -2.7625
  801MOL0     H 8119   5.220   8.038   2.806  4.9135  1.3520  0.9465
  801MOL0     H 8120   5.045   7.909   2.694 -0.2783  0.0137  0.3790
  801MOL0     H 8121   4.878   7.680   2.439 -3.3202 -0.5447  0.2956
  801MOL0     H 8122   4.768   7.481   2.350  1.4622 -0.5684  0.7867
  801MOL0     H 8123   4.930   7.278   2.119 -3.3609  1.2186  3.4796
  801MOL0     H 8124   4.897   7.360   1.948  0.4349 -1.7462 -0.4784
  801MOL0     H 8125   4.732   7.139   2.086 -1.1490 -1.1270  0.0371
  801MOL0     H 8126   4.883   7.101   2.006 -0.3262  0.1809  1.0407
  801MOL0     H 8127   4.812   7.177   1.788  1.0161 -3.3722  0.5571
  801MOL0     H 8128   4.647   7.221   1.865  0.2231  0.4028  0.2405
  801MOL0     H 8129   4.765   6.938   1.848 -0.9123 -0.7014  0.1123
  801MOL0     H 8130   4.620   7.008   1.935  1.1898  3.9077  0.9213
  801MOL0     H 8131   4.565   6.973   1.497  0.1320 -3.1312 -0.2174
  801MOL0     H 8132   4.910   7.585   1.957 -1.4331  1.1551 -0.4489
  801MOL0     H 8133   4.969   7.891   1.983  1.8657  1.9575 -0.8799
  801MOL0     H 8134   5.119   7.844   2.047 -0.8749 -2.1138  1.8457
  801MOL0     H 8135   5.051   7.746   1.915  1.7373 -1.6320  1.3053
  802MOL0     O 8136   2.391   6.540  10.757  0.0269 -0.1491 -0.1401
  802MOL0     C 8137   2.352   6.448  10.689 -1.6727  0.0608  0.5544
  802MOL0     O 8138   2.261   6.455  10.591 -0.1915 -0.1883 -0.7122
  802MOL0     C 8139   2.207   6.580  10.559 -0.0425  0.1059  0.4506
  802MOL0     C 8140   2.294   6.691  10.539  0.3368 -0.2367  0.4653
  802MOL0     C 8141   2.236   6.817  10.499 -0.6986  0.6556  0.6687
  802MOL0     C 8142   2.098   6.836  10.479  0.1806  0.0318  0.5448
  802MOL0     O 8143   2.052   6.956  10.447  0.1513  0.0526  0.4647
  802MOL0     C 8144   2.067   7.060  10.543  0.7452 -0.3332 -0.1984
  802MOL0     C 8145   1.950   7.171  10.549 -1.1068  0.1786 -0.1359
  802MOL0     C 8146   1.920   7.231  10.405 -0.9391 -0.4403  0.5242
  802MOL0     C 8147   2.029   7.327  10.350 -0.0840 -0.4514  1.2471
  802MOL0     C 8148   1.986   7.409  10.230 -0.2072  0.2264  0.1336
  802MOL0     C 8149   2.092   7.433  10.115 -0.7824 -0.2693 -0.0360
  802MOL0     C 8150   2.035   7.490   9.986  1.1641 -0.2143  0.8351
  802MOL0     C 8151   2.012   7.639   9.987  0.3851  0.4484 -0.7592
  802MOL0     N 8152   1.907   7.691   9.910 -0.2569 -0.2904  0.1748
  802MOL0     C 8153   1.844   7.815   9.930 -0.0890 -0.4813 -0.1421
  802MOL0     C 8154   1.726   7.818   9.852  0.0729 -0.0568  0.1820
  802MOL0     C 8155   1.627   7.933   9.843 -0.4501  0.1791 -0.2300
  802MOL0     C 8156   1.688   8.055   9.790 -0.7037 -0.0180 -0.2942
  802MOL0     C 8157   1.756   8.035   9.654 -0.1324 -0.3037 -0.8092
  802MOL0     C 8158   1.773   8.175   9.604 -0.1721 -0.6309  0.5752
  802MOL0     O 8159   1.889   8.247   9.655 -0.3368 -0.2857 -0.4349
  802MOL0     C 8160   1.947   8.352   9.588 -0.3275  0.3190  0.0140
  802MOL0     C 8161   2.064   8.405   9.635  0.6598 -1.8318 -0.9900
  802MOL0     C 8162   2.116   8.525   9.583 -0.3370 -0.0117 -0.3519
  802MOL0     C 8163   2.057   8.586   9.480 -0.1453  0.5829  1.4140
  802MOL0     C 8164   2.115   8.712   9.429 -0.0136  0.3706  1.1823
  802MOL0     O 8165   2.046   8.784   9.328 -0.3293 -1.2100 -0.3571
  802MOL0     C 8166   2.081   8.916   9.298  0.0437 -0.4565  0.6165
  802MOL0     C 8167   2.091   8.942   9.164 -0.6200 -0.4181 -0.3411
  802MOL0     C 8168   2.145   9.074   9.127  0.5680 -0.7712 -0.6191
  802MOL0     C 8169   2.189   9.166   9.221 -0.2750 -0.7019 -0.8672
  802MOL0     O 8170   2.255   9.282   9.187 -0.3994  0.2213 -0.8092
  802MOL0     C 8171   2.369   9.318   9.268 -0.1549 -0.1466 -0.3598
  802MOL0     C 8172   2.448   9.432   9.189  1.1162 -0.9596 -0.3233
  802MOL0     C 8173   2.585   9.468   9.260  0.1427  0.2374  0.1011
  802MOL0     C 8174   2.673   9.591   9.210 -0.0032  0.3968 -0.7053
  802MOL0     C 8175   2.804   9.609   9.292 -0.3965  0.2998 -0.6613
  802MOL0     C 8176   2.799   9.630   9.448 -0.0490  0.3068  0.0301
  802MOL0     C 8177   2.869   9.756   9.499  0.6020  0.8478  0.2795
  802MOL0     C 8178   2.870   9.745   9.659  0.5086 -0.5265 -0.0254
  802MOL0    Cl 8179   2.963   9.602   9.734 -0.0251 -0.3503 -0.0818
  802MOL0     C 8180   2.161   9.137   9.364  0.1908  0.0386  0.0687
  802MOL0     C 8181   2.111   9.012   9.395 -0.3233  0.6266 -0.1135
  802MOL0     O 8182   2.226   8.744   9.468 -1.2549 -0.2946 -0.2458
  802MOL0     C 8183   1.936   8.529   9.423 -1.1439 -0.0655 -0.1668
  802MOL0     C 8184   1.883   8.421   9.485  0.2962 -0.0635  0.1849
  802MOL0     N 8185   1.731   7.692   9.785  0.0111  0.1163 -0.3188
  802MOL0     N 8186   1.837   7.625   9.809 -1.0570 -0.8043 -0.3209
  802MOL0     C 8187   2.012   6.728  10.500 -0.2266  0.3533 -0.2222
  802MOL0     C 8188   2.064   6.600  10.539  0.0367 -0.4591 -0.8663
  802MOL0     C 8189   2.423   6.314  10.699 -0.0388 -0.5274 -0.0894
  802MOL0     C 8190   2.353   6.202  10.661  0.2599  0.1118 -0.4568
  802MOL0     C 8191   2.402   6.079  10.671 -0.5944  0.5409  0.2394
  802MOL0     C 8192   2.525   6.058  10.719  0.5470 -0.2688 -0.9460
  802MOL0     O 8193   2.561   5.920  10.722 -0.5093 -0.2053 -0.1081
  802MOL0     C 8194   2.693   5.867  10.752  0.4249 -0.4677 -0.0413
  802MOL0     C 8195   2.767   5.827  10.624 -0.4451  0.4322 -0.4711
  802MOL0     C 8196   2.831   5.940  10.546 -0.1667 -0.0957 -0.3753
  802MOL0     C 8197   2.911   5.887  10.429  0.4338  1.0068  0.3452
  802MOL0     C 8198   2.965   5.989  10.337 -0.8100 -0.2248  0.6423
  802MOL0     C 8199   3.012   6.082  10.272 -0.6612 -0.1679  0.1837
  802MOL0     C 8200   2.606   6.168  10.761 -0.1942  0.5507  0.4442
  802MOL0     C 8201   2.549   6.296  10.763  0.6369  0.8506 -0.0889
  802MOL0     C 8202   2.643   6.407  10.806 -0.7017 -1.1171 -0.7211
  802MOL0     H 8203   2.401   6.684  10.552  0.3377 -2.1502 -0.2344
  802MOL0     H 8204   2.298   6.905  10.487  0.0697 -0.1680 -1.9678
  802MOL0     H 8205   2.086   7.018  10.642  2.7681 -2.0597 -1.2418
  802MOL0     H 8206   2.152   7.120  10.511 -1.2955  1.8479 -1.9294
  802MOL0     H 8207   1.965   7.251  10.622 -2.2902 -0.0168  0.3466
  802MOL0     H 8208   1.861   7.121  10.588 -0.8790 -0.2747 -0.1851
  802MOL0     H 8209   1.827   7.287  10.402 -1.5867 -1.5132 -2.2013
  802MOL0     H 8210   1.904   7.143  10.342  0.1681 -2.1824  2.5178
  802MOL0     H 8211   2.063   7.396  10.428  1.3684 -0.1962  0.4213
  802MOL0     H 8212   2.123   7.276  10.327  1.9386  3.1232  0.8090
  802MOL0     H 8213   1.903   7.350  10.189 -0.5594 -1.7259  3.2652
  802MOL0     H 8214   1.940   7.503  10.261 -0.4670  1.2786 -3.1103
  802MOL0     H 8215   2.168   7.508  10.138  0.0391 -0.9695 -0.4221
  802MOL0     H 8216   2.142   7.340  10.086  2.0782  1.8375 -2.4205
  802MOL0     H 8217   1.939   7.438   9.974  0.9570  0.2657  0.3494
  802MOL0     H 8218   2.099   7.467   9.900  0.7011 -0.8031  0.6398
  802MOL0     H 8219   1.999   7.670  10.091  2.8627  2.0558 -0.8392
  802MOL0     H 8220   2.106   7.687   9.960  0.5142 -0.3096 -1.6795
  802MOL0     H 8221   1.869   7.885  10.009  1.7039 -1.0944 -0.1186
  802MOL0     H 8222   1.544   7.903   9.778 -2.0385  0.5864  1.5324
  802MOL0     H 8223   1.582   7.966   9.937  1.3072  1.9036  0.0639
  802MOL0     H 8224   1.613   8.134   9.782  0.1599  0.7608 -1.0729
  802MOL0     H 8225   1.764   8.095   9.858 -1.3718  2.2140 -0.7983
  802MOL0     H 8226   1.689   7.990   9.580  0.6207 -2.2798 -0.3656
  802MOL0     H 8227   1.841   7.966   9.649 -0.9042 -1.3077 -0.4080
  802MOL0     H 8228   1.680   8.230   9.618 -0.5865 -0.8939 -0.9134
  802MOL0     H 8229   1.788   8.167   9.496  3.9172  2.2080  0.7183
  802MOL0     H 8230   2.123   8.356   9.711  0.0826  0.7129  1.2648
  802MOL0     H 8231   2.206   8.558   9.632 -0.0255 -1.8341  0.3746
  802MOL0     H 8232   2.062   8.870   9.089 -2.3689 -2.1139  1.8411
  802MOL0     H 8233   2.159   9.099   9.023  1.2230  1.4174 -0.0604
  802MOL0     H 8234   2.347   9.347   9.371  1.6705 -2.8024  0.9036
  802MOL0     H 8235   2.441   9.235   9.273 -0.2118 -0.3167 -1.7479
  802MOL0     H 8236   2.469   9.408   9.084  1.4588  0.7540 -0.6743
  802MOL0     H 8237   2.388   9.523   9.189  0.2517 -1.4810  1.3193
  802MOL0     H 8238   2.561   9.491   9.364  0.4059 -2.4784  0.8511
  802MOL0     H 8239   2.640   9.373   9.258 -1.2075 -0.7812  3.6619
  802MOL0     H 8240   2.612   9.681   9.214 -1.6003 -0.5644 -2.0704
  802MOL0     H 8241   2.690   9.586   9.102 -0.0581 -1.9547 -0.6660
  802MOL0     H 8242   2.851   9.703   9.260  1.1677  0.1147  0.9681
  802MOL0     H 8243   2.880   9.537   9.260 -2.1355 -0.2539 -4.0632
  802MOL0     H 8244   2.694   9.647   9.475 -0.0867 -0.1551  0.1695
  802MOL0     H 8245   2.838   9.538   9.492 -1.1267 -0.2306 -0.0995
  802MOL0     H 8246   2.806   9.842   9.474 -0.3426 -0.5254 -2.4249
  802MOL0     H 8247   2.961   9.761   9.440 -1.4344 -0.5936 -3.3053
  802MOL0     H 8248   2.918   9.834   9.702 -1.0745  0.4534 -0.1840
  802MOL0     H 8249   2.766   9.755   9.692  0.0916  1.0888 -1.6611
  802MOL0     H 8250   2.195   9.205   9.441  4.3067 -0.2326 -1.2360
  802MOL0     H 8251   2.100   8.978   9.497 -1.8260 -0.7844 -0.6937
  802MOL0     H 8252   1.890   8.572   9.335 -0.2300  0.2981 -0.4730
  802MOL0     H 8253   1.792   8.375   9.449 -0.5269  0.7685  1.1199
  802MOL0     H 8254   1.908   6.737  10.472 -1.0119  2.5289  2.8879
  802MOL0     H 8255   1.989   6.522  10.537  0.1940 -0.8435  2.2857
  802MOL0     H 8256   2.252   6.210  10.621 -0.6645 -2.9154  0.9786
  802MOL0     H 8257   2.355   5.990  10.632  4.4488 -2.2533 -0.2964
  802MOL0     H 8258   2.693   5.776  10.813 -2.4106 -0.8292 -0.4478
  802MOL0     H 8259   2.764   5.931  10.806 -1.2164  1.1748  0.2909
  802MOL0     H 8260   2.696   5.764  10.570 -0.5837 -1.0330  1.3232
  802MOL0     H 8261   2.847   5.762  10.658 -1.5967 -0.3290  0.9367
  802MOL0     H 8262   2.899   6.005  10.601 -0.1147  1.0358 -1.7151
  802MOL0     H 8263   2.754   6.013  10.521  0.3151  1.3404  1.9893
  802MOL0     H 8264   2.982   5.808  10.456 -1.1677 -0.3758  0.6930
  802MOL0     H 8265   2.850   5.828  10.360  2.1611 -0.1689 -0.2448
  802MOL0     H 8266   3.038   6.151  10.194  0.0095 -3.0823 -2.3477
  802MOL0     H 8267   2.702   6.131  10.795 -1.7612 -3.2360  1.2202
  802MOL0     H 8268   2.647   6.493  10.738 -1.4436  0.5144  1.1755
  802MOL0     H 8269   2.613   6.445  10.904 -1.7292  1.2256 -1.8528
  802MOL0     H 8270   2.746   6.371  10.804  0.2532  1.3512  0.0245
  803MOL0     O 8271   7.894   9.346  11.165 -0.0125  0.7044 -0.1286
  803MOL0     C 8272   7.840   9.259  11.242 -0.0194 -0.4976 -0.0602
  803MOL0     O 8273   7.764   9.156  11.196  0.1247  0.2870 -0.2377
  803MOL0     C 8274   7.717   9.153  11.063 -0.4196 -0.8968  0.2481
  803MOL0     C 8275   7.686   9.271  10.985  0.4922  0.8850 -0.2545
  803MOL0     C 8276   7.625   9.258  10.857 -0.1865 -0.0450 -0.1405
  803MOL0     C 8277   7.600   9.135  10.796  0.3094  0.5937 -0.6672
  803MOL0     O 8278   7.552   9.126  10.667  0.3906 -0.6747 -0.8743
  803MOL0     C 8279   7.438   9.220  10.631 -0.3355 -0.1570  0.4794
  803MOL0     C 8280   7.479   9.317  10.521 -0.2530 -0.5862  0.2537
  803MOL0     C 8281   7.614   9.397  10.549 -0.1778  0.9173  0.1263
  803MOL0     C 8282   7.583   9.548  10.598 -0.2236 -0.1342 -0.0972
  803MOL0     C 8283   7.702   9.646  10.643 -0.3884 -0.4144 -0.1573
  803MOL0     C 8284   7.641   9.792  10.666 -1.0783  0.1519 -0.3117
  803MOL0     C 8285   7.714   9.860  10.774  0.1371 -0.7404 -0.7556
  803MOL0     C 8286   7.682   9.791  10.906 -0.3011  0.1747 -0.4643
  803MOL0     N 8287   7.787   9.802  11.005 -0.1056 -0.2231 -0.3154
  803MOL0     C 8288   7.882   9.708  11.035  0.0480  0.2725 -0.3150
  803MOL0     C 8289   7.977   9.791  11.080  0.8846 -0.7453 -0.6226
  803MOL0     C 8290   8.104   9.747  11.137 -0.1881 -0.7826  0.3056
  803MOL0     C 8291   8.221   9.793  11.049  0.6800  1.1222 -0.1673
  803MOL0     C 8292   8.230   9.689  10.929 -0.1963 -0.4749  0.3670
  803MOL0     C 8293   8.311   9.719  10.810 -0.1320  0.0652  0.0341
  803MOL0     O 8294   8.277   9.633  10.699  0.5804 -0.4159 -0.4950
  803MOL0     C 8295   8.346   9.650  10.580  0.1376  0.7155  0.1982
  803MOL0     C 8296   8.452   9.744  10.565  0.6975 -0.9095  0.1972
  803MOL0     C 8297   8.525   9.757  10.449 -0.1482 -0.6238  0.5114
  803MOL0     C 8298   8.491   9.685  10.338 -0.1684  0.0448 -0.7077
  803MOL0     C 8299   8.571   9.696  10.213  0.3568 -0.4756 -0.2331
  803MOL0     O 8300   8.663   9.790  10.213  0.2359  0.0194 -0.3824
  803MOL0     C 8301   8.742   9.793  10.100 -0.1002 -0.0459  0.7420
  803MOL0     C 8302   8.863   9.725  10.103  0.4080  0.4796 -1.0919
  803MOL0     C 8303   8.935   9.720   9.990  0.8035  0.4111  0.5893
  803MOL0     C 8304   8.896   9.780   9.867 -0.9340  0.2024  0.6076
  803MOL0     O 8305   8.985   9.761   9.756 -0.6293 -0.3088 -0.1350
  803MOL0     C 8306   8.954   9.833   9.643 -0.0626 -0.2141  0.4621
  803MOL0     C 8307   9.056   9.803   9.525 -0.5034  0.8604  1.0146
  803MOL0     C 8308   9.172   9.889   9.550 -0.3307  0.7453  0.3408
  803MOL0     C 8309   9.266   9.884   9.427  0.0502 -0.4288  0.4263
  803MOL0     C 8310   9.377   9.986   9.440 -0.5380  0.1938  0.1267
  803MOL0     C 8311   9.442   9.976   9.575  0.0198 -0.8347  0.2387
  803MOL0     C 8312   9.557  10.068   9.587 -0.3175 -0.3453 -0.3885
  803MOL0     C 8313   9.617  10.066   9.731  0.0033 -1.0021  0.8567
  803MOL0    Cl 8314   9.770  10.172   9.724  0.3467  0.6228  0.4793
  803MOL0     C 8315   8.777   9.855   9.871 -0.3841  1.3447  0.3693
  803MOL0     C 8316   8.707   9.873   9.985  0.4361  0.3279  0.0272
  803MOL0     O 8317   8.532   9.629  10.115 -0.2624 -0.4857 -0.1078
  803MOL0     C 8318   8.377   9.592  10.347 -0.1980  1.0878 -0.4251
  803MOL0     C 8319   8.308   9.581  10.464 -0.4860  0.4189  0.0451
  803MOL0     N 8320   7.928   9.916  11.105 -0.3226 -0.6117 -0.2613
  803MOL0     N 8321   7.814   9.922  11.054 -0.3432  0.7089 -0.7654
  803MOL0     C 8322   7.630   9.017  10.870 -0.1417 -0.2117 -1.2864
  803MOL0     C 8323   7.686   9.029  11.007  1.0431 -0.3381  0.0515
  803MOL0     C 8324   7.880   9.275  11.384 -0.0529  0.7154  0.5148
  803MOL0     C 8325   7.956   9.389  11.420 -0.3275  0.0665  0.3510
  803MOL0     C 8326   7.979   9.407  11.551 -0.7143 -0.6117  0.7309
  803MOL0     C 8327   7.945   9.316  11.650 -0.2031  0.3621 -0.6675
  803MOL0     O 8328   7.992   9.346  11.777  0.9999 -0.7963  0.8313
  803MOL0     C 8329   7.902   9.441  11.842 -0.1512 -0.5074  1.0884
  803MOL0     C 8330   7.913   9.426  11.991 -0.0475  0.1824 -0.5365
  803MOL0     C 8331   7.981   9.557  12.038  0.2882  0.0329  0.7362
  803MOL0     C 8332   8.021   9.556  12.185  0.4789 -0.3275 -0.3156
  803MOL0     C 8333   7.906   9.602  12.264  0.1131  0.2440  0.1961
  803MOL0     C 8334   7.802   9.632  12.322 -0.6797  0.2664 -0.7375
  803MOL0     C 8335   7.887   9.197  11.613  0.1722  0.5020  1.1943
  803MOL0     C 8336   7.847   9.180  11.480 -0.0537  0.5802  0.0844
  803MOL0     C 8337   7.790   9.039  11.455  0.2158 -1.1375  0.2984
  803MOL0     H 8338   7.693   9.367  11.036 -4.7351  2.3712 -1.7380
  803MOL0     H 8339   7.584   9.346  10.808  0.4035 -0.2049 -0.9531
  803MOL0     H 8340   7.347   9.174  10.593  0.6807  0.1585 -2.5606
  803MOL0     H 8341   7.397   9.286  10.708 -3.1987 -0.3035 -0.8144
  803MOL0     H 8342   7.408   9.396  10.497  0.4064 -0.5719 -1.8191
  803MOL0     H 8343   7.477   9.263  10.426 -1.4126  0.5223 -0.3765
  803MOL0     H 8344   7.674   9.409  10.458 -2.3407  1.9479 -1.2663
  803MOL0     H 8345   7.667   9.336  10.622 -3.1456  0.6217  2.2262
  803MOL0     H 8346   7.527   9.591  10.514 -0.0066  1.9507  0.7670
  803MOL0     H 8347   7.517   9.546  10.685  1.1343 -2.6348  0.9874
  803MOL0     H 8348   7.763   9.599  10.721 -3.0754 -0.8996  1.7839
  803MOL0     H 8349   7.766   9.650  10.555 -1.6413  0.5361 -1.0571
  803MOL0     H 8350   7.670   9.849  10.578  1.1665 -2.9096 -1.7805
  803MOL0     H 8351   7.536   9.794  10.696 -1.0905  1.2785 -0.3855
  803MOL0     H 8352   7.681   9.963  10.787 -2.3229 -1.1169 -3.2222
  803MOL0     H 8353   7.823   9.860  10.759  0.2706  1.6716 -0.2278
  803MOL0     H 8354   7.589   9.828  10.950  0.2019 -0.8348  1.5540
  803MOL0     H 8355   7.650   9.688  10.894 -1.4663  0.4580  0.0759
  803MOL0     H 8356   7.899   9.603  11.013  1.2989 -0.1418  2.1960
  803MOL0     H 8357   8.125   9.790  11.235 -1.4214  0.3813  0.0913
  803MOL0     H 8358   8.108   9.639  11.154  1.8830 -1.0924 -1.6562
  803MOL0     H 8359   8.197   9.894  11.014 -1.3123  1.5270  2.1158
  803MOL0     H 8360   8.313   9.790  11.108 -0.0740 -1.0345  1.0218
  803MOL0     H 8361   8.132   9.654  10.897 -1.4750  1.0704  2.3411
  803MOL0     H 8362   8.291   9.616  10.983  1.1163  0.0660 -0.3334
  803MOL0     H 8363   8.416   9.710  10.836 -0.4127 -3.1215  0.4514
  803MOL0     H 8364   8.283   9.820  10.780  1.6193 -0.1409 -2.5957
  803MOL0     H 8365   8.475   9.805  10.651  1.1386  0.6437 -0.9830
  803MOL0     H 8366   8.613   9.820  10.454 -0.5918 -0.0692  2.0156
  803MOL0     H 8367   8.876   9.682  10.202  0.5989 -0.8641 -1.6790
  803MOL0     H 8368   9.029   9.668  10.006  0.1775  0.0077  3.7116
  803MOL0     H 8369   8.864   9.788   9.600 -0.5862 -0.3411  1.6667
  803MOL0     H 8370   8.940   9.941   9.654 -1.7231 -0.4819  1.1864
  803MOL0     H 8371   9.073   9.695   9.523  0.9627  1.0820 -0.7821
  803MOL0     H 8372   9.011   9.834   9.430 -0.4479 -1.4686  0.1436
  803MOL0     H 8373   9.138   9.989   9.578  0.7831  1.3181 -0.2559
  803MOL0     H 8374   9.231   9.854   9.635  1.6585  2.5057 -0.2027
  803MOL0     H 8375   9.206   9.908   9.339 -1.2122  3.1307  2.0814
  803MOL0     H 8376   9.314   9.788   9.402  2.4370  1.1323 -1.5564
  803MOL0     H 8377   9.343  10.084   9.405 -3.0363 -0.0807  1.5701
  803MOL0     H 8378   9.450   9.938   9.373 -0.9568 -3.7529  2.2268
  803MOL0     H 8379   9.376  10.011   9.654  2.5458  1.4339  1.4887
  803MOL0     H 8380   9.478   9.873   9.585 -0.3739 -1.2691 -2.2514
  803MOL0     H 8381   9.528  10.172   9.571  0.9145  0.2094  0.8454
  803MOL0     H 8382   9.644  10.037   9.528  0.0456 -0.2864  0.1134
  803MOL0     H 8383   9.549  10.111   9.805  0.2443 -1.3343  1.2849
  803MOL0     H 8384   9.633   9.961   9.757 -0.9306 -1.4805 -0.4054
  803MOL0     H 8385   8.744   9.893   9.775  1.1302  2.6242  0.3047
  803MOL0     H 8386   8.609   9.920   9.990 -0.4665 -1.5583  0.8711
  803MOL0     H 8387   8.340   9.541  10.258  0.0555 -3.1443  1.6314
  803MOL0     H 8388   8.235   9.500  10.471  0.1482 -0.4897 -2.7612
  803MOL0     H 8389   7.624   8.918  10.825  5.1854 -1.6092  0.3048
  803MOL0     H 8390   7.703   8.936  11.058  0.8998 -1.0426 -1.1378
  803MOL0     H 8391   7.976   9.471  11.352  2.9652 -1.8077 -1.2249
  803MOL0     H 8392   8.020   9.500  11.588 -0.1799 -0.7479  0.4860
  803MOL0     H 8393   7.799   9.410  11.821 -0.9850  1.3352  2.2131
  803MOL0     H 8394   7.935   9.542  11.816  2.6605 -1.6937 -0.3212
  803MOL0     H 8395   7.973   9.340  12.024 -1.5990 -0.0925  1.8070
  803MOL0     H 8396   7.814   9.414  12.035  0.3339 -1.9263 -0.1245
  803MOL0     H 8397   7.921   9.647  12.021  1.0290  0.6744  1.4327
  803MOL0     H 8398   8.074   9.566  11.981  0.4273 -1.3997  0.6922
  803MOL0     H 8399   8.058   9.459  12.220  1.4151 -0.8080 -2.4974
  803MOL0     H 8400   8.092   9.637  12.206 -1.2293  1.1270  0.1783
  803MOL0     H 8401   7.711   9.663  12.367 -0.2298  0.5965 -0.0393
  803MOL0     H 8402   7.876   9.111  11.679 -0.7288 -0.5771 -0.3141
  803MOL0     H 8403   7.684   9.039  11.426  0.8446  1.5119 -2.5056
  803MOL0     H 8404   7.852   8.999  11.374  1.6750  0.2016  0.6947
  803MOL0     H 8405   7.796   8.986  11.550 -2.6163 -1.0839  0.6047
  804MOL0     O 8406   8.443   7.539   5.785  0.0404  0.7322 -0.3603
  804MOL0     C 8407   8.347   7.531   5.701  0.1759  0.3979  0.3714
  804MOL0     O 8408   8.339   7.431   5.604 -0.3860 -0.4090  1.2816
  804MOL0     C 8409   8.442   7.376   5.536 -1.3301 -0.2405  0.1404
  804MOL0     C 8410   8.572   7.382   5.582  0.2478 -0.0807 -0.4648
  804MOL0     C 8411   8.681   7.332   5.506 -0.2258 -0.0203 -0.1194
  804MOL0     C 8412   8.660   7.272   5.376  0.3015 -1.5591  0.2289
  804MOL0     O 8413   8.768   7.218   5.309 -0.5409  0.2375 -0.0459
  804MOL0     C 8414   8.764   7.220   5.176  0.8094 -0.4615 -0.1337
  804MOL0     C 8415   8.886   7.206   5.100 -0.2797 -1.0884  0.0185
  804MOL0     C 8416   8.969   7.078   5.112 -0.4185  0.3365 -0.2394
  804MOL0     C 8417   9.105   7.127   5.054 -0.5697  0.4786 -0.8902
  804MOL0     C 8418   9.211   7.011   5.069 -0.6290 -0.0027 -0.2188
  804MOL0     C 8419   9.243   6.960   5.218 -0.2370 -0.5893  0.4926
  804MOL0     C 8420   9.313   6.816   5.219 -0.0668  0.2915 -0.4202
  804MOL0     C 8421   9.460   6.798   5.181 -0.7725 -0.8038 -0.9060
  804MOL0     N 8422   9.576   6.876   5.240  0.6678 -0.2023 -0.7917
  804MOL0     C 8423   9.593   7.013   5.233  0.1765  0.6800  0.9775
  804MOL0     C 8424   9.695   7.047   5.319  0.0335 -1.2610  0.7827
  804MOL0     C 8425   9.749   7.184   5.358  0.5629  0.2649  0.6587
  804MOL0     C 8426   9.870   7.159   5.439  0.0722 -0.2234  0.3838
  804MOL0     C 8427   9.925   7.290   5.492 -1.5162 -0.0763 -0.9180
  804MOL0     C 8428  10.072   7.275   5.550 -0.2871  0.4942  0.4409
  804MOL0     O 8429  10.089   7.239   5.684 -0.4306  0.2319  0.1855
  804MOL0     C 8430  10.222   7.234   5.725  0.5416  0.5095 -0.0629
  804MOL0     C 8431  10.323   7.330   5.687 -0.0587 -0.2679 -0.3991
  804MOL0     C 8432  10.456   7.301   5.731  0.1572 -0.3320 -0.8962
  804MOL0     C 8433  10.492   7.193   5.811  0.4113 -0.7869  0.7576
  804MOL0     C 8434  10.629   7.183   5.858  0.9320  1.0673  0.4413
  804MOL0     O 8435  10.658   7.056   5.907  0.1824 -0.3988  0.0084
  804MOL0     C 8436  10.786   7.029   5.942 -0.0160 -1.0060 -0.9356
  804MOL0     C 8437  10.830   6.905   5.904  1.2392  0.8621 -0.4612
  804MOL0     C 8438  10.951   6.853   5.942 -1.2319 -0.4638  0.5211
  804MOL0     C 8439  11.036   6.933   6.021  0.0465  0.5848 -0.2386
  804MOL0     O 8440  11.165   6.887   6.054  0.7123  1.2282  0.8969
  804MOL0     C 8441  11.180   6.859   6.196 -0.0555 -0.7976 -0.3499
  804MOL0     C 8442  11.325   6.889   6.219 -0.9427 -0.0813  0.7473
  804MOL0     C 8443  11.412   6.771   6.169  1.2006 -0.6394 -0.3369
  804MOL0     C 8444  11.562   6.792   6.183  0.5318 -1.2747 -0.2582
  804MOL0     C 8445  11.640   6.680   6.111  1.3171  0.8136  0.0868
  804MOL0     C 8446  11.610   6.546   6.173 -0.0459  0.7019  0.0130
  804MOL0     C 8447  11.697   6.437   6.114 -0.6880  0.5027  1.4309
  804MOL0     C 8448  11.651   6.301   6.178 -0.0211 -0.2582  0.3066
  804MOL0    Cl 8449  11.736   6.175   6.087 -0.3657 -0.0210 -0.4346
  804MOL0     C 8450  10.995   7.055   6.071  0.3615  0.2524  0.2475
  804MOL0     C 8451  10.864   7.092   6.035 -0.5581 -0.5267 -0.7879
  804MOL0     O 8452  10.708   7.271   5.851 -0.8165 -0.3305 -0.3670
  804MOL0     C 8453  10.394   7.101   5.850 -0.2186 -0.6029 -0.7646
  804MOL0     C 8454  10.263   7.123   5.808 -0.9022 -0.8478  0.0430
  804MOL0     N 8455   9.754   6.922   5.360  1.5857 -0.6235 -0.1328
  804MOL0     N 8456   9.677   6.829   5.318  0.0579  0.3979  0.7381
  804MOL0     C 8457   8.530   7.259   5.326 -0.4010  0.3675  0.2840
  804MOL0     C 8458   8.425   7.309   5.414 -0.3750 -0.8923  0.1597
  804MOL0     C 8459   8.260   7.655   5.687 -0.2385  0.7413 -0.2411
  804MOL0     C 8460   8.234   7.693   5.548  0.5123 -0.0094 -0.0706
  804MOL0     C 8461   8.145   7.795   5.519 -0.1154 -0.6331 -0.2987
  804MOL0     C 8462   8.079   7.859   5.628  0.6886 -0.5304 -0.2293
  804MOL0     O 8463   7.980   7.945   5.601  0.7527  0.9343 -0.1800
  804MOL0     C 8464   7.939   8.029   5.708  0.3672 -0.4037  1.4631
  804MOL0     C 8465   7.884   8.158   5.634 -0.3779  0.1810 -0.4411
  804MOL0     C 8466   7.810   8.252   5.734 -0.1924 -1.4412 -0.2216
  804MOL0     C 8467   7.830   8.397   5.692 -0.4684 -0.1276  0.6177
  804MOL0     C 8468   7.747   8.488   5.770  0.5309  0.2190 -1.3031
  804MOL0     C 8469   7.668   8.560   5.829 -0.3545  0.3385  0.1753
  804MOL0     C 8470   8.123   7.830   5.759  0.0103 -0.0981 -0.0457
  804MOL0     C 8471   8.216   7.730   5.793  0.3464 -0.2633 -0.4996
  804MOL0     C 8472   8.258   7.698   5.938 -0.1973 -0.4897 -0.1398
  804MOL0     H 8473   8.608   7.424   5.675  0.9811 -0.6836 -0.4702
  804MOL0     H 8474   8.782   7.332   5.546  0.2013  0.7508 -1.1518
  804MOL0     H 8475   8.697   7.138   5.147  2.8093 -2.1084 -0.3254
  804MOL0     H 8476   8.713   7.311   5.141  2.9165  0.4908 -0.8814
  804MOL0     H 8477   8.956   7.287   5.121  1.3980 -1.7055 -2.8068
  804MOL0     H 8478   8.861   7.220   4.994 -1.8898  1.4176  0.6257
  804MOL0     H 8479   8.925   6.995   5.056  2.1554 -0.7097 -0.8643
  804MOL0     H 8480   8.963   7.051   5.218 -0.9522  1.6311  0.0923
  804MOL0     H 8481   9.079   7.170   4.957 -2.5710 -1.8482 -1.4747
  804MOL0     H 8482   9.151   7.210   5.108 -0.8493 -0.7843  1.4009
  804MOL0     H 8483   9.191   6.928   5.001 -0.7641  0.7725 -1.1353
  804MOL0     H 8484   9.307   7.049   5.032 -1.6469  2.4008 -0.5283
  804MOL0     H 8485   9.306   7.025   5.279  1.7625  0.4278 -2.4783
  804MOL0     H 8486   9.151   6.947   5.276  1.0357  1.5921  3.2002
  804MOL0     H 8487   9.252   6.754   5.153 -0.2861  0.2829 -0.2114
  804MOL0     H 8488   9.281   6.777   5.316 -0.5911  1.9798  0.1166
  804MOL0     H 8489   9.487   6.692   5.191  0.0641 -0.8528 -3.2916
  804MOL0     H 8490   9.473   6.818   5.075 -1.6162  1.1081 -0.6984
  804MOL0     H 8491   9.530   7.069   5.163  2.7547  1.6278 -0.7310
  804MOL0     H 8492   9.775   7.239   5.267  1.9886 -0.9865  0.2654
  804MOL0     H 8493   9.666   7.233   5.409 -2.5461 -3.3610 -0.3963
  804MOL0     H 8494   9.850   7.103   5.531 -1.9738 -1.4442 -0.7394
  804MOL0     H 8495   9.932   7.098   5.373  1.1860  1.3486 -0.0830
  804MOL0     H 8496   9.854   7.354   5.547 -1.6968  3.0682 -4.4045
  804MOL0     H 8497   9.944   7.357   5.407  1.1179 -0.0293 -0.3738
  804MOL0     H 8498  10.114   7.376   5.540 -3.6650  2.3062  2.5137
  804MOL0     H 8499  10.113   7.197   5.485  0.5274  0.5140  0.9138
  804MOL0     H 8500  10.298   7.416   5.626 -1.3882 -0.1122  0.3317
  804MOL0     H 8501  10.540   7.368   5.718  1.2405 -1.6313 -0.7841
  804MOL0     H 8502  10.757   6.845   5.851 -0.0720  2.6280 -0.7478
  804MOL0     H 8503  10.986   6.751   5.929 -0.6355 -1.0947  5.3112
  804MOL0     H 8504  11.119   6.929   6.254 -0.5959 -0.9120 -0.7683
  804MOL0     H 8505  11.154   6.760   6.234  2.0940 -0.8509  1.1224
  804MOL0     H 8506  11.370   6.971   6.163  0.1505 -2.4641 -2.1616
  804MOL0     H 8507  11.347   6.918   6.322 -0.2546  2.2243  0.0064
  804MOL0     H 8508  11.396   6.683   6.232 -3.4771 -1.0528 -1.7216
  804MOL0     H 8509  11.370   6.757   6.069 -0.5256  1.0548  0.0889
  804MOL0     H 8510  11.592   6.797   6.288  3.4054 -1.7618 -0.9805
  804MOL0     H 8511  11.594   6.888   6.139  1.4092  0.7949  4.3202
  804MOL0     H 8512  11.747   6.701   6.103  1.6258 -1.1199 -2.1841
  804MOL0     H 8513  11.602   6.674   6.008 -0.4758 -2.1739  0.8013
  804MOL0     H 8514  11.632   6.544   6.280 -0.2439  1.6505  0.0762
  804MOL0     H 8515  11.506   6.517   6.156  0.6202  0.2799 -4.6551
  804MOL0     H 8516  11.791   6.459   6.166 -0.6062  0.4072  1.3204
  804MOL0     H 8517  11.696   6.439   6.005  1.6823  4.8748  1.2522
  804MOL0     H 8518  11.674   6.294   6.285  0.5125  3.1232  0.5440
  804MOL0     H 8519  11.543   6.290   6.167 -0.0770  0.7380 -0.3400
  804MOL0     H 8520  11.058   7.115   6.136  0.4843  0.7707 -0.3441
  804MOL0     H 8521  10.845   7.185   6.087  0.2201 -0.0111 -1.4049
  804MOL0     H 8522  10.401   7.016   5.917 -0.2864 -0.5426 -0.6811
  804MOL0     H 8523  10.191   7.050   5.840  0.2950 -0.7467  3.2695
  804MOL0     H 8524   8.516   7.201   5.236  3.4611  0.4251 -0.5289
  804MOL0     H 8525   8.327   7.316   5.368  0.7060  0.2346 -2.1357
  804MOL0     H 8526   8.283   7.647   5.463 -2.3913  0.3382 -2.1012
  804MOL0     H 8527   8.112   7.818   5.418 -2.5604 -2.8842 -0.1485
  804MOL0     H 8528   8.020   8.063   5.773  1.2026  3.8726 -1.3593
  804MOL0     H 8529   7.855   7.995   5.770  0.6101  3.4279  4.2638
  804MOL0     H 8530   7.816   8.139   5.551 -0.2125  0.8111 -0.7277
  804MOL0     H 8531   7.964   8.208   5.578  0.0982  1.1308  1.0126
  804MOL0     H 8532   7.839   8.236   5.838 -1.8841 -0.7689  0.4028
  804MOL0     H 8533   7.706   8.218   5.730 -1.3732  1.8822 -0.8429
  804MOL0     H 8534   7.934   8.428   5.707 -1.7324  3.5853  2.9150
  804MOL0     H 8535   7.799   8.393   5.587  1.6839 -3.4089 -0.0684
  804MOL0     H 8536   7.591   8.624   5.867 -2.8982 -1.7998 -1.0179
  804MOL0     H 8537   8.089   7.880   5.849 -0.0512 -0.3340  0.0637
  804MOL0     H 8538   8.360   7.738   5.939 -0.8700  1.3102  0.6487
  804MOL0     H 8539   8.206   7.763   6.009  1.2471  1.3544 -0.6711
  804MOL0     H 8540   8.268   7.591   5.958 -0.5648 -0.2334  1.5746
  805MOL0     O 8541  11.187   2.234  10.603  0.1075 -0.0908  0.2857
  805MOL0     C 8542  11.260   2.138  10.579 -0.4440 -1.0217 -0.3103
  805MOL0     O 8543  11.286   2.103  10.451  0.8145 -0.8645 -0.3679
  805MOL0     C 8544  11.228   2.180  10.348 -0.6262 -1.2749  0.0987
  805MOL0     C 8545  11.268   2.312  10.341 -0.4597  0.3529 -0.2945
  805MOL0     C 8546  11.244   2.385  10.225  0.0364 -0.1993  0.1877
  805MOL0     C 8547  11.156   2.344  10.131 -0.4162 -0.0982  0.1768
  805MOL0     O 8548  11.138   2.423  10.014  0.0101  0.0462  0.3831
  805MOL0     C 8549  10.999   2.460   9.998  0.4419 -0.1375  0.4002
  805MOL0     C 8550  11.010   2.608   9.972 -0.4755  0.1154  0.7146
  805MOL0     C 8551  10.869   2.656   9.957 -0.3887  0.3804 -0.2051
  805MOL0     C 8552  10.865   2.806   9.946 -0.3095  0.1555  0.0915
  805MOL0     C 8553  10.723   2.856   9.959  0.2772  0.7233 -0.5667
  805MOL0     C 8554  10.641   2.827   9.822 -0.9662  0.6010  0.3005
  805MOL0     C 8555  10.521   2.918   9.828 -0.3545 -0.2903 -0.6707
  805MOL0     C 8556  10.458   2.958   9.695 -0.1960  0.1169  0.2115
  805MOL0     N 8557  10.335   3.040   9.715 -0.2440 -0.0050 -0.7544
  805MOL0     C 8558  10.230   2.990   9.780  0.1578 -0.1400 -0.5507
  805MOL0     C 8559  10.137   3.076   9.739  0.6857 -0.6406  0.2614
  805MOL0     C 8560   9.988   3.072   9.763 -0.3437  0.5697  0.4026
  805MOL0     C 8561   9.951   3.116   9.903 -0.4285 -0.1756 -0.3754
  805MOL0     C 8562   9.810   3.078   9.936  0.5283 -0.5309 -0.0599
  805MOL0     C 8563   9.705   3.179   9.879  0.3413  0.0248 -0.6393
  805MOL0     O 8564   9.723   3.307   9.928 -0.4556  1.1313 -0.9829
  805MOL0     C 8565   9.644   3.402   9.869  1.0641 -1.0555 -1.1343
  805MOL0     C 8566   9.682   3.505   9.783 -0.3921 -0.5108 -0.7822
  805MOL0     C 8567   9.590   3.590   9.721 -0.9684  0.0734 -0.2113
  805MOL0     C 8568   9.451   3.597   9.766 -0.8611  0.1321  0.1174
  805MOL0     C 8569   9.365   3.695   9.710  0.6791  0.6212 -0.3535
  805MOL0     O 8570   9.250   3.710   9.785 -0.1123  0.1376 -0.2939
  805MOL0     C 8571   9.163   3.800   9.727 -0.1993 -0.1860  0.0809
  805MOL0     C 8572   9.173   3.936   9.767  0.8833 -0.0844 -0.2714
  805MOL0     C 8573   9.100   4.036   9.693  0.1112 -0.5570  0.6670
  805MOL0     C 8574   9.001   3.988   9.601 -0.6261 -0.2625 -0.4151
  805MOL0     O 8575   8.910   4.066   9.527  0.2536 -0.0987 -0.2244
  805MOL0     C 8576   8.918   4.204   9.560 -0.4885  0.3248  0.1195
  805MOL0     C 8577   8.810   4.282   9.493 -0.7356 -1.3503  0.2598
  805MOL0     C 8578   8.764   4.392   9.588 -0.2221 -0.6778  0.6283
  805MOL0     C 8579   8.885   4.487   9.634 -0.6207  1.7100  1.0126
  805MOL0     C 8580   8.843   4.602   9.738  0.8117 -0.1483 -1.3597
  805MOL0     C 8581   8.955   4.666   9.808 -0.1771 -0.3945 -0.9061
  805MOL0     C 8582   9.060   4.721   9.715 -0.0471  0.7563  0.0319
  805MOL0     C 8583   9.167   4.819   9.775 -0.0305  0.7617  1.4344
  805MOL0    Cl 8584   9.243   4.861   9.611 -0.0351  0.0658  0.5684
  805MOL0     C 8585   8.986   3.855   9.573 -0.6027 -0.2186  1.2341
  805MOL0     C 8586   9.072   3.765   9.624 -0.9041  0.0632 -0.7226
  805MOL0     O 8587   9.399   3.760   9.610  0.3475 -0.5029 -0.4460
  805MOL0     C 8588   9.425   3.516   9.869  0.7986  0.0589 -0.6684
  805MOL0     C 8589   9.507   3.416   9.916 -0.8613  1.0906  0.2314
  805MOL0     N 8590  10.186   3.183   9.675 -0.3930 -0.4650 -0.1002
  805MOL0     N 8591  10.311   3.152   9.649 -0.1385 -0.0421 -0.0578
  805MOL0     C 8592  11.107   2.208  10.137  0.3562  0.4028 -0.4489
  805MOL0     C 8593  11.145   2.133  10.242  0.4326  1.0765 -0.2217
  805MOL0     C 8594  11.326   2.072  10.697 -0.1920  0.2057 -0.0181
  805MOL0     C 8595  11.445   1.998  10.675  0.5720  0.2034 -0.1292
  805MOL0     C 8596  11.524   1.944  10.782  0.2342  0.4810  0.0438
  805MOL0     C 8597  11.483   1.960  10.914  0.5069  0.8728  0.0462
  805MOL0     O 8598  11.564   1.907  11.019 -0.3452 -0.3906  1.1368
  805MOL0     C 8599  11.535   1.942  11.155 -0.4962  1.1937 -0.1620
  805MOL0     C 8600  11.574   2.093  11.161 -0.3914  0.6728 -0.5223
  805MOL0     C 8601  11.719   2.153  11.139 -0.3244  0.0190  0.4964
  805MOL0     C 8602  11.828   2.118  11.241  0.7652 -0.3422  0.6869
  805MOL0     C 8603  11.866   1.979  11.232 -0.2163  0.5374  1.0442
  805MOL0     C 8604  11.908   1.860  11.227 -0.3646  0.5283 -0.0387
  805MOL0     C 8605  11.361   2.020  10.932  0.2629 -0.1110 -0.4476
  805MOL0     C 8606  11.289   2.087  10.834  0.8485 -0.0374 -0.2391
  805MOL0     C 8607  11.158   2.146  10.883  0.5640  0.2303  0.1025
  805MOL0     H 8608  11.352   2.338  10.404  0.8858 -1.9874 -1.0180
  805MOL0     H 8609  11.299   2.479  10.223  0.4820 -0.1736  4.1182
  805MOL0     H 8610  10.955   2.404   9.915  5.9174 -1.4713 -2.0510
  805MOL0     H 8611  10.951   2.441  10.094 -1.3476 -1.2672 -0.6758
  805MOL0     H 8612  11.067   2.624   9.880  1.2081  1.4106  1.9288
  805MOL0     H 8613  11.067   2.659  10.050 -0.4738  0.2160  0.6493
  805MOL0     H 8614  10.814   2.629  10.047  2.0461 -0.1708  1.1783
  805MOL0     H 8615  10.818   2.608   9.872  0.5538 -1.5569  0.2805
  805MOL0     H 8616  10.937   2.854  10.013 -0.2629  1.8745 -1.1387
  805MOL0     H 8617  10.884   2.831   9.842 -6.6086  2.1171 -1.0228
  805MOL0     H 8618  10.685   2.799  10.044  5.5371 -1.7296  0.5552
  805MOL0     H 8619  10.715   2.961   9.989  2.7293  0.3824  1.6431
  805MOL0     H 8620  10.712   2.842   9.740 -1.4240 -2.3334 -0.7391
  805MOL0     H 8621  10.601   2.725   9.814  2.3500 -1.1092  2.9001
  805MOL0     H 8622  10.549   3.010   9.881 -1.0129 -1.2099  1.3956
  805MOL0     H 8623  10.444   2.867   9.886  1.4091  0.6025  2.7126
  805MOL0     H 8624  10.532   3.011   9.635 -0.0460 -0.4849 -0.1469
  805MOL0     H 8625  10.433   2.863   9.646  1.6350  0.0395 -0.6538
  805MOL0     H 8626  10.212   2.883   9.791  0.7240 -1.1917 -6.4641
  805MOL0     H 8627   9.938   3.140   9.692  1.8903 -1.6349 -3.5892
  805MOL0     H 8628   9.963   2.967   9.751  0.4058  0.4071  0.2263
  805MOL0     H 8629  10.018   3.068   9.975 -1.1878 -1.2078 -0.3456
  805MOL0     H 8630   9.965   3.224   9.888 -2.0229 -0.0158 -0.8540
  805MOL0     H 8631   9.796   3.070  10.044 -1.5712 -3.1953 -0.4234
  805MOL0     H 8632   9.769   2.985   9.896  0.7930 -0.3707 -0.7119
  805MOL0     H 8633   9.611   3.143   9.921  0.9078  1.9743  2.6983
  805MOL0     H 8634   9.694   3.163   9.772 -2.9841 -1.8751 -0.1492
  805MOL0     H 8635   9.788   3.513   9.762 -0.9138  0.1964 -3.4788
  805MOL0     H 8636   9.619   3.661   9.644  2.7488  0.0768  1.0216
  805MOL0     H 8637   9.243   3.960   9.847  0.3021 -1.2588  0.6142
  805MOL0     H 8638   9.122   4.141   9.712  2.1651 -0.8985  0.3594
  805MOL0     H 8639   8.907   4.208   9.669 -0.7216 -0.3556  0.1275
  805MOL0     H 8640   9.015   4.247   9.534 -1.1623  1.7379 -0.1512
  805MOL0     H 8641   8.847   4.326   9.400  0.3152  4.2277  2.9101
  805MOL0     H 8642   8.727   4.217   9.463 -1.0667 -1.6798  1.7876
  805MOL0     H 8643   8.678   4.436   9.537  1.3683  1.6591 -0.2190
  805MOL0     H 8644   8.731   4.332   9.674 -1.9935  2.1793  2.1114
  805MOL0     H 8645   8.929   4.535   9.546  3.3098  0.9307  2.3438
  805MOL0     H 8646   8.959   4.418   9.676 -1.2159 -0.3587 -1.1196
  805MOL0     H 8647   8.765   4.553   9.797 -1.6644  3.1288 -1.6222
  805MOL0     H 8648   8.791   4.679   9.679  0.8158  1.0977  0.2081
  805MOL0     H 8649   8.922   4.746   9.874  2.2666 -1.6396  2.0632
  805MOL0     H 8650   9.013   4.596   9.869  0.9519  0.9797 -0.3626
  805MOL0     H 8651   9.014   4.776   9.633 -1.3115 -0.5251 -0.1539
  805MOL0     H 8652   9.124   4.646   9.667  0.8805  2.6115 -1.8001
  805MOL0     H 8653   9.120   4.902   9.829 -1.4592  2.5656 -2.2094
  805MOL0     H 8654   9.238   4.761   9.835  0.8485 -3.3433 -2.9582
  805MOL0     H 8655   8.905   3.822   9.508 -0.8450 -1.3457  2.0857
  805MOL0     H 8656   9.078   3.659   9.604  2.4235 -0.1496  0.7430
  805MOL0     H 8657   9.332   3.522   9.924  0.9347 -1.0794 -0.2943
  805MOL0     H 8658   9.473   3.354   9.998 -3.0171  1.0693 -0.5985
  805MOL0     H 8659  11.056   2.157  10.056  3.0029 -1.1079 -1.2999
  805MOL0     H 8660  11.111   2.030  10.245  1.7936  0.6236  2.1926
  805MOL0     H 8661  11.462   1.965  10.573  0.2525 -3.4680  0.8785
  805MOL0     H 8662  11.614   1.895  10.748 -1.4201 -0.7776 -2.9206
  805MOL0     H 8663  11.599   1.887  11.223 -1.9933  0.2886  0.5734
  805MOL0     H 8664  11.428   1.938  11.178 -0.4343  2.7253  0.5443
  805MOL0     H 8665  11.553   2.118  11.266 -0.3877 -1.0326 -0.0805
  805MOL0     H 8666  11.508   2.160  11.106 -0.2130  0.2650 -1.2374
  805MOL0     H 8667  11.718   2.262  11.135  1.3893  0.1682  2.2222
  805MOL0     H 8668  11.750   2.105  11.046  2.0835 -0.3863  1.4117
  805MOL0     H 8669  11.913   2.185  11.229  0.3675  0.5500  2.4776
  805MOL0     H 8670  11.792   2.137  11.343 -2.9376  2.1887 -0.9050
  805MOL0     H 8671  11.955   1.766  11.245 -1.9992 -0.3849 -0.2931
  805MOL0     H 8672  11.326   2.024  11.035 -1.7409 -2.4177 -0.9321
  805MOL0     H 8673  11.077   2.109  10.819 -1.1957  1.7336  1.3393
  805MOL0     H 8674  11.129   2.129  10.987 -0.4386 -1.8135 -0.4527
  805MOL0     H 8675  11.165   2.255  10.871 -1.6676  0.2517 -1.6986
  806MOL0     O 8676   3.898  11.412  10.335  0.0080 -1.7634 -0.7381
  806MOL0     C 8677   4.006  11.434  10.281  0.7858  0.8241  0.1685
  806MOL0     O 8678   4.085  11.543  10.295  0.0416  0.3847  0.2884
  806MOL0     C 8679   4.039  11.631  10.387 -0.1010 -0.0821  0.1711
  806MOL0     C 8680   4.050  11.610  10.522 -0.3334  0.3310  0.4719
  806MOL0     C 8681   3.997  11.703  10.613 -0.6117 -0.5712 -0.1904
  806MOL0     C 8682   3.920  11.814  10.565 -0.1530 -1.1994  0.9893
  806MOL0     O 8683   3.851  11.892  10.648 -0.4600  0.4592 -0.1969
  806MOL0     C 8684   3.885  11.905  10.790  0.2841 -0.0238 -0.7819
  806MOL0     C 8685   3.788  12.005  10.879 -0.5882  0.6314 -0.6916
  806MOL0     C 8686   3.786  12.149  10.837 -0.0743  0.3594  0.4249
  806MOL0     C 8687   3.718  12.239  10.936 -0.0270 -0.4795 -0.1082
  806MOL0     C 8688   3.693  12.378  10.885  0.3448 -0.3152  0.7729
  806MOL0     C 8689   3.665  12.486  10.980 -0.4499 -1.2066 -0.0732
  806MOL0     C 8690   3.581  12.597  10.917 -0.7279 -1.3152 -0.5468
  806MOL0     C 8691   3.580  12.723  11.008 -1.2229  0.7613 -0.2758
  806MOL0     N 8692   3.488  12.719  11.118  0.1641  0.4117 -0.1491
  806MOL0     C 8693   3.506  12.762  11.246 -0.1638  0.0237  0.5101
  806MOL0     C 8694   3.399  12.723  11.312  0.1739  0.3647 -0.5636
  806MOL0     C 8695   3.369  12.745  11.462  0.5779  1.1047 -0.3128
  806MOL0     C 8696   3.231  12.813  11.491 -0.3028  0.2031 -0.2474
  806MOL0     C 8697   3.213  12.795  11.643  0.3807 -0.3334 -1.0560
  806MOL0     C 8698   3.120  12.899  11.704  0.4494  0.1801  0.1024
  806MOL0     O 8699   3.185  12.951  11.823 -0.2261  0.1988  1.4017
  806MOL0     C 8700   3.137  13.059  11.889  0.1431  0.2886 -0.8481
  806MOL0     C 8701   3.176  13.086  12.022 -0.1229 -0.3095 -0.1321
  806MOL0     C 8702   3.127  13.195  12.096  0.2993 -0.0355 -0.3673
  806MOL0     C 8703   3.027  13.292  12.047  0.4624  0.8145  0.7628
  806MOL0     C 8704   2.959  13.400  12.126  0.5978 -0.2257 -0.3478
  806MOL0     O 8705   2.993  13.419  12.255  0.2926  0.5525 -0.2699
  806MOL0     C 8706   2.962  13.526  12.327  1.2217 -0.0582  0.3388
  806MOL0     C 8707   2.974  13.654  12.276 -0.1527 -0.2768  0.2065
  806MOL0     C 8708   2.929  13.768  12.353 -0.2098  0.2101  0.2072
  806MOL0     C 8709   2.882  13.752  12.479  0.1153  0.2553  0.1267
  806MOL0     O 8710   2.831  13.869  12.531  0.3565  0.5823 -0.6428
  806MOL0     C 8711   2.750  13.862  12.650  0.2412 -0.3923 -0.0875
  806MOL0     C 8712   2.843  13.867  12.765  0.2491 -0.4152 -0.4553
  806MOL0     C 8713   2.785  13.945  12.890 -0.1635 -0.4847 -0.1823
  806MOL0     C 8714   2.651  13.895  12.954 -0.1778 -0.0320  0.3432
  806MOL0     C 8715   2.573  14.020  12.998 -0.6195  0.1794  0.3444
  806MOL0     C 8716   2.451  14.000  13.082  0.7871  0.6448  0.6884
  806MOL0     C 8717   2.350  13.901  13.022  0.7648 -0.1491  0.0235
  806MOL0     C 8718   2.231  13.902  13.113 -0.5875  0.1591 -1.0196
  806MOL0    Cl 8719   2.248  13.808  13.266  0.2011  0.3105  0.1840
  806MOL0     C 8720   2.881  13.630  12.527 -0.6286  1.0114  0.4564
  806MOL0     C 8721   2.922  13.518  12.456 -0.1836  0.2764  0.0001
  806MOL0     O 8722   2.883  13.479  12.063  0.3845  0.0303  0.2176
  806MOL0     C 8723   2.987  13.255  11.914  0.2263 -0.9360  0.4030
  806MOL0     C 8724   3.038  13.149  11.841 -0.4976  0.3371 -0.2611
  806MOL0     N 8725   3.305  12.674  11.228 -0.0937 -0.3697  1.5158
  806MOL0     N 8726   3.358  12.675  11.111  0.7188 -0.6590  0.0145
  806MOL0     C 8727   3.905  11.839  10.429  0.1361  0.1441  0.1203
  806MOL0     C 8728   3.960  11.738  10.340 -0.3862 -0.8498  0.8337
  806MOL0     C 8729   4.069  11.327  10.190 -1.8483  0.7260  0.3181
  806MOL0     C 8730   4.191  11.363  10.115  0.1756 -0.6870  0.3375
  806MOL0     C 8731   4.246  11.269  10.030 -0.8832 -0.1244 -0.2518
  806MOL0     C 8732   4.197  11.145  10.013  0.4190 -0.0130 -0.0005
  806MOL0     O 8733   4.235  11.042   9.925  1.2826  0.2926 -0.4516
  806MOL0     C 8734   4.365  11.057   9.880  1.5739 -0.5285  0.0872
  806MOL0     C 8735   4.444  10.933   9.875  0.1483 -0.1329  0.7786
  806MOL0     C 8736   4.370  10.815   9.954 -0.2745  0.2208  0.1944
  806MOL0     C 8737   4.456  10.703   9.978  0.3104  0.2421  0.5759
  806MOL0     C 8738   4.483  10.623   9.859  0.4611  0.1181 -0.0734
  806MOL0     C 8739   4.473  10.551   9.769  0.4580  0.2651  0.5744
  806MOL0     C 8740   4.082  11.112  10.082 -0.0407 -0.5458  0.8374
  806MOL0     C 8741   4.013  11.199  10.173 -0.8837 -0.6138  1.2072
  806MOL0     C 8742   3.902  11.141  10.248  0.7743  0.5993  0.3232
  806MOL0     H 8743   4.109  11.528  10.563  0.4857  1.0428  0.7582
  806MOL0     H 8744   4.006  11.680  10.718  0.4935  0.9979  0.0960
  806MOL0     H 8745   3.895  11.812  10.847  0.0440 -0.7825 -1.9448
  806MOL0     H 8746   3.985  11.948  10.802  0.7164 -1.2482  0.2602
  806MOL0     H 8747   3.825  12.004  10.982  1.0682 -0.4157 -1.2519
  806MOL0     H 8748   3.682  11.979  10.878 -2.4158  6.5266 -1.1948
  806MOL0     H 8749   3.726  12.155  10.746  0.6161  0.2845 -0.0399
  806MOL0     H 8750   3.888  12.175  10.806  1.6633 -4.3927  1.4163
  806MOL0     H 8751   3.621  12.198  10.966 -0.1989  0.7654  1.1575
  806MOL0     H 8752   3.772  12.251  11.031  1.6203  1.1339 -1.1748
  806MOL0     H 8753   3.782  12.405  10.827  0.1162 -1.2934 -0.0692
  806MOL0     H 8754   3.619  12.368  10.805  0.9665 -2.2120  0.3875
  806MOL0     H 8755   3.611  12.440  11.064 -1.6176  0.2162 -0.0168
  806MOL0     H 8756   3.765  12.510  11.017 -0.9735 -1.7246  1.8255
  806MOL0     H 8757   3.477  12.570  10.899 -1.6898  2.0134 -0.6213
  806MOL0     H 8758   3.628  12.626  10.823  5.6905 -0.7283  2.3061
  806MOL0     H 8759   3.683  12.744  11.038 -0.0625 -3.5148 -0.6156
  806MOL0     H 8760   3.559  12.803  10.936  2.5801  0.8603 -1.5068
  806MOL0     H 8761   3.596  12.811  11.283  2.3579 -2.2651 -2.1275
  806MOL0     H 8762   3.377  12.646  11.508  2.5057  1.7849  0.9273
  806MOL0     H 8763   3.451  12.800  11.508  0.1614  2.0973 -0.7197
  806MOL0     H 8764   3.244  12.919  11.464 -0.9495 -0.1051 -1.8883
  806MOL0     H 8765   3.144  12.776  11.437 -0.7581 -0.8064  1.1337
  806MOL0     H 8766   3.309  12.819  11.691 -0.2952 -0.5400  0.4428
  806MOL0     H 8767   3.170  12.699  11.672 -3.0987  1.6747  1.1497
  806MOL0     H 8768   3.026  12.858  11.743 -0.8121  3.3068  0.7440
  806MOL0     H 8769   3.100  12.978  11.630  2.0945 -2.3056 -3.2694
  806MOL0     H 8770   3.259  13.030  12.064  2.1059  1.7186 -1.6018
  806MOL0     H 8771   3.147  13.208  12.202 -1.7894 -0.0778  0.0816
  806MOL0     H 8772   3.009  13.669  12.174 -0.5951 -1.2511 -0.1044
  806MOL0     H 8773   2.937  13.871  12.319  2.6352  0.3891  1.1636
  806MOL0     H 8774   2.673  13.940  12.652  0.5553 -0.0845  0.1852
  806MOL0     H 8775   2.689  13.772  12.654 -1.5495  0.6665 -1.9425
  806MOL0     H 8776   2.861  13.761  12.787  3.5701  0.3316  1.0030
  806MOL0     H 8777   2.941  13.912  12.746 -0.2329  1.8423  1.8256
  806MOL0     H 8778   2.856  13.975  12.968 -0.0720  2.9138 -1.3977
  806MOL0     H 8779   2.781  14.046  12.847  1.9333  0.5823  1.9044
  806MOL0     H 8780   2.674  13.823  13.034  0.9125  0.2914  0.3314
  806MOL0     H 8781   2.594  13.823  12.893 -2.3225  2.7695 -1.1825
  806MOL0     H 8782   2.539  14.070  12.907  2.1883  2.1676  0.2785
  806MOL0     H 8783   2.642  14.091  13.044 -0.5952  1.7056 -1.8765
  806MOL0     H 8784   2.464  13.974  13.188 -1.5368  1.8389  1.3527
  806MOL0     H 8785   2.410  14.102  13.085  0.5910  0.5824  0.0928
  806MOL0     H 8786   2.385  13.797  13.027 -1.8090 -1.0317  1.3816
  806MOL0     H 8787   2.332  13.926  12.917  6.8710 -3.3881 -2.3041
  806MOL0     H 8788   2.189  13.998  13.143 -3.9457 -1.9135  1.6326
  806MOL0     H 8789   2.147  13.860  13.055 -1.8756  0.2468  0.6909
  806MOL0     H 8790   2.830  13.606  12.619 -0.6193 -1.4742 -0.1160
  806MOL0     H 8791   2.919  13.416  12.493 -0.1617  0.0795 -0.5376
  806MOL0     H 8792   2.899  13.308  11.879 -0.8295 -2.2863  0.9244
  806MOL0     H 8793   2.990  13.136  11.745 -2.5624 -1.6841  0.9422
  806MOL0     H 8794   3.852  11.929  10.400  4.6034  2.6991 -1.0546
  806MOL0     H 8795   3.953  11.757  10.234 -0.2510 -0.7201  0.8486
  806MOL0     H 8796   4.235  11.462  10.126 -3.2297  0.7597  2.6755
  806MOL0     H 8797   4.339  11.297   9.983  1.1817 -1.0702  2.9307
  806MOL0     H 8798   4.427  11.120   9.944  1.2927  1.3772 -1.3961
  806MOL0     H 8799   4.368  11.110   9.784 -0.4931 -1.3310 -0.4713
  806MOL0     H 8800   4.544  10.949   9.915  1.3955 -3.6695 -0.5667
  806MOL0     H 8801   4.438  10.899   9.771  1.1375  0.0559  0.6564
  806MOL0     H 8802   4.281  10.781   9.900 -0.1106  0.2673 -0.1050
  806MOL0     H 8803   4.331  10.847  10.051 -1.0753 -2.0279  0.6597
  806MOL0     H 8804   4.561  10.714  10.006  2.1567 -1.1264 -4.7666
  806MOL0     H 8805   4.410  10.638  10.053 -0.0757  0.6708  0.7142
  806MOL0     H 8806   4.471  10.506   9.672 -1.7301 -1.3885  1.3110
  806MOL0     H 8807   4.031  11.016  10.073  2.0200 -1.6108 -0.1766
  806MOL0     H 8808   3.940  11.081  10.331  2.0614  0.0052 -0.6625
  806MOL0     H 8809   3.822  11.211  10.274  1.3212  3.4345 -4.3979
  806MOL0     H 8810   3.845  11.067  10.191 -1.5212 -0.0264  3.1699
  807MOL0     O 8811   9.777  10.090   1.782  0.2770 -0.8670 -0.6482
  807MOL0     C 8812   9.804  10.181   1.703 -0.4898 -0.1476  0.7371
  807MOL0     O 8813   9.876  10.293   1.730  0.0556  0.3379 -0.1687
  807MOL0     C 8814   9.903  10.336   1.860 -0.1937 -0.7667 -0.2605
  807MOL0     C 8815   9.894  10.478   1.892  0.7833  1.0237  0.2832
  807MOL0     C 8816   9.953  10.527   2.007 -0.0795  0.4775  0.5113
  807MOL0     C 8817  10.027  10.450   2.096 -1.5778 -0.7218 -0.5642
  807MOL0     O 8818  10.084  10.498   2.210 -0.0827 -0.3447 -0.0815
  807MOL0     C 8819  10.055  10.630   2.254 -0.3515 -0.8991 -0.8238
  807MOL0     C 8820  10.117  10.660   2.390 -0.5891 -0.8035  1.0035
  807MOL0     C 8821  10.270  10.677   2.384 -0.0447  0.3793  0.4750
  807MOL0     C 8822  10.339  10.702   2.522  0.1771 -0.1244  0.1846
  807MOL0     C 8823  10.490  10.668   2.536 -1.3234 -0.1038  0.7682
  807MOL0     C 8824  10.581  10.793   2.532 -0.1288 -0.9034  0.0460
  807MOL0     C 8825  10.731  10.769   2.550 -0.2124 -0.6729  0.3205
  807MOL0     C 8826  10.781  10.695   2.426  0.6030  0.0496  1.0173
  807MOL0     N 8827  10.801  10.799   2.320  0.3237  0.6356  0.4844
  807MOL0     C 8828  10.724  10.814   2.202 -0.9863 -0.4870  0.7973
  807MOL0     C 8829  10.784  10.926   2.141 -0.4068  0.1501 -0.4635
  807MOL0     C 8830  10.723  10.999   2.023 -0.3875  0.2400 -0.3377
  807MOL0     C 8831  10.664  10.896   1.927 -0.1988  0.6267  0.8896
  807MOL0     C 8832  10.672  10.942   1.782 -0.8507 -0.0661 -0.2928
  807MOL0     C 8833  10.633  10.828   1.685  0.5715 -0.2514 -0.2990
  807MOL0     O 8834  10.674  10.853   1.552  0.1570 -0.3498 -0.8346
  807MOL0     C 8835  10.648  10.768   1.456  0.4133 -0.4971  0.1365
  807MOL0     C 8836  10.658  10.621   1.463 -0.4382  0.0988  0.2562
  807MOL0     C 8837  10.614  10.546   1.350  0.4165 -0.7008 -1.1942
  807MOL0     C 8838  10.565  10.603   1.229  0.1969 -0.5480  0.4668
  807MOL0     C 8839  10.555  10.525   1.100  0.5054 -0.9666 -0.1811
  807MOL0     O 8840  10.598  10.397   1.101  0.2260 -0.8188  0.3833
  807MOL0     C 8841  10.624  10.358   0.973 -0.0609 -0.1735  0.0107
  807MOL0     C 8842  10.740  10.396   0.912 -0.6817 -0.1739 -1.1989
  807MOL0     C 8843  10.789  10.339   0.797  1.1172 -0.0707 -0.1319
  807MOL0     C 8844  10.700  10.254   0.725  0.1666 -0.4774 -0.3477
  807MOL0     O 8845  10.751  10.207   0.603  0.5425 -0.1939 -0.1487
  807MOL0     C 8846  10.656  10.182   0.505 -0.4510  0.2008 -1.0130
  807MOL0     C 8847  10.734  10.149   0.380  0.0780  0.8835  0.2013
  807MOL0     C 8848  10.659  10.123   0.244 -0.7997 -0.2033 -0.6335
  807MOL0     C 8849  10.750  10.068   0.132  0.6587 -0.1109  0.0471
  807MOL0     C 8850  10.676  10.057  -0.002  0.3980  0.1933  0.6431
  807MOL0     C 8851  10.545   9.985   0.004 -0.0139  0.3001  0.0994
  807MOL0     C 8852  10.497   9.962  -0.139 -0.5855 -0.1648 -0.0202
  807MOL0     C 8853  10.377   9.873  -0.154 -0.2247  0.0168 -0.5733
  807MOL0    Cl 8854  10.225   9.966  -0.119  0.0242  0.2492 -0.7277
  807MOL0     C 8855  10.572  10.227   0.772  0.1962  0.1701 -0.7645
  807MOL0     C 8856  10.534  10.284   0.898  0.5244  0.9759 -0.6091
  807MOL0     O 8857  10.513  10.591   1.003  0.7965  0.6355  0.2289
  807MOL0     C 8858  10.545  10.745   1.236  0.5441  0.1104 -0.8792
  807MOL0     C 8859  10.585  10.822   1.345 -0.5282 -0.9135  1.2240
  807MOL0     N 8860  10.897  10.964   2.213  0.2268 -0.5954 -0.4669
  807MOL0     N 8861  10.908  10.883   2.308 -0.5314 -0.1888 -0.1370
  807MOL0     C 8862  10.030  10.312   2.074 -0.4880 -0.1757  0.5033
  807MOL0     C 8863   9.965  10.258   1.963  0.5545  0.0979  0.8975
  807MOL0     C 8864   9.754  10.181   1.561  0.0925 -0.4464 -0.3990
  807MOL0     C 8865   9.735  10.306   1.497 -0.1763  0.6867 -0.7293
  807MOL0     C 8866   9.687  10.306   1.368 -0.7681 -0.1316  0.5650
  807MOL0     C 8867   9.671  10.186   1.293 -0.0405  0.1451  0.7333
  807MOL0     O 8868   9.612  10.172   1.161 -0.0847 -0.1003 -0.9078
  807MOL0     C 8869   9.535  10.285   1.123 -0.1077 -0.0939  0.0598
  807MOL0     C 8870   9.456  10.269   0.993 -0.4760  0.6822  0.3291
  807MOL0     C 8871   9.391  10.401   0.943 -0.4579  0.2176 -0.1102
  807MOL0     C 8872   9.286  10.382   0.834 -0.0707 -0.3097 -0.0584
  807MOL0     C 8873   9.176  10.332   0.909 -0.2415  0.3962  0.7023
  807MOL0     C 8874   9.082  10.269   0.945 -0.8530 -0.5614 -0.0054
  807MOL0     C 8875   9.695  10.072   1.356  0.6151 -0.1223  0.3377
  807MOL0     C 8876   9.727  10.064   1.493  0.0792 -1.0726  0.6083
  807MOL0     C 8877   9.750   9.927   1.545 -0.3204 -0.2607 -1.3359
  807MOL0     H 8878   9.837  10.546   1.829 -1.9131  0.1849  1.6262
  807MOL0     H 8879   9.944  10.633   2.030 -3.1411  0.2280  0.8698
  807MOL0     H 8880  10.093  10.710   2.191 -1.2363  0.2059  0.0027
  807MOL0     H 8881   9.947  10.650   2.259  0.0929  1.7593 -0.6245
  807MOL0     H 8882  10.086  10.591   2.469  1.8435 -1.7449  1.1963
  807MOL0     H 8883  10.070  10.756   2.415 -2.1173 -0.8531 -1.3487
  807MOL0     H 8884  10.290  10.758   2.314 -0.7089  1.3224  1.3546
  807MOL0     H 8885  10.296  10.578   2.347  1.7488  0.1327  2.2381
  807MOL0     H 8886  10.309  10.797   2.568 -1.2064 -0.2475 -0.4380
  807MOL0     H 8887  10.291  10.624   2.583 -1.4307  2.3183  2.2570
  807MOL0     H 8888  10.502  10.640   2.641 -0.0706  1.5958  1.1258
  807MOL0     H 8889  10.515  10.582   2.473 -0.2821 -0.7652  2.0294
  807MOL0     H 8890  10.552  10.843   2.439 -1.6669 -1.8578 -0.0116
  807MOL0     H 8891  10.551  10.857   2.615  3.6575 -0.3031  1.1362
  807MOL0     H 8892  10.765  10.718   2.641  1.5920 -1.3887 -0.7016
  807MOL0     H 8893  10.779  10.868   2.554 -1.1206 -0.0757 -1.9414
  807MOL0     H 8894  10.871  10.635   2.445  1.1496  0.8299  0.9352
  807MOL0     H 8895  10.701  10.630   2.391  2.8642 -1.6043 -1.4272
  807MOL0     H 8896  10.629  10.770   2.173  1.1912 -4.6336 -0.9662
  807MOL0     H 8897  10.642  11.060   2.062 -0.2826  0.4212 -0.4009
  807MOL0     H 8898  10.799  11.063   1.978 -0.2069 -0.8620 -1.6636
  807MOL0     H 8899  10.718  10.802   1.933 -2.6482 -1.1470 -2.0402
  807MOL0     H 8900  10.561  10.862   1.943 -0.8388  0.7586 -2.3110
  807MOL0     H 8901  10.773  10.980   1.766 -0.5226 -0.1450  1.4188
  807MOL0     H 8902  10.594  11.015   1.758  2.3078  3.8080  0.1829
  807MOL0     H 8903  10.525  10.813   1.694  0.8296 -1.4098  1.1907
  807MOL0     H 8904  10.671  10.734   1.726 -1.1585  0.1343  2.4201
  807MOL0     H 8905  10.714  10.567   1.538  0.3982 -1.6241 -1.5272
  807MOL0     H 8906  10.617  10.438   1.346  0.1000 -0.7740  0.2939
  807MOL0     H 8907  10.816  10.455   0.962 -0.0416 -0.7779 -1.4428
  807MOL0     H 8908  10.882  10.359   0.745  0.9953  0.6976 -0.0696
  807MOL0     H 8909  10.597  10.094   0.534 -2.5507  2.2707  1.4485
  807MOL0     H 8910  10.590  10.267   0.485 -0.5466 -0.0227 -1.6602
  807MOL0     H 8911  10.805  10.232   0.373 -1.6875  2.6429  1.9748
  807MOL0     H 8912  10.794  10.062   0.406  1.6600  2.1737  1.0794
  807MOL0     H 8913  10.586  10.045   0.267 -1.6640  0.0957 -2.1907
  807MOL0     H 8914  10.612  10.216   0.211 -0.6548  0.4515  0.9206
  807MOL0     H 8915  10.795   9.970   0.150  1.0162  0.2300  1.0910
  807MOL0     H 8916  10.833  10.139   0.124 -0.5102  1.9694  3.7122
  807MOL0     H 8917  10.741  10.002  -0.070  0.1895  2.1299 -1.2252
  807MOL0     H 8918  10.665  10.159  -0.039  2.4320  0.3068  0.2197
  807MOL0     H 8919  10.557   9.886   0.049  0.7417 -0.2221 -1.1920
  807MOL0     H 8920  10.475  10.043   0.066  1.9500  1.0068  1.7587
  807MOL0     H 8921  10.583   9.908  -0.180  0.8845  1.8985  0.1701
  807MOL0     H 8922  10.481  10.061  -0.183  1.1201  0.2865  0.2947
  807MOL0     H 8923  10.375   9.842  -0.259 -1.3320  2.3140 -1.2723
  807MOL0     H 8924  10.390   9.780  -0.097  3.0326  1.1980  0.9242
  807MOL0     H 8925  10.508  10.160   0.716 -1.0361  2.8041 -2.7173
  807MOL0     H 8926  10.447  10.247   0.951  0.2566  0.8386 -1.1336
  807MOL0     H 8927  10.502  10.797   1.150  0.7089  0.3822 -0.7973
  807MOL0     H 8928  10.575  10.928   1.362 -2.1207 -0.7808 -0.1722
  807MOL0     H 8929  10.102  10.244   2.119 -0.0088 -3.2782 -4.1794
  807MOL0     H 8930   9.963  10.150   1.954 -0.6315  0.2442 -1.1967
  807MOL0     H 8931   9.744  10.399   1.552  1.7266 -1.1356  2.2772
  807MOL0     H 8932   9.685  10.410   1.337 -1.7841  0.4600  2.4824
  807MOL0     H 8933   9.588  10.381   1.110 -1.7385  1.1495  1.9961
  807MOL0     H 8934   9.461  10.306   1.200  0.9986 -0.8744  1.3891
  807MOL0     H 8935   9.382  10.197   1.029  1.5510 -0.8699  1.6269
  807MOL0     H 8936   9.512  10.228   0.908 -0.8103 -0.3793  0.6013
  807MOL0     H 8937   9.467  10.464   0.896  0.5727 -1.9301 -1.4360
  807MOL0     H 8938   9.359  10.458   1.031  0.4369 -0.1287  0.4500
  807MOL0     H 8939   9.267  10.477   0.784  1.2700 -0.6122 -1.2054
  807MOL0     H 8940   9.322  10.303   0.767  1.4771  0.0620  0.2924
  807MOL0     H 8941   9.004  10.201   0.972 -0.4258 -0.5158  1.4455
  807MOL0     H 8942   9.682   9.981   1.299  0.9623 -1.7072  2.6574
  807MOL0     H 8943   9.687   9.866   1.480 -0.6681 -2.5573  1.0103
  807MOL0     H 8944   9.855   9.898   1.548 -0.2688 -0.3692 -3.2371
  807MOL0     H 8945   9.704   9.906   1.642  0.4041 -0.0251 -0.9354
  808MOL0     O 8946   2.272  11.513   7.148  0.4583 -0.2284 -0.1772
  808MOL0     C 8947   2.151  11.498   7.143 -0.2331  0.4871 -0.7569
  808MOL0     O 8948   2.064  11.591   7.135  0.4853 -0.0490  0.1705
  808MOL0     C 8949   2.101  11.720   7.130  0.5873 -0.0821 -0.6433
  808MOL0     C 8950   2.180  11.776   7.227 -0.9678 -0.2191 -0.0522
  808MOL0     C 8951   2.231  11.903   7.220  0.2166  0.0084 -0.9626
  808MOL0     C 8952   2.188  11.979   7.108  0.1211  0.6254  0.0044
  808MOL0     O 8953   2.237  12.110   7.085  0.2529 -0.6322  0.2078
  808MOL0     C 8954   2.140  12.217   7.089  1.0041  1.1736 -0.3813
  808MOL0     C 8955   2.164  12.301   7.222 -0.0212 -0.8149  0.2870
  808MOL0     C 8956   2.293  12.383   7.220  0.5428  0.2351  0.1196
  808MOL0     C 8957   2.300  12.486   7.104 -0.6748 -0.0334 -0.6758
  808MOL0     C 8958   2.432  12.550   7.091  0.3574 -1.4834  0.1770
  808MOL0     C 8959   2.432  12.700   7.148 -0.1580 -0.1905 -0.6482
  808MOL0     C 8960   2.448  12.728   7.299  0.0609  0.1662 -0.4970
  808MOL0     C 8961   2.582  12.721   7.369  0.9789  0.7160 -0.6768
  808MOL0     N 8962   2.625  12.580   7.383  0.2602  0.2924  0.1684
  808MOL0     C 8963   2.564  12.490   7.474 -0.3511 -0.2921 -0.8351
  808MOL0     C 8964   2.581  12.370   7.429  0.3395  0.6763  0.4380
  808MOL0     C 8965   2.533  12.242   7.489  0.4271  0.3091  0.7977
  808MOL0     C 8966   2.393  12.240   7.527  0.5032  0.3472 -0.2943
  808MOL0     C 8967   2.366  12.166   7.654  0.1614 -0.2583 -0.1365
  808MOL0     C 8968   2.418  12.021   7.653  0.5001  0.4571  0.1481
  808MOL0     O 8969   2.395  11.961   7.529 -0.1781  0.1402  0.8874
  808MOL0     C 8970   2.442  11.836   7.526 -0.6713 -0.4612 -0.6375
  808MOL0     C 8971   2.357  11.739   7.571  0.9776  0.1366  0.7389
  808MOL0     C 8972   2.393  11.603   7.572 -0.2282 -0.2343 -0.1208
  808MOL0     C 8973   2.509  11.563   7.500  0.7081 -0.1113  0.0687
  808MOL0     C 8974   2.547  11.415   7.487  0.2087  0.1672 -0.0369
  808MOL0     O 8975   2.453  11.322   7.529 -0.1995  0.6279  0.8304
  808MOL0     C 8976   2.480  11.185   7.530  0.6330 -0.2831  0.3134
  808MOL0     C 8977   2.372  11.094   7.503 -0.3132 -0.0907 -0.3792
  808MOL0     C 8978   2.398  10.955   7.499  0.4097 -0.2791 -0.5274
  808MOL0     C 8979   2.518  10.904   7.554  0.1612 -0.4708  1.2789
  808MOL0     O 8980   2.535  10.769   7.566  0.1641  0.1157  0.1625
  808MOL0     C 8981   2.424  10.681   7.557  0.0701 -0.1160  0.2238
  808MOL0     C 8982   2.465  10.551   7.639 -0.5138  0.9705  0.0810
  808MOL0     C 8983   2.490  10.579   7.788  0.2034 -0.0094 -0.0544
  808MOL0     C 8984   2.573  10.473   7.861 -0.1851 -0.4586 -0.0926
  808MOL0     C 8985   2.507  10.335   7.853 -0.2861  0.2083 -0.2884
  808MOL0     C 8986   2.559  10.243   7.966  0.4199 -1.4450  0.0505
  808MOL0     C 8987   2.470  10.262   8.098 -0.4263  0.4455 -0.4846
  808MOL0     C 8988   2.564  10.272   8.226  0.6012  0.2273 -0.3995
  808MOL0    Cl 8989   2.608  10.103   8.257  0.4795 -0.5316  0.2268
  808MOL0     C 8990   2.618  10.991   7.589  0.0692  0.1411 -0.5382
  808MOL0     C 8991   2.595  11.130   7.580  0.0746  0.9739 -1.1657
  808MOL0     O 8992   2.663  11.398   7.458 -0.0021  0.6385 -0.2357
  808MOL0     C 8993   2.581  11.665   7.430  0.5560  0.7425  0.0965
  808MOL0     C 8994   2.551  11.804   7.457 -0.9272 -0.1711  0.7211
  808MOL0     N 8995   2.660  12.389   7.311 -0.1574  0.6754  0.7870
  808MOL0     N 8996   2.695  12.509   7.290 -0.0199  0.0623  0.7624
  808MOL0     C 8997   2.119  11.921   6.999 -0.1196  0.2653 -0.1175
  808MOL0     C 8998   2.064  11.792   7.012 -0.3213  0.5243  0.2377
  808MOL0     C 8999   2.096  11.356   7.158  0.0022 -0.3816  0.5542
  808MOL0     C 9000   1.956  11.336   7.170  0.4586  0.4455  0.0202
  808MOL0     C 9001   1.898  11.205   7.176 -0.3252  0.2035 -0.1764
  808MOL0     C 9002   1.981  11.089   7.179 -0.0512  1.3958 -0.4577
  808MOL0     O 9003   1.940  10.955   7.196  0.7630 -0.1521  0.2987
  808MOL0     C 9004   1.793  10.921   7.188 -0.3360  1.0139 -0.4325
  808MOL0     C 9005   1.722  10.950   7.062 -0.1268  0.0719  0.7344
  808MOL0     C 9006   1.786  10.873   6.940 -1.1603  0.0729  0.0282
  808MOL0     C 9007   1.672  10.811   6.839  0.2977 -1.2117  0.5674
  808MOL0     C 9008   1.597  10.706   6.904  0.6775 -1.1393  0.1616
  808MOL0     C 9009   1.522  10.613   6.938 -0.4957 -0.2601 -0.0493
  808MOL0     C 9010   2.123  11.111   7.174 -1.1199 -0.2682 -0.0682
  808MOL0     C 9011   2.179  11.246   7.171 -0.8387  0.7054  0.7391
  808MOL0     C 9012   2.332  11.243   7.179 -0.6376  0.4594 -0.3322
  808MOL0     H 9013   2.206  11.718   7.315 -1.5619 -2.0846 -1.0395
  808MOL0     H 9014   2.307  11.946   7.285 -0.7808 -0.1803  0.3742
  808MOL0     H 9015   2.151  12.276   6.997 -2.9707  0.2729 -1.6473
  808MOL0     H 9016   2.042  12.167   7.089  0.4081  2.2815 -1.1498
  808MOL0     H 9017   2.152  12.231   7.306 -1.7146 -0.9066  0.0136
  808MOL0     H 9018   2.079  12.368   7.232  1.5729  1.3125  0.1303
  808MOL0     H 9019   2.380  12.321   7.197  1.3742  1.6229 -0.6631
  808MOL0     H 9020   2.318  12.441   7.309  1.7667  2.9809 -1.8523
  808MOL0     H 9021   2.288  12.439   7.007 -0.9728  2.4151 -1.9111
  808MOL0     H 9022   2.218  12.558   7.113  1.4778  2.6984 -1.5945
  808MOL0     H 9023   2.510  12.491   7.139  0.7159  1.0273  3.0004
  808MOL0     H 9024   2.457  12.568   6.986  1.0560 -0.1190  0.5542
  808MOL0     H 9025   2.505  12.760   7.093  1.9848  0.5218  2.6877
  808MOL0     H 9026   2.335  12.739   7.115  0.0236  0.9504  0.1122
  808MOL0     H 9027   2.384  12.652   7.345  1.7858 -2.1570 -1.7121
  808MOL0     H 9028   2.405  12.827   7.317 -1.0145 -0.9542  4.9856
  808MOL0     H 9029   2.663  12.769   7.312  1.4632 -0.5203 -1.0719
  808MOL0     H 9030   2.573  12.765   7.468 -0.3743  0.5395 -0.7129
  808MOL0     H 9031   2.494  12.512   7.554  4.0440 -0.0586  3.4077
  808MOL0     H 9032   2.545  12.157   7.421 -1.6590  0.1983  0.4940
  808MOL0     H 9033   2.598  12.218   7.574 -0.9944  0.2988  1.9149
  808MOL0     H 9034   2.344  12.337   7.536  0.0955 -0.0266  5.3043
  808MOL0     H 9035   2.335  12.195   7.446  1.3300 -2.1593  0.3903
  808MOL0     H 9036   2.260  12.162   7.681 -0.2163  1.2109 -1.3220
  808MOL0     H 9037   2.404  12.219   7.742 -0.9672  0.0588  0.1774
  808MOL0     H 9038   2.369  11.963   7.731 -3.3569 -0.6840 -2.8373
  808MOL0     H 9039   2.523  12.027   7.683 -0.3837  0.3464  3.6566
  808MOL0     H 9040   2.271  11.756   7.636  1.0315  0.7541  0.6599
  808MOL0     H 9041   2.335  11.525   7.621  1.0581 -1.5513 -0.6023
  808MOL0     H 9042   2.269  11.128   7.490 -0.5281  0.5361  2.4480
  808MOL0     H 9043   2.314  10.888   7.485 -1.7318  2.4164 -1.4536
  808MOL0     H 9044   2.332  10.728   7.594  2.0034  3.8742  0.5640
  808MOL0     H 9045   2.409  10.664   7.450 -4.8722  1.6636  0.3934
  808MOL0     H 9046   2.376  10.487   7.637 -0.3886  0.8052 -0.2291
  808MOL0     H 9047   2.551  10.502   7.594 -0.9483  0.6183 -0.3809
  808MOL0     H 9048   2.555  10.667   7.786 -1.8401  1.6950 -4.4611
  808MOL0     H 9049   2.391  10.594   7.833  0.0541  1.2692 -0.7615
  808MOL0     H 9050   2.601  10.515   7.958  2.6669 -0.9139 -0.6488
  808MOL0     H 9051   2.667  10.461   7.808 -1.1857  2.6247 -2.8687
  808MOL0     H 9052   2.535  10.290   7.757  3.3131  0.1832  0.6240
  808MOL0     H 9053   2.399  10.347   7.858 -0.3888 -0.3349 -1.1163
  808MOL0     H 9054   2.542  10.139   7.936  0.8644 -1.4074 -0.3281
  808MOL0     H 9055   2.662  10.270   7.989  1.0058 -1.8461 -1.8905
  808MOL0     H 9056   2.391  10.187   8.095 -0.8297  0.8236  0.4441
  808MOL0     H 9057   2.429  10.363   8.092 -0.2256  0.4860 -1.4803
  808MOL0     H 9058   2.648  10.339   8.204  2.0203 -2.1796 -2.9653
  808MOL0     H 9059   2.507  10.305   8.313 -1.0772 -1.3753 -0.8175
  808MOL0     H 9060   2.720  10.957   7.606  0.4317  1.0865 -0.7859
  808MOL0     H 9061   2.682  11.190   7.606  2.2171 -2.3748  0.1407
  808MOL0     H 9062   2.658  11.640   7.357 -0.6433 -4.2472  0.1825
  808MOL0     H 9063   2.607  11.885   7.411 -1.7360 -0.9119 -1.7261
  808MOL0     H 9064   2.091  11.983   6.915  0.7214  4.5877  2.4386
  808MOL0     H 9065   2.015  11.745   6.927  0.7123 -0.0775 -0.0377
  808MOL0     H 9066   1.892  11.423   7.182  0.2902  0.2791  0.3294
  808MOL0     H 9067   1.793  11.182   7.193  0.1680 -1.2433  1.1683
  808MOL0     H 9068   1.739  10.974   7.266  0.5823 -1.6707  2.2266
  808MOL0     H 9069   1.785  10.813   7.204  2.1847  0.5914 -1.5032
  808MOL0     H 9070   1.723  11.056   7.035  2.0039 -0.2729 -0.8398
  808MOL0     H 9071   1.616  10.923   7.073 -0.3729  0.5286 -0.3831
  808MOL0     H 9072   1.855  10.792   6.966 -0.0138 -1.6305 -6.3976
  808MOL0     H 9073   1.845  10.940   6.875  1.5150 -2.8972 -0.8406
  808MOL0     H 9074   1.615  10.895   6.800  2.2337 -0.1712 -0.1825
  808MOL0     H 9075   1.719  10.774   6.747 -0.5676 -1.7074  0.3089
  808MOL0     H 9076   1.469  10.526   6.971 -1.2211  0.2862  0.2422
  808MOL0     H 9077   2.194  11.029   7.176 -2.0198 -1.2616 -3.1234
  808MOL0     H 9078   2.371  11.277   7.082 -1.4208  1.3327 -0.3647
  808MOL0     H 9079   2.378  11.298   7.262 -0.9922  0.0544  0.1408
  808MOL0     H 9080   2.386  11.151   7.202  2.0422  1.2618 -2.7706
  809MOL0     O 9081   6.098  10.172   7.508 -0.2505 -0.0164  0.0584
  809MOL0     C 9082   6.089  10.148   7.387 -0.3723 -0.1096 -0.2452
  809MOL0     O 9083   5.973  10.109   7.320 -0.0034 -0.2396  0.4553
  809MOL0     C 9084   5.859  10.084   7.397 -0.0359 -0.3547  0.4893
  809MOL0     C 9085   5.770   9.985   7.343 -0.4436  0.5427 -0.2488
  809MOL0     C 9086   5.659   9.937   7.418 -0.1728 -0.7009 -0.3315
  809MOL0     C 9087   5.621   9.999   7.533  0.5087  0.0818  0.2549
  809MOL0     O 9088   5.515   9.954   7.603  0.6804 -0.5445  0.0510
  809MOL0     C 9089   5.531   9.907   7.741  0.9001 -0.4647  0.7996
  809MOL0     C 9090   5.408   9.828   7.795  0.6640  0.7322 -0.1049
  809MOL0     C 9091   5.266   9.865   7.721  0.2726 -0.2245 -0.0116
  809MOL0     C 9092   5.165   9.845   7.835 -0.4136  0.6932  0.4011
  809MOL0     C 9093   5.019   9.863   7.790 -0.2122  0.5892 -0.3656
  809MOL0     C 9094   4.957   9.997   7.782  0.0466 -0.3289 -0.2556
  809MOL0     C 9095   4.815   9.996   7.716  0.1232 -0.1023  0.1055
  809MOL0     C 9096   4.808  10.046   7.568 -0.8224  0.5268  0.8053
  809MOL0     N 9097   4.924  10.000   7.480  0.0770  0.5949  0.7677
  809MOL0     C 9098   5.044  10.064   7.444  0.3996 -0.0091  0.0945
  809MOL0     C 9099   5.110   9.978   7.364  0.3635 -0.1757 -1.0498
  809MOL0     C 9100   5.253   9.996   7.310  0.3102 -0.0400 -0.1543
  809MOL0     C 9101   5.242  10.067   7.170 -0.0192  0.7315 -0.6133
  809MOL0     C 9102   5.372  10.092   7.110 -0.7561 -0.2038 -0.7323
  809MOL0     C 9103   5.467   9.976   7.084  0.4473  0.8205  0.0846
  809MOL0     O 9104   5.573  10.021   6.996  0.2511 -0.0847  0.0524
  809MOL0     C 9105   5.678   9.935   6.970 -0.3918 -0.7190 -0.4522
  809MOL0     C 9106   5.794   9.994   6.939 -0.5121  0.1689 -0.1912
  809MOL0     C 9107   5.913   9.923   6.924 -1.0296 -0.1865 -0.0704
  809MOL0     C 9108   5.914   9.781   6.931 -0.6163 -0.9858 -0.3759
  809MOL0     C 9109   6.048   9.712   6.922 -0.0686  0.6783 -0.0189
  809MOL0     O 9110   6.142   9.790   6.872  0.0945  0.5316  0.2742
  809MOL0     C 9111   6.276   9.762   6.861 -0.1412 -0.2142 -0.6489
  809MOL0     C 9112   6.357   9.867   6.805  0.6192  1.0584 -0.5704
  809MOL0     C 9113   6.500   9.860   6.806  0.4479  0.8947  0.1255
  809MOL0     C 9114   6.566   9.740   6.846 -0.6207  0.5660  0.5501
  809MOL0     O 9115   6.700   9.718   6.849  0.2235 -0.8909  0.0479
  809MOL0     C 9116   6.763   9.759   6.969 -0.0228  0.2202 -0.4179
  809MOL0     C 9117   6.905   9.734   6.933  0.0506  1.0359  0.2492
  809MOL0     C 9118   6.986   9.793   7.044 -0.3409  0.3698  0.0741
  809MOL0     C 9119   7.139   9.769   7.026 -0.3067  0.9508  0.0591
  809MOL0     C 9120   7.219   9.806   7.156  0.0179 -0.0682  0.4543
  809MOL0     C 9121   7.367   9.779   7.137  0.1374  0.2490  0.5276
  809MOL0     C 9122   7.396   9.647   7.061  0.3983  0.1780  0.7150
  809MOL0     C 9123   7.544   9.622   7.048 -0.6210 -0.1604 -0.1862
  809MOL0    Cl 9124   7.619   9.545   7.187 -0.5602  0.1025  0.0760
  809MOL0     C 9125   6.496   9.642   6.896 -1.0982 -0.4609  0.3877
  809MOL0     C 9126   6.352   9.654   6.910 -0.0971  0.5644  0.4769
  809MOL0     O 9127   6.055   9.585   6.935  0.0141 -0.4123 -0.2148
  809MOL0     C 9128   5.798   9.721   6.973  0.3748  0.0261 -0.3182
  809MOL0     C 9129   5.678   9.792   6.989  0.0829 -0.2794  0.4846
  809MOL0     N 9130   5.031   9.862   7.355  0.1353  0.7105 -0.3858
  809MOL0     N 9131   4.926   9.871   7.424  0.4420  0.9411  0.0995
  809MOL0     C 9132   5.703  10.106   7.580 -0.6191  0.8245 -0.2290
  809MOL0     C 9133   5.822  10.147   7.515 -0.8690 -0.0816 -1.2673
  809MOL0     C 9134   6.217  10.175   7.302  1.1017 -0.6827  0.1383
  809MOL0     C 9135   6.233  10.100   7.181 -0.7111 -0.3731  0.3205
  809MOL0     C 9136   6.346  10.133   7.102  0.1188 -0.1910 -0.1668
  809MOL0     C 9137   6.432  10.232   7.130 -0.3867  0.9234  0.1479
  809MOL0     O 9138   6.537  10.244   7.038  0.1585  0.3233 -0.9739
  809MOL0     C 9139   6.664  10.282   7.090 -0.2899  0.3588 -1.7832
  809MOL0     C 9140   6.755  10.284   6.970  0.7215 -0.2604 -1.1228
  809MOL0     C 9141   6.892  10.330   7.020 -1.4259 -0.6168  0.5116
  809MOL0     C 9142   6.974  10.361   6.891  0.2282  0.5712  0.5362
  809MOL0     C 9143   7.108  10.412   6.915  0.2440 -1.3303 -0.1219
  809MOL0     C 9144   7.218  10.462   6.941 -0.5890 -0.4296  0.2505
  809MOL0     C 9145   6.415  10.304   7.248  0.0201 -0.1243 -0.5899
  809MOL0     C 9146   6.302  10.287   7.325  0.1387 -0.5659 -0.1584
  809MOL0     C 9147   6.278  10.387   7.432  0.2382  0.5218 -0.0802
  809MOL0     H 9148   5.804   9.940   7.250  2.3330  1.4852  0.2217
  809MOL0     H 9149   5.604   9.846   7.399  1.7345 -2.4696  1.9510
  809MOL0     H 9150   5.618   9.842   7.749  0.0778 -1.3665  3.4839
  809MOL0     H 9151   5.552   9.993   7.805 -0.1742 -0.8624  1.7246
  809MOL0     H 9152   5.404   9.836   7.904 -0.0139  2.1026 -0.2087
  809MOL0     H 9153   5.424   9.721   7.774 -0.2332 -0.0024  2.5696
  809MOL0     H 9154   5.255   9.793   7.640  2.2369  1.7317 -2.1366
  809MOL0     H 9155   5.254   9.965   7.678 -2.9264 -1.4530 -2.4246
  809MOL0     H 9156   5.174   9.749   7.886  0.0576 -0.5349 -1.8718
  809MOL0     H 9157   5.188   9.919   7.911  1.4422  1.5778 -0.9477
  809MOL0     H 9158   5.007   9.821   7.689 -1.8977  1.9631 -0.7639
  809MOL0     H 9159   4.950   9.811   7.857  0.7023  0.9907  0.9193
  809MOL0     H 9160   4.936  10.029   7.885  0.9949 -2.4754  0.6688
  809MOL0     H 9161   5.019  10.069   7.729  1.3338 -1.9138 -0.9585
  809MOL0     H 9162   4.744  10.059   7.771 -0.1357  2.9282 -3.3341
  809MOL0     H 9163   4.772   9.897   7.734 -0.9362  0.5738  1.5817
  809MOL0     H 9164   4.711  10.022   7.524 -0.4924 -1.4520  1.0556
  809MOL0     H 9165   4.831  10.153   7.573 -0.0227  0.5207 -1.5720
  809MOL0     H 9166   5.072  10.165   7.471 -1.3461  0.4337  0.3819
  809MOL0     H 9167   5.310  10.056   7.381  1.0155  1.5493 -1.9995
  809MOL0     H 9168   5.296   9.895   7.306 -2.1584 -1.1178 -2.0337
  809MOL0     H 9169   5.173  10.016   7.102 -2.6046 -0.3507  2.5867
  809MOL0     H 9170   5.203  10.168   7.184 -0.4414  0.5956 -0.8191
  809MOL0     H 9171   5.425  10.163   7.174  1.3437 -1.0789 -1.4080
  809MOL0     H 9172   5.345  10.145   7.018 -2.6052  1.3435  0.6237
  809MOL0     H 9173   5.411   9.894   7.038  0.4414  2.9562 -4.3100
  809MOL0     H 9174   5.508   9.948   7.181  3.4761  0.3578 -1.2275
  809MOL0     H 9175   5.800  10.101   6.922  0.4344  0.4056  1.4077
  809MOL0     H 9176   5.994   9.989   6.895 -1.0401 -0.1731 -0.0687
  809MOL0     H 9177   6.324   9.967   6.782  0.1180  1.1273  0.3609
  809MOL0     H 9178   6.559   9.947   6.781  1.0620  0.3891 -0.2201
  809MOL0     H 9179   6.747   9.866   6.986  0.7769  0.1136  1.1608
  809MOL0     H 9180   6.734   9.700   7.056 -3.4336 -1.3559 -2.4109
  809MOL0     H 9181   6.919   9.625   6.932  2.0856  1.2531 -1.3099
  809MOL0     H 9182   6.934   9.771   6.834  0.1064  0.2001 -0.0582
  809MOL0     H 9183   6.967   9.901   7.054 -1.6105  0.1653  0.0450
  809MOL0     H 9184   6.955   9.749   7.140 -0.1538  0.5617  0.2249
  809MOL0     H 9185   7.164   9.825   6.935  2.7505 -1.5559 -0.7950
  809MOL0     H 9186   7.151   9.665   6.996  0.7788  0.8335  0.8522
  809MOL0     H 9187   7.195   9.744   7.243  1.4513 -2.6154 -0.8526
  809MOL0     H 9188   7.203   9.910   7.187 -2.2375 -0.7789  1.9151
  809MOL0     H 9189   7.411   9.857   7.073 -0.3978  0.3529  0.2808
  809MOL0     H 9190   7.415   9.787   7.235  2.1902 -1.6978 -0.2454
  809MOL0     H 9191   7.356   9.669   6.962  0.4842  6.3664  1.6706
  809MOL0     H 9192   7.353   9.560   7.111  3.7891  0.5406  4.8941
  809MOL0     H 9193   7.570   9.563   6.960  0.9159  1.5624 -0.9399
  809MOL0     H 9194   7.588   9.717   7.018 -2.7343  0.1201 -2.7539
  809MOL0     H 9195   6.546   9.550   6.923 -0.4800 -0.3031 -0.1957
  809MOL0     H 9196   6.303   9.573   6.964  0.9480  0.7714  1.7868
  809MOL0     H 9197   5.810   9.614   6.991 -1.7067 -0.8533 -3.4049
  809MOL0     H 9198   5.584   9.751   7.022 -0.6573 -1.2818 -2.6016
  809MOL0     H 9199   5.676  10.149   7.676  0.6422  1.4081 -0.1250
  809MOL0     H 9200   5.874  10.232   7.561  0.5124 -1.8507  0.6740
  809MOL0     H 9201   6.164  10.019   7.162 -0.1122 -1.4235  2.2815
  809MOL0     H 9202   6.363  10.089   7.004  0.6294 -1.0675  0.3047
  809MOL0     H 9203   6.686  10.216   7.174 -1.9448  1.0820 -0.7091
  809MOL0     H 9204   6.654  10.380   7.138 -3.0197 -1.2255  1.3496
  809MOL0     H 9205   6.719  10.354   6.895  4.5753  0.3806 -2.5828
  809MOL0     H 9206   6.758  10.182   6.931  1.4554  0.9403 -4.5147
  809MOL0     H 9207   6.954  10.262   7.080 -0.3963  0.9621  1.3025
  809MOL0     H 9208   6.877  10.424   7.074 -3.3795  1.2450 -2.9423
  809MOL0     H 9209   6.998  10.270   6.834 -2.5008  2.1072 -3.4376
  809MOL0     H 9210   6.915  10.423   6.824  0.2243 -0.5237 -0.5151
  809MOL0     H 9211   7.317  10.498   6.962 -0.9509  2.2956 -1.9924
  809MOL0     H 9212   6.488  10.377   7.281  1.3898 -0.6925 -2.2416
  809MOL0     H 9213   6.310  10.365   7.534 -6.5279 -0.7034  2.2452
  809MOL0     H 9214   6.313  10.484   7.395  0.1308  0.1869 -1.1050
  809MOL0     H 9215   6.173  10.396   7.460  0.8934  1.2041  2.3494
  810MOL0     O 9216   6.409   2.318   4.473 -0.2289 -0.0287  0.2924
  810MOL0     C 9217   6.494   2.270   4.543  0.2297 -0.5500  0.0710
  810MOL0     O 9218   6.564   2.333   4.644  0.5321 -0.0117 -0.4560
  810MOL0     C 9219   6.553   2.463   4.660  0.2069  0.8062  1.3616
  810MOL0     C 9220   6.576   2.549   4.550 -0.3086 -0.0848 -0.3846
  810MOL0     C 9221   6.578   2.686   4.562  0.4957  0.9807  0.2315
  810MOL0     C 9222   6.576   2.742   4.691  0.4666  0.9064  0.0562
  810MOL0     O 9223   6.554   2.879   4.699  0.2623  0.0985 -0.2477
  810MOL0     C 9224   6.538   2.940   4.828  0.1666 -0.1192 -0.2193
  810MOL0     C 9225   6.555   3.099   4.812  0.4881  0.4589 -0.5264
  810MOL0     C 9226   6.449   3.174   4.730  0.3117  0.2550  0.6771
  810MOL0     C 9227   6.506   3.214   4.594 -1.0890  0.2487 -0.1014
  810MOL0     C 9228   6.429   3.329   4.526 -1.0934 -0.6487 -0.3979
  810MOL0     C 9229   6.303   3.266   4.454  0.3701  0.1658  0.9639
  810MOL0     C 9230   6.224   3.375   4.383  0.4896 -0.2107 -0.2995
  810MOL0     C 9231   6.142   3.459   4.482 -0.5618 -0.6855 -1.2253
  810MOL0     N 9232   6.053   3.558   4.412  0.7401  0.0999 -0.0738
  810MOL0     C 9233   5.937   3.513   4.350 -0.2156 -0.4199 -0.7155
  810MOL0     C 9234   5.895   3.623   4.287  1.3679 -0.1547  0.2961
  810MOL0     C 9235   5.763   3.631   4.225  0.9267 -0.5556  0.1652
  810MOL0     C 9236   5.692   3.747   4.282  0.3523 -0.1073  0.3117
  810MOL0     C 9237   5.553   3.752   4.214 -0.9466 -0.3808  0.6459
  810MOL0     C 9238   5.470   3.633   4.248 -0.5861  0.0075  0.2118
  810MOL0     O 9239   5.482   3.600   4.396 -0.5373 -0.6313  0.2075
  810MOL0     C 9240   5.437   3.477   4.428 -1.4428 -0.9392  0.1771
  810MOL0     C 9241   5.499   3.370   4.367  0.2072  0.8694  0.6291
  810MOL0     C 9242   5.449   3.250   4.387  0.4614  0.6500 -0.1597
  810MOL0     C 9243   5.337   3.225   4.472 -0.5283 -1.3351  0.5751
  810MOL0     C 9244   5.296   3.085   4.506 -0.6171 -0.2558  0.5091
  810MOL0     O 9245   5.177   3.072   4.571  0.8598 -0.2098 -0.1525
  810MOL0     C 9246   5.116   2.952   4.595  0.8373  0.5538  1.1472
  810MOL0     C 9247   5.110   2.838   4.508 -0.0703 -0.1819  0.3762
  810MOL0     C 9248   5.032   2.725   4.535  0.9409  0.0411  0.0971
  810MOL0     C 9249   4.975   2.709   4.667 -0.1167  0.6475  0.6288
  810MOL0     O 9250   4.907   2.592   4.704  0.3029 -0.0805 -0.1411
  810MOL0     C 9251   4.940   2.469   4.637  1.0131  0.2478  0.2170
  810MOL0     C 9252   4.856   2.348   4.685  1.1467  0.1034 -0.2243
  810MOL0     C 9253   4.711   2.388   4.677 -0.2443 -0.0705 -0.7543
  810MOL0     C 9254   4.654   2.382   4.821  0.2485  0.6199 -0.1779
  810MOL0     C 9255   4.514   2.437   4.818 -0.5801 -0.2855  0.7742
  810MOL0     C 9256   4.476   2.484   4.948  0.4549 -0.5740 -0.9530
  810MOL0     C 9257   4.332   2.543   4.976 -0.6145  0.7021  0.1434
  810MOL0     C 9258   4.331   2.695   5.006  0.6978  0.4926  0.4839
  810MOL0    Cl 9259   4.406   2.738   5.152  0.1624 -0.5432 -0.3550
  810MOL0     C 9260   4.987   2.811   4.761 -0.2533 -0.2659  0.4708
  810MOL0     C 9261   5.061   2.926   4.721 -0.1345  0.5125  0.9922
  810MOL0     O 9262   5.375   2.993   4.472  0.0961  0.2780 -0.4075
  810MOL0     C 9263   5.280   3.339   4.525  0.2499  0.5149  0.6704
  810MOL0     C 9264   5.327   3.463   4.507 -0.4993  0.6844  0.3897
  810MOL0     N 9265   5.980   3.724   4.308 -0.0575  0.3906  0.6604
  810MOL0     N 9266   6.068   3.691   4.391  0.1406 -0.7970  0.6220
  810MOL0     C 9267   6.552   2.659   4.800  0.4026 -0.4017 -0.3485
  810MOL0     C 9268   6.540   2.520   4.787 -0.9064  0.0561  0.0285
  810MOL0     C 9269   6.497   2.130   4.554  1.3546 -0.4660  0.1253
  810MOL0     C 9270   6.468   2.070   4.678  0.1613 -0.2438  0.3245
  810MOL0     C 9271   6.440   1.932   4.682 -0.0284 -0.2278  0.3554
  810MOL0     C 9272   6.447   1.852   4.567  0.8537 -0.1595  0.2739
  810MOL0     O 9273   6.435   1.713   4.563  0.3491 -0.1357  0.8712
  810MOL0     C 9274   6.398   1.642   4.680 -0.9092  0.0712  0.1973
  810MOL0     C 9275   6.388   1.497   4.648  0.2662  0.0752 -0.7698
  810MOL0     C 9276   6.517   1.422   4.620  0.1600 -0.0434  0.3776
  810MOL0     C 9277   6.603   1.421   4.745  0.0112 -0.3525 -0.3586
  810MOL0     C 9278   6.554   1.344   4.862  0.3653  0.0833  0.9131
  810MOL0     C 9279   6.502   1.288   4.955  0.1360 -0.2296  0.1143
  810MOL0     C 9280   6.484   1.912   4.448 -0.6660  0.3052 -0.7824
  810MOL0     C 9281   6.500   2.054   4.437 -0.0289  0.2530  0.2107
  810MOL0     C 9282   6.518   2.116   4.299  0.0267 -0.7244 -0.1493
  810MOL0     H 9283   6.603   2.492   4.461  0.4377 -1.0529  0.4411
  810MOL0     H 9284   6.575   2.752   4.476 -2.8337  0.3832 -0.2166
  810MOL0     H 9285   6.446   2.905   4.876  0.3882  3.6675  3.4929
  810MOL0     H 9286   6.610   2.896   4.897 -0.4453  0.6698  0.9479
  810MOL0     H 9287   6.654   3.114   4.766  0.7049 -1.7510 -0.8793
  810MOL0     H 9288   6.549   3.144   4.912 -0.6285  0.8928 -0.7779
  810MOL0     H 9289   6.442   3.268   4.785 -0.2817  0.5750  0.0840
  810MOL0     H 9290   6.349   3.133   4.712  0.0126  1.6734 -1.3303
  810MOL0     H 9291   6.607   3.247   4.620  0.2683 -4.4971  1.8813
  810MOL0     H 9292   6.518   3.129   4.526 -0.4539  1.6922 -1.8636
  810MOL0     H 9293   6.409   3.413   4.592  0.1927  1.3346 -2.4028
  810MOL0     H 9294   6.487   3.373   4.445 -1.9745 -0.6415 -1.0386
  810MOL0     H 9295   6.338   3.192   4.381  0.5000 -0.2206  1.4106
  810MOL0     H 9296   6.235   3.214   4.522  0.0645 -0.7148 -0.0034
  810MOL0     H 9297   6.161   3.311   4.320  1.6406 -2.9851  1.1863
  810MOL0     H 9298   6.280   3.445   4.321  1.9496 -0.7832  0.3335
  810MOL0     H 9299   6.101   3.409   4.571  3.6732 -1.3516  0.6269
  810MOL0     H 9300   6.223   3.520   4.523 -0.1918 -2.2390  0.4803
  810MOL0     H 9301   5.893   3.416   4.373  2.7052 -1.2735  1.9998
  810MOL0     H 9302   5.787   3.638   4.118 -2.4626 -1.6760 -0.8085
  810MOL0     H 9303   5.720   3.532   4.242  3.8332 -2.1981 -1.2908
  810MOL0     H 9304   5.674   3.753   4.390 -1.6171 -0.9914  0.0753
  810MOL0     H 9305   5.742   3.839   4.250 -1.5433  0.4512 -1.2036
  810MOL0     H 9306   5.579   3.756   4.108 -1.3295  0.4646  0.5802
  810MOL0     H 9307   5.496   3.837   4.251 -2.4172 -1.3974  0.8357
  810MOL0     H 9308   5.489   3.540   4.194 -0.2075  0.1112  0.1610
  810MOL0     H 9309   5.366   3.657   4.225 -0.9132  2.8376  3.7011
  810MOL0     H 9310   5.586   3.374   4.302 -0.4378  2.1365 -0.1958
  810MOL0     H 9311   5.497   3.172   4.329 -2.2976 -1.3444  0.0348
  810MOL0     H 9312   5.147   2.849   4.406  1.3825  0.6425  0.9609
  810MOL0     H 9313   5.009   2.652   4.457  0.8483 -1.4595  1.4661
  810MOL0     H 9314   4.918   2.482   4.530 -0.7573 -1.6632  0.2885
  810MOL0     H 9315   5.047   2.454   4.653  0.8136  0.5738  2.0581
  810MOL0     H 9316   4.863   2.256   4.626 -0.7618  0.6782 -1.4400
  810MOL0     H 9317   4.891   2.324   4.786 -0.6120 -1.3291  0.1054
  810MOL0     H 9318   4.695   2.483   4.627 -0.9133 -0.4733 -1.3156
  810MOL0     H 9319   4.666   2.315   4.610  0.8863 -2.7321  1.2033
  810MOL0     H 9320   4.727   2.442   4.876  1.2662 -0.7888  0.0602
  810MOL0     H 9321   4.662   2.276   4.845  0.8787  0.7567  0.2281
  810MOL0     H 9322   4.449   2.353   4.792 -0.6273  0.4739 -1.8161
  810MOL0     H 9323   4.487   2.511   4.742 -1.6372 -2.0725 -0.6693
  810MOL0     H 9324   4.488   2.400   5.016  2.2659  0.8010  0.5296
  810MOL0     H 9325   4.539   2.565   4.985  0.5259 -0.2501 -1.7613
  810MOL0     H 9326   4.275   2.489   5.053 -0.7685  1.9403  0.9148
  810MOL0     H 9327   4.285   2.533   4.878  1.9304 -0.6486 -1.0384
  810MOL0     H 9328   4.378   2.752   4.926 -1.2369 -0.7666 -1.6599
  810MOL0     H 9329   4.225   2.723   5.006 -0.3696 -3.0553  1.0222
  810MOL0     H 9330   4.950   2.789   4.860 -2.0569 -0.9873 -0.3172
  810MOL0     H 9331   5.078   3.002   4.797  0.0448  0.0458  1.4294
  810MOL0     H 9332   5.191   3.330   4.586 -1.5779 -2.0606 -2.1047
  810MOL0     H 9333   5.269   3.550   4.537 -1.7754 -0.6609  1.9533
  810MOL0     H 9334   6.533   2.696   4.900 -0.7609  1.9913 -1.3707
  810MOL0     H 9335   6.506   2.462   4.872 -1.9714 -0.2603 -0.5887
  810MOL0     H 9336   6.468   2.122   4.773  5.8676 -0.0133  0.5230
  810MOL0     H 9337   6.417   1.886   4.778 -3.4972 -3.6533 -1.8080
  810MOL0     H 9338   6.301   1.676   4.718  0.5590  2.4565  2.1541
  810MOL0     H 9339   6.461   1.661   4.767 -1.2532 -0.2483  0.5197
  810MOL0     H 9340   6.318   1.486   4.565 -1.1988 -1.8976  0.6356
  810MOL0     H 9341   6.335   1.449   4.731 -0.5751 -1.6008 -2.2045
  810MOL0     H 9342   6.553   1.473   4.530 -4.2650 -0.0659 -1.6398
  810MOL0     H 9343   6.487   1.321   4.592 -0.4051  0.6090 -1.5157
  810MOL0     H 9344   6.694   1.375   4.706  0.1629 -0.0765 -0.3251
  810MOL0     H 9345   6.629   1.522   4.777 -1.8102  1.2722 -3.6041
  810MOL0     H 9346   6.461   1.222   5.029  1.1199  1.9736  2.7783
  810MOL0     H 9347   6.493   1.862   4.352  0.0956  0.3532 -0.7427
  810MOL0     H 9348   6.423   2.154   4.259  0.4411  1.0322  0.4105
  810MOL0     H 9349   6.588   2.201   4.304  0.9000 -1.2907 -1.8688
  810MOL0     H 9350   6.561   2.047   4.226 -0.7824 -1.1279 -0.2525
  811MOL0     O 9351   4.645   8.083   1.233  0.9098 -0.2964 -0.7440
  811MOL0     C 9352   4.639   8.187   1.172  0.5180  0.0012 -0.3432
  811MOL0     O 9353   4.740   8.247   1.127  0.2718 -0.0791 -0.0071
  811MOL0     C 9354   4.857   8.183   1.132 -1.3812 -0.5983  0.4226
  811MOL0     C 9355   4.889   8.083   1.042 -0.1947  0.7376 -0.0995
  811MOL0     C 9356   5.009   8.016   1.058  0.7420 -0.1185  0.2163
  811MOL0     C 9357   5.110   8.048   1.147  0.6323 -0.4438  0.5463
  811MOL0     O 9358   5.226   7.977   1.137 -0.5568  0.0617  0.2207
  811MOL0     C 9359   5.295   7.963   1.265  0.5843 -0.6953  0.6917
  811MOL0     C 9360   5.416   7.877   1.232 -0.8378  0.8824  0.4253
  811MOL0     C 9361   5.544   7.952   1.197 -0.6630 -0.1422 -0.1673
  811MOL0     C 9362   5.559   7.994   1.052  0.3273 -0.2407  0.9277
  811MOL0     C 9363   5.578   7.900   0.944 -1.0038 -0.3993 -0.2251
  811MOL0     C 9364   5.585   7.957   0.796  0.2833 -0.2905  0.3142
  811MOL0     C 9365   5.465   8.046   0.759 -0.1084 -0.1442 -0.2271
  811MOL0     C 9366   5.346   7.962   0.720  0.1592  0.7027  0.6736
  811MOL0     N 9367   5.234   8.042   0.667  0.4001 -0.8096 -0.7060
  811MOL0     C 9368   5.175   8.147   0.736 -0.7105 -0.1664 -0.3251
  811MOL0     C 9369   5.094   8.200   0.641 -0.7310 -0.5963  0.7152
  811MOL0     C 9370   4.996   8.316   0.667 -0.1912 -1.1962 -0.1887
  811MOL0     C 9371   4.879   8.259   0.720  0.1958  0.0281 -0.9396
  811MOL0     C 9372   4.756   8.362   0.728  0.6282 -0.3004  0.2550
  811MOL0     C 9373   4.799   8.501   0.784 -0.0439 -0.2041 -0.2742
  811MOL0     O 9374   4.866   8.486   0.913 -0.1614 -0.3254  0.0576
  811MOL0     C 9375   4.907   8.605   0.970 -0.0200  1.2939 -0.3888
  811MOL0     C 9376   4.961   8.704   0.889 -0.0599 -0.2004  0.2347
  811MOL0     C 9377   5.025   8.813   0.944  0.0643 -0.8465  0.1732
  811MOL0     C 9378   5.022   8.838   1.082  0.7107  0.4109 -0.3358
  811MOL0     C 9379   5.075   8.963   1.141 -0.7073  0.1826 -0.7277
  811MOL0     O 9380   5.037   9.015   1.256 -0.1647 -0.4993  0.4474
  811MOL0     C 9381   5.068   9.147   1.294  0.0018 -0.3709 -0.4732
  811MOL0     C 9382   5.202   9.176   1.329  0.2924  0.5547 -0.5730
  811MOL0     C 9383   5.242   9.308   1.337  0.0500  0.0881  0.3826
  811MOL0     C 9384   5.143   9.412   1.326  0.6601  0.0104 -0.2176
  811MOL0     O 9385   5.203   9.534   1.330 -0.1413 -0.2128 -0.0465
  811MOL0     C 9386   5.141   9.662   1.295  0.7313  0.8055  0.4416
  811MOL0     C 9387   5.056   9.663   1.167  0.2874 -1.0323  0.3987
  811MOL0     C 9388   5.021   9.817   1.137 -0.1627  0.6093  1.6686
  811MOL0     C 9389   4.956   9.826   0.991  0.2056  0.2952 -0.6254
  811MOL0     C 9390   4.856   9.954   0.978  0.1555  0.8719  0.0524
  811MOL0     C 9391   4.766   9.935   0.854  0.1605 -0.7439 -0.7118
  811MOL0     C 9392   4.627   9.867   0.887  0.1032  0.9596 -0.2173
  811MOL0     C 9393   4.632   9.710   0.894  0.0148  0.1105 -0.2791
  811MOL0    Cl 9394   4.694   9.667   0.724 -0.1495  0.2299 -0.2331
  811MOL0     C 9395   5.010   9.380   1.305  0.9748 -1.1850  1.1065
  811MOL0     C 9396   4.968   9.247   1.297 -1.0109 -0.7921  0.9087
  811MOL0     O 9397   5.154   9.023   1.065 -0.6244 -0.1823 -0.0705
  811MOL0     C 9398   4.952   8.743   1.170 -0.5068  0.4100 -0.0239
  811MOL0     C 9399   4.905   8.620   1.113  0.3222  0.0979 -0.4004
  811MOL0     N 9400   5.119   8.145   0.519  0.4852 -0.7203 -0.6752
  811MOL0     N 9401   5.199   8.049   0.537  0.5727 -0.0032  0.0183
  811MOL0     C 9402   5.086   8.163   1.215  0.0963 -0.2891  0.6019
  811MOL0     C 9403   4.956   8.217   1.217  0.4341  0.3272 -0.7668
  811MOL0     C 9404   4.497   8.243   1.145  0.0885 -0.3663 -0.1199
  811MOL0     C 9405   4.389   8.153   1.149  0.0407  0.8877 -1.1837
  811MOL0     C 9406   4.255   8.199   1.128  0.0095 -0.3882  1.5883
  811MOL0     C 9407   4.230   8.336   1.129  0.1314  0.3021 -0.3746
  811MOL0     O 9408   4.099   8.373   1.117  0.3698  0.2811 -0.1658
  811MOL0     C 9409   4.035   8.458   1.207  0.6843  0.2808 -1.1048
  811MOL0     C 9410   4.058   8.432   1.357  0.0961  0.3956  0.0809
  811MOL0     C 9411   4.012   8.291   1.395 -0.2927 -0.6518 -0.0513
  811MOL0     C 9412   3.912   8.297   1.508 -0.4425 -0.3685 -0.7958
  811MOL0     C 9413   3.976   8.360   1.627  0.1194 -0.2311  0.0585
  811MOL0     C 9414   4.039   8.408   1.724 -0.3288 -0.4035  0.2236
  811MOL0     C 9415   4.337   8.420   1.110  0.5061 -0.9833  0.4714
  811MOL0     C 9416   4.463   8.378   1.120 -0.1378 -0.2904  0.7207
  811MOL0     C 9417   4.569   8.483   1.083 -0.2153  0.4297  0.1988
  811MOL0     H 9418   4.824   8.064   0.956 -0.5096  1.8114 -0.1137
  811MOL0     H 9419   5.015   7.951   0.971 -0.4947 -0.6897  0.5325
  811MOL0     H 9420   5.339   8.059   1.292  0.8808  0.4717 -3.3225
  811MOL0     H 9421   5.236   7.905   1.337  0.9513 -2.2176 -0.1876
  811MOL0     H 9422   5.401   7.794   1.162 -0.8941  2.1182 -1.0565
  811MOL0     H 9423   5.434   7.829   1.329 -2.5537  0.3518  0.5172
  811MOL0     H 9424   5.620   7.877   1.218 -2.5549 -2.2218 -0.3562
  811MOL0     H 9425   5.562   8.032   1.269  0.3070  0.3154 -0.8883
  811MOL0     H 9426   5.464   8.044   1.036 -0.0145 -0.9625  0.6748
  811MOL0     H 9427   5.641   8.065   1.032  0.5755 -0.7270  0.1742
  811MOL0     H 9428   5.676   7.854   0.961  0.4085  2.8166  1.0733
  811MOL0     H 9429   5.509   7.815   0.943 -0.9966 -0.4041 -0.6561
  811MOL0     H 9430   5.679   8.004   0.766 -0.1117 -0.0195 -0.5415
  811MOL0     H 9431   5.583   7.875   0.724  1.7285 -0.1080  0.0348
  811MOL0     H 9432   5.493   8.096   0.667  2.5390 -0.5033  0.3034
  811MOL0     H 9433   5.443   8.120   0.837 -0.4342 -2.4218  1.9739
  811MOL0     H 9434   5.373   7.890   0.642  1.7921  2.1420 -0.1860
  811MOL0     H 9435   5.307   7.920   0.813 -0.8545  3.1264  1.4375
  811MOL0     H 9436   5.178   8.165   0.843 -1.2479 -2.2456  0.0863
  811MOL0     H 9437   5.035   8.380   0.746 -2.1463  1.7688 -1.4637
  811MOL0     H 9438   4.972   8.370   0.575  0.5089  0.3919  0.5397
  811MOL0     H 9439   4.836   8.173   0.666 -3.3931  1.1645 -0.1999
  811MOL0     H 9440   4.896   8.235   0.825  0.9738  0.0284 -1.0662
  811MOL0     H 9441   4.679   8.323   0.795 -1.8957 -1.6065 -3.0775
  811MOL0     H 9442   4.716   8.376   0.627  3.5321 -0.2614 -0.9843
  811MOL0     H 9443   4.706   8.556   0.802 -0.4777 -1.4716  1.7086
  811MOL0     H 9444   4.852   8.536   0.696  0.6399 -0.3893  0.0545
  811MOL0     H 9445   4.953   8.702   0.781  0.7510  2.2831  0.0762
  811MOL0     H 9446   5.071   8.879   0.871 -1.7200  0.7350  0.3840
  811MOL0     H 9447   5.275   9.096   1.342 -0.2995 -0.3382 -2.2912
  811MOL0     H 9448   5.346   9.336   1.346 -0.7415  2.9778  1.8544
  811MOL0     H 9449   5.067   9.688   1.371 -1.2354 -1.2730 -0.6237
  811MOL0     H 9450   5.212   9.743   1.309 -0.9408  2.5990 -0.8551
  811MOL0     H 9451   5.100   9.610   1.083  0.2252  0.7387 -0.8034
  811MOL0     H 9452   4.961   9.620   1.202  0.6744  0.9833  4.5910
  811MOL0     H 9453   4.945   9.838   1.212 -1.7669 -0.2417  0.3393
  811MOL0     H 9454   5.114   9.874   1.148 -0.1508  0.9728 -0.0839
  811MOL0     H 9455   4.910   9.730   0.966 -1.8895  1.1243 -0.1397
  811MOL0     H 9456   5.038   9.832   0.919  2.8629 -0.6396  2.1205
  811MOL0     H 9457   4.917  10.044   0.966 -0.2913  1.1503 -0.1721
  811MOL0     H 9458   4.794   9.955   1.069  2.3040  2.2758  1.6126
  811MOL0     H 9459   4.740  10.034   0.816 -2.8623 -1.9453 -2.1407
  811MOL0     H 9460   4.823   9.892   0.771  3.4412 -0.7739  1.3992
  811MOL0     H 9461   4.558   9.899   0.809 -1.8611  0.1221  1.0790
  811MOL0     H 9462   4.585   9.894   0.984  1.7926  2.1522  0.2187
  811MOL0     H 9463   4.710   9.682   0.966  1.5074  1.6712 -1.2099
  811MOL0     H 9464   4.535   9.663   0.911  0.4133 -0.1882  1.3539
  811MOL0     H 9465   4.933   9.456   1.299 -1.7712 -3.8693 -0.4936
  811MOL0     H 9466   4.862   9.248   1.273 -1.3249  3.5022  1.6864
  811MOL0     H 9467   4.956   8.740   1.278 -0.7982  0.0057 -0.0196
  811MOL0     H 9468   4.880   8.545   1.188  4.4149 -0.9622  0.1381
  811MOL0     H 9469   5.164   8.193   1.283  1.3896  0.2223 -1.0306
  811MOL0     H 9470   4.944   8.289   1.298  2.0604 -0.7320  0.4561
  811MOL0     H 9471   4.413   8.048   1.169  1.3473  1.3836  0.0560
  811MOL0     H 9472   4.183   8.120   1.109 -0.0515 -0.0951  0.5357
  811MOL0     H 9473   3.928   8.437   1.197  0.0806  0.7515  2.7769
  811MOL0     H 9474   4.052   8.558   1.168  0.0540  1.4152  1.3574
  811MOL0     H 9475   3.994   8.506   1.407  2.3351  2.1826  0.4522
  811MOL0     H 9476   4.156   8.463   1.394  0.0178  1.8630 -0.8638
  811MOL0     H 9477   4.105   8.233   1.403  0.2938 -0.5274 -3.9945
  811MOL0     H 9478   3.969   8.231   1.314 -0.9588  2.1014 -1.9044
  811MOL0     H 9479   3.817   8.339   1.473 -2.0629 -4.7726 -2.4013
  811MOL0     H 9480   3.895   8.194   1.541 -2.3812 -0.2746 -1.3563
  811MOL0     H 9481   4.063   8.469   1.809  1.1966 -0.3451 -0.2217
  811MOL0     H 9482   4.320   8.525   1.090 -1.5381 -1.8185 -2.8284
  811MOL0     H 9483   4.525   8.565   1.026 -4.6212 -0.7487  1.5688
  811MOL0     H 9484   4.619   8.511   1.176  0.4286  1.8980 -0.5457
  811MOL0     H 9485   4.645   8.438   1.017  0.5725  2.7420 -0.5703
  812MOL0     O 9486   0.820   8.112   9.295 -0.4376  0.1801  0.6113
  812MOL0     C 9487   0.861   8.167   9.192 -0.3575  0.3005 -0.3005
  812MOL0     O 9488   0.835   8.296   9.159 -0.3461 -0.1559  1.1769
  812MOL0     C 9489   0.750   8.365   9.231  0.0787 -0.0979  0.9923
  812MOL0     C 9490   0.776   8.428   9.356 -0.6748 -0.4711 -0.3908
  812MOL0     C 9491   0.672   8.492   9.428  0.3644  0.7858 -0.8009
  812MOL0     C 9492   0.540   8.512   9.378  0.0683 -0.0410 -1.0777
  812MOL0     O 9493   0.442   8.574   9.450 -0.2148  0.2538 -0.0822
  812MOL0     C 9494   0.484   8.693   9.527 -1.2995 -0.0151  0.2035
  812MOL0     C 9495   0.375   8.787   9.534 -0.0304 -0.2240 -0.2137
  812MOL0     C 9496   0.289   8.785   9.408  0.1737  0.1715  1.3631
  812MOL0     C 9497   0.200   8.905   9.405  0.1672 -0.0635 -0.2593
  812MOL0     C 9498   0.127   8.905   9.270 -0.0081 -0.0903 -0.5041
  812MOL0     C 9499   0.021   9.020   9.266 -0.0962  0.5264 -0.1166
  812MOL0     C 9500   0.055   9.152   9.334  0.1255 -0.6163  0.1521
  812MOL0     C 9501  -0.009   9.272   9.272  0.1753 -0.3905 -0.6109
  812MOL0     N 9502   0.068   9.320   9.151 -0.1841  0.4359 -0.2449
  812MOL0     C 9503   0.181   9.408   9.139 -0.2321  0.2163  0.0946
  812MOL0     C 9504   0.220   9.402   9.010  0.9942 -0.7984 -0.0951
  812MOL0     C 9505   0.336   9.475   8.930 -0.1534  0.3357 -0.2394
  812MOL0     C 9506   0.351   9.622   8.957 -0.6841  0.5932  0.4385
  812MOL0     C 9507   0.222   9.724   8.947  0.3283 -0.5479  0.5351
  812MOL0     C 9508   0.129   9.692   8.828 -0.5341  0.0106 -0.4733
  812MOL0     O 9509   0.175   9.714   8.696  0.8864  0.8517 -0.4987
  812MOL0     C 9510   0.197   9.840   8.649 -0.6508 -0.5872 -0.1370
  812MOL0     C 9511   0.168   9.963   8.707 -0.2905  0.1225 -0.2105
  812MOL0     C 9512   0.178  10.077   8.641 -0.1898 -0.0501  0.2239
  812MOL0     C 9513   0.225  10.069   8.504  1.2553 -0.3390 -0.1348
  812MOL0     C 9514   0.218  10.185   8.410 -0.0850  0.2263 -0.9765
  812MOL0     O 9515   0.214  10.158   8.278  0.2732  0.7885  0.1150
  812MOL0     C 9516   0.213  10.248   8.178  0.3432 -0.1011 -0.3455
  812MOL0     C 9517   0.184  10.190   8.055 -0.2868  0.2536  0.1670
  812MOL0     C 9518   0.206  10.267   7.938  0.3151  0.1635 -1.4360
  812MOL0     C 9519   0.210  10.406   7.946  0.0258 -0.3197  0.1622
  812MOL0     O 9520   0.222  10.467   7.822  1.2746  0.1051  0.2215
  812MOL0     C 9521   0.108  10.550   7.787  0.4333  0.7873 -0.4174
  812MOL0     C 9522   0.095  10.542   7.635  0.2839  1.1738 -0.2794
  812MOL0     C 9523   0.206  10.593   7.544  0.0997  0.5815 -0.1351
  812MOL0     C 9524   0.252  10.733   7.584  0.0508  0.8718 -0.2884
  812MOL0     C 9525   0.373  10.763   7.488  0.0029 -0.6948 -0.2237
  812MOL0     C 9526   0.505  10.712   7.546  0.0248 -0.2077 -0.0158
  812MOL0     C 9527   0.618  10.747   7.446  0.0846  0.2926  0.6196
  812MOL0     C 9528   0.642  10.896   7.418 -0.2296  0.2463 -0.1984
  812MOL0    Cl 9529   0.753  10.881   7.288  0.4756 -0.4259  0.2947
  812MOL0     C 9530   0.212  10.465   8.068 -0.7780  0.1993 -0.3981
  812MOL0     C 9531   0.232  10.384   8.182  0.3325  0.3239  0.4986
  812MOL0     O 9532   0.215  10.301   8.462 -0.0035  0.2981 -0.9433
  812MOL0     C 9533   0.275   9.951   8.449 -0.0556  0.2030  0.0687
  812MOL0     C 9534   0.257   9.834   8.525  0.3698  0.0349 -0.3209
  812MOL0     N 9535   0.130   9.322   8.941 -0.5730  0.3058  0.3625
  812MOL0     N 9536   0.044   9.270   9.030  0.3604  0.1182 -0.1700
  812MOL0     C 9537   0.520   8.453   9.253  0.3928  1.3013 -1.0499
  812MOL0     C 9538   0.620   8.382   9.181 -0.2049  0.9011  0.1892
  812MOL0     C 9539   0.974   8.097   9.122 -0.5292  0.3880  1.0055
  812MOL0     C 9540   1.063   8.180   9.046 -0.5271 -0.1959  0.8827
  812MOL0     C 9541   1.174   8.125   8.970  0.3386 -0.0434  0.6492
  812MOL0     C 9542   1.211   7.995   8.982 -0.0498 -0.2808  0.1211
  812MOL0     O 9543   1.316   7.963   8.902 -0.7083  0.5363 -0.6688
  812MOL0     C 9544   1.383   7.838   8.934 -0.0252  0.7554  0.4896
  812MOL0     C 9545   1.317   7.726   8.853 -0.3391 -0.6750  0.1950
  812MOL0     C 9546   1.343   7.738   8.695  0.1471 -0.4967 -0.3192
  812MOL0     C 9547   1.475   7.797   8.661 -0.2939  0.6511  0.5439
  812MOL0     C 9548   1.574   7.685   8.693 -0.6106 -0.7091  0.6447
  812MOL0     C 9549   1.676   7.640   8.738 -0.1242  0.4329  0.6718
  812MOL0     C 9550   1.128   7.914   9.060  0.5086 -0.2253 -0.4350
  812MOL0     C 9551   1.011   7.956   9.132 -0.3621 -0.6010  0.7118
  812MOL0     C 9552   0.927   7.852   9.196  0.3466 -0.8635  0.5335
  812MOL0     H 9553   0.876   8.415   9.395 -0.0575 -0.1962 -1.8146
  812MOL0     H 9554   0.696   8.529   9.527  3.5661 -3.3647  0.2495
  812MOL0     H 9555   0.511   8.679   9.632  2.2234 -2.2989 -0.8422
  812MOL0     H 9556   0.566   8.740   9.471  1.0883 -4.7334 -0.8130
  812MOL0     H 9557   0.420   8.886   9.541 -0.3687 -0.0049 -1.0371
  812MOL0     H 9558   0.308   8.755   9.614  1.6307 -0.1709  1.2648
  812MOL0     H 9559   0.222   8.699   9.414  0.2852 -0.1165 -0.8936
  812MOL0     H 9560   0.358   8.771   9.325 -0.8259  0.1594  0.5205
  812MOL0     H 9561   0.117   8.903   9.477 -0.4347 -2.8461 -0.8972
  812MOL0     H 9562   0.260   8.995   9.415 -1.9049  1.8233 -3.1776
  812MOL0     H 9563   0.201   8.920   9.192  2.3965  2.2403  2.0032
  812MOL0     H 9564   0.090   8.804   9.251  0.2914 -0.4786  0.8472
  812MOL0     H 9565   0.005   9.043   9.161  2.3487  0.2678 -0.6173
  812MOL0     H 9566  -0.070   8.980   9.313  0.2653  0.0596  0.2002
  812MOL0     H 9567   0.164   9.163   9.329  0.3149 -2.3161 -0.0265
  812MOL0     H 9568   0.013   9.162   9.434  0.5014 -2.4549  0.5401
  812MOL0     H 9569  -0.114   9.256   9.244 -0.0123 -1.1417  0.4426
  812MOL0     H 9570  -0.008   9.353   9.345  1.7447 -1.8825  1.1351
  812MOL0     H 9571   0.216   9.468   9.223  0.8292  0.6740 -0.6445
  812MOL0     H 9572   0.425   9.427   8.973 -2.4736 -0.5655  4.1083
  812MOL0     H 9573   0.337   9.458   8.822  0.0700 -1.6750  0.0301
  812MOL0     H 9574   0.401   9.639   9.053  1.4064 -2.4763  0.0283
  812MOL0     H 9575   0.426   9.644   8.880 -4.6643 -0.1022 -4.0422
  812MOL0     H 9576   0.247   9.829   8.932 -2.5736 -0.0861 -2.0026
  812MOL0     H 9577   0.162   9.710   9.037  0.2797  0.3645  0.6451
  812MOL0     H 9578   0.040   9.755   8.842  0.6017  1.5743  0.0317
  812MOL0     H 9579   0.088   9.591   8.829 -1.2355  0.2642 -1.6292
  812MOL0     H 9580   0.130   9.968   8.809 -3.3621 -2.4189 -1.0781
  812MOL0     H 9581   0.160  10.173   8.688 -0.9504  0.1293 -0.4069
  812MOL0     H 9582   0.173  10.082   8.055  1.1828  0.0712  1.4347
  812MOL0     H 9583   0.209  10.219   7.840 -0.2388  0.1000 -1.4234
  812MOL0     H 9584   0.014  10.523   7.836  0.3640  2.1310  0.2541
  812MOL0     H 9585   0.122  10.654   7.819 -1.4911  1.2828 -1.0272
  812MOL0     H 9586   0.066  10.441   7.605 -0.3150  0.3178  2.7765
  812MOL0     H 9587   0.004  10.597   7.610 -2.6185 -2.8031  0.4139
  812MOL0     H 9588   0.285  10.518   7.544  2.5664  3.0082 -2.1765
  812MOL0     H 9589   0.170  10.576   7.442  0.2590  0.1421 -0.1206
  812MOL0     H 9590   0.292  10.733   7.686  3.3823  1.5834 -1.4503
  812MOL0     H 9591   0.168  10.803   7.589 -0.8982 -0.3279  1.7939
  812MOL0     H 9592   0.361  10.869   7.463  1.3488 -0.0046  1.7659
  812MOL0     H 9593   0.354  10.704   7.398 -0.0298 -2.6607  1.0090
  812MOL0     H 9594   0.531  10.756   7.642 -0.0560  0.0915 -0.1310
  812MOL0     H 9595   0.494  10.607   7.576  3.8814 -0.7941 -0.2061
  812MOL0     H 9596   0.595  10.696   7.352  0.4934 -1.1609  1.2750
  812MOL0     H 9597   0.711  10.704   7.485 -0.2406  0.1356  1.2557
  812MOL0     H 9598   0.552  10.949   7.387  1.2219  4.1122  1.4430
  812MOL0     H 9599   0.679  10.957   7.501  1.0743  4.6647 -3.6385
  812MOL0     H 9600   0.217  10.573   8.072 -2.7390  0.2887  0.5695
  812MOL0     H 9601   0.251  10.433   8.277  0.6976 -1.0902  1.1909
  812MOL0     H 9602   0.318   9.950   8.350  3.4683 -0.0605  1.4334
  812MOL0     H 9603   0.294   9.741   8.483  1.9371  0.1565  0.6938
  812MOL0     H 9604   0.426   8.466   9.201  1.0825 -0.7292 -3.0083
  812MOL0     H 9605   0.603   8.327   9.089 -4.0488  0.4175  1.0158
  812MOL0     H 9606   1.040   8.286   9.039 -1.0382 -0.3285  0.4411
  812MOL0     H 9607   1.226   8.195   8.906 -0.0630 -0.5649 -0.2561
  812MOL0     H 9608   1.370   7.820   9.041  1.8272  2.8328  1.1188
  812MOL0     H 9609   1.492   7.835   8.920  0.3314  3.0572  2.2890
  812MOL0     H 9610   1.210   7.719   8.877 -0.5792 -0.3832 -0.7573
  812MOL0     H 9611   1.356   7.632   8.893 -1.0506  0.1747  3.1577
  812MOL0     H 9612   1.275   7.816   8.661 -0.6842 -2.1047 -2.6609
  812MOL0     H 9613   1.316   7.643   8.646 -2.8266  1.1290 -2.1176
  812MOL0     H 9614   1.486   7.802   8.552 -2.7168 -3.3732 -0.0424
  812MOL0     H 9615   1.514   7.887   8.710  3.9969 -1.8408  2.3144
  812MOL0     H 9616   1.771   7.604   8.771  1.2077  2.8848 -0.2664
  812MOL0     H 9617   1.150   7.808   9.067 -1.4195 -0.5648  2.4686
  812MOL0     H 9618   0.889   7.892   9.290 -3.0778  1.0597 -1.4238
  812MOL0     H 9619   0.844   7.842   9.125  1.1098  1.9331 -0.9054
  812MOL0     H 9620   0.988   7.764   9.218 -0.7044 -1.4973  0.9657
  813MOL0     O 9621   7.449  10.765  10.431  0.8208  0.0356 -0.2991
  813MOL0     C 9622   7.502  10.688  10.354  0.1294 -1.1315 -0.1354
  813MOL0     O 9623   7.640  10.694  10.324 -1.0002 -0.0428 -0.1915
  813MOL0     C 9624   7.723  10.755  10.412 -0.4843 -0.4443  0.7605
  813MOL0     C 9625   7.772  10.885  10.389 -0.0426 -0.2387  0.2960
  813MOL0     C 9626   7.851  10.953  10.473 -0.8644 -0.6499 -0.7773
  813MOL0     C 9627   7.888  10.896  10.593 -0.2321 -0.0930  0.1280
  813MOL0     O 9628   7.968  10.947  10.691 -0.2595  0.4460 -0.4029
  813MOL0     C 9629   8.011  11.083  10.685 -0.5756  0.3809 -0.2667
  813MOL0     C 9630   8.078  11.122  10.813  0.4667  0.8555  0.3164
  813MOL0     C 9631   8.085  11.274  10.821  0.5488  0.5188  0.4895
  813MOL0     C 9632   8.126  11.350  10.947  0.6292  0.9836  0.5250
  813MOL0     C 9633   8.143  11.499  10.927 -0.1435 -0.5365 -1.1481
  813MOL0     C 9634   8.028  11.581  10.869 -0.2168 -0.3406  0.3486
  813MOL0     C 9635   8.052  11.632  10.722  1.1930 -0.7141 -0.4005
  813MOL0     C 9636   7.910  11.654  10.652  0.3134  0.3670 -1.3766
  813MOL0     N 9637   7.837  11.528  10.647 -0.0374  0.1253  0.0056
  813MOL0     C 9638   7.735  11.484  10.729 -0.3230 -0.4104  0.6507
  813MOL0     C 9639   7.698  11.367  10.668 -0.0219 -0.2974 -0.0045
  813MOL0     C 9640   7.584  11.276  10.712 -0.3476 -0.3979  0.2364
  813MOL0     C 9641   7.569  11.163  10.619 -0.5790 -0.2305  0.4491
  813MOL0     C 9642   7.484  11.050  10.678 -0.0011  0.5733  1.0168
  813MOL0     C 9643   7.343  11.102  10.705 -0.1053 -0.1166  0.3961
  813MOL0     O 9644   7.315  11.163  10.827  0.3706  0.6507 -0.2476
  813MOL0     C 9645   7.354  11.106  10.945 -0.3696  0.6355  0.5207
  813MOL0     C 9646   7.350  10.966  10.960  0.1975 -0.1760 -0.4800
  813MOL0     C 9647   7.354  10.912  11.089 -0.5331  0.5156 -0.1986
  813MOL0     C 9648   7.382  10.993  11.202 -0.4873 -1.0736  0.1984
  813MOL0     C 9649   7.366  10.944  11.337 -0.3609  0.6871 -0.7544
  813MOL0     O 9650   7.365  11.039  11.433 -0.5301  0.6825  0.1087
  813MOL0     C 9651   7.385  10.988  11.564  0.6969 -0.0513 -0.3776
  813MOL0     C 9652   7.308  11.047  11.665  0.7854  0.0332 -0.7547
  813MOL0     C 9653   7.328  11.012  11.801 -0.7352  0.4468 -0.7051
  813MOL0     C 9654   7.430  10.922  11.833  0.6864 -0.4309  0.2146
  813MOL0     O 9655   7.444  10.865  11.956 -0.1108  0.6825 -0.4735
  813MOL0     C 9656   7.528  10.937  12.044  0.6345  0.1871 -0.2831
  813MOL0     C 9657   7.599  10.835  12.130 -0.4993 -1.1519 -0.7521
  813MOL0     C 9658   7.728  10.786  12.070  0.3349 -0.1784  0.7041
  813MOL0     C 9659   7.847  10.889  12.088 -0.1519  0.7706  0.1115
  813MOL0     C 9660   7.970  10.809  12.081 -0.0981 -0.6977 -0.0668
  813MOL0     C 9661   8.094  10.906  12.063  0.1784 -0.3440  0.0266
  813MOL0     C 9662   8.221  10.834  12.062 -0.8571  0.6007 -0.0286
  813MOL0     C 9663   8.339  10.931  12.084  0.3915 -0.0959  0.1258
  813MOL0    Cl 9664   8.490  10.840  12.087  0.3426  0.0740  0.1579
  813MOL0     C 9665   7.499  10.855  11.731  0.1961  0.3819 -0.4044
  813MOL0     C 9666   7.479  10.890  11.592 -0.8560 -0.0324  1.4336
  813MOL0     O 9667   7.336  10.821  11.351 -0.7860  0.1997 -0.3875
  813MOL0     C 9668   7.408  11.131  11.178 -1.5320 -0.2977  0.0789
  813MOL0     C 9669   7.394  11.184  11.049  0.4808  0.6799 -0.1930
  813MOL0     N 9670   7.783  11.341  10.560  0.3463 -0.4613  0.1072
  813MOL0     N 9671   7.858  11.444  10.542  0.2432 -0.3063 -0.0670
  813MOL0     C 9672   7.825  10.776  10.629 -1.2210 -0.1628 -0.6805
  813MOL0     C 9673   7.755  10.704  10.537 -0.2620 -1.3948  0.9265
  813MOL0     C 9674   7.407  10.609  10.266 -0.6822 -0.0358  0.2158
  813MOL0     C 9675   7.453  10.568  10.137 -0.1993 -0.0715 -0.1728
  813MOL0     C 9676   7.357  10.515  10.045 -0.2621 -0.1585 -0.0680
  813MOL0     C 9677   7.219  10.492  10.082 -0.0885 -1.2023 -1.6248
  813MOL0     O 9678   7.121  10.433   9.997 -0.0922  0.0044  0.7148
  813MOL0     C 9679   7.121  10.295   9.964 -1.4041  0.7176 -0.1709
  813MOL0     C 9680   7.012  10.228  10.033 -0.4799 -0.1631 -0.3680
  813MOL0     C 9681   7.061  10.175  10.175  0.1022  0.0643  0.3290
  813MOL0     C 9682   6.960  10.076  10.208 -0.0328  0.2300 -0.5095
  813MOL0     C 9683   6.974  10.015  10.343  0.3260 -0.4611 -0.1582
  813MOL0     C 9684   6.991   9.977  10.460 -0.1277 -1.1885 -0.1001
  813MOL0     C 9685   7.183  10.516  10.218 -0.9148 -0.0605 -0.2965
  813MOL0     C 9686   7.270  10.572  10.308 -0.1554 -0.3554  0.5141
  813MOL0     C 9687   7.226  10.603  10.447  0.1437  0.3154 -0.3087
  813MOL0     H 9688   7.738  10.939  10.301 -0.2769 -2.1065 -0.8002
  813MOL0     H 9689   7.886  11.052  10.446  0.6739 -1.2141 -0.9577
  813MOL0     H 9690   8.069  11.099  10.594  4.0432 -4.6616  1.2817
  813MOL0     H 9691   7.913  11.131  10.673 -1.1000 -1.2362 -3.6860
  813MOL0     H 9692   8.176  11.072  10.808  1.6291  3.0788 -0.4625
  813MOL0     H 9693   8.035  11.076  10.902  2.2206 -0.9639  0.3078
  813MOL0     H 9694   7.986  11.311  10.794  0.7760 -0.0797 -1.2597
  813MOL0     H 9695   8.150  11.301  10.738  0.2822 -2.0050 -0.6224
  813MOL0     H 9696   8.043  11.320  11.012 -0.1982  3.2906  0.6038
  813MOL0     H 9697   8.221  11.306  10.981  0.7429  2.6575  2.5478
  813MOL0     H 9698   8.147  11.538  11.029 -0.4165  1.7928 -1.9755
  813MOL0     H 9699   8.236  11.523  10.874  0.5834 -0.9169 -0.0830
  813MOL0     H 9700   7.946  11.509  10.881  0.0682 -0.2361  4.1660
  813MOL0     H 9701   8.005  11.667  10.932  0.6205 -0.3922  0.7279
  813MOL0     H 9702   8.113  11.561  10.665  0.6826 -0.1456 -1.7063
  813MOL0     H 9703   8.107  11.726  10.729 -1.4794  0.8089  2.2727
  813MOL0     H 9704   7.849  11.728  10.704  0.9637  0.9585 -1.4443
  813MOL0     H 9705   7.919  11.686  10.548 -0.3863 -2.6134 -2.4806
  813MOL0     H 9706   7.688  11.526  10.817 -0.0786  2.3001 -0.4158
  813MOL0     H 9707   7.597  11.245  10.816  2.7606  1.2635  0.4859
  813MOL0     H 9708   7.493  11.336  10.718  0.8226  1.3408  1.9386
  813MOL0     H 9709   7.540  11.192  10.517 -0.6797 -3.2798 -0.4935
  813MOL0     H 9710   7.674  11.131  10.613 -0.3293  0.2067  2.0926
  813MOL0     H 9711   7.536  11.018  10.768  0.2013 -0.5342  0.5125
  813MOL0     H 9712   7.475  10.962  10.613 -0.6865  0.5691  1.1110
  813MOL0     H 9713   7.271  11.020  10.693 -0.9016  0.6735 -0.4609
  813MOL0     H 9714   7.319  11.173  10.625  1.5888 -1.4817 -1.4082
  813MOL0     H 9715   7.343  10.905  10.870  0.9507  0.1920 -0.8007
  813MOL0     H 9716   7.339  10.805  11.092  0.5777  0.1596 -3.4535
  813MOL0     H 9717   7.226  11.116  11.647 -0.9980 -0.4979  3.9908
  813MOL0     H 9718   7.267  11.050  11.882 -3.1533 -1.5688 -1.4445
  813MOL0     H 9719   7.606  10.990  11.988  0.0015 -0.0359 -1.3993
  813MOL0     H 9720   7.462  11.003  12.101  0.9588 -2.2714  3.2522
  813MOL0     H 9721   7.621  10.877  12.229 -0.6565 -2.0123 -0.3418
  813MOL0     H 9722   7.538  10.744  12.136 -2.0356 -0.3421 -2.8455
  813MOL0     H 9723   7.765  10.696  12.121  2.1070 -0.0494 -0.2559
  813MOL0     H 9724   7.701  10.764  11.966 -2.6832  4.8800  0.0805
  813MOL0     H 9725   7.842  10.928  12.191 -1.0966 -4.3260  2.2874
  813MOL0     H 9726   7.839  10.968  12.012 -0.4919  3.3816  2.6732
  813MOL0     H 9727   7.965  10.738  11.998  2.5442 -3.6652  2.0649
  813MOL0     H 9728   7.985  10.749  12.171  3.0297  0.5059  0.3592
  813MOL0     H 9729   8.084  10.955  11.966  1.4313  2.5973  1.2803
  813MOL0     H 9730   8.085  10.977  12.145 -0.3036  0.1269 -0.4261
  813MOL0     H 9731   8.233  10.776  11.971  1.7327 -2.1768  1.8794
  813MOL0     H 9732   8.213  10.752  12.134 -5.1064  2.6212  2.1598
  813MOL0     H 9733   8.353  11.012  12.011  2.0816 -0.2045  0.2693
  813MOL0     H 9734   8.322  10.975  12.182  1.0743 -1.1784  0.7536
  813MOL0     H 9735   7.563  10.775  11.765  0.9397 -0.1210 -2.8057
  813MOL0     H 9736   7.545  10.854  11.514 -0.9981 -0.8847  1.6941
  813MOL0     H 9737   7.423  11.203  11.257  0.6409  1.0246 -1.4302
  813MOL0     H 9738   7.413  11.291  11.041  3.4492  0.3306  0.7602
  813MOL0     H 9739   7.856  10.733  10.723 -0.7017  1.4949 -0.0570
  813MOL0     H 9740   7.716  10.609  10.571 -1.8815 -1.3012 -0.5069
  813MOL0     H 9741   7.554  10.582  10.099 -1.0166  1.8536 -1.8126
  813MOL0     H 9742   7.376  10.498   9.940 -1.1614 -1.7820 -0.0100
  813MOL0     H 9743   7.216  10.258  10.003 -1.5281 -0.7119 -1.1263
  813MOL0     H 9744   7.110  10.295   9.855 -1.3356 -0.3404 -0.1880
  813MOL0     H 9745   6.983  10.137   9.981 -2.8258 -0.7184  1.7012
  813MOL0     H 9746   6.928  10.298  10.046  0.7477  1.4675 -0.8131
  813MOL0     H 9747   7.071  10.250  10.254  1.1429 -0.5886  0.8271
  813MOL0     H 9748   7.155  10.121  10.166  0.6108  1.1659 -1.3845
  813MOL0     H 9749   6.857  10.107  10.188 -0.4021 -1.4613 -1.4875
  813MOL0     H 9750   6.972   9.987  10.145 -0.1229 -0.1249 -0.0338
  813MOL0     H 9751   6.999   9.952  10.563 -0.7154  0.5511  0.4121
  813MOL0     H 9752   7.080  10.509  10.252 -0.0890 -0.0304  2.4229
  813MOL0     H 9753   7.225  10.706  10.482  0.3788  0.2954 -0.2374
  813MOL0     H 9754   7.118  10.589  10.454  0.0335  1.8235  1.9802
  813MOL0     H 9755   7.273  10.532  10.517 -1.6020 -4.2042 -3.2305
  814MOL0     O 9756  10.253   5.687   2.649  0.2790  0.4356 -0.2299
  814MOL0     C 9757  10.148   5.752   2.643  0.2433 -1.6563 -0.2462
  814MOL0     O 9758  10.097   5.815   2.528  0.3144  0.4933 -0.1795
  814MOL0     C 9759  10.169   5.779   2.417  0.4051 -0.3596  0.6512
  814MOL0     C 9760  10.310   5.783   2.408  0.1632 -0.8568  0.5006
  814MOL0     C 9761  10.367   5.777   2.282 -0.3566  0.1352  1.3992
  814MOL0     C 9762  10.297   5.776   2.159  0.0710 -0.5041 -0.8685
  814MOL0     O 9763  10.364   5.773   2.037  0.1459  0.6974  0.0641
  814MOL0     C 9764  10.288   5.785   1.912  0.1798 -0.5863  0.2591
  814MOL0     C 9765  10.377   5.830   1.792  0.3770 -0.0679  0.0525
  814MOL0     C 9766  10.358   5.976   1.764 -0.8075  0.4462 -0.1769
  814MOL0     C 9767  10.441   6.015   1.646  0.2643 -0.1941  0.1402
  814MOL0     C 9768  10.424   6.170   1.624  0.0196 -1.0458 -0.7476
  814MOL0     C 9769  10.524   6.226   1.534 -0.5318  0.3752 -0.6729
  814MOL0     C 9770  10.539   6.381   1.537 -0.0204 -0.9632  0.1768
  814MOL0     C 9771  10.406   6.453   1.512  0.6238 -0.4832  0.2842
  814MOL0     N 9772  10.327   6.416   1.396  0.3462  0.1743  0.7032
  814MOL0     C 9773  10.321   6.484   1.274 -0.3362  0.6599 -0.4461
  814MOL0     C 9774  10.206   6.432   1.216 -0.0182 -0.6597 -0.6876
  814MOL0     C 9775  10.143   6.482   1.088  0.0830  0.1642  0.3407
  814MOL0     C 9776  10.092   6.621   1.088 -0.5112 -0.0603  0.3860
  814MOL0     C 9777  10.045   6.667   1.223 -0.0769 -0.2554  1.1804
  814MOL0     C 9778   9.907   6.594   1.244 -0.2266  0.6989 -0.0153
  814MOL0     O 9779   9.862   6.658   1.361 -0.4520  0.1336  0.2189
  814MOL0     C 9780   9.928   6.625   1.476  0.6895 -0.2367 -0.1768
  814MOL0     C 9781   9.939   6.717   1.569 -0.5729  0.3416  0.7353
  814MOL0     C 9782   9.993   6.684   1.694 -0.1885  0.5840 -1.3405
  814MOL0     C 9783  10.032   6.554   1.735  0.9444 -0.3096 -0.5640
  814MOL0     C 9784  10.105   6.547   1.859  0.2675  0.1217  0.8935
  814MOL0     O 9785  10.145   6.423   1.888 -0.0387  1.1466  0.4858
  814MOL0     C 9786  10.204   6.385   2.011  1.0523  0.2595  0.1628
  814MOL0     C 9787  10.330   6.439   2.034 -0.3181  1.4796 -0.0499
  814MOL0     C 9788  10.399   6.395   2.151 -0.1298 -0.1659  0.6789
  814MOL0     C 9789  10.345   6.301   2.238  0.3098 -0.4756 -0.1057
  814MOL0     O 9790  10.399   6.267   2.360  0.1023  0.3130  0.4329
  814MOL0     C 9791  10.536   6.236   2.356  1.0313 -0.4860  0.2275
  814MOL0     C 9792  10.540   6.081   2.370 -1.2186 -0.4088  0.0040
  814MOL0     C 9793  10.686   6.050   2.423  0.6105 -0.2225 -0.8093
  814MOL0     C 9794  10.683   5.902   2.470  0.1627  0.6703 -0.1759
  814MOL0     C 9795  10.816   5.863   2.545 -0.1325  0.1992  0.4014
  814MOL0     C 9796  10.811   5.886   2.689  0.1475 -0.9403  0.4528
  814MOL0     C 9797  10.726   5.792   2.773 -0.1951 -0.4474  0.0763
  814MOL0     C 9798  10.713   5.838   2.928  0.5800  1.2893  0.2124
  814MOL0    Cl 9799  10.870   5.804   3.015  0.5197  0.1906 -0.6005
  814MOL0     C 9800  10.226   6.237   2.199 -0.3058 -0.3010  0.1263
  814MOL0     C 9801  10.154   6.273   2.083 -0.2548 -0.1156 -0.5810
  814MOL0     O 9802  10.135   6.648   1.923 -0.2087 -0.0932 -0.8317
  814MOL0     C 9803  10.010   6.453   1.639 -0.3006 -0.1741 -0.1978
  814MOL0     C 9804   9.965   6.485   1.511 -0.2796 -0.1439  0.8308
  814MOL0     N 9805  10.157   6.332   1.294 -0.0440  0.6159  0.3069
  814MOL0     N 9806  10.223   6.322   1.397 -0.7180 -0.6632 -0.3243
  814MOL0     C 9807  10.155   5.766   2.177  0.3126 -0.6240  0.6282
  814MOL0     C 9808  10.090   5.763   2.300  0.1424  0.2995  0.6919
  814MOL0     C 9809  10.075   5.770   2.770  0.6819  0.2663 -0.5023
  814MOL0     C 9810   9.934   5.781   2.769  0.2353  0.0459 -0.3781
  814MOL0     C 9811   9.856   5.789   2.887  0.9811 -0.2481  1.2870
  814MOL0     C 9812   9.918   5.780   3.013  0.3238 -0.9748 -0.4543
  814MOL0     O 9813   9.846   5.773   3.132  0.3404 -0.2438  0.7075
  814MOL0     C 9814   9.714   5.850   3.144  0.6643  1.1046 -0.0655
  814MOL0     C 9815   9.729   5.968   3.245 -0.5932 -0.2498  0.2793
  814MOL0     C 9816   9.749   5.914   3.390 -0.4561 -0.0910 -0.9171
  814MOL0     C 9817   9.695   6.011   3.505  0.2129  0.2119 -0.3298
  814MOL0     C 9818   9.776   6.130   3.513  0.3705  0.2158  0.2479
  814MOL0     C 9819   9.855   6.218   3.549 -0.5731  0.5047 -0.5552
  814MOL0     C 9820  10.050   5.781   3.025 -0.5824  0.0361 -0.1263
  814MOL0     C 9821  10.135   5.767   2.906  0.6083  0.3031 -0.0081
  814MOL0     C 9822  10.281   5.758   2.929  0.3122 -0.1179 -0.0721
  814MOL0     H 9823  10.380   5.806   2.488  0.7551  1.9503 -0.6878
  814MOL0     H 9824  10.473   5.771   2.262 -0.5974 -4.0647  0.4858
  814MOL0     H 9825  10.235   5.693   1.886 -3.2473  1.2603  0.2034
  814MOL0     H 9826  10.207   5.855   1.934  0.4895 -1.1631  3.8540
  814MOL0     H 9827  10.339   5.770   1.709  2.3037 -0.9942 -0.1979
  814MOL0     H 9828  10.480   5.796   1.806  0.6284  0.9627  0.8405
  814MOL0     H 9829  10.386   6.031   1.854 -4.9099  1.1951  0.8464
  814MOL0     H 9830  10.250   5.993   1.758 -0.7347  0.5836 -1.3838
  814MOL0     H 9831  10.544   5.981   1.658  0.7145  0.2128 -2.1451
  814MOL0     H 9832  10.407   5.964   1.556  1.1469  0.0286 -0.3241
  814MOL0     H 9833  10.321   6.180   1.589 -0.1390 -0.2610 -0.0803
  814MOL0     H 9834  10.432   6.216   1.722  2.8230 -0.8859 -0.9749
  814MOL0     H 9835  10.618   6.171   1.544 -0.1301  0.8488 -1.6498
  814MOL0     H 9836  10.495   6.206   1.430 -1.1880 -0.8414 -0.2724
  814MOL0     H 9837  10.617   6.420   1.470  1.1076  0.8538  2.4086
  814MOL0     H 9838  10.569   6.420   1.635 -1.2688 -0.5297  0.4022
  814MOL0     H 9839  10.343   6.435   1.600 -0.5047  0.3844 -0.3251
  814MOL0     H 9840  10.417   6.562   1.515 -2.3288  0.0351 -2.5148
  814MOL0     H 9841  10.384   6.547   1.212 -0.1247 -0.2237 -1.1505
  814MOL0     H 9842  10.216   6.477   1.007 -0.8174  1.6601 -0.6087
  814MOL0     H 9843  10.054   6.424   1.060  0.8666 -1.4728  1.0729
  814MOL0     H 9844  10.173   6.685   1.054 -1.2996 -0.4027 -2.3344
  814MOL0     H 9845  10.030   6.638   0.999  1.2984  0.0462 -0.8927
  814MOL0     H 9846  10.029   6.775   1.224 -1.6848 -0.3980 -0.6027
  814MOL0     H 9847  10.113   6.639   1.303 -0.7552  2.2280  2.7222
  814MOL0     H 9848   9.907   6.485   1.249 -0.9370  0.6528 -0.9042
  814MOL0     H 9849   9.828   6.621   1.174  0.5251 -1.0191 -1.6062
  814MOL0     H 9850   9.903   6.812   1.531  0.7106  0.8065  0.6202
  814MOL0     H 9851  10.005   6.770   1.758 -1.3335 -1.0918  1.2890
  814MOL0     H 9852  10.392   6.506   1.976  3.8748 -1.8301  0.1156
  814MOL0     H 9853  10.495   6.444   2.165 -1.1570  1.9562  0.6964
  814MOL0     H 9854  10.583   6.254   2.259 -1.8174 -3.7525 -2.0654
  814MOL0     H 9855  10.593   6.285   2.434 -0.3822  1.8532 -0.1297
  814MOL0     H 9856  10.480   6.048   2.454  0.6582 -3.0498  0.4318
  814MOL0     H 9857  10.521   6.021   2.281 -3.3172 -2.5938  1.8008
  814MOL0     H 9858  10.765   6.081   2.355  1.1062  0.9275  0.2525
  814MOL0     H 9859  10.699   6.097   2.521 -1.5159 -0.6632 -0.2415
  814MOL0     H 9860  10.668   5.831   2.387  1.3935 -0.1163  0.2446
  814MOL0     H 9861  10.607   5.881   2.546  3.4481 -2.9273  2.5030
  814MOL0     H 9862  10.903   5.914   2.502 -0.9000  0.3912 -0.9710
  814MOL0     H 9863  10.835   5.756   2.531  1.1690  0.1412  2.2259
  814MOL0     H 9864  10.914   5.875   2.723  1.1342 -0.8480 -2.2822
  814MOL0     H 9865  10.763   5.983   2.706  1.9927 -0.0173  0.6238
  814MOL0     H 9866  10.760   5.689   2.763  0.3380 -0.1773 -1.0066
  814MOL0     H 9867  10.620   5.788   2.744 -1.3058  2.4662  3.0827
  814MOL0     H 9868  10.690   5.945   2.932 -2.4213  0.7329  0.3729
  814MOL0     H 9869  10.632   5.776   2.967 -0.7385  0.5916 -3.2687
  814MOL0     H 9870  10.205   6.150   2.262  2.3162  0.5697  2.3900
  814MOL0     H 9871  10.057   6.229   2.066 -1.5732  1.1530  2.8286
  814MOL0     H 9872  10.030   6.348   1.658  0.5189 -0.1785 -1.0402
  814MOL0     H 9873   9.950   6.406   1.438 -1.0531 -1.0537  1.9424
  814MOL0     H 9874  10.082   5.784   2.099  0.8663 -2.3204 -0.3371
  814MOL0     H 9875   9.982   5.768   2.300  0.0077 -1.1580 -1.5161
  814MOL0     H 9876   9.888   5.791   2.671  1.3339  0.7096 -0.8463
  814MOL0     H 9877   9.749   5.802   2.874  1.2414 -0.0375 -1.2618
  814MOL0     H 9878   9.645   5.781   3.195  2.5347  1.4292  3.1962
  814MOL0     H 9879   9.669   5.878   3.048 -1.6327  1.3779  1.0060
  814MOL0     H 9880   9.637   6.026   3.249 -2.7108 -3.3551  0.4529
  814MOL0     H 9881   9.811   6.023   3.198 -0.1254 -2.0932 -1.2297
  814MOL0     H 9882   9.850   5.878   3.411 -1.5341 -3.6175 -1.0012
  814MOL0     H 9883   9.683   5.826   3.398 -3.0370  1.9073  3.6660
  814MOL0     H 9884   9.591   6.027   3.476 -1.0570 -3.8714  1.3555
  814MOL0     H 9885   9.689   5.960   3.601  2.0759 -2.1449 -1.3613
  814MOL0     H 9886   9.922   6.291   3.589 -3.0489  2.1858  0.7483
  814MOL0     H 9887  10.078   5.780   3.129 -2.0544 -2.1708  0.3315
  814MOL0     H 9888  10.301   5.654   2.902  1.9168  0.1884 -0.1724
  814MOL0     H 9889  10.341   5.826   2.868 -1.7361 -0.1367 -2.2030
  814MOL0     H 9890  10.313   5.768   3.034  1.1770  1.1294 -0.4354
  815MOL0     O 9891   6.202   0.622   8.483 -0.0343 -0.2381 -0.2970
  815MOL0     C 9892   6.156   0.738   8.512  0.3395 -0.0375  0.1622
  815MOL0     O 9893   6.230   0.851   8.523 -0.0177  0.6509  0.8945
  815MOL0     C 9894   6.352   0.861   8.467 -0.5155 -0.0633  0.0350
  815MOL0     C 9895   6.466   0.841   8.547 -0.5211  0.4675  0.4519
  815MOL0     C 9896   6.589   0.872   8.493 -0.0046  0.0401  0.9124
  815MOL0     C 9897   6.608   0.898   8.355 -0.4724  0.4737 -0.1846
  815MOL0     O 9898   6.729   0.930   8.300  0.3591 -0.2972  0.4561
  815MOL0     C 9899   6.835   0.944   8.400  0.1413  0.0664 -0.4747
  815MOL0     C 9900   6.968   0.984   8.328 -0.0196 -0.6507 -0.8354
  815MOL0     C 9901   6.977   1.143   8.302  0.5747 -0.7663 -0.0081
  815MOL0     C 9902   7.061   1.165   8.173  0.1114  0.5590 -0.5602
  815MOL0     C 9903   7.088   1.309   8.139 -0.3115  0.1633  1.4189
  815MOL0     C 9904   6.975   1.411   8.160 -0.2703  0.9096 -0.1845
  815MOL0     C 9905   7.025   1.553   8.132 -0.4917 -0.0688  1.1085
  815MOL0     C 9906   7.057   1.575   7.980  0.9366  0.5363 -0.3964
  815MOL0     N 9907   7.163   1.670   7.959 -0.3710 -0.0490 -0.8136
  815MOL0     C 9908   7.221   1.748   8.056  0.9570 -0.0102  1.1469
  815MOL0     C 9909   7.337   1.788   8.000 -0.7014 -0.7980 -0.7564
  815MOL0     C 9910   7.419   1.906   8.061  0.1974 -0.1685 -0.1490
  815MOL0     C 9911   7.503   1.855   8.181 -1.0988  0.1704  0.2157
  815MOL0     C 9912   7.560   1.967   8.271 -0.3171 -0.6097  0.2887
  815MOL0     C 9913   7.662   1.919   8.380 -0.0615 -0.2122 -0.0070
  815MOL0     O 9914   7.758   1.821   8.340 -0.5208 -0.6263  0.2221
  815MOL0     C 9915   7.885   1.860   8.344  0.3768 -0.4506  0.6473
  815MOL0     C 9916   7.933   1.972   8.276  0.0151 -0.2995  0.2659
  815MOL0     C 9917   8.071   2.009   8.289  0.0355 -0.8997 -1.0342
  815MOL0     C 9918   8.145   1.954   8.397 -0.4860 -1.1197  0.4380
  815MOL0     C 9919   8.254   2.036   8.454  0.1083 -0.3336 -1.1538
  815MOL0     O 9920   8.296   2.141   8.383  0.3253  0.5790  0.1096
  815MOL0     C 9921   8.374   2.235   8.450 -0.3316 -0.1830 -0.1813
  815MOL0     C 9922   8.505   2.202   8.494 -0.7798 -0.0704  0.5392
  815MOL0     C 9923   8.583   2.300   8.554 -0.4511  0.9000 -0.0678
  815MOL0     C 9924   8.528   2.427   8.585 -1.3310 -1.1122 -0.4922
  815MOL0     O 9925   8.598   2.526   8.658  0.5813 -0.5992 -0.4208
  815MOL0     C 9926   8.720   2.573   8.602  0.0723  0.3618 -0.0258
  815MOL0     C 9927   8.761   2.713   8.659  1.0716  0.5927 -0.0676
  815MOL0     C 9928   8.700   2.826   8.572  0.6499 -0.2988 -0.1489
  815MOL0     C 9929   8.677   2.958   8.651  0.0898  0.6550  0.1629
  815MOL0     C 9930   8.581   2.951   8.770  0.4325  0.1213  0.5757
  815MOL0     C 9931   8.592   3.072   8.854 -0.3173  1.2376 -0.3191
  815MOL0     C 9932   8.492   3.064   8.981  0.2640 -0.3482  0.1731
  815MOL0     C 9933   8.573   3.016   9.101  0.6229  0.8207 -0.2169
  815MOL0    Cl 9934   8.605   2.842   9.097  0.3259 -0.0824 -0.1922
  815MOL0     C 9935   8.400   2.459   8.539 -0.2451 -0.0442  1.1566
  815MOL0     C 9936   8.323   2.368   8.466 -0.2267  0.5775  0.7550
  815MOL0     O 9937   8.303   2.005   8.566 -0.0873  0.2072  0.3344
  815MOL0     C 9938   8.091   1.844   8.476 -0.1213 -0.5868 -0.6816
  815MOL0     C 9939   7.967   1.793   8.441 -0.5928 -0.5318 -0.3688
  815MOL0     N 9940   7.346   1.747   7.872 -0.8956  0.0817  0.2553
  815MOL0     N 9941   7.245   1.680   7.848  0.6358  0.5130  0.6218
  815MOL0     C 9942   6.497   0.904   8.274  0.5882 -0.0749  0.3800
  815MOL0     C 9943   6.360   0.888   8.330  0.1165  0.0902 -0.6543
  815MOL0     C 9944   6.014   0.750   8.561 -0.3407  0.2868  0.2197
  815MOL0     C 9945   5.964   0.633   8.629  0.2578 -1.7495 -0.1489
  815MOL0     C 9946   5.830   0.616   8.652 -0.0681 -0.9611 -0.2642
  815MOL0     C 9947   5.733   0.707   8.615  0.5337 -0.3419  0.2896
  815MOL0     O 9948   5.605   0.685   8.644  0.0300  0.4358  0.1665
  815MOL0     C 9949   5.503   0.783   8.634 -0.6215 -0.4087 -0.1664
  815MOL0     C 9950   5.365   0.714   8.638  0.0585 -0.5502 -0.1213
  815MOL0     C 9951   5.340   0.644   8.771  0.5358  0.0960 -0.1438
  815MOL0     C 9952   5.277   0.506   8.772  1.1084 -0.5171  0.5128
  815MOL0     C 9953   5.140   0.530   8.721 -0.2138 -0.6293 -0.0381
  815MOL0     C 9954   5.037   0.562   8.674 -0.1279  0.0531 -0.1692
  815MOL0     C 9955   5.782   0.836   8.562  0.2076 -0.6353 -0.0814
  815MOL0     C 9956   5.917   0.852   8.526  0.3654 -0.3700  0.1666
  815MOL0     C 9957   5.969   0.982   8.474  0.5493  0.4132  0.1930
  815MOL0     H 9958   6.437   0.807   8.646 -1.7182 -1.1345 -0.4064
  815MOL0     H 9959   6.670   0.868   8.565 -0.0930 -1.7839  0.9762
  815MOL0     H 9960   6.800   1.007   8.482 -2.5599  1.1149 -2.2725
  815MOL0     H 9961   6.852   0.843   8.437  0.9993 -0.7734 -2.9504
  815MOL0     H 9962   6.972   0.912   8.245  0.8753 -2.8938  1.0483
  815MOL0     H 9963   7.043   0.960   8.403 -0.6296  1.0986  0.3893
  815MOL0     H 9964   7.010   1.198   8.390  2.7321 -0.6936 -0.7899
  815MOL0     H 9965   6.873   1.168   8.281  0.2003 -2.3907 -0.1955
  815MOL0     H 9966   7.156   1.114   8.188 -0.2046  0.2295  0.3436
  815MOL0     H 9967   6.999   1.125   8.092 -2.4495  2.8041  0.1375
  815MOL0     H 9968   7.174   1.329   8.204  1.0242 -0.7545  0.0008
  815MOL0     H 9969   7.125   1.313   8.036 -0.5118 -0.2612  1.3254
  815MOL0     H 9970   6.885   1.386   8.103  0.7010  0.0267 -1.4066
  815MOL0     H 9971   6.942   1.388   8.261 -0.1486  0.5989 -0.2153
  815MOL0     H 9972   7.117   1.578   8.186 -0.0157  3.8262 -1.1130
  815MOL0     H 9973   6.944   1.616   8.168 -3.3867 -2.8214 -0.1454
  815MOL0     H 9974   7.094   1.487   7.926  3.0202  1.9214 -1.3666
  815MOL0     H 9975   6.961   1.602   7.936  1.7773  1.7385 -1.5503
  815MOL0     H 9976   7.175   1.766   8.153 -0.4151  0.3691  0.4550
  815MOL0     H 9977   7.489   1.954   7.992  0.7976  0.7894  1.0814
  815MOL0     H 9978   7.347   1.984   8.089 -1.0546 -1.8427  1.5912
  815MOL0     H 9979   7.444   1.791   8.247  1.9825 -0.4576  2.5849
  815MOL0     H 9980   7.581   1.797   8.131 -3.6761  0.1577 -4.3778
  815MOL0     H 9981   7.474   2.012   8.322 -0.0207 -0.2099  0.4389
  815MOL0     H 9982   7.614   2.047   8.220 -2.1152  0.0704 -0.6137
  815MOL0     H 9983   7.606   1.868   8.459  1.3799  0.5122  1.5471
  815MOL0     H 9984   7.703   2.013   8.418 -0.3267  0.4685 -1.3469
  815MOL0     H 9985   7.875   2.031   8.205  0.5227 -0.2781 -0.1311
  815MOL0     H 9986   8.118   2.087   8.230  0.8414 -1.1744 -0.7754
  815MOL0     H 9987   8.545   2.106   8.464 -0.7314 -0.0357  0.4931
  815MOL0     H 9988   8.687   2.277   8.576 -1.2804  0.1477  4.0124
  815MOL0     H 9989   8.800   2.506   8.637 -0.3229 -0.7829 -1.2309
  815MOL0     H 9990   8.710   2.586   8.494 -1.4361  1.6960  0.2430
  815MOL0     H 9991   8.736   2.711   8.766  2.7200 -1.6459  0.3510
  815MOL0     H 9992   8.870   2.716   8.659  1.1353 -1.0701 -0.8320
  815MOL0     H 9993   8.764   2.845   8.485 -0.3239  1.0362 -0.5984
  815MOL0     H 9994   8.602   2.805   8.530 -1.0868  0.7283  3.0365
  815MOL0     H 9995   8.647   3.041   8.586 -0.4479  0.5613  0.2799
  815MOL0     H 9996   8.777   2.983   8.685  1.4174 -1.3491 -2.0001
  815MOL0     H 9997   8.590   2.860   8.829 -1.0036  1.0176  2.2947
  815MOL0     H 9998   8.486   2.946   8.717  1.6142 -0.7190 -1.5589
  815MOL0     H 9999   8.694   3.088   8.889  0.1645 -3.7776  1.3906
  815MOL0     H10000   8.572   3.155   8.785  4.8745  1.2762 -2.1712
  815MOL0     H10001   8.401   3.004   8.969  0.2970 -0.2915 -0.3937
  815MOL0     H10002   8.469   3.167   9.009 -3.2961 -1.3673  1.7182
  815MOL0     H10003   8.662   3.077   9.117  2.3955 -1.6204 -0.1951
  815MOL0     H10004   8.510   3.041   9.187 -0.4800  0.6223 -0.9469
  815MOL0     H10005   8.355   2.552   8.573 -0.5527 -0.4052  1.7534
  815MOL0     H10006   8.223   2.394   8.433 -0.1454  3.3326  2.3384
  815MOL0     H10007   8.140   1.811   8.567 -1.7296  0.5922  0.6668
  815MOL0     H10008   7.929   1.711   8.501  1.4215  0.0404  1.8450
  815MOL0     H10009   6.514   0.929   8.170 -0.5397  5.4467  1.2115
  815MOL0     H10010   6.271   0.888   8.267 -0.1261  0.9067 -0.3277
  815MOL0     H10011   6.032   0.551   8.647  2.1444 -0.1049  0.6181
  815MOL0     H10012   5.802   0.521   8.696  1.6899 -1.9778 -1.2353
  815MOL0     H10013   5.515   0.844   8.544 -1.0978  0.1553  0.1445
  815MOL0     H10014   5.532   0.852   8.714  1.2282 -0.7285 -0.5216
  815MOL0     H10015   5.371   0.638   8.559  1.4611 -3.0650  2.1980
  815MOL0     H10016   5.281   0.783   8.629  2.6329  2.7440 -0.8929
  815MOL0     H10017   5.284   0.704   8.843  1.7891 -1.6810  2.4660
  815MOL0     H10018   5.437   0.621   8.815 -0.0823 -1.8632  0.3067
  815MOL0     H10019   5.330   0.439   8.704  2.1335  0.1279  0.6490
  815MOL0     H10020   5.270   0.466   8.873 -0.5975  1.6383  1.3315
  815MOL0     H10021   4.945   0.579   8.622  1.2629  4.2638 -1.7493
  815MOL0     H10022   5.709   0.910   8.533  0.1874 -1.0813 -1.2574
  815MOL0     H10023   6.023   0.968   8.381  0.5019  0.2099  0.1957
  815MOL0     H10024   5.886   1.053   8.466 -0.3217 -0.5649  0.4065
  815MOL0     H10025   6.046   1.017   8.543  1.6170 -0.6921 -0.4095
  816MOL0     O10026   9.910   4.607  10.747  0.7224  0.2499  0.1307
  816MOL0     C10027   9.818   4.604  10.661  0.3367 -0.1776  0.5047
  816MOL0     O10028   9.693   4.550  10.681  0.0765  0.8170 -0.9269
  816MOL0     C10029   9.659   4.454  10.778  0.8507 -0.5041 -0.1777
  816MOL0     C10030   9.745   4.366  10.844  0.3617  0.2648  0.5609
  816MOL0     C10031   9.691   4.268  10.933 -0.1689  0.0795 -0.3961
  816MOL0     C10032   9.557   4.266  10.975 -0.5053 -0.1405 -1.0227
  816MOL0     O10033   9.518   4.177  11.067 -0.3377  0.3442  0.2814
  816MOL0     C10034   9.410   4.205  11.148 -0.2779  0.0295 -0.9317
  816MOL0     C10035   9.401   4.138  11.292  1.0536 -0.7700 -0.4876
  816MOL0     C10036   9.542   4.122  11.353  0.0203 -0.4823  0.0397
  816MOL0     C10037   9.612   4.256  11.384 -0.2299  0.2646 -0.5027
  816MOL0     C10038   9.742   4.229  11.461 -0.1498  0.0979  0.0197
  816MOL0     C10039   9.795   4.356  11.535 -0.2645 -0.3477  0.6681
  816MOL0     C10040   9.806   4.336  11.681 -0.3593 -0.1396  0.7331
  816MOL0     C10041   9.667   4.323  11.753 -0.2675  0.2552 -0.4265
  816MOL0     N10042   9.596   4.453  11.771  0.7521  0.8405  0.3338
  816MOL0     C10043   9.648   4.577  11.811  0.2621 -0.5597 -0.4376
  816MOL0     C10044   9.543   4.659  11.796  0.3942 -0.3511  0.5443
  816MOL0     C10045   9.518   4.792  11.852  0.1236 -0.8550  0.0772
  816MOL0     C10046   9.623   4.864  11.938  0.3802 -0.0448  0.5490
  816MOL0     C10047   9.652   4.807  12.071 -0.0009  0.3244 -0.3736
  816MOL0     C10048   9.708   4.899  12.167  0.1998 -0.1480 -0.4798
  816MOL0     O10049   9.611   5.006  12.195 -0.1319  0.4117 -1.1236
  816MOL0     C10050   9.649   5.075  12.308  0.1600  0.2810 -0.7098
  816MOL0     C10051   9.551   5.140  12.373  0.5132 -0.1299  0.5398
  816MOL0     C10052   9.561   5.202  12.496 -0.0944 -0.3484 -0.7420
  816MOL0     C10053   9.694   5.207  12.552 -0.2703 -0.5770  0.4635
  816MOL0     C10054   9.715   5.275  12.684  0.4603 -0.7425 -0.3245
  816MOL0     O10055   9.597   5.317  12.738 -0.2059 -0.1569  0.1335
  816MOL0     C10056   9.609   5.363  12.862  0.5716 -0.5077 -0.1711
  816MOL0     C10057   9.621   5.502  12.887 -0.5484 -0.2741 -0.5608
  816MOL0     C10058   9.605   5.555  13.016 -0.9042 -0.2502 -0.3131
  816MOL0     C10059   9.598   5.469  13.125 -1.0973  0.3564 -0.9430
  816MOL0     O10060   9.583   5.522  13.253 -0.6652 -0.3112  0.2467
  816MOL0     C10061   9.460   5.474  13.314 -0.1739 -0.0538 -0.1937
  816MOL0     C10062   9.349   5.581  13.312 -0.8517  0.5934 -0.0897
  816MOL0     C10063   9.382   5.711  13.381 -0.4676 -0.1191  0.2132
  816MOL0     C10064   9.270   5.806  13.357  0.1332  0.3787  0.0966
  816MOL0     C10065   9.287   5.947  13.415 -0.6413  0.6674 -1.1334
  816MOL0     C10066   9.226   5.984  13.562 -0.5480  0.5494  0.6607
  816MOL0     C10067   9.287   5.879  13.669  0.7014 -0.4603 -0.7177
  816MOL0     C10068   9.262   5.944  13.809  0.5656  0.6171  0.4585
  816MOL0    Cl10069   9.093   5.976  13.849  0.1496  0.8353 -0.2516
  816MOL0     C10070   9.607   5.333  13.104  0.6618  0.5577 -1.1974
  816MOL0     C10071   9.612   5.280  12.972 -0.9460 -0.0608  0.4797
  816MOL0     O10072   9.825   5.293  12.721 -1.0807 -0.3953 -0.2946
  816MOL0     C10073   9.808   5.158  12.477  0.7102  0.3539  0.2618
  816MOL0     C10074   9.781   5.086  12.363  0.0139 -0.3726  0.4517
  816MOL0     N10075   9.430   4.579  11.760 -0.4891 -0.2913  0.1055
  816MOL0     N10076   9.468   4.463  11.725  0.1725  0.3756 -0.0470
  816MOL0     C10077   9.471   4.354  10.905 -0.2604  0.2608  1.3639
  816MOL0     C10078   9.524   4.443  10.808  0.5681 -0.2370 -0.1381
  816MOL0     C10079   9.860   4.661  10.530 -0.3011 -0.8189  0.0928
  816MOL0     C10080   9.989   4.726  10.517 -0.3006 -0.3112  0.6301
  816MOL0     C10081  10.031   4.782  10.398  0.8424 -0.2914  0.6586
  816MOL0     C10082   9.949   4.759  10.285  0.5289  1.0845 -0.6078
  816MOL0     O10083   9.983   4.814  10.168  0.1259  0.1343  0.1807
  816MOL0     C10084  10.107   4.895  10.153  0.4211  1.1835 -0.0359
  816MOL0     C10085  10.134   4.931  10.014 -0.6273 -0.4072  0.3459
  816MOL0     C10086  10.250   5.026   9.998 -0.4382  0.0168 -0.2987
  816MOL0     C10087  10.383   4.983  10.063 -0.0153 -0.3780 -0.0614
  816MOL0     C10088  10.414   4.862   9.996  0.3145  0.1432 -0.2312
  816MOL0     C10089  10.421   4.756   9.938 -0.6255  0.4586  0.7276
  816MOL0     C10090   9.828   4.700  10.293  0.4297 -0.1931  0.0359
  816MOL0     C10091   9.775   4.657  10.413 -0.2731  0.0440 -0.2701
  816MOL0     C10092   9.635   4.608  10.395  0.0135  0.3290 -0.0537
  816MOL0     H10093   9.851   4.372  10.821  0.4119 -1.0699  0.3782
  816MOL0     H10094   9.754   4.192  10.977 -0.7287  0.2953  0.8356
  816MOL0     H10095   9.393   4.313  11.154 -1.5941 -0.2183  3.6328
  816MOL0     H10096   9.318   4.170  11.101  1.1761 -2.0811 -2.4133
  816MOL0     H10097   9.340   4.048  11.284  0.4904 -0.2518 -2.9136
  816MOL0     H10098   9.350   4.212  11.354  1.9758 -0.0877 -0.5170
  816MOL0     H10099   9.606   4.057  11.292  0.2063  0.5804 -0.9280
  816MOL0     H10100   9.527   4.072  11.450  1.4714  0.3977  0.7508
  816MOL0     H10101   9.632   4.317  11.295 -1.0485 -1.2767 -1.7943
  816MOL0     H10102   9.553   4.312  11.457 -0.2863 -0.6903  0.1902
  816MOL0     H10103   9.741   4.153  11.539  3.8385  0.2312  0.3893
  816MOL0     H10104   9.812   4.193  11.385 -0.5979  1.0946 -0.8907
  816MOL0     H10105   9.890   4.389  11.490 -0.9127 -0.8284 -1.1595
  816MOL0     H10106   9.717   4.430  11.517 -2.2609 -2.4982 -0.1126
  816MOL0     H10107   9.873   4.408  11.728  0.2390 -0.9497  1.1468
  816MOL0     H10108   9.858   4.242  11.697  1.5972  0.8283  0.3624
  816MOL0     H10109   9.610   4.244  11.703  0.9192 -0.1317 -1.2030
  816MOL0     H10110   9.676   4.278  11.852  2.1554 -2.1253 -1.6267
  816MOL0     H10111   9.749   4.592  11.849 -0.6405  0.8620  1.5651
  816MOL0     H10112   9.488   4.849  11.764  0.1269 -1.8366 -0.5824
  816MOL0     H10113   9.422   4.789  11.906 -1.8305 -0.8477 -3.1268
  816MOL0     H10114   9.720   4.870  11.887 -0.0721  0.7946 -0.2521
  816MOL0     H10115   9.582   4.964  11.947 -0.0533 -0.1880  0.2265
  816MOL0     H10116   9.721   4.723  12.060  0.7448  0.6681  1.3892
  816MOL0     H10117   9.558   4.784  12.123  0.5858  2.4615  1.8276
  816MOL0     H10118   9.800   4.928  12.114  0.0349  1.3669  0.0286
  816MOL0     H10119   9.746   4.842  12.252  2.3834  0.6059 -0.8637
  816MOL0     H10120   9.447   5.120  12.350  1.0924 -1.4402 -1.0839
  816MOL0     H10121   9.471   5.232  12.549  0.4767 -0.3764  0.2653
  816MOL0     H10122   9.629   5.571  12.804 -1.5691 -2.1565 -2.3205
  816MOL0     H10123   9.618   5.661  13.035 -1.6774  0.2462 -2.3123
  816MOL0     H10124   9.411   5.393  13.261 -0.4424 -2.2863  3.1378
  816MOL0     H10125   9.476   5.448  13.419  1.5683 -0.0967 -0.4319
  816MOL0     H10126   9.331   5.609  13.208 -1.6831  2.6867  0.5548
  816MOL0     H10127   9.259   5.539  13.358 -0.3935  2.9636  3.3435
  816MOL0     H10128   9.399   5.702  13.489  1.3771  3.9810  0.4653
  816MOL0     H10129   9.477   5.758  13.354 -0.2423 -0.3939  0.5115
  816MOL0     H10130   9.180   5.768  13.407  1.3949 -2.1964  0.6010
  816MOL0     H10131   9.245   5.816  13.251  0.1028  1.5201  0.2038
  816MOL0     H10132   9.241   6.020  13.348 -1.7691  0.9692 -0.0709
  816MOL0     H10133   9.392   5.977  13.412 -0.7310  1.2416  0.5251
  816MOL0     H10134   9.254   6.088  13.576 -1.4788  0.9648 -0.3933
  816MOL0     H10135   9.117   5.986  13.553 -0.8442  0.2254  3.2084
  816MOL0     H10136   9.392   5.850  13.668  0.0515 -3.4698  2.0241
  816MOL0     H10137   9.222   5.791  13.668  0.9656 -0.6874  0.4854
  816MOL0     H10138   9.289   5.872  13.886 -1.0919 -1.8116 -1.0843
  816MOL0     H10139   9.326   6.032  13.813  1.2489  0.3618 -2.5240
  816MOL0     H10140   9.599   5.262  13.186 -0.5374 -0.0287 -1.7819
  816MOL0     H10141   9.623   5.173  12.955  4.6597  0.3954 -0.6641
  816MOL0     H10142   9.909   5.183  12.508  0.9771  0.0507 -0.3388
  816MOL0     H10143   9.867   5.032  12.323  0.5915  0.5276  0.4558
  816MOL0     H10144   9.365   4.329  10.910 -0.1918 -1.5257 -2.5888
  816MOL0     H10145   9.465   4.520  10.759  0.6760  0.1407  0.3130
  816MOL0     H10146  10.060   4.744  10.597  0.0780  0.7795  0.0608
  816MOL0     H10147  10.120   4.843  10.405 -0.1969  1.7647 -2.0059
  816MOL0     H10148  10.193   4.835  10.183 -1.1910 -0.7808  0.8554
  816MOL0     H10149  10.100   4.979  10.223 -0.2959  1.2077 -0.1228
  816MOL0     H10150  10.040   4.971   9.976  0.3794  0.5929 -1.1835
  816MOL0     H10151  10.148   4.844   9.948  2.0766 -1.0204  1.6110
  816MOL0     H10152  10.215   5.118  10.045 -3.4821 -1.6489  1.0016
  816MOL0     H10153  10.252   5.048   9.891  2.7912  2.5031  0.1503
  816MOL0     H10154  10.463   5.052  10.034  0.3259 -0.3987  0.7850
  816MOL0     H10155  10.391   4.975  10.172 -0.4245  4.1767  0.4766
  816MOL0     H10156  10.423   4.655   9.903 -1.8142 -0.2617  2.5434
  816MOL0     H10157   9.769   4.669  10.208  1.7835 -1.7717 -0.3933
  816MOL0     H10158   9.572   4.651  10.473 -1.5598 -0.6724 -0.7235
  816MOL0     H10159   9.601   4.649  10.300  0.8104  2.5834  0.5731
  816MOL0     H10160   9.627   4.499  10.399 -1.2398  0.4030 -0.2249
  817MOL0     O10161   4.727   0.393   8.637 -0.9724  0.0811 -0.4055
  817MOL0     C10162   4.611   0.360   8.663  0.0314 -0.7766 -0.7579
  817MOL0     O10163   4.526   0.281   8.599  0.0348 -0.8582  0.0581
  817MOL0     C10164   4.403   0.252   8.641 -0.3855  0.0260 -0.6959
  817MOL0     C10165   4.304   0.344   8.666 -0.1419 -0.4891 -0.0246
  817MOL0     C10166   4.170   0.310   8.707  0.3611 -0.8763  0.4136
  817MOL0     C10167   4.145   0.176   8.729 -0.6924 -0.9433 -0.0546
  817MOL0     O10168   4.031   0.130   8.785 -0.3902  0.0380  0.8587
  817MOL0     C10169   3.969   0.218   8.874  0.0631 -0.0220 -0.9573
  817MOL0     C10170   3.910   0.164   8.995  0.3434 -0.6435  0.2609
  817MOL0     C10171   3.819   0.259   9.077  0.8935 -0.3337 -0.1428
  817MOL0     C10172   3.693   0.313   9.004 -0.1212 -1.0413 -1.1382
  817MOL0     C10173   3.604   0.399   9.094 -0.2694  0.2514  0.6439
  817MOL0     C10174   3.664   0.532   9.141 -0.8018 -0.7996 -0.3959
  817MOL0     C10175   3.593   0.648   9.077  0.6382  1.0087 -0.1204
  817MOL0     C10176   3.641   0.787   9.124 -0.4725  0.4826 -0.5755
  817MOL0     N10177   3.652   0.793   9.279 -0.7501 -0.1763  0.4329
  817MOL0     C10178   3.767   0.813   9.351 -0.0831  0.7179 -0.3110
  817MOL0     C10179   3.737   0.777   9.476  0.9298 -0.8085 -0.1274
  817MOL0     C10180   3.843   0.786   9.593  0.2106  1.3442  0.0610
  817MOL0     C10181   3.841   0.658   9.689  0.5107 -0.1829 -0.3859
  817MOL0     C10182   3.851   0.523   9.613  0.0478  0.2725 -0.5753
  817MOL0     C10183   3.796   0.402   9.696  0.5455  0.6555  0.3123
  817MOL0     O10184   3.779   0.284   9.614  0.3602 -0.0667 -0.2803
  817MOL0     C10185   3.886   0.229   9.542 -0.3221 -0.7780 -0.0920
  817MOL0     C10186   4.023   0.263   9.550 -1.3794  0.6711  0.8566
  817MOL0     C10187   4.129   0.200   9.480 -0.4177 -0.9004 -0.5082
  817MOL0     C10188   4.088   0.106   9.382 -0.1655 -0.0249 -0.2971
  817MOL0     C10189   4.201   0.041   9.305  1.6739 -1.2744 -0.2113
  817MOL0     O10190   4.168  -0.083   9.259  0.6600 -0.9179  0.0397
  817MOL0     C10191   4.263  -0.175   9.211  1.1670  0.0052  0.4207
  817MOL0     C10192   4.404  -0.164   9.223  0.3237 -0.5817 -0.1845
  817MOL0     C10193   4.482  -0.272   9.205 -0.0780  0.2482  0.0212
  817MOL0     C10194   4.424  -0.393   9.169 -0.8609 -0.1514  0.4195
  817MOL0     O10195   4.501  -0.511   9.153 -1.0126  0.4211  0.0330
  817MOL0     C10196   4.513  -0.553   9.020 -0.2542 -0.4345  0.0663
  817MOL0     C10197   4.604  -0.682   9.016  0.1081  0.2026  0.7982
  817MOL0     C10198   4.748  -0.629   9.023  0.7619  0.1392  0.3388
  817MOL0     C10199   4.848  -0.729   9.050 -0.5846 -0.1977  0.1544
  817MOL0     C10200   4.989  -0.655   9.041 -0.3868  0.9049 -0.3122
  817MOL0     C10201   5.112  -0.732   9.077  0.3609 -0.4825 -0.4274
  817MOL0     C10202   5.131  -0.848   8.992  0.6604 -0.1196  0.3940
  817MOL0     C10203   5.051  -0.961   9.046  0.1988  0.4111  0.7015
  817MOL0    Cl10204   5.156  -1.057   9.143 -0.1656 -0.0061  0.2065
  817MOL0     C10205   4.285  -0.404   9.135 -0.7788 -0.0512 -0.8157
  817MOL0     C10206   4.214  -0.292   9.162 -0.7740  0.1463 -0.0295
  817MOL0     O10207   4.313   0.096   9.310  0.0838 -0.3403  0.4634
  817MOL0     C10208   3.954   0.058   9.388 -0.3503 -1.0221 -0.4707
  817MOL0     C10209   3.858   0.131   9.456  0.2174 -0.2256  0.9598
  817MOL0     N10210   3.596   0.750   9.479 -0.4807  0.1081 -0.5515
  817MOL0     N10211   3.552   0.750   9.359  0.5319  0.3779  0.3177
  817MOL0     C10212   4.241   0.082   8.709  0.0686  0.9163  0.0482
  817MOL0     C10213   4.367   0.122   8.660  0.5382 -0.3079  0.0478
  817MOL0     C10214   4.594   0.380   8.810  0.0587  0.0961  0.0926
  817MOL0     C10215   4.583   0.267   8.898 -0.1331  0.1045  0.1840
  817MOL0     C10216   4.547   0.290   9.033 -0.3356 -0.3068  1.0894
  817MOL0     C10217   4.533   0.418   9.084  0.4325 -0.1792  0.1281
  817MOL0     O10218   4.508   0.436   9.224 -0.6161 -0.0696  0.1655
  817MOL0     C10219   4.368   0.439   9.256 -0.0214 -0.4766  0.5941
  817MOL0     C10220   4.318   0.582   9.241 -0.3121 -1.2913 -0.1496
  817MOL0     C10221   4.170   0.604   9.289  1.4475  0.1829  0.4197
  817MOL0     C10222   4.075   0.502   9.225  0.1592 -0.4916  0.3679
  817MOL0     C10223   4.068   0.530   9.079 -0.4919  0.6440  0.1546
  817MOL0     C10224   4.062   0.573   8.966 -0.2777 -0.4838 -0.2900
  817MOL0     C10225   4.564   0.527   9.003  0.2321  0.7260 -0.2048
  817MOL0     C10226   4.582   0.506   8.864 -0.3585  0.2343 -0.1035
  817MOL0     C10227   4.616   0.631   8.788  0.1584  0.6769  0.4772
  817MOL0     H10228   4.330   0.446   8.641 -0.9701 -0.1757  0.3551
  817MOL0     H10229   4.090   0.383   8.706  1.2191  0.1172 -1.8978
  817MOL0     H10230   4.026   0.306   8.904 -1.6427  0.4862  1.0849
  817MOL0     H10231   3.886   0.264   8.818  0.7925  3.5686  0.6219
  817MOL0     H10232   3.991   0.138   9.064  1.1737  2.0560  0.4202
  817MOL0     H10233   3.842   0.085   8.962 -4.3516  3.1670 -0.3003
  817MOL0     H10234   3.873   0.341   9.126 -1.1179 -0.2750  2.1754
  817MOL0     H10235   3.774   0.197   9.155  0.4448  0.2074  0.0412
  817MOL0     H10236   3.731   0.372   8.920 -1.5483  1.2802 -0.2533
  817MOL0     H10237   3.623   0.239   8.963 -2.7710  1.0864 -0.7060
  817MOL0     H10238   3.509   0.427   9.048  0.9558  0.1564 -2.1326
  817MOL0     H10239   3.594   0.345   9.189  0.2118 -0.2844  0.3952
  817MOL0     H10240   3.633   0.522   9.246 -0.9869 -2.5595 -0.5779
  817MOL0     H10241   3.773   0.533   9.132 -0.5334 -4.5932  0.4118
  817MOL0     H10242   3.486   0.632   9.088  0.4192  2.0973 -0.5593
  817MOL0     H10243   3.619   0.650   8.970  2.2108 -0.1500  0.1959
  817MOL0     H10244   3.738   0.813   9.080 -0.7286  1.0183 -0.8367
  817MOL0     H10245   3.566   0.864   9.105  2.2400  3.5692  0.2276
  817MOL0     H10246   3.865   0.843   9.314  1.1419 -3.3379 -0.8029
  817MOL0     H10247   3.942   0.806   9.551  1.7033  0.6685  2.9583
  817MOL0     H10248   3.822   0.869   9.661  4.9513  3.3245 -0.5064
  817MOL0     H10249   3.929   0.663   9.754 -0.7886  2.4721  1.3466
  817MOL0     H10250   3.747   0.653   9.745  0.7180  2.1639  0.2765
  817MOL0     H10251   3.957   0.508   9.591 -0.2596 -2.9904 -0.3107
  817MOL0     H10252   3.795   0.527   9.519  0.4169 -3.4833 -1.1253
  817MOL0     H10253   3.702   0.428   9.744  0.6287 -2.0642  2.2153
  817MOL0     H10254   3.864   0.369   9.775 -1.4734 -1.2814  1.3630
  817MOL0     H10255   4.054   0.344   9.616 -0.8348  1.6244 -0.4995
  817MOL0     H10256   4.230   0.235   9.494  0.6373 -3.6222 -0.7433
  817MOL0     H10257   4.453  -0.076   9.264  0.6801 -1.5098  1.4638
  817MOL0     H10258   4.581  -0.246   9.239 -0.3861  0.4057  0.8199
  817MOL0     H10259   4.418  -0.585   8.978  1.1646 -3.1001 -1.3847
  817MOL0     H10260   4.551  -0.476   8.953  1.8525 -2.8074 -1.6894
  817MOL0     H10261   4.585  -0.755   9.095  4.7992 -1.3548  0.8137
  817MOL0     H10262   4.587  -0.728   8.918 -0.8654  1.4341  0.3701
  817MOL0     H10263   4.762  -0.594   8.920 -0.5876 -0.9884 -0.2657
  817MOL0     H10264   4.750  -0.556   9.104 -0.7973  2.1234 -1.2921
  817MOL0     H10265   4.837  -0.808   8.976  3.9603 -0.2228 -0.7813
  817MOL0     H10266   4.829  -0.775   9.147 -1.8362 -1.4897 -0.6742
  817MOL0     H10267   4.982  -0.560   9.096 -1.5143  1.3640 -1.2247
  817MOL0     H10268   5.006  -0.612   8.942  1.4306 -1.5968 -1.1638
  817MOL0     H10269   5.196  -0.665   9.056  1.4866 -1.6543  0.2014
  817MOL0     H10270   5.110  -0.749   9.185 -1.0998 -4.1029 -0.8959
  817MOL0     H10271   5.233  -0.888   8.985  0.6484  0.0612 -1.2697
  817MOL0     H10272   5.102  -0.820   8.890  2.0040 -0.7581 -0.1987
  817MOL0     H10273   4.966  -0.933   9.109 -0.0825  0.3309  0.3686
  817MOL0     H10274   5.004  -1.015   8.962 -0.2385 -1.5996  2.1577
  817MOL0     H10275   4.248  -0.500   9.101 -1.5908 -0.5674  1.3230
  817MOL0     H10276   4.109  -0.300   9.137 -0.3813  0.1604 -1.8322
  817MOL0     H10277   3.919  -0.023   9.325 -0.4258  0.1833 -2.0337
  817MOL0     H10278   3.755   0.097   9.446  0.6370 -0.9299 -2.0093
  817MOL0     H10279   4.211  -0.021   8.720 -3.0086  1.6901 -0.1193
  817MOL0     H10280   4.445   0.047   8.656  0.5304 -0.5236  2.4940
  817MOL0     H10281   4.605   0.165   8.869  1.1246  0.1501  0.8874
  817MOL0     H10282   4.534   0.217   9.112  4.1692 -0.7442  1.7140
  817MOL0     H10283   4.355   0.405   9.359  0.7225 -1.0729  0.4958
  817MOL0     H10284   4.313   0.369   9.193  2.3194 -3.2288  1.4226
  817MOL0     H10285   4.328   0.604   9.135  0.9434  0.1665  0.2380
  817MOL0     H10286   4.382   0.654   9.292 -1.3702 -0.1630 -0.3649
  817MOL0     H10287   4.130   0.700   9.258 -2.6531 -1.6996 -0.7985
  817MOL0     H10288   4.161   0.603   9.398 -0.8973  1.6671  0.3086
  817MOL0     H10289   4.103   0.399   9.244  1.6808 -1.2298 -4.4498
  817MOL0     H10290   3.973   0.519   9.260 -0.6865 -2.1065 -1.1565
  817MOL0     H10291   4.061   0.615   8.868  0.5428 -2.3604 -1.1584
  817MOL0     H10292   4.561   0.624   9.050 -0.3501  1.3755 -1.5388
  817MOL0     H10293   4.690   0.612   8.710 -0.5074  0.7065 -0.1667
  817MOL0     H10294   4.518   0.659   8.749 -0.0151 -0.5362 -0.0014
  817MOL0     H10295   4.652   0.718   8.843  0.2445  0.4064  0.8545
  818MOL0     O10296  10.792   2.789   0.181 -0.3260 -0.3068 -0.5156
  818MOL0     C10297  10.773   2.672   0.200 -0.2604  1.4445  0.6272
  818MOL0     O10298  10.793   2.577   0.107  0.4458 -0.9230  0.3333
  818MOL0     C10299  10.855   2.601  -0.011 -0.6483 -0.3003  0.6322
  818MOL0     C10300  10.880   2.725  -0.082  0.1032 -0.4604 -0.1535
  818MOL0     C10301  10.958   2.726  -0.198 -0.2759  0.4413  1.3004
  818MOL0     C10302  11.006   2.612  -0.255 -1.1936  0.5140  0.2128
  818MOL0     O10303  11.073   2.617  -0.376 -0.3197  0.3900  0.2907
  818MOL0     C10304  11.023   2.526  -0.474  0.8851  0.1899  0.4723
  818MOL0     C10305  10.911   2.590  -0.562  0.7915  0.6932 -0.0252
  818MOL0     C10306  10.903   2.527  -0.695  0.1888 -0.4559  0.3515
  818MOL0     C10307  10.984   2.610  -0.795 -0.4467 -0.4170  0.3806
  818MOL0     C10308  10.980   2.539  -0.934 -0.2093 -0.8346  0.1054
  818MOL0     C10309  10.837   2.541  -0.986 -0.1279 -0.3712 -1.2496
  818MOL0     C10310  10.835   2.519  -1.140  0.8836  0.7832  1.0665
  818MOL0     C10311  10.782   2.379  -1.187  0.2822 -1.1231  0.1138
  818MOL0     N10312  10.683   2.406  -1.300  0.1770 -0.8925  0.7148
  818MOL0     C10313  10.569   2.476  -1.305  0.4950  0.6938 -0.3189
  818MOL0     C10314  10.528   2.487  -1.437 -0.4536  0.1969 -0.6700
  818MOL0     C10315  10.399   2.554  -1.487 -0.7656  0.8038 -0.3824
  818MOL0     C10316  10.272   2.477  -1.450  0.0604 -0.0703  0.8781
  818MOL0     C10317  10.259   2.351  -1.549  0.3738  0.2419  0.2812
  818MOL0     C10318  10.118   2.292  -1.537 -0.3518  0.7583 -0.2593
  818MOL0     O10319  10.019   2.387  -1.587  0.1456  0.4653 -0.5652
  818MOL0     C10320  10.014   2.408  -1.719 -1.2834 -0.0690  0.6575
  818MOL0     C10321  10.025   2.536  -1.776 -0.7837 -0.3703 -0.0752
  818MOL0     C10322  10.026   2.554  -1.913 -0.6270 -0.0802  0.2151
  818MOL0     C10323  10.006   2.448  -2.002 -1.0110  0.0338 -0.3594
  818MOL0     C10324   9.995   2.472  -2.153  0.8738 -0.0783  0.6600
  818MOL0     O10325   9.998   2.595  -2.192  0.2860 -0.7697  0.8835
  818MOL0     C10326   9.968   2.619  -2.326  0.3259 -0.3112  0.0917
  818MOL0     C10327  10.042   2.702  -2.412 -0.7425  0.7923 -0.5596
  818MOL0     C10328   9.988   2.750  -2.537  1.4535 -0.3447 -0.7608
  818MOL0     C10329   9.860   2.715  -2.573 -0.0662 -0.1382 -0.7748
  818MOL0     O10330   9.803   2.755  -2.691  0.6593  0.2762 -0.4856
  818MOL0     C10331   9.874   2.719  -2.806 -0.0511 -0.3281 -0.9688
  818MOL0     C10332   9.863   2.818  -2.918  0.6345 -0.3847 -0.0593
  818MOL0     C10333   9.726   2.807  -2.972 -0.9922  0.6600 -0.5549
  818MOL0     C10334   9.712   2.891  -3.105  0.6946  0.0034 -0.0620
  818MOL0     C10335   9.561   2.906  -3.130  0.5111 -0.8305 -0.4335
  818MOL0     C10336   9.522   2.982  -3.261 -0.4999  0.1749 -0.2386
  818MOL0     C10337   9.369   2.998  -3.281 -1.0615 -0.0069 -0.0123
  818MOL0     C10338   9.347   3.087  -3.402 -0.7109 -0.2361 -0.9904
  818MOL0    Cl10339   9.176   3.126  -3.402 -0.2971  0.4371  0.0027
  818MOL0     C10340   9.792   2.625  -2.495 -0.4549 -0.1253 -0.0957
  818MOL0     C10341   9.844   2.592  -2.369  0.6078  0.6810 -0.3367
  818MOL0     O10342   9.993   2.376  -2.233 -0.1621  0.3066 -0.1210
  818MOL0     C10343   9.989   2.316  -1.953  0.0650  0.4049 -0.0215
  818MOL0     C10344   9.991   2.303  -1.810  0.3876  0.4695  0.1558
  818MOL0     N10345  10.619   2.423  -1.515 -0.3089  0.3238  0.9244
  818MOL0     N10346  10.707   2.372  -1.425 -0.4936  0.3838  0.0826
  818MOL0     C10347  10.982   2.490  -0.186 -0.7157  0.4445 -0.8919
  818MOL0     C10348  10.911   2.482  -0.071 -0.4194  0.2721  0.4783
  818MOL0     C10349  10.672   2.643   0.305 -0.0198 -0.4613  0.6289
  818MOL0     C10350  10.561   2.566   0.264 -0.8214 -0.4812  0.4927
  818MOL0     C10351  10.452   2.548   0.352 -0.1855 -0.0401 -0.6629
  818MOL0     C10352  10.439   2.625   0.468 -0.2948  0.3333  0.5369
  818MOL0     O10353  10.324   2.629   0.545  0.4170  0.4528 -0.8542
  818MOL0     C10354  10.196   2.608   0.482 -0.9184 -0.3466  0.2393
  818MOL0     C10355  10.123   2.497   0.555  0.0535  0.2779 -0.2764
  818MOL0     C10356   9.987   2.484   0.496 -0.5831  0.0731 -0.1843
  818MOL0     C10357   9.913   2.370   0.564  0.5282 -0.9625 -0.2387
  818MOL0     C10358   9.775   2.356   0.531 -0.2390 -0.3627 -0.6137
  818MOL0     C10359   9.659   2.348   0.508 -0.1658 -0.5164 -0.4145
  818MOL0     C10360  10.548   2.698   0.508 -0.6744  0.2241  0.1766
  818MOL0     C10361  10.670   2.711   0.435  0.5302  0.4026 -0.5539
  818MOL0     C10362  10.788   2.792   0.501  0.8944 -0.5380  0.1905
  818MOL0     H10363  10.833   2.818  -0.050  2.3566 -0.1896  2.7060
  818MOL0     H10364  10.971   2.818  -0.253 -1.5832 -2.4364 -4.5299
  818MOL0     H10365  11.108   2.501  -0.538 -0.4766 -3.0921 -0.2423
  818MOL0     H10366  10.981   2.434  -0.432 -1.1006  1.2915  1.0413
  818MOL0     H10367  10.935   2.697  -0.572 -0.6661  0.9478 -1.0471
  818MOL0     H10368  10.814   2.588  -0.512  0.0628 -1.5574 -1.3874
  818MOL0     H10369  10.797   2.542  -0.716  0.4060  1.7338  0.6377
  818MOL0     H10370  10.923   2.420  -0.702 -2.2384 -1.0062  0.6625
  818MOL0     H10371  10.948   2.712  -0.808  1.5046  0.3316  0.6445
  818MOL0     H10372  11.086   2.628  -0.760 -0.5138  1.4417 -0.2892
  818MOL0     H10373  11.039   2.598  -1.005  2.0163 -0.5259  2.0739
  818MOL0     H10374  11.014   2.436  -0.939 -1.9154 -1.4101 -0.1169
  818MOL0     H10375  10.782   2.456  -0.945 -1.5529  1.9109  1.9816
  818MOL0     H10376  10.793   2.639  -0.962  1.9945  0.4586 -0.5107
  818MOL0     H10377  10.935   2.528  -1.183 -0.3129  0.9508 -1.8956
  818MOL0     H10378  10.774   2.597  -1.185  0.0217 -0.9338 -0.9026
  818MOL0     H10379  10.866   2.314  -1.214  2.4145  0.0694  3.2803
  818MOL0     H10380  10.735   2.333  -1.099  4.1399 -0.7602  2.5838
  818MOL0     H10381  10.493   2.499  -1.230 -0.0469  0.7044 -0.8679
  818MOL0     H10382  10.388   2.653  -1.441 -1.2438  0.1947  0.8507
  818MOL0     H10383  10.432   2.566  -1.591  1.4235  0.2649  0.1882
  818MOL0     H10384  10.280   2.443  -1.346  1.1783 -1.4603  0.3666
  818MOL0     H10385  10.181   2.534  -1.469 -1.2490 -2.1226  0.7353
  818MOL0     H10386  10.331   2.277  -1.515 -1.4470 -1.8360 -0.1945
  818MOL0     H10387  10.280   2.380  -1.653  2.3123  0.7030  0.7521
  818MOL0     H10388  10.104   2.279  -1.430 -0.0852  1.2372 -0.1589
  818MOL0     H10389  10.121   2.191  -1.578  2.2557  1.3095 -1.6620
  818MOL0     H10390  10.028   2.616  -1.703 -2.3949 -0.5994  0.2775
  818MOL0     H10391  10.039   2.658  -1.939 -1.1543  0.0485  0.4695
  818MOL0     H10392  10.135   2.736  -2.367 -0.1858  1.4705 -2.1493
  818MOL0     H10393  10.042   2.823  -2.596  0.2025  1.6229  0.4028
  818MOL0     H10394   9.983   2.723  -2.793  0.1286 -3.6258 -0.8289
  818MOL0     H10395   9.844   2.618  -2.834 -1.9197 -0.1998  0.3909
  818MOL0     H10396   9.880   2.920  -2.884  2.7905  0.0643 -2.2246
  818MOL0     H10397   9.931   2.786  -2.997 -0.3737 -0.6148 -0.8635
  818MOL0     H10398   9.705   2.701  -2.991  2.6458 -0.1480 -0.8465
  818MOL0     H10399   9.653   2.836  -2.896 -1.2706 -1.4058  0.0370
  818MOL0     H10400   9.760   2.834  -3.185  0.3812 -1.0725  0.5042
  818MOL0     H10401   9.774   2.982  -3.102  3.4024 -1.6841 -1.0163
  818MOL0     H10402   9.532   2.972  -3.048  4.5358  1.6618 -0.7163
  818MOL0     H10403   9.516   2.807  -3.120 -0.7399 -0.0954  2.1197
  818MOL0     H10404   9.560   3.085  -3.258 -5.0622  2.1227  3.8214
  818MOL0     H10405   9.558   2.926  -3.348 -2.5800 -0.5996 -0.6389
  818MOL0     H10406   9.337   3.044  -3.187  1.3703  0.5893  0.5875
  818MOL0     H10407   9.321   2.903  -3.305 -1.7317  0.9097 -2.6043
  818MOL0     H10408   9.404   3.177  -3.379  1.3742 -0.8685 -3.2497
  818MOL0     H10409   9.389   3.053  -3.497  2.1995  1.7014 -0.5046
  818MOL0     H10410   9.694   2.591  -2.527 -1.2199 -0.0307  2.0487
  818MOL0     H10411   9.768   2.545  -2.307  0.5120  0.9844 -0.2165
  818MOL0     H10412   9.953   2.238  -2.020 -2.4467  1.1759  0.3077
  818MOL0     H10413   9.956   2.206  -1.777 -1.6404  0.8717 -0.6714
  818MOL0     H10414  11.020   2.392  -0.213  1.6582  0.3781  2.1457
  818MOL0     H10415  10.907   2.380  -0.033 -3.1362  1.4117  3.8113
  818MOL0     H10416  10.556   2.521   0.165  1.0589 -0.0013  0.1445
  818MOL0     H10417  10.367   2.492   0.315  1.8913 -1.5204 -3.5622
  818MOL0     H10418  10.192   2.571   0.379  0.2759  2.5204 -0.9187
  818MOL0     H10419  10.152   2.706   0.499  1.6561  0.3618  4.1724
  818MOL0     H10420  10.122   2.515   0.663  2.1732 -1.8043  0.1838
  818MOL0     H10421  10.184   2.406   0.545 -0.8829 -0.6522  1.8783
  818MOL0     H10422   9.997   2.458   0.391 -1.4843 -2.8530  0.3672
  818MOL0     H10423   9.928   2.576   0.506 -1.6981 -0.8201  2.6421
  818MOL0     H10424   9.959   2.273   0.543 -2.3010 -3.0331  2.1804
  818MOL0     H10425   9.908   2.388   0.672 -1.2680  0.7209 -0.5450
  818MOL0     H10426   9.553   2.339   0.497  0.2110 -3.6890 -3.2651
  818MOL0     H10427  10.544   2.752   0.602 -1.5487 -0.2612  0.4311
  818MOL0     H10428  10.770   2.900   0.510  2.6481 -0.3172  1.8747
  818MOL0     H10429  10.806   2.753   0.601  1.6659  1.5208  0.9121
  818MOL0     H10430  10.881   2.769   0.448  1.5429 -0.1463  1.1255
  819MOL0     O10431  11.007   4.776   7.395  0.1063  0.5118  0.7637
  819MOL0     C10432  11.039   4.816   7.285 -0.0782 -0.8494  0.8427
  819MOL0     O10433  11.076   4.729   7.176  0.7302 -0.5152 -0.4261
  819MOL0     C10434  11.052   4.599   7.205 -0.2001  0.2150  0.4595
  819MOL0     C10435  10.937   4.539   7.258 -0.6899 -0.6435 -0.3310
  819MOL0     C10436  10.920   4.400   7.262 -0.0478  0.2673  0.0886
  819MOL0     C10437  11.011   4.311   7.199  0.0574  1.1620 -0.4223
  819MOL0     O10438  10.989   4.176   7.207 -0.5424 -0.0100  0.2250
  819MOL0     C10439  11.113   4.085   7.198  0.1904 -0.4484 -0.3603
  819MOL0     C10440  11.109   3.935   7.228 -0.1713  0.3236  1.2796
  819MOL0     C10441  11.247   3.865   7.228 -0.7239  0.1657 -0.3288
  819MOL0     C10442  11.252   3.718   7.280 -0.9522  0.0327  0.1021
  819MOL0     C10443  11.384   3.654   7.248  0.2836  0.2815 -0.1217
  819MOL0     C10444  11.424   3.655   7.104 -0.4502 -0.6942 -0.4356
  819MOL0     C10445  11.525   3.548   7.059 -0.1658 -0.6623  0.0305
  819MOL0     C10446  11.466   3.408   7.066  0.4030 -1.2493 -0.2939
  819MOL0     N10447  11.560   3.309   7.018  0.0318 -0.4738 -2.0252
  819MOL0     C10448  11.632   3.239   7.112  0.2695 -0.0655  0.0425
  819MOL0     C10449  11.695   3.141   7.040 -0.7349 -0.1708 -0.2408
  819MOL0     C10450  11.778   3.025   7.096  0.5770 -0.1198  0.1442
  819MOL0     C10451  11.928   3.068   7.113 -0.0741 -0.2075 -0.6395
  819MOL0     C10452  11.956   3.112   7.263  0.8062  0.4931  0.3035
  819MOL0     C10453  12.105   3.093   7.285 -0.1037  0.3693  0.4718
  819MOL0     O10454  12.160   3.189   7.369 -0.0794  0.4165 -0.1625
  819MOL0     C10455  12.275   3.171   7.438  0.9998  0.0459 -0.5721
  819MOL0     C10456  12.310   3.271   7.532 -1.3552 -0.9193 -0.4582
  819MOL0     C10457  12.439   3.281   7.585 -0.3413 -0.0142  0.3879
  819MOL0     C10458  12.533   3.187   7.559 -0.2252  0.6720  0.1357
  819MOL0     C10459  12.663   3.197   7.633 -0.1230 -1.2172  0.4249
  819MOL0     O10460  12.658   3.266   7.750 -0.4031 -0.1583 -0.4671
  819MOL0     C10461  12.775   3.324   7.791 -0.6387  0.9817 -0.6259
  819MOL0     C10462  12.823   3.448   7.737 -0.0464  1.5353  0.0792
  819MOL0     C10463  12.929   3.516   7.803  0.6094 -0.2673 -0.3703
  819MOL0     C10464  12.993   3.451   7.908  0.7292 -1.5858  0.3359
  819MOL0     O10465  13.110   3.509   7.953 -0.2817  0.3548  0.1743
  819MOL0     C10466  13.148   3.477   8.086  0.8374  1.1034 -0.3788
  819MOL0     C10467  13.245   3.585   8.111  0.7952 -0.6785 -0.4502
  819MOL0     C10468  13.245   3.632   8.255 -0.4520 -1.0062  0.0863
  819MOL0     C10469  13.320   3.558   8.378 -0.5754 -0.2885  0.8061
  819MOL0     C10470  13.289   3.618   8.513  0.7768 -0.3782 -0.1924
  819MOL0     C10471  13.330   3.763   8.540  0.2191 -1.0724 -0.2009
  819MOL0     C10472  13.280   3.811   8.670 -0.3141 -0.0056  0.3405
  819MOL0     C10473  13.376   3.804   8.796 -0.2606 -0.7612  0.5342
  819MOL0    Cl10474  13.411   3.640   8.855 -0.4988  0.5158 -0.2463
  819MOL0     C10475  12.944   3.335   7.964 -0.2744  0.2486  0.0428
  819MOL0     C10476  12.834   3.271   7.914  0.3128 -0.4703  0.6240
  819MOL0     O10477  12.763   3.149   7.589 -0.9781  0.8007  0.0196
  819MOL0     C10478  12.501   3.075   7.472  0.4531 -0.0624  0.5836
  819MOL0     C10479  12.370   3.069   7.411  0.0578  0.5341  0.1958
  819MOL0     N10480  11.662   3.155   6.904  0.4501  0.0344  1.2665
  819MOL0     N10481  11.573   3.249   6.899  0.2814 -1.1042  0.0472
  819MOL0     C10482  11.126   4.372   7.144  0.5193  0.2673  0.8473
  819MOL0     C10483  11.141   4.506   7.149  0.5685 -0.1512  0.2782
  819MOL0     C10484  11.020   4.967   7.259  0.0308 -0.3345  0.4720
  819MOL0     C10485  11.010   5.056   7.370  0.8780  1.1980 -0.0723
  819MOL0     C10486  11.001   5.196   7.359 -0.7531  0.6761 -0.7498
  819MOL0     C10487  11.017   5.256   7.227 -0.0623 -0.4391 -0.5386
  819MOL0     O10488  10.996   5.391   7.210 -0.8333  0.5959 -0.1047
  819MOL0     C10489  10.893   5.455   7.297 -0.7399  0.2609  0.9925
  819MOL0     C10490  10.895   5.605   7.263  0.0781  0.6475 -0.1787
  819MOL0     C10491  10.865   5.624   7.120 -1.1535  0.5413  0.5145
  819MOL0     C10492  10.859   5.767   7.074 -0.4000  0.5609  0.7952
  819MOL0     C10493  10.759   5.842   7.142  0.8814 -0.1384  0.2885
  819MOL0     C10494  10.663   5.885   7.206 -1.0037 -0.2774 -0.3164
  819MOL0     C10495  11.043   5.164   7.118  0.1291  1.2982 -0.3158
  819MOL0     C10496  11.027   5.025   7.133 -0.4276  0.0681 -0.7763
  819MOL0     C10497  11.013   4.949   7.007  1.0330  0.8400  0.0706
  819MOL0     H10498  10.861   4.602   7.302  0.6262  0.6379  0.1824
  819MOL0     H10499  10.829   4.359   7.304 -1.0224  2.3401  0.1165
  819MOL0     H10500  11.151   4.087   7.096  2.7419 -0.4528  0.5195
  819MOL0     H10501  11.188   4.128   7.265 -0.4018  0.8147 -0.4655
  819MOL0     H10502  11.051   3.901   7.141  0.7892  2.7681 -0.4252
  819MOL0     H10503  11.057   3.917   7.322  1.3614  0.5136  2.1889
  819MOL0     H10504  11.317   3.917   7.294  0.6996  0.5139 -2.0405
  819MOL0     H10505  11.287   3.869   7.126 -0.1765  2.1075 -0.0798
  819MOL0     H10506  11.235   3.718   7.388 -0.0541  0.4311  0.2514
  819MOL0     H10507  11.180   3.660   7.222 -1.5680  1.2609 -0.4078
  819MOL0     H10508  11.463   3.706   7.304  0.0518  1.6013 -0.9783
  819MOL0     H10509  11.377   3.554   7.292  2.7732 -1.2029 -2.7452
  819MOL0     H10510  11.340   3.650   7.034 -0.0526 -1.5933 -0.8682
  819MOL0     H10511  11.475   3.751   7.094  0.6134 -1.2904 -0.8300
  819MOL0     H10512  11.602   3.562   7.135 -0.4785  1.4404  0.0177
  819MOL0     H10513  11.559   3.573   6.958 -3.6354 -2.2405 -1.7143
  819MOL0     H10514  11.444   3.384   7.171 -0.0552 -3.4168 -0.8360
  819MOL0     H10515  11.378   3.395   7.003  0.3036 -1.1872 -0.1694
  819MOL0     H10516  11.634   3.255   7.219  2.3367  0.7383 -0.0671
  819MOL0     H10517  11.751   2.978   7.191  0.7119 -2.4629 -0.9068
  819MOL0     H10518  11.766   2.943   7.024 -0.7451  1.0006 -0.9628
  819MOL0     H10519  11.990   2.991   7.067  1.3283  0.3151  0.3000
  819MOL0     H10520  11.949   3.151   7.046 -1.0434  0.6860  0.1228
  819MOL0     H10521  11.896   3.065   7.341  2.2967 -3.4006 -0.6609
  819MOL0     H10522  11.941   3.219   7.250 -2.2208 -0.0586 -1.8177
  819MOL0     H10523  12.159   3.089   7.191 -1.0156  2.2935 -0.1952
  819MOL0     H10524  12.122   2.999   7.337 -2.5368  0.1058  0.9169
  819MOL0     H10525  12.240   3.349   7.559 -3.0783 -2.0192 -1.5129
  819MOL0     H10526  12.446   3.364   7.654 -0.8821  0.4613 -0.1258
  819MOL0     H10527  12.788   3.495   7.645 -0.3097 -0.3112 -0.8258
  819MOL0     H10528  12.971   3.611   7.771 -0.9380  0.1518 -1.2725
  819MOL0     H10529  13.055   3.481   8.144 -0.7776 -0.4605 -2.6539
  819MOL0     H10530  13.202   3.385   8.109 -0.5539 -0.3533 -2.4983
  819MOL0     H10531  13.347   3.552   8.085  0.6901  0.8444 -3.1459
  819MOL0     H10532  13.233   3.671   8.045 -3.1135 -0.8196 -0.1259
  819MOL0     H10533  13.286   3.733   8.252 -2.1071 -0.2725  0.8287
  819MOL0     H10534  13.141   3.660   8.274 -0.3087  0.9358 -1.5624
  819MOL0     H10535  13.428   3.548   8.360  0.4431  1.6803  4.6668
  819MOL0     H10536  13.281   3.456   8.373 -1.8903  0.2170  0.4762
  819MOL0     H10537  13.350   3.567   8.588 -0.3970  0.2339  1.2416
  819MOL0     H10538  13.183   3.604   8.538  0.6388  1.5953  0.5199
  819MOL0     H10539  13.437   3.782   8.529  0.1353 -0.2216  0.3973
  819MOL0     H10540  13.268   3.826   8.475 -0.8161 -0.8208  0.9919
  819MOL0     H10541  13.192   3.750   8.692  0.5269 -1.4111 -0.0736
  819MOL0     H10542  13.259   3.918   8.659  3.0324  1.0594  2.8084
  819MOL0     H10543  13.462   3.870   8.777 -1.9029  0.8460 -1.9627
  819MOL0     H10544  13.314   3.856   8.870 -0.1583 -1.7209  1.3094
  819MOL0     H10545  12.986   3.264   8.034  2.4815 -0.4507 -2.1470
  819MOL0     H10546  12.804   3.177   7.959 -0.5958  0.9437  3.1793
  819MOL0     H10547  12.569   2.992   7.451 -1.7739 -2.3714  1.8848
  819MOL0     H10548  12.361   2.992   7.335 -0.1031  0.7848 -0.0413
  819MOL0     H10549  11.205   4.320   7.093  0.8810 -1.6428  3.1604
  819MOL0     H10550  11.231   4.537   7.098  1.3125 -0.0592  1.6002
  819MOL0     H10551  10.996   5.018   7.471  1.4164  1.8838  0.2729
  819MOL0     H10552  10.990   5.247   7.454 -0.1872 -0.0710 -0.2664
  819MOL0     H10553  10.938   5.444   7.396  1.7398  0.2626 -0.0520
  819MOL0     H10554  10.793   5.412   7.286 -1.4998  2.2036 -0.0644
  819MOL0     H10555  10.991   5.653   7.288  0.6536 -0.5242 -0.0736
  819MOL0     H10556  10.821   5.646   7.332 -0.2694  2.8520 -1.7639
  819MOL0     H10557  10.768   5.585   7.087 -0.8574  2.4733 -3.0489
  819MOL0     H10558  10.953   5.588   7.065 -0.4990  3.1580 -0.2783
  819MOL0     H10559  10.951   5.825   7.091 -0.5072  0.8629  0.3590
  819MOL0     H10560  10.847   5.759   6.966 -0.4646 -3.9095  0.9586
  819MOL0     H10561  10.577   5.921   7.259 -1.5943  0.2536 -1.5942
  819MOL0     H10562  11.037   5.202   7.016  0.4755 -0.4561 -1.0182
  819MOL0     H10563  10.959   5.014   6.937 -1.6048  0.1318  1.3412
  819MOL0     H10564  11.104   4.903   6.966  2.2335  1.5691  1.8009
  819MOL0     H10565  10.930   4.881   7.027  0.7350  0.2310 -2.7245
  820MOL0     O10566   4.381   7.534   0.956  0.2708  0.3306  0.2118
  820MOL0     C10567   4.354   7.509   0.840  0.3290 -0.3080 -0.4589
  820MOL0     O10568   4.398   7.399   0.770  0.2708 -0.2206 -0.1694
  820MOL0     C10569   4.449   7.296   0.850  0.2295 -0.5980  0.6227
  820MOL0     C10570   4.586   7.289   0.888 -0.1101  0.7417  0.1015
  820MOL0     C10571   4.627   7.180   0.963 -0.6253  1.3886 -0.2295
  820MOL0     C10572   4.544   7.072   1.008  0.2437  0.1917  0.0349
  820MOL0     O10573   4.601   6.979   1.089 -0.2578  0.5419 -0.0694
  820MOL0     C10574   4.519   6.906   1.175 -0.1351 -0.4672  0.6232
  820MOL0     C10575   4.605   6.811   1.267  0.3078 -0.7417 -0.1501
  820MOL0     C10576   4.669   6.693   1.194 -0.4054  0.0569  0.3245
  820MOL0     C10577   4.555   6.583   1.177 -0.3776  0.3903 -0.3520
  820MOL0     C10578   4.601   6.457   1.094  0.5068 -0.9137 -0.6286
  820MOL0     C10579   4.609   6.473   0.942 -0.1598  0.8666 -0.2172
  820MOL0     C10580   4.646   6.343   0.872  0.4266 -0.3271  0.0397
  820MOL0     C10581   4.515   6.254   0.852 -0.9472 -0.2998 -0.6197
  820MOL0     N10582   4.535   6.155   0.741  0.6419  0.4232  0.1250
  820MOL0     C10583   4.514   6.180   0.611  0.1824  0.3123  0.4280
  820MOL0     C10584   4.539   6.066   0.543  0.1176 -0.6393 -0.6848
  820MOL0     C10585   4.529   6.038   0.399  0.4324  1.5195  0.6807
  820MOL0     C10586   4.628   6.134   0.319  1.4393  0.1784 -1.0150
  820MOL0     C10587   4.645   6.090   0.176  0.6713  0.3681 -0.5709
  820MOL0     C10588   4.686   5.942   0.156  0.3973 -0.2855 -0.1231
  820MOL0     O10589   4.795   5.926   0.243 -0.6073  0.2445 -0.7413
  820MOL0     C10590   4.821   5.790   0.272  0.0565 -0.4602 -0.2355
  820MOL0     C10591   4.867   5.762   0.403 -0.3529 -0.2885  0.5492
  820MOL0     C10592   4.924   5.639   0.427 -1.3331  1.3946  0.1904
  820MOL0     C10593   4.943   5.543   0.332 -0.0763 -0.2239 -0.1845
  820MOL0     C10594   5.013   5.418   0.367 -0.2234  0.0916  0.6544
  820MOL0     O10595   4.979   5.353   0.484  0.8989  0.0990 -0.2015
  820MOL0     C10596   5.055   5.255   0.542  0.2898 -0.0490  0.3233
  820MOL0     C10597   5.161   5.186   0.485 -1.5644  0.0520 -0.4450
  820MOL0     C10598   5.259   5.114   0.562 -0.0474  1.0606  0.1400
  820MOL0     C10599   5.239   5.096   0.694 -0.1416 -0.2376 -0.1791
  820MOL0     O10600   5.330   5.013   0.758 -0.2329 -0.3655  0.2734
  820MOL0     C10601   5.321   5.003   0.898  0.5817  0.6912 -0.0458
  820MOL0     C10602   5.452   4.957   0.953  0.1826  0.1653  0.0818
  820MOL0     C10603   5.464   4.943   1.112 -0.0790  0.2030  0.2267
  820MOL0     C10604   5.387   5.043   1.200  0.3048 -0.0506  0.6476
  820MOL0     C10605   5.418   5.003   1.344 -0.6817 -0.5490 -0.2920
  820MOL0     C10606   5.327   4.896   1.409 -0.6846 -0.3899 -1.0977
  820MOL0     C10607   5.173   4.925   1.417  0.1680 -0.6439 -0.6927
  820MOL0     C10608   5.089   4.860   1.527 -0.7415  0.2255  0.1630
  820MOL0    Cl10609   5.045   4.684   1.480 -0.5210 -0.3405  0.1848
  820MOL0     C10610   5.119   5.147   0.748 -0.3002 -0.4662  0.0342
  820MOL0     C10611   5.037   5.235   0.677 -1.2041  0.0978  0.3330
  820MOL0     O10612   5.105   5.386   0.290 -0.0396 -0.1671 -0.6340
  820MOL0     C10613   4.910   5.574   0.204  0.3792  0.3758  0.4890
  820MOL0     C10614   4.851   5.697   0.169 -0.4112 -0.2001  0.7409
  820MOL0     N10615   4.591   5.980   0.641 -0.1242  0.6360 -0.7535
  820MOL0     N10616   4.592   6.030   0.755 -0.4906 -0.7284  0.2343
  820MOL0     C10617   4.411   7.084   0.969 -0.1293 -0.0672  0.0747
  820MOL0     C10618   4.363   7.190   0.886 -0.1721 -1.0835  0.0333
  820MOL0     C10619   4.269   7.600   0.760  0.6089 -0.0503 -1.2061
  820MOL0     C10620   4.217   7.551   0.635 -0.0390 -1.0680 -0.4061
  820MOL0     C10621   4.144   7.632   0.547 -0.3000 -0.2567  0.2075
  820MOL0     C10622   4.112   7.760   0.590  1.0395 -0.0990 -0.5351
  820MOL0     O10623   4.056   7.856   0.510  0.2976 -0.5863 -0.6624
  820MOL0     C10624   3.986   7.824   0.389  0.3773 -0.2536  1.4156
  820MOL0     C10625   3.898   7.944   0.372 -0.3262 -0.1582  0.0009
  820MOL0     C10626   3.815   7.943   0.241  0.6552 -0.3626 -1.5950
  820MOL0     C10627   3.692   8.036   0.264 -1.5312  0.9548  0.3158
  820MOL0     C10628   3.728   8.166   0.229  0.2896 -0.4431 -0.0988
  820MOL0     C10629   3.760   8.282   0.201 -0.6754 -0.4534 -0.2140
  820MOL0     C10630   4.155   7.812   0.707 -1.0063 -0.0260 -0.3981
  820MOL0     C10631   4.231   7.732   0.795  0.2700 -0.6458  0.4016
  820MOL0     C10632   4.266   7.802   0.931 -0.7024  0.3028 -1.1841
  820MOL0     H10633   4.664   7.353   0.848  3.2035 -1.8573  1.8553
  820MOL0     H10634   4.734   7.176   0.980 -1.0991 -0.8255  3.0278
  820MOL0     H10635   4.459   6.977   1.232 -0.7711 -1.2332  0.9346
  820MOL0     H10636   4.445   6.838   1.130  0.2287 -0.9318  0.7155
  820MOL0     H10637   4.552   6.796   1.362  2.0390  2.4326  1.5177
  820MOL0     H10638   4.691   6.867   1.305  1.4065 -2.2413 -0.3323
  820MOL0     H10639   4.750   6.656   1.257 -2.1672 -0.8925  2.1389
  820MOL0     H10640   4.720   6.733   1.106  1.7816 -1.7580  0.6857
  820MOL0     H10641   4.527   6.539   1.273  2.8426 -0.0131  0.5113
  820MOL0     H10642   4.466   6.626   1.128  0.5986  0.0462 -2.5379
  820MOL0     H10643   4.706   6.443   1.124 -0.0793  0.6152  2.5887
  820MOL0     H10644   4.548   6.369   1.132  0.5281 -1.0331 -0.8698
  820MOL0     H10645   4.510   6.506   0.908 -0.5775 -0.6842 -0.6025
  820MOL0     H10646   4.667   6.561   0.913 -0.3902  1.9006  2.2513
  820MOL0     H10647   4.725   6.289   0.925 -0.5835 -0.3754  1.5150
  820MOL0     H10648   4.688   6.371   0.774  1.5128 -0.0366  0.5735
  820MOL0     H10649   4.492   6.194   0.941 -0.5337 -2.1844 -1.7249
  820MOL0     H10650   4.419   6.306   0.847 -1.1093 -0.2418  1.9128
  820MOL0     H10651   4.464   6.266   0.566  1.6451  0.7947 -0.3267
  820MOL0     H10652   4.566   5.936   0.386 -3.9934 -0.2060 -0.1436
  820MOL0     H10653   4.425   6.035   0.366  0.4522 -1.6213  0.5810
  820MOL0     H10654   4.579   6.232   0.326 -0.1574 -0.6179 -0.3503
  820MOL0     H10655   4.725   6.146   0.367  0.0313  0.3006  2.0384
  820MOL0     H10656   4.725   6.156   0.141  0.2896  2.1961  1.8009
  820MOL0     H10657   4.557   6.113   0.115 -0.9043 -0.4540  1.3026
  820MOL0     H10658   4.707   5.950   0.049 -0.4212  1.1934 -0.2053
  820MOL0     H10659   4.604   5.876   0.185  0.4281  0.4449  1.8510
  820MOL0     H10660   4.868   5.842   0.477 -0.7233  1.5670 -1.3477
  820MOL0     H10661   4.961   5.620   0.528  1.4127 -0.6505 -1.0451
  820MOL0     H10662   5.191   5.174   0.381  2.5271 -0.2191  0.6203
  820MOL0     H10663   5.341   5.061   0.514 -1.3043  0.3944 -1.4010
  820MOL0     H10664   5.291   5.098   0.943  1.8303  0.5923  1.0841
  820MOL0     H10665   5.240   4.932   0.919  2.0545 -1.0765 -0.0525
  820MOL0     H10666   5.499   4.867   0.912  2.9257  1.6169 -0.2252
  820MOL0     H10667   5.516   5.040   0.923 -0.8399  1.9372  2.4965
  820MOL0     H10668   5.420   4.844   1.129 -1.4995  1.1845  2.7531
  820MOL0     H10669   5.569   4.938   1.142 -0.3431 -2.5621  1.0294
  820MOL0     H10670   5.279   5.030   1.184  0.1830  0.9098  0.6595
  820MOL0     H10671   5.422   5.144   1.178  2.5704 -1.5133 -3.5695
  820MOL0     H10672   5.434   5.095   1.401  0.5726 -0.2159 -1.1393
  820MOL0     H10673   5.522   4.969   1.355 -0.8703 -0.2861  3.7822
  820MOL0     H10674   5.338   4.807   1.346  0.6888 -2.4457  1.8137
  820MOL0     H10675   5.366   4.877   1.509 -0.8026  1.2974 -0.7037
  820MOL0     H10676   5.130   4.909   1.318  1.1200  1.0514 -1.4369
  820MOL0     H10677   5.153   5.032   1.430 -3.2449 -1.2254 -0.0669
  820MOL0     H10678   5.147   4.867   1.619  0.7851  2.0651 -0.8578
  820MOL0     H10679   4.995   4.915   1.541 -2.0944 -2.1483  0.8747
  820MOL0     H10680   5.089   5.140   0.852 -1.3601 -3.0926 -0.3764
  820MOL0     H10681   4.967   5.291   0.739  1.0241  0.4041  2.7771
  820MOL0     H10682   4.926   5.511   0.117  0.7208 -0.7411  1.3551
  820MOL0     H10683   4.852   5.739   0.069  2.4682  1.2216  1.2435
  820MOL0     H10684   4.330   7.014   0.986 -2.2771  1.6300 -2.3164
  820MOL0     H10685   4.257   7.188   0.865  0.2582 -0.3707 -2.4619
  820MOL0     H10686   4.233   7.448   0.607 -1.3274 -1.3409 -0.1714
  820MOL0     H10687   4.112   7.578   0.459 -0.5474 -0.8899  0.6723
  820MOL0     H10688   3.927   7.733   0.401  0.6273 -0.8368 -1.2383
  820MOL0     H10689   4.055   7.816   0.305 -0.4593  3.2066  0.2552
  820MOL0     H10690   3.954   8.038   0.372  1.4633 -1.1790 -0.1310
  820MOL0     H10691   3.825   7.953   0.453 -0.0918 -0.7871  0.2836
  820MOL0     H10692   3.776   7.843   0.224 -1.3237  0.5942 -3.0865
  820MOL0     H10693   3.866   7.955   0.145  2.1098 -3.2982 -1.2884
  820MOL0     H10694   3.609   8.010   0.198 -1.3220 -0.6812  0.6444
  820MOL0     H10695   3.661   8.032   0.369  0.8054 -2.3187  1.0449
  820MOL0     H10696   3.797   8.375   0.164 -1.1785  0.1611  0.7638
  820MOL0     H10697   4.152   7.916   0.738 -3.3599 -0.7346  2.1936
  820MOL0     H10698   4.372   7.789   0.955 -0.8416 -2.3467 -1.6350
  820MOL0     H10699   4.247   7.909   0.937 -1.6162  0.0635  1.0831
  820MOL0     H10700   4.214   7.745   1.009  1.1937 -1.1652 -0.9025
  821MOL0     O10701   9.578   0.876   6.571  0.5224  0.8529 -0.0706
  821MOL0     C10702   9.519   0.926   6.673  0.7710  0.1661 -0.0928
  821MOL0     O10703   9.454   0.852   6.767 -0.3752  0.7057  0.1185
  821MOL0     C10704   9.445   0.714   6.752  0.1613 -0.4404 -0.0591
  821MOL0     C10705   9.318   0.655   6.741  0.0755 -0.6567  0.4945
  821MOL0     C10706   9.308   0.515   6.711  0.4548  0.0781 -0.5040
  821MOL0     C10707   9.421   0.440   6.691 -0.7448 -0.0834  0.6274
  821MOL0     O10708   9.422   0.306   6.654  0.1827 -0.6632 -0.0600
  821MOL0     C10709   9.298   0.249   6.613 -0.1893  0.0440  0.0779
  821MOL0     C10710   9.319   0.114   6.547  0.2299  0.6713 -0.6228
  821MOL0     C10711   9.187   0.068   6.481  0.4254 -1.1815  0.1354
  821MOL0     C10712   9.181  -0.074   6.447 -0.1591 -0.3457  0.7268
  821MOL0     C10713   9.035  -0.100   6.402  1.6720 -0.4600  1.4183
  821MOL0     C10714   9.027  -0.250   6.370 -0.3928 -1.1930 -0.7981
  821MOL0     C10715   8.883  -0.313   6.372  0.3160  0.2820 -0.1022
  821MOL0     C10716   8.914  -0.463   6.404  0.6454 -0.5781 -0.4908
  821MOL0     N10717   8.786  -0.541   6.416 -0.9145  0.7724  0.1307
  821MOL0     C10718   8.681  -0.514   6.493  0.4220 -0.3163 -0.2187
  821MOL0     C10719   8.588  -0.611   6.487 -0.4726 -0.0133  0.5661
  821MOL0     C10720   8.455  -0.621   6.555 -0.9780 -1.1425 -0.6930
  821MOL0     C10721   8.476  -0.723   6.672  1.2368 -0.8009 -0.4529
  821MOL0     C10722   8.339  -0.765   6.733 -0.2093 -0.3322 -0.0260
  821MOL0     C10723   8.282  -0.876   6.649 -0.4214  0.0669  0.6499
  821MOL0     O10724   8.157  -0.928   6.700  0.8294  0.2354 -0.3820
  821MOL0     C10725   8.041  -0.938   6.633 -0.5140  0.1201  0.0250
  821MOL0     C10726   7.937  -1.002   6.691  0.4492  0.6276 -0.1349
  821MOL0     C10727   7.806  -0.994   6.646 -0.1101  0.9719 -0.2894
  821MOL0     C10728   7.776  -0.931   6.525 -0.4527  0.3996  0.3199
  821MOL0     C10729   7.645  -0.926   6.474  0.5674  0.7798  0.5137
  821MOL0     O10730   7.548  -0.970   6.546  0.0951 -0.8878 -0.7277
  821MOL0     C10731   7.424  -0.941   6.517  0.3557  0.9763  0.4101
  821MOL0     C10732   7.330  -1.039   6.555  0.2475  0.3323  0.4681
  821MOL0     C10733   7.192  -1.018   6.531 -0.4294  0.5229  0.1010
  821MOL0     C10734   7.145  -0.901   6.475  0.3278  1.9851  0.0312
  821MOL0     O10735   7.003  -0.887   6.480  0.4471 -0.0469  0.9773
  821MOL0     C10736   6.927  -0.774   6.415  0.1580 -1.0980 -0.5756
  821MOL0     C10737   6.777  -0.771   6.411 -0.1197  0.0900  0.1322
  821MOL0     C10738   6.720  -0.786   6.557 -1.3490  0.8996  0.2477
  821MOL0     C10739   6.731  -0.657   6.636 -0.7747 -0.7665 -0.3862
  821MOL0     C10740   6.656  -0.670   6.772  0.2545 -0.4750 -0.6408
  821MOL0     C10741   6.707  -0.796   6.856 -0.1665 -0.3590  0.4662
  821MOL0     C10742   6.863  -0.804   6.883  0.6660  0.1802  0.6160
  821MOL0     C10743   6.920  -0.690   6.962 -0.4835  0.0240  0.5455
  821MOL0    Cl10744   6.815  -0.658   7.105  0.2824 -0.0076  0.2650
  821MOL0     C10745   7.236  -0.798   6.450 -0.0781 -0.6027  0.2886
  821MOL0     C10746   7.374  -0.816   6.456 -0.4243  0.6348 -0.0174
  821MOL0     O10747   7.631  -0.882   6.357  0.6407  0.5020 -0.2026
  821MOL0     C10748   7.881  -0.869   6.451  0.5478  0.3486 -0.0473
  821MOL0     C10749   8.011  -0.870   6.509 -0.2388  0.6509  0.6286
  821MOL0     N10750   8.635  -0.701   6.397  0.1947  0.5666 -0.3672
  821MOL0     N10751   8.751  -0.656   6.357 -0.6365 -0.5146  1.1289
  821MOL0     C10752   9.543   0.508   6.703  0.3865  0.0169 -0.1822
  821MOL0     C10753   9.559   0.638   6.742  0.1729 -0.5631  0.1615
  821MOL0     C10754   9.507   1.077   6.688  0.2981 -0.4138 -0.4290
  821MOL0     C10755   9.449   1.135   6.811 -0.1299  0.3012  1.3797
  821MOL0     C10756   9.443   1.274   6.827 -0.5667 -0.4005 -0.9411
  821MOL0     C10757   9.508   1.365   6.745 -0.6855 -0.3595 -0.5156
  821MOL0     O10758   9.512   1.495   6.766  0.4635 -0.4143  0.3018
  821MOL0     C10759   9.427   1.567   6.860 -0.3868 -0.3588 -0.3084
  821MOL0     C10760   9.449   1.719   6.829  0.6088 -0.4469 -0.7096
  821MOL0     C10761   9.435   1.805   6.956 -0.1311  0.2552  0.2297
  821MOL0     C10762   9.306   1.793   7.034  0.8423  0.1201  0.2930
  821MOL0     C10763   9.316   1.855   7.163  0.6799 -0.4385 -0.5699
  821MOL0     C10764   9.333   1.918   7.266  0.3829 -0.1816 -0.5308
  821MOL0     C10765   9.570   1.310   6.635 -0.4949  0.4726 -0.1034
  821MOL0     C10766   9.570   1.175   6.593  0.7731  0.8107 -0.0591
  821MOL0     C10767   9.628   1.131   6.467  0.2795 -0.4621  0.7587
  821MOL0     H10768   9.223   0.706   6.751  0.1844 -0.3338 -0.0493
  821MOL0     H10769   9.210   0.468   6.712  0.8183 -0.6827  0.2536
  821MOL0     H10770   9.246   0.230   6.707 -0.1485 -0.7551 -0.0511
  821MOL0     H10771   9.244   0.319   6.548  0.9417 -3.0779 -4.7623
  821MOL0     H10772   9.360   0.046   6.622 -2.2104  0.7034  0.8251
  821MOL0     H10773   9.383   0.117   6.458  0.9640  1.4457 -0.0845
  821MOL0     H10774   9.183   0.124   6.388  0.9192  0.6977  1.1843
  821MOL0     H10775   9.112   0.097   6.555 -1.2379  2.2071 -2.6038
  821MOL0     H10776   9.245  -0.105   6.364 -2.2927  1.2440 -1.6691
  821MOL0     H10777   9.204  -0.128   6.540  1.3068 -0.0759  0.5433
  821MOL0     H10778   8.967  -0.086   6.486 -1.7775 -1.0884 -1.0715
  821MOL0     H10779   9.000  -0.028   6.329 -0.2921  2.5890  5.0371
  821MOL0     H10780   9.055  -0.260   6.264  1.4481  2.4307 -0.8264
  821MOL0     H10781   9.099  -0.293   6.440 -0.7815 -0.2619  0.1910
  821MOL0     H10782   8.849  -0.305   6.268  2.2617  0.8281 -0.7515
  821MOL0     H10783   8.808  -0.268   6.436  1.2311  4.1428 -1.4670
  821MOL0     H10784   8.983  -0.517   6.339  1.9155  1.0007 -0.5188
  821MOL0     H10785   8.961  -0.462   6.503 -0.1851  3.8578  0.0908
  821MOL0     H10786   8.686  -0.435   6.567  1.0367 -0.5300 -0.0209
  821MOL0     H10787   8.422  -0.521   6.585  1.9002 -0.3192  0.0529
  821MOL0     H10788   8.386  -0.658   6.479 -1.3263 -0.3479 -0.7736
  821MOL0     H10789   8.520  -0.816   6.635 -0.8739 -2.6407  1.2940
  821MOL0     H10790   8.541  -0.688   6.753 -2.8752  0.5209  2.6663
  821MOL0     H10791   8.272  -0.678   6.739  2.3888  1.7264  3.9702
  821MOL0     H10792   8.350  -0.802   6.835 -2.4129  0.0579  0.4175
  821MOL0     H10793   8.343  -0.967   6.655  1.3593  1.0918 -0.8143
  821MOL0     H10794   8.284  -0.840   6.545 -2.3825 -0.4548  0.3886
  821MOL0     H10795   7.955  -1.038   6.791  1.2042  1.7861  0.1647
  821MOL0     H10796   7.729  -1.036   6.711  1.1783  0.9648  1.2960
  821MOL0     H10797   7.366  -1.133   6.593  0.3750 -0.0348 -0.5415
  821MOL0     H10798   7.119  -1.089   6.566  0.2971  0.3423  1.3092
  821MOL0     H10799   6.956  -0.685   6.472  0.1744 -1.6114  0.2372
  821MOL0     H10800   6.967  -0.739   6.320  1.6995 -2.1373 -0.3571
  821MOL0     H10801   6.750  -0.677   6.363  1.7492  0.5304 -0.1114
  821MOL0     H10802   6.727  -0.845   6.348 -1.2998  2.6318 -2.0916
  821MOL0     H10803   6.615  -0.808   6.535 -0.7809 -0.4610 -1.3252
  821MOL0     H10804   6.777  -0.870   6.600 -1.4235  0.2960 -0.8112
  821MOL0     H10805   6.701  -0.565   6.587  1.1655 -0.6624 -1.4382
  821MOL0     H10806   6.835  -0.631   6.657 -1.7775  2.1549  1.4438
  821MOL0     H10807   6.551  -0.675   6.743  1.0681  2.2239 -5.0381
  821MOL0     H10808   6.685  -0.582   6.830 -1.9955 -0.3412  0.3859
  821MOL0     H10809   6.657  -0.805   6.953  0.0812  1.8193  0.8409
  821MOL0     H10810   6.678  -0.879   6.791  0.7594 -0.3497  0.0309
  821MOL0     H10811   6.923  -0.831   6.796  2.7320  0.1478  1.9866
  821MOL0     H10812   6.882  -0.893   6.943  2.7444 -1.4598 -2.2428
  821MOL0     H10813   7.023  -0.712   6.993  0.1683 -1.9529 -2.5789
  821MOL0     H10814   6.915  -0.595   6.908 -1.1916 -0.5199 -0.3793
  821MOL0     H10815   7.186  -0.708   6.416  2.2179  0.8712  0.6450
  821MOL0     H10816   7.450  -0.744   6.428  0.1960  1.0025  2.3952
  821MOL0     H10817   7.867  -0.812   6.360 -0.0374 -1.5612 -1.2219
  821MOL0     H10818   8.092  -0.810   6.469  1.6910 -1.8805  0.4825
  821MOL0     H10819   9.627   0.440   6.695  1.3370  1.3315 -2.1655
  821MOL0     H10820   9.658   0.682   6.750  0.8172 -2.2162  1.9531
  821MOL0     H10821   9.398   1.068   6.880 -2.8804  0.6386 -0.1691
  821MOL0     H10822   9.385   1.314   6.909  0.3560 -1.2969  0.1852
  821MOL0     H10823   9.465   1.544   6.960 -3.9248 -0.3179  1.2132
  821MOL0     H10824   9.319   1.545   6.861 -1.5641  4.0543  2.4555
  821MOL0     H10825   9.384   1.755   6.749 -1.1930 -0.8884  0.4944
  821MOL0     H10826   9.555   1.730   6.808  1.9976 -2.8441  3.6988
  821MOL0     H10827   9.462   1.909   6.934  3.8362  0.3248  4.0115
  821MOL0     H10828   9.522   1.783   7.018  0.0138  2.6932  0.9982
  821MOL0     H10829   9.221   1.831   6.975  1.8463 -0.0465 -1.3180
  821MOL0     H10830   9.283   1.688   7.055  1.1633  0.4010  2.1763
  821MOL0     H10831   9.327   1.987   7.348  0.3115 -0.0795 -0.6228
  821MOL0     H10832   9.615   1.387   6.573  1.9539 -1.4191 -0.8655
  821MOL0     H10833   9.568   1.051   6.423 -0.5843  0.1114  0.8758
  821MOL0     H10834   9.616   1.213   6.395 -1.1554 -2.0205 -0.8716
  821MOL0     H10835   9.732   1.099   6.478 -0.3955 -2.6471  1.1288
  822MOL0     O10836   7.867   5.262   6.730 -0.6447  0.5531  0.0557
  822MOL0     C10837   7.768   5.234   6.795  1.1882 -0.3082 -0.3424
  822MOL0     O10838   7.756   5.114   6.867 -0.0511 -0.2273  0.1823
  822MOL0     C10839   7.854   5.021   6.861 -0.3803  1.0020  0.6531
  822MOL0     C10840   7.965   5.012   6.948 -0.6309 -0.5649 -0.2187
  822MOL0     C10841   8.068   4.919   6.935  0.2411 -0.3953  0.3978
  822MOL0     C10842   8.063   4.822   6.825 -0.0798 -0.5844 -1.3807
  822MOL0     O10843   8.146   4.711   6.814  0.8837 -0.5987  0.2223
  822MOL0     C10844   8.291   4.742   6.840  0.7768  0.4207  0.6060
  822MOL0     C10845   8.386   4.632   6.807 -0.6527 -0.6090  0.0038
  822MOL0     C10846   8.342   4.499   6.862  0.7013 -0.7350  0.4992
  822MOL0     C10847   8.347   4.501   7.022 -0.6102 -0.8691 -0.2689
  822MOL0     C10848   8.208   4.449   7.077 -0.7902  1.1216  0.5060
  822MOL0     C10849   8.186   4.299   7.057 -0.4548 -0.1852 -0.8700
  822MOL0     C10850   8.077   4.255   7.164 -0.5100  0.1336  0.2118
  822MOL0     C10851   8.071   4.101   7.155 -0.5273 -0.3487  0.9777
  822MOL0     N10852   7.930   4.045   7.172 -0.4366 -0.0655 -0.2613
  822MOL0     C10853   7.870   4.002   7.289 -0.0310 -1.0806  1.0889
  822MOL0     C10854   7.750   3.951   7.239 -0.5231 -1.1618  0.9340
  822MOL0     C10855   7.644   3.889   7.325 -0.2893 -0.3253  1.2429
  822MOL0     C10856   7.595   3.996   7.431 -0.2182  1.0992  0.2471
  822MOL0     C10857   7.470   3.930   7.505 -0.9219 -0.1848  0.3757
  822MOL0     C10858   7.408   4.028   7.609 -0.4621 -0.1002  0.5208
  822MOL0     O10859   7.340   4.140   7.541  0.3817  0.1094 -0.0612
  822MOL0     C10860   7.205   4.140   7.512  0.2051  1.0096 -0.5187
  822MOL0     C10861   7.130   4.021   7.528  0.3727  0.0995 -0.4816
  822MOL0     C10862   7.000   4.030   7.496  0.6474 -0.4774  0.3605
  822MOL0     C10863   6.944   4.142   7.437  0.1766 -0.7734  0.3055
  822MOL0     C10864   6.804   4.133   7.363 -0.3226 -0.2811 -0.2843
  822MOL0     O10865   6.780   4.228   7.280 -0.1462 -0.4546 -0.5856
  822MOL0     C10866   6.702   4.203   7.166  0.0679 -0.3208 -0.9445
  822MOL0     C10867   6.690   4.079   7.095  0.6508  0.2610 -0.1557
  822MOL0     C10868   6.633   4.075   6.962 -0.5743  1.1548 -0.2519
  822MOL0     C10869   6.569   4.198   6.919  0.4054  0.1677  0.7465
  822MOL0     O10870   6.515   4.213   6.797  0.6339  0.7654  0.0930
  822MOL0     C10871   6.613   4.196   6.688  1.0052 -0.2273  0.1994
  822MOL0     C10872   6.533   4.219   6.558 -1.0314 -0.6017 -0.2456
  822MOL0     C10873   6.396   4.148   6.540  0.1627 -0.0027 -0.2517
  822MOL0     C10874   6.405   4.002   6.567  0.2463  0.5387  0.2265
  822MOL0     C10875   6.293   3.924   6.499 -0.2874 -0.7886  0.5281
  822MOL0     C10876   6.298   3.776   6.553  0.5653  0.4948 -0.0560
  822MOL0     C10877   6.177   3.707   6.479  0.6768 -0.0176  0.4758
  822MOL0     C10878   6.154   3.576   6.536 -0.7953 -0.8183  0.5658
  822MOL0    Cl10879   6.297   3.478   6.505 -0.4707  0.1708  0.1870
  822MOL0     C10880   6.570   4.319   6.997 -0.4294  0.7911  0.9989
  822MOL0     C10881   6.645   4.316   7.120  0.3940 -0.0919  0.9601
  822MOL0     O10882   6.736   4.032   7.372  0.0800  0.0224 -0.2364
  822MOL0     C10883   7.019   4.258   7.433 -0.2904  0.2566 -1.3503
  822MOL0     C10884   7.148   4.253   7.471  0.3724  0.4979  0.7392
  822MOL0     N10885   7.741   3.973   7.099  0.3175  1.2116 -0.7297
  822MOL0     N10886   7.852   4.017   7.061 -0.4107  0.0853 -0.6792
  822MOL0     C10887   7.963   4.843   6.733  0.2051 -0.1192  0.5131
  822MOL0     C10888   7.858   4.935   6.745  1.0206 -0.3974 -0.3599
  822MOL0     C10889   7.641   5.315   6.776 -0.1326 -0.3160  0.7107
  822MOL0     C10890   7.521   5.269   6.837 -0.5407 -0.2400 -0.1280
  822MOL0     C10891   7.396   5.332   6.817  0.4570 -0.7566  0.7959
  822MOL0     C10892   7.384   5.447   6.735 -0.7356 -0.5498 -0.6884
  822MOL0     O10893   7.274   5.519   6.716 -0.1057 -0.5680 -0.0563
  822MOL0     C10894   7.141   5.469   6.759 -0.8249  0.0895 -0.5524
  822MOL0     C10895   7.025   5.569   6.747  0.1209  0.9676 -1.0007
  822MOL0     C10896   6.980   5.598   6.605 -0.1271  0.4519  0.0026
  822MOL0     C10897   6.858   5.686   6.608  0.7904  0.3680  0.8142
  822MOL0     C10898   6.788   5.695   6.480 -0.7231  0.3794  0.3153
  822MOL0     C10899   6.723   5.702   6.382  0.1338 -0.0278  0.2778
  822MOL0     C10900   7.509   5.505   6.701 -0.4638  0.1549  0.4932
  822MOL0     C10901   7.636   5.446   6.725  0.1910 -0.1237 -0.3092
  822MOL0     C10902   7.758   5.521   6.669 -0.9764 -1.1522 -0.6229
  822MOL0     H10903   7.973   5.083   7.030  0.6536  0.3742 -1.1112
  822MOL0     H10904   8.142   4.919   7.015 -1.3150 -0.4329  1.8953
  822MOL0     H10905   8.307   4.838   6.790 -0.7283  0.1725 -0.3909
  822MOL0     H10906   8.309   4.757   6.947  2.4393 -1.3251  0.6465
  822MOL0     H10907   8.483   4.667   6.843  1.4142  0.2106 -5.4693
  822MOL0     H10908   8.394   4.612   6.700 -2.4140  0.2540 -0.3409
  822MOL0     H10909   8.413   4.418   6.842  3.0678  1.8495 -2.6655
  822MOL0     H10910   8.238   4.477   6.840  0.6333 -0.4971  0.5855
  822MOL0     H10911   8.425   4.434   7.060  2.5014  2.2292 -0.6712
  822MOL0     H10912   8.371   4.597   7.067  1.9774 -1.2901 -0.5984
  822MOL0     H10913   8.221   4.476   7.182 -0.6975  1.5698  0.3809
  822MOL0     H10914   8.119   4.502   7.042 -0.8600  0.3101 -0.5837
  822MOL0     H10915   8.153   4.264   6.959  0.9627  1.4891 -2.0152
  822MOL0     H10916   8.282   4.246   7.065  0.8099  1.5814 -3.0130
  822MOL0     H10917   7.982   4.299   7.133  0.5388  1.8785 -0.6935
  822MOL0     H10918   8.099   4.285   7.267  1.5191 -3.3638  0.9726
  822MOL0     H10919   8.119   4.073   7.061  0.4437 -0.6832  1.5561
  822MOL0     H10920   8.137   4.065   7.235  1.5476  4.0711  1.5513
  822MOL0     H10921   7.896   4.015   7.394 -2.1813 -2.0116  1.7862
  822MOL0     H10922   7.558   3.860   7.265 -5.1152  4.3945  4.8762
  822MOL0     H10923   7.676   3.803   7.385  0.5575 -1.6960 -1.0610
  822MOL0     H10924   7.669   4.012   7.510  0.1008 -0.1321  0.2146
  822MOL0     H10925   7.568   4.091   7.384 -4.4745 -2.0924 -4.8996
  822MOL0     H10926   7.493   3.831   7.545 -2.4518 -0.5873  0.3180
  822MOL0     H10927   7.398   3.898   7.428 -0.1722 -0.1477 -0.3527
  822MOL0     H10928   7.486   4.075   7.670 -1.4070  1.5124  0.5549
  822MOL0     H10929   7.343   3.975   7.678  1.7740 -1.3363  1.8039
  822MOL0     H10930   7.163   3.927   7.572 -1.3399  0.5353  2.0056
  822MOL0     H10931   6.940   3.941   7.514 -0.3334  0.1246  0.1497
  822MOL0     H10932   6.733   3.984   7.126 -2.8184 -1.4740 -0.0526
  822MOL0     H10933   6.643   3.987   6.900 -1.0748  1.4346 -0.7388
  822MOL0     H10934   6.699   4.262   6.699 -0.4296  2.0680 -1.5428
  822MOL0     H10935   6.650   4.093   6.694  3.2961  0.6190  3.6800
  822MOL0     H10936   6.526   4.329   6.561  1.6853 -0.3927  1.5972
  822MOL0     H10937   6.602   4.203   6.475  1.3973  1.6131  1.1874
  822MOL0     H10938   6.319   4.199   6.598 -1.3450  0.0255 -2.1566
  822MOL0     H10939   6.372   4.168   6.435  2.6254  2.4068 -0.4688
  822MOL0     H10940   6.406   3.995   6.677 -1.1593 -0.0479  0.2240
  822MOL0     H10941   6.497   3.963   6.523  0.4378  2.7853 -1.4856
  822MOL0     H10942   6.329   3.920   6.395  0.2618  1.8662  0.5473
  822MOL0     H10943   6.204   3.987   6.509  1.6464  2.1278  0.8031
  822MOL0     H10944   6.393   3.730   6.528  0.2884  0.1611 -0.5173
  822MOL0     H10945   6.289   3.773   6.662  1.3322  0.7560  0.0203
  822MOL0     H10946   6.181   3.694   6.371  1.3983  1.3633  0.3080
  822MOL0     H10947   6.082   3.758   6.499  1.1766  0.5977  1.3546
  822MOL0     H10948   6.149   3.588   6.644 -0.5817  4.8738  0.2572
  822MOL0     H10949   6.060   3.529   6.504 -0.9146 -1.0220  1.2131
  822MOL0     H10950   6.531   4.408   6.950 -0.1719 -0.3048 -1.4725
  822MOL0     H10951   6.653   4.396   7.193 -0.8255 -0.6662  1.7703
  822MOL0     H10952   6.973   4.343   7.385 -0.4113  3.0058  3.0505
  822MOL0     H10953   7.221   4.333   7.465  3.0498 -1.8626 -1.4495
  822MOL0     H10954   7.962   4.783   6.643 -2.9875  0.7834 -0.1776
  822MOL0     H10955   7.772   4.938   6.679  1.0588  3.2042 -0.4089
  822MOL0     H10956   7.526   5.170   6.882  1.1207  0.0298  0.3478
  822MOL0     H10957   7.311   5.275   6.853  0.1068 -1.9835 -1.7681
  822MOL0     H10958   7.140   5.444   6.865  0.9660 -0.3365 -0.5998
  822MOL0     H10959   7.121   5.367   6.724 -2.4594 -0.5167  1.8947
  822MOL0     H10960   7.064   5.661   6.792 -0.2945 -0.0191  1.5283
  822MOL0     H10961   6.943   5.522   6.802 -0.7821  1.8296 -1.5846
  822MOL0     H10962   6.964   5.503   6.554 -0.4486 -0.0897  1.0690
  822MOL0     H10963   7.066   5.651   6.563  1.4996 -1.8344  0.2684
  822MOL0     H10964   6.792   5.643   6.684 -0.8071 -1.8548 -1.6845
  822MOL0     H10965   6.886   5.789   6.635  2.2003  0.2789 -0.2049
  822MOL0     H10966   6.667   5.714   6.291  3.5152  0.1445 -1.9671
  822MOL0     H10967   7.501   5.594   6.640  3.3791 -0.4033 -1.0917
  822MOL0     H10968   7.783   5.469   6.576 -3.5696 -0.1162 -2.0053
  822MOL0     H10969   7.749   5.627   6.644 -1.5891 -0.8878  0.6440
  822MOL0     H10970   7.836   5.523   6.746 -2.4459 -3.8450  1.1065
  823MOL0     O10971   4.190   0.572   5.097 -0.1853 -0.1180 -0.4322
  823MOL0     C10972   4.303   0.580   5.058  0.2657 -0.7193 -0.0650
  823MOL0     O10973   4.369   0.478   4.998 -0.1615  0.8419  0.9433
  823MOL0     C10974   4.308   0.350   4.983 -0.4133  0.0147 -0.5945
  823MOL0     C10975   4.176   0.331   4.959 -0.5592 -0.0929 -0.6193
  823MOL0     C10976   4.132   0.208   4.913 -0.0879  0.5279 -0.2844
  823MOL0     C10977   4.213   0.091   4.914 -1.3823  0.0267 -0.1754
  823MOL0     O10978   4.184  -0.032   4.858  0.2897 -0.2888 -0.4941
  823MOL0     C10979   4.055  -0.090   4.882 -0.6378  0.6709 -0.1920
  823MOL0     C10980   4.064  -0.236   4.835 -0.4495  0.1473  0.3586
  823MOL0     C10981   4.066  -0.255   4.685  1.2860 -0.4863  0.5428
  823MOL0     C10982   3.923  -0.222   4.632 -0.2963  0.8711 -0.0065
  823MOL0     C10983   3.933  -0.197   4.478  0.1754 -0.2959 -0.4867
  823MOL0     C10984   3.801  -0.207   4.398 -0.2039 -0.2630  0.3949
  823MOL0     C10985   3.683  -0.144   4.464  0.1303 -1.2766  0.4334
  823MOL0     C10986   3.688   0.009   4.440 -0.7463 -0.3705 -0.7547
  823MOL0     N10987   3.789   0.068   4.540  0.4568 -0.8169  0.0767
  823MOL0     C10988   3.874   0.172   4.502  0.4740  1.0042 -0.8627
  823MOL0     C10989   3.893   0.241   4.620 -0.0087 -0.3265  0.1619
  823MOL0     C10990   3.981   0.355   4.650  0.5027 -0.1687  0.3366
  823MOL0     C10991   3.920   0.468   4.749 -0.1373 -0.6755  0.3634
  823MOL0     C10992   4.014   0.590   4.739 -1.4287  0.2335 -0.4049
  823MOL0     C10993   3.973   0.710   4.823 -0.4297  0.2997 -0.3971
  823MOL0     O10994   3.837   0.753   4.798  0.2766 -0.3968 -0.1680
  823MOL0     C10995   3.774   0.836   4.888  0.0853 -0.4109  0.0012
  823MOL0     C10996   3.640   0.869   4.861 -0.4253  0.4868  0.8218
  823MOL0     C10997   3.570   0.963   4.938 -0.2193 -0.3414  0.7809
  823MOL0     C10998   3.636   1.033   5.047 -0.2990  0.0463 -0.5332
  823MOL0     C10999   3.578   1.141   5.132 -0.6426  0.0093  0.3604
  823MOL0     O11000   3.658   1.189   5.232  0.8165  0.7258 -0.7257
  823MOL0     C11001   3.599   1.264   5.337  0.7365 -0.8303 -0.2170
  823MOL0     C11002   3.578   1.398   5.318  0.8189 -0.4739  0.6118
  823MOL0     C11003   3.511   1.478   5.413  0.1172  0.4234  0.0703
  823MOL0     C11004   3.472   1.423   5.537 -0.2014  1.2344 -1.3819
  823MOL0     O11005   3.426   1.509   5.638 -0.7980  0.6656 -1.8298
  823MOL0     C11006   3.444   1.653   5.622  0.4790 -0.0631  0.6449
  823MOL0     C11007   3.385   1.732   5.739 -0.6713  0.4564 -0.3580
  823MOL0     C11008   3.466   1.697   5.870  0.6321 -0.0173  0.1250
  823MOL0     C11009   3.386   1.771   5.985  0.0014  0.3714 -0.3938
  823MOL0     C11010   3.440   1.724   6.127  0.6694  0.3454  0.3182
  823MOL0     C11011   3.398   1.588   6.177  0.6317 -0.0910  1.0754
  823MOL0     C11012   3.462   1.563   6.312  0.2237  0.1371  0.0065
  823MOL0     C11013   3.361   1.504   6.401  0.0192  0.2672 -0.5925
  823MOL0    Cl11014   3.199   1.598   6.419 -0.0036 -0.0951 -0.3462
  823MOL0     C11015   3.497   1.279   5.564  1.6208 -0.0909  0.5872
  823MOL0     C11016   3.553   1.203   5.458 -0.9860 -0.5694 -0.1491
  823MOL0     O11017   3.469   1.178   5.093 -0.5986  0.1685  0.2132
  823MOL0     C11018   3.762   0.982   5.078  0.5146 -0.3505 -0.2852
  823MOL0     C11019   3.831   0.893   5.003 -0.0796  0.4958  0.4752
  823MOL0     N11020   3.836   0.172   4.723 -0.0619 -0.8142 -0.7143
  823MOL0     N11021   3.760   0.084   4.673  0.1008  0.0877  0.5390
  823MOL0     C11022   4.348   0.111   4.949 -0.3860 -0.5264  0.2328
  823MOL0     C11023   4.398   0.242   4.979 -0.5137  1.5233  0.6831
  823MOL0     C11024   4.366   0.719   5.067 -0.6917  0.4224 -0.3454
  823MOL0     C11025   4.297   0.833   5.125 -0.0391 -0.6876 -0.0276
  823MOL0     C11026   4.358   0.961   5.109  1.0032  0.1250  0.0688
  823MOL0     C11027   4.471   0.980   5.052 -0.7193  0.6116  0.2446
  823MOL0     O11028   4.520   1.104   5.018  0.1533  0.3698 -0.7869
  823MOL0     C11029   4.445   1.221   5.042  0.4997 -0.3685  0.7406
  823MOL0     C11030   4.472   1.288   5.173  0.0750 -1.2527  0.7606
  823MOL0     C11031   4.555   1.419   5.151 -0.6651  0.4023 -0.6416
  823MOL0     C11032   4.493   1.560   5.124  0.5996 -0.2980 -0.2071
  823MOL0     C11033   4.414   1.587   5.245 -0.0210  0.2739 -0.3261
  823MOL0     C11034   4.365   1.623   5.351 -1.2411 -0.5865  0.7662
  823MOL0     C11035   4.548   0.871   5.013 -0.0582  0.0058  0.5657
  823MOL0     C11036   4.500   0.741   5.028 -0.0703 -0.0591  0.5269
  823MOL0     C11037   4.592   0.632   4.976  0.3796  0.7918  0.8094
  823MOL0     H11038   4.109   0.416   4.956  0.9086  1.2438  1.6182
  823MOL0     H11039   4.028   0.192   4.886 -0.2005 -0.2920  0.5401
  823MOL0     H11040   4.035  -0.080   4.989 -0.3195 -0.8955  0.0434
  823MOL0     H11041   3.973  -0.039   4.830 -0.2484  1.0005 -0.4853
  823MOL0     H11042   3.981  -0.299   4.868  0.0041 -0.9832 -0.6080
  823MOL0     H11043   4.151  -0.287   4.877 -0.2905 -1.8157 -2.1548
  823MOL0     H11044   4.088  -0.358   4.655  0.3666 -0.5396 -0.0135
  823MOL0     H11045   4.135  -0.194   4.625  0.2452 -0.3645 -0.5803
  823MOL0     H11046   3.865  -0.313   4.647  1.4042 -0.2417  0.1167
  823MOL0     H11047   3.882  -0.132   4.678  2.7401  0.5274  3.8643
  823MOL0     H11048   3.980  -0.100   4.463 -0.8732 -0.0299 -2.3625
  823MOL0     H11049   4.010  -0.262   4.435  3.7071  3.4595 -0.4070
  823MOL0     H11050   3.828  -0.178   4.296 -0.1363  3.1487  1.2593
  823MOL0     H11051   3.773  -0.312   4.389 -3.3856  0.3913  1.4599
  823MOL0     H11052   3.661  -0.183   4.563 -1.7459 -2.3172 -0.3276
  823MOL0     H11053   3.590  -0.176   4.416 -1.8317 -0.0688  3.1920
  823MOL0     H11054   3.716   0.024   4.335  0.1410 -3.4601 -1.0617
  823MOL0     H11055   3.586   0.046   4.449 -0.6269  0.2061 -1.6799
  823MOL0     H11056   3.907   0.197   4.402  3.1529  4.5807  0.6875
  823MOL0     H11057   4.080   0.311   4.669  0.0651 -2.3009 -1.7895
  823MOL0     H11058   3.998   0.406   4.554 -0.1937  0.3597  0.4920
  823MOL0     H11059   3.827   0.518   4.723 -0.1218  0.8212  2.9152
  823MOL0     H11060   3.915   0.429   4.851  1.8311  0.2778  0.8829
  823MOL0     H11061   4.026   0.631   4.638 -1.6607  0.4577 -0.3407
  823MOL0     H11062   4.111   0.546   4.767 -1.9049  0.7874  2.3348
  823MOL0     H11063   4.041   0.795   4.810 -1.7825  1.1378 -2.6195
  823MOL0     H11064   3.982   0.668   4.923  1.4679  2.3942  0.4118
  823MOL0     H11065   3.595   0.825   4.772 -4.1345  0.9950  2.2562
  823MOL0     H11066   3.471   0.988   4.899  0.2650 -1.1368 -1.0556
  823MOL0     H11067   3.583   1.446   5.220  1.4347  2.2608  1.8708
  823MOL0     H11068   3.502   1.584   5.391 -0.5762  0.6676  1.3750
  823MOL0     H11069   3.553   1.665   5.618  0.2237  2.6654 -0.1050
  823MOL0     H11070   3.399   1.689   5.529  1.7198 -3.4003 -1.4247
  823MOL0     H11071   3.392   1.839   5.717 -1.7860  0.3747 -1.2280
  823MOL0     H11072   3.281   1.710   5.765  0.0695  0.6726  3.3295
  823MOL0     H11073   3.478   1.590   5.888  1.0202 -1.0290 -4.7397
  823MOL0     H11074   3.567   1.738   5.858  1.8830 -2.1136  2.5005
  823MOL0     H11075   3.279   1.766   5.963  0.3527 -1.4383 -2.0021
  823MOL0     H11076   3.423   1.872   5.968  1.8597 -0.0895  0.6713
  823MOL0     H11077   3.394   1.799   6.193  1.0779  0.7146  0.1932
  823MOL0     H11078   3.548   1.740   6.119  0.6131  0.3124 -0.6618
  823MOL0     H11079   3.289   1.585   6.186  0.4181  2.1713 -0.0430
  823MOL0     H11080   3.436   1.516   6.104  2.3665  1.4745  0.3448
  823MOL0     H11081   3.488   1.659   6.358 -0.4898  0.5614 -0.4426
  823MOL0     H11082   3.552   1.501   6.312  0.4885  0.5163 -0.3934
  823MOL0     H11083   3.339   1.402   6.367  1.7048 -0.1993 -0.3279
  823MOL0     H11084   3.408   1.480   6.497  0.1743 -1.3135 -1.0343
  823MOL0     H11085   3.482   1.236   5.662  2.7838 -1.8153  0.0666
  823MOL0     H11086   3.585   1.102   5.481 -1.9362 -1.8660 -3.7960
  823MOL0     H11087   3.821   1.034   5.153  0.8849  0.5940 -1.2115
  823MOL0     H11088   3.930   0.871   5.040 -0.7699  0.4892  2.4023
  823MOL0     H11089   4.400   0.017   4.933 -1.0464 -0.9567  0.5595
  823MOL0     H11090   4.505   0.255   4.992  0.4882 -4.4919  1.0001
  823MOL0     H11091   4.201   0.832   5.176  0.3477 -2.9331  0.7993
  823MOL0     H11092   4.307   1.049   5.146  0.0689  0.0958 -1.0890
  823MOL0     H11093   4.340   1.219   5.014  1.0465  0.9500 -1.6960
  823MOL0     H11094   4.467   1.290   4.961 -1.0681 -0.0496  0.5494
  823MOL0     H11095   4.527   1.231   5.248  0.2511  1.0268  2.4873
  823MOL0     H11096   4.375   1.319   5.212  0.8322  3.0439 -0.2123
  823MOL0     H11097   4.623   1.399   5.068  2.3692 -0.4854  1.8688
  823MOL0     H11098   4.614   1.428   5.243  2.0241 -0.6012 -2.1735
  823MOL0     H11099   4.555   1.650   5.122 -1.5403  1.2929  0.7297
  823MOL0     H11100   4.436   1.562   5.031 -0.6742  1.6560  0.5699
  823MOL0     H11101   4.310   1.656   5.437 -5.0854 -0.9247 -1.3188
  823MOL0     H11102   4.641   0.888   4.959  1.6121 -2.0436  2.5897
  823MOL0     H11103   4.542   0.579   4.895 -1.6493  4.8352 -0.9117
  823MOL0     H11104   4.680   0.686   4.940  1.5486  0.1609  2.5742
  823MOL0     H11105   4.635   0.562   5.048  5.2279  2.5057 -0.0784
  824MOL0     O11106   0.769  11.355   0.803  0.6068  0.7079 -0.4293
  824MOL0     C11107   0.698  11.449   0.833  0.5145 -0.9860  0.2468
  824MOL0     O11108   0.747  11.578   0.836  0.1262 -0.0744  0.2788
  824MOL0     C11109   0.879  11.595   0.801  0.5357  0.3720 -0.0579
  824MOL0     C11110   0.912  11.596   0.660 -0.0425  0.2456  0.3783
  824MOL0     C11111   1.043  11.631   0.625  0.2863 -0.5248  0.3415
  824MOL0     C11112   1.138  11.683   0.719 -0.2617  0.0733  0.0457
  824MOL0     O11113   1.264  11.718   0.684 -0.5286 -0.1358 -0.6236
  824MOL0     C11114   1.372  11.696   0.785 -1.0926 -0.7797  0.1877
  824MOL0     C11115   1.514  11.730   0.742  0.3806 -0.1014 -0.6885
  824MOL0     C11116   1.541  11.652   0.625  0.3360 -0.2692  0.9385
  824MOL0     C11117   1.672  11.701   0.544 -0.0119 -0.4732 -0.3284
  824MOL0     C11118   1.668  11.771   0.409 -0.2145 -0.7796 -0.8600
  824MOL0     C11119   1.599  11.686   0.305  0.3863  1.1924  0.5488
  824MOL0     C11120   1.616  11.731   0.156 -0.3017 -1.0490  1.3678
  824MOL0     C11121   1.579  11.621   0.053  0.8322  0.5624 -0.5123
  824MOL0     N11122   1.607  11.669  -0.083  1.2799 -0.7883 -0.0943
  824MOL0     C11123   1.566  11.788  -0.145 -0.3460  0.4281  0.1431
  824MOL0     C11124   1.581  11.758  -0.278 -0.1265 -0.0031 -0.2177
  824MOL0     C11125   1.524  11.835  -0.394 -0.0584  0.4141  0.7429
  824MOL0     C11126   1.643  11.871  -0.499  0.0110 -0.2603 -0.3736
  824MOL0     C11127   1.621  11.968  -0.618  0.2160  0.6456 -0.3196
  824MOL0     C11128   1.563  11.883  -0.731 -0.0657 -0.4711 -0.4750
  824MOL0     O11129   1.522  11.944  -0.854 -0.3290 -0.2653 -0.2447
  824MOL0     C11130   1.394  11.980  -0.861 -0.7844  0.3810 -0.5438
  824MOL0     C11131   1.311  12.021  -0.753  0.3818  0.4838 -0.5521
  824MOL0     C11132   1.177  12.061  -0.775  0.6194 -0.1118 -0.5302
  824MOL0     C11133   1.120  12.057  -0.904 -0.0357 -0.0648  0.2065
  824MOL0     C11134   0.984  12.097  -0.921  0.1169 -0.6968  0.2428
  824MOL0     O11135   0.935  12.104  -1.047  0.8635 -0.0167 -0.1310
  824MOL0     C11136   0.800  12.108  -1.053 -0.3361  0.8636  0.2977
  824MOL0     C11137   0.730  12.008  -1.110  0.3969 -0.3739  0.3418
  824MOL0     C11138   0.587  12.026  -1.124 -0.5712 -1.3138  1.3556
  824MOL0     C11139   0.528  12.149  -1.097 -0.4758 -0.7772 -0.1241
  824MOL0     O11140   0.393  12.168  -1.135 -0.9550 -0.4689 -0.7001
  824MOL0     C11141   0.317  12.291  -1.140 -0.1510  0.1436  0.0244
  824MOL0     C11142   0.239  12.317  -1.025 -0.1071  0.4589  0.0015
  824MOL0     C11143   0.158  12.192  -0.989 -0.4855 -0.5650  0.5498
  824MOL0     C11144   0.057  12.199  -0.876 -0.6323  0.3982 -0.2158
  824MOL0     C11145  -0.045  12.312  -0.890  0.0694 -0.2465 -0.2684
  824MOL0     C11146  -0.153  12.305  -0.779 -0.1949  0.0938 -0.0240
  824MOL0     C11147  -0.102  12.295  -0.625 -1.2648 -0.6204 -1.1558
  824MOL0     C11148  -0.028  12.414  -0.555  0.6856 -0.7754  0.0616
  824MOL0    Cl11149  -0.155  12.533  -0.523 -0.3254 -0.0263  0.1423
  824MOL0     C11150   0.605  12.250  -1.038  0.2853 -0.5858  0.1012
  824MOL0     C11151   0.737  12.226  -1.015 -0.6409  0.3123 -0.6115
  824MOL0     O11152   0.919  12.104  -0.818 -0.0811 -0.1482 -0.1530
  824MOL0     C11153   1.207  12.028  -1.009 -0.1667 -0.1020 -0.0477
  824MOL0     C11154   1.342  11.984  -0.985 -0.4970  0.3128 -0.7091
  824MOL0     N11155   1.649  11.632  -0.296 -0.7156 -0.1630  0.5509
  824MOL0     N11156   1.655  11.580  -0.175  0.0460 -0.8797 -0.5319
  824MOL0     C11157   1.100  11.683   0.852 -0.2588 -0.3209 -0.8930
  824MOL0     C11158   0.968  11.642   0.892 -0.2705  0.2250  0.5928
  824MOL0     C11159   0.557  11.409   0.869 -0.0709  0.1813  0.0566
  824MOL0     C11160   0.523  11.276   0.854 -0.0018 -0.0560 -1.3389
  824MOL0     C11161   0.389  11.232   0.873  0.5098  0.9837  0.1971
  824MOL0     C11162   0.278  11.316   0.874  0.3320  0.5005  1.0011
  824MOL0     O11163   0.146  11.268   0.858  0.2438  0.5458  0.4929
  824MOL0     C11164   0.033  11.357   0.830 -0.3316  0.0296  0.5201
  824MOL0     C11165  -0.064  11.260   0.757 -1.1793  1.1844 -0.0848
  824MOL0     C11166  -0.208  11.303   0.716 -0.0170 -0.0975  0.9471
  824MOL0     C11167  -0.292  11.328   0.841 -0.3042 -0.2020  0.8584
  824MOL0     C11168  -0.321  11.199   0.904  0.8305 -0.9938 -0.0370
  824MOL0     C11169  -0.341  11.094   0.969 -0.6052 -0.4215  0.8515
  824MOL0     C11170   0.309  11.452   0.887 -0.3983 -0.9651 -0.1979
  824MOL0     C11171   0.447  11.501   0.881 -0.2285  1.1214 -0.7032
  824MOL0     C11172   0.459  11.658   0.881  0.5535 -0.1176  1.3190
  824MOL0     H11173   0.848  11.549   0.585  0.0747 -1.9663  1.5590
  824MOL0     H11174   1.083  11.621   0.525 -0.0990 -0.5467  0.1895
  824MOL0     H11175   1.351  11.757   0.873  0.4401 -0.6840  0.5083
  824MOL0     H11176   1.359  11.592   0.817  1.4796 -1.1427  0.2021
  824MOL0     H11177   1.581  11.713   0.827 -0.3567  2.2527  0.4349
  824MOL0     H11178   1.527  11.838   0.730  2.5492 -0.4717 -2.2538
  824MOL0     H11179   1.458  11.660   0.554 -0.0736 -1.1417  1.3092
  824MOL0     H11180   1.548  11.547   0.653 -1.1710 -0.5761  0.2690
  824MOL0     H11181   1.729  11.762   0.615 -3.3350  0.2016  1.9967
  824MOL0     H11182   1.732  11.611   0.525 -2.4779 -2.2631 -0.1946
  824MOL0     H11183   1.628  11.872   0.417 -0.7063 -1.0953  1.8319
  824MOL0     H11184   1.774  11.785   0.382 -0.7568  0.9183 -2.3462
  824MOL0     H11185   1.656  11.594   0.322  2.5779  2.7495  2.2678
  824MOL0     H11186   1.495  11.666   0.332  0.4896  1.6742  1.3521
  824MOL0     H11187   1.715  11.775   0.143  0.8718 -3.4416  1.5765
  824MOL0     H11188   1.544  11.811   0.139 -1.5221 -2.2682  0.5577
  824MOL0     H11189   1.633  11.529   0.077  0.6557  0.5573 -0.1196
  824MOL0     H11190   1.472  11.602   0.057  0.7731  0.5973 -1.6265
  824MOL0     H11191   1.518  11.874  -0.101  0.1876  1.3624 -1.0349
  824MOL0     H11192   1.443  11.785  -0.446 -2.3852  3.2361  1.4146
  824MOL0     H11193   1.481  11.928  -0.357 -0.8440 -0.0393  0.9812
  824MOL0     H11194   1.721  11.919  -0.440  1.5157  0.3947 -2.7615
  824MOL0     H11195   1.689  11.782  -0.543  1.9083  1.2309 -1.5978
  824MOL0     H11196   1.715  12.017  -0.645  0.1079  0.5265 -0.9329
  824MOL0     H11197   1.547  12.043  -0.588  1.8021  2.7029 -1.2886
  824MOL0     H11198   1.482  11.817  -0.698  1.5077 -2.9254 -1.1637
  824MOL0     H11199   1.654  11.825  -0.751  0.1588 -1.2494  2.3739
  824MOL0     H11200   1.339  12.013  -0.648  1.5669  2.6288 -0.6478
  824MOL0     H11201   1.119  12.106  -0.695  0.1860  0.5240 -1.1876
  824MOL0     H11202   0.772  11.916  -1.150 -4.2099 -2.1496 -1.1187
  824MOL0     H11203   0.530  11.938  -1.152 -0.1587 -1.2495  0.2761
  824MOL0     H11204   0.379  12.379  -1.162  1.3045 -1.3080 -2.0073
  824MOL0     H11205   0.259  12.282  -1.232 -0.5170  0.7977  0.1813
  824MOL0     H11206   0.304  12.346  -0.942 -0.7800 -1.2646  1.1831
  824MOL0     H11207   0.176  12.407  -1.031 -0.1542  0.6468  2.3672
  824MOL0     H11208   0.088  12.158  -1.066 -2.6801 -1.4150  2.7930
  824MOL0     H11209   0.221  12.106  -0.966 -1.6629 -0.2842  6.1211
  824MOL0     H11210   0.106  12.194  -0.778 -1.9529 -0.2165  0.4417
  824MOL0     H11211  -0.005  12.109  -0.869 -1.8133  1.3117  3.3192
  824MOL0     H11212  -0.108  12.298  -0.978 -1.5271  0.8712  0.6397
  824MOL0     H11213  -0.005  12.413  -0.897 -0.2574 -0.1799 -1.4810
  824MOL0     H11214  -0.225  12.386  -0.788 -1.5767 -1.2394 -1.7283
  824MOL0     H11215  -0.206  12.212  -0.801 -0.2687  0.6799 -2.6248
  824MOL0     H11216  -0.036  12.209  -0.619  0.3796  0.6910  1.7741
  824MOL0     H11217  -0.189  12.280  -0.560 -0.4578  1.0011  0.3984
  824MOL0     H11218   0.028  12.376  -0.469 -0.0885 -0.5279  0.6837
  824MOL0     H11219   0.039  12.463  -0.626 -0.6360  0.4527 -0.3696
  824MOL0     H11220   0.550  12.335  -0.998  0.2246 -0.2561 -0.6590
  824MOL0     H11221   0.801  12.305  -0.977 -1.2337  0.0287  1.0771
  824MOL0     H11222   1.166  12.035  -1.109 -0.8590  0.5641  0.2663
  824MOL0     H11223   1.411  11.971  -1.067  0.6561  1.0652  0.1156
  824MOL0     H11224   1.168  11.697   0.936  3.0028 -2.0911 -3.0507
  824MOL0     H11225   0.935  11.652   0.995 -4.2306  2.0235 -0.6574
  824MOL0     H11226   0.608  11.209   0.857 -0.5642 -0.7431  0.0747
  824MOL0     H11227   0.370  11.127   0.855  0.9753  1.2195 -1.8443
  824MOL0     H11228   0.057  11.447   0.773  2.8252  2.4542  5.0442
  824MOL0     H11229  -0.009  11.391   0.925  3.8052 -0.7074  2.8713
  824MOL0     H11230  -0.074  11.170   0.819 -2.4097  0.5949 -1.1027
  824MOL0     H11231  -0.018  11.245   0.660 -1.1597  1.4057 -0.1119
  824MOL0     H11232  -0.240  11.212   0.663 -1.5625  1.5818 -1.1650
  824MOL0     H11233  -0.204  11.372   0.632  1.5768 -2.8092 -1.4186
  824MOL0     H11234  -0.248  11.403   0.907 -0.9484  0.6724  0.3131
  824MOL0     H11235  -0.378  11.379   0.798  0.1250 -0.3501 -0.2182
  824MOL0     H11236  -0.362  11.012   1.033 -1.0003 -0.1477  1.0789
  824MOL0     H11237   0.231  11.525   0.869  2.4455  2.5983  0.8055
  824MOL0     H11238   0.379  11.703   0.941 -0.8920 -0.7056 -0.1039
  824MOL0     H11239   0.552  11.685   0.931  1.0694  1.1402 -0.2416
  824MOL0     H11240   0.460  11.687   0.776  2.9920 -2.3123  0.6332
  825MOL0     O11241   8.329   5.547   7.070  0.2654 -0.6950  0.0953
  825MOL0     C11242   8.336   5.438   7.136  0.4664 -0.3315 -0.3151
  825MOL0     O11243   8.307   5.422   7.275 -0.2358  0.1651 -0.3626
  825MOL0     C11244   8.262   5.516   7.357  0.3042  0.1596 -0.0609
  825MOL0     C11245   8.328   5.538   7.482 -0.5632  0.2871  1.1631
  825MOL0     C11246   8.270   5.622   7.568  0.5902 -0.7015 -0.1408
  825MOL0     C11247   8.161   5.704   7.535  0.7520 -0.7737 -0.0066
  825MOL0     O11248   8.101   5.800   7.621 -0.2665  0.2711  0.5723
  825MOL0     C11249   8.178   5.922   7.636 -0.5792 -0.5461  0.0359
  825MOL0     C11250   8.111   6.026   7.719  0.1801  0.1271  0.1258
  825MOL0     C11251   8.200   6.150   7.749 -0.8228 -0.2434  0.2138
  825MOL0     C11252   8.116   6.260   7.808 -0.1369 -0.6826 -0.3841
  825MOL0     C11253   8.211   6.369   7.859  0.2836  0.5742  0.5309
  825MOL0     C11254   8.125   6.488   7.908 -0.0046  0.3515 -0.3889
  825MOL0     C11255   8.211   6.605   7.967  0.1369 -0.2525 -0.3015
  825MOL0     C11256   8.114   6.718   8.024 -0.9125  0.8651  0.1287
  825MOL0     N11257   8.192   6.811   8.105 -0.0177 -0.4793  0.8271
  825MOL0     C11258   8.166   6.854   8.230 -0.4096 -0.0979  0.2799
  825MOL0     C11259   8.246   6.966   8.253 -0.3912  0.7751 -0.1026
  825MOL0     C11260   8.253   7.035   8.377 -0.0293  0.2549 -0.3843
  825MOL0     C11261   8.119   7.090   8.421 -0.3801  0.0431  0.0324
  825MOL0     C11262   8.036   7.168   8.322 -0.7076  0.7040  0.1477
  825MOL0     C11263   8.099   7.298   8.303  0.4618  0.1648  0.0982
  825MOL0     O11264   8.004   7.385   8.234  0.2573  0.9620  0.8985
  825MOL0     C11265   8.061   7.493   8.172  0.0731 -0.9614 -0.5676
  825MOL0     C11266   8.186   7.554   8.201  0.1058  0.2673  1.0492
  825MOL0     C11267   8.224   7.668   8.135  0.2392 -0.2341 -0.0076
  825MOL0     C11268   8.145   7.727   8.040 -1.4184  0.1998 -0.5753
  825MOL0     C11269   8.184   7.845   7.972  0.2818 -0.3013  0.2627
  825MOL0     O11270   8.088   7.889   7.880  0.7976  1.3218 -0.1717
  825MOL0     C11271   8.117   7.995   7.804 -0.4080  0.3758 -0.5483
  825MOL0     C11272   8.107   8.130   7.854 -0.8190  0.8385 -1.2578
  825MOL0     C11273   8.132   8.234   7.774  0.4928 -0.8134  0.0533
  825MOL0     C11274   8.186   8.215   7.648 -0.6905  0.7417  0.1855
  825MOL0     O11275   8.225   8.329   7.586 -0.3158 -0.1962  0.4024
  825MOL0     C11276   8.277   8.304   7.446 -0.2856 -0.3323 -0.1309
  825MOL0     C11277   8.291   8.439   7.370  0.2082 -0.1343 -0.4558
  825MOL0     C11278   8.176   8.542   7.408 -0.4961 -0.5168 -0.4993
  825MOL0     C11279   8.179   8.642   7.292  0.0961  0.2355  0.3746
  825MOL0     C11280   8.059   8.728   7.271  0.1868  1.1654  0.1072
  825MOL0     C11281   8.106   8.869   7.219 -0.3184  0.2655  0.6486
  825MOL0     C11282   8.007   8.924   7.122 -0.2496 -0.4478 -0.2990
  825MOL0     C11283   7.971   9.066   7.139  0.2430  0.4773  0.2350
  825MOL0    Cl11284   8.115   9.177   7.150  0.0845  0.6155 -0.0632
  825MOL0     C11285   8.201   8.088   7.598 -0.1764 -0.7439  1.0557
  825MOL0     C11286   8.157   7.978   7.670  0.7618 -0.3565  0.8235
  825MOL0     O11287   8.282   7.911   8.014  0.3628 -0.2716  0.4953
  825MOL0     C11288   8.017   7.665   8.017 -0.1666  0.0339  0.0309
  825MOL0     C11289   7.980   7.545   8.073  0.1791 -1.3081  1.0871
  825MOL0     N11290   8.309   6.993   8.136  0.3926  0.3440 -0.6168
  825MOL0     N11291   8.278   6.903   8.043 -0.3977  0.4777 -0.6568
  825MOL0     C11292   8.097   5.669   7.412 -0.0448 -0.2605  0.1302
  825MOL0     C11293   8.144   5.575   7.325 -1.0962  0.2794  0.0770
  825MOL0     C11294   8.386   5.318   7.061 -0.4931 -0.5881  0.5743
  825MOL0     C11295   8.479   5.234   7.108  0.3441  0.4063 -0.4082
  825MOL0     C11296   8.513   5.120   7.037  0.2538  0.0363 -0.2648
  825MOL0     C11297   8.453   5.078   6.921  1.2933 -0.5142  0.4209
  825MOL0     O11298   8.494   4.977   6.842  0.1420  0.0236 -0.3918
  825MOL0     C11299   8.617   5.001   6.770 -0.2588 -1.1583  0.2855
  825MOL0     C11300   8.719   4.896   6.799 -0.3445  0.3952 -0.2689
  825MOL0     C11301   8.849   4.935   6.726 -0.0212  0.1201  0.1517
  825MOL0     C11302   8.960   4.821   6.724  0.2056  0.8206 -0.5137
  825MOL0     C11303   8.941   4.704   6.631 -0.6550  0.6027 -0.1323
  825MOL0     C11304   8.953   4.603   6.561  0.7000 -0.9887  0.5524
  825MOL0     C11305   8.372   5.171   6.875 -0.6950 -0.1278 -0.1690
  825MOL0     C11306   8.333   5.285   6.937  0.6306  0.1961  0.0905
  825MOL0     C11307   8.228   5.366   6.868  0.2157 -0.1189  0.4420
  825MOL0     H11308   8.411   5.475   7.514  0.5806  0.1785 -1.7128
  825MOL0     H11309   8.315   5.622   7.667 -0.3440  3.8195  0.4992
  825MOL0     H11310   8.273   5.898   7.684  0.0924  0.4064 -0.7917
  825MOL0     H11311   8.195   5.958   7.534  0.3615 -3.5772 -0.9839
  825MOL0     H11312   8.081   5.979   7.813  2.4674 -0.1800  0.7662
  825MOL0     H11313   8.019   6.049   7.665  0.0450 -0.8759 -0.0966
  825MOL0     H11314   8.242   6.182   7.653  0.4636 -0.7210  0.6003
  825MOL0     H11315   8.278   6.112   7.816  0.3254  1.3490 -0.1578
  825MOL0     H11316   8.042   6.304   7.742 -0.0711 -1.2526 -0.8491
  825MOL0     H11317   8.050   6.228   7.889 -0.1197 -0.8001 -0.4146
  825MOL0     H11318   8.288   6.325   7.922 -0.7598 -3.7469 -0.8697
  825MOL0     H11319   8.265   6.411   7.774 -1.0933  0.3279 -0.5016
  825MOL0     H11320   8.069   6.525   7.821 -0.1437  1.8953  0.3219
  825MOL0     H11321   8.052   6.455   7.982 -0.3281 -1.5410 -1.4886
  825MOL0     H11322   8.292   6.643   7.904 -0.6870 -0.6311 -1.6330
  825MOL0     H11323   8.258   6.566   8.058 -0.1034 -0.5875 -0.3179
  825MOL0     H11324   8.077   6.779   7.940 -2.8082  2.2689  1.8533
  825MOL0     H11325   8.028   6.677   8.078 -2.0914  2.4730 -0.4152
  825MOL0     H11326   8.102   6.799   8.298  0.9177 -2.3406 -0.1948
  825MOL0     H11327   8.302   6.979   8.457 -0.0117  0.3548 -0.3242
  825MOL0     H11328   8.315   7.125   8.365  1.3488 -0.1958  2.4792
  825MOL0     H11329   8.057   7.005   8.452 -1.9941  1.8159  1.9512
  825MOL0     H11330   8.144   7.160   8.501  1.1101 -2.3881  1.8440
  825MOL0     H11331   7.932   7.173   8.356 -1.4293 -0.6283 -1.7277
  825MOL0     H11332   8.032   7.113   8.228  1.6300 -2.1177  1.5313
  825MOL0     H11333   8.190   7.297   8.242  1.2374  0.4994  1.2365
  825MOL0     H11334   8.121   7.342   8.400 -0.3857 -0.5777  0.6360
  825MOL0     H11335   8.249   7.501   8.272 -1.6650  1.6466  3.8528
  825MOL0     H11336   8.322   7.711   8.153 -0.6186  0.9934  2.0243
  825MOL0     H11337   8.072   8.157   7.953  1.2853 -0.4493 -0.0855
  825MOL0     H11338   8.110   8.335   7.808  0.6698 -0.7348 -0.0661
  825MOL0     H11339   8.374   8.254   7.456 -0.7487 -1.0376  1.0568
  825MOL0     H11340   8.208   8.240   7.392  1.1141 -1.0117 -1.1636
  825MOL0     H11341   8.392   8.472   7.395 -0.0988  0.2396  0.3129
  825MOL0     H11342   8.296   8.417   7.263 -2.6542 -0.1600 -0.6526
  825MOL0     H11343   8.079   8.501   7.438 -1.3487  1.9884  0.3794
  825MOL0     H11344   8.216   8.590   7.498  1.4583 -2.8799 -0.0065
  825MOL0     H11345   8.185   8.588   7.197  1.9329 -1.9712  1.6389
  825MOL0     H11346   8.269   8.706   7.296 -1.2853  2.2578  0.7682
  825MOL0     H11347   7.999   8.733   7.362 -0.8234 -1.0273 -0.3612
  825MOL0     H11348   7.993   8.688   7.193  0.6366  1.1917 -0.2955
  825MOL0     H11349   8.101   8.935   7.306 -0.1183  0.0124  0.8515
  825MOL0     H11350   8.203   8.866   7.168  0.3015 -1.4617  1.8430
  825MOL0     H11351   7.911   8.872   7.132  1.4451 -4.0564 -1.0917
  825MOL0     H11352   8.037   8.919   7.017 -1.6522  0.5909 -0.7813
  825MOL0     H11353   7.922   9.089   7.045  0.0355 -0.7348  0.0438
  825MOL0     H11354   7.900   9.070   7.222  1.2143  3.2919  1.0512
  825MOL0     H11355   8.234   8.068   7.497  0.5737  1.7240  0.7586
  825MOL0     H11356   8.177   7.884   7.619  3.2595 -0.5658  2.0414
  825MOL0     H11357   7.948   7.707   7.945 -1.6793 -0.4772  1.1315
  825MOL0     H11358   7.885   7.499   8.048 -0.1523  0.6806 -1.8340
  825MOL0     H11359   8.008   5.731   7.400  1.7165  2.1391 -1.3283
  825MOL0     H11360   8.091   5.561   7.232 -0.0683 -0.3749 -0.4250
  825MOL0     H11361   8.525   5.263   7.201 -0.5235  2.1227 -0.4813
  825MOL0     H11362   8.596   5.066   7.081  0.8386 -1.2365 -2.7130
  825MOL0     H11363   8.659   5.100   6.789  0.3168 -1.3186 -0.0907
  825MOL0     H11364   8.603   5.001   6.661  3.8233 -6.2645 -0.6325
  825MOL0     H11365   8.674   4.807   6.754 -2.0947  0.2416  1.6292
  825MOL0     H11366   8.736   4.885   6.906  0.9387  1.6050 -0.3222
  825MOL0     H11367   8.885   5.026   6.774 -1.5546  1.2073 -0.6972
  825MOL0     H11368   8.823   4.964   6.624  0.6276 -0.4228 -0.1807
  825MOL0     H11369   9.048   4.869   6.682  1.5199  2.1353  3.3502
  825MOL0     H11370   8.988   4.798   6.827 -0.8836 -1.3150 -0.6212
  825MOL0     H11371   8.963   4.520   6.495 -0.4130  0.1425 -1.1193
  825MOL0     H11372   8.328   5.148   6.779 -1.2423 -3.1139  0.6771
  825MOL0     H11373   8.184   5.294   6.798  3.8869 -3.8887  1.6053
  825MOL0     H11374   8.152   5.406   6.934  0.5577 -1.6846  1.8635
  825MOL0     H11375   8.274   5.449   6.814  0.8564 -0.3518  0.6190
  826MOL0     O11376   1.263  10.839   9.010 -0.2273 -0.1143  0.4696
  826MOL0     C11377   1.372  10.828   8.942 -0.0867 -0.7692 -0.6736
  826MOL0     O11378   1.472  10.931   8.956 -0.1632  0.0459  0.2974
  826MOL0     C11379   1.430  11.067   8.968  0.2765  0.3714 -0.5363
  826MOL0     C11380   1.502  11.150   9.060  0.0939  0.4257  1.2807
  826MOL0     C11381   1.462  11.288   9.072  0.1727 -0.9455  0.4885
  826MOL0     C11382   1.349  11.339   9.013  1.3639  0.8806  0.3767
  826MOL0     O11383   1.307  11.467   9.041  0.3975 -0.1304  0.5704
  826MOL0     C11384   1.251  11.488   9.173 -0.6731 -1.0689 -0.1140
  826MOL0     C11385   1.203  11.634   9.189 -0.1990  0.3875 -0.0806
  826MOL0     C11386   1.050  11.633   9.145 -0.0440  0.4802  0.2026
  826MOL0     C11387   0.976  11.766   9.177 -0.5606  0.3861 -0.1197
  826MOL0     C11388   0.931  11.777   9.322  0.8079  1.0816  0.3594
  826MOL0     C11389   0.829  11.896   9.340 -0.4357  0.0249  0.6024
  826MOL0     C11390   0.770  11.930   9.483  0.0061 -0.4943 -0.0744
  826MOL0     C11391   0.633  11.999   9.482 -0.1378  0.3665  1.0706
  826MOL0     N11392   0.639  12.136   9.454  0.3019 -0.7641 -0.2316
  826MOL0     C11393   0.719  12.232   9.493  0.0971 -0.5565  0.1401
  826MOL0     C11394   0.664  12.353   9.452 -0.0010  0.1235 -0.1790
  826MOL0     C11395   0.724  12.492   9.478 -0.1799 -0.5027 -0.4187
  826MOL0     C11396   0.817  12.531   9.364  0.5196  0.2656 -0.2547
  826MOL0     C11397   0.914  12.640   9.405  0.3902 -0.2615  0.8293
  826MOL0     C11398   0.839  12.780   9.391 -0.7871 -0.3416 -0.1218
  826MOL0     O11399   0.891  12.882   9.483 -0.7222  0.8229 -0.3340
  826MOL0     C11400   0.829  12.916   9.604 -0.7344 -0.4806 -0.2336
  826MOL0     C11401   0.725  12.842   9.669 -0.0120  0.2622 -0.1362
  826MOL0     C11402   0.667  12.888   9.789 -0.0913 -0.1498  0.5397
  826MOL0     C11403   0.713  13.006   9.846 -0.6091 -0.9390  0.8300
  826MOL0     C11404   0.670  13.073   9.972  0.3890  1.4776  0.5357
  826MOL0     O11405   0.676  13.216   9.983 -0.3634  0.1481  0.7246
  826MOL0     C11406   0.633  13.270  10.096  0.2353 -1.2884 -0.5785
  826MOL0     C11407   0.531  13.367  10.092 -0.3703 -0.6268  0.4439
  826MOL0     C11408   0.487  13.434  10.203  0.4290  0.1055  0.3614
  826MOL0     C11409   0.533  13.403  10.333 -0.1141  0.8025 -0.5320
  826MOL0     O11410   0.497  13.472  10.447  1.4566 -0.4370 -0.0027
  826MOL0     C11411   0.365  13.533  10.446 -0.5126 -0.0833  0.4899
  826MOL0     C11412   0.325  13.589  10.583  0.2062 -1.0341 -0.4383
  826MOL0     C11413   0.272  13.738  10.581  0.1835 -0.3814 -0.5659
  826MOL0     C11414   0.200  13.769  10.707 -0.1711 -0.6454 -0.1992
  826MOL0     C11415   0.128  13.904  10.707  0.1507  0.7955  0.3116
  826MOL0     C11416   0.021  13.900  10.831 -0.3406 -0.2660  0.3108
  826MOL0     C11417  -0.076  14.014  10.818 -0.1761 -0.8649 -0.3555
  826MOL0     C11418  -0.076  14.080  10.949 -0.1885 -0.9489 -0.1730
  826MOL0    Cl11419  -0.126  13.970  11.075  0.1111 -0.0221 -0.2666
  826MOL0     C11420   0.647  13.311  10.344  0.1070 -0.6027  0.2482
  826MOL0     C11421   0.695  13.245  10.224  0.4699 -0.4884  1.1230
  826MOL0     O11422   0.639  12.990  10.059  0.0056  0.2782 -0.1434
  826MOL0     C11423   0.823  13.075   9.776 -0.8804 -0.0873  0.4152
  826MOL0     C11424   0.876  13.035   9.656 -0.4395  0.5294 -0.0979
  826MOL0     N11425   0.540  12.321   9.392 -0.4687 -0.0148  0.1209
  826MOL0     N11426   0.527  12.186   9.394  0.1612 -0.1373 -0.2951
  826MOL0     C11427   1.274  11.250   8.934 -0.1394 -0.0482  0.9063
  826MOL0     C11428   1.316  11.117   8.904  0.6180 -0.4400 -0.3610
  826MOL0     C11429   1.388  10.710   8.855 -0.4684 -0.4794  0.2743
  826MOL0     C11430   1.308  10.586   8.869 -0.5347 -0.7964 -0.5127
  826MOL0     C11431   1.328  10.476   8.786 -1.0131 -0.2574  0.0667
  826MOL0     C11432   1.425  10.480   8.687  0.4449 -0.2217 -0.6928
  826MOL0     O11433   1.443  10.385   8.595 -0.7435 -0.0409 -0.1708
  826MOL0     C11434   1.399  10.240   8.597  0.0560 -0.2248  0.5548
  826MOL0     C11435   1.252  10.209   8.542 -0.2704  0.5796  0.0590
  826MOL0     C11436   1.236  10.243   8.395  0.0922 -0.0202 -0.3979
  826MOL0     C11437   1.270  10.129   8.299 -0.7066 -1.0393  0.2738
  826MOL0     C11438   1.384  10.172   8.214  0.2025 -0.0261 -0.4006
  826MOL0     C11439   1.478  10.216   8.152  0.2241  0.1983  0.6201
  826MOL0     C11440   1.500  10.592   8.671  0.0731 -0.0911  0.0206
  826MOL0     C11441   1.480  10.710   8.742 -1.1649 -0.4111  0.5961
  826MOL0     C11442   1.571  10.824   8.703  0.0792  0.2328  0.4348
  826MOL0     H11443   1.584  11.100   9.111 -1.5152 -1.9141  1.7464
  826MOL0     H11444   1.536  11.349   9.122  0.1204 -0.7427  0.3189
  826MOL0     H11445   1.171  11.416   9.190 -1.4039  0.3719  3.2025
  826MOL0     H11446   1.323  11.480   9.254 -0.9391  0.7196  0.3289
  826MOL0     H11447   1.261  11.697   9.121 -1.9258 -2.6676 -4.9433
  826MOL0     H11448   1.206  11.669   9.292  2.4091 -0.1862  0.0954
  826MOL0     H11449   0.994  11.547   9.182 -0.4608  0.4335 -0.5274
  826MOL0     H11450   1.052  11.614   9.038  0.9634 -0.8154  0.4229
  826MOL0     H11451   1.049  11.840   9.144 -1.4045  1.4432  0.3331
  826MOL0     H11452   0.883  11.767   9.118 -2.8234  0.5085  3.2140
  826MOL0     H11453   0.881  11.683   9.348 -0.9506  1.1148 -2.5414
  826MOL0     H11454   1.023  11.780   9.382  1.7382 -3.1360 -0.5571
  826MOL0     H11455   0.877  11.986   9.301  1.9336 -0.6392  1.7754
  826MOL0     H11456   0.748  11.876   9.270  0.5714 -1.1895 -0.2734
  826MOL0     H11457   0.825  12.003   9.544 -3.4320  0.0077  2.7755
  826MOL0     H11458   0.766  11.838   9.542  1.0950  0.3198  1.3646
  826MOL0     H11459   0.572  11.957   9.402  1.1140 -3.1458  1.8038
  826MOL0     H11460   0.577  11.987   9.575 -2.4936 -1.5372 -0.4781
  826MOL0     H11461   0.807  12.218   9.556  0.5982  0.0124 -0.4248
  826MOL0     H11462   0.643  12.566   9.482  1.5170  1.4940 -1.0968
  826MOL0     H11463   0.775  12.484   9.575  1.6273  0.6019 -1.2314
  826MOL0     H11464   0.875  12.442   9.337  0.0390  0.6290 -2.7083
  826MOL0     H11465   0.770  12.550   9.267  2.4867 -0.7819 -1.4840
  826MOL0     H11466   0.996  12.632   9.333  1.0460  1.6156  1.3065
  826MOL0     H11467   0.967  12.633   9.501  3.3546  0.7669 -0.6129
  826MOL0     H11468   0.734  12.764   9.417 -0.2380 -3.3440  0.7009
  826MOL0     H11469   0.841  12.816   9.288  3.7680 -3.1096 -1.3244
  826MOL0     H11470   0.685  12.748   9.632 -0.8086 -0.2019  1.7997
  826MOL0     H11471   0.584  12.838   9.838 -0.7973  2.4860  2.2754
  826MOL0     H11472   0.497  13.404   9.996  3.2804 -2.1921 -1.6878
  826MOL0     H11473   0.419  13.518  10.192  0.9618  0.8581  2.3781
  826MOL0     H11474   0.359  13.612  10.371 -1.7397 -0.7005 -0.0897
  826MOL0     H11475   0.288  13.462  10.414  2.8132 -2.8962 -1.9706
  826MOL0     H11476   0.254  13.520  10.629  1.6812 -1.5843  1.0948
  826MOL0     H11477   0.412  13.595  10.649 -0.4373  0.4486  0.3048
  826MOL0     H11478   0.351  13.812  10.564 -1.9083  2.1511  0.0746
  826MOL0     H11479   0.204  13.739  10.495  2.8032 -0.4035 -2.7871
  826MOL0     H11480   0.260  13.789  10.796 -1.2588  1.9100  0.0693
  826MOL0     H11481   0.118  13.698  10.719 -1.3821  1.0941  3.1393
  826MOL0     H11482   0.084  13.912  10.607  2.9028 -2.9516 -1.4321
  826MOL0     H11483   0.199  13.982  10.736  2.8745 -1.2201 -0.5976
  826MOL0     H11484  -0.043  13.812  10.819  2.0857 -1.7182 -3.7739
  826MOL0     H11485   0.075  13.890  10.926  1.9038  0.9828 -0.7473
  826MOL0     H11486  -0.174  13.968  10.804  1.2549 -3.5737 -2.4326
  826MOL0     H11487  -0.051  14.088  10.741 -0.8194  1.6016  1.6588
  826MOL0     H11488   0.024  14.124  10.960 -0.2180 -0.4884 -1.4722
  826MOL0     H11489  -0.150  14.161  10.947 -1.5039 -2.1218 -0.4836
  826MOL0     H11490   0.696  13.295  10.439 -0.5759 -3.3656  0.2193
  826MOL0     H11491   0.773  13.171  10.235  2.3078  1.2681  0.5043
  826MOL0     H11492   0.872  13.156   9.830  1.1083  0.5731 -2.2081
  826MOL0     H11493   0.953  13.087   9.600 -0.7266 -0.4836 -1.4781
  826MOL0     H11494   1.183  11.281   8.883 -2.2602 -2.3549  3.0278
  826MOL0     H11495   1.278  11.052   8.825  2.6520 -2.9448  0.5894
  826MOL0     H11496   1.226  10.591   8.939  1.4290  0.3598  1.8562
  826MOL0     H11497   1.273  10.383   8.798 -1.7472  0.3170  1.3704
  826MOL0     H11498   1.408  10.198   8.697 -0.1323  1.7500  1.4606
  826MOL0     H11499   1.472  10.200   8.526  2.4709  3.7228  0.5202
  826MOL0     H11500   1.170  10.251   8.600  2.0260  1.2339  3.0890
  826MOL0     H11501   1.234  10.101   8.550 -5.3628  1.3170  4.4649
  826MOL0     H11502   1.285  10.339   8.376 -4.0575  2.2575 -0.8154
  826MOL0     H11503   1.134  10.284   8.384 -0.7681 -1.9933 -0.1694
  826MOL0     H11504   1.290  10.038   8.356  1.5336 -1.6554 -1.3362
  826MOL0     H11505   1.195  10.116   8.221  0.3049 -1.8146 -0.6154
  826MOL0     H11506   1.557  10.270   8.102  1.0467 -1.1446  0.4159
  826MOL0     H11507   1.560  10.589   8.582  0.2167 -1.1309  0.1425
  826MOL0     H11508   1.601  10.814   8.599  2.9585 -2.9305  1.4000
  826MOL0     H11509   1.521  10.921   8.718 -2.1037 -0.8539  0.6714
  826MOL0     H11510   1.658  10.820   8.768 -0.8199 -1.5508  1.6280
  827MOL0     O11511   8.447   4.649   0.585  0.0935  0.5796 -0.1641
  827MOL0     C11512   8.489   4.537   0.600 -1.2649 -0.4844 -0.8210
  827MOL0     O11513   8.415   4.431   0.636 -0.4774  0.4391  0.0074
  827MOL0     C11514   8.280   4.440   0.680 -0.5440 -0.1938  0.8791
  827MOL0     C11515   8.201   4.329   0.651 -0.3304  0.9712 -0.1838
  827MOL0     C11516   8.066   4.321   0.682  0.5502  0.4488 -0.7981
  827MOL0     C11517   8.005   4.425   0.749  0.2207 -0.4149  0.3400
  827MOL0     O11518   7.876   4.431   0.785 -0.8812 -0.8419 -0.5311
  827MOL0     C11519   7.780   4.358   0.714 -0.9316 -0.3006  0.6418
  827MOL0     C11520   7.650   4.443   0.732  0.3146  0.7765  0.3945
  827MOL0     C11521   7.612   4.433   0.889  0.5136  0.4290  0.5183
  827MOL0     C11522   7.625   4.583   0.933 -0.5985 -0.1724  0.4968
  827MOL0     C11523   7.594   4.597   1.081 -0.1075 -0.0050  0.3771
  827MOL0     C11524   7.620   4.740   1.127 -0.4636  0.4108 -0.1566
  827MOL0     C11525   7.556   4.759   1.260  0.2514 -0.6589  0.0872
  827MOL0     C11526   7.578   4.900   1.320 -0.7748 -0.6910 -0.0843
  827MOL0     N11527   7.520   5.005   1.240  0.6200  0.2792  0.0309
  827MOL0     C11528   7.396   5.006   1.185 -0.2632 -0.1271 -0.0929
  827MOL0     C11529   7.397   5.110   1.103  0.2260  0.4346 -0.0921
  827MOL0     C11530   7.280   5.146   1.015 -0.5549  0.1865  0.5471
  827MOL0     C11531   7.240   5.028   0.929 -0.6019 -1.5183 -0.4623
  827MOL0     C11532   7.356   4.961   0.855 -0.0306  0.1362  0.6251
  827MOL0     C11533   7.307   4.827   0.792 -0.1167 -0.1024 -0.1894
  827MOL0     O11534   7.345   4.825   0.655  0.3326  0.4180  0.0196
  827MOL0     C11535   7.333   4.705   0.582 -1.5581  0.1017 -0.1751
  827MOL0     C11536   7.332   4.579   0.642  0.1097  0.1198 -0.4940
  827MOL0     C11537   7.323   4.464   0.556 -0.2452 -0.5712 -0.2355
  827MOL0     C11538   7.325   4.482   0.416 -0.3783  0.8610  0.1889
  827MOL0     C11539   7.343   4.374   0.307 -0.4001  0.0987 -0.1460
  827MOL0     O11540   7.352   4.424   0.169 -0.2668  0.6019  0.5168
  827MOL0     C11541   7.363   4.332   0.065 -0.0398 -0.7096 -0.4380
  827MOL0     C11542   7.487   4.298   0.010 -0.3484  0.1308  0.0613
  827MOL0     C11543   7.488   4.221  -0.112  0.3547 -0.5583  0.5237
  827MOL0     C11544   7.377   4.157  -0.157 -0.2500 -0.7854  0.8480
  827MOL0     O11545   7.391   4.076  -0.275  0.5228 -0.2945  0.2748
  827MOL0     C11546   7.305   3.966  -0.284  0.3421 -0.1623  0.5890
  827MOL0     C11547   7.368   3.872  -0.390 -0.4418  0.2335  0.9018
  827MOL0     C11548   7.493   3.793  -0.332 -0.0677  0.3562  0.2080
  827MOL0     C11549   7.583   3.738  -0.443  0.2378  0.6587  0.4962
  827MOL0     C11550   7.686   3.638  -0.395 -0.3440 -0.3575  0.0162
  827MOL0     C11551   7.779   3.603  -0.516 -0.6971 -0.1152 -0.7607
  827MOL0     C11552   7.713   3.521  -0.622  0.3241 -0.1448 -0.4265
  827MOL0     C11553   7.811   3.452  -0.720 -0.2040  0.0971  0.0873
  827MOL0    Cl11554   7.727   3.403  -0.867 -0.2119  0.2836  0.0263
  827MOL0     C11555   7.260   4.174  -0.086  0.0819  0.0127  0.1261
  827MOL0     C11556   7.247   4.279   0.010 -0.0650  0.2128 -0.0697
  827MOL0     O11557   7.339   4.254   0.343 -0.3566 -0.1610 -0.3605
  827MOL0     C11558   7.313   4.614   0.362  0.6160  0.3191  0.6275
  827MOL0     C11559   7.323   4.724   0.443  1.0232  0.6038 -0.2184
  827MOL0     N11560   7.519   5.178   1.114 -0.6395 -0.0067  0.6342
  827MOL0     N11561   7.589   5.110   1.190 -0.1886  0.5913 -1.3083
  827MOL0     C11562   8.077   4.543   0.789 -0.2192 -0.0876 -0.1597
  827MOL0     C11563   8.211   4.548   0.743 -0.5106  0.5428 -0.6928
  827MOL0     C11564   8.642   4.517   0.585 -0.5137  0.9926 -0.4829
  827MOL0     C11565   8.701   4.384   0.607  0.1086 -0.2985  0.2337
  827MOL0     C11566   8.838   4.357   0.601  0.0681  0.0209 -0.7666
  827MOL0     C11567   8.927   4.465   0.589 -0.1192  0.1280 -0.8390
  827MOL0     O11568   9.063   4.465   0.582  0.4035 -0.3247 -0.3512
  827MOL0     C11569   9.106   4.331   0.542 -0.7784  0.0561 -0.3100
  827MOL0     C11570   9.258   4.362   0.511  0.6774 -0.5626  0.6424
  827MOL0     C11571   9.349   4.406   0.631 -0.4878  0.0037  0.4642
  827MOL0     C11572   9.498   4.402   0.596 -0.0919  0.0157 -0.8769
  827MOL0     C11573   9.578   4.402   0.721  0.7559 -0.3521  0.0296
  827MOL0     C11574   9.651   4.401   0.811  0.4022 -0.7595 -1.2533
  827MOL0     C11575   8.873   4.584   0.572 -1.0900 -0.2065  0.4395
  827MOL0     C11576   8.741   4.619   0.557 -0.9626 -0.0443  0.1419
  827MOL0     C11577   8.710   4.758   0.517 -0.3511 -0.1680  0.7328
  827MOL0     H11578   8.267   4.250   0.617  1.2329  2.0796  0.1852
  827MOL0     H11579   8.016   4.233   0.641  2.6054  0.3098 -3.2870
  827MOL0     H11580   7.795   4.332   0.608 -1.2939  1.7472  0.0515
  827MOL0     H11581   7.769   4.260   0.762 -1.5845 -0.6890 -0.2603
  827MOL0     H11582   7.564   4.399   0.680  1.2097  2.3737 -2.6952
  827MOL0     H11583   7.676   4.540   0.689 -1.1542  0.6345 -0.8985
  827MOL0     H11584   7.668   4.358   0.945 -0.6053 -3.5235 -3.1272
  827MOL0     H11585   7.508   4.401   0.904 -0.5968  3.8297  0.9142
  827MOL0     H11586   7.726   4.616   0.906 -1.0522  0.3704 -0.5946
  827MOL0     H11587   7.559   4.650   0.877  0.5042 -0.9184 -1.8201
  827MOL0     H11588   7.489   4.566   1.090 -0.0405 -0.2648  0.2522
  827MOL0     H11589   7.659   4.528   1.136  0.2909  0.2366  0.2096
  827MOL0     H11590   7.727   4.745   1.151 -0.8984 -3.1799  3.7128
  827MOL0     H11591   7.584   4.818   1.059  0.8319  2.4783  1.3728
  827MOL0     H11592   7.612   4.697   1.331 -1.9313 -0.7687  1.8169
  827MOL0     H11593   7.449   4.740   1.266 -0.0106  0.0247 -1.8470
  827MOL0     H11594   7.535   4.902   1.420  1.9523 -0.3325  1.1766
  827MOL0     H11595   7.684   4.923   1.332 -0.0462 -2.8198 -1.8082
  827MOL0     H11596   7.309   4.941   1.191 -0.2963 -0.0086  0.7862
  827MOL0     H11597   7.197   5.179   1.078  0.4410 -0.1863  2.0975
  827MOL0     H11598   7.321   5.219   0.944 -0.6652  0.3668  0.6677
  827MOL0     H11599   7.185   4.958   0.991  2.6177 -1.1481  3.1693
  827MOL0     H11600   7.176   5.061   0.846  0.6944  0.1956 -0.8347
  827MOL0     H11601   7.452   4.959   0.907 -1.1403  0.6722  2.8072
  827MOL0     H11602   7.372   5.025   0.767 -0.6403 -0.2565  0.2232
  827MOL0     H11603   7.198   4.821   0.790 -0.1578  0.5645 -1.7370
  827MOL0     H11604   7.351   4.747   0.852 -0.2751  0.4486  0.6798
  827MOL0     H11605   7.337   4.568   0.750  1.0741 -1.8926 -0.6986
  827MOL0     H11606   7.312   4.367   0.604 -2.3146  0.4294  1.5163
  827MOL0     H11607   7.581   4.343   0.043 -0.5579  1.5778 -1.1805
  827MOL0     H11608   7.577   4.189  -0.167 -0.5495  0.1102 -1.4349
  827MOL0     H11609   7.301   3.904  -0.194 -3.9822 -0.8415  0.1345
  827MOL0     H11610   7.210   3.996  -0.329  1.3275 -1.8722 -2.9841
  827MOL0     H11611   7.301   3.801  -0.440 -0.8581  0.0922  1.6373
  827MOL0     H11612   7.406   3.928  -0.475  3.8245 -1.5104  1.4310
  827MOL0     H11613   7.555   3.864  -0.276  4.7105 -2.1129 -1.3880
  827MOL0     H11614   7.474   3.711  -0.263  2.4715 -1.4583 -1.0540
  827MOL0     H11615   7.634   3.819  -0.495  1.2088  1.3936  2.4917
  827MOL0     H11616   7.507   3.694  -0.509 -0.9667  1.5350  1.2468
  827MOL0     H11617   7.627   3.552  -0.360 -1.3924  0.1763 -0.3984
  827MOL0     H11618   7.758   3.685  -0.327  2.1059 -0.7144 -2.1631
  827MOL0     H11619   7.824   3.691  -0.562 -0.2919 -0.9961 -2.1155
  827MOL0     H11620   7.868   3.549  -0.481 -1.8693 -1.3655  0.3962
  827MOL0     H11621   7.639   3.582  -0.674 -1.1973 -0.6419  1.0575
  827MOL0     H11622   7.660   3.442  -0.568 -1.0220  2.5806  2.4718
  827MOL0     H11623   7.892   3.522  -0.743 -0.2673 -0.4799 -2.2029
  827MOL0     H11624   7.853   3.359  -0.681  3.5569  1.7437  0.3500
  827MOL0     H11625   7.162   4.134  -0.111  0.2188 -2.7238  3.2475
  827MOL0     H11626   7.157   4.315   0.059 -0.0150  0.8699 -0.4563
  827MOL0     H11627   7.303   4.629   0.255 -3.1178 -3.4583  0.1804
  827MOL0     H11628   7.331   4.829   0.414  2.0776  0.4046 -0.6708
  827MOL0     H11629   8.023   4.628   0.831 -2.5933  0.5025 -3.9225
  827MOL0     H11630   8.255   4.647   0.753  1.3290 -0.1445 -1.5616
  827MOL0     H11631   8.634   4.300   0.620 -2.2429  0.5709 -4.1400
  827MOL0     H11632   8.863   4.253   0.623  1.5673  0.4497 -0.3063
  827MOL0     H11633   9.057   4.306   0.448 -1.3748 -1.5486  0.3998
  827MOL0     H11634   9.091   4.252   0.616 -0.9564  0.1484 -0.2475
  827MOL0     H11635   9.254   4.436   0.431 -2.1661 -1.7651 -0.4763
  827MOL0     H11636   9.289   4.267   0.467  0.2970  0.0096 -0.9185
  827MOL0     H11637   9.319   4.351   0.721 -2.2634 -1.1907 -0.8016
  827MOL0     H11638   9.338   4.511   0.661  1.0102 -0.0119  1.1972
  827MOL0     H11639   9.529   4.315   0.537  0.7035 -1.5795  1.7011
  827MOL0     H11640   9.541   4.492   0.552  4.8403 -0.0489  2.9722
  827MOL0     H11641   9.697   4.394   0.908 -0.5809  3.0249 -0.3482
  827MOL0     H11642   8.941   4.666   0.553 -0.4696 -0.5641  1.0553
  827MOL0     H11643   8.790   4.828   0.540  2.2765 -3.1407  1.3192
  827MOL0     H11644   8.698   4.769   0.409  1.7625 -0.4858  0.4296
  827MOL0     H11645   8.624   4.802   0.570 -1.2424 -0.1998 -0.6262
  828MOL0     O11646   3.133  10.106   1.125  0.6122  0.3576 -0.2164
  828MOL0     C11647   3.143  10.202   1.208  0.2870  1.1321  0.4116
  828MOL0     O11648   3.206  10.199   1.329 -0.3283 -0.2028 -0.4661
  828MOL0     C11649   3.261  10.086   1.376  0.3859  0.0012  0.2962
  828MOL0     C11650   3.183   9.976   1.396 -0.2153 -0.1374  0.3969
  828MOL0     C11651   3.249   9.865   1.436 -0.2973 -0.3520  0.2973
  828MOL0     C11652   3.384   9.859   1.467  0.2946  0.1002  0.7474
  828MOL0     O11653   3.448   9.741   1.506  0.2318  0.6628  0.1976
  828MOL0     C11654   3.427   9.627   1.433  0.5092 -0.6603 -0.1129
  828MOL0     C11655   3.410   9.515   1.526  0.2317  0.7110 -0.0241
  828MOL0     C11656   3.294   9.508   1.626 -0.1566 -0.4543 -0.5701
  828MOL0     C11657   3.168   9.443   1.566 -0.1369  0.2653  0.6785
  828MOL0     C11658   3.058   9.454   1.676 -0.0540 -0.5297 -0.0742
  828MOL0     C11659   2.922   9.385   1.647  0.5094 -0.0348 -0.7473
  828MOL0     C11660   2.832   9.400   1.769  0.9045  0.7104  0.4965
  828MOL0     C11661   2.696   9.334   1.736 -0.2580 -0.4520  0.5713
  828MOL0     N11662   2.612   9.315   1.855 -0.3765  0.1814  0.7245
  828MOL0     C11663   2.579   9.196   1.908  0.0604 -1.1657 -1.2194
  828MOL0     C11664   2.484   9.224   2.002 -0.0473  0.0179 -0.5182
  828MOL0     C11665   2.410   9.128   2.079 -1.1432  0.1603 -0.3619
  828MOL0     C11666   2.287   9.089   2.001  0.6652  0.2829  0.6590
  828MOL0     C11667   2.206   8.973   2.054 -0.0117 -0.2499 -0.1812
  828MOL0     C11668   2.262   8.831   2.043 -0.6293 -0.2366 -0.2205
  828MOL0     O11669   2.193   8.724   2.119  0.0010 -0.5195  0.4561
  828MOL0     C11670   2.229   8.698   2.246 -0.3243  0.0080  0.3094
  828MOL0     C11671   2.340   8.764   2.310  0.1813 -0.1045  0.2985
  828MOL0     C11672   2.373   8.723   2.440 -0.1074  0.0400 -0.0082
  828MOL0     C11673   2.319   8.610   2.495 -0.4591  0.6592  0.0519
  828MOL0     C11674   2.374   8.563   2.630 -0.4717  0.8719  0.8173
  828MOL0     O11675   2.478   8.632   2.694 -0.8634  0.6384  1.3406
  828MOL0     C11676   2.523   8.600   2.822  1.0118  0.0573  0.0405
  828MOL0     C11677   2.517   8.704   2.912  0.7456  0.2458  0.4852
  828MOL0     C11678   2.566   8.682   3.045  0.6525  0.8585  0.3296
  828MOL0     C11679   2.610   8.558   3.094  0.1366 -0.5415  0.0477
  828MOL0     O11680   2.657   8.538   3.221  0.8251 -0.4015  0.2634
  828MOL0     C11681   2.680   8.662   3.306 -0.3930  0.4755  0.8542
  828MOL0     C11682   2.763   8.619   3.425  0.1915 -0.7253  0.4429
  828MOL0     C11683   2.909   8.584   3.385  1.2749 -0.4992  0.1707
  828MOL0     C11684   2.972   8.472   3.468 -0.1649 -1.0182  0.9817
  828MOL0     C11685   3.009   8.518   3.602  0.1545 -0.7379 -0.3877
  828MOL0     C11686   3.034   8.394   3.699 -0.1580 -0.8694  0.0930
  828MOL0     C11687   3.074   8.459   3.837  0.5965 -0.2561  1.0843
  828MOL0     C11688   3.160   8.351   3.917 -0.2102  0.7940  0.2290
  828MOL0    Cl11689   3.216   8.450   4.043  0.1770 -0.9111  0.0969
  828MOL0     C11690   2.608   8.455   2.997  0.7077 -0.7375 -0.2575
  828MOL0     C11691   2.568   8.478   2.863 -0.3025  0.8682 -1.2209
  828MOL0     O11692   2.309   8.476   2.684 -0.2306  0.5826  0.1353
  828MOL0     C11693   2.213   8.544   2.432 -0.5181  0.1692 -0.6668
  828MOL0     C11694   2.168   8.589   2.311 -0.2372 -0.6551  0.0373
  828MOL0     N11695   2.465   9.354   2.005 -0.6292  0.0148 -0.6130
  828MOL0     N11696   2.540   9.412   1.915  0.3624 -0.4677 -0.4073
  828MOL0     C11697   3.460   9.979   1.442 -0.8613 -0.1133  0.1161
  828MOL0     C11698   3.402  10.094   1.390 -0.3168  0.5668  0.5975
  828MOL0     C11699   3.106  10.337   1.145 -0.5686 -0.3966  0.4188
  828MOL0     C11700   3.199  10.442   1.154 -0.2232  0.1652 -0.0192
  828MOL0     C11701   3.181  10.562   1.092 -0.2342 -0.0839 -0.6027
  828MOL0     C11702   3.061  10.588   1.019 -0.2716 -0.2838  0.7989
  828MOL0     O11703   3.028  10.711   0.954  0.3711 -0.0156 -0.0675
  828MOL0     C11704   3.064  10.814   1.041  0.5896 -0.5924  0.1615
  828MOL0     C11705   3.052  10.947   0.968  0.3561 -0.1270  0.6804
  828MOL0     C11706   2.921  11.017   1.002 -0.1644  0.1591  0.1732
  828MOL0     C11707   2.801  10.934   0.943  0.0988 -0.7247 -0.0955
  828MOL0     C11708   2.693  11.027   0.905 -0.7471 -0.1931 -0.0491
  828MOL0     C11709   2.610  11.103   0.855  0.2051 -0.8788  0.2864
  828MOL0     C11710   2.980  10.480   0.999 -0.7620 -0.8843 -0.8465
  828MOL0     C11711   2.993  10.354   1.064  0.3411 -0.0599  0.0099
  828MOL0     C11712   2.888  10.250   1.033  0.5218 -0.6841 -0.1364
  828MOL0     H11713   3.074   9.969   1.394 -0.1374 -1.7465  0.0068
  828MOL0     H11714   3.188   9.784   1.474  0.3066  0.6292  3.7638
  828MOL0     H11715   3.342   9.622   1.364 -0.4284 -0.7094  1.0212
  828MOL0     H11716   3.521   9.622   1.377  0.1662 -3.1536 -0.5686
  828MOL0     H11717   3.503   9.507   1.583 -0.8638 -0.0576  1.7695
  828MOL0     H11718   3.409   9.426   1.462  4.1294 -0.2793  1.0408
  828MOL0     H11719   3.266   9.606   1.665 -2.2227 -2.5456  4.0179
  828MOL0     H11720   3.327   9.462   1.720  1.1286  1.9073  0.2047
  828MOL0     H11721   3.130   9.490   1.475  0.5575  2.7895  1.6324
  828MOL0     H11722   3.173   9.339   1.532  0.5523  0.2811  0.7205
  828MOL0     H11723   3.095   9.414   1.771 -0.6870 -2.6160 -0.6558
  828MOL0     H11724   3.046   9.561   1.693  6.3304  0.2456  2.6291
  828MOL0     H11725   2.880   9.430   1.557  2.2870  2.8805 -0.2711
  828MOL0     H11726   2.926   9.278   1.624 -2.0310 -0.8934  2.1321
  828MOL0     H11727   2.811   9.506   1.786  0.2386  0.2540  2.7982
  828MOL0     H11728   2.865   9.354   1.863 -0.2209  0.5892  0.8382
  828MOL0     H11729   2.644   9.396   1.662 -1.4903 -0.8464  1.0672
  828MOL0     H11730   2.701   9.235   1.691  1.8610 -0.0438 -0.1629
  828MOL0     H11731   2.605   9.098   1.869  0.9461 -1.0037 -1.0705
  828MOL0     H11732   2.462   9.032   2.090  1.2340  1.2765 -1.0902
  828MOL0     H11733   2.386   9.178   2.172 -2.5019  1.1905 -1.2313
  828MOL0     H11734   2.227   9.180   1.999  1.1255  0.5791  0.2187
  828MOL0     H11735   2.300   9.068   1.894 -0.5085 -1.4208  0.8062
  828MOL0     H11736   2.107   8.968   2.008 -1.0130  0.2561  1.7985
  828MOL0     H11737   2.180   8.977   2.160 -0.1593  0.9540 -0.2526
  828MOL0     H11738   2.371   8.833   2.059 -0.6922  3.3004  0.4764
  828MOL0     H11739   2.256   8.810   1.936  1.1036 -1.9831 -0.0360
  828MOL0     H11740   2.375   8.860   2.274 -0.3736 -0.7681 -2.2012
  828MOL0     H11741   2.447   8.778   2.496  1.8818  0.4338 -2.7715
  828MOL0     H11742   2.479   8.800   2.878  0.2678 -0.4494 -1.0296
  828MOL0     H11743   2.567   8.780   3.093 -0.2556  1.5089 -0.9142
  828MOL0     H11744   2.745   8.733   3.254  0.1502  0.6110  1.6922
  828MOL0     H11745   2.587   8.707   3.343  0.3629  1.8136  1.1821
  828MOL0     H11746   2.757   8.711   3.482 -3.5560 -0.2340 -0.4353
  828MOL0     H11747   2.715   8.538   3.481  0.6594 -0.2441  1.5432
  828MOL0     H11748   2.901   8.543   3.284 -0.9466  1.9117 -0.7456
  828MOL0     H11749   2.973   8.672   3.371  4.1093 -2.1724  1.7902
  828MOL0     H11750   3.058   8.436   3.412 -0.9254  3.2549 -3.6296
  828MOL0     H11751   2.894   8.396   3.482 -2.6664  1.6440  3.0724
  828MOL0     H11752   2.932   8.588   3.635 -0.3343 -0.7325 -1.5042
  828MOL0     H11753   3.103   8.573   3.601 -1.4997  2.3435 -1.2074
  828MOL0     H11754   2.945   8.331   3.706 -2.3070  1.8942 -0.7032
  828MOL0     H11755   3.115   8.346   3.643 -1.0383  1.0668 -3.0752
  828MOL0     H11756   2.983   8.491   3.887 -0.7815  0.8301 -1.8921
  828MOL0     H11757   3.134   8.547   3.811 -0.7639  0.9077  1.7538
  828MOL0     H11758   3.104   8.263   3.948  1.1562 -0.0549  0.3883
  828MOL0     H11759   3.244   8.307   3.862 -1.2580  0.5526 -1.2420
  828MOL0     H11760   2.618   8.352   3.029  1.2455 -0.4405  0.5566
  828MOL0     H11761   2.588   8.386   2.809  1.0393  1.9116 -2.6021
  828MOL0     H11762   2.155   8.465   2.480 -2.2586  1.0559 -1.2205
  828MOL0     H11763   2.080   8.543   2.269  0.3944 -2.0947  0.2565
  828MOL0     H11764   3.567   9.975   1.460 -0.6249  3.6021  0.3233
  828MOL0     H11765   3.446  10.182   1.345 -1.7440  0.5476 -0.9358
  828MOL0     H11766   3.280  10.424   1.224 -0.8894 -3.3102  0.0418
  828MOL0     H11767   3.254  10.642   1.099 -0.9403  0.5777 -0.7124
  828MOL0     H11768   3.171  10.809   1.064  0.5291 -3.1031  0.1794
  828MOL0     H11769   3.003  10.811   1.132  0.3523 -3.4992 -0.0059
  828MOL0     H11770   3.079  10.940   0.863  0.2165 -0.3736  0.6580
  828MOL0     H11771   3.126  11.013   1.014  2.4825 -1.5713 -0.4972
  828MOL0     H11772   2.912  11.113   0.951 -2.5769  1.4365  2.7345
  828MOL0     H11773   2.906  11.034   1.109 -1.5123  4.4079 -0.5239
  828MOL0     H11774   2.827  10.878   0.852 -0.4608 -1.9972  0.4998
  828MOL0     H11775   2.764  10.858   1.012  3.3526 -0.4427  2.1759
  828MOL0     H11776   2.536  11.168   0.814  0.6071 -0.1527  0.6958
  828MOL0     H11777   2.898  10.489   0.928 -1.5103 -2.1300 -0.1757
  828MOL0     H11778   2.879  10.186   1.121  0.7925  2.3081  2.2518
  828MOL0     H11779   2.789  10.295   1.039  0.5846 -0.5142 -0.3513
  828MOL0     H11780   2.903  10.199   0.937 -0.1847  1.9816 -1.7689
  829MOL0     O11781   6.177   6.473   6.120  0.2997  0.6761 -0.4916
  829MOL0     C11782   6.098   6.472   6.212  0.0069 -0.3702  0.4084
  829MOL0     O11783   5.998   6.559   6.234  0.5841 -0.1912  0.5926
  829MOL0     C11784   5.956   6.659   6.145 -0.4029 -0.9937 -0.5201
  829MOL0     C11785   5.983   6.680   6.008 -0.0230  0.9250 -0.5034
  829MOL0     C11786   5.920   6.785   5.935 -0.0231  0.4795  0.2608
  829MOL0     C11787   5.828   6.867   6.011 -1.3687 -0.6947  0.6237
  829MOL0     O11788   5.749   6.964   5.947 -0.0729  0.1705 -0.4069
  829MOL0     C11789   5.788   7.046   5.836  0.4675 -0.2210 -1.0627
  829MOL0     C11790   5.746   6.988   5.705  0.8115 -0.4961  0.0168
  829MOL0     C11791   5.776   7.085   5.586 -0.0094  0.4012 -0.0335
  829MOL0     C11792   5.674   7.185   5.553  0.0331 -0.3537 -0.6245
  829MOL0     C11793   5.737   7.306   5.485 -0.0726  0.3264  1.1357
  829MOL0     C11794   5.641   7.412   5.426 -0.6790 -0.3621 -0.8222
  829MOL0     C11795   5.506   7.424   5.504 -0.0924  0.4705 -0.6962
  829MOL0     C11796   5.418   7.541   5.457 -0.4467 -0.4872 -0.4002
  829MOL0     N11797   5.412   7.544   5.310 -0.2371  0.0764  0.6011
  829MOL0     C11798   5.343   7.457   5.235  0.3001  0.0016  0.8635
  829MOL0     C11799   5.383   7.477   5.108 -0.4302 -0.1677 -0.6185
  829MOL0     C11800   5.328   7.429   4.977 -0.0665  0.1068  0.0844
  829MOL0     C11801   5.431   7.359   4.895 -0.3186 -0.0172  0.5444
  829MOL0     C11802   5.377   7.336   4.755  0.1346  1.0116 -0.7979
  829MOL0     C11803   5.503   7.289   4.670  0.5124  0.3775  0.5030
  829MOL0     O11804   5.526   7.156   4.708  0.0736 -0.0693  0.0634
  829MOL0     C11805   5.625   7.094   4.636  0.3862  0.3993  0.5051
  829MOL0     C11806   5.703   7.149   4.532 -0.0004 -0.0579  0.1358
  829MOL0     C11807   5.806   7.086   4.471  0.2547 -0.0164  1.1433
  829MOL0     C11808   5.839   6.958   4.511  0.2714  0.1872  1.0899
  829MOL0     C11809   5.950   6.888   4.447 -0.1473 -0.3724  0.0591
  829MOL0     O11810   5.999   6.940   4.332  0.4515 -0.2826 -0.2513
  829MOL0     C11811   6.118   6.893   4.291  1.4567 -0.0502 -0.8305
  829MOL0     C11812   6.233   6.931   4.359  0.2795  0.5320  0.9019
  829MOL0     C11813   6.352   6.889   4.305 -0.5146  0.0932 -0.7462
  829MOL0     C11814   6.359   6.810   4.190 -0.5311  0.5969  0.2444
  829MOL0     O11815   6.479   6.756   4.137 -0.5951  0.5144 -0.2553
  829MOL0     C11816   6.562   6.695   4.242 -0.1361  0.0122  0.4417
  829MOL0     C11817   6.691   6.651   4.177 -0.4531  0.7901  0.6198
  829MOL0     C11818   6.769   6.545   4.258  0.0994 -0.2646 -0.2080
  829MOL0     C11819   6.909   6.510   4.202 -0.4789 -0.0494  1.1944
  829MOL0     C11820   6.901   6.458   4.058  0.6440 -0.2013  0.3228
  829MOL0     C11821   7.036   6.393   4.026 -0.0149 -0.4027 -0.3653
  829MOL0     C11822   7.039   6.333   3.889 -0.9557 -0.5391  0.0822
  829MOL0     C11823   6.930   6.231   3.856 -0.5043 -0.7245  0.1849
  829MOL0    Cl11824   7.005   6.137   3.728  0.2878 -0.0053 -0.6179
  829MOL0     C11825   6.243   6.772   4.131 -0.2340  0.1767  0.8661
  829MOL0     C11826   6.115   6.815   4.178 -0.0023 -0.5500 -0.3095
  829MOL0     O11827   5.989   6.787   4.496  0.4229  0.1043 -0.5194
  829MOL0     C11828   5.766   6.900   4.620 -0.1319 -0.3136 -0.5512
  829MOL0     C11829   5.655   6.964   4.671  0.8811  0.9531 -0.3017
  829MOL0     N11830   5.479   7.579   5.109  0.7198  0.1477 -0.8691
  829MOL0     N11831   5.499   7.621   5.233  0.2862  0.8532  0.6727
  829MOL0     C11832   5.817   6.850   6.148 -0.8811  0.4802 -0.0504
  829MOL0     C11833   5.878   6.745   6.216  0.6136  0.6312  0.4463
  829MOL0     C11834   6.110   6.351   6.292  0.6609 -0.7635 -0.4450
  829MOL0     C11835   6.017   6.343   6.402 -0.3066  0.1356  0.7107
  829MOL0     C11836   6.027   6.244   6.501 -0.6034 -0.2332 -0.3574
  829MOL0     C11837   6.109   6.139   6.474 -1.6647 -0.2414 -0.3146
  829MOL0     O11838   6.122   6.030   6.544 -0.0839  0.7868  0.6002
  829MOL0     C11839   6.035   6.005   6.650  0.1723  0.6752 -0.2138
  829MOL0     C11840   5.890   5.982   6.616 -0.2210 -0.5309  0.3769
  829MOL0     C11841   5.803   5.942   6.735  0.6173  0.7229 -0.0970
  829MOL0     C11842   5.670   5.888   6.674 -0.7571 -0.0968  0.0844
  829MOL0     C11843   5.592   5.819   6.779  0.5394 -0.3238  0.7262
  829MOL0     C11844   5.535   5.750   6.865 -0.5030  0.2519 -1.0681
  829MOL0     C11845   6.209   6.145   6.374  0.2524 -0.9449 -0.1512
  829MOL0     C11846   6.208   6.256   6.284  0.4397  0.6183 -0.7106
  829MOL0     C11847   6.332   6.259   6.192 -0.2534  0.4541  0.7229
  829MOL0     H11848   6.052   6.606   5.970  1.3949  0.1523  3.1308
  829MOL0     H11849   5.927   6.810   5.830 -1.4565 -0.7034 -0.1519
  829MOL0     H11850   5.727   7.136   5.842 -2.0522 -1.8541 -0.9007
  829MOL0     H11851   5.897   7.061   5.836  0.6372 -0.7166  2.3633
  829MOL0     H11852   5.640   6.966   5.713  0.6025 -0.3783 -1.9921
  829MOL0     H11853   5.806   6.899   5.683  2.3557  0.7262 -0.9621
  829MOL0     H11854   5.778   7.029   5.492 -5.3255 -2.4959  1.1517
  829MOL0     H11855   5.873   7.134   5.597 -0.2141  0.6065  0.9251
  829MOL0     H11856   5.592   7.151   5.490  0.8004  1.2276 -2.5791
  829MOL0     H11857   5.632   7.228   5.645  3.9225  1.6952  0.4205
  829MOL0     H11858   5.804   7.353   5.558  0.8534 -2.3922  2.1618
  829MOL0     H11859   5.808   7.266   5.412  0.8688 -0.8568  2.6152
  829MOL0     H11860   5.702   7.502   5.424  0.3103 -0.9106  1.6053
  829MOL0     H11861   5.618   7.378   5.324 -1.4492  0.4720 -0.9405
  829MOL0     H11862   5.538   7.434   5.608 -1.1898  1.2581 -0.4292
  829MOL0     H11863   5.452   7.331   5.485  0.6494 -0.4196  1.2601
  829MOL0     H11864   5.319   7.527   5.503 -0.6763  0.5832 -0.5394
  829MOL0     H11865   5.459   7.635   5.495  0.0051  0.1033 -2.2527
  829MOL0     H11866   5.261   7.391   5.264 -1.4236  2.2030  1.3279
  829MOL0     H11867   5.257   7.351   5.007 -0.0076 -0.0653 -0.2286
  829MOL0     H11868   5.276   7.509   4.923 -1.4322  0.0230  1.2040
  829MOL0     H11869   5.522   7.420   4.894  0.2141 -0.7753  1.3468
  829MOL0     H11870   5.454   7.265   4.945 -0.5783 -0.3205  0.1045
  829MOL0     H11871   5.328   7.420   4.705 -2.8803 -1.1429 -1.7587
  829MOL0     H11872   5.305   7.253   4.753 -1.9777  2.6956 -3.8796
  829MOL0     H11873   5.593   7.350   4.687 -0.3526  1.1102  2.8892
  829MOL0     H11874   5.473   7.282   4.565 -0.3097 -5.5071  0.8220
  829MOL0     H11875   5.682   7.247   4.489  0.3273 -0.3618 -0.7357
  829MOL0     H11876   5.863   7.140   4.396  1.4766 -1.8483  0.6778
  829MOL0     H11877   6.246   6.994   4.446 -0.8715  1.4848  0.4120
  829MOL0     H11878   6.436   6.924   4.364  0.1778 -3.0554  0.3756
  829MOL0     H11879   6.580   6.766   4.323  1.8974 -1.0829  1.0118
  829MOL0     H11880   6.518   6.601   4.273  0.0585 -0.4739 -0.6922
  829MOL0     H11881   6.663   6.606   4.081  0.8184  1.6694 -0.1930
  829MOL0     H11882   6.735   6.741   4.133 -0.5583  1.3970  1.7304
  829MOL0     H11883   6.785   6.569   4.363  0.1284 -2.7146  0.4085
  829MOL0     H11884   6.715   6.451   4.245  2.3302 -1.6509  0.1414
  829MOL0     H11885   6.949   6.437   4.274  1.4975  1.0667  1.3181
  829MOL0     H11886   6.972   6.599   4.193 -3.7783  2.2279 -2.3851
  829MOL0     H11887   6.880   6.541   3.991  1.3495 -0.2347  0.0542
  829MOL0     H11888   6.821   6.384   4.043 -0.3029  0.8467  0.0633
  829MOL0     H11889   7.117   6.466   4.035 -1.3126  0.8305  3.9884
  829MOL0     H11890   7.045   6.307   4.092 -0.0850 -1.3229 -1.5212
  829MOL0     H11891   7.134   6.279   3.878  0.2872  1.8573 -1.9305
  829MOL0     H11892   7.036   6.412   3.813  0.1671 -1.3231 -0.8076
  829MOL0     H11893   6.904   6.171   3.944  0.1843  1.7403  2.1923
  829MOL0     H11894   6.840   6.284   3.823  0.7922  1.4567 -0.0192
  829MOL0     H11895   6.249   6.711   4.041  0.4925  1.4225  0.0563
  829MOL0     H11896   6.017   6.799   4.135  1.0481  0.6981 -3.4363
  829MOL0     H11897   5.808   6.804   4.651  1.8329 -0.3328 -2.9386
  829MOL0     H11898   5.600   6.918   4.753  3.0238 -2.2337 -0.4435
  829MOL0     H11899   5.760   6.911   6.217 -1.3100  0.0878 -0.0505
  829MOL0     H11900   5.864   6.738   6.323 -0.1644 -0.3721  0.3012
  829MOL0     H11901   5.945   6.422   6.421  1.3633  2.5150 -2.0283
  829MOL0     H11902   5.963   6.262   6.587 -1.6431  3.5334 -1.7486
  829MOL0     H11903   6.027   6.092   6.715  2.3215 -0.3563  1.5474
  829MOL0     H11904   6.072   5.924   6.712  0.3337 -0.5575 -1.8387
  829MOL0     H11905   5.889   5.897   6.547  0.5083 -0.0314 -0.2663
  829MOL0     H11906   5.852   6.070   6.564  1.7965  0.2282  0.0741
  829MOL0     H11907   5.788   6.021   6.809  1.8598 -1.1650  2.3615
  829MOL0     H11908   5.848   5.854   6.783 -2.0047 -1.8183 -1.9417
  829MOL0     H11909   5.611   5.967   6.627 -0.6515  0.1686  0.3973
  829MOL0     H11910   5.696   5.808   6.603 -1.6016  0.5526 -1.0073
  829MOL0     H11911   5.499   5.689   6.946 -0.5692  3.4501  1.4932
  829MOL0     H11912   6.291   6.075   6.365 -0.1531 -1.4624  0.1240
  829MOL0     H11913   6.368   6.358   6.164  5.1161 -1.3922 -0.0867
  829MOL0     H11914   6.418   6.205   6.234  0.4966  1.0566 -0.0030
  829MOL0     H11915   6.299   6.205   6.102  2.0545  0.1656 -0.0323
  830MOL0     O11916   3.754   6.261   9.779 -0.3763 -1.1497 -0.1530
  830MOL0     C11917   3.678   6.328   9.708  0.5488  0.9961 -0.3453
  830MOL0     O11918   3.704   6.426   9.619  0.4506  1.1276  0.7967
  830MOL0     C11919   3.830   6.468   9.582 -0.6740  0.9943  0.2001
  830MOL0     C11920   3.828   6.555   9.475  0.0038 -0.2564  0.9836
  830MOL0     C11921   3.947   6.630   9.434  0.4010 -0.6347 -0.7780
  830MOL0     C11922   4.069   6.603   9.499  0.7494 -0.4841 -0.0014
  830MOL0     O11923   4.185   6.661   9.467  0.2030 -0.0902 -0.8296
  830MOL0     C11924   4.180   6.783   9.396 -0.2932  0.1353  0.4871
  830MOL0     C11925   4.318   6.843   9.383 -0.5292 -0.3532 -0.9934
  830MOL0     C11926   4.412   6.755   9.303 -0.1959  0.1760  0.6852
  830MOL0     C11927   4.542   6.837   9.265  0.1178 -0.6435 -0.2501
  830MOL0     C11928   4.637   6.781   9.168  0.2591 -0.0397 -0.1833
  830MOL0     C11929   4.638   6.622   9.177  0.3482  0.6877 -0.4450
  830MOL0     C11930   4.680   6.550   9.311  0.6438  0.1148 -0.0575
  830MOL0     C11931   4.829   6.561   9.345 -0.5417 -0.6658  0.4323
  830MOL0     N11932   4.858   6.519   9.479 -0.2034 -0.4642 -0.8129
  830MOL0     C11933   4.809   6.560   9.602 -0.0226 -1.0372 -0.9129
  830MOL0     C11934   4.887   6.502   9.692 -0.0291  0.0973 -0.6693
  830MOL0     C11935   4.871   6.509   9.839  0.2804 -0.7465 -1.3515
  830MOL0     C11936   4.802   6.380   9.888 -0.2090 -1.1329 -0.3454
  830MOL0     C11937   4.783   6.369  10.036  0.3662  0.4345 -0.4536
  830MOL0     C11938   4.901   6.308  10.104  0.2575  0.5025 -0.2813
  830MOL0     O11939   4.848   6.295  10.240  0.1183 -1.0161  0.1511
  830MOL0     C11940   4.819   6.175  10.293 -0.5030  0.6634 -0.2735
  830MOL0     C11941   4.703   6.159  10.369 -0.8110 -0.1595 -0.0451
  830MOL0     C11942   4.667   6.037  10.428  1.1912  0.0257 -0.5757
  830MOL0     C11943   4.745   5.924  10.418  0.3225 -0.0361 -0.4813
  830MOL0     C11944   4.701   5.791  10.493 -0.0078  0.2712 -0.0697
  830MOL0     O11945   4.608   5.809  10.592 -0.3720 -0.2343  0.3897
  830MOL0     C11946   4.563   5.698  10.653  0.1374  0.0511 -0.2115
  830MOL0     C11947   4.655   5.613  10.721  1.0192  0.3384 -1.1664
  830MOL0     C11948   4.599   5.503  10.797 -0.5768  0.7361  1.1943
  830MOL0     C11949   4.463   5.475  10.818 -0.3803 -0.4334 -0.4245
  830MOL0     O11950   4.407   5.379  10.900  0.1465 -0.0988 -0.5900
  830MOL0     C11951   4.493   5.291  10.970 -1.0669 -0.2599  0.7914
  830MOL0     C11952   4.423   5.193  11.062 -0.8168  0.7534  0.7660
  830MOL0     C11953   4.356   5.084  10.985  0.0292 -0.2026 -0.1959
  830MOL0     C11954   4.290   4.988  11.087 -1.2228 -0.5725  0.5070
  830MOL0     C11955   4.197   4.891  11.022  0.7747 -0.2912 -0.1213
  830MOL0     C11956   4.163   4.776  11.123 -0.1178  1.1855  0.2560
  830MOL0     C11957   4.079   4.816  11.233 -0.2087  1.0226  0.5589
  830MOL0     C11958   3.932   4.821  11.201  0.0653 -0.5205 -0.7372
  830MOL0    Cl11959   3.842   4.913  11.321 -0.1890  0.2674 -0.0707
  830MOL0     C11960   4.372   5.571  10.759 -0.0618  0.0811  0.0729
  830MOL0     C11961   4.426   5.674  10.674  0.1361 -0.8856 -1.2286
  830MOL0     O11962   4.743   5.682  10.445 -0.2306 -0.5703 -0.1563
  830MOL0     C11963   4.857   5.935  10.333 -0.7823  0.6216  0.0071
  830MOL0     C11964   4.890   6.056  10.271 -0.4830 -0.6559  0.0862
  830MOL0     N11965   4.986   6.439   9.627  0.7854 -0.5894  0.1826
  830MOL0     N11966   4.961   6.442   9.508 -0.8826  0.2653  0.6575
  830MOL0     C11967   4.072   6.512   9.597 -0.1891 -0.0908  0.1572
  830MOL0     C11968   3.959   6.453   9.642  0.7060 -0.7622 -0.7211
  830MOL0     C11969   3.532   6.296   9.730 -0.7745  0.6859 -0.0322
  830MOL0     C11970   3.442   6.355   9.644  1.5456  0.4344  0.2584
  830MOL0     C11971   3.306   6.342   9.665 -0.1549  0.7042  0.0902
  830MOL0     C11972   3.253   6.283   9.776  0.0013  0.7799  0.4676
  830MOL0     O11973   3.119   6.264   9.801  0.4309 -0.1327 -0.0366
  830MOL0     C11974   3.009   6.313   9.718 -1.1275  0.4479  0.1250
  830MOL0     C11975   2.900   6.198   9.731 -0.0452  0.4059  0.3909
  830MOL0     C11976   2.774   6.238   9.648 -0.1862  0.3188 -0.1353
  830MOL0     C11977   2.688   6.112   9.631  0.3344 -0.0942 -0.5509
  830MOL0     C11978   2.756   6.000   9.573 -0.0260 -0.2294 -1.1439
  830MOL0     C11979   2.820   5.918   9.506  0.3366 -0.0584 -0.0947
  830MOL0     C11980   3.347   6.217   9.862  0.6910  0.3939 -1.1811
  830MOL0     C11981   3.485   6.218   9.839 -0.0154 -0.0039  0.1951
  830MOL0     C11982   3.558   6.135   9.943  0.2889  0.6376  0.1685
  830MOL0     H11983   3.733   6.578   9.428  0.1752 -2.8741 -0.8852
  830MOL0     H11984   3.939   6.704   9.355  0.1656  0.5445  0.3252
  830MOL0     H11985   4.142   6.765   9.295 -1.0386 -1.4570  1.0173
  830MOL0     H11986   4.126   6.860   9.451 -0.8734 -0.3493  0.6033
  830MOL0     H11987   4.345   6.875   9.484 -1.5684  0.8328 -1.0751
  830MOL0     H11988   4.306   6.932   9.321  2.3164  1.8256  1.3045
  830MOL0     H11989   4.364   6.730   9.208  1.2566  2.0600 -0.6036
  830MOL0     H11990   4.426   6.659   9.355 -1.8040 -0.6166 -0.2433
  830MOL0     H11991   4.525   6.935   9.220  2.4262 -0.3657 -0.6293
  830MOL0     H11992   4.585   6.863   9.362 -3.8121  1.5767  1.1139
  830MOL0     H11993   4.610   6.812   9.066  0.6396  1.4235  0.1444
  830MOL0     H11994   4.737   6.816   9.193  0.0532 -0.0109  0.6145
  830MOL0     H11995   4.536   6.591   9.154  0.0662  1.9875 -1.0350
  830MOL0     H11996   4.712   6.585   9.105  0.1108 -0.7736  0.0352
  830MOL0     H11997   4.670   6.441   9.315  2.0747 -0.0402 -0.3502
  830MOL0     H11998   4.619   6.579   9.397  0.4238 -0.9965  0.1696
  830MOL0     H11999   4.883   6.506   9.268  0.5351  3.2338 -1.8503
  830MOL0     H12000   4.865   6.662   9.325 -1.7541 -0.3319 -0.1558
  830MOL0     H12001   4.719   6.619   9.616  0.4616 -0.4043 -0.3848
  830MOL0     H12002   4.970   6.507   9.886  0.5970  1.4642 -1.7856
  830MOL0     H12003   4.827   6.605   9.868  4.3673  1.1458 -0.7996
  830MOL0     H12004   4.702   6.370   9.843 -1.6910 -0.5955  2.5842
  830MOL0     H12005   4.858   6.292   9.857 -1.8788 -1.8068 -1.6219
  830MOL0     H12006   4.701   6.300  10.059 -0.7721  2.2143  1.1334
  830MOL0     H12007   4.767   6.468  10.081  0.8836  0.6576 -0.7528
  830MOL0     H12008   4.990   6.372  10.111  0.4180  0.1172  3.0619
  830MOL0     H12009   4.936   6.216  10.055  0.4589  0.0105  0.7456
  830MOL0     H12010   4.638   6.243  10.392 -1.9075 -1.4417  1.8073
  830MOL0     H12011   4.572   6.032  10.479  0.7669 -2.7955 -1.4682
  830MOL0     H12012   4.761   5.621  10.699  1.3396  4.7914  1.0201
  830MOL0     H12013   4.675   5.429  10.823 -0.4758 -1.0663 -3.2859
  830MOL0     H12014   4.540   5.240  10.886 -0.3031  0.2464  0.9098
  830MOL0     H12015   4.574   5.340  11.024  0.8871 -0.8577 -1.4282
  830MOL0     H12016   4.506   5.155  11.122  0.2941 -0.1582 -1.2384
  830MOL0     H12017   4.357   5.252  11.127  0.9361  3.2990  0.3921
  830MOL0     H12018   4.282   5.129  10.917  0.3533  1.4400  0.4972
  830MOL0     H12019   4.425   5.027  10.921  1.1455 -1.1457  1.7652
  830MOL0     H12020   4.229   5.053  11.150  1.7263  3.8038 -0.6479
  830MOL0     H12021   4.370   4.933  11.137  1.5349  2.3443 -0.3456
  830MOL0     H12022   4.238   4.853  10.928 -0.9893 -1.9286 -0.2741
  830MOL0     H12023   4.108   4.953  11.008  0.9308 -0.0119  0.1105
  830MOL0     H12024   4.102   4.699  11.075  0.5283 -1.6873  3.5925
  830MOL0     H12025   4.252   4.731  11.167 -1.1894 -0.5508  0.7390
  830MOL0     H12026   4.109   4.912  11.277 -1.2143  2.8099 -2.4064
  830MOL0     H12027   4.088   4.745  11.315  2.2747  1.6836  0.9469
  830MOL0     H12028   3.923   4.863  11.100 -0.7882  0.0412 -0.4446
  830MOL0     H12029   3.878   4.727  11.189  1.4604 -1.6473  1.3658
  830MOL0     H12030   4.266   5.576  10.780  0.3849 -1.1718  3.2386
  830MOL0     H12031   4.353   5.750  10.647 -1.0120  0.9378  5.2219
  830MOL0     H12032   4.914   5.849  10.300  1.4489  0.2527  4.1913
  830MOL0     H12033   4.973   6.048  10.201  0.0328 -1.9801  0.8108
  830MOL0     H12034   4.162   6.489   9.654 -0.7140 -0.5280  0.8345
  830MOL0     H12035   3.967   6.385   9.726  1.8962 -2.1427 -1.8919
  830MOL0     H12036   3.473   6.412   9.556 -1.3099 -1.8890 -2.4766
  830MOL0     H12037   3.238   6.400   9.604  2.2406  1.9660 -1.5503
  830MOL0     H12038   3.048   6.322   9.616 -1.6019  2.0604  0.0580
  830MOL0     H12039   2.985   6.415   9.749 -1.7068  0.1632  0.6322
  830MOL0     H12040   2.866   6.186   9.834 -1.6707  0.7125 -0.0918
  830MOL0     H12041   2.948   6.102   9.708 -1.1903 -0.3243  0.9659
  830MOL0     H12042   2.819   6.264   9.551  0.6470 -1.6788 -0.3235
  830MOL0     H12043   2.725   6.331   9.679 -0.0760  0.1739  0.4957
  830MOL0     H12044   2.644   6.083   9.727  0.4988 -1.6897 -0.9403
  830MOL0     H12045   2.602   6.130   9.566 -1.9373 -6.0326  0.2045
  830MOL0     H12046   2.882   5.846   9.457 -0.7079 -0.8718 -0.2772
  830MOL0     H12047   3.304   6.152   9.938  3.1004 -0.6784 -0.6032
  830MOL0     H12048   3.500   6.113  10.033  0.2709 -3.4183 -0.6318
  830MOL0     H12049   3.587   6.035   9.910  1.6303  1.8417 -2.6379
  830MOL0     H12050   3.647   6.194   9.965  1.0402  1.6138 -4.3781
  831MOL0     O12051   6.185   8.306   0.854 -0.3826  0.2872 -0.8956
  831MOL0     C12052   6.260   8.394   0.817 -0.1475  0.6846  0.0337
  831MOL0     O12053   6.326   8.479   0.895 -0.5395  0.5054 -0.0872
  831MOL0     C12054   6.331   8.469   1.031 -0.6471 -0.3863 -0.2160
  831MOL0     C12055   6.291   8.363   1.115 -0.1213  0.1313 -0.3923
  831MOL0     C12056   6.311   8.368   1.257  0.3402  0.4168 -1.2498
  831MOL0     C12057   6.356   8.486   1.321  0.1525  0.1524  0.6751
  831MOL0     O12058   6.373   8.492   1.455  0.3505  0.6801  0.0729
  831MOL0     C12059   6.274   8.574   1.518  0.0936 -0.4303  0.4504
  831MOL0     C12060   6.285   8.543   1.674 -0.3815  1.2292 -0.3467
  831MOL0     C12061   6.401   8.574   1.759 -0.5845  0.3308  0.0399
  831MOL0     C12062   6.382   8.518   1.894  0.0668 -0.7460 -0.2242
  831MOL0     C12063   6.490   8.576   1.986  0.2202  0.1902  0.2504
  831MOL0     C12064   6.464   8.566   2.142  0.2900  0.0170 -0.2817
  831MOL0     C12065   6.325   8.620   2.183  1.0481  0.2355  0.0554
  831MOL0     C12066   6.300   8.648   2.331 -0.6213 -0.3217 -0.0530
  831MOL0     N12067   6.360   8.778   2.370  0.4851  0.0595 -0.4699
  831MOL0     C12068   6.293   8.902   2.357  0.6460  0.9136 -0.3974
  831MOL0     C12069   6.375   8.987   2.423  0.3427  0.3221 -0.4509
  831MOL0     C12070   6.353   9.128   2.460 -0.1420 -0.4523  0.4722
  831MOL0     C12071   6.355   9.137   2.614  0.2626  0.2237  0.1557
  831MOL0     C12072   6.269   9.252   2.647 -0.5065  0.2559 -0.0377
  831MOL0     C12073   6.323   9.397   2.597 -0.2205  0.7177  0.0417
  831MOL0     O12074   6.205   9.488   2.600  0.3220  0.3690  0.4473
  831MOL0     C12075   6.181   9.579   2.699 -0.6149 -0.7581 -0.6461
  831MOL0     C12076   6.125   9.550   2.829  0.2520 -0.7681  0.9370
  831MOL0     C12077   6.097   9.650   2.923 -0.6904 -0.0351  0.6391
  831MOL0     C12078   6.103   9.784   2.875  0.8604  0.7140 -0.5437
  831MOL0     C12079   6.034   9.884   2.959 -0.8743 -0.1327 -0.4731
  831MOL0     O12080   5.963   9.846   3.065  0.7260 -0.2533 -0.5153
  831MOL0     C12081   5.943   9.942   3.159 -1.1651 -0.7157  0.3702
  831MOL0     C12082   5.814   9.988   3.198 -0.0883  0.2982  0.0501
  831MOL0     C12083   5.800  10.092   3.292  0.0133 -0.4855  0.1097
  831MOL0     C12084   5.906  10.134   3.366 -0.0297 -0.6194  0.5884
  831MOL0     O12085   5.878  10.239   3.449  0.2541  0.1873  0.5194
  831MOL0     C12086   5.963  10.277   3.559 -0.8300 -1.3973  0.2328
  831MOL0     C12087   5.966  10.426   3.585  1.0590  0.4088 -0.1156
  831MOL0     C12088   6.078  10.500   3.516 -0.3421 -0.6572  0.0267
  831MOL0     C12089   6.073  10.651   3.531  0.1003 -0.5464 -0.3292
  831MOL0     C12090   6.185  10.739   3.472  0.2952  0.4274  0.4147
  831MOL0     C12091   6.160  10.889   3.492  0.0176 -0.3088 -0.5847
  831MOL0     C12092   6.283  10.964   3.471 -0.1822 -0.0044  0.2714
  831MOL0     C12093   6.291  11.114   3.520 -0.3009  0.7129 -0.4641
  831MOL0    Cl12094   6.278  11.126   3.699 -0.1934 -0.4105 -0.0935
  831MOL0     C12095   6.034  10.090   3.337 -0.4536 -0.2803  0.6035
  831MOL0     C12096   6.057   9.993   3.232 -0.1149 -0.4699 -0.2305
  831MOL0     O12097   6.046   9.999   2.913  0.0392  0.3145 -0.3556
  831MOL0     C12098   6.169   9.815   2.756  0.0894  0.1439 -0.4553
  831MOL0     C12099   6.212   9.714   2.666  0.9197  0.0198 -0.3438
  831MOL0     N12100   6.485   8.917   2.475  0.1030 -0.0078 -0.2418
  831MOL0     N12101   6.475   8.794   2.442 -0.1329  0.6698 -0.6247
  831MOL0     C12102   6.383   8.594   1.233 -0.4479 -0.2848  1.4129
  831MOL0     C12103   6.374   8.587   1.090 -0.0828  0.5757 -0.3513
  831MOL0     C12104   6.286   8.390   0.674  0.3818  0.3488  0.2112
  831MOL0     C12105   6.187   8.335   0.582 -0.3707 -0.1030 -0.1953
  831MOL0     C12106   6.204   8.349   0.443 -0.4812 -0.2160  0.1700
  831MOL0     C12107   6.310   8.427   0.393  1.1100  0.1047 -0.6339
  831MOL0     O12108   6.331   8.470   0.269 -0.3794  0.5136 -0.3173
  831MOL0     C12109   6.217   8.466   0.173 -0.1706  0.4405 -0.6763
  831MOL0     C12110   6.218   8.567   0.055  0.2642 -0.0001  0.2437
  831MOL0     C12111   6.354   8.600  -0.009  0.8889 -0.6040  0.4285
  831MOL0     C12112   6.419   8.473  -0.076  0.5487 -0.4848 -1.1289
  831MOL0     C12113   6.333   8.412  -0.184  0.7834 -0.5690 -0.2104
  831MOL0     C12114   6.242   8.373  -0.257 -0.5359  0.2727 -0.7271
  831MOL0     C12115   6.414   8.458   0.480  0.2974  0.9375 -0.1293
  831MOL0     C12116   6.408   8.439   0.620  0.4155 -0.0535  0.0694
  831MOL0     C12117   6.526   8.486   0.701 -0.4634  1.3308 -0.1359
  831MOL0     H12118   6.257   8.270   1.072  1.2571 -0.4014 -0.3769
  831MOL0     H12119   6.282   8.291   1.328  1.7445  2.4920  1.7948
  831MOL0     H12120   6.284   8.677   1.485  0.8898 -1.2728 -2.1832
  831MOL0     H12121   6.174   8.543   1.486  0.1001  1.5625 -1.7006
  831MOL0     H12122   6.258   8.438   1.684  0.1602  1.1878  0.8720
  831MOL0     H12123   6.204   8.595   1.726 -0.7519  0.2150  0.0989
  831MOL0     H12124   6.418   8.682   1.767  3.9987 -0.1701 -0.3410
  831MOL0     H12125   6.499   8.542   1.721 -1.4321  0.2474 -2.1862
  831MOL0     H12126   6.282   8.537   1.933 -0.4877 -2.3018 -0.7929
  831MOL0     H12127   6.406   8.411   1.907  1.3777 -0.2796  1.7213
  831MOL0     H12128   6.592   8.539   1.968  1.1063  2.0797  1.0439
  831MOL0     H12129   6.483   8.684   1.967  0.8692 -0.3949 -4.2642
  831MOL0     H12130   6.481   8.467   2.186  0.9815  0.6646  0.9392
  831MOL0     H12131   6.537   8.636   2.182 -2.6180  2.3820  1.2447
  831MOL0     H12132   6.253   8.540   2.168  0.0969  0.8459  1.1715
  831MOL0     H12133   6.293   8.710   2.130  2.1282  0.3750 -0.3889
  831MOL0     H12134   6.198   8.649   2.370  0.8329 -1.7003  4.4398
  831MOL0     H12135   6.352   8.571   2.389  0.4314  1.3809  1.3667
  831MOL0     H12136   6.192   8.904   2.319  0.7130 -3.4894 -1.3121
  831MOL0     H12137   6.435   9.193   2.427 -2.6768  2.8461  0.2147
  831MOL0     H12138   6.265   9.171   2.412 -0.8081 -0.4701  1.6555
  831MOL0     H12139   6.313   9.045   2.655 -1.2131  0.5414 -0.5642
  831MOL0     H12140   6.458   9.138   2.650  0.4392 -0.3743 -0.2934
  831MOL0     H12141   6.281   9.259   2.755  2.8598 -0.9554 -0.2179
  831MOL0     H12142   6.162   9.243   2.631 -0.7482  2.0783  0.3642
  831MOL0     H12143   6.364   9.391   2.496  0.7525 -0.6410  0.4753
  831MOL0     H12144   6.406   9.422   2.664  1.0043 -1.2429 -0.6617
  831MOL0     H12145   6.092   9.449   2.852 -3.8361  0.6827  2.2881
  831MOL0     H12146   6.058   9.629   3.022 -3.7860  0.2703 -0.3937
  831MOL0     H12147   5.727   9.949   3.146 -1.0188 -0.1113  1.8510
  831MOL0     H12148   5.709  10.149   3.308  0.1313 -0.2439 -0.0774
  831MOL0     H12149   5.934  10.230   3.653 -1.5209 -0.1452  0.6644
  831MOL0     H12150   6.067  10.257   3.534  1.0560  0.8977  5.0015
  831MOL0     H12151   5.870  10.467   3.553  0.6317 -0.7579 -0.3777
  831MOL0     H12152   5.976  10.446   3.692  1.4047 -1.4536  0.2322
  831MOL0     H12153   6.174  10.462   3.553  0.2505 -0.8182 -1.5665
  831MOL0     H12154   6.070  10.463   3.413 -2.5116  0.2911 -0.1961
  831MOL0     H12155   6.057  10.667   3.639 -1.2020 -0.4213 -0.5202
  831MOL0     H12156   5.983  10.690   3.483 -1.8115  0.3810  3.5439
  831MOL0     H12157   6.211  10.715   3.368 -0.6305 -0.3654  0.3434
  831MOL0     H12158   6.273  10.717   3.533  0.1588  1.2149  0.9076
  831MOL0     H12159   6.078  10.920   3.427 -1.7576  0.4456  1.8352
  831MOL0     H12160   6.132  10.905   3.597  1.3636  1.8479 -0.4760
  831MOL0     H12161   6.307  10.954   3.365 -0.2535 -2.1993  0.4166
  831MOL0     H12162   6.360  10.911   3.527  0.1390 -1.2838 -1.2826
  831MOL0     H12163   6.388  11.150   3.483  1.1381 -2.4857 -0.1635
  831MOL0     H12164   6.213  11.180   3.479  1.3347  2.0711 -1.5716
  831MOL0     H12165   6.124  10.122   3.389  0.9631  1.5350 -2.6719
  831MOL0     H12166   6.156   9.956   3.210 -0.6501 -1.0271 -1.7747
  831MOL0     H12167   6.160   9.911   2.706 -3.7622 -1.2995 -3.0179
  831MOL0     H12168   6.257   9.746   2.573  0.4452  0.2147 -0.5132
  831MOL0     H12169   6.425   8.689   1.265  0.1543 -0.5793  1.5274
  831MOL0     H12170   6.415   8.663   1.024 -0.1355  1.5053  0.6545
  831MOL0     H12171   6.110   8.268   0.621  0.8597  0.5605  3.7370
  831MOL0     H12172   6.139   8.307   0.367  0.3912  3.3023 -2.8449
  831MOL0     H12173   6.122   8.489   0.222  0.5412  1.4559  0.2563
  831MOL0     H12174   6.199   8.367   0.130 -0.4676  0.5504 -0.8102
  831MOL0     H12175   6.190   8.657   0.111  1.7386 -0.4507  1.7602
  831MOL0     H12176   6.138   8.549  -0.017 -0.8413  1.6372  0.9892
  831MOL0     H12177   6.422   8.644   0.065  0.7807 -0.6233  0.5418
  831MOL0     H12178   6.336   8.676  -0.085 -1.0153  0.4227  1.8314
  831MOL0     H12179   6.524   8.484  -0.105  1.7090 -3.4724  1.2840
  831MOL0     H12180   6.433   8.404   0.009 -0.0833  0.6622 -0.0517
  831MOL0     H12181   6.166   8.337  -0.324  1.2975 -1.6814 -1.8862
  831MOL0     H12182   6.504   8.494   0.431  1.3637  0.7402  1.5954
  831MOL0     H12183   6.621   8.478   0.648 -0.6903  1.3736 -0.5626
  831MOL0     H12184   6.523   8.589   0.739 -1.2989  2.1601 -2.2421
  831MOL0     H12185   6.542   8.408   0.776  6.6739  1.1714 -1.1518
  832MOL0     O12186   9.740   4.942   1.709 -0.1730  0.4091 -0.1016
  832MOL0     C12187   9.809   4.836   1.702 -0.9513 -0.0464  0.2776
  832MOL0     O12188   9.790   4.742   1.598 -0.5586 -0.0321 -0.1851
  832MOL0     C12189   9.699   4.743   1.498 -1.1748 -0.1750  0.5699
  832MOL0     C12190   9.716   4.840   1.393 -1.0472  0.5865  0.7199
  832MOL0     C12191   9.639   4.826   1.270  0.5492 -0.5251  0.3123
  832MOL0     C12192   9.535   4.732   1.260  0.2101 -0.9610 -0.1862
  832MOL0     O12193   9.463   4.731   1.144 -0.2028  0.4388  0.7614
  832MOL0     C12194   9.538   4.713   1.020  0.0890 -0.0744  0.2749
  832MOL0     C12195   9.430   4.668   0.921  0.7584  0.3160 -1.1783
  832MOL0     C12196   9.321   4.783   0.901 -0.3083 -0.5203 -0.5486
  832MOL0     C12197   9.262   4.755   0.764  0.1618  0.1646  0.2144
  832MOL0     C12198   9.178   4.872   0.717  0.3781 -1.0505  0.3046
  832MOL0     C12199   9.154   4.864   0.558 -0.7810  0.0857  0.4791
  832MOL0     C12200   9.077   4.979   0.510  1.2535  0.4864  0.0907
  832MOL0     C12201   9.039   4.962   0.367 -0.2716 -0.0155  0.2016
  832MOL0     N12202   8.929   5.046   0.316  0.0091  0.2429  0.1597
  832MOL0     C12203   8.950   5.163   0.250 -0.1896 -0.7351  0.5193
  832MOL0     C12204   8.829   5.213   0.233  0.4813 -0.3286  1.4378
  832MOL0     C12205   8.809   5.355   0.166  0.0901  0.4990 -0.4848
  832MOL0     C12206   8.885   5.368   0.032  0.5292 -0.2092 -0.3245
  832MOL0     C12207   8.859   5.488  -0.054  0.2229  0.3843 -0.1363
  832MOL0     C12208   8.920   5.616   0.010 -0.4097  0.1876  0.5622
  832MOL0     O12209   8.892   5.733  -0.069  0.0063  0.0865  0.9180
  832MOL0     C12210   8.825   5.835  -0.006 -0.3959 -0.0129 -0.5648
  832MOL0     C12211   8.748   5.830   0.116 -0.4937 -0.5110 -0.2346
  832MOL0     C12212   8.685   5.936   0.171  0.8098  0.3575  0.4129
  832MOL0     C12213   8.667   6.057   0.103 -0.0741  0.5511 -0.9277
  832MOL0     C12214   8.616   6.172   0.178  0.4694 -0.3929  0.5472
  832MOL0     O12215   8.546   6.264   0.117  0.5132 -0.2888  0.1629
  832MOL0     C12216   8.497   6.385   0.165 -1.0209  0.1575  0.2329
  832MOL0     C12217   8.449   6.464   0.064 -0.1919 -0.3748 -0.4049
  832MOL0     C12218   8.397   6.589   0.085  0.2709  0.1308 -0.7388
  832MOL0     C12219   8.363   6.635   0.221 -0.7773  0.0546 -0.5912
  832MOL0     O12220   8.300   6.747   0.260  0.2149  0.1220 -0.3795
  832MOL0     C12221   8.235   6.836   0.178 -0.1308  0.2063 -0.5514
  832MOL0     C12222   8.138   6.926   0.254 -0.6945 -0.6919 -0.2210
  832MOL0     C12223   8.199   7.046   0.316 -0.2039 -0.9017 -0.7237
  832MOL0     C12224   8.100   7.126   0.403 -0.4905  0.2274  1.0903
  832MOL0     C12225   8.174   7.197   0.521 -0.7499 -0.4839 -0.5717
  832MOL0     C12226   8.080   7.296   0.589  0.4696  1.0050  1.3858
  832MOL0     C12227   8.147   7.375   0.701  0.6699  0.7569 -0.4277
  832MOL0     C12228   8.092   7.515   0.714  0.3256 -0.0649  0.0046
  832MOL0    Cl12229   8.150   7.600   0.566 -0.0533 -0.5076 -0.1329
  832MOL0     C12230   8.411   6.555   0.314 -0.9155 -0.6794 -0.1817
  832MOL0     C12231   8.486   6.434   0.293 -1.1398 -0.2803 -0.0373
  832MOL0     O12232   8.631   6.176   0.298 -0.3715 -0.2463 -0.1554
  832MOL0     C12233   8.735   6.070  -0.022  0.3740  0.4071  0.3431
  832MOL0     C12234   8.815   5.961  -0.073 -0.1474  0.8050 -1.1489
  832MOL0     N12235   8.738   5.131   0.297 -0.7174 -0.2309 -0.7569
  832MOL0     N12236   8.800   5.030   0.340 -0.7022 -0.5718 -1.1768
  832MOL0     C12237   9.508   4.649   1.369 -0.3677  0.1473 -0.0820
  832MOL0     C12238   9.592   4.655   1.485  0.0432 -0.3241 -0.4102
  832MOL0     C12239   9.905   4.807   1.803  0.1192  0.5921 -0.1733
  832MOL0     C12240   9.978   4.686   1.794  0.4681 -0.6249  0.6231
  832MOL0     C12241  10.078   4.653   1.876  0.1202  0.1872 -0.5899
  832MOL0     C12242  10.128   4.743   1.965  0.8850 -0.3581  0.0823
  832MOL0     O12243  10.214   4.683   2.052 -0.8556  0.1808 -0.4968
  832MOL0     C12244  10.289   4.780   2.134  0.5367  0.7785 -1.0385
  832MOL0     C12245  10.394   4.724   2.227 -1.1462 -0.0075  0.4071
  832MOL0     C12246  10.475   4.833   2.299 -0.1797 -0.4118 -0.2165
  832MOL0     C12247  10.573   4.774   2.403  0.6317  0.2562  0.0867
  832MOL0     C12248  10.699   4.853   2.407  0.6236  0.1979  0.7772
  832MOL0     C12249  10.794   4.925   2.410 -0.6998 -0.4029  1.0090
  832MOL0     C12250  10.066   4.871   1.982  0.4420 -0.6494 -0.0072
  832MOL0     C12251   9.955   4.906   1.895  0.2184 -0.3628 -0.2947
  832MOL0     C12252   9.898   5.041   1.925  0.3675 -0.0514  0.2066
  832MOL0     H12253   9.790   4.918   1.401  1.5631 -1.1217 -3.4237
  832MOL0     H12254   9.659   4.898   1.191 -1.1459  2.2639  2.2297
  832MOL0     H12255   9.581   4.812   1.001  0.2448  0.3291  2.4642
  832MOL0     H12256   9.616   4.637   1.029  0.4418  0.2159 -0.3132
  832MOL0     H12257   9.382   4.586   0.975  1.9176  0.1384 -0.3943
  832MOL0     H12258   9.477   4.628   0.830  0.8980  1.9614 -1.8582
  832MOL0     H12259   9.374   4.878   0.900 -1.2037 -0.0193 -0.9052
  832MOL0     H12260   9.243   4.780   0.978  1.1491 -2.6817  0.9893
  832MOL0     H12261   9.344   4.732   0.695  0.2791 -0.8578  0.6724
  832MOL0     H12262   9.194   4.669   0.764 -2.0158  1.6868 -3.0205
  832MOL0     H12263   9.080   4.885   0.764  0.7757  2.2143  0.4983
  832MOL0     H12264   9.230   4.967   0.730  0.6135 -0.5326 -3.3315
  832MOL0     H12265   9.254   4.878   0.517 -0.4862 -0.4933  0.9857
  832MOL0     H12266   9.121   4.766   0.522  2.3563 -0.4872 -1.2001
  832MOL0     H12267   9.118   5.079   0.523 -1.1464  1.4821  0.7150
  832MOL0     H12268   8.983   4.977   0.567  0.0410 -0.8150 -1.8288
  832MOL0     H12269   9.132   4.972   0.310 -0.4721  0.4851 -0.0386
  832MOL0     H12270   9.006   4.860   0.342 -0.3499  0.2920 -1.0255
  832MOL0     H12271   9.047   5.208   0.235 -1.3354  2.9834  2.9209
  832MOL0     H12272   8.709   5.393   0.145  0.2064 -0.4704 -3.2142
  832MOL0     H12273   8.861   5.418   0.238 -0.4293 -0.5009  0.8154
  832MOL0     H12274   8.990   5.345   0.049  0.2196  0.1512  2.6488
  832MOL0     H12275   8.844   5.295  -0.038 -1.6619  0.5895  0.0416
  832MOL0     H12276   8.752   5.502  -0.072 -0.2852 -0.5331  1.8301
  832MOL0     H12277   8.915   5.472  -0.146  0.8168  0.3788  0.2164
  832MOL0     H12278   9.028   5.603  -0.005 -0.3046  1.2995  0.2919
  832MOL0     H12279   8.890   5.622   0.115 -1.2937 -0.6280  0.3722
  832MOL0     H12280   8.746   5.734   0.165  3.1099 -1.4321 -1.5918
  832MOL0     H12281   8.655   5.909   0.271 -3.4688  0.7200 -0.5906
  832MOL0     H12282   8.444   6.422  -0.035 -0.5717  2.7987 -1.8614
  832MOL0     H12283   8.386   6.656   0.000  1.5031  2.5759  0.9166
  832MOL0     H12284   8.302   6.899   0.119  2.3264  0.7266  2.4959
  832MOL0     H12285   8.161   6.779   0.121 -0.3603 -0.9151  0.8016
  832MOL0     H12286   8.060   6.955   0.183 -0.4640 -1.0995 -0.6430
  832MOL0     H12287   8.085   6.871   0.332 -0.9637  0.5074  0.4738
  832MOL0     H12288   8.283   7.013   0.379 -0.4818  2.5734  1.7678
  832MOL0     H12289   8.236   7.107   0.232 -2.6692 -0.6521 -1.7160
  832MOL0     H12290   8.025   7.051   0.430 -1.4727 -0.4003 -2.8259
  832MOL0     H12291   8.033   7.179   0.335 -1.4900 -2.0011  0.2372
  832MOL0     H12292   8.262   7.248   0.480  0.4663 -3.0852 -1.3721
  832MOL0     H12293   8.217   7.123   0.589 -2.0460 -0.0204  0.8044
  832MOL0     H12294   8.046   7.365   0.512 -2.1894 -0.7788  0.8287
  832MOL0     H12295   7.998   7.240   0.636  0.5845 -0.9422 -0.5850
  832MOL0     H12296   8.256   7.375   0.688  0.9498 -0.8145  1.5031
  832MOL0     H12297   8.136   7.322   0.796  3.2639  2.3307  0.8831
  832MOL0     H12298   7.983   7.519   0.725  0.4347  1.4801  0.7760
  832MOL0     H12299   8.143   7.555   0.802  2.1630 -1.0926 -0.5357
  832MOL0     H12300   8.409   6.584   0.419  1.1694  0.9734 -0.5277
  832MOL0     H12301   8.516   6.392   0.388  2.3430  1.5365 -0.1675
  832MOL0     H12302   8.717   6.160  -0.080 -4.1845 -0.1144  0.5340
  832MOL0     H12303   8.878   5.966  -0.161  0.6594 -1.0737 -0.7169
  832MOL0     H12304   9.413   4.597   1.358 -1.4971  2.5721 -3.1924
  832MOL0     H12305   9.572   4.585   1.566 -2.0752  1.0215  0.3044
  832MOL0     H12306   9.955   4.609   1.721  3.2772 -1.3078  0.3414
  832MOL0     H12307  10.130   4.558   1.875  0.0035 -0.0045  2.2950
  832MOL0     H12308  10.221   4.842   2.193 -0.0985 -0.4106 -0.4829
  832MOL0     H12309  10.353   4.843   2.072  3.8947  0.1070  1.4821
  832MOL0     H12310  10.464   4.661   2.171  0.5399 -2.7372  4.9897
  832MOL0     H12311  10.366   4.652   2.304  3.9221 -1.1991  1.5172
  832MOL0     H12312  10.406   4.897   2.354  2.7611  2.2968  0.6365
  832MOL0     H12313  10.524   4.897   2.225  0.0618  1.2043  1.2682
  832MOL0     H12314  10.525   4.777   2.501 -1.5375  1.1181 -0.9474
  832MOL0     H12315  10.598   4.669   2.384  0.0720 -0.8370  4.3650
  832MOL0     H12316  10.874   4.995   2.419 -0.5958 -0.4299  0.3505
  832MOL0     H12317  10.109   4.937   2.057  1.6922 -2.4105  0.8983
  832MOL0     H12318   9.789   5.043   1.912  0.1813 -1.8617  1.1431
  832MOL0     H12319   9.938   5.076   2.021  4.8300  1.8120 -2.0680
  832MOL0     H12320   9.938   5.112   1.853  2.8112 -1.1920  0.3605
  833MOL0     O12321  11.346   3.774  10.280  0.1576 -0.9992 -0.5643
  833MOL0     C12322  11.460   3.801  10.231  1.1666 -0.2933  1.1723
  833MOL0     O12323  11.566   3.711  10.226  0.5579 -0.6691 -0.0935
  833MOL0     C12324  11.580   3.609  10.322  0.0461  0.2037  0.6222
  833MOL0     C12325  11.661   3.504  10.286 -0.7181  0.6917 -0.2321
  833MOL0     C12326  11.707   3.406  10.382  0.2411  0.2387  0.4900
  833MOL0     C12327  11.671   3.407  10.504 -0.5891  0.7464  0.2199
  833MOL0     O12328  11.715   3.304  10.584  0.0282  0.5730 -0.0630
  833MOL0     C12329  11.663   3.290  10.715 -0.1519  0.0152 -0.5719
  833MOL0     C12330  11.730   3.163  10.783 -0.0418 -0.4152  0.5432
  833MOL0     C12331  11.695   3.140  10.933  0.7168 -0.1384 -0.2478
  833MOL0     C12332  11.788   3.040  11.006  0.0689  0.1913 -0.0250
  833MOL0     C12333  11.765   2.892  10.969  0.7309 -0.0227 -0.3058
  833MOL0     C12334  11.845   2.802  11.059 -0.5258 -0.0638  0.6526
  833MOL0     C12335  11.895   2.685  10.978  0.2462  0.7761 -0.3880
  833MOL0     C12336  12.000   2.609  11.073 -1.0743  0.6104  0.5567
  833MOL0     N12337  12.032   2.488  11.009  0.5504 -0.7378  0.4899
  833MOL0     C12338  12.111   2.477  10.897  0.2937  0.5089 -0.2530
  833MOL0     C12339  12.091   2.348  10.864 -0.0438 -1.1245 -0.6478
  833MOL0     C12340  12.179   2.298  10.748  0.5365 -0.8945  0.7523
  833MOL0     C12341  12.203   2.149  10.748 -0.0492  0.4905  0.5291
  833MOL0     C12342  12.302   2.107  10.635  1.1408 -0.2071  0.0370
  833MOL0     C12343  12.351   1.961  10.655  0.3641 -0.7198  0.1259
  833MOL0     O12344  12.441   1.926  10.558 -0.4167 -0.8735  0.4375
  833MOL0     C12345  12.519   1.817  10.571 -0.2360  1.1685 -0.5056
  833MOL0     C12346  12.516   1.717  10.684  0.4427  0.2445  0.4132
  833MOL0     C12347  12.597   1.602  10.684  0.5935 -0.3120 -0.0382
  833MOL0     C12348  12.696   1.587  10.588 -0.1339  0.6589  0.7934
  833MOL0     C12349  12.791   1.482  10.607  0.1578 -0.0386 -0.8469
  833MOL0     O12350  12.918   1.506  10.574 -0.8584 -0.4076 -1.0943
  833MOL0     C12351  13.013   1.407  10.557  1.9710 -0.3644  0.6226
  833MOL0     C12352  13.134   1.396  10.627 -0.1596  0.6692  0.1430
  833MOL0     C12353  13.229   1.303  10.596 -0.3904 -0.5716 -1.1614
  833MOL0     C12354  13.200   1.207  10.504  0.9701  0.2806 -0.5430
  833MOL0     O12355  13.304   1.128  10.473 -0.2368 -0.0671  0.2738
  833MOL0     C12356  13.280   0.992  10.428  1.1820 -0.4938  0.1619
  833MOL0     C12357  13.407   0.934  10.383 -0.3827  0.9293 -0.4380
  833MOL0     C12358  13.471   0.993  10.248 -0.3587 -0.2376  0.1578
  833MOL0     C12359  13.630   0.985  10.255  0.4009  1.0657  0.2712
  833MOL0     C12360  13.681   1.007  10.118 -0.0080 -0.0196  0.4207
  833MOL0     C12361  13.822   0.935  10.097 -0.0352 -0.9220  0.4637
  833MOL0     C12362  13.929   0.992  10.198  0.1350  0.1626  0.1577
  833MOL0     C12363  14.048   0.904  10.192 -0.5847 -0.1327 -0.2509
  833MOL0    Cl12364  14.178   0.984  10.288 -0.1435 -0.0339  0.2047
  833MOL0     C12365  13.076   1.214  10.428 -0.6613 -0.2932  0.8608
  833MOL0     C12366  12.985   1.309  10.460  0.8531  0.7681 -0.1639
  833MOL0     O12367  12.750   1.374  10.650 -0.2953 -0.1385  0.1202
  833MOL0     C12368  12.720   1.677  10.486  0.5881  0.0725 -0.2559
  833MOL0     C12369  12.621   1.786  10.471  0.5592 -0.5180 -0.4285
  833MOL0     N12370  11.996   2.293  10.941  0.4042 -0.3073 -0.8450
  833MOL0     N12371  11.956   2.378  11.031  0.0180 -0.0494 -0.2896
  833MOL0     C12372  11.592   3.514  10.551 -0.2808  0.2340  0.4488
  833MOL0     C12373  11.545   3.613  10.462  0.8562 -0.2113 -0.7542
  833MOL0     C12374  11.494   3.933  10.162  0.2091  0.1719 -0.1469
  833MOL0     C12375  11.572   3.929  10.051 -0.0858  0.2560  0.3802
  833MOL0     C12376  11.605   4.047   9.980  0.4899  0.5674 -1.7078
  833MOL0     C12377  11.557   4.170  10.030 -0.4602 -0.9283 -0.3811
  833MOL0     O12378  11.606   4.284   9.955  0.4072  0.6475 -1.1304
  833MOL0     C12379  11.621   4.410  10.019 -0.3143  0.7781  0.3468
  833MOL0     C12380  11.716   4.427  10.139 -0.3631 -0.5953 -0.3476
  833MOL0     C12381  11.871   4.397  10.120 -0.1762  0.1318 -0.5622
  833MOL0     C12382  11.944   4.440  10.250 -1.4932 -0.1604  0.6657
  833MOL0     C12383  11.992   4.581  10.249  0.4770  0.6725  0.8143
  833MOL0     C12384  12.037   4.683  10.283 -0.8573  0.1078  0.5186
  833MOL0     C12385  11.467   4.180  10.139  0.1471  0.1635  1.0630
  833MOL0     C12386  11.444   4.058  10.205  0.0886 -0.5166  0.4636
  833MOL0     C12387  11.346   4.059  10.325 -0.2860 -0.6470  0.0209
  833MOL0     H12388  11.701   3.499  10.185  0.6299  1.9892  0.2180
  833MOL0     H12389  11.771   3.331  10.338  0.0187 -0.3829  1.2144
  833MOL0     H12390  11.667   3.381  10.776 -0.7326  1.8576 -3.1043
  833MOL0     H12391  11.555   3.269  10.708  0.2156 -1.4975 -2.4710
  833MOL0     H12392  11.836   3.189  10.783  0.5659 -2.5267 -1.8316
  833MOL0     H12393  11.713   3.065  10.737 -0.1536 -0.0931 -0.1205
  833MOL0     H12394  11.592   3.103  10.932 -0.5933  3.1473 -1.2424
  833MOL0     H12395  11.702   3.232  10.992  2.9274 -0.3267 -0.1212
  833MOL0     H12396  11.893   3.052  10.979  0.4089 -0.6125  0.8558
  833MOL0     H12397  11.788   3.051  11.115 -0.0444 -0.4861  0.0482
  833MOL0     H12398  11.661   2.859  10.975  0.5062  0.8224  0.6178
  833MOL0     H12399  11.773   2.892  10.859  0.2423  2.7805 -0.4134
  833MOL0     H12400  11.933   2.850  11.103  0.4182 -0.9227 -0.2451
  833MOL0     H12401  11.773   2.766  11.134 -0.2923  0.8761  1.3509
  833MOL0     H12402  11.956   2.703  10.889  1.0672  0.6256  0.1355
  833MOL0     H12403  11.806   2.624  10.958 -2.9167  4.9435 -0.4053
  833MOL0     H12404  12.080   2.683  11.079 -1.9746  1.6199  0.4286
  833MOL0     H12405  11.956   2.594  11.172 -1.9891  1.6943  0.3425
  833MOL0     H12406  12.171   2.555  10.851 -1.8208  2.3540 -0.0856
  833MOL0     H12407  12.146   2.336  10.651  2.4594  2.8862  1.3886
  833MOL0     H12408  12.281   2.336  10.758  0.8010 -1.8176  1.7347
  833MOL0     H12409  12.250   2.115  10.841 -2.0223 -2.3074  0.6315
  833MOL0     H12410  12.115   2.085  10.737  1.5279 -2.0169  1.6673
  833MOL0     H12411  12.391   2.169  10.633  2.1987 -1.6812 -1.6028
  833MOL0     H12412  12.259   2.127  10.537 -0.6587  1.4900  1.0913
  833MOL0     H12413  12.261   1.899  10.659 -0.4132  0.3201 -0.7398
  833MOL0     H12414  12.389   1.952  10.757  0.0031 -2.5285  0.1239
  833MOL0     H12415  12.457   1.723  10.776  3.9775 -2.3318  3.1493
  833MOL0     H12416  12.567   1.529  10.757 -0.2198  1.7856  1.8383
  833MOL0     H12417  13.143   1.472  10.705 -2.1031  3.7694 -2.3725
  833MOL0     H12418  13.329   1.323  10.632 -0.2809 -1.3639 -1.0215
  833MOL0     H12419  13.235   0.937  10.511 -1.4951  0.7942 -0.3250
  833MOL0     H12420  13.203   0.997  10.351  1.3017 -2.6446 -0.1554
  833MOL0     H12421  13.474   0.966  10.463 -0.9582  1.2792 -0.0865
  833MOL0     H12422  13.400   0.825  10.383  0.4180  0.8735 -0.6265
  833MOL0     H12423  13.423   0.927  10.175  0.3991 -3.1921  2.1366
  833MOL0     H12424  13.446   1.098  10.233 -1.0897 -0.5520 -0.9801
  833MOL0     H12425  13.654   0.881  10.281 -2.0272  0.0517 -1.2074
  833MOL0     H12426  13.677   1.060  10.319  0.6182 -0.5596  2.1387
  833MOL0     H12427  13.686   1.110  10.081  0.6452 -0.6204 -1.2847
  833MOL0     H12428  13.613   0.962  10.045 -0.1453  0.9197 -0.0453
  833MOL0     H12429  13.802   0.828  10.102 -1.3461 -0.9362 -2.4511
  833MOL0     H12430  13.859   0.954   9.996  0.4076  1.5391  1.0234
  833MOL0     H12431  13.889   1.006  10.299 -1.4588 -1.9087 -0.1069
  833MOL0     H12432  13.966   1.085  10.156 -1.5775 -0.4251 -2.9974
  833MOL0     H12433  14.030   0.800  10.220  2.1617 -1.0820 -1.6650
  833MOL0     H12434  14.086   0.911  10.089 -2.5809 -2.2180 -1.2245
  833MOL0     H12435  13.055   1.139  10.352 -2.3580 -0.8075  1.7919
  833MOL0     H12436  12.886   1.302  10.416  0.0555 -1.0722  1.7431
  833MOL0     H12437  12.803   1.676  10.417  1.1089 -1.2509  0.3437
  833MOL0     H12438  12.623   1.859  10.390  0.5950  2.0346  1.7314
  833MOL0     H12439  11.567   3.535  10.655  2.3271  0.3676  1.1077
  833MOL0     H12440  11.498   3.701  10.504  0.0227 -0.7912 -0.4461
  833MOL0     H12441  11.609   3.834  10.015  2.7818  1.8172 -1.1796
  833MOL0     H12442  11.665   4.045   9.889 -1.3588  1.5536 -3.0342
  833MOL0     H12443  11.528   4.462  10.044  1.8721  4.3952  1.8108
  833MOL0     H12444  11.667   4.474   9.944  1.8424  0.8119  1.6151
  833MOL0     H12445  11.691   4.359  10.221  1.6476 -1.3030 -0.2704
  833MOL0     H12446  11.719   4.532  10.170 -0.9139 -0.8158  0.5030
  833MOL0     H12447  11.926   4.443  10.038  2.1858 -1.1633  0.1986
  833MOL0     H12448  11.884   4.289  10.106 -1.1001 -0.0402 -0.1398
  833MOL0     H12449  11.895   4.409  10.342 -0.2635 -0.3590  1.2795
  833MOL0     H12450  12.039   4.386  10.257 -0.3587  1.5866 -0.3584
  833MOL0     H12451  12.080   4.778  10.308 -4.6050  2.3125 -0.6580
  833MOL0     H12452  11.405   4.265  10.166 -1.2743 -1.0423  1.7158
  833MOL0     H12453  11.331   4.164  10.350  2.7265 -0.5590  1.9890
  833MOL0     H12454  11.248   4.019  10.298 -1.1579  0.8023  0.9055
  833MOL0     H12455  11.382   4.011  10.416 -2.1170  0.7765  1.5588
  834MOL0     O12456   3.024   2.132   1.669 -0.5578  0.7422 -0.0763
  834MOL0     C12457   2.942   2.191   1.722  0.1505 -0.0489 -0.9561
  834MOL0     O12458   2.831   2.135   1.785  0.0086  0.6992 -0.1663
  834MOL0     C12459   2.801   2.001   1.771  0.1433 -0.6628  0.7684
  834MOL0     C12460   2.665   1.975   1.796  0.5532  0.3379  0.5371
  834MOL0     C12461   2.605   1.844   1.784 -0.8736  0.9585  0.2919
  834MOL0     C12462   2.692   1.739   1.740  0.2373 -0.3639  0.1702
  834MOL0     O12463   2.636   1.620   1.718 -0.1481  0.3044  0.0304
  834MOL0     C12464   2.709   1.504   1.682  0.1022  0.3495  0.2123
  834MOL0     C12465   2.619   1.392   1.642  1.0662  0.8326  0.2352
  834MOL0     C12466   2.564   1.398   1.499 -0.7029  0.2232  0.1090
  834MOL0     C12467   2.544   1.532   1.434 -0.4094 -0.2665  0.0722
  834MOL0     C12468   2.470   1.528   1.302 -0.5773  0.3574 -0.5426
  834MOL0     C12469   2.563   1.485   1.190 -0.4549  0.4347  0.3301
  834MOL0     C12470   2.505   1.505   1.051  0.0197  0.2126 -0.2479
  834MOL0     C12471   2.375   1.427   1.029 -0.5061 -0.0528  0.6005
  834MOL0     N12472   2.333   1.457   0.891  0.2244 -0.2473 -0.0119
  834MOL0     C12473   2.379   1.406   0.774  0.5342  0.0900  0.7103
  834MOL0     C12474   2.276   1.422   0.688  0.2591 -0.6257 -0.3061
  834MOL0     C12475   2.284   1.401   0.537 -0.5242  0.0654 -0.6368
  834MOL0     C12476   2.208   1.265   0.502  0.0043  0.4657  0.2658
  834MOL0     C12477   2.227   1.225   0.356  0.0196 -0.0934 -0.4751
  834MOL0     C12478   2.169   1.078   0.339 -0.6066  0.3428  0.1288
  834MOL0     O12479   2.046   1.049   0.396  0.3944 -0.2236  0.5870
  834MOL0     C12480   1.931   1.072   0.320  0.8776 -0.3523 -0.3753
  834MOL0     C12481   1.919   1.157   0.209  0.5627  0.6427  0.3760
  834MOL0     C12482   1.802   1.167   0.128 -0.0702 -0.3530 -0.3309
  834MOL0     C12483   1.689   1.098   0.165 -0.6232  0.3877 -0.4012
  834MOL0     C12484   1.578   1.093   0.063 -0.4986 -0.6564  0.0393
  834MOL0     O12485   1.559   1.209  -0.018 -0.3028  0.2916  0.6666
  834MOL0     C12486   1.432   1.223  -0.069 -0.3001  0.3805  0.1835
  834MOL0     C12487   1.419   1.207  -0.207 -0.3389 -0.2181 -0.0150
  834MOL0     C12488   1.296   1.208  -0.272  0.3444  0.7140 -0.1326
  834MOL0     C12489   1.178   1.241  -0.202 -0.1436 -0.3799  0.3761
  834MOL0     O12490   1.060   1.251  -0.266  0.5742  0.3526  0.5058
  834MOL0     C12491   1.005   1.380  -0.278 -0.0814  0.1572 -0.7700
  834MOL0     C12492   0.955   1.383  -0.424 -0.2573  0.0287 -0.2367
  834MOL0     C12493   0.821   1.317  -0.457 -0.2172 -0.2360 -0.1373
  834MOL0     C12494   0.693   1.402  -0.413 -0.2880  0.5841  1.0578
  834MOL0     C12495   0.550   1.358  -0.468 -0.3010 -0.4428  0.6958
  834MOL0     C12496   0.450   1.438  -0.395 -0.2710  0.4711 -0.3200
  834MOL0     C12497   0.308   1.406  -0.418  1.0460 -0.0155 -0.9335
  834MOL0     C12498   0.220   1.528  -0.358 -0.2530  0.6487  0.2685
  834MOL0    Cl12499   0.249   1.545  -0.181  0.2256  0.0138 -0.3072
  834MOL0     C12500   1.190   1.265  -0.061  0.6279  0.0441  0.5054
  834MOL0     C12501   1.315   1.258   0.003  0.4622 -0.9309  0.8897
  834MOL0     O12502   1.493   1.005   0.083 -0.1037 -0.1650 -0.4744
  834MOL0     C12503   1.697   1.015   0.286  0.3043  0.7426  1.0171
  834MOL0     C12504   1.812   1.010   0.363 -0.3158 -0.0595  0.6475
  834MOL0     N12505   2.179   1.496   0.753 -0.0360  0.3676  1.0790
  834MOL0     N12506   2.219   1.521   0.871  0.8489  0.3966  1.1603
  834MOL0     C12507   2.830   1.768   1.727  0.5717 -0.1856 -0.0005
  834MOL0     C12508   2.885   1.897   1.751 -0.0209 -0.0597  0.7097
  834MOL0     C12509   2.961   2.338   1.716  0.4023  0.0112 -1.0184
  834MOL0     C12510   3.056   2.395   1.632  0.3205  0.4997  0.6945
  834MOL0     C12511   3.049   2.535   1.606  0.0407  0.3987  0.0006
  834MOL0     C12512   2.959   2.625   1.661  0.1367  0.1517  0.1285
  834MOL0     O12513   2.978   2.749   1.617  0.2793 -0.6751  0.0191
  834MOL0     C12514   2.854   2.818   1.579 -0.7565 -0.0342  0.2153
  834MOL0     C12515   2.864   2.946   1.488  0.4360  0.3599 -0.3295
  834MOL0     C12516   2.718   2.990   1.444  0.1262  0.3681 -0.0814
  834MOL0     C12517   2.630   2.894   1.358  0.9022 -0.2016  0.0340
  834MOL0     C12518   2.700   2.831   1.244 -0.3660  0.6751 -0.9241
  834MOL0     C12519   2.784   2.783   1.159  1.1952  0.1370 -0.6072
  834MOL0     C12520   2.870   2.571   1.749  0.9161 -0.5804 -0.2275
  834MOL0     C12521   2.866   2.430   1.783 -1.4937  0.5706 -0.3638
  834MOL0     C12522   2.741   2.376   1.859 -1.5730  0.5642 -0.3904
  834MOL0     H12523   2.596   2.054   1.822 -2.2161 -0.4776 -3.4383
  834MOL0     H12524   2.502   1.816   1.804 -0.7191  0.8042  0.8882
  834MOL0     H12525   2.773   1.532   1.598 -0.6186 -2.5044 -1.4236
  834MOL0     H12526   2.763   1.471   1.771 -0.5408  0.2929  0.5877
  834MOL0     H12527   2.538   1.396   1.715  2.1691  1.3588  1.4650
  834MOL0     H12528   2.670   1.295   1.648  0.7401  0.5100 -1.6996
  834MOL0     H12529   2.473   1.337   1.497 -0.9377  0.5598  0.4751
  834MOL0     H12530   2.637   1.340   1.441  0.1203  0.3312  1.0059
  834MOL0     H12531   2.472   1.584   1.498 -0.0140 -0.7299  0.9246
  834MOL0     H12532   2.638   1.587   1.423 -0.6408  0.5903  1.9741
  834MOL0     H12533   2.387   1.457   1.309 -1.2747  1.2358  0.3566
  834MOL0     H12534   2.417   1.624   1.293 -1.1714  1.1148  6.0646
  834MOL0     H12535   2.650   1.550   1.199 -1.1809  1.5218 -0.2200
  834MOL0     H12536   2.582   1.379   1.209  0.8923  0.5760 -0.1211
  834MOL0     H12537   2.573   1.474   0.971 -0.4505 -2.7156  0.3639
  834MOL0     H12538   2.472   1.609   1.046 -0.9914 -0.1359 -1.9267
  834MOL0     H12539   2.390   1.319   1.043 -0.5788 -0.1560 -0.0850
  834MOL0     H12540   2.307   1.465   1.106 -3.0683 -1.9602 -0.5526
  834MOL0     H12541   2.480   1.372   0.756  0.7262 -0.0625  1.9658
  834MOL0     H12542   2.248   1.495   0.495  0.4204  2.3370  3.1363
  834MOL0     H12543   2.392   1.398   0.516 -0.1648  3.4190 -0.0003
  834MOL0     H12544   2.261   1.196   0.568 -0.3657 -0.7270 -0.6725
  834MOL0     H12545   2.100   1.269   0.521 -0.0379 -2.4019  1.0961
  834MOL0     H12546   2.334   1.222   0.337  0.2409 -3.7163  0.6892
  834MOL0     H12547   2.180   1.298   0.289  0.5860  1.2191  0.5032
  834MOL0     H12548   2.237   1.003   0.380 -0.1720  2.1184  2.9028
  834MOL0     H12549   2.175   1.062   0.231  0.1638  0.4395  0.1509
  834MOL0     H12550   2.002   1.225   0.190 -0.2587  1.7541  0.6551
  834MOL0     H12551   1.800   1.232   0.040  0.1527  1.2102  0.7772
  834MOL0     H12552   1.504   1.178  -0.268  0.1096  0.0969  0.4469
  834MOL0     H12553   1.314   1.188  -0.378  1.0877 -1.4526  0.3511
  834MOL0     H12554   0.930   1.389  -0.198 -0.7039  1.5729 -1.4642
  834MOL0     H12555   1.082   1.454  -0.256  0.1452 -0.8874  2.3991
  834MOL0     H12556   0.946   1.490  -0.448 -1.4402  0.4834  2.0232
  834MOL0     H12557   1.028   1.337  -0.492 -3.1792 -2.2296 -2.0704
  834MOL0     H12558   0.806   1.291  -0.562  2.0908  0.5424 -0.7245
  834MOL0     H12559   0.827   1.218  -0.411 -0.2049 -0.2398 -0.1467
  834MOL0     H12560   0.703   1.499  -0.461  0.9722  0.0633  0.2010
  834MOL0     H12561   0.696   1.417  -0.304  0.8148  0.1581  1.1041
  834MOL0     H12562   0.518   1.256  -0.448  1.5238 -1.1081  0.3758
  834MOL0     H12563   0.548   1.374  -0.576 -2.2249  0.7985  0.8730
  834MOL0     H12564   0.469   1.415  -0.290  0.6340  0.6751 -0.4275
  834MOL0     H12565   0.462   1.546  -0.395 -1.2800  0.6176  1.2572
  834MOL0     H12566   0.280   1.308  -0.378  3.4243 -0.3950 -0.0358
  834MOL0     H12567   0.295   1.407  -0.527 -0.5951  0.1607 -0.7630
  834MOL0     H12568   0.250   1.625  -0.398 -0.0291 -0.0515 -1.3479
  834MOL0     H12569   0.116   1.520  -0.392 -1.1788  2.8025  2.2877
  834MOL0     H12570   1.104   1.280   0.003  0.5182 -1.1404  0.6732
  834MOL0     H12571   1.330   1.278   0.109 -0.7380  4.9804  0.3377
  834MOL0     H12572   1.610   0.973   0.334 -0.7403  1.1952 -0.4031
  834MOL0     H12573   1.816   0.954   0.456  2.4316 -3.3865 -1.2096
  834MOL0     H12574   2.895   1.687   1.696 -0.7664 -1.2317 -0.1901
  834MOL0     H12575   2.991   1.909   1.733 -0.3185 -0.0166 -1.2804
  834MOL0     H12576   3.118   2.332   1.569 -4.4658 -2.7874 -1.2924
  834MOL0     H12577   3.108   2.571   1.522  3.3795 -0.4053  1.8645
  834MOL0     H12578   2.811   2.861   1.670  0.5289  2.0158 -0.0768
  834MOL0     H12579   2.786   2.749   1.528 -3.9768  3.1887 -0.2454
  834MOL0     H12580   2.946   2.930   1.417 -0.6237 -0.3131 -1.4486
  834MOL0     H12581   2.900   3.033   1.543  0.2825 -0.2645  0.7825
  834MOL0     H12582   2.728   3.076   1.376 -0.3811  0.2088 -0.3642
  834MOL0     H12583   2.662   3.024   1.532  2.1812 -1.0481  1.9036
  834MOL0     H12584   2.600   2.822   1.433 -0.8571  0.5378  0.0859
  834MOL0     H12585   2.539   2.941   1.319  0.5416 -0.2531  0.7952
  834MOL0     H12586   2.861   2.729   1.106 -0.0856 -0.4020 -2.0059
  834MOL0     H12587   2.811   2.650   1.795  3.8237  2.2435 -0.9770
  834MOL0     H12588   2.757   2.297   1.932 -0.5186  0.8041 -0.3377
  834MOL0     H12589   2.696   2.459   1.913 -0.2435  1.4502 -0.5962
  834MOL0     H12590   2.677   2.332   1.782 -1.0001 -1.4200  0.2150
  835MOL0     O12591   8.363  10.153   3.463 -0.1971  0.1546 -0.3729
  835MOL0     C12592   8.438  10.221   3.535  0.3822  0.3504  0.8374
  835MOL0     O12593   8.452  10.355   3.531  0.4806 -0.5024 -0.1359
  835MOL0     C12594   8.370  10.434   3.445 -0.0743 -0.5751 -0.0397
  835MOL0     C12595   8.239  10.473   3.480  0.0851 -0.7811  0.1027
  835MOL0     C12596   8.162  10.556   3.394 -0.2614 -0.4829 -0.5580
  835MOL0     C12597   8.213  10.603   3.280 -0.1994 -0.3687 -0.4837
  835MOL0     O12598   8.139  10.703   3.212  0.2803  0.1943  0.3365
  835MOL0     C12599   8.188  10.738   3.083  0.3729  0.1913 -0.1489
  835MOL0     C12600   8.100  10.836   3.003  0.7217  0.2837  0.0569
  835MOL0     C12601   7.961  10.790   2.971  0.4058  0.4147 -0.8284
  835MOL0     C12602   7.863  10.903   2.954  0.5058 -0.2581  0.1177
  835MOL0     C12603   7.720  10.848   2.982 -0.2363  0.5748 -0.4073
  835MOL0     C12604   7.673  10.761   2.855  0.3230 -0.5863 -1.7493
  835MOL0     C12605   7.528  10.719   2.856 -0.0738  0.0604  0.8889
  835MOL0     C12606   7.497  10.600   2.948 -0.5905 -0.0138 -0.2172
  835MOL0     N12607   7.350  10.573   2.947 -0.6496 -0.3763  0.1827
  835MOL0     C12608   7.286  10.517   3.054 -0.7156 -0.5471  0.3246
  835MOL0     C12609   7.164  10.501   3.008  0.8640  0.6492  0.5320
  835MOL0     C12610   7.040  10.442   3.076  0.3278  0.2692 -0.0971
  835MOL0     C12611   7.081  10.386   3.212 -0.3493  0.3402  0.0239
  835MOL0     C12612   6.965  10.335   3.295  0.6744 -0.2758  0.1717
  835MOL0     C12613   6.908  10.201   3.256  0.9968  0.0612 -0.3322
  835MOL0     O12614   6.877  10.128   3.375  0.8401  0.6160 -0.3491
  835MOL0     C12615   6.953  10.021   3.418 -0.2333  0.1820 -0.6878
  835MOL0     C12616   6.881   9.940   3.505  0.0131  0.3444 -0.0974
  835MOL0     C12617   6.936   9.819   3.554 -0.6223 -0.6832 -0.0794
  835MOL0     C12618   7.076   9.786   3.515 -0.1339  1.0418 -0.3167
  835MOL0     C12619   7.160   9.673   3.581  0.0133  0.3280 -0.4450
  835MOL0     O12620   7.291   9.659   3.528  0.9141 -0.7354  0.1612
  835MOL0     C12621   7.342   9.535   3.531  0.6216  0.4102 -0.5943
  835MOL0     C12622   7.369   9.468   3.414 -0.3067 -0.4184  0.1110
  835MOL0     C12623   7.432   9.348   3.409  0.3698  0.6786  0.7879
  835MOL0     C12624   7.474   9.287   3.526 -0.7725  0.5005 -0.4766
  835MOL0     O12625   7.544   9.169   3.539  0.3025  1.1057 -0.2302
  835MOL0     C12626   7.500   9.068   3.442 -0.1681  0.5077 -0.2648
  835MOL0     C12627   7.595   8.957   3.478  0.6124  0.6278 -0.2360
  835MOL0     C12628   7.621   8.866   3.352  0.1721 -0.2028  0.6251
  835MOL0     C12629   7.648   8.723   3.397 -0.4883  0.6346  0.1471
  835MOL0     C12630   7.772   8.712   3.491 -0.1175 -1.9200  0.5556
  835MOL0     C12631   7.901   8.731   3.425 -0.5451  0.2465  0.1480
  835MOL0     C12632   7.939   8.594   3.363 -0.3230 -0.0133 -0.3576
  835MOL0     C12633   8.065   8.602   3.272 -0.5294  0.3354 -1.0631
  835MOL0    Cl12634   8.036   8.700   3.127  0.2911 -0.2758  0.5960
  835MOL0     C12635   7.436   9.346   3.646  0.0278 -0.3274 -0.6347
  835MOL0     C12636   7.382   9.479   3.646  0.2237  0.7259  0.1890
  835MOL0     O12637   7.100   9.594   3.654 -0.1024 -0.1583 -0.0336
  835MOL0     C12638   7.151   9.877   3.438 -0.5663  0.0279 -0.1746
  835MOL0     C12639   7.090   9.997   3.394  0.7531  0.3250  1.0457
  835MOL0     N12640   7.146  10.537   2.883 -0.4202  0.4348 -0.6904
  835MOL0     N12641   7.257  10.586   2.843  0.0528 -0.2206 -1.2133
  835MOL0     C12642   8.342  10.571   3.247 -0.0707 -0.1585  0.9195
  835MOL0     C12643   8.420  10.488   3.322  0.5383  0.3703 -0.7551
  835MOL0     C12644   8.549  10.155   3.610  0.0007  0.8349  0.6488
  835MOL0     C12645   8.637  10.226   3.699  0.5167  0.4362 -0.1339
  835MOL0     C12646   8.722  10.149   3.778 -0.6348 -0.4510 -1.3707
  835MOL0     C12647   8.750  10.019   3.759 -0.3596  0.6558 -0.1293
  835MOL0     O12648   8.853   9.959   3.833  0.0002  0.2145  0.4200
  835MOL0     C12649   8.873   9.818   3.834 -1.2153 -0.6785 -0.2970
  835MOL0     C12650   8.946   9.787   3.970 -0.2811 -0.2593 -0.3736
  835MOL0     C12651   8.869   9.844   4.087  0.3613  0.0276 -0.1427
  835MOL0     C12652   8.851   9.752   4.206 -0.3922 -0.1649 -0.5905
  835MOL0     C12653   8.977   9.678   4.249 -0.4546 -1.1821 -0.0755
  835MOL0     C12654   9.076   9.628   4.291  0.8409 -0.0459 -0.3655
  835MOL0     C12655   8.667   9.945   3.669 -0.0495 -0.6605 -0.0506
  835MOL0     C12656   8.560  10.009   3.609 -0.1113 -0.2408 -0.1905
  835MOL0     C12657   8.459   9.910   3.549  0.1348  0.0585 -0.9611
  835MOL0     H12658   8.192  10.420   3.562  0.4566 -0.4490  0.5348
  835MOL0     H12659   8.059  10.583   3.413  0.0391  0.7220 -0.5384
  835MOL0     H12660   8.281  10.792   3.101 -0.1195  1.0501 -0.0727
  835MOL0     H12661   8.202  10.648   3.023 -3.0062 -0.1593 -0.6542
  835MOL0     H12662   8.149  10.854   2.907  0.0750  0.2209 -0.2875
  835MOL0     H12663   8.101  10.935   3.051  1.3107  1.4265 -2.1677
  835MOL0     H12664   7.943  10.724   3.056 -0.8777 -0.2214 -1.5634
  835MOL0     H12665   7.959  10.724   2.884 -0.1602  1.4468 -1.6313
  835MOL0     H12666   7.866  10.993   3.016 -0.1358 -1.6848  2.3282
  835MOL0     H12667   7.873  10.945   2.853 -0.3604  3.3340  1.3628
  835MOL0     H12668   7.711  10.786   3.072  0.2624 -0.2809 -0.9360
  835MOL0     H12669   7.642  10.925   2.983 -1.6458 -0.5613 -4.5557
  835MOL0     H12670   7.700  10.813   2.763 -0.7439  0.5453 -1.4459
  835MOL0     H12671   7.730  10.667   2.848 -0.5323 -1.3861  0.8998
  835MOL0     H12672   7.503  10.689   2.754 -0.5577 -1.6648  1.4681
  835MOL0     H12673   7.456  10.790   2.898  0.9400 -0.9302  4.7647
  835MOL0     H12674   7.565  10.520   2.918  3.4220  3.2102 -0.6574
  835MOL0     H12675   7.541  10.612   3.047  3.5832 -0.7022 -1.7751
  835MOL0     H12676   7.326  10.479   3.148  1.8786 -2.5385 -1.4532
  835MOL0     H12677   6.955  10.510   3.084  1.0905  1.0568  1.8188
  835MOL0     H12678   7.014  10.356   3.014  1.3487 -1.4154  1.6839
  835MOL0     H12679   7.152  10.302   3.207  1.3026  1.5874  1.3533
  835MOL0     H12680   7.135  10.462   3.268  1.4348 -0.4525 -0.5311
  835MOL0     H12681   6.894  10.418   3.286  2.8518  1.9350  1.9051
  835MOL0     H12682   7.000  10.331   3.398  0.0195  0.5898  0.4434
  835MOL0     H12683   6.983  10.143   3.201  2.2855  2.8003 -1.6142
  835MOL0     H12684   6.819  10.222   3.195 -0.6601 -0.3123  1.8225
  835MOL0     H12685   6.783   9.963   3.544 -0.8204 -0.3472 -1.6871
  835MOL0     H12686   6.880   9.760   3.627  1.5136 -2.6432  0.1034
  835MOL0     H12687   7.343   9.522   3.324  0.4741 -2.1784 -1.2223
  835MOL0     H12688   7.449   9.301   3.313  0.2157 -0.0650  1.1210
  835MOL0     H12689   7.394   9.052   3.462 -0.3793  0.3283 -1.4403
  835MOL0     H12690   7.510   9.094   3.336  1.5205 -0.8760 -0.4845
  835MOL0     H12691   7.692   9.004   3.494  0.1418  1.5904 -0.1689
  835MOL0     H12692   7.564   8.905   3.569 -1.5135 -1.7107 -2.1480
  835MOL0     H12693   7.534   8.865   3.286 -0.7027 -0.8485  1.7495
  835MOL0     H12694   7.706   8.902   3.293 -0.2925 -0.3865 -0.1702
  835MOL0     H12695   7.664   8.657   3.311 -0.5506  1.7903 -0.7658
  835MOL0     H12696   7.566   8.677   3.453 -0.8803  1.0005 -0.1221
  835MOL0     H12697   7.765   8.611   3.535  2.8025 -3.2885 -1.7763
  835MOL0     H12698   7.759   8.785   3.571 -1.7430  0.2645 -1.5682
  835MOL0     H12699   7.897   8.811   3.350 -2.7962  1.1753  1.1604
  835MOL0     H12700   7.971   8.760   3.504 -1.5594 -0.7152  1.4341
  835MOL0     H12701   7.853   8.562   3.302 -0.4000  0.7124 -0.6323
  835MOL0     H12702   7.966   8.525   3.443 -0.7622 -0.3151 -0.4618
  835MOL0     H12703   8.149   8.638   3.332  0.4482  0.1776 -2.3056
  835MOL0     H12704   8.089   8.506   3.228  1.3962  0.9220 -1.3676
  835MOL0     H12705   7.472   9.291   3.733  1.5940  1.7898  0.1274
  835MOL0     H12706   7.360   9.523   3.743  0.5705  2.0841 -0.3166
  835MOL0     H12707   7.252   9.859   3.404 -0.6625 -1.9916  0.4938
  835MOL0     H12708   7.148  10.056   3.324 -0.6071 -1.1121 -1.4207
  835MOL0     H12709   8.389  10.614   3.159 -2.4048 -1.6677 -1.1684
  835MOL0     H12710   8.523  10.462   3.305  0.9733  0.5025  1.3706
  835MOL0     H12711   8.634  10.333   3.717 -2.3858  0.8001 -2.1773
  835MOL0     H12712   8.783  10.196   3.854 -2.2515  0.7295 -0.7391
  835MOL0     H12713   8.928   9.795   3.742  0.7745  2.8710 -0.1563
  835MOL0     H12714   8.776   9.769   3.827 -0.7991 -1.5143 -0.3943
  835MOL0     H12715   9.042   9.837   3.982 -0.2299 -0.7904  1.8149
  835MOL0     H12716   8.951   9.679   3.980 -4.2327 -0.3880  2.9556
  835MOL0     H12717   8.768   9.872   4.057 -0.7064 -1.1434  2.1530
  835MOL0     H12718   8.921   9.937   4.112 -2.8641  2.2941 -1.2151
  835MOL0     H12719   8.832   9.817   4.292 -2.4147 -3.5460  1.7803
  835MOL0     H12720   8.762   9.689   4.195 -0.9391  0.9350 -3.1114
  835MOL0     H12721   9.171   9.591   4.324  1.2381  2.6598  1.9047
  835MOL0     H12722   8.674   9.837   3.664  0.4136 -0.7079  1.1547
  835MOL0     H12723   8.463   9.814   3.602  2.5754  1.2021  1.1509
  835MOL0     H12724   8.359   9.950   3.570 -1.9259 -4.2595 -1.3672
  835MOL0     H12725   8.482   9.915   3.442  0.4398  2.8891 -0.8380
  836MOL0     O12726   8.450  10.249  10.870  0.0294 -0.6029  0.3249
  836MOL0     C12727   8.455  10.370  10.852  0.6482  1.1150  0.1436
  836MOL0     O12728   8.555  10.429  10.775  0.7987  0.8735 -0.6968
  836MOL0     C12729   8.613  10.342  10.681 -1.2147 -1.1197 -1.4355
  836MOL0     C12730   8.537  10.283  10.579  1.2481  0.5660 -1.3516
  836MOL0     C12731   8.597  10.193  10.494 -1.2078 -0.9378 -0.2707
  836MOL0     C12732   8.736  10.169  10.500  0.4845 -0.3044 -0.3057
  836MOL0     O12733   8.790  10.080  10.409 -0.0840  0.4009 -0.0034
  836MOL0     C12734   8.896   9.993  10.453 -0.1542  0.0413  0.1032
  836MOL0     C12735   9.004   9.988  10.345  0.9191 -0.2138  0.4421
  836MOL0     C12736   9.135   9.914  10.386  0.7133  0.5841  0.5679
  836MOL0     C12737   9.134   9.765  10.348  0.2057 -0.1095  0.4319
  836MOL0     C12738   9.250   9.679  10.405 -0.1969 -0.9844 -0.1634
  836MOL0     C12739   9.220   9.633  10.551 -0.2371  0.3715  0.4614
  836MOL0     C12740   9.328   9.532  10.596  0.2111 -0.7058  0.3567
  836MOL0     C12741   9.305   9.453  10.722 -0.5730  0.5242 -0.4592
  836MOL0     N12742   9.418   9.368  10.753 -0.4125  0.6304  0.2975
  836MOL0     C12743   9.464   9.255  10.693 -0.9177 -0.3248  0.0369
  836MOL0     C12744   9.586   9.227  10.760  0.1892 -0.1125  0.5323
  836MOL0     C12745   9.678   9.107  10.720 -0.0629  0.2217 -0.5654
  836MOL0     C12746   9.751   9.052  10.842  0.2054 -0.3536 -0.1485
  836MOL0     C12747   9.872   9.135  10.891  0.6601 -1.0668 -0.2981
  836MOL0     C12748   9.970   9.176  10.774 -0.0942  0.6254  0.1344
  836MOL0     O12749  10.102   9.176  10.833  0.4538  0.1454  0.3362
  836MOL0     C12750  10.167   9.054  10.839  0.7691  0.2140  0.8184
  836MOL0     C12751  10.116   8.929  10.809 -0.2480  0.9965  0.2976
  836MOL0     C12752  10.196   8.826  10.788 -0.5946  0.5920  0.6918
  836MOL0     C12753  10.328   8.835  10.826  0.4725  0.6177  0.3448
  836MOL0     C12754  10.411   8.714  10.830  0.3192 -0.5230 -0.0499
  836MOL0     O12755  10.532   8.732  10.882  0.2507  0.7026 -0.7062
  836MOL0     C12756  10.631   8.636  10.857  0.4261  1.2376 -0.3433
  836MOL0     C12757  10.609   8.501  10.858 -0.3773 -0.5711  0.7041
  836MOL0     C12758  10.712   8.410  10.867 -0.7304 -0.1883 -0.0249
  836MOL0     C12759  10.843   8.456  10.848 -0.7701 -0.3664 -1.1025
  836MOL0     O12760  10.948   8.368  10.834 -0.0489 -0.6514 -0.7886
  836MOL0     C12761  10.923   8.229  10.798  0.3461 -0.4163  0.0476
  836MOL0     C12762  11.051   8.154  10.777  0.5866  0.2827  0.1352
  836MOL0     C12763  11.167   8.198  10.861  0.9958 -0.6868  0.4370
  836MOL0     C12764  11.290   8.116  10.824 -0.1057 -0.0607 -0.0134
  836MOL0     C12765  11.402   8.129  10.939 -0.2715  0.9149  0.7020
  836MOL0     C12766  11.496   8.005  10.915 -0.7214 -0.7116  0.0842
  836MOL0     C12767  11.631   8.017  10.986 -0.5549 -0.5253  0.1366
  836MOL0     C12768  11.739   7.925  10.925 -0.3407  0.1219 -0.6996
  836MOL0    Cl12769  11.713   7.747  10.973 -0.3001  0.1173  0.3148
  836MOL0     C12770  10.875   8.594  10.853  0.0428 -0.5622 -0.3965
  836MOL0     C12771  10.757   8.682  10.858 -0.5910  0.5121 -0.0755
  836MOL0     O12772  10.369   8.608  10.774 -0.1463 -0.0687  0.4049
  836MOL0     C12773  10.381   8.957  10.857  0.6828 -0.1285  0.0160
  836MOL0     C12774  10.297   9.064  10.872 -0.2749  0.5090  0.3950
  836MOL0     N12775   9.609   9.333  10.843 -0.0661  0.3649 -0.7527
  836MOL0     N12776   9.510   9.416  10.840 -0.4264  0.9943  0.3783
  836MOL0     C12777   8.810  10.233  10.604  0.0292 -0.3426 -0.6903
  836MOL0     C12778   8.745  10.308  10.693 -0.1011 -0.6796 -0.7325
  836MOL0     C12779   8.353  10.463  10.918  0.1498  0.6205 -0.1042
  836MOL0     C12780   8.304  10.410  11.039  0.7055  0.6792 -0.6306
  836MOL0     C12781   8.208  10.481  11.110  0.4226 -0.6180 -0.2183
  836MOL0     C12782   8.171  10.610  11.076 -0.2178  0.0508 -0.2343
  836MOL0     O12783   8.095  10.691  11.150 -0.7707 -0.5341 -0.2413
  836MOL0     C12784   7.954  10.667  11.164  0.8845  0.3477  0.4574
  836MOL0     C12785   7.865  10.800  11.177  0.4632 -0.3371 -0.0387
  836MOL0     C12786   7.716  10.789  11.127 -0.6661 -0.4529 -0.0012
  836MOL0     C12787   7.705  10.833  10.979  0.8408 -0.7896 -0.2962
  836MOL0     C12788   7.602  10.747  10.913  0.0140  0.2472 -0.2093
  836MOL0     C12789   7.519  10.678  10.848 -0.4925  0.8912  0.1269
  836MOL0     C12790   8.215  10.653  10.948  0.0168 -0.1371 -0.0485
  836MOL0     C12791   8.297  10.583  10.868 -0.4129  0.2372 -0.1555
  836MOL0     C12792   8.342  10.642  10.739  0.7360  0.0285  1.1910
  836MOL0     H12793   8.430  10.291  10.569  1.0479  1.5847  1.1139
  836MOL0     H12794   8.533  10.150  10.418 -0.1502 -1.0690 -1.1168
  836MOL0     H12795   8.943  10.014  10.550 -2.2613 -1.7085  1.6079
  836MOL0     H12796   8.855   9.892  10.447  2.6649 -1.2611  0.8618
  836MOL0     H12797   9.024  10.094  10.332 -2.7717  0.2989 -2.8642
  836MOL0     H12798   8.964   9.951  10.250 -0.8120  1.1123  0.6125
  836MOL0     H12799   9.150   9.933  10.493 -1.9283  1.4480  0.8539
  836MOL0     H12800   9.218   9.957  10.330  2.5213 -1.3442  1.5986
  836MOL0     H12801   9.044   9.714  10.383 -0.4980 -0.4745 -1.7283
  836MOL0     H12802   9.121   9.774  10.239 -2.0176  2.6066  0.8029
  836MOL0     H12803   9.264   9.591  10.342 -1.6248 -3.0015  2.1558
  836MOL0     H12804   9.344   9.734  10.413 -1.1702  0.4975  1.8735
  836MOL0     H12805   9.212   9.725  10.609  0.1173  1.5377 -1.2618
  836MOL0     H12806   9.126   9.577  10.557 -0.2105  0.3660  0.8506
  836MOL0     H12807   9.423   9.586  10.598 -0.0822 -0.0312 -1.4920
  836MOL0     H12808   9.337   9.457  10.517 -1.5613 -0.4845 -0.1054
  836MOL0     H12809   9.279   9.517  10.807 -0.8621  0.9630 -0.8718
  836MOL0     H12810   9.215   9.395  10.702 -0.5434  1.0568 -2.2827
  836MOL0     H12811   9.402   9.199  10.625 -0.4278 -2.6747  1.4356
  836MOL0     H12812   9.607   9.032  10.685 -0.8650  0.4320  0.5527
  836MOL0     H12813   9.749   9.117  10.637  0.5923 -3.7882 -0.6843
  836MOL0     H12814   9.689   9.022  10.926  0.8533 -0.5575  0.2680
  836MOL0     H12815   9.797   8.955  10.823  2.2224  0.4382  0.3405
  836MOL0     H12816   9.924   9.075  10.967  3.4772  1.7425  0.2012
  836MOL0     H12817   9.835   9.226  10.937 -2.3320 -1.7521 -1.1419
  836MOL0     H12818   9.943   9.278  10.744 -0.1754  0.7434  0.6108
  836MOL0     H12819   9.955   9.111  10.687 -0.2182 -0.6137  1.0469
  836MOL0     H12820  10.010   8.913  10.795 -0.1743  1.2860 -0.6542
  836MOL0     H12821  10.165   8.726  10.758 -2.6730  1.8165 -1.5583
  836MOL0     H12822  10.506   8.477  10.882 -1.3066  0.4709 -1.8509
  836MOL0     H12823  10.690   8.304  10.877  3.5446 -1.3403 -0.6345
  836MOL0     H12824  10.880   8.174  10.883 -1.3303  0.4112 -0.2234
  836MOL0     H12825  10.866   8.213  10.706  3.4319 -0.0865 -2.0610
  836MOL0     H12826  11.030   8.049  10.800 -1.0370  1.0890  2.7743
  836MOL0     H12827  11.080   8.153  10.671  2.6614  1.2805  0.6574
  836MOL0     H12828  11.202   8.297  10.832  1.0874 -0.9611 -0.3971
  836MOL0     H12829  11.147   8.195  10.969 -2.3813 -0.1300 -0.0670
  836MOL0     H12830  11.338   8.167  10.741  4.2271  1.1555  2.9107
  836MOL0     H12831  11.267   8.011  10.804 -0.3027 -0.8682  3.6991
  836MOL0     H12832  11.357   8.129  11.038 -4.4068 -1.5861 -0.9086
  836MOL0     H12833  11.462   8.219  10.921  0.1082  0.3174 -1.3144
  836MOL0     H12834  11.445   7.910  10.932  0.3046 -1.5073 -1.1531
  836MOL0     H12835  11.520   7.998  10.809  0.5537 -2.4092  0.4367
  836MOL0     H12836  11.623   7.994  11.092 -3.0871 -1.9978 -0.2884
  836MOL0     H12837  11.660   8.121  10.968  0.9161 -1.3375 -2.8699
  836MOL0     H12838  11.752   7.938  10.817 -1.1297 -2.2856 -1.1496
  836MOL0     H12839  11.834   7.950  10.975 -0.1170 -2.4810  0.3365
  836MOL0     H12840  10.979   8.627  10.848 -0.4561  1.1980  0.1806
  836MOL0     H12841  10.761   8.790  10.870 -4.2763  0.6246  1.7197
  836MOL0     H12842  10.487   8.961  10.881  0.4431 -2.7128  2.0172
  836MOL0     H12843  10.341   9.157  10.907  2.7236 -1.2155  1.5849
  836MOL0     H12844   8.917  10.248  10.605 -0.1542  1.1345 -0.6774
  836MOL0     H12845   8.803  10.332  10.782 -0.0445 -1.9147 -0.4189
  836MOL0     H12846   8.324  10.308  11.071 -3.3483  0.0731  0.5489
  836MOL0     H12847   8.167  10.442  11.203  2.4935 -1.1313  0.5252
  836MOL0     H12848   7.932  10.603  11.250 -2.7722  2.3266  1.2309
  836MOL0     H12849   7.925  10.604  11.078  0.0878 -3.8112  3.4281
  836MOL0     H12850   7.928  10.868  11.119  1.6371 -0.2036  1.3506
  836MOL0     H12851   7.879  10.836  11.279 -0.7006 -0.2469  0.1069
  836MOL0     H12852   7.658  10.852  11.196  1.4303 -0.1918  1.6215
  836MOL0     H12853   7.669  10.691  11.139 -1.9713 -0.3029 -3.0064
  836MOL0     H12854   7.675  10.939  10.981  0.4188 -0.8889 -1.0544
  836MOL0     H12855   7.800  10.827  10.925  0.3612  2.1087 -1.6687
  836MOL0     H12856   7.437  10.630  10.799 -0.5345  0.9555  0.1338
  836MOL0     H12857   8.177  10.741  10.895 -0.9253 -1.7829 -2.2656
  836MOL0     H12858   8.288  10.729  10.702 -4.0851 -2.9768  0.3903
  836MOL0     H12859   8.446  10.676  10.741 -0.1581  4.1535 -3.5250
  836MOL0     H12860   8.327  10.570  10.659 -1.5282  1.2894  0.4012
  837MOL0     O12861   8.406   5.360   1.094  0.7645 -0.4702  0.1114
  837MOL0     C12862   8.447   5.304   0.995 -1.2376 -0.1415 -0.2529
  837MOL0     O12863   8.569   5.335   0.945 -0.1740  0.4805 -0.0626
  837MOL0     C12864   8.634   5.436   1.007 -0.2306 -0.0494  0.1923
  837MOL0     C12865   8.720   5.408   1.117 -0.2356  0.4085  0.8778
  837MOL0     C12866   8.794   5.505   1.187 -0.7503 -0.1422  0.5902
  837MOL0     C12867   8.781   5.638   1.144  0.2518  0.9589  0.3110
  837MOL0     O12868   8.846   5.726   1.219 -0.3226  0.6233  0.1054
  837MOL0     C12869   8.899   5.844   1.154  1.0504 -0.0060 -0.3083
  837MOL0     C12870   8.820   5.976   1.191  0.2004 -0.0721  0.0865
  837MOL0     C12871   8.897   6.097   1.125 -0.2637 -0.0137  0.9773
  837MOL0     C12872   8.826   6.227   1.150 -0.4717 -0.9972  0.4536
  837MOL0     C12873   8.688   6.232   1.072 -0.6347 -0.7898  0.3802
  837MOL0     C12874   8.629   6.373   1.089 -0.0250  0.0203 -0.0510
  837MOL0     C12875   8.537   6.408   0.976  0.7730  0.1148 -0.1578
  837MOL0     C12876   8.452   6.527   1.004  0.1974  0.5532  0.2566
  837MOL0     N12877   8.413   6.592   0.878 -0.3560 -0.6476 -0.5055
  837MOL0     C12878   8.289   6.601   0.823 -0.5856  0.4861  0.5142
  837MOL0     C12879   8.295   6.669   0.705 -1.5646  0.1672  0.0982
  837MOL0     C12880   8.191   6.705   0.609  0.6804  0.1217  0.4347
  837MOL0     C12881   8.069   6.606   0.616  0.3055  0.1438 -0.1560
  837MOL0     C12882   8.104   6.465   0.550  0.2605 -1.1783  0.2268
  837MOL0     C12883   7.979   6.377   0.555  0.3589 -0.0101  0.1831
  837MOL0     O12884   7.973   6.324   0.421 -0.1635  0.1795  0.8422
  837MOL0     C12885   8.053   6.213   0.396  0.2118 -0.2758 -0.3637
  837MOL0     C12886   8.011   6.082   0.423 -0.0271 -0.9413 -0.8873
  837MOL0     C12887   8.093   5.967   0.391  0.5206 -0.1657 -0.3583
  837MOL0     C12888   8.212   5.988   0.326  0.6087 -0.0454 -0.0708
  837MOL0     C12889   8.285   5.868   0.293  0.8078 -0.2066  0.1664
  837MOL0     O12890   8.210   5.759   0.254 -0.1087 -0.5704  0.2611
  837MOL0     C12891   8.267   5.653   0.197 -0.1536 -0.5431 -0.2260
  837MOL0     C12892   8.195   5.530   0.182 -0.2572 -0.6932 -0.8833
  837MOL0     C12893   8.237   5.425   0.108 -0.2472 -0.0207  0.1658
  837MOL0     C12894   8.352   5.440   0.027  0.6147 -0.2668 -0.2658
  837MOL0     O12895   8.386   5.341  -0.068  0.5866  0.3801 -0.1390
  837MOL0     C12896   8.383   5.202  -0.031 -0.3618 -0.5617 -0.0840
  837MOL0     C12897   8.530   5.158  -0.006 -0.1549  0.7342 -0.1568
  837MOL0     C12898   8.572   5.019  -0.071 -0.6913 -0.1707  0.6711
  837MOL0     C12899   8.656   4.945   0.026  0.6535 -0.4353 -0.2412
  837MOL0     C12900   8.713   4.805  -0.020  0.7354 -0.4349 -0.7366
  837MOL0     C12901   8.814   4.743   0.081  0.5894 -0.4445 -0.0594
  837MOL0     C12902   8.866   4.616   0.023 -0.3608  0.8569  0.7393
  837MOL0     C12903   8.988   4.554   0.098  0.3127  0.1191 -0.0626
  837MOL0    Cl12904   9.086   4.459  -0.016  0.1611 -0.1291 -0.0091
  837MOL0     C12905   8.424   5.566   0.034  0.2118  0.0927  0.0710
  837MOL0     C12906   8.387   5.666   0.123  0.7775 -1.7604  0.3321
  837MOL0     O12907   8.405   5.887   0.285 -0.6481  0.7265 -0.7813
  837MOL0     C12908   8.253   6.108   0.277  0.8735  0.8583  0.4656
  837MOL0     C12909   8.177   6.219   0.323  0.0072  0.3793 -0.1160
  837MOL0     N12910   8.429   6.711   0.706  0.1768  0.8665  0.2866
  837MOL0     N12911   8.499   6.665   0.799 -0.7966 -0.3889 -0.6469
  837MOL0     C12912   8.696   5.667   1.039 -0.1907 -0.8186 -0.4949
  837MOL0     C12913   8.620   5.573   0.975  0.8418  0.2809 -0.6161
  837MOL0     C12914   8.364   5.193   0.940  0.8159  0.0517  0.0578
  837MOL0     C12915   8.229   5.208   0.971 -0.2823  0.3534  0.3597
  837MOL0     C12916   8.141   5.104   0.936  0.2411 -1.0433  0.3170
  837MOL0     C12917   8.175   4.996   0.856  0.3967  0.0751  1.2439
  837MOL0     O12918   8.076   4.906   0.810 -0.4715 -0.8741 -0.2684
  837MOL0     C12919   8.044   4.935   0.671  0.1858  0.6552  0.4542
  837MOL0     C12920   7.901   4.965   0.641 -0.4732  0.6132  0.2522
  837MOL0     C12921   7.820   4.829   0.637  0.2640 -0.1277  0.3976
  837MOL0     C12922   7.806   4.749   0.509  0.0185  0.0786 -0.6459
  837MOL0     C12923   7.918   4.667   0.482 -0.8919  1.2195 -0.2058
  837MOL0     C12924   8.011   4.590   0.479  0.1361  0.3052  0.0916
  837MOL0     C12925   8.308   4.984   0.821  0.4557 -0.7216  0.9051
  837MOL0     C12926   8.401   5.075   0.870 -0.0221 -0.3044  0.0191
  837MOL0     C12927   8.545   5.040   0.851  0.0109  0.0215 -0.8477
  837MOL0     H12928   8.718   5.312   1.167 -2.1113  0.7912  1.6583
  837MOL0     H12929   8.831   5.485   1.287  0.3193  2.4313  0.7987
  837MOL0     H12930   9.000   5.864   1.191  0.6189 -0.5078  1.2085
  837MOL0     H12931   8.901   5.839   1.045  0.8817  1.3878 -0.3949
  837MOL0     H12932   8.814   5.989   1.299 -2.9132  1.4346 -0.1656
  837MOL0     H12933   8.719   5.966   1.148  1.0050  1.3155 -2.3276
  837MOL0     H12934   8.909   6.070   1.020 -1.4595  0.6043  0.6708
  837MOL0     H12935   8.997   6.100   1.170  0.2243 -2.0909  0.1300
  837MOL0     H12936   8.813   6.231   1.259  2.2814  2.1899  0.8302
  837MOL0     H12937   8.886   6.316   1.128 -0.0644 -1.2868  0.3928
  837MOL0     H12938   8.718   6.209   0.969 -2.2394 -2.9352  0.3292
  837MOL0     H12939   8.613   6.157   1.096 -4.3199  2.1125 -0.9833
  837MOL0     H12940   8.571   6.368   1.183 -1.1558  1.3783 -0.6377
  837MOL0     H12941   8.708   6.441   1.121  0.2745 -1.5075  2.7973
  837MOL0     H12942   8.477   6.324   0.941 -0.3728  1.1347 -0.7057
  837MOL0     H12943   8.598   6.422   0.887 -1.5957 -3.6336 -2.6820
  837MOL0     H12944   8.367   6.499   1.067  1.3964 -1.1430  1.2161
  837MOL0     H12945   8.507   6.600   1.065 -0.3162  3.5030 -2.5494
  837MOL0     H12946   8.203   6.553   0.868 -1.0286  0.6161 -0.1691
  837MOL0     H12947   8.159   6.807   0.634  0.7114 -0.1521  1.6468
  837MOL0     H12948   8.237   6.698   0.510 -1.2526 -3.6190 -0.4052
  837MOL0     H12949   8.029   6.600   0.718 -0.9353  0.9055 -0.5685
  837MOL0     H12950   7.994   6.658   0.555  0.3937  1.1554  0.5605
  837MOL0     H12951   8.195   6.431   0.601  0.8489 -0.9972 -0.6712
  837MOL0     H12952   8.133   6.477   0.445  0.5041  0.8102  0.4769
  837MOL0     H12953   7.893   6.439   0.582 -1.0836 -0.7812 -2.3845
  837MOL0     H12954   7.983   6.293   0.625  0.4892 -0.6583 -0.5919
  837MOL0     H12955   7.914   6.075   0.471 -1.1359  0.0532 -2.8578
  837MOL0     H12956   8.051   5.877   0.434  1.1462  0.3058  1.3291
  837MOL0     H12957   8.106   5.522   0.243  0.1579  2.1445  0.2724
  837MOL0     H12958   8.173   5.337   0.105  2.6607 -2.5797  3.8852
  837MOL0     H12959   8.328   5.181   0.062  1.8596 -1.0967  1.2091
  837MOL0     H12960   8.336   5.149  -0.114 -2.6970  0.0446  0.7845
  837MOL0     H12961   8.599   5.239  -0.031  1.0461  0.2565  1.4520
  837MOL0     H12962   8.541   5.147   0.103 -1.6055 -2.1624 -0.1959
  837MOL0     H12963   8.482   4.961  -0.094 -0.5015 -0.9190  1.7554
  837MOL0     H12964   8.624   5.044  -0.164 -2.9980 -1.2308 -1.0109
  837MOL0     H12965   8.595   4.934   0.116  0.2599  2.5474 -0.0275
  837MOL0     H12966   8.742   5.007   0.054 -1.3248  1.9261  1.1195
  837MOL0     H12967   8.763   4.814  -0.117  0.9440 -0.5470 -0.6404
  837MOL0     H12968   8.628   4.736  -0.027  0.8077 -0.9184  2.0017
  837MOL0     H12969   8.893   4.814   0.107 -0.2396 -0.0996  1.6343
  837MOL0     H12970   8.764   4.730   0.178 -3.5281  3.2299 -1.3823
  837MOL0     H12971   8.899   4.636  -0.079  0.7482 -2.4497  0.3316
  837MOL0     H12972   8.795   4.534   0.008  0.3614 -0.4064  3.5399
  837MOL0     H12973   9.053   4.639   0.121  0.9515 -0.1589 -0.7723
  837MOL0     H12974   8.970   4.491   0.185 -0.9816  0.5030 -0.0391
  837MOL0     H12975   8.505   5.571  -0.038  1.1482  0.0027  1.1091
  837MOL0     H12976   8.436   5.760   0.101 -0.0029 -1.7075 -1.3487
  837MOL0     H12977   8.340   6.130   0.216  0.1301  0.9037 -0.5969
  837MOL0     H12978   8.227   6.309   0.288  5.2166 -2.5770 -1.4213
  837MOL0     H12979   8.686   5.773   1.018 -0.0954 -0.8849 -0.8783
  837MOL0     H12980   8.550   5.605   0.898  0.6079  0.9835 -0.1205
  837MOL0     H12981   8.200   5.300   1.021  1.1649 -1.0967  4.2646
  837MOL0     H12982   8.041   5.130   0.971  1.8227  5.3534  1.4559
  837MOL0     H12983   8.072   4.848   0.611 -0.8109 -1.8005  3.3193
  837MOL0     H12984   8.100   5.022   0.635 -1.7157  0.4599 -3.6800
  837MOL0     H12985   7.879   5.010   0.544 -1.4469 -3.5095 -1.6447
  837MOL0     H12986   7.871   5.022   0.730  0.7949  3.7316 -1.1679
  837MOL0     H12987   7.714   4.846   0.662 -0.0519 -1.6714  0.1900
  837MOL0     H12988   7.846   4.765   0.722 -0.9606 -3.5533 -1.6321
  837MOL0     H12989   7.722   4.679   0.511 -1.6783  2.0114 -1.1371
  837MOL0     H12990   7.798   4.812   0.420  1.2224 -0.0148 -0.8381
  837MOL0     H12991   8.093   4.522   0.474 -1.2275 -2.5992  6.3623
  837MOL0     H12992   8.332   4.900   0.756  2.8504 -0.9900  2.0207
  837MOL0     H12993   8.602   5.084   0.933  0.5014 -1.0788 -0.5927
  837MOL0     H12994   8.568   4.934   0.856 -1.1290 -0.2105  0.0721
  837MOL0     H12995   8.587   5.076   0.757  0.4227  0.0368 -0.6583
  838MOL0     O12996   3.036  10.464   1.660  0.3403  0.0176  0.5503
  838MOL0     C12997   2.929  10.514   1.695  0.7483 -0.2449 -0.0072
  838MOL0     O12998   2.917  10.625   1.780  0.5237  0.8068  0.1383
  838MOL0     C12999   3.037  10.670   1.827  0.1613  0.5467  0.2623
  838MOL0     C13000   3.128  10.766   1.769  0.1361  0.1198 -1.2324
  838MOL0     C13001   3.252  10.802   1.833  0.4962  0.2678 -0.4113
  838MOL0     C13002   3.283  10.742   1.958  0.8252 -1.2302 -0.0242
  838MOL0     O13003   3.406  10.775   2.000  0.4441 -0.4702 -0.9963
  838MOL0     C13004   3.448  10.717   2.127  0.2318  0.5879 -0.1615
  838MOL0     C13005   3.569  10.793   2.175  0.3726 -0.0781  0.1829
  838MOL0     C13006   3.704  10.731   2.121  0.4194 -0.6630 -0.4138
  838MOL0     C13007   3.756  10.608   2.200  0.2865 -0.1039 -0.3182
  838MOL0     C13008   3.873  10.540   2.146 -0.0435  0.4698 -0.4902
  838MOL0     C13009   3.907  10.412   2.231 -0.2012  0.1144  0.5471
  838MOL0     C13010   3.819  10.292   2.211  0.3437  0.1835  0.0553
  838MOL0     C13011   3.891  10.162   2.216  0.2988  0.1819 -0.5496
  838MOL0     N13012   3.969  10.135   2.337  0.0279  1.2076  0.6920
  838MOL0     C13013   4.061  10.037   2.338 -0.8523 -0.3807  0.4923
  838MOL0     C13014   4.122  10.042   2.462 -0.4848  0.4366 -0.9562
  838MOL0     C13015   4.230   9.956   2.507 -0.4063  1.1585  0.0074
  838MOL0     C13016   4.297  10.011   2.637 -1.3245  0.2322  0.0703
  838MOL0     C13017   4.422   9.928   2.680  0.3938 -0.4361 -0.0257
  838MOL0     C13018   4.503  10.015   2.784 -0.1855 -0.3735 -0.4799
  838MOL0     O13019   4.612   9.946   2.835 -0.9819 -0.3075 -0.6235
  838MOL0     C13020   4.603   9.841   2.917  0.0950  0.9744 -0.8368
  838MOL0     C13021   4.706   9.749   2.940 -0.4965  0.4007 -0.2629
  838MOL0     C13022   4.695   9.656   3.040 -0.9270 -0.0182  0.5963
  838MOL0     C13023   4.580   9.640   3.120  0.2292  0.1776 -0.3572
  838MOL0     C13024   4.568   9.529   3.214 -0.0789 -0.4918  0.2723
  838MOL0     O13025   4.443   9.507   3.272 -0.2099 -0.0380 -0.1413
  838MOL0     C13026   4.434   9.420   3.380  1.1255  0.0065 -0.5292
  838MOL0     C13027   4.386   9.290   3.354  0.1078  0.0073 -0.2913
  838MOL0     C13028   4.359   9.209   3.462 -1.3643  0.3163 -0.6325
  838MOL0     C13029   4.375   9.257   3.596 -0.3023 -0.0685  0.0872
  838MOL0     O13030   4.342   9.163   3.687  0.2445 -0.4115 -0.1542
  838MOL0     C13031   4.342   9.197   3.834 -0.2559 -0.2897  0.4844
  838MOL0     C13032   4.483   9.200   3.887  0.1280  0.0007  0.1601
  838MOL0     C13033   4.487   9.215   4.041 -0.6190  1.1189  0.0321
  838MOL0     C13034   4.639   9.240   4.079 -0.1611  0.1448  0.1840
  838MOL0     C13035   4.652   9.287   4.223 -0.3531 -0.8188  0.4990
  838MOL0     C13036   4.631   9.176   4.323  0.4184  0.4396 -0.6171
  838MOL0     C13037   4.750   9.075   4.324 -0.3847  0.0014 -0.6686
  838MOL0     C13038   4.741   8.979   4.450  1.3511 -0.7147  0.1538
  838MOL0    Cl13039   4.579   8.902   4.453  0.0237 -0.4196 -0.1441
  838MOL0     C13040   4.416   9.389   3.613  0.1847 -0.2710 -1.0508
  838MOL0     C13041   4.446   9.477   3.506  0.8359  0.4743  0.7028
  838MOL0     O13042   4.669   9.480   3.248 -0.0964 -0.3063 -0.0781
  838MOL0     C13043   4.477   9.730   3.095 -0.3031 -0.2844  0.4892
  838MOL0     C13044   4.481   9.824   3.001  0.0564 -0.2357  0.7040
  838MOL0     N13045   4.058  10.142   2.527 -0.8274 -0.8489 -1.0622
  838MOL0     N13046   3.974  10.202   2.451  0.0778 -1.3325 -0.0566
  838MOL0     C13047   3.196  10.644   2.013 -0.8962 -0.2087  0.4815
  838MOL0     C13048   3.075  10.621   1.954 -0.3010 -0.8429  0.2238
  838MOL0     C13049   2.812  10.450   1.643  0.5426  0.9928 -0.5921
  838MOL0     C13050   2.687  10.514   1.649 -0.2861  0.0322  0.6683
  838MOL0     C13051   2.571  10.449   1.612 -0.8739  0.5760 -0.8874
  838MOL0     C13052   2.567  10.321   1.567  0.1462 -0.3775  0.4023
  838MOL0     O13053   2.441  10.261   1.562 -0.8000 -0.3830  0.3311
  838MOL0     C13054   2.434  10.120   1.553 -0.6736  0.4038 -0.0452
  838MOL0     C13055   2.318  10.049   1.619  0.0809 -0.3794 -0.4299
  838MOL0     C13056   2.183  10.073   1.557 -0.3096 -0.1393  0.2834
  838MOL0     C13057   2.171  10.023   1.415  0.2095  0.9270  0.2533
  838MOL0     C13058   2.045  10.067   1.354 -0.0456 -0.3946 -0.2495
  838MOL0     C13059   1.943  10.087   1.296 -0.4470  0.2878 -0.4618
  838MOL0     C13060   2.689  10.257   1.542  0.6593  0.1239 -0.8757
  838MOL0     C13061   2.813  10.319   1.583  0.1193  0.9468  0.7038
  838MOL0     C13062   2.942  10.242   1.545 -0.3057  1.1228  0.4726
  838MOL0     H13063   3.106  10.808   1.672 -2.0026  4.2271  0.8067
  838MOL0     H13064   3.323  10.868   1.784  1.1752 -1.7399 -2.3350
  838MOL0     H13065   3.369  10.728   2.202  0.7072  2.6922  0.0978
  838MOL0     H13066   3.472  10.613   2.109  3.1499  0.7806  1.9400
  838MOL0     H13067   3.587  10.798   2.283 -0.8017 -1.9297  0.5114
  838MOL0     H13068   3.565  10.895   2.134  3.0690  0.2839  0.6023
  838MOL0     H13069   3.773  10.813   2.143 -1.3717  1.2895 -1.6217
  838MOL0     H13070   3.709  10.721   2.012  0.8354  0.6075 -0.5301
  838MOL0     H13071   3.777  10.648   2.299 -1.5282 -1.4667  0.6777
  838MOL0     H13072   3.670  10.541   2.200 -1.4792  2.0523 -0.9052
  838MOL0     H13073   3.842  10.512   2.045 -2.2025  1.4063 -0.1383
  838MOL0     H13074   3.958  10.608   2.157  0.9737 -0.9799  1.3638
  838MOL0     H13075   4.013  10.386   2.221 -0.4455 -1.7395  2.1635
  838MOL0     H13076   3.897  10.446   2.335 -3.4036 -2.6261  1.3022
  838MOL0     H13077   3.764  10.285   2.116  2.7151  1.1552 -1.4687
  838MOL0     H13078   3.744  10.298   2.291 -0.2778  4.5777 -0.6308
  838MOL0     H13079   3.812  10.086   2.226  0.3588  0.1871 -0.0484
  838MOL0     H13080   3.943  10.128   2.126  4.5627 -3.2584  2.7736
  838MOL0     H13081   4.087   9.980   2.249  2.4622 -2.6504  2.6912
  838MOL0     H13082   4.191   9.856   2.526 -1.3579  1.4166 -0.5584
  838MOL0     H13083   4.311   9.939   2.436 -1.0331  0.5369 -0.5769
  838MOL0     H13084   4.329  10.112   2.609 -0.6581  0.1246  0.4270
  838MOL0     H13085   4.232  10.011   2.724  0.3479  0.0103  1.3761
  838MOL0     H13086   4.483   9.908   2.592  2.2760  3.4263  0.1932
  838MOL0     H13087   4.389   9.835   2.728  0.5427  0.1157  1.1876
  838MOL0     H13088   4.440  10.067   2.857  0.6006 -1.1028  0.7481
  838MOL0     H13089   4.541  10.104   2.732 -1.2331  0.1740 -0.3546
  838MOL0     H13090   4.801   9.764   2.891 -0.9070  2.8877 -0.4495
  838MOL0     H13091   4.779   9.592   3.064  0.3082  1.6285  0.8723
  838MOL0     H13092   4.374   9.243   3.257 -0.3784  0.3707 -0.4161
  838MOL0     H13093   4.313   9.113   3.441  0.0909 -0.0628 -2.4185
  838MOL0     H13094   4.306   9.299   3.853 -2.1031 -1.0755  1.4185
  838MOL0     H13095   4.277   9.129   3.889 -1.0239  0.2799  0.3055
  838MOL0     H13096   4.520   9.101   3.858  1.7079  0.8079 -0.7076
  838MOL0     H13097   4.543   9.284   3.851  1.1557 -1.0049 -0.5325
  838MOL0     H13098   4.417   9.296   4.060 -4.4149 -1.0616 -3.1732
  838MOL0     H13099   4.462   9.114   4.076  3.9001 -1.3664 -2.7728
  838MOL0     H13100   4.685   9.320   4.019 -0.9164 -2.4882 -4.4060
  838MOL0     H13101   4.697   9.153   4.048 -0.1155  0.2298  0.0235
  838MOL0     H13102   4.581   9.365   4.251 -0.2503 -0.7439  0.5505
  838MOL0     H13103   4.753   9.323   4.244 -0.8464 -0.7492  3.1957
  838MOL0     H13104   4.617   9.226   4.419  1.6162 -1.3769  0.5702
  838MOL0     H13105   4.539   9.126   4.290 -0.1092  0.1882  1.1668
  838MOL0     H13106   4.838   9.140   4.329 -1.8263  2.0656 -0.6734
  838MOL0     H13107   4.742   9.009   4.238  3.3072 -0.4930 -0.7894
  838MOL0     H13108   4.812   8.898   4.433  1.8037 -0.3878  0.4528
  838MOL0     H13109   4.756   9.024   4.549  0.8907 -0.3323  0.0528
  838MOL0     H13110   4.446   9.423   3.712  2.0627 -1.9106 -1.0120
  838MOL0     H13111   4.477   9.579   3.526  0.1263  0.8415  0.0006
  838MOL0     H13112   4.390   9.720   3.160 -0.7936 -1.4036 -0.3187
  838MOL0     H13113   4.396   9.890   2.983 -0.3342 -1.6242 -3.8273
  838MOL0     H13114   3.221  10.608   2.112  3.9784  0.0181 -0.4077
  838MOL0     H13115   3.025  10.546   2.015  1.6072 -0.9212  1.7919
  838MOL0     H13116   2.681  10.611   1.697 -0.9173 -0.1658  0.9952
  838MOL0     H13117   2.473  10.487   1.638 -0.7686  1.2788 -1.4989
  838MOL0     H13118   2.511  10.083   1.621 -2.2104 -2.3978  0.3326
  838MOL0     H13119   2.462  10.077   1.456  1.4710  0.3347  0.5572
  838MOL0     H13120   2.320  10.076   1.725  1.3161 -3.3838  0.4260
  838MOL0     H13121   2.342   9.942   1.618  0.2991 -0.3319 -0.3211
  838MOL0     H13122   2.159  10.180   1.550 -0.0261 -0.1469 -1.0937
  838MOL0     H13123   2.107  10.020   1.615 -0.2369  0.4755  0.9657
  838MOL0     H13124   2.262  10.057   1.365  1.1271  1.2559  2.0667
  838MOL0     H13125   2.168   9.914   1.413 -0.0456  0.9407 -0.0266
  838MOL0     H13126   1.858  10.105   1.234 -3.2044  1.2984  3.2321
  838MOL0     H13127   2.676  10.156   1.504  1.7811  0.0038 -0.9810
  838MOL0     H13128   3.004  10.304   1.480 -1.1021  1.8231  0.3598
  838MOL0     H13129   3.017  10.212   1.619  2.0131 -3.4635 -3.2175
  838MOL0     H13130   2.924  10.152   1.486  1.3099 -0.1526  1.8230
  839MOL0     O13131   9.048   8.023   4.884  0.0826 -0.1989  0.0785
  839MOL0     C13132   9.031   7.940   4.795  0.0577 -0.0737 -0.2761
  839MOL0     O13133   9.062   7.811   4.799 -0.1165 -0.4368  0.6911
  839MOL0     C13134   9.106   7.765   4.915 -0.8914 -0.7826  0.3833
  839MOL0     C13135   9.232   7.796   4.961  0.3061  0.6126  0.3741
  839MOL0     C13136   9.286   7.740   5.083 -0.8811 -0.8222 -0.2989
  839MOL0     C13137   9.216   7.651   5.151  0.4357  0.8140 -0.1780
  839MOL0     O13138   9.287   7.587   5.251  0.1270  0.1798 -0.4948
  839MOL0     C13139   9.225   7.477   5.316 -0.5247  0.6495 -0.5947
  839MOL0     C13140   9.320   7.434   5.430 -0.6320  0.2512  0.2489
  839MOL0     C13141   9.297   7.286   5.484 -0.4842 -0.6582 -0.0679
  839MOL0     C13142   9.378   7.256   5.604 -0.0753 -0.0709  1.2416
  839MOL0     C13143   9.315   7.140   5.659  0.2197  1.0629 -0.6243
  839MOL0     C13144   9.188   7.174   5.741 -0.4441 -0.2747  0.2642
  839MOL0     C13145   9.094   7.042   5.742 -0.5351 -1.1502  0.1838
  839MOL0     C13146   8.984   7.064   5.843 -0.5979  0.2508  0.2233
  839MOL0     N13147   9.030   7.019   5.973 -0.6448 -0.1902  0.1352
  839MOL0     C13148   8.946   6.959   6.068  0.2985 -0.3516  0.8847
  839MOL0     C13149   9.019   6.929   6.169 -0.3001 -0.6556 -0.4445
  839MOL0     C13150   8.956   6.898   6.307 -0.2565 -0.0197 -1.5065
  839MOL0     C13151   8.892   6.765   6.325  0.7799  0.5951  0.3404
  839MOL0     C13152   8.828   6.753   6.462 -0.1609 -0.1063  0.3780
  839MOL0     C13153   8.790   6.615   6.506  0.6095  0.4753 -0.3452
  839MOL0     O13154   8.675   6.571   6.426 -0.3338 -0.2302 -0.6273
  839MOL0     C13155   8.544   6.600   6.451  0.9362 -1.1319 -0.6591
  839MOL0     C13156   8.501   6.689   6.554  1.0889 -0.4265 -0.6846
  839MOL0     C13157   8.362   6.714   6.578  0.2005  0.6721 -0.5421
  839MOL0     C13158   8.264   6.656   6.493  0.6462  0.5445  1.1084
  839MOL0     C13159   8.124   6.675   6.527  0.1140 -0.9369  0.4014
  839MOL0     O13160   8.096   6.800   6.595 -0.5714 -0.0386  0.2033
  839MOL0     C13161   7.965   6.825   6.601  0.0784 -0.3660 -0.8714
  839MOL0     C13162   7.913   6.858   6.724 -0.2723 -0.5587 -0.6190
  839MOL0     C13163   7.785   6.877   6.754  0.2323 -0.3855 -0.2814
  839MOL0     C13164   7.690   6.878   6.652  1.4382 -0.0284  0.1226
  839MOL0     O13165   7.554   6.898   6.671 -0.2842 -0.4467  0.2746
  839MOL0     C13166   7.505   6.983   6.774  0.0054 -0.2861  0.2772
  839MOL0     C13167   7.348   6.986   6.768 -0.3041  0.8541  0.4533
  839MOL0     C13168   7.282   6.998   6.630 -0.5600  0.4967 -0.5419
  839MOL0     C13169   7.140   7.065   6.639  0.4940  0.3145 -0.4826
  839MOL0     C13170   7.096   7.096   6.493 -0.6720  0.5416  0.3340
  839MOL0     C13171   6.958   7.152   6.484 -0.5594 -0.8351  0.0125
  839MOL0     C13172   6.904   7.160   6.349 -0.2768 -0.5963  0.5756
  839MOL0     C13173   6.782   7.253   6.323 -0.3913 -0.3160  1.0616
  839MOL0    Cl13174   6.737   7.274   6.149  0.4965 -0.3146  0.1032
  839MOL0     C13175   7.731   6.859   6.525  0.2540  0.9671  0.3448
  839MOL0     C13176   7.867   6.846   6.494 -1.2739 -0.6504 -0.5332
  839MOL0     O13177   8.044   6.583   6.499 -0.4078  0.5766  0.2276
  839MOL0     C13178   8.309   6.575   6.387 -0.6180  0.3118 -0.5490
  839MOL0     C13179   8.446   6.548   6.367  1.4153  0.1745  0.7461
  839MOL0     N13180   9.153   6.946   6.138 -0.3636 -0.3129 -0.9721
  839MOL0     N13181   9.158   6.991   6.018 -0.3554  0.0103  0.4524
  839MOL0     C13182   9.090   7.619   5.107  0.4295  0.0008 -0.8529
  839MOL0     C13183   9.033   7.667   4.985  1.0697 -0.1537 -0.3571
  839MOL0     C13184   8.981   8.001   4.669 -0.7003  0.3076  0.5977
  839MOL0     C13185   8.910   8.121   4.668  0.2100  0.0337  0.8152
  839MOL0     C13186   8.869   8.191   4.557  0.3065  0.8455  0.2233
  839MOL0     C13187   8.902   8.132   4.435 -0.0515 -0.3994  0.0738
  839MOL0     O13188   8.862   8.199   4.317  0.3438 -0.2485  0.0990
  839MOL0     C13189   8.917   8.328   4.298 -0.8447 -0.2368  0.5190
  839MOL0     C13190   9.062   8.327   4.247 -0.8302  0.4359 -0.7023
  839MOL0     C13191   9.161   8.335   4.373 -0.7844 -0.3232  0.7366
  839MOL0     C13192   9.292   8.379   4.306 -0.0809 -0.9262 -0.2871
  839MOL0     C13193   9.395   8.401   4.406 -0.2093  0.1465  0.4577
  839MOL0     C13194   9.483   8.443   4.482 -0.3978  0.4942 -0.9024
  839MOL0     C13195   8.957   7.999   4.423 -0.6865 -0.1643  0.0160
  839MOL0     C13196   8.992   7.933   4.538  0.4947  0.2962 -0.4144
  839MOL0     C13197   9.038   7.790   4.536 -1.2212  0.8103  0.2720
  839MOL0     H13198   9.294   7.869   4.911 -1.1433  0.7353 -1.3468
  839MOL0     H13199   9.386   7.764   5.118  0.6380 -2.2430 -3.2406
  839MOL0     H13200   9.130   7.500   5.365  1.2922 -1.3669  4.5073
  839MOL0     H13201   9.210   7.402   5.238 -0.9917 -0.2071  0.2995
  839MOL0     H13202   9.308   7.502   5.515 -0.1948 -2.1073  2.3309
  839MOL0     H13203   9.419   7.445   5.386 -2.0887  0.8156 -3.1977
  839MOL0     H13204   9.330   7.212   5.410 -0.4295 -2.0977  1.3492
  839MOL0     H13205   9.190   7.284   5.505 -0.8846  0.3961 -1.7560
  839MOL0     H13206   9.485   7.243   5.586 -0.1667  2.0506 -1.5827
  839MOL0     H13207   9.364   7.347   5.664 -2.0785  2.7412 -3.0300
  839MOL0     H13208   9.297   7.067   5.579 -0.7370  0.3575  0.2164
  839MOL0     H13209   9.379   7.100   5.738 -2.6347 -0.0697  1.2858
  839MOL0     H13210   9.212   7.212   5.840  2.1465 -1.5923  0.2197
  839MOL0     H13211   9.124   7.248   5.692 -1.8832 -1.2166  0.6253
  839MOL0     H13212   9.143   6.949   5.772 -5.2050 -3.2883  2.2659
  839MOL0     H13213   9.050   7.020   5.644  2.6815 -1.5020 -1.3198
  839MOL0     H13214   8.970   7.172   5.857 -0.5724  0.2647  0.1451
  839MOL0     H13215   8.884   7.027   5.822 -0.9772  1.4565 -0.1979
  839MOL0     H13216   8.838   6.949   6.064  0.2909 -0.1266 -3.4529
  839MOL0     H13217   9.037   6.895   6.381 -0.7172 -0.9243 -1.0192
  839MOL0     H13218   8.896   6.986   6.332  2.2413  1.3792  0.0502
  839MOL0     H13219   8.806   6.749   6.260 -0.4415  1.7262  1.6061
  839MOL0     H13220   8.962   6.683   6.307 -0.5081 -0.0982 -1.9007
  839MOL0     H13221   8.738   6.813   6.449  1.4436  1.9644 -2.2856
  839MOL0     H13222   8.898   6.793   6.536 -1.8765  1.7303  1.0823
  839MOL0     H13223   8.771   6.620   6.614 -0.7043  1.1050 -0.5871
  839MOL0     H13224   8.877   6.552   6.483  1.4954  1.4450  0.2712
  839MOL0     H13225   8.566   6.722   6.635  0.3312  3.0307 -1.3241
  839MOL0     H13226   8.321   6.783   6.653  0.2699 -0.1300  0.2497
  839MOL0     H13227   7.977   6.871   6.811 -0.5039  1.0514 -0.6445
  839MOL0     H13228   7.743   6.870   6.853 -1.2111 -1.6738 -0.9452
  839MOL0     H13229   7.532   6.942   6.872 -3.0449 -1.6096  0.6988
  839MOL0     H13230   7.539   7.086   6.763 -1.4251  0.0452 -1.6435
  839MOL0     H13231   7.315   6.885   6.795 -2.4975  0.4021 -3.2416
  839MOL0     H13232   7.302   7.053   6.840 -1.6760 -0.2678  0.6611
  839MOL0     H13233   7.360   7.044   6.569  0.1789  1.6908  1.2582
  839MOL0     H13234   7.261   6.896   6.594  2.0053 -0.4130  0.3696
  839MOL0     H13235   7.137   7.165   6.684 -0.1443 -0.2273  0.7394
  839MOL0     H13236   7.063   7.011   6.695  0.1489 -1.8180 -2.8598
  839MOL0     H13237   7.097   6.995   6.452 -0.3758 -0.1350  1.9200
  839MOL0     H13238   7.173   7.156   6.444 -0.8563  0.0332 -0.6009
  839MOL0     H13239   6.892   7.097   6.552  1.1061 -0.7829  1.7589
  839MOL0     H13240   6.970   7.255   6.520 -1.2856 -1.2951  1.6392
  839MOL0     H13241   6.873   7.061   6.314 -1.6770 -0.0706  0.2382
  839MOL0     H13242   6.982   7.188   6.277  0.3942 -3.4309  0.1025
  839MOL0     H13243   6.689   7.225   6.373 -0.9765 -0.1023  0.1213
  839MOL0     H13244   6.811   7.353   6.356 -0.4565 -0.7211  2.4132
  839MOL0     H13245   7.662   6.840   6.444 -2.5576 -1.8475  3.1062
  839MOL0     H13246   7.897   6.842   6.390  4.1072  1.8287  0.5946
  839MOL0     H13247   8.239   6.517   6.327 -1.6605  0.2192  0.6962
  839MOL0     H13248   8.476   6.471   6.297  1.6465  1.3490 -0.4897
  839MOL0     H13249   9.025   7.544   5.152  1.8532 -1.5205 -1.2204
  839MOL0     H13250   8.930   7.645   4.961 -1.3768  3.7562  4.6743
  839MOL0     H13251   8.886   8.160   4.767 -1.3116  0.3129  0.3588
  839MOL0     H13252   8.827   8.290   4.572  0.6536  0.9359  0.5972
  839MOL0     H13253   8.909   8.396   4.384 -4.7337  2.3590 -1.6244
  839MOL0     H13254   8.852   8.374   4.223  0.6615  2.1256  0.5292
  839MOL0     H13255   9.062   8.417   4.185 -0.9568  1.1300  0.2823
  839MOL0     H13256   9.083   8.243   4.179 -0.4435 -0.1378  0.1188
  839MOL0     H13257   9.178   8.243   4.429  1.4554  0.3870  1.3111
  839MOL0     H13258   9.122   8.405   4.447 -0.8616  0.2265  0.1902
  839MOL0     H13259   9.329   8.308   4.231 -1.1596 -1.7409 -0.0762
  839MOL0     H13260   9.280   8.474   4.254  0.2963 -0.8154 -0.1761
  839MOL0     H13261   9.550   8.475   4.559 -0.3694 -1.7899  0.1230
  839MOL0     H13262   8.965   7.937   4.334 -0.2927 -1.9974  1.2895
  839MOL0     H13263   8.977   7.724   4.598 -1.9511  3.1504  2.2101
  839MOL0     H13264   9.035   7.749   4.435  0.3730  1.2199  0.0318
  839MOL0     H13265   9.138   7.782   4.580 -1.7301 -0.4413  1.2843
  840MOL0     O13266   5.168   3.946   2.169 -0.6551 -0.1002  0.1322
  840MOL0     C13267   5.218   3.941   2.054 -1.1832 -0.1412 -0.0563
  840MOL0     O13268   5.156   3.986   1.944  1.0051  0.8385 -0.3837
  840MOL0     C13269   5.036   4.053   1.972 -0.4021 -0.6313 -0.7173
  840MOL0     C13270   4.907   4.002   1.968  1.2667 -0.2345  0.4850
  840MOL0     C13271   4.797   4.089   1.994  0.4513  0.4070 -0.4455
  840MOL0     C13272   4.812   4.214   2.043  0.3042 -0.0188  0.6131
  840MOL0     O13273   4.705   4.284   2.085 -0.2285  0.2874 -0.4244
  840MOL0     C13274   4.704   4.410   2.157 -0.4715  0.7675  0.6578
  840MOL0     C13275   4.560   4.450   2.189 -0.8438 -1.2978 -0.2009
  840MOL0     C13276   4.495   4.358   2.287  0.1800 -0.0220 -1.2327
  840MOL0     C13277   4.382   4.428   2.368 -1.6756 -0.2597  0.9233
  840MOL0     C13278   4.331   4.338   2.479  0.3325  0.2130 -0.7784
  840MOL0     C13279   4.357   4.383   2.628  0.1186  0.8846 -0.0464
  840MOL0     C13280   4.508   4.375   2.657 -0.2767 -0.0811 -0.7280
  840MOL0     C13281   4.538   4.426   2.803 -1.1378  1.1221  0.4637
  840MOL0     N13282   4.460   4.542   2.838 -0.0483  0.6351  0.1685
  840MOL0     C13283   4.340   4.541   2.900  0.0523 -0.2519  0.1478
  840MOL0     C13284   4.301   4.662   2.928 -0.6639 -0.4040 -2.1254
  840MOL0     C13285   4.169   4.698   2.975 -1.0092 -0.1863  1.0876
  840MOL0     C13286   4.064   4.667   2.870 -0.0179 -0.7129 -0.2431
  840MOL0     C13287   3.920   4.654   2.933  0.2111  0.2121  0.2733
  840MOL0     C13288   3.883   4.510   2.961 -0.6460  0.0644  0.0760
  840MOL0     O13289   3.846   4.436   2.842  0.3986 -0.3306  0.3481
  840MOL0     C13290   3.797   4.309   2.855  0.1542  0.0529 -0.3689
  840MOL0     C13291   3.755   4.243   2.735  1.0374  0.1072 -0.3470
  840MOL0     C13292   3.679   4.119   2.726 -0.2231  0.6563  0.2498
  840MOL0     C13293   3.655   4.064   2.857  0.3751  0.8388  0.9111
  840MOL0     C13294   3.572   3.937   2.867 -0.6456  0.4738  1.2936
  840MOL0     O13295   3.526   3.910   2.991 -0.1971  0.5614 -0.0855
  840MOL0     C13296   3.470   3.786   3.025  0.7014  0.0305 -0.8916
  840MOL0     C13297   3.387   3.785   3.134  0.3513 -0.6067  0.0542
  840MOL0     C13298   3.353   3.654   3.184  0.6072 -0.2279 -0.3327
  840MOL0     C13299   3.389   3.529   3.129  0.0115 -0.3794 -0.0997
  840MOL0     O13300   3.359   3.422   3.197  0.1184 -0.9878  1.2100
  840MOL0     C13301   3.376   3.282   3.142 -0.2203  0.2419 -0.2005
  840MOL0     C13302   3.402   3.170   3.252  0.3455  0.8681 -1.0290
  840MOL0     C13303   3.317   3.042   3.219 -0.4729  0.8772  0.3892
  840MOL0     C13304   3.338   2.918   3.318  0.4272 -0.4030  0.7544
  840MOL0     C13305   3.257   2.944   3.441 -0.6321  0.1352  0.2973
  840MOL0     C13306   3.245   2.820   3.523 -0.3025 -0.1808  0.0478
  840MOL0     C13307   3.380   2.776   3.595 -0.5587  0.0395  1.0737
  840MOL0     C13308   3.352   2.671   3.706 -0.0628 -0.3565 -0.4845
  840MOL0    Cl13309   3.335   2.509   3.641  0.0407 -0.3214 -0.0802
  840MOL0     C13310   3.469   3.537   3.009  0.6879  0.2856  0.7343
  840MOL0     C13311   3.511   3.662   2.975  0.1198  0.8203  0.4568
  840MOL0     O13312   3.541   3.879   2.766  0.5882  0.2465  0.5844
  840MOL0     C13313   3.709   4.118   2.980  0.0789 -0.2523  1.0402
  840MOL0     C13314   3.781   4.242   2.975  0.2010 -0.9875  0.6750
  840MOL0     N13315   4.396   4.744   2.869 -0.1339 -0.2759 -0.0855
  840MOL0     N13316   4.494   4.671   2.818  0.0876  0.4480  0.5372
  840MOL0     C13317   4.943   4.262   2.047 -0.0696  0.0631  1.1166
  840MOL0     C13318   5.049   4.185   2.008 -0.6397 -0.9253  0.4240
  840MOL0     C13319   5.347   3.868   2.027  0.0794  0.0661 -0.6177
  840MOL0     C13320   5.420   3.818   2.131  0.1450 -0.8684  0.7836
  840MOL0     C13321   5.548   3.771   2.118  0.0509 -0.3108  0.4119
  840MOL0     C13322   5.598   3.755   1.991  0.2978  0.0160 -0.1362
  840MOL0     O13323   5.716   3.691   1.962 -1.1854 -0.1883 -0.0616
  840MOL0     C13324   5.803   3.658   2.074  0.3249  0.1550 -0.1359
  840MOL0     C13325   5.930   3.602   2.019 -0.1367  0.6223  0.2293
  840MOL0     C13326   6.000   3.515   2.133 -0.7046 -0.3811 -0.2735
  840MOL0     C13327   6.125   3.454   2.069 -0.5770 -0.5731  0.5667
  840MOL0     C13328   6.180   3.367   2.170 -0.1691  0.5907  1.2699
  840MOL0     C13329   6.215   3.298   2.260  0.2312 -0.1122  0.1250
  840MOL0     C13330   5.529   3.803   1.881 -0.1609  0.0727 -0.6931
  840MOL0     C13331   5.403   3.863   1.897  0.2196 -0.1734 -1.2008
  840MOL0     C13332   5.341   3.904   1.768 -0.3874  0.9076 -0.0496
  840MOL0     H13333   4.891   3.899   1.939 -0.1449 -0.3117  1.4836
  840MOL0     H13334   4.699   4.042   1.990 -0.2512  1.7927 -0.2336
  840MOL0     H13335   4.762   4.396   2.249  0.5825  0.2159 -0.0695
  840MOL0     H13336   4.761   4.485   2.101  1.4614  0.9612  2.7184
  840MOL0     H13337   4.492   4.441   2.104  0.9540 -2.2073 -1.6084
  840MOL0     H13338   4.554   4.554   2.225  3.2447 -0.3870 -1.5728
  840MOL0     H13339   4.569   4.324   2.360  2.6830  1.9485 -2.6905
  840MOL0     H13340   4.451   4.269   2.240  1.0007 -0.7447 -0.6637
  840MOL0     H13341   4.425   4.524   2.399  1.4107 -1.3615  0.4310
  840MOL0     H13342   4.305   4.465   2.299 -2.0486 -3.0270 -0.2851
  840MOL0     H13343   4.222   4.326   2.472  0.4919 -2.4213  0.1681
  840MOL0     H13344   4.366   4.235   2.488 -1.4638 -0.3269  0.7824
  840MOL0     H13345   4.320   4.486   2.631  0.2985  1.0810 -2.4042
  840MOL0     H13346   4.306   4.324   2.704 -1.3083  2.4307  0.2590
  840MOL0     H13347   4.566   4.431   2.584 -2.3454  1.8071 -1.0134
  840MOL0     H13348   4.535   4.269   2.666  1.4056  0.4773  3.0182
  840MOL0     H13349   4.519   4.355   2.884  1.7370  0.9261  1.0380
  840MOL0     H13350   4.644   4.451   2.797 -1.2961  1.4908 -1.4927
  840MOL0     H13351   4.274   4.460   2.930  1.4007 -0.8703  1.5953
  840MOL0     H13352   4.151   4.640   3.065 -3.3327 -2.2328 -0.5758
  840MOL0     H13353   4.170   4.803   3.007 -4.2639 -0.1432  1.3751
  840MOL0     H13354   4.056   4.748   2.796  2.2026 -0.6095 -0.4423
  840MOL0     H13355   4.081   4.574   2.814 -1.5968 -1.4332  0.4281
  840MOL0     H13356   3.849   4.706   2.867  1.6113 -0.4339 -1.8526
  840MOL0     H13357   3.919   4.709   3.027  1.9358  2.6737 -1.0362
  840MOL0     H13358   3.816   4.504   3.047  0.8986 -0.3439  1.2978
  840MOL0     H13359   3.968   4.460   3.008  1.7612  4.4458  0.9204
  840MOL0     H13360   3.774   4.288   2.638 -0.1739  1.9768  0.2427
  840MOL0     H13361   3.653   4.077   2.630  1.2507  0.2857 -0.0174
  840MOL0     H13362   3.357   3.875   3.187  2.6877  1.0126 -1.1544
  840MOL0     H13363   3.297   3.650   3.277  0.7296  1.5010 -0.1505
  840MOL0     H13364   3.288   3.258   3.082 -0.7310  1.0043  0.2139
  840MOL0     H13365   3.468   3.282   3.083 -0.5012 -1.0325 -0.6655
  840MOL0     H13366   3.509   3.149   3.251  0.0179 -1.0125 -2.0746
  840MOL0     H13367   3.373   3.215   3.348 -1.4874  1.3016 -1.7396
  840MOL0     H13368   3.212   3.074   3.218 -1.2325 -1.4113 -0.5704
  840MOL0     H13369   3.341   3.010   3.118 -0.5321  0.2750  0.5628
  840MOL0     H13370   3.442   2.899   3.346  0.3846 -1.9265 -0.0044
  840MOL0     H13371   3.303   2.822   3.277 -0.4006 -0.8402  2.3987
  840MOL0     H13372   3.153   2.978   3.429 -1.3645 -1.5051  1.6762
  840MOL0     H13373   3.294   3.039   3.482  1.8893  0.2500 -1.9246
  840MOL0     H13374   3.164   2.831   3.596 -1.7349  1.1225 -1.6537
  840MOL0     H13375   3.198   2.741   3.463 -1.4266  0.1150  0.5097
  840MOL0     H13376   3.407   2.863   3.656  2.3312 -0.3665  0.5466
  840MOL0     H13377   3.455   2.744   3.522 -0.9847 -0.4099  0.8309
  840MOL0     H13378   3.435   2.664   3.778 -0.0402 -0.1615 -0.4904
  840MOL0     H13379   3.262   2.705   3.758 -1.9478  0.3600 -3.9213
  840MOL0     H13380   3.509   3.446   2.967  3.4272  0.0863  3.4494
  840MOL0     H13381   3.589   3.668   2.900 -0.6942  1.5976 -0.3593
  840MOL0     H13382   3.698   4.065   3.074  0.8040 -2.6237 -0.1189
  840MOL0     H13383   3.819   4.281   3.069 -1.0301 -1.2710  1.3036
  840MOL0     H13384   4.960   4.365   2.078  1.1754  0.4986 -0.8082
  840MOL0     H13385   5.152   4.221   2.009 -0.9559  0.1207 -1.5701
  840MOL0     H13386   5.389   3.845   2.231 -0.0325  0.8828  0.2831
  840MOL0     H13387   5.608   3.743   2.203  0.1414  3.0549  1.6104
  840MOL0     H13388   5.752   3.575   2.124  1.0717 -1.3162 -1.6933
  840MOL0     H13389   5.806   3.740   2.146 -0.9784 -0.3395  0.5129
  840MOL0     H13390   5.993   3.690   1.998 -0.0012  0.2837 -0.8579
  840MOL0     H13391   5.909   3.548   1.926  0.6044  0.1935  0.3004
  840MOL0     H13392   5.939   3.446   2.191  0.9269  0.6733  2.9552
  840MOL0     H13393   6.039   3.589   2.204 -0.5958 -2.0619  1.4878
  840MOL0     H13394   6.092   3.397   1.982 -1.6016 -2.3219  2.0437
  840MOL0     H13395   6.197   3.528   2.031 -4.8396  2.0714 -3.3385
  840MOL0     H13396   6.241   3.220   2.329  0.1433 -0.8285 -0.6377
  840MOL0     H13397   5.576   3.799   1.784  0.3404 -2.2027 -0.4043
  840MOL0     H13398   5.243   3.855   1.756 -0.0239  0.0075  0.5872
  840MOL0     H13399   5.338   4.013   1.770 -2.6642  0.9190 -0.6784
  840MOL0     H13400   5.406   3.878   1.684  3.4246 -0.2124  3.0000
  841MOL0     O13401  10.669   0.631   2.236  0.3280 -0.2573 -0.0308
  841MOL0     C13402  10.701   0.574   2.134 -0.1197 -0.0429 -0.5230
  841MOL0     O13403  10.641   0.470   2.068 -0.0352 -0.1532  0.3243
  841MOL0     C13404  10.510   0.451   2.104  0.1732 -0.5241  0.6553
  841MOL0     C13405  10.472   0.439   2.237  0.3039  0.2489 -1.0305
  841MOL0     C13406  10.343   0.432   2.273  0.0809 -0.3550 -0.8158
  841MOL0     C13407  10.245   0.415   2.175 -0.4627 -0.0639 -1.7513
  841MOL0     O13408  10.116   0.398   2.212 -0.1678 -1.5608  0.3843
  841MOL0     C13409  10.098   0.285   2.299  0.5463  0.0407 -0.0925
  841MOL0     C13410   9.951   0.271   2.343 -0.1322  0.9238 -1.2408
  841MOL0     C13411   9.840   0.276   2.239 -0.0274 -0.1205  0.4122
  841MOL0     C13412   9.813   0.415   2.195 -0.6337 -0.3898  1.0113
  841MOL0     C13413   9.683   0.421   2.098 -0.1550 -0.0562 -0.2270
  841MOL0     C13414   9.640   0.575   2.074 -0.2613  0.0396  1.3091
  841MOL0     C13415   9.501   0.592   2.020 -0.4638 -0.6289  1.2590
  841MOL0     C13416   9.468   0.532   1.888 -0.9014  0.3697 -0.6125
  841MOL0     N13417   9.332   0.570   1.833 -0.0216 -0.2830  0.1110
  841MOL0     C13418   9.283   0.699   1.827  0.8164 -0.9201  0.3637
  841MOL0     C13419   9.163   0.681   1.773  0.8874 -0.4432  0.2784
  841MOL0     C13420   9.047   0.787   1.759  0.2343 -0.3725 -0.5050
  841MOL0     C13421   9.067   0.886   1.646 -0.2566 -1.2907  0.5784
  841MOL0     C13422   8.967   1.000   1.669 -0.3366  0.3755  0.8080
  841MOL0     C13423   8.990   1.121   1.575  0.6772  1.4119  0.1865
  841MOL0     O13424   8.906   1.228   1.636 -0.4523  0.2451 -0.4209
  841MOL0     C13425   8.777   1.248   1.586 -0.1118  1.1281  0.7760
  841MOL0     C13426   8.712   1.343   1.655 -0.2540  0.1332  0.1190
  841MOL0     C13427   8.587   1.389   1.609  0.2798  0.9169  0.5017
  841MOL0     C13428   8.518   1.324   1.502 -1.2812 -0.0954  0.1187
  841MOL0     C13429   8.386   1.372   1.462  0.0166 -0.0415  0.5560
  841MOL0     O13430   8.318   1.436   1.564  0.4056  0.0754 -0.8690
  841MOL0     C13431   8.190   1.486   1.540  0.1023 -0.7612 -0.5646
  841MOL0     C13432   8.173   1.570   1.427 -0.9772 -0.6897  1.2531
  841MOL0     C13433   8.043   1.626   1.405 -0.0340  0.2329 -0.1908
  841MOL0     C13434   7.934   1.578   1.485  0.2352  0.5082  0.2255
  841MOL0     O13435   7.808   1.625   1.468 -0.3190  0.0392 -0.1430
  841MOL0     C13436   7.785   1.759   1.492  0.1109  1.0155  0.1013
  841MOL0     C13437   7.639   1.797   1.474 -0.8726  0.1697  0.6355
  841MOL0     C13438   7.576   1.760   1.341  0.8171 -0.5706 -0.1148
  841MOL0     C13439   7.430   1.797   1.341  0.2316  0.4004  1.0384
  841MOL0     C13440   7.352   1.733   1.231 -0.0400  0.6718  1.1628
  841MOL0     C13441   7.220   1.806   1.196  0.7197  0.4086  0.4373
  841MOL0     C13442   7.136   1.751   1.083 -0.1944  0.2824 -0.0555
  841MOL0     C13443   7.089   1.607   1.111 -0.1512 -0.0727 -0.0385
  841MOL0    Cl13444   6.921   1.622   1.177 -0.1618  0.3370  0.0501
  841MOL0     C13445   7.950   1.477   1.571  0.1861 -1.0984 -0.0405
  841MOL0     C13446   8.079   1.433   1.603  0.9905 -0.2508  0.4465
  841MOL0     O13447   8.343   1.338   1.349  0.4481  0.0004  0.5178
  841MOL0     C13448   8.590   1.218   1.444 -0.1497  0.3327  0.6241
  841MOL0     C13449   8.716   1.183   1.479 -0.3739 -0.2443  0.3306
  841MOL0     N13450   9.142   0.552   1.732  0.1194 -0.0219 -0.6169
  841MOL0     N13451   9.255   0.491   1.755  0.1644  0.2020 -0.7301
  841MOL0     C13452  10.285   0.429   2.040  0.1826  0.0837  0.2480
  841MOL0     C13453  10.421   0.443   1.997 -0.3621  0.4598 -0.3006
  841MOL0     C13454  10.844   0.605   2.086 -0.0640 -0.1906  0.4682
  841MOL0     C13455  10.891   0.738   2.100 -0.1816  0.2778  0.9946
  841MOL0     C13456  11.022   0.775   2.045 -0.2858 -0.2390 -1.1262
  841MOL0     C13457  11.107   0.676   1.999 -0.4872  0.8949 -0.3560
  841MOL0     O13458  11.233   0.702   1.952 -0.6274  0.4695  0.4696
  841MOL0     C13459  11.277   0.834   1.922 -0.6394  0.2714 -0.7408
  841MOL0     C13460  11.384   0.837   1.814  0.4095 -0.4437 -1.3151
  841MOL0     C13461  11.401   0.983   1.759 -0.7293  0.8440  0.6111
  841MOL0     C13462  11.454   0.982   1.615 -1.0409 -0.0834  0.5361
  841MOL0     C13463  11.588   0.919   1.615  0.1713  1.3031  0.3525
  841MOL0     C13464  11.692   0.858   1.596  0.8403  0.1898 -0.6010
  841MOL0     C13465  11.062   0.537   1.995  0.0337 -0.5833 -0.1221
  841MOL0     C13466  10.935   0.508   2.052  0.3640 -0.2057  0.4895
  841MOL0     C13467  10.905   0.351   2.072 -0.9815 -0.0771 -0.5633
  841MOL0     H13468  10.553   0.436   2.309 -2.4609 -1.6233  2.2846
  841MOL0     H13469  10.316   0.442   2.377 -2.6533  2.7136 -1.6134
  841MOL0     H13470  10.126   0.192   2.249 -1.3070  0.5585 -2.2723
  841MOL0     H13471  10.149   0.298   2.395 -1.1795  1.8586  0.6528
  841MOL0     H13472   9.935   0.351   2.415 -0.9855 -2.1038  2.2319
  841MOL0     H13473   9.946   0.175   2.395  2.3961  0.6807 -1.3250
  841MOL0     H13474   9.743   0.257   2.286 -2.3515  1.8433 -3.0798
  841MOL0     H13475   9.853   0.200   2.162  0.9432  0.8899 -0.4439
  841MOL0     H13476   9.794   0.467   2.289 -3.4141 -4.6460  3.1244
  841MOL0     H13477   9.894   0.441   2.127  1.3994 -1.3218  2.9608
  841MOL0     H13478   9.714   0.376   2.003  2.9561 -0.8565  1.0784
  841MOL0     H13479   9.597   0.360   2.127 -0.7145  0.5292 -0.6042
  841MOL0     H13480   9.634   0.627   2.170 -1.1086  3.1173 -0.2865
  841MOL0     H13481   9.706   0.631   2.008 -3.4728 -0.7385 -3.0258
  841MOL0     H13482   9.485   0.700   2.021 -2.2068 -0.7787 -1.2059
  841MOL0     H13483   9.430   0.537   2.082 -1.1900 -2.3149 -0.9288
  841MOL0     H13484   9.543   0.567   1.816 -2.6032  2.6460 -1.4018
  841MOL0     H13485   9.480   0.423   1.889 -2.7594  0.0717 -2.8535
  841MOL0     H13486   9.319   0.788   1.877 -0.3644  0.4057 -1.0603
  841MOL0     H13487   8.952   0.735   1.743 -0.2879 -0.5548  2.5422
  841MOL0     H13488   9.021   0.836   1.853 -2.7651 -0.0230 -1.4019
  841MOL0     H13489   9.169   0.923   1.636 -0.5631 -0.6821 -0.5158
  841MOL0     H13490   9.046   0.850   1.545 -1.3213  0.3781  0.1584
  841MOL0     H13491   8.967   1.032   1.774 -2.0486  4.4134 -0.2217
  841MOL0     H13492   8.869   0.957   1.646  0.7446 -1.4153 -0.6891
  841MOL0     H13493   8.967   1.106   1.469 -1.4073 -0.0652  0.7800
  841MOL0     H13494   9.097   1.145   1.579  1.4817 -0.9053 -2.9189
  841MOL0     H13495   8.761   1.385   1.742  1.5345 -1.6025 -0.0023
  841MOL0     H13496   8.544   1.476   1.657  0.7384  2.4926 -1.7921
  841MOL0     H13497   8.262   1.606   1.377  0.0754 -3.7454  0.6729
  841MOL0     H13498   8.028   1.711   1.339 -0.7711  2.5051  2.6977
  841MOL0     H13499   7.818   1.781   1.594 -0.3260 -4.9998  1.9208
  841MOL0     H13500   7.837   1.823   1.421 -0.5139 -0.1507 -1.4600
  841MOL0     H13501   7.582   1.739   1.548  2.0699 -2.5740  0.9563
  841MOL0     H13502   7.637   1.906   1.485 -1.5715  0.3552 -1.0192
  841MOL0     H13503   7.630   1.824   1.271  3.8891 -0.7612  1.8724
  841MOL0     H13504   7.590   1.652   1.335  2.2074 -0.3285 -3.2380
  841MOL0     H13505   7.409   1.904   1.349  1.4468  0.6269  1.3054
  841MOL0     H13506   7.404   1.735   1.427  2.2246 -0.0577  1.3486
  841MOL0     H13507   7.343   1.626   1.248 -1.2890  0.4405 -0.7000
  841MOL0     H13508   7.420   1.747   1.146 -1.9991 -0.9786 -0.7773
  841MOL0     H13509   7.157   1.787   1.283 -3.8041  0.8567 -2.3822
  841MOL0     H13510   7.227   1.913   1.175 -2.0387  0.1595 -2.6302
  841MOL0     H13511   7.205   1.749   0.998 -0.5899  0.5505 -0.3839
  841MOL0     H13512   7.053   1.817   1.057  0.6424  1.2517 -0.3213
  841MOL0     H13513   7.090   1.557   1.014 -4.0076 -0.5696  0.0077
  841MOL0     H13514   7.148   1.550   1.183 -0.8981  0.8533  1.3431
  841MOL0     H13515   7.862   1.431   1.614 -0.9653  1.5890  0.6761
  841MOL0     H13516   8.081   1.349   1.672  1.4325 -1.7759 -1.3195
  841MOL0     H13517   8.549   1.151   1.368  1.5123  1.5926 -1.4911
  841MOL0     H13518   8.764   1.099   1.429  2.0111  1.3663 -0.2559
  841MOL0     H13519  10.210   0.434   1.962  0.1689  0.5775  0.2873
  841MOL0     H13520  10.447   0.442   1.892 -4.2793 -4.1562 -1.6028
  841MOL0     H13521  10.822   0.818   2.125  0.0492  0.5444  0.7830
  841MOL0     H13522  11.038   0.882   2.047 -1.8305 -0.0013 -0.2839
  841MOL0     H13523  11.325   0.873   2.012 -2.0522  0.5999 -0.1104
  841MOL0     H13524  11.201   0.910   1.898  0.1670  0.4227 -3.0794
  841MOL0     H13525  11.358   0.765   1.735 -2.6592  0.9989 -1.7673
  841MOL0     H13526  11.477   0.794   1.851  0.0822 -1.2628 -1.4188
  841MOL0     H13527  11.464   1.044   1.824 -0.4720  1.5958 -0.3262
  841MOL0     H13528  11.307   1.039   1.756 -1.1356  0.1308 -0.6155
  841MOL0     H13529  11.380   0.937   1.549 -2.3856  0.6729  1.4715
  841MOL0     H13530  11.453   1.088   1.590  0.8735 -0.4717 -1.4746
  841MOL0     H13531  11.787   0.814   1.573  1.0144 -0.2287  0.7834
  841MOL0     H13532  11.140   0.470   1.958  2.3657  2.4175 -1.1010
  841MOL0     H13533  10.841   0.326   2.158 -2.5838  0.5415 -1.5151
  841MOL0     H13534  10.845   0.320   1.986 -4.2521  1.0805  1.1112
  841MOL0     H13535  10.999   0.298   2.058 -1.1175 -0.6769  0.6051
  842MOL0     O13536   8.033   7.180  10.837  0.2512  0.9128  0.5328
  842MOL0     C13537   7.935   7.233  10.778 -0.3399  0.7138 -0.1266
  842MOL0     O13538   7.825   7.168  10.736 -0.1651 -0.1666  0.4307
  842MOL0     C13539   7.816   7.040  10.717 -0.4522 -0.0941  0.3424
  842MOL0     C13540   7.927   6.969  10.670 -0.4437 -0.2895  0.0997
  842MOL0     C13541   7.904   6.852  10.597  0.2036  0.4072 -0.1651
  842MOL0     C13542   7.779   6.801  10.582 -0.5122 -0.1725 -0.6646
  842MOL0     O13543   7.747   6.694  10.504  0.1494 -0.0244  0.1050
  842MOL0     C13544   7.854   6.606  10.458  0.6270  0.1629  0.3935
  842MOL0     C13545   7.807   6.515  10.349 -1.1376  0.6017  0.5979
  842MOL0     C13546   7.681   6.431  10.380  0.2863  0.2904 -0.2528
  842MOL0     C13547   7.722   6.295  10.451 -0.1953  0.2396  0.0714
  842MOL0     C13548   7.596   6.217  10.483 -0.0290  0.2077  0.8069
  842MOL0     C13549   7.648   6.068  10.489 -0.0820 -0.6990  0.0968
  842MOL0     C13550   7.525   5.979  10.508  0.8000 -0.6206 -0.6062
  842MOL0     C13551   7.576   5.839  10.541 -0.2613  0.5168 -0.2705
  842MOL0     N13552   7.469   5.741  10.545  0.3530  0.7415  0.0983
  842MOL0     C13553   7.398   5.715  10.435  0.4441  0.4625  0.1006
  842MOL0     C13554   7.304   5.626  10.475  0.1467 -0.5806  0.2711
  842MOL0     C13555   7.178   5.588  10.412 -0.0146  0.0621  0.8632
  842MOL0     C13556   7.044   5.632  10.484 -0.2516 -0.0735 -0.1844
  842MOL0     C13557   7.053   5.769  10.548  0.6325 -0.0950 -1.2112
  842MOL0     C13558   7.036   5.893  10.466  0.1851 -0.6739  0.8363
  842MOL0     O13559   7.005   5.852  10.332  0.5020  0.0050 -0.6747
  842MOL0     C13560   6.965   5.949  10.245  0.3811  0.0821 -0.6076
  842MOL0     C13561   6.953   6.085  10.268 -0.1462 -0.5391  0.3192
  842MOL0     C13562   6.880   6.165  10.177  0.2676  0.4021  0.2771
  842MOL0     C13563   6.827   6.108  10.051 -0.7103 -1.0872 -0.5396
  842MOL0     C13564   6.743   6.197   9.971 -0.7502 -0.8334 -0.2242
  842MOL0     O13565   6.728   6.325  10.010  0.8458 -0.2519 -0.5395
  842MOL0     C13566   6.665   6.415   9.920  0.5517  0.3298  0.2490
  842MOL0     C13567   6.534   6.445   9.951 -2.0189  0.6191 -0.4121
  842MOL0     C13568   6.465   6.539   9.876 -0.3128 -0.0234 -0.6919
  842MOL0     C13569   6.530   6.598   9.768 -0.2661 -0.2298  0.1552
  842MOL0     O13570   6.468   6.699   9.695  0.1473 -0.5822 -0.5148
  842MOL0     C13571   6.529   6.823   9.685 -0.1188  0.2930 -0.0281
  842MOL0     C13572   6.482   6.919   9.577  1.5046  0.1925  0.5952
  842MOL0     C13573   6.482   6.851   9.442  0.6779 -1.1057 -0.8098
  842MOL0     C13574   6.468   6.953   9.327  0.0047 -0.7611 -0.2792
  842MOL0     C13575   6.484   6.886   9.196  0.2356 -0.1399  0.8770
  842MOL0     C13576   6.476   6.993   9.073  0.5783 -0.1659  0.1556
  842MOL0     C13577   6.505   6.909   8.944 -0.6830 -0.0629 -0.0339
  842MOL0     C13578   6.511   7.002   8.816 -0.5729 -0.1829 -0.1652
  842MOL0    Cl13579   6.361   7.105   8.788  0.1191  0.0774  0.0458
  842MOL0     C13580   6.661   6.565   9.736 -0.0929 -0.0523 -0.0489
  842MOL0     C13581   6.731   6.474   9.809 -0.1632  0.8924  0.2525
  842MOL0     O13582   6.703   6.146   9.867  0.0484 -1.0340 -0.8777
  842MOL0     C13583   6.864   5.979  10.025 -0.6091  0.9187 -0.0675
  842MOL0     C13584   6.938   5.903  10.113 -1.3354 -0.3464  0.5612
  842MOL0     N13585   7.335   5.584  10.608 -0.2888  0.3327 -0.2209
  842MOL0     N13586   7.437   5.655  10.647  0.3884  0.7962 -0.3796
  842MOL0     C13587   7.674   6.859  10.654 -0.1457 -0.4405 -0.3958
  842MOL0     C13588   7.692   6.981  10.721 -0.1916 -0.2855  0.3097
  842MOL0     C13589   7.938   7.383  10.766 -0.9042  0.0224  0.4929
  842MOL0     C13590   7.840   7.443  10.677 -0.0871  0.2272  0.4650
  842MOL0     C13591   7.837   7.583  10.668  0.7226 -0.3943 -0.0559
  842MOL0     C13592   7.924   7.661  10.749  0.1194 -1.0789 -0.6032
  842MOL0     O13593   7.912   7.800  10.729  0.0904  0.3016 -0.2040
  842MOL0     C13594   8.026   7.893  10.734  0.6233  0.4988 -0.7768
  842MOL0     C13595   8.030   7.972  10.604 -0.2764 -0.3469  0.4200
  842MOL0     C13596   8.143   8.082  10.598  0.6712 -0.1623 -0.6171
  842MOL0     C13597   8.105   8.221  10.530  0.3340 -0.0930 -0.7910
  842MOL0     C13598   8.065   8.180  10.396  0.3672  0.4870 -0.4261
  842MOL0     C13599   8.049   8.127  10.290  0.7212  0.3880  0.2898
  842MOL0     C13600   8.028   7.606  10.831  0.6409  0.2315  0.4169
  842MOL0     C13601   8.028   7.465  10.846  0.2681 -1.3159 -0.7516
  842MOL0     C13602   8.121   7.418  10.954  0.2463  0.8195  0.0496
  842MOL0     H13603   8.028   7.007  10.675 -1.2667  2.3455 -1.1073
  842MOL0     H13604   7.981   6.788  10.553 -1.2716 -1.7700  0.2526
  842MOL0     H13605   7.942   6.655  10.415  0.6967  0.4286  0.8314
  842MOL0     H13606   7.887   6.538  10.538 -0.6339 -1.3683 -0.3279
  842MOL0     H13607   7.881   6.440  10.320 -1.9046 -1.9423  4.4961
  842MOL0     H13608   7.790   6.583  10.265  1.2540  1.5042  0.7633
  842MOL0     H13609   7.621   6.401  10.293 -2.5621 -0.1126  1.6947
  842MOL0     H13610   7.604   6.487  10.433 -2.1457  1.4408 -4.5555
  842MOL0     H13611   7.793   6.239  10.389  0.3948  1.3976 -0.3327
  842MOL0     H13612   7.770   6.322  10.545  1.4885  1.3660 -1.0573
  842MOL0     H13613   7.556   6.238  10.582  2.0364  1.9240  1.3318
  842MOL0     H13614   7.528   6.220  10.397  4.0153  0.2728 -2.7130
  842MOL0     H13615   7.685   6.039  10.391  1.3988  1.7155 -0.1404
  842MOL0     H13616   7.724   6.048  10.565 -1.2878  0.3214  1.6431
  842MOL0     H13617   7.481   5.979  10.408  0.1828  1.8039 -0.4049
  842MOL0     H13618   7.448   6.010  10.580  0.6563  1.0779 -1.4350
  842MOL0     H13619   7.640   5.814  10.456  0.7051 -1.1427  0.8689
  842MOL0     H13620   7.631   5.842  10.636 -2.2208 -1.3957  1.0000
  842MOL0     H13621   7.394   5.747  10.332 -1.6338 -2.4570 -0.8650
  842MOL0     H13622   7.179   5.655  10.326  1.2566 -0.0491  0.7732
  842MOL0     H13623   7.168   5.487  10.369  0.8972 -0.8307  2.6442
  842MOL0     H13624   6.954   5.613  10.425 -2.0111  0.6778  2.0900
  842MOL0     H13625   7.040   5.547  10.554  0.0783  0.2216  0.2008
  842MOL0     H13626   7.140   5.778  10.614  0.4093 -0.4941 -0.8561
  842MOL0     H13627   6.970   5.768  10.620  1.0984 -0.3353 -0.6704
  842MOL0     H13628   7.130   5.948  10.463 -0.0085 -0.3423 -2.0773
  842MOL0     H13629   6.960   5.960  10.507  3.0210  3.4987 -0.1634
  842MOL0     H13630   6.987   6.142  10.354 -2.5401  1.4061  0.0916
  842MOL0     H13631   6.871   6.270  10.199 -1.4386  0.5264 -0.7921
  842MOL0     H13632   6.482   6.396  10.034 -1.5101  2.5785  1.1553
  842MOL0     H13633   6.367   6.577   9.904  0.7507  1.5660  1.1035
  842MOL0     H13634   6.526   6.872   9.783  0.0128 -1.9840  1.2027
  842MOL0     H13635   6.636   6.807   9.670 -0.1616  0.6168 -0.6953
  842MOL0     H13636   6.379   6.945   9.600  0.7426 -1.8038 -0.3271
  842MOL0     H13637   6.543   7.010   9.576  0.6628  0.8752 -3.0868
  842MOL0     H13638   6.571   6.793   9.418  1.8039 -0.1779  0.8903
  842MOL0     H13639   6.400   6.778   9.449  0.2966 -0.9648 -3.1798
  842MOL0     H13640   6.536   7.038   9.332  1.0450 -1.6067  0.6004
  842MOL0     H13641   6.364   6.983   9.336 -0.1415 -1.6464  1.4114
  842MOL0     H13642   6.404   6.815   9.173 -1.4420  1.7817  0.4795
  842MOL0     H13643   6.576   6.827   9.201 -0.0022 -0.5273  0.7422
  842MOL0     H13644   6.378   7.042   9.067  0.0849 -1.2356 -1.1558
  842MOL0     H13645   6.550   7.067   9.104 -3.5584  3.0489  3.5517
  842MOL0     H13646   6.421   6.841   8.928 -0.1533 -1.8323  3.6739
  842MOL0     H13647   6.594   6.846   8.955 -1.1761 -0.9921 -1.1298
  842MOL0     H13648   6.607   7.053   8.824  1.1096 -3.1188 -0.5046
  842MOL0     H13649   6.525   6.934   8.731  5.3345  0.9285 -0.5294
  842MOL0     H13650   6.707   6.613   9.650 -0.2145  1.6040  0.7761
  842MOL0     H13651   6.835   6.448   9.792 -0.1035 -0.5497  2.4994
  842MOL0     H13652   6.824   5.926   9.939  1.6490  0.8150 -1.1378
  842MOL0     H13653   6.957   5.797  10.098 -0.0338 -0.1125  0.4475
  842MOL0     H13654   7.579   6.807  10.657 -0.3843  0.0369  0.4743
  842MOL0     H13655   7.615   7.029  10.781 -0.6631 -0.1616 -0.3838
  842MOL0     H13656   7.770   7.387  10.616  0.6335  0.0974 -0.2516
  842MOL0     H13657   7.760   7.636  10.614 -1.7497 -3.1792  0.5379
  842MOL0     H13658   8.120   7.838  10.748  0.5465  0.0985 -1.7812
  842MOL0     H13659   8.016   7.954  10.824 -0.7717  0.5413 -0.9449
  842MOL0     H13660   7.934   8.018  10.581  0.5010  0.9988 -0.2411
  842MOL0     H13661   8.052   7.905  10.520  0.0978 -0.8626  0.9186
  842MOL0     H13662   8.233   8.038  10.554  0.5584  1.7154 -2.9602
  842MOL0     H13663   8.173   8.106  10.701  0.1613  0.5978 -0.6398
  842MOL0     H13664   8.022   8.267  10.584 -1.2100 -1.7376 -1.6772
  842MOL0     H13665   8.188   8.293  10.528 -0.6369  1.1828  1.2961
  842MOL0     H13666   8.039   8.061  10.206 -2.6220 -3.9871  3.6136
  842MOL0     H13667   8.099   7.672  10.879  1.4732 -0.6303  0.3870
  842MOL0     H13668   8.156   7.507  11.007  1.9228  0.6732 -0.7224
  842MOL0     H13669   8.062   7.349  11.015 -0.9405  0.3313 -1.5777
  842MOL0     H13670   8.208   7.367  10.910  0.9298  1.3491  0.7590
  843MOL0     O13671   9.185   2.928   3.682  0.4394  0.0810 -1.0599
  843MOL0     C13672   9.168   2.816   3.631 -0.3183 -0.2361 -0.8959
  843MOL0     O13673   9.263   2.719   3.614 -0.1936  0.5348 -0.1369
  843MOL0     C13674   9.400   2.746   3.634  0.2935  0.2103  0.2282
  843MOL0     C13675   9.468   2.875   3.627  0.2403 -0.0255  0.1356
  843MOL0     C13676   9.608   2.883   3.631 -0.2798 -0.1810  0.9076
  843MOL0     C13677   9.689   2.764   3.634 -0.8527 -0.1989  0.4288
  843MOL0     O13678   9.821   2.779   3.647  0.2037  0.5489  0.2309
  843MOL0     C13679   9.882   2.722   3.533 -0.5146  0.5006 -0.2296
  843MOL0     C13680  10.035   2.729   3.542 -1.1339  0.5229 -0.2051
  843MOL0     C13681  10.108   2.727   3.403  0.0650  0.6178  0.6336
  843MOL0     C13682  10.256   2.706   3.398 -0.0625  0.0467  0.2338
  843MOL0     C13683  10.288   2.562   3.440 -0.1413  0.8264 -0.3715
  843MOL0     C13684  10.428   2.537   3.401 -0.3948 -0.2453 -0.8008
  843MOL0     C13685  10.479   2.401   3.451 -0.3826  0.6706 -0.2798
  843MOL0     C13686  10.628   2.390   3.417  1.3269  1.1084  1.4950
  843MOL0     N13687  10.708   2.478   3.489 -0.2820  0.5788  0.1411
  843MOL0     C13688  10.700   2.499   3.624 -0.8590 -0.0979 -0.4644
  843MOL0     C13689  10.800   2.592   3.647  0.5562  0.8640  0.7832
  843MOL0     C13690  10.833   2.660   3.772  0.4695  1.3189  0.8464
  843MOL0     C13691  10.892   2.564   3.888  0.0502 -0.8909  0.2094
  843MOL0     C13692  11.045   2.546   3.873  0.4253  0.7370 -0.3551
  843MOL0     C13693  11.102   2.432   3.948  0.0239  0.2339  0.4736
  843MOL0     O13694  11.059   2.452   4.079 -0.5926 -0.1007 -0.6272
  843MOL0     C13695  11.111   2.369   4.178 -0.2900  0.2752 -0.2042
  843MOL0     C13696  11.231   2.295   4.157  0.2272 -0.3976 -0.9328
  843MOL0     C13697  11.273   2.214   4.263 -0.0466 -0.7952  0.3532
  843MOL0     C13698  11.204   2.206   4.385  0.1443 -0.0004  0.3037
  843MOL0     C13699  11.248   2.116   4.499 -0.4390  0.0029 -0.4275
  843MOL0     O13700  11.161   2.114   4.608  0.1892 -0.0759 -0.1662
  843MOL0     C13701  11.201   2.061   4.727 -0.3305 -0.3897  0.1087
  843MOL0     C13702  11.247   2.137   4.830 -0.0491 -0.5904 -0.3916
  843MOL0     C13703  11.272   2.079   4.959  0.5855 -0.3245  1.0913
  843MOL0     C13704  11.249   1.947   4.979  0.1822 -0.3780  1.1087
  843MOL0     O13705  11.269   1.908   5.116 -0.7632  0.4306  0.0062
  843MOL0     C13706  11.325   1.773   5.143  0.7292  0.0854  0.1118
  843MOL0     C13707  11.318   1.760   5.300 -0.6001 -1.2041  0.4918
  843MOL0     C13708  11.365   1.621   5.329  0.3495  1.1090  0.6796
  843MOL0     C13709  11.353   1.596   5.475  0.0437  0.8932  0.4184
  843MOL0     C13710  11.376   1.446   5.509 -0.4406 -1.0473  1.0185
  843MOL0     C13711  11.336   1.436   5.648 -0.0945  0.0854  0.0145
  843MOL0     C13712  11.327   1.295   5.702 -0.2981  0.3846  0.2969
  843MOL0     C13713  11.291   1.290   5.853  0.2742 -0.6820 -0.4696
  843MOL0    Cl13714  11.248   1.125   5.881 -0.1156  0.1978  0.2548
  843MOL0     C13715  11.213   1.862   4.872 -0.1158  0.1609  1.1014
  843MOL0     C13716  11.173   1.924   4.748 -0.2545 -0.2028  0.4373
  843MOL0     O13717  11.356   2.059   4.490 -0.0473 -0.0032 -0.4178
  843MOL0     C13718  11.086   2.286   4.402 -0.3067  1.3847 -0.1883
  843MOL0     C13719  11.034   2.358   4.294  0.6757 -0.0797  0.1741
  843MOL0     N13720  10.872   2.627   3.530 -0.0016 -0.2692  0.5196
  843MOL0     N13721  10.808   2.553   3.442  0.0848 -0.5310  0.8311
  843MOL0     C13722   9.621   2.639   3.639  0.0771 -0.3683  0.1267
  843MOL0     C13723   9.480   2.628   3.644 -0.7478 -0.3987 -0.1314
  843MOL0     C13724   9.035   2.775   3.581  0.0462  0.3630  0.6191
  843MOL0     C13725   9.019   2.640   3.520 -0.0387 -0.0462  0.1596
  843MOL0     C13726   8.898   2.600   3.445  1.4801 -1.0699  0.6116
  843MOL0     C13727   8.787   2.688   3.439 -0.3797  0.3470  0.7320
  843MOL0     O13728   8.674   2.644   3.379 -0.5495 -0.3909 -0.3269
  843MOL0     C13729   8.552   2.723   3.379  0.4835  0.7989  1.3388
  843MOL0     C13730   8.432   2.650   3.299 -0.4209  0.8421 -0.3914
  843MOL0     C13731   8.385   2.517   3.354  0.3042  0.4040  0.2243
  843MOL0     C13732   8.257   2.461   3.298 -0.0775  0.9210  0.0984
  843MOL0     C13733   8.139   2.522   3.357 -0.5371 -0.0950 -0.3162
  843MOL0     C13734   8.065   2.588   3.415 -0.1096 -0.4031 -0.2081
  843MOL0     C13735   8.803   2.809   3.509 -0.0448  0.1847  0.0558
  843MOL0     C13736   8.926   2.867   3.564  0.3450 -0.8377 -1.0190
  843MOL0     C13737   8.900   3.000   3.636  0.5570  0.1492  0.1062
  843MOL0     H13738   9.426   2.975   3.619  1.1560  0.4313  0.7988
  843MOL0     H13739   9.659   2.978   3.640  1.4181 -1.1162  1.6412
  843MOL0     H13740   9.867   2.615   3.518 -0.7719  0.0328  2.8006
  843MOL0     H13741   9.849   2.770   3.440  1.1143 -1.7168 -2.0650
  843MOL0     H13742  10.077   2.645   3.599 -3.2466 -2.2238 -2.3555
  843MOL0     H13743  10.068   2.819   3.594  0.6333 -0.1657 -0.0606
  843MOL0     H13744  10.098   2.834   3.382  0.7058  0.4948 -0.3332
  843MOL0     H13745  10.061   2.668   3.324  1.2044  3.4833 -2.4219
  843MOL0     H13746  10.301   2.716   3.298  0.6048 -0.4065  0.4784
  843MOL0     H13747  10.309   2.776   3.463 -1.1840  2.3552 -1.2079
  843MOL0     H13748  10.301   2.555   3.549  1.0122  1.5860 -0.4441
  843MOL0     H13749  10.224   2.483   3.399  1.4648 -0.8100  0.1416
  843MOL0     H13750  10.429   2.552   3.293 -1.9864  0.6319 -0.7365
  843MOL0     H13751  10.485   2.612   3.457 -0.6203 -1.9693  1.9478
  843MOL0     H13752  10.425   2.327   3.391 -1.4770 -0.6803  2.2389
  843MOL0     H13753  10.467   2.376   3.556  1.7748 -2.5630 -0.6391
  843MOL0     H13754  10.663   2.288   3.435 -0.8711 -0.0709 -0.3177
  843MOL0     H13755  10.643   2.411   3.311 -2.0969  1.8245  1.0329
  843MOL0     H13756  10.622   2.460   3.689 -3.4323  1.3692 -2.4709
  843MOL0     H13757  10.892   2.748   3.744 -0.8256  1.4434 -1.8097
  843MOL0     H13758  10.738   2.695   3.813  0.2588 -0.1966  1.7137
  843MOL0     H13759  10.872   2.605   3.987  1.5149  0.6689 -0.0856
  843MOL0     H13760  10.841   2.468   3.887  1.7228 -1.8973 -3.1369
  843MOL0     H13761  11.085   2.642   3.906 -2.1403  1.0730  2.1764
  843MOL0     H13762  11.064   2.548   3.765 -1.3805 -0.2800 -0.7374
  843MOL0     H13763  11.210   2.446   3.937  0.0775 -1.0457 -0.9534
  843MOL0     H13764  11.073   2.332   3.916  0.4110  0.3719 -0.3269
  843MOL0     H13765  11.297   2.285   4.071  0.2127 -0.2179 -0.9658
  843MOL0     H13766  11.362   2.155   4.240  0.6316  1.1740 -2.7707
  843MOL0     H13767  11.258   2.244   4.827  2.8621 -0.6416  2.7195
  843MOL0     H13768  11.293   2.144   5.043 -2.1697  2.6923 -0.3067
  843MOL0     H13769  11.268   1.689   5.101  0.3780  0.3251  0.1037
  843MOL0     H13770  11.428   1.769   5.106 -0.5238 -2.0477 -3.7514
  843MOL0     H13771  11.383   1.840   5.338 -1.9072 -0.6064  1.5536
  843MOL0     H13772  11.214   1.775   5.330 -0.6033 -2.3700  1.1003
  843MOL0     H13773  11.290   1.562   5.278 -2.9531  3.6673  2.1609
  843MOL0     H13774  11.468   1.614   5.291 -0.2001  1.1938 -0.8803
  843MOL0     H13775  11.257   1.636   5.508 -0.8700  1.4879 -2.6836
  843MOL0     H13776  11.432   1.658   5.518  0.3630  0.3627  0.6119
  843MOL0     H13777  11.480   1.416   5.492  0.5368  2.1596  0.6183
  843MOL0     H13778  11.312   1.388   5.443 -1.9161  1.7655 -0.1955
  843MOL0     H13779  11.421   1.470   5.708 -1.3122  0.6171  1.4944
  843MOL0     H13780  11.240   1.484   5.670  0.0212  0.6191 -0.6346
  843MOL0     H13781  11.430   1.260   5.698  0.0024  1.3450 -0.9554
  843MOL0     H13782  11.248   1.242   5.646 -0.5515  1.1294 -0.0754
  843MOL0     H13783  11.378   1.317   5.912  0.2425 -1.0704 -0.2447
  843MOL0     H13784  11.202   1.354   5.857 -0.6392 -1.9927  0.8930
  843MOL0     H13785  11.180   1.760   4.884  0.1339  0.1297  1.5678
  843MOL0     H13786  11.130   1.869   4.666 -2.0692 -1.4316  2.1199
  843MOL0     H13787  11.044   2.294   4.502 -0.9301 -2.7370  0.0675
  843MOL0     H13788  10.950   2.426   4.295  0.7280 -0.0158  0.2616
  843MOL0     H13789   9.681   2.548   3.645  1.3946  0.4311 -0.4275
  843MOL0     H13790   9.451   2.523   3.638 -0.1190 -0.5769 -0.1291
  843MOL0     H13791   9.098   2.566   3.510  0.0594 -0.5930  3.6747
  843MOL0     H13792   8.876   2.505   3.397 -0.0108 -0.3391 -0.2087
  843MOL0     H13793   8.563   2.823   3.336 -2.2146  0.0785 -1.3233
  843MOL0     H13794   8.510   2.745   3.478 -2.9034  0.2697  0.1724
  843MOL0     H13795   8.472   2.632   3.199  1.2733  5.6409 -0.8276
  843MOL0     H13796   8.342   2.713   3.301 -2.3313 -1.7286  0.5438
  843MOL0     H13797   8.380   2.544   3.459  0.7324  0.4704  0.2309
  843MOL0     H13798   8.464   2.441   3.351  0.4452  0.5169  0.9528
  843MOL0     H13799   8.252   2.484   3.191  0.7720  2.0272  0.2761
  843MOL0     H13800   8.242   2.354   3.312 -0.4474  0.4212 -3.2081
  843MOL0     H13801   8.017   2.669   3.467 -0.8584 -0.8724 -0.1694
  843MOL0     H13802   8.712   2.865   3.525 -2.3087 -2.5719 -2.1673
  843MOL0     H13803   8.813   3.044   3.587 -0.7635 -3.0096 -0.6391
  843MOL0     H13804   8.896   2.985   3.745  0.9084 -0.9352 -0.0124
  843MOL0     H13805   8.983   3.070   3.625 -0.5724  1.3429 -1.2277
  844MOL0     O13806   8.703   7.472   4.893  0.4265  0.6055  0.2835
  844MOL0     C13807   8.646   7.565   4.837 -0.0665  1.1005  0.0111
  844MOL0     O13808   8.566   7.656   4.895 -0.3985  0.4494  0.6216
  844MOL0     C13809   8.577   7.681   5.033  0.6406 -0.3203  0.9035
  844MOL0     C13810   8.651   7.606   5.130  0.2684 -0.2279  0.5541
  844MOL0     C13811   8.642   7.634   5.269  0.6225  0.6665 -0.0999
  844MOL0     C13812   8.542   7.726   5.318 -0.6247 -1.0864  0.1512
  844MOL0     O13813   8.511   7.742   5.448 -0.0438 -0.2396  0.1450
  844MOL0     C13814   8.626   7.770   5.535  0.2669 -0.5563 -0.2531
  844MOL0     C13815   8.594   7.851   5.668 -0.9014 -0.1694 -0.1744
  844MOL0     C13816   8.719   7.855   5.757  0.0180 -1.0325  0.0013
  844MOL0     C13817   8.702   7.941   5.882  0.5158  0.6093 -0.2036
  844MOL0     C13818   8.822   7.990   5.961 -0.4258 -0.0783 -0.2676
  844MOL0     C13819   8.777   8.083   6.071 -0.3043 -0.0657  0.6991
  844MOL0     C13820   8.890   8.138   6.154  0.4025 -0.3706  0.4278
  844MOL0     C13821   8.938   8.271   6.095 -1.0744  1.0486  0.1802
  844MOL0     N13822   9.059   8.310   6.159 -0.0115 -0.0083  0.3062
  844MOL0     C13823   9.181   8.338   6.097  0.9374 -0.9142 -0.8101
  844MOL0     C13824   9.254   8.396   6.190 -0.5016  0.1746  0.0112
  844MOL0     C13825   9.402   8.437   6.167 -0.6510  0.1947  0.2173
  844MOL0     C13826   9.501   8.315   6.179  0.0757  0.2517 -0.7275
  844MOL0     C13827   9.467   8.226   6.301  0.3333  0.1574 -0.7835
  844MOL0     C13828   9.379   8.107   6.251 -0.5669 -0.2088 -0.7678
  844MOL0     O13829   9.342   8.007   6.357  0.2819  0.1170 -0.5597
  844MOL0     C13830   9.210   7.955   6.347 -0.6163  0.1942  0.7035
  844MOL0     C13831   9.103   8.009   6.406  0.2681 -1.2043  0.6164
  844MOL0     C13832   8.976   7.939   6.408 -0.5484  0.5113 -0.8899
  844MOL0     C13833   8.966   7.805   6.360  0.5068 -0.4504  0.5136
  844MOL0     C13834   8.843   7.735   6.368 -0.2023 -0.9850 -0.6636
  844MOL0     O13835   8.740   7.812   6.401  0.2482  0.3384  0.5190
  844MOL0     C13836   8.625   7.739   6.434  0.8161  0.5653  0.0316
  844MOL0     C13837   8.576   7.764   6.564 -0.2733  0.0382  0.2351
  844MOL0     C13838   8.451   7.712   6.598 -0.2115 -0.9148  0.2718
  844MOL0     C13839   8.382   7.619   6.516  0.1926  0.9274 -0.0868
  844MOL0     O13840   8.263   7.564   6.554  0.4338 -0.0645 -0.3559
  844MOL0     C13841   8.146   7.646   6.511 -0.0773 -0.4528  0.6454
  844MOL0     C13842   8.042   7.570   6.436  0.9301  0.7463 -0.1839
  844MOL0     C13843   7.907   7.653   6.433 -1.1273 -0.3217 -0.3195
  844MOL0     C13844   7.822   7.621   6.305  0.1219 -0.5237 -0.0339
  844MOL0     C13845   7.876   7.657   6.172  1.0624 -0.6176 -0.1071
  844MOL0     C13846   7.953   7.782   6.160  0.2186 -0.1689 -0.1881
  844MOL0     C13847   7.863   7.901   6.187  0.2292 -0.3673 -0.4310
  844MOL0     C13848   7.914   8.050   6.158 -0.1438  0.3798  0.6228
  844MOL0    Cl13849   7.786   8.182   6.185 -0.2107  0.3201  0.3512
  844MOL0     C13850   8.445   7.589   6.394 -0.1242  0.0440  0.7212
  844MOL0     C13851   8.550   7.656   6.344 -0.0576  0.2978  0.4704
  844MOL0     O13852   8.857   7.620   6.377  0.4764 -0.3077  0.0021
  844MOL0     C13853   9.078   7.753   6.300 -0.8808 -0.0343  0.0526
  844MOL0     C13854   9.196   7.829   6.284 -0.6361 -0.2538 -0.3282
  844MOL0     N13855   9.177   8.421   6.301 -0.5590  1.0939 -0.0364
  844MOL0     N13856   9.062   8.375   6.280  0.7703  0.6645  0.3512
  844MOL0     C13857   8.459   7.782   5.227 -0.7672  1.1512  0.1214
  844MOL0     C13858   8.475   7.767   5.087  0.1023 -0.5176 -0.4805
  844MOL0     C13859   8.645   7.571   4.686 -0.2791  0.2479  0.2308
  844MOL0     C13860   8.626   7.453   4.611  0.3140  0.9623  0.1842
  844MOL0     C13861   8.656   7.451   4.475  0.3247 -1.0107  0.2437
  844MOL0     C13862   8.691   7.578   4.413  0.4978  0.6006  0.7511
  844MOL0     O13863   8.705   7.577   4.273 -0.1079  0.1753 -0.1458
  844MOL0     C13864   8.749   7.688   4.209 -0.2258  0.0680  0.1677
  844MOL0     C13865   8.778   7.657   4.058 -0.1865  0.1722  0.3480
  844MOL0     C13866   8.904   7.572   4.029 -0.2012  0.3648  1.5070
  844MOL0     C13867   8.915   7.539   3.879 -0.1778  0.8662  0.0888
  844MOL0     C13868   8.922   7.654   3.790  0.7452 -0.6942  0.8559
  844MOL0     C13869   8.904   7.751   3.718 -0.0242  0.1097  0.7710
  844MOL0     C13870   8.700   7.685   4.487  0.6850 -0.0384 -0.7742
  844MOL0     C13871   8.671   7.694   4.621  0.6036  0.4096 -1.2021
  844MOL0     C13872   8.690   7.833   4.677 -0.1216 -0.0212  0.1736
  844MOL0     H13873   8.707   7.515   5.110  1.1953  0.1792  1.2353
  844MOL0     H13874   8.691   7.564   5.336  1.7418  2.0024  0.5422
  844MOL0     H13875   8.653   7.670   5.571  0.0204 -0.5455 -0.0414
  844MOL0     H13876   8.718   7.812   5.494  0.3782  0.2279  0.7732
  844MOL0     H13877   8.506   7.803   5.713 -1.5657 -0.4760 -1.7371
  844MOL0     H13878   8.572   7.954   5.640  0.3840 -0.4127 -2.2962
  844MOL0     H13879   8.801   7.897   5.698  0.8542  0.2109  1.9269
  844MOL0     H13880   8.746   7.754   5.791  4.2114  0.4684  1.9333
  844MOL0     H13881   8.666   8.037   5.844  1.9824  1.3878  0.3092
  844MOL0     H13882   8.626   7.899   5.948  0.4893  0.1327 -0.5306
  844MOL0     H13883   8.869   7.896   5.991 -1.5761 -1.1696 -1.7302
  844MOL0     H13884   8.879   8.046   5.887  2.5477 -0.5203  1.5261
  844MOL0     H13885   8.740   8.168   6.013  1.1365  0.4541  0.5110
  844MOL0     H13886   8.699   8.030   6.127 -3.0047 -0.8228 -3.3023
  844MOL0     H13887   8.970   8.076   6.194  0.8078  1.1839  2.1426
  844MOL0     H13888   8.839   8.169   6.245  0.7033  0.9760  0.1615
  844MOL0     H13889   8.963   8.248   5.991 -0.3346 -2.9609  1.0855
  844MOL0     H13890   8.872   8.357   6.105 -0.1458  1.7419  0.4417
  844MOL0     H13891   9.203   8.317   5.993  1.3330  1.0446 -1.1679
  844MOL0     H13892   9.410   8.490   6.071  0.6252  1.1164  0.8085
  844MOL0     H13893   9.424   8.520   6.234 -1.0091 -1.0236  1.9074
  844MOL0     H13894   9.510   8.247   6.094 -2.7418  0.5609 -1.3842
  844MOL0     H13895   9.601   8.350   6.206  0.9580 -3.8400  2.1409
  844MOL0     H13896   9.417   8.280   6.381 -2.6115 -1.9297 -1.0390
  844MOL0     H13897   9.556   8.176   6.340 -0.4438 -0.6693 -0.0062
  844MOL0     H13898   9.435   8.060   6.170 -0.3601 -1.5008  0.0910
  844MOL0     H13899   9.288   8.144   6.202 -1.6169  1.7149  2.3215
  844MOL0     H13900   9.112   8.106   6.452  1.4177 -1.0439  0.1055
  844MOL0     H13901   8.891   7.987   6.456 -1.4522  0.3451 -2.2785
  844MOL0     H13902   8.647   7.829   6.616 -0.1140  0.9846 -1.1222
  844MOL0     H13903   8.392   7.724   6.688 -2.3960 -1.8031 -0.9639
  844MOL0     H13904   8.106   7.689   6.604  0.8528  0.3530  0.6882
  844MOL0     H13905   8.173   7.733   6.450 -2.7329 -1.1929 -1.7634
  844MOL0     H13906   8.084   7.560   6.335 -0.3792 -1.2990 -0.5941
  844MOL0     H13907   8.017   7.471   6.475 -0.9125  0.6688 -1.4364
  844MOL0     H13908   7.848   7.619   6.518 -1.3095  0.0035 -0.3165
  844MOL0     H13909   7.932   7.759   6.427  1.1705 -0.8567 -2.2323
  844MOL0     H13910   7.734   7.686   6.318 -1.1068 -1.5567 -2.4627
  844MOL0     H13911   7.787   7.517   6.308  1.3829 -0.9540  0.2990
  844MOL0     H13912   7.796   7.649   6.098  0.7350 -2.7900  0.4260
  844MOL0     H13913   7.952   7.581   6.150  2.2972  0.3735  0.6062
  844MOL0     H13914   8.039   7.785   6.228 -1.1188 -0.6268  1.6130
  844MOL0     H13915   7.987   7.785   6.056 -1.1553 -0.9611 -0.6845
  844MOL0     H13916   7.838   7.897   6.293 -3.0878  0.8075 -1.0460
  844MOL0     H13917   7.768   7.888   6.135 -2.0599  0.5615  3.1853
  844MOL0     H13918   8.005   8.080   6.209 -0.7125 -0.2890  2.0723
  844MOL0     H13919   7.948   8.046   6.054  0.8839  1.5823  0.8880
  844MOL0     H13920   8.392   7.515   6.334 -2.8335  2.1462  0.2917
  844MOL0     H13921   8.579   7.643   6.240 -1.7937  0.3246 -0.0539
  844MOL0     H13922   9.065   7.659   6.247 -1.1152  0.0440 -0.0288
  844MOL0     H13923   9.277   7.799   6.220 -0.7044  2.9073 -2.1061
  844MOL0     H13924   8.389   7.859   5.261 -2.3156 -0.1644  0.0347
  844MOL0     H13925   8.417   7.831   5.021  1.2392 -0.9756 -2.0102
  844MOL0     H13926   8.587   7.368   4.666 -0.0101  2.5263  2.5212
  844MOL0     H13927   8.645   7.363   4.413 -1.9883 -0.1543 -0.6542
  844MOL0     H13928   8.847   7.723   4.243 -0.1183  1.4683 -1.4384
  844MOL0     H13929   8.676   7.770   4.207  0.7398  0.9701  0.9005
  844MOL0     H13930   8.792   7.753   4.007  0.3866 -0.1156 -0.0520
  844MOL0     H13931   8.694   7.601   4.015 -0.0593 -1.0228  1.5908
  844MOL0     H13932   8.875   7.486   4.091 -2.5626  0.7187  0.9903
  844MOL0     H13933   8.992   7.617   4.075  0.3553  2.7281 -1.5586
  844MOL0     H13934   8.991   7.463   3.861 -0.5608  0.2339  1.0732
  844MOL0     H13935   8.827   7.480   3.850 -0.4676  1.2532  0.1733
  844MOL0     H13936   8.888   7.838   3.657 -2.1194 -0.3881  0.5044
  844MOL0     H13937   8.716   7.778   4.433 -0.4434  1.7448  1.7632
  844MOL0     H13938   8.592   7.858   4.719 -0.4366 -0.6335 -0.1692
  844MOL0     H13939   8.770   7.846   4.750  0.8930  2.3380 -1.2548
  844MOL0     H13940   8.711   7.907   4.600 -2.0275  1.3833  0.9232
  845MOL0     O13941   5.890   2.188   9.419  0.4792 -0.0482 -0.6370
  845MOL0     C13942   5.939   2.279   9.486  1.2841 -0.6008 -0.8178
  845MOL0     O13943   5.880   2.340   9.586 -0.6353 -0.4364 -0.2510
  845MOL0     C13944   5.773   2.287   9.648 -0.0288 -0.5181  0.2008
  845MOL0     C13945   5.780   2.179   9.734  0.0792  0.0815 -0.1258
  845MOL0     C13946   5.669   2.114   9.773 -0.2434 -0.7309 -0.2708
  845MOL0     C13947   5.542   2.154   9.736  0.1942  0.5681  0.3005
  845MOL0     O13948   5.422   2.079   9.762  0.2068  0.0545  0.1115
  845MOL0     C13949   5.441   1.940   9.793  0.1992  0.0462 -1.8531
  845MOL0     C13950   5.451   1.928   9.945  0.4431 -0.1077 -0.1429
  845MOL0     C13951   5.309   1.871   9.998  0.1511  0.1478  1.2546
  845MOL0     C13952   5.314   1.874  10.148 -0.2529 -1.0380 -0.5141
  845MOL0     C13953   5.201   1.798  10.218  0.2147  0.1122  0.9477
  845MOL0     C13954   5.239   1.791  10.369 -0.1399  0.0626 -0.8008
  845MOL0     C13955   5.139   1.705  10.459  0.2084 -0.8847  0.5575
  845MOL0     C13956   5.146   1.554  10.435 -0.1328 -0.5271 -0.3742
  845MOL0     N13957   5.056   1.483  10.521  0.1226  1.0492  0.1217
  845MOL0     C13958   4.942   1.410  10.489  0.2671  0.7852  0.5217
  845MOL0     C13959   4.922   1.323  10.591  0.1070 -0.0017  0.1773
  845MOL0     C13960   4.822   1.214  10.605  0.9276  0.1560  0.5659
  845MOL0     C13961   4.691   1.281  10.634  0.8940 -0.1215  0.4754
  845MOL0     C13962   4.674   1.313  10.790  0.2047  0.8740  0.5730
  845MOL0     C13963   4.680   1.193  10.885 -0.4759 -0.8543  0.2666
  845MOL0     O13964   4.574   1.190  10.982  0.6480 -0.3712 -0.0243
  845MOL0     C13965   4.590   1.110  11.093 -0.1871  0.4957 -1.8685
  845MOL0     C13966   4.483   1.035  11.128  0.4723 -0.5993 -0.6283
  845MOL0     C13967   4.478   0.958  11.241  1.1911 -0.0667 -0.0230
  845MOL0     C13968   4.584   0.962  11.334 -1.1016  0.5185  0.5052
  845MOL0     C13969   4.577   0.900  11.465 -0.1677 -0.1519 -0.2186
  845MOL0     O13970   4.685   0.924  11.555 -0.4025  0.5998 -0.2916
  845MOL0     C13971   4.706   0.829  11.656  0.3676  0.2976  0.1418
  845MOL0     C13972   4.603   0.802  11.749  0.5744 -0.4451  0.1230
  845MOL0     C13973   4.623   0.717  11.854  0.7230 -0.1517 -0.2458
  845MOL0     C13974   4.747   0.659  11.869 -0.4049 -0.4265  0.2176
  845MOL0     O13975   4.792   0.588  11.972  0.5473  0.1081  0.2952
  845MOL0     C13976   4.730   0.611  12.097  0.0568 -0.2220 -0.1735
  845MOL0     C13977   4.612   0.511  12.121  0.4714 -0.3713  0.4610
  845MOL0     C13978   4.583   0.496  12.266  1.1792 -0.2322 -0.3859
  845MOL0     C13979   4.450   0.422  12.290  0.2470 -0.9410  0.5741
  845MOL0     C13980   4.404   0.433  12.436 -0.0810 -0.8640 -0.0633
  845MOL0     C13981   4.264   0.366  12.457 -0.0285  0.3333 -0.4745
  845MOL0     C13982   4.231   0.370  12.607  0.5777  0.1176  0.0882
  845MOL0     C13983   4.084   0.341  12.631  0.8378  0.4615 -0.7514
  845MOL0    Cl13984   4.025   0.190  12.571 -0.2851  0.0926  1.0695
  845MOL0     C13985   4.843   0.677  11.767 -0.3504 -0.2285 -0.1681
  845MOL0     C13986   4.822   0.763  11.659 -0.1232  0.5403  0.1046
  845MOL0     O13987   4.495   0.808  11.472 -0.5490 -0.4679  0.0803
  845MOL0     C13988   4.697   1.043  11.303 -0.1502 -0.8127 -0.5282
  845MOL0     C13989   4.706   1.107  11.181 -0.6605  0.6355 -0.4348
  845MOL0     N13990   5.008   1.357  10.692  0.4730 -0.1448  0.5925
  845MOL0     N13991   5.081   1.456  10.650  0.9764  0.6044 -0.6029
  845MOL0     C13992   5.523   2.266   9.662 -0.5469  1.2539 -0.1568
  845MOL0     C13993   5.639   2.332   9.618  0.1949 -0.1948  0.3270
  845MOL0     C13994   6.072   2.342   9.447  0.7673  0.2572  0.1183
  845MOL0     C13995   6.121   2.315   9.316 -0.8511 -0.6418 -0.0850
  845MOL0     C13996   6.245   2.366   9.271  1.0627 -0.1061 -0.4589
  845MOL0     C13997   6.322   2.436   9.359  0.3252  0.4487 -0.8542
  845MOL0     O13998   6.443   2.482   9.324  0.3275  0.3644  0.1065
  845MOL0     C13999   6.494   2.489   9.186  1.3139 -0.4280  1.2187
  845MOL0     C14000   6.621   2.566   9.204  0.3189 -0.1512 -0.8189
  845MOL0     C14001   6.612   2.703   9.270 -0.1132 -0.0231  0.8029
  845MOL0     C14002   6.739   2.796   9.247 -0.6838 -0.5789 -0.1224
  845MOL0     C14003   6.856   2.721   9.304  0.2722 -0.3657 -0.3923
  845MOL0     C14004   6.932   2.649   9.358 -0.0830  0.1518 -1.1207
  845MOL0     C14005   6.272   2.464   9.485  0.2298  1.0371 -0.5982
  845MOL0     C14006   6.155   2.422   9.536  1.3812 -0.0657  0.0032
  845MOL0     C14007   6.121   2.450   9.674 -0.0672 -0.2488  0.2102
  845MOL0     H14008   5.873   2.129   9.760 -0.0536  0.3196  0.8171
  845MOL0     H14009   5.678   2.019   9.824 -0.4001 -0.4226  0.3416
  845MOL0     H14010   5.353   1.881   9.766  0.2071  0.3367 -2.5293
  845MOL0     H14011   5.530   1.895   9.747  1.4209 -0.7934  1.1086
  845MOL0     H14012   5.478   2.020   9.996  0.1110 -1.5558  2.9093
  845MOL0     H14013   5.526   1.852   9.969  0.5333  0.9263  3.4461
  845MOL0     H14014   5.289   1.770   9.963 -0.1368  0.0620  1.6596
  845MOL0     H14015   5.236   1.944   9.963  3.3995  3.4148  0.6157
  845MOL0     H14016   5.404   1.825  10.186 -0.8067 -1.8431 -0.2159
  845MOL0     H14017   5.320   1.975  10.191 -1.0492 -0.3896 -1.8694
  845MOL0     H14018   5.107   1.853  10.212 -0.3641 -0.9170  0.5024
  845MOL0     H14019   5.204   1.697  10.177  5.1387 -0.6024  2.3579
  845MOL0     H14020   5.341   1.753  10.375  0.6777  2.0563 -1.3396
  845MOL0     H14021   5.239   1.895  10.402 -1.1638  1.3943 -4.5041
  845MOL0     H14022   5.036   1.733  10.434 -0.2027 -2.3985  0.4809
  845MOL0     H14023   5.160   1.731  10.563 -1.5865  3.0118  0.1277
  845MOL0     H14024   5.134   1.524  10.330  2.4547  0.1858 -0.9481
  845MOL0     H14025   5.244   1.518  10.467  0.4373  0.8413 -0.5277
  845MOL0     H14026   4.890   1.421  10.394  1.4022  0.4140 -0.1668
  845MOL0     H14027   4.818   1.160  10.510 -1.6884  0.7126  0.2865
  845MOL0     H14028   4.844   1.140  10.683 -0.7443  2.4328  3.4017
  845MOL0     H14029   4.686   1.382  10.592 -2.5681  0.1878  1.3179
  845MOL0     H14030   4.608   1.225  10.590 -1.1023  4.2435 -2.0485
  845MOL0     H14031   4.576   1.361  10.792 -0.7405 -0.7112 -2.2896
  845MOL0     H14032   4.755   1.381  10.819  1.7442 -0.1805 -1.0588
  845MOL0     H14033   4.780   1.190  10.930 -0.1598 -0.0672 -0.3748
  845MOL0     H14034   4.692   1.100  10.829 -2.0801 -1.2171  0.4626
  845MOL0     H14035   4.396   1.029  11.063 -0.3965  1.8167  0.1825
  845MOL0     H14036   4.390   0.896  11.255  0.1193  1.2329 -0.7659
  845MOL0     H14037   4.509   0.851  11.729  0.3199 -2.2568 -4.3677
  845MOL0     H14038   4.543   0.698  11.925  0.3410  2.1195  0.0121
  845MOL0     H14039   4.802   0.601  12.179 -1.6333 -3.4146  1.1153
  845MOL0     H14040   4.683   0.710  12.098 -2.1550 -1.1915 -1.0281
  845MOL0     H14041   4.525   0.542  12.063  2.4796  1.3251 -1.8449
  845MOL0     H14042   4.651   0.418  12.078  2.7344  1.4765 -1.7869
  845MOL0     H14043   4.667   0.436  12.303  2.6093  0.3604 -2.5066
  845MOL0     H14044   4.598   0.588  12.324  3.8346  0.5528 -2.1546
  845MOL0     H14045   4.460   0.317  12.260 -1.7436 -0.6718 -1.3191
  845MOL0     H14046   4.373   0.464  12.224 -1.7626 -2.8598  1.5550
  845MOL0     H14047   4.395   0.540  12.458  0.7909 -1.1745  2.1527
  845MOL0     H14048   4.481   0.388  12.499 -0.0348  0.9696  1.3120
  845MOL0     H14049   4.186   0.416  12.400 -1.1818 -1.6687 -0.7431
  845MOL0     H14050   4.266   0.264  12.418  3.2264  0.2133 -0.3030
  845MOL0     H14051   4.253   0.463  12.661 -1.2595 -0.1600  1.4068
  845MOL0     H14052   4.288   0.289  12.655 -0.3215  0.4907  1.8711
  845MOL0     H14053   4.056   0.346  12.737 -2.2227  2.4243 -1.5285
  845MOL0     H14054   4.026   0.423  12.588 -0.6111 -0.1531 -0.0150
  845MOL0     H14055   4.941   0.631  11.778 -0.2794  0.2609  1.4619
  845MOL0     H14056   4.877   0.805  11.575 -1.1065 -0.4128 -1.0378
  845MOL0     H14057   4.773   1.055  11.379 -2.8224 -0.0955  2.2160
  845MOL0     H14058   4.799   1.154  11.154 -0.3609 -0.4738 -1.4513
  845MOL0     H14059   5.425   2.305   9.636 -0.0796  2.5232 -0.0627
  845MOL0     H14060   5.630   2.420   9.554  1.1023 -0.5673 -0.3511
  845MOL0     H14061   6.056   2.264   9.247 -1.0272 -2.9906  1.7001
  845MOL0     H14062   6.263   2.358   9.164 -0.1832  3.4999 -1.0688
  845MOL0     H14063   6.419   2.545   9.129  2.0059 -1.7592 -1.1537
  845MOL0     H14064   6.502   2.399   9.124  0.1945 -0.2790  0.8271
  845MOL0     H14065   6.671   2.585   9.109  3.3396  0.0037  0.6755
  845MOL0     H14066   6.685   2.498   9.261 -2.4912 -1.7282  0.6597
  845MOL0     H14067   6.580   2.703   9.375  1.3405  2.9013  1.3525
  845MOL0     H14068   6.530   2.762   9.228  0.1064  0.1209  0.5761
  845MOL0     H14069   6.761   2.806   9.140 -0.0873 -0.1545  0.0300
  845MOL0     H14070   6.720   2.897   9.284 -1.3372 -1.2375  1.4336
  845MOL0     H14071   6.997   2.588   9.417  0.0485  0.5131 -0.8898
  845MOL0     H14072   6.341   2.518   9.549  1.3446  1.1377 -1.8527
  845MOL0     H14073   6.040   2.524   9.670  0.4282  0.2316 -2.4132
  845MOL0     H14074   6.105   2.367   9.743 -0.4100 -1.0611 -0.8344
  845MOL0     H14075   6.195   2.520   9.715 -2.7311  3.0174 -0.1045
  846MOL0     O14076   8.268   8.082   5.950  0.0479  0.0143 -0.5747
  846MOL0     C14077   8.351   8.173   5.961  0.5596 -0.9616 -0.6703
  846MOL0     O14078   8.382   8.257   5.857 -0.5873  0.3893 -0.4451
  846MOL0     C14079   8.356   8.224   5.728 -0.1582  1.4365  0.8264
  846MOL0     C14080   8.372   8.088   5.669  0.3536 -0.7810  0.0821
  846MOL0     C14081   8.332   8.057   5.538 -0.3577 -0.2894  0.5870
  846MOL0     C14082   8.281   8.159   5.456  0.4637  0.2473 -0.2731
  846MOL0     O14083   8.235   8.118   5.330 -0.6087  0.5430 -0.0535
  846MOL0     C14084   8.259   8.204   5.213  0.0362  0.0473  0.5751
  846MOL0     C14085   8.139   8.282   5.168 -0.3023  0.1031  0.0862
  846MOL0     C14086   8.000   8.231   5.200 -0.5718 -0.3297  0.0326
  846MOL0     C14087   7.891   8.293   5.108 -1.5115  0.6994 -0.6028
  846MOL0     C14088   7.745   8.250   5.148 -1.4037 -0.1631 -1.0319
  846MOL0     C14089   7.660   8.297   5.028  0.2560 -0.2828 -0.1070
  846MOL0     C14090   7.520   8.272   5.051  0.5832 -0.3963  1.4311
  846MOL0     C14091   7.437   8.393   5.097  0.0090  0.1410  0.2363
  846MOL0     N14092   7.460   8.437   5.232  0.4663 -0.3897  0.5997
  846MOL0     C14093   7.395   8.400   5.342 -0.8999  0.3471  0.2792
  846MOL0     C14094   7.443   8.477   5.439  0.3945  0.6642 -0.8642
  846MOL0     C14095   7.389   8.454   5.582  0.2611  0.2329 -0.0880
  846MOL0     C14096   7.421   8.321   5.644 -0.4654  0.2959  0.8093
  846MOL0     C14097   7.399   8.300   5.795  0.2398  0.1471 -0.2526
  846MOL0     C14098   7.267   8.359   5.857  0.7725  0.4672 -0.2920
  846MOL0     O14099   7.150   8.288   5.826 -0.1132  0.1084 -1.1015
  846MOL0     C14100   7.033   8.358   5.824 -0.6199  0.0440  0.1276
  846MOL0     C14101   6.917   8.298   5.761  0.1957  0.1816 -0.3782
  846MOL0     C14102   6.794   8.371   5.754 -0.1342 -0.8174  0.1753
  846MOL0     C14103   6.789   8.490   5.825 -0.1548 -0.4187 -1.0651
  846MOL0     C14104   6.664   8.580   5.826  0.6542  0.6935 -0.0156
  846MOL0     O14105   6.659   8.699   5.759 -0.1216  0.1849  0.1237
  846MOL0     C14106   6.770   8.748   5.705  0.0169 -0.5454  0.9990
  846MOL0     C14107   6.795   8.693   5.581 -0.4386  0.2958 -0.1430
  846MOL0     C14108   6.914   8.733   5.516  0.5175  0.7192 -1.0662
  846MOL0     C14109   6.983   8.840   5.551 -0.9827 -0.7214  0.6335
  846MOL0     O14110   7.095   8.891   5.490 -0.5722 -0.0131 -1.4824
  846MOL0     C14111   7.203   8.798   5.466 -0.4623  0.2916 -0.3057
  846MOL0     C14112   7.326   8.872   5.413  0.3557  0.6084 -0.1072
  846MOL0     C14113   7.294   8.970   5.312 -0.3683 -0.0467 -0.4062
  846MOL0     C14114   7.390   8.962   5.186 -0.2813 -1.0644  0.0863
  846MOL0     C14115   7.363   9.068   5.071 -0.1068 -0.2317 -0.9827
  846MOL0     C14116   7.304   8.998   4.954 -0.1504  0.2972  0.7013
  846MOL0     C14117   7.268   9.085   4.836  0.1077 -0.2504  0.5200
  846MOL0     C14118   7.398   9.113   4.753 -0.0803  0.2520 -0.2354
  846MOL0    Cl14119   7.374   9.173   4.591 -0.3297  0.1372 -0.0242
  846MOL0     C14120   6.934   8.915   5.661 -0.0608  0.2310  0.0680
  846MOL0     C14121   6.832   8.863   5.743  0.6472 -0.0926 -0.8644
  846MOL0     O14122   6.563   8.523   5.874  0.6208  0.4832 -0.2984
  846MOL0     C14123   6.903   8.547   5.884  0.2038  0.0365 -0.2742
  846MOL0     C14124   7.020   8.477   5.890 -0.5526 -0.2870  0.4116
  846MOL0     N14125   7.529   8.565   5.385  0.0483 -0.1801  0.2483
  846MOL0     N14126   7.540   8.541   5.262 -0.0640 -0.7565  0.6107
  846MOL0     C14127   8.262   8.287   5.512  1.1118  0.7634  0.2332
  846MOL0     C14128   8.301   8.323   5.643 -0.5444  0.5844  0.0910
  846MOL0     C14129   8.416   8.192   6.094 -0.0092 -0.0557 -0.1652
  846MOL0     C14130   8.478   8.309   6.103  0.0889 -0.5077 -0.6719
  846MOL0     C14131   8.540   8.352   6.225 -0.5901 -0.3543 -0.8597
  846MOL0     C14132   8.529   8.275   6.337 -0.7631 -0.4285 -0.8278
  846MOL0     O14133   8.571   8.326   6.456  0.3008  0.6331 -0.6676
  846MOL0     C14134   8.655   8.256   6.539 -1.1043  0.4451  0.3122
  846MOL0     C14135   8.750   8.335   6.629  0.2314  0.0982 -0.9610
  846MOL0     C14136   8.687   8.462   6.703  0.0876  0.0074  0.5091
  846MOL0     C14137   8.790   8.556   6.761 -0.7069 -1.2850  0.3089
  846MOL0     C14138   8.903   8.490   6.827 -0.6091 -0.3730 -0.0569
  846MOL0     C14139   8.992   8.417   6.874  0.3065  0.0531 -0.1507
  846MOL0     C14140   8.457   8.155   6.331  0.2133 -0.2977  0.1454
  846MOL0     C14141   8.413   8.106   6.206 -0.7678  0.3946 -0.4293
  846MOL0     C14142   8.353   7.964   6.199 -0.8241  0.3582  0.2001
  846MOL0     H14143   8.396   8.011   5.741 -0.1676 -0.6745  0.3727
  846MOL0     H14144   8.362   7.962   5.494 -4.2303 -0.7450 -1.5706
  846MOL0     H14145   8.342   8.272   5.233 -0.9941  1.5194 -0.0045
  846MOL0     H14146   8.279   8.125   5.140 -0.8627 -0.4967  0.8864
  846MOL0     H14147   8.158   8.300   5.062 -0.8688  1.6721  0.2312
  846MOL0     H14148   8.153   8.382   5.209 -0.1185  0.1647 -0.1257
  846MOL0     H14149   7.977   8.240   5.306  1.6443 -0.6476  0.5951
  846MOL0     H14150   7.991   8.125   5.174  1.3867  0.0279 -2.5155
  846MOL0     H14151   7.896   8.402   5.096  0.0314  0.7536  0.3149
  846MOL0     H14152   7.921   8.245   5.014  2.3633 -3.6025  2.4074
  846MOL0     H14153   7.749   8.140   5.144  2.6081 -0.1543 -1.1494
  846MOL0     H14154   7.699   8.292   5.238  2.7036  1.7591  0.4348
  846MOL0     H14155   7.662   8.405   5.016  1.9822  0.0793  2.6598
  846MOL0     H14156   7.684   8.241   4.937  0.6668  1.8697 -1.3877
  846MOL0     H14157   7.503   8.191   5.123 -1.8256  0.3981  1.8692
  846MOL0     H14158   7.473   8.250   4.955 -1.1578  1.8163  1.6969
  846MOL0     H14159   7.453   8.487   5.043 -1.1436  0.0055 -0.3668
  846MOL0     H14160   7.331   8.366   5.088  0.4884 -1.5242 -0.7561
  846MOL0     H14161   7.336   8.309   5.349  1.1954 -0.9948  1.8635
  846MOL0     H14162   7.437   8.535   5.638 -0.7202 -0.6083  2.0715
  846MOL0     H14163   7.282   8.469   5.599  0.4798  1.1422  0.4955
  846MOL0     H14164   7.365   8.242   5.593  2.0083 -2.6089  2.2783
  846MOL0     H14165   7.527   8.303   5.625 -0.4398  2.3630 -1.4505
  846MOL0     H14166   7.480   8.343   5.854  0.9768  0.2807 -1.3400
  846MOL0     H14167   7.390   8.193   5.818 -0.3099  0.0626 -0.8301
  846MOL0     H14168   7.268   8.458   5.811  1.3665  0.5850 -0.0281
  846MOL0     H14169   7.285   8.362   5.965  1.1056  3.4818 -0.3448
  846MOL0     H14170   6.923   8.198   5.720 -0.4987 -0.7463  1.6390
  846MOL0     H14171   6.707   8.346   5.693  2.0857 -0.1734 -3.6056
  846MOL0     H14172   6.740   8.604   5.554  1.0019 -0.2644 -1.4446
  846MOL0     H14173   6.948   8.675   5.431  1.1282  0.6531 -0.7843
  846MOL0     H14174   7.226   8.746   5.559  0.2926  0.3707 -0.4444
  846MOL0     H14175   7.164   8.721   5.398 -0.8100 -0.6086  0.8831
  846MOL0     H14176   7.363   8.931   5.497  0.5989 -0.5768  0.6423
  846MOL0     H14177   7.408   8.804   5.389 -0.0418  0.9496 -2.8152
  846MOL0     H14178   7.188   8.973   5.282 -1.5485  1.3115  3.3794
  846MOL0     H14179   7.300   9.067   5.363  0.0187  0.9520 -2.2470
  846MOL0     H14180   7.381   8.860   5.149 -0.4447 -0.8275 -0.5546
  846MOL0     H14181   7.488   8.984   5.229 -1.2499  2.1691  0.9585
  846MOL0     H14182   7.456   9.118   5.042  0.7234 -1.9733 -1.4211
  846MOL0     H14183   7.290   9.148   5.089 -2.8737 -2.5002 -1.4304
  846MOL0     H14184   7.371   8.917   4.928 -1.7705 -1.5915  2.0862
  846MOL0     H14185   7.212   8.948   4.986 -3.0187  3.7361 -1.3229
  846MOL0     H14186   7.213   9.176   4.863 -0.8966 -0.2533 -1.3410
  846MOL0     H14187   7.202   9.023   4.775  4.6699 -0.4356 -5.1059
  846MOL0     H14188   7.448   9.199   4.799 -1.1879  1.9199 -2.0127
  846MOL0     H14189   7.461   9.025   4.744 -2.8559 -1.6149 -3.9006
  846MOL0     H14190   6.981   9.008   5.693 -0.6410  0.7942 -0.6783
  846MOL0     H14191   6.803   8.921   5.831  1.2016 -2.2047  0.8056
  846MOL0     H14192   6.891   8.637   5.944 -3.5353  2.0274 -3.5294
  846MOL0     H14193   7.094   8.528   5.949 -1.1891  1.3220 -0.1347
  846MOL0     H14194   8.203   8.350   5.447 -0.4515 -1.7213 -0.9139
  846MOL0     H14195   8.289   8.422   5.685  3.2330  1.5459 -0.7583
  846MOL0     H14196   8.467   8.394   6.037  0.4335 -0.4624 -0.6738
  846MOL0     H14197   8.579   8.453   6.231  2.4537 -1.3802 -1.9493
  846MOL0     H14198   8.718   8.190   6.479 -0.7959 -0.6124  1.7339
  846MOL0     H14199   8.599   8.182   6.597  1.9216 -1.3106  1.2142
  846MOL0     H14200   8.825   8.369   6.557  1.2454  0.0432  0.0392
  846MOL0     H14201   8.797   8.277   6.709  1.2533  2.3655  0.1773
  846MOL0     H14202   8.625   8.434   6.789 -2.0477  1.1125 -0.5900
  846MOL0     H14203   8.623   8.520   6.635 -2.2888  0.6009  3.0458
  846MOL0     H14204   8.823   8.612   6.674 -2.7710 -1.2275 -0.5044
  846MOL0     H14205   8.743   8.619   6.837 -0.6376 -1.3949  0.4449
  846MOL0     H14206   9.071   8.362   6.920  2.9515  3.5283 -0.1117
  846MOL0     H14207   8.454   8.090   6.417  2.9843 -1.4225 -0.4829
  846MOL0     H14208   8.366   7.916   6.296 -2.9471  0.1946  0.4571
  846MOL0     H14209   8.245   7.960   6.181 -0.6343 -1.6345 -0.7676
  846MOL0     H14210   8.405   7.912   6.118  1.6578  0.4511  1.6310
  847MOL0     O14211   7.134   0.491   6.437  0.9817 -0.3434 -0.7199
  847MOL0     C14212   7.067   0.558   6.517  0.7988  0.8743 -1.0820
  847MOL0     O14213   6.969   0.643   6.491 -0.1915 -0.7730 -0.1709
  847MOL0     C14214   6.922   0.633   6.363 -1.0202  0.2222  0.0912
  847MOL0     C14215   6.872   0.518   6.305  1.1216 -0.1354 -1.4585
  847MOL0     C14216   6.837   0.513   6.173 -1.1464 -0.3894  0.5348
  847MOL0     C14217   6.838   0.620   6.092 -0.0031 -0.9396  0.0040
  847MOL0     O14218   6.789   0.613   5.962 -0.3590  0.3184  0.4873
  847MOL0     C14219   6.847   0.685   5.859 -0.0964  0.2377 -0.6693
  847MOL0     C14220   6.746   0.789   5.816 -0.6645  0.0092  0.0749
  847MOL0     C14221   6.601   0.739   5.786 -0.1527 -0.0144 -0.2443
  847MOL0     C14222   6.518   0.852   5.745 -0.0071 -1.2014  0.3695
  847MOL0     C14223   6.379   0.806   5.713 -0.2956 -0.0376  0.8005
  847MOL0     C14224   6.303   0.938   5.704 -0.7149  0.5367 -0.1016
  847MOL0     C14225   6.153   0.921   5.694  0.0216  0.1115 -0.8869
  847MOL0     C14226   6.101   1.044   5.614  0.2169 -0.1029  0.3621
  847MOL0     N14227   5.965   1.087   5.650 -0.4370  0.0843  0.2490
  847MOL0     C14228   5.935   1.172   5.757 -0.1083  0.4154  0.0137
  847MOL0     C14229   5.806   1.202   5.749 -0.2331 -0.4384 -0.8874
  847MOL0     C14230   5.708   1.290   5.829 -0.0186  0.7265  0.1144
  847MOL0     C14231   5.785   1.370   5.940  0.0891  0.0670 -1.2212
  847MOL0     C14232   5.671   1.437   6.040 -0.7608 -0.1578  0.3496
  847MOL0     C14233   5.742   1.484   6.161  0.4856  0.2073 -0.8036
  847MOL0     O14234   5.857   1.568   6.138 -0.3989 -0.2541 -0.4186
  847MOL0     C14235   5.928   1.609   6.246  0.1177  0.7570 -0.1965
  847MOL0     C14236   5.894   1.611   6.376 -0.4613 -0.5531 -0.3983
  847MOL0     C14237   5.972   1.661   6.479 -0.5179 -0.4638 -0.7269
  847MOL0     C14238   6.098   1.714   6.442  0.5545  1.1899  0.3300
  847MOL0     C14239   6.184   1.780   6.535 -0.4768  0.0021 -0.1114
  847MOL0     O14240   6.314   1.798   6.505 -0.5728  0.3098 -0.1744
  847MOL0     C14241   6.402   1.841   6.601 -0.1445 -0.9143  0.9566
  847MOL0     C14242   6.400   1.808   6.734 -0.4184  0.0004 -0.2946
  847MOL0     C14243   6.494   1.860   6.815  0.0072  0.1908 -0.5772
  847MOL0     C14244   6.598   1.944   6.775 -0.8826 -0.3119  1.0332
  847MOL0     O14245   6.694   1.987   6.858 -0.0041  0.3036 -0.1440
  847MOL0     C14246   6.633   2.088   6.937  0.8606 -0.3327 -0.2856
  847MOL0     C14247   6.590   2.221   6.865  0.3113  1.1619 -0.1298
  847MOL0     C14248   6.708   2.295   6.817 -0.5882 -1.8629 -0.3375
  847MOL0     C14249   6.648   2.433   6.792  0.5642 -0.8331  0.7259
  847MOL0     C14250   6.753   2.533   6.747  0.3254  0.5156 -0.7365
  847MOL0     C14251   6.705   2.656   6.687 -0.6125  0.5631 -0.2732
  847MOL0     C14252   6.685   2.628   6.537  0.9143 -0.0797 -0.8986
  847MOL0     C14253   6.642   2.758   6.466  0.4162 -0.6391 -1.0118
  847MOL0    Cl14254   6.626   2.689   6.299 -0.1795 -0.1610 -0.3206
  847MOL0     C14255   6.611   1.971   6.634 -0.2630 -0.1157 -0.0118
  847MOL0     C14256   6.501   1.924   6.549  0.2563  0.1627 -0.6230
  847MOL0     O14257   6.124   1.837   6.630 -0.4607 -0.2385  0.4602
  847MOL0     C14258   6.131   1.723   6.308  0.6555  0.2650  1.2580
  847MOL0     C14259   6.056   1.660   6.203  0.5612  0.6829 -0.7581
  847MOL0     N14260   5.760   1.138   5.640  0.1649 -0.2095 -0.0437
  847MOL0     N14261   5.849   1.066   5.580 -0.1165  0.0005  0.6113
  847MOL0     C14262   6.882   0.740   6.156  0.8215  0.5238 -0.1117
  847MOL0     C14263   6.928   0.749   6.289 -0.5429 -0.6984 -0.0739
  847MOL0     C14264   7.119   0.558   6.661  0.3738 -0.3418  0.4440
  847MOL0     C14265   7.025   0.578   6.756  0.2560  1.0240 -0.3715
  847MOL0     C14266   7.062   0.591   6.891 -0.0091 -0.5068 -0.4032
  847MOL0     C14267   7.194   0.573   6.940 -0.4071  0.7067  0.0174
  847MOL0     O14268   7.215   0.552   7.072  0.2364 -0.7056 -0.0773
  847MOL0     C14269   7.099   0.529   7.150  0.1978  0.0749  0.1839
  847MOL0     C14270   7.131   0.489   7.294  1.3198 -0.1294  0.4840
  847MOL0     C14271   7.002   0.469   7.388 -0.0932  0.3860  0.2140
  847MOL0     C14272   7.035   0.468   7.536  0.2002  0.1731  0.9788
  847MOL0     C14273   6.911   0.424   7.618  0.5344 -0.0493  0.0845
  847MOL0     C14274   6.802   0.391   7.664  0.8028  0.4567  1.1464
  847MOL0     C14275   7.292   0.554   6.843  0.2609  0.3104 -0.1513
  847MOL0     C14276   7.254   0.552   6.701 -0.5525 -0.3427  0.8782
  847MOL0     C14277   7.368   0.544   6.606 -0.5841  0.0146 -0.2274
  847MOL0     H14278   6.858   0.427   6.362 -1.3946  1.8482  1.4147
  847MOL0     H14279   6.808   0.418   6.130  0.3666 -1.7345  2.3724
  847MOL0     H14280   6.939   0.734   5.894 -1.5997  1.0528  2.5373
  847MOL0     H14281   6.865   0.613   5.779 -0.8100 -1.3163  0.5099
  847MOL0     H14282   6.780   0.838   5.723 -2.2880 -1.3337 -1.2746
  847MOL0     H14283   6.725   0.872   5.885 -4.2688 -1.3407  0.8005
  847MOL0     H14284   6.554   0.674   5.861  1.8977 -1.7898 -0.4129
  847MOL0     H14285   6.621   0.669   5.705  2.6703 -0.2484  0.5485
  847MOL0     H14286   6.527   0.929   5.823 -0.4903 -4.8408  4.3814
  847MOL0     H14287   6.562   0.890   5.652  2.7740 -0.6352  1.8070
  847MOL0     H14288   6.386   0.744   5.623  1.4165  1.3191 -0.0534
  847MOL0     H14289   6.350   0.750   5.803 -3.4784  1.9868  1.1959
  847MOL0     H14290   6.322   0.994   5.796  1.1640  0.7893 -0.6092
  847MOL0     H14291   6.339   1.000   5.622  0.8523  1.5137  1.2683
  847MOL0     H14292   6.116   0.931   5.797 -0.4918 -0.9117 -0.9600
  847MOL0     H14293   6.122   0.824   5.656  0.9488 -1.8559  2.9334
  847MOL0     H14294   6.175   1.122   5.632  0.6588 -1.3568  6.0861
  847MOL0     H14295   6.092   1.002   5.514 -0.8622 -1.7517  1.0994
  847MOL0     H14296   6.010   1.202   5.829  0.4460 -2.4802  0.7527
  847MOL0     H14297   5.658   1.358   5.758 -5.0603 -0.6851  1.8455
  847MOL0     H14298   5.610   1.250   5.857 -1.2698  2.2972 -1.6768
  847MOL0     H14299   5.848   1.303   5.999  1.0508 -0.5261 -2.8494
  847MOL0     H14300   5.842   1.449   5.889 -1.3740  0.0229 -3.0594
  847MOL0     H14301   5.614   1.348   6.071  0.2454 -1.6508 -1.8831
  847MOL0     H14302   5.613   1.511   5.985  1.0314 -0.7290 -2.4845
  847MOL0     H14303   5.759   1.400   6.229 -2.8579  0.3907  0.4411
  847MOL0     H14304   5.672   1.553   6.208 -0.7565 -0.4088 -1.6762
  847MOL0     H14305   5.795   1.568   6.392 -0.7887  0.3433  0.0506
  847MOL0     H14306   5.939   1.658   6.582  2.5570 -1.4783  0.3614
  847MOL0     H14307   6.328   1.737   6.775 -1.8140  2.0611  1.0382
  847MOL0     H14308   6.499   1.826   6.918  0.5945  1.9193  0.0119
  847MOL0     H14309   6.553   2.060   7.006  1.0488  4.7114  2.4694
  847MOL0     H14310   6.714   2.114   7.005  1.3682  1.3324 -1.4516
  847MOL0     H14311   6.534   2.193   6.775  1.2766  0.0378 -0.4147
  847MOL0     H14312   6.533   2.277   6.939  4.0522  0.8797  3.3071
  847MOL0     H14313   6.783   2.313   6.894  0.1180 -2.7359 -0.8124
  847MOL0     H14314   6.746   2.245   6.728  0.7592 -0.4419 -0.6018
  847MOL0     H14315   6.601   2.470   6.883 -0.7227 -1.1013  0.1887
  847MOL0     H14316   6.566   2.435   6.720 -0.1979 -1.5495  1.5526
  847MOL0     H14317   6.828   2.495   6.677  0.4035  0.9605 -0.8969
  847MOL0     H14318   6.811   2.561   6.836 -2.4800  3.2111  0.4385
  847MOL0     H14319   6.610   2.688   6.731  0.3892  0.5559  2.0517
  847MOL0     H14320   6.785   2.731   6.694  1.1733 -1.1751 -1.0383
  847MOL0     H14321   6.607   2.553   6.519 -1.6183  2.2416 -0.3384
  847MOL0     H14322   6.782   2.602   6.495  0.8204 -2.0119  0.0029
  847MOL0     H14323   6.550   2.795   6.513  0.8471  1.2355 -1.5539
  847MOL0     H14324   6.718   2.837   6.466  0.3310 -0.4189  2.4875
  847MOL0     H14325   6.689   2.037   6.599  0.0665  0.4854  1.7303
  847MOL0     H14326   6.510   1.946   6.443 -1.7769 -2.0637 -1.3315
  847MOL0     H14327   6.223   1.773   6.281 -1.6015  3.4010 -1.6138
  847MOL0     H14328   6.081   1.677   6.099  5.0522 -0.5120 -0.0447
  847MOL0     H14329   6.880   0.830   6.096 -0.3176  0.4021 -0.2641
  847MOL0     H14330   6.975   0.837   6.332 -2.3987 -0.0298  0.6766
  847MOL0     H14331   6.922   0.593   6.723  0.1941 -0.2091 -0.7796
  847MOL0     H14332   6.971   0.616   6.943  0.3972  0.5285 -0.1661
  847MOL0     H14333   7.042   0.443   7.113  2.6703 -1.5652 -0.0234
  847MOL0     H14334   7.048   0.626   7.156  1.6057  0.7918  1.2017
  847MOL0     H14335   7.190   0.572   7.334 -2.6475  1.2989  4.3022
  847MOL0     H14336   7.189   0.397   7.296 -1.9490 -2.3752  3.0782
  847MOL0     H14337   6.973   0.366   7.366  1.4249  0.3890 -2.0960
  847MOL0     H14338   6.938   0.556   7.377  1.0477  1.3191  0.7413
  847MOL0     H14339   7.117   0.397   7.553  0.7648  0.8101  0.9865
  847MOL0     H14340   7.066   0.565   7.577 -1.0118  0.9783  0.0405
  847MOL0     H14341   6.703   0.373   7.701  0.2550 -2.5807 -1.3567
  847MOL0     H14342   7.395   0.548   6.878  0.4347  0.3936 -0.6475
  847MOL0     H14343   7.462   0.581   6.647 -0.3165 -0.6795 -0.2044
  847MOL0     H14344   7.378   0.436   6.591  2.1620 -0.0835  1.6578
  847MOL0     H14345   7.351   0.610   6.520  0.0760  0.9405  0.3408
  848MOL0     O14346   9.711   2.528   8.156 -0.2475 -0.0813  0.2780
  848MOL0     C14347   9.814   2.476   8.178 -0.1355  0.5091 -0.6573
  848MOL0     O14348   9.922   2.477   8.094 -0.1683  0.4153 -0.2854
  848MOL0     C14349   9.912   2.526   7.965 -0.2186 -0.1451 -0.8110
  848MOL0     C14350   9.945   2.654   7.935 -1.2130 -0.5609  0.1757
  848MOL0     C14351   9.921   2.698   7.802 -0.2250  0.1775  0.3661
  848MOL0     C14352   9.871   2.610   7.704 -0.1087 -0.6000  0.0602
  848MOL0     O14353   9.866   2.662   7.574  0.2800  0.1556 -0.1812
  848MOL0     C14354   9.940   2.597   7.470 -0.0633 -0.4294  0.9060
  848MOL0     C14355   9.877   2.622   7.330  0.0471  1.2558 -0.0569
  848MOL0     C14356   9.743   2.557   7.330 -0.0677 -0.6719  0.1275
  848MOL0     C14357   9.662   2.579   7.197  0.8246 -0.8885 -0.5648
  848MOL0     C14358   9.719   2.493   7.082 -0.1684  0.1680 -0.7727
  848MOL0     C14359   9.634   2.499   6.968  0.1011 -0.5608  0.9663
  848MOL0     C14360   9.674   2.613   6.871  0.1223 -0.3760 -0.1290
  848MOL0     C14361   9.582   2.626   6.748  0.2479 -0.0357 -0.9666
  848MOL0     N14362   9.600   2.511   6.662  0.8989 -0.2636  0.7121
  848MOL0     C14363   9.510   2.412   6.634  0.9639  0.2731 -0.4114
  848MOL0     C14364   9.574   2.330   6.546 -0.0568  0.0780  0.5650
  848MOL0     C14365   9.505   2.211   6.487 -0.4673 -0.5119 -0.2980
  848MOL0     C14366   9.596   2.091   6.470 -0.1023  0.1593 -0.2497
  848MOL0     C14367   9.643   2.020   6.604  0.3861  0.2381 -0.5679
  848MOL0     C14368   9.769   2.096   6.668  0.0476  0.0518 -0.3572
  848MOL0     O14369   9.799   2.014   6.778 -0.5160 -0.3899 -0.8503
  848MOL0     C14370   9.728   2.024   6.891  0.4764  0.8111  0.0629
  848MOL0     C14371   9.629   2.122   6.912 -0.8225  0.4905  0.5323
  848MOL0     C14372   9.573   2.147   7.037 -0.5366  0.1073  0.4128
  848MOL0     C14373   9.610   2.070   7.145  0.3392 -0.4702  0.2598
  848MOL0     C14374   9.567   2.114   7.288  1.0250  0.6889  0.5934
  848MOL0     O14375   9.608   2.040   7.391 -0.8482 -0.7385 -0.5876
  848MOL0     C14376   9.580   2.041   7.523  0.2693 -0.0343 -0.3922
  848MOL0     C14377   9.512   2.143   7.589 -0.2147 -0.4694 -0.1864
  848MOL0     C14378   9.503   2.144   7.730  0.3908 -0.5481  0.7665
  848MOL0     C14379   9.554   2.038   7.806 -1.2062 -0.1314 -0.0573
  848MOL0     O14380   9.536   2.027   7.942 -0.6194  0.5503  0.4360
  848MOL0     C14381   9.511   2.143   8.025 -0.7651 -0.4575 -0.5063
  848MOL0     C14382   9.587   2.131   8.161 -0.3172  0.4172 -0.9345
  848MOL0     C14383   9.567   1.995   8.239 -0.0020 -0.0506  0.4818
  848MOL0     C14384   9.604   2.029   8.386 -0.6444  0.0160 -0.1980
  848MOL0     C14385   9.585   1.901   8.471  0.1411 -0.9974 -0.7246
  848MOL0     C14386   9.613   1.925   8.619 -0.5927 -0.2040 -0.3513
  848MOL0     C14387   9.608   1.786   8.696 -0.5633 -0.8170  1.0361
  848MOL0     C14388   9.462   1.734   8.692  0.8655  0.5043  0.0339
  848MOL0    Cl14389   9.403   1.632   8.819  0.0114  0.3983  0.7442
  848MOL0     C14390   9.625   1.930   7.743 -0.3707  0.5867 -0.0599
  848MOL0     C14391   9.640   1.936   7.606 -0.2642  0.7444  0.2159
  848MOL0     O14392   9.489   2.211   7.294 -0.2195  0.1389  0.3426
  848MOL0     C14393   9.711   1.975   7.132 -0.4921  1.3382 -0.0375
  848MOL0     C14394   9.767   1.948   7.002 -0.2188 -1.0598  0.4346
  848MOL0     N14395   9.691   2.398   6.505 -0.4529  0.3494 -0.2280
  848MOL0     N14396   9.712   2.498   6.590  0.8951  0.3055  0.7883
  848MOL0     C14397   9.838   2.476   7.732 -0.0216  0.1836 -0.3882
  848MOL0     C14398   9.859   2.431   7.868 -0.1146  0.5980 -0.5486
  848MOL0     C14399   9.824   2.405   8.309  0.0974  0.3287 -0.0402
  848MOL0     C14400   9.740   2.443   8.427 -1.1222 -0.0897  1.1234
  848MOL0     C14401   9.756   2.387   8.551 -0.1131 -0.7546  0.0363
  848MOL0     C14402   9.853   2.295   8.573 -0.3195  0.5390 -0.0525
  848MOL0     O14403   9.886   2.246   8.700  0.3454 -0.1560  0.0789
  848MOL0     C14404   9.855   2.326   8.813  1.3091  0.1152  0.3351
  848MOL0     C14405   9.964   2.324   8.911 -0.7986  0.3356  0.3511
  848MOL0     C14406  10.111   2.370   8.861 -0.1262 -0.7649  0.0646
  848MOL0     C14407  10.213   2.327   8.966  0.6201  0.7910  0.6647
  848MOL0     C14408  10.350   2.383   8.962  0.2393  0.1888 -0.9531
  848MOL0     C14409  10.463   2.417   8.961  0.5155 -0.2714  0.8974
  848MOL0     C14410   9.930   2.244   8.468  0.1956 -0.4733  0.1980
  848MOL0     C14411   9.916   2.296   8.340 -0.9801 -0.6523  0.3031
  848MOL0     C14412  10.008   2.242   8.230  0.1191  0.3695 -0.1606
  848MOL0     H14413   9.976   2.721   8.015 -0.4892 -0.4405 -0.1965
  848MOL0     H14414   9.937   2.800   7.768 -0.5725 -0.0708 -0.5635
  848MOL0     H14415  10.045   2.627   7.466 -0.5512  1.3330  0.7808
  848MOL0     H14416   9.949   2.492   7.501  0.0969 -0.5955  0.3287
  848MOL0     H14417   9.931   2.573   7.249 -1.3334  0.9643 -0.8317
  848MOL0     H14418   9.880   2.727   7.298  0.3409  0.2494 -3.7957
  848MOL0     H14419   9.678   2.594   7.409  2.7861  1.4961  1.6404
  848MOL0     H14420   9.768   2.450   7.335  2.0313 -0.2544 -0.4269
  848MOL0     H14421   9.558   2.550   7.215 -0.1098  2.7279  0.6626
  848MOL0     H14422   9.664   2.687   7.180 -1.7871 -0.7403 -0.3210
  848MOL0     H14423   9.819   2.530   7.060  0.6696 -1.9148 -0.7027
  848MOL0     H14424   9.744   2.391   7.109  0.0152  1.0331  2.7452
  848MOL0     H14425   9.639   2.401   6.919 -1.2754 -0.4263  0.5134
  848MOL0     H14426   9.530   2.523   6.989 -0.1257 -1.1288  0.5302
  848MOL0     H14427   9.779   2.594   6.848  0.3554  0.0678  0.5128
  848MOL0     H14428   9.657   2.713   6.914 -0.1273 -0.2157 -0.5884
  848MOL0     H14429   9.480   2.615   6.786  0.9839  1.8896  1.9087
  848MOL0     H14430   9.611   2.716   6.693 -0.2508  0.8756  0.2201
  848MOL0     H14431   9.409   2.407   6.674 -0.2772  2.6808 -2.9145
  848MOL0     H14432   9.414   2.180   6.540 -0.6643 -0.3905 -0.5613
  848MOL0     H14433   9.480   2.229   6.382  3.5531 -1.9853 -1.7189
  848MOL0     H14434   9.535   2.018   6.416 -1.3795 -0.9004  2.4617
  848MOL0     H14435   9.679   2.125   6.407  0.7319  1.3208  1.3809
  848MOL0     H14436   9.685   1.926   6.569 -1.5961 -0.7214 -0.5209
  848MOL0     H14437   9.568   1.995   6.679  1.4865 -0.1358  0.4422
  848MOL0     H14438   9.769   2.198   6.707  0.4358 -0.4738  1.0998
  848MOL0     H14439   9.847   2.080   6.593 -2.7751  1.5168 -3.8881
  848MOL0     H14440   9.585   2.184   6.834 -2.5913 -1.7701 -0.3946
  848MOL0     H14441   9.497   2.224   7.035  0.0636  0.7171  0.8826
  848MOL0     H14442   9.478   2.225   7.525  0.4841 -0.4202 -0.5029
  848MOL0     H14443   9.444   2.227   7.767  0.0343  1.1663 -3.1310
  848MOL0     H14444   9.552   2.236   7.984 -1.7104 -0.0690 -0.5974
  848MOL0     H14445   9.406   2.164   8.044 -0.3108  1.2511  0.2968
  848MOL0     H14446   9.694   2.143   8.141  0.1007 -2.2696 -0.7102
  848MOL0     H14447   9.552   2.217   8.218 -0.4439 -0.8566  0.9974
  848MOL0     H14448   9.460   1.977   8.233 -0.4611  2.7630 -1.4474
  848MOL0     H14449   9.633   1.922   8.191 -2.7745 -1.4598 -1.4670
  848MOL0     H14450   9.545   2.109   8.431 -1.3176 -0.6680  0.1446
  848MOL0     H14451   9.709   2.059   8.375 -0.1916 -1.1857  0.6136
  848MOL0     H14452   9.659   1.827   8.436  0.5345 -0.8664 -0.1821
  848MOL0     H14453   9.489   1.853   8.452 -1.0465  1.3665 -1.0546
  848MOL0     H14454   9.715   1.966   8.612 -1.1010  1.8759  2.6871
  848MOL0     H14455   9.552   1.995   8.677  0.8147 -1.4371  2.8386
  848MOL0     H14456   9.622   1.817   8.800 -1.1113  4.5014 -0.1722
  848MOL0     H14457   9.688   1.717   8.667  0.2662  0.0366  1.2137
  848MOL0     H14458   9.389   1.815   8.691  2.4369  2.5436  6.3705
  848MOL0     H14459   9.464   1.668   8.604 -0.5568 -0.6580  0.8323
  848MOL0     H14460   9.661   1.841   7.794  0.4518  0.8452 -0.1762
  848MOL0     H14461   9.708   1.868   7.554  0.4866  1.5947  0.0550
  848MOL0     H14462   9.729   1.910   7.217 -1.0191  2.9900  1.3987
  848MOL0     H14463   9.835   1.864   6.994 -0.7192 -1.3875 -0.6289
  848MOL0     H14464   9.803   2.409   7.654 -0.2658 -0.5852  0.3743
  848MOL0     H14465   9.832   2.331   7.901  0.4035  0.7634  0.4128
  848MOL0     H14466   9.660   2.513   8.406 -1.0680 -0.9652 -2.6039
  848MOL0     H14467   9.697   2.423   8.634  3.6135  2.8011  1.5175
  848MOL0     H14468   9.763   2.294   8.863  0.2181 -0.0756 -1.7094
  848MOL0     H14469   9.837   2.426   8.773  0.1826 -0.1438  0.1589
  848MOL0     H14470   9.968   2.238   8.978  0.4331  1.6580  2.0455
  848MOL0     H14471   9.945   2.396   8.990  5.6485  2.1528  0.8212
  848MOL0     H14472  10.125   2.478   8.847 -1.3162 -0.7994 -1.6539
  848MOL0     H14473  10.124   2.324   8.763 -0.7849  0.4780 -0.6397
  848MOL0     H14474  10.180   2.343   9.068 -0.0368  1.4184  0.3607
  848MOL0     H14475  10.214   2.218   8.953  0.4870  0.8057  0.5294
  848MOL0     H14476  10.565   2.449   8.970  0.2451  0.8668  0.0407
  848MOL0     H14477   9.987   2.154   8.488  2.2168  0.6298 -0.3421
  848MOL0     H14478   9.957   2.256   8.135 -1.7840  0.1862  0.7901
  848MOL0     H14479  10.097   2.303   8.210  2.7105 -3.6727 -2.4085
  848MOL0     H14480  10.028   2.136   8.242  0.6228  0.4048 -0.6240
  849MOL0     O14481   2.650   5.726   9.064  0.3140  0.7945  0.5107
  849MOL0     C14482   2.741   5.685   8.991 -0.4106 -0.0062 -0.1162
  849MOL0     O14483   2.739   5.575   8.917 -1.0938 -1.0586 -0.0638
  849MOL0     C14484   2.630   5.493   8.915  0.6846 -0.2437  0.2494
  849MOL0     C14485   2.556   5.452   9.032 -0.2483 -0.1741  0.6441
  849MOL0     C14486   2.446   5.366   9.023  0.3930  0.3610  0.5205
  849MOL0     C14487   2.406   5.318   8.895 -0.6517  0.5536 -0.7003
  849MOL0     O14488   2.303   5.230   8.888 -0.3025 -0.1893 -0.2106
  849MOL0     C14489   2.306   5.128   8.794  0.2626 -0.1210 -0.1670
  849MOL0     C14490   2.172   5.047   8.815 -0.6281  0.1186 -0.9549
  849MOL0     C14491   2.203   4.913   8.752 -0.3453  0.0284  1.2044
  849MOL0     C14492   2.083   4.836   8.691  0.0452 -0.3788 -0.6370
  849MOL0     C14493   2.138   4.698   8.650 -0.2286  0.2459  0.3301
  849MOL0     C14494   2.027   4.604   8.607 -0.6192 -0.2458  0.6533
  849MOL0     C14495   1.930   4.555   8.714  0.6094  0.1157 -0.0098
  849MOL0     C14496   1.993   4.441   8.794  0.2103  1.0751  0.3636
  849MOL0     N14497   1.900   4.359   8.863  0.6079  0.4843  0.1138
  849MOL0     C14498   1.856   4.375   8.985 -0.6861  0.1864 -0.4847
  849MOL0     C14499   1.792   4.256   9.024  0.7056  0.1069  0.6367
  849MOL0     C14500   1.737   4.207   9.154 -1.0441  0.3376  0.2255
  849MOL0     C14501   1.602   4.297   9.179  0.0342  0.5596  0.8053
  849MOL0     C14502   1.548   4.267   9.316 -0.0831 -0.2595 -0.6002
  849MOL0     C14503   1.426   4.352   9.349 -0.3579  0.4323 -0.0532
  849MOL0     O14504   1.325   4.300   9.259 -0.4286 -0.8637  0.1847
  849MOL0     C14505   1.273   4.174   9.259  0.4152 -0.0007 -1.0245
  849MOL0     C14506   1.238   4.120   9.140  1.0811 -0.0402  0.9565
  849MOL0     C14507   1.181   3.998   9.143  0.3464 -0.5099  0.0316
  849MOL0     C14508   1.163   3.926   9.262 -0.4710 -0.2074 -0.6157
  849MOL0     C14509   1.119   3.778   9.250 -0.1612 -0.2675 -0.8930
  849MOL0     O14510   1.113   3.705   9.366  0.8685 -1.3019 -0.3571
  849MOL0     C14511   1.084   3.567   9.352  0.4621  0.0130 -0.4199
  849MOL0     C14512   0.948   3.518   9.348 -0.0142  0.8348  0.5072
  849MOL0     C14513   0.930   3.381   9.312  0.2613 -0.2640  0.5041
  849MOL0     C14514   1.045   3.302   9.277  0.2579  0.3307 -0.0214
  849MOL0     O14515   1.039   3.175   9.234  0.0130  0.3421  0.4867
  849MOL0     C14516   0.913   3.141   9.174  0.0096  0.8662 -0.1114
  849MOL0     C14517   0.938   3.009   9.092 -0.0251 -0.1332 -0.0971
  849MOL0     C14518   0.841   3.011   8.973  0.0836  0.1005 -0.7162
  849MOL0     C14519   0.901   2.933   8.843 -0.3003 -0.1947 -0.2913
  849MOL0     C14520   0.783   2.910   8.751  0.3880 -0.2803  0.4298
  849MOL0     C14521   0.799   2.859   8.599 -0.6365  0.4456 -0.6008
  849MOL0     C14522   0.793   2.706   8.589 -0.8605  1.1731 -0.0567
  849MOL0     C14523   0.791   2.671   8.446 -0.1980 -0.0604  0.2060
  849MOL0    Cl14524   0.966   2.672   8.400  0.2255  0.7990 -0.5809
  849MOL0     C14525   1.174   3.354   9.286 -0.3078  0.5007 -0.7052
  849MOL0     C14526   1.193   3.486   9.324  0.6173 -0.4146 -0.8587
  849MOL0     O14527   1.091   3.736   9.143 -0.4757  0.7886  0.3231
  849MOL0     C14528   1.200   3.980   9.388  0.7175  0.1554 -0.3983
  849MOL0     C14529   1.246   4.109   9.381  0.0835 -0.4022 -0.9770
  849MOL0     N14530   1.787   4.180   8.909 -0.5503  0.0026  0.2790
  849MOL0     N14531   1.858   4.243   8.815  0.2700  0.5347 -0.5954
  849MOL0     C14532   2.476   5.362   8.784 -0.7272  0.8507 -1.0380
  849MOL0     C14533   2.585   5.447   8.798 -1.2559 -0.1748  0.6206
  849MOL0     C14534   2.863   5.760   8.977 -0.5048  0.0658  0.0415
  849MOL0     C14535   2.963   5.717   8.889 -0.2296  0.4578 -0.4689
  849MOL0     C14536   3.083   5.785   8.877 -0.0133  0.6190 -0.4090
  849MOL0     C14537   3.109   5.905   8.937  0.0712  1.0350 -0.3800
  849MOL0     O14538   3.227   5.974   8.944  1.1024  0.4331 -0.1530
  849MOL0     C14539   3.337   5.904   8.891  0.2573  0.6837  0.1981
  849MOL0     C14540   3.470   5.976   8.912  1.1538  0.4715  0.8431
  849MOL0     C14541   3.586   5.889   8.868 -0.3897  0.1104 -0.1797
  849MOL0     C14542   3.721   5.968   8.891 -0.3795 -0.2725  0.0569
  849MOL0     C14543   3.734   6.061   8.773  0.0200 -1.2325 -0.4742
  849MOL0     C14544   3.735   6.135   8.675  0.0906  0.6206 -0.1143
  849MOL0     C14545   3.008   5.950   9.015  0.3088 -0.6697 -0.2928
  849MOL0     C14546   2.888   5.884   9.045 -0.5261 -0.3124  0.6307
  849MOL0     C14547   2.802   5.954   9.155 -0.4509  0.4070  0.7976
  849MOL0     H14548   2.597   5.470   9.131 -0.1114 -0.1782  0.5886
  849MOL0     H14549   2.389   5.334   9.109  1.0206 -2.8526 -0.1106
  849MOL0     H14550   2.315   5.167   8.692 -2.7928  3.4287  0.6981
  849MOL0     H14551   2.395   5.068   8.817 -0.1784 -1.8553 -2.5671
  849MOL0     H14552   2.080   5.080   8.766 -2.4390 -1.0747  1.4496
  849MOL0     H14553   2.142   5.036   8.920 -2.1250  1.2561 -1.2246
  849MOL0     H14554   2.260   4.843   8.814 -0.7348 -1.1428  0.2764
  849MOL0     H14555   2.263   4.932   8.663  1.8053  0.7218  2.7108
  849MOL0     H14556   2.021   4.820   8.780  2.3653  1.9255  1.5754
  849MOL0     H14557   2.035   4.894   8.611  2.2137  0.7510 -1.1914
  849MOL0     H14558   2.215   4.705   8.573 -0.0887  0.8496  0.5203
  849MOL0     H14559   2.175   4.647   8.739  1.0569  0.8319  0.1445
  849MOL0     H14560   1.971   4.661   8.532  4.0381 -0.3731 -3.3819
  849MOL0     H14561   2.078   4.522   8.555 -2.5197  0.0175 -1.7977
  849MOL0     H14562   1.844   4.519   8.658  0.0406 -2.2398  2.2062
  849MOL0     H14563   1.881   4.631   8.776 -1.6650  1.2577 -2.9962
  849MOL0     H14564   2.066   4.381   8.738  1.7435  1.3642  1.9704
  849MOL0     H14565   2.059   4.492   8.865 -0.8104  0.7248  1.6004
  849MOL0     H14566   1.877   4.461   9.048 -4.5306 -0.0406  1.4327
  849MOL0     H14567   1.715   4.100   9.152 -0.5658  0.2460 -0.5403
  849MOL0     H14568   1.811   4.234   9.230  0.8067  1.0787 -1.7468
  849MOL0     H14569   1.619   4.405   9.177  2.2424  0.2618  1.0791
  849MOL0     H14570   1.524   4.268   9.108  0.6828  1.2977 -0.2423
  849MOL0     H14571   1.617   4.300   9.394 -0.1159  2.8188 -1.7254
  849MOL0     H14572   1.516   4.163   9.331 -0.0425 -0.0752  0.9399
  849MOL0     H14573   1.446   4.457   9.323 -1.9337  0.5944 -0.7308
  849MOL0     H14574   1.399   4.338   9.454  1.6226  1.0453  0.5860
  849MOL0     H14575   1.281   4.178   9.059  2.9349 -0.6515  1.4561
  849MOL0     H14576   1.166   3.956   9.044  1.6406 -1.5173  0.2344
  849MOL0     H14577   0.862   3.583   9.359 -0.6560  0.3348 -1.1916
  849MOL0     H14578   0.833   3.334   9.323  0.5292 -0.6251  1.4003
  849MOL0     H14579   0.840   3.118   9.252  2.5797  0.0539  2.2221
  849MOL0     H14580   0.877   3.223   9.111 -0.4247  2.0961  1.6469
  849MOL0     H14581   1.038   3.014   9.048  0.3473  0.3187  0.7834
  849MOL0     H14582   0.934   2.920   9.156 -1.8373  1.6838  2.5119
  849MOL0     H14583   0.741   2.977   8.999 -0.7866  2.9045 -0.0650
  849MOL0     H14584   0.827   3.112   8.935  2.4286  1.0022  0.6396
  849MOL0     H14585   0.948   2.841   8.880 -1.6256 -1.4347 -1.5317
  849MOL0     H14586   0.976   2.987   8.785 -1.2936 -2.4336 -3.9610
  849MOL0     H14587   0.741   3.010   8.763  2.9078  1.3031 -2.4792
  849MOL0     H14588   0.709   2.849   8.804 -2.0160  0.6076 -1.6948
  849MOL0     H14589   0.707   2.895   8.554 -1.3499 -0.4441  0.1000
  849MOL0     H14590   0.890   2.894   8.549  0.0368 -0.6084 -0.1582
  849MOL0     H14591   0.697   2.677   8.632 -0.2822  1.0666  1.2057
  849MOL0     H14592   0.880   2.655   8.632 -1.1352  0.8723  0.1439
  849MOL0     H14593   0.757   2.567   8.437  1.2224 -0.4306 -1.3148
  849MOL0     H14594   0.740   2.730   8.370  1.0470 -2.0885 -2.3622
  849MOL0     H14595   1.253   3.291   9.247 -2.1409 -2.3088 -0.2093
  849MOL0     H14596   1.295   3.523   9.324  1.1255 -1.5770  1.8085
  849MOL0     H14597   1.181   3.932   9.483 -2.8417  0.6647 -0.7281
  849MOL0     H14598   1.268   4.160   9.475  1.1716  2.6664 -2.7572
  849MOL0     H14599   2.446   5.340   8.683 -1.7140 -0.3011 -0.5155
  849MOL0     H14600   2.645   5.483   8.715 -2.3874 -2.1381 -1.1251
  849MOL0     H14601   2.958   5.621   8.839 -2.2941  1.3850 -2.1971
  849MOL0     H14602   3.151   5.740   8.805 -0.1931  0.4366 -0.4670
  849MOL0     H14603   3.326   5.895   8.783  1.0753 -3.8975  0.3344
  849MOL0     H14604   3.339   5.804   8.934 -1.4881 -0.0850 -1.3658
  849MOL0     H14605   3.479   5.998   9.019 -1.0381  3.0328  0.6293
  849MOL0     H14606   3.481   6.072   8.860  0.6836  0.8114  1.3563
  849MOL0     H14607   3.566   5.866   8.763  0.7878  0.1246 -0.4213
  849MOL0     H14608   3.595   5.793   8.920  1.6717  0.2077 -0.2641
  849MOL0     H14609   3.724   6.016   8.989  0.7941 -0.9327  0.3643
  849MOL0     H14610   3.804   5.897   8.884 -1.2163 -1.1254 -2.2419
  849MOL0     H14611   3.734   6.192   8.584 -0.6514 -0.8495 -1.0728
  849MOL0     H14612   3.023   6.047   9.061 -0.3357 -0.0362 -1.3764
  849MOL0     H14613   2.731   6.021   9.107 -1.7249 -2.1475 -1.0998
  849MOL0     H14614   2.753   5.885   9.225 -0.7775  2.2776  2.5106
  849MOL0     H14615   2.861   6.021   9.218  1.2104 -1.1758  1.0204
  850MOL0     O14616   2.559   3.010   4.787 -0.3294  0.3897 -0.6144
  850MOL0     C14617   2.665   2.962   4.815 -0.3949 -0.0565 -0.3787
  850MOL0     O14618   2.700   2.914   4.933 -0.2544  0.6329 -1.0695
  850MOL0     C14619   2.626   2.944   5.044 -0.3903  0.4086  0.7875
  850MOL0     C14620   2.486   2.937   5.051 -0.6382  0.8836  1.1968
  850MOL0     C14621   2.426   2.951   5.169 -0.0047 -0.2738  0.2581
  850MOL0     C14622   2.495   2.974   5.287 -0.5842  0.2272 -0.4398
  850MOL0     O14623   2.441   2.956   5.411 -0.4520  0.1382 -0.7220
  850MOL0     C14624   2.300   2.955   5.432  0.2858 -0.3719 -0.4900
  850MOL0     C14625   2.268   2.810   5.451  0.3058  0.1651  0.0857
  850MOL0     C14626   2.118   2.805   5.466  0.8011 -0.2272 -0.1280
  850MOL0     C14627   2.081   2.664   5.456 -0.3429 -0.3162 -0.2146
  850MOL0     C14628   2.108   2.592   5.326  0.1726 -0.7816 -0.1940
  850MOL0     C14629   2.073   2.664   5.199  0.1232 -0.2773 -0.6786
  850MOL0     C14630   2.050   2.560   5.103 -0.0701  0.7364  0.4096
  850MOL0     C14631   2.015   2.614   4.962 -0.0435  0.0206  0.5567
  850MOL0     N14632   1.874   2.629   4.941  0.1273  0.1353 -0.9154
  850MOL0     C14633   1.795   2.550   4.857  0.2881 -0.2909 -0.5227
  850MOL0     C14634   1.676   2.614   4.858  0.1554  0.2215 -0.2549
  850MOL0     C14635   1.558   2.561   4.794  0.5627  0.0497 -0.1413
  850MOL0     C14636   1.587   2.586   4.645  0.0870 -0.1690  0.7797
  850MOL0     C14637   1.562   2.733   4.608 -0.5276 -0.5785  1.0285
  850MOL0     C14638   1.526   2.741   4.456 -1.1073 -0.6161 -0.2183
  850MOL0     O14639   1.510   2.883   4.417 -0.2736  0.0217 -0.5747
  850MOL0     C14640   1.469   2.922   4.290 -0.5563 -0.0190 -0.4828
  850MOL0     C14641   1.452   2.826   4.188  0.0679  0.9244 -0.2497
  850MOL0     C14642   1.412   2.859   4.052  0.3105  1.2906 -0.3669
  850MOL0     C14643   1.394   2.991   4.018  0.3296  0.3529  0.0332
  850MOL0     C14644   1.359   3.027   3.878  0.3978 -0.7353  0.5764
  850MOL0     O14645   1.350   3.164   3.859 -0.9233  1.0393 -0.5093
  850MOL0     C14646   1.381   3.231   3.742  0.0664  0.7235  0.4399
  850MOL0     C14647   1.332   3.354   3.732  0.0602 -0.7528  0.7304
  850MOL0     C14648   1.354   3.440   3.622  0.0034 -0.4020 -0.0060
  850MOL0     C14649   1.434   3.394   3.513  0.1629 -0.3345 -0.8894
  850MOL0     O14650   1.444   3.491   3.410 -0.0984  0.0710 -0.9636
  850MOL0     C14651   1.570   3.510   3.336  0.7728  1.2228  0.2196
  850MOL0     C14652   1.551   3.629   3.238  0.1624  0.1372  0.0937
  850MOL0     C14653   1.526   3.760   3.313  0.0814 -0.2939  0.9898
  850MOL0     C14654   1.647   3.841   3.332  0.5695  0.3023 -0.1681
  850MOL0     C14655   1.627   3.995   3.345  0.3767 -0.7025  0.2416
  850MOL0     C14656   1.629   4.033   3.497 -0.7349 -0.2006  0.8429
  850MOL0     C14657   1.621   4.188   3.502 -0.4313  0.7853  0.3815
  850MOL0     C14658   1.642   4.239   3.649 -0.3301 -0.6576  0.4587
  850MOL0    Cl14659   1.808   4.267   3.691  0.7114  0.0460 -0.2360
  850MOL0     C14660   1.485   3.267   3.517 -0.1816  0.3895  0.0045
  850MOL0     C14661   1.463   3.187   3.634  1.0545  0.0698 -0.8165
  850MOL0     O14662   1.328   2.943   3.796 -0.1883 -0.5220 -0.3646
  850MOL0     C14663   1.424   3.085   4.115 -0.2000  0.2365  0.6071
  850MOL0     C14664   1.447   3.051   4.255 -0.4021  0.4796  0.6798
  850MOL0     N14665   1.689   2.725   4.940 -0.4447 -0.4301  0.1712
  850MOL0     N14666   1.806   2.730   4.990  0.6297  0.0471 -0.4270
  850MOL0     C14667   2.634   2.988   5.281  0.0664  0.1128  0.2197
  850MOL0     C14668   2.701   2.972   5.158  0.2139 -0.6736  0.5497
  850MOL0     C14669   2.770   2.941   4.711  0.0154 -0.6565 -0.2503
  850MOL0     C14670   2.837   3.053   4.658  0.5001  0.1157  1.0436
  850MOL0     C14671   2.913   3.049   4.547  0.3152  1.4165 -0.6020
  850MOL0     C14672   2.930   2.929   4.479  0.6661  0.6243 -0.0674
  850MOL0     O14673   3.009   2.932   4.363 -0.0314  0.4340  0.5369
  850MOL0     C14674   3.144   2.979   4.377 -0.1648 -0.2770 -0.0679
  850MOL0     C14675   3.174   3.098   4.302 -0.0018 -0.2717  0.1903
  850MOL0     C14676   3.324   3.132   4.286 -0.5601  0.1812 -0.7812
  850MOL0     C14677   3.396   3.125   4.424 -0.7259  0.3489  0.4736
  850MOL0     C14678   3.455   3.000   4.469  0.2095 -0.3457 -0.2070
  850MOL0     C14679   3.504   2.893   4.505  0.1941 -1.3657 -0.0293
  850MOL0     C14680   2.886   2.815   4.540 -0.1817  0.2154 -0.3922
  850MOL0     C14681   2.812   2.815   4.665 -0.3368 -0.6597 -0.2067
  850MOL0     C14682   2.778   2.689   4.739 -0.5239 -0.8249  0.5411
  850MOL0     H14683   2.432   2.919   4.959  2.4323 -4.4179 -0.0494
  850MOL0     H14684   2.321   2.923   5.171 -0.1452  0.1402 -0.6553
  850MOL0     H14685   2.265   3.016   5.515  3.5107  0.8243  0.1388
  850MOL0     H14686   2.252   2.999   5.345  1.1247  1.0895 -0.2439
  850MOL0     H14687   2.324   2.753   5.525  2.0696  2.2626  0.4469
  850MOL0     H14688   2.300   2.770   5.354  1.8853 -1.3032  1.1645
  850MOL0     H14689   2.070   2.867   5.390  0.1419  0.6144  0.9503
  850MOL0     H14690   2.094   2.850   5.563  1.4821 -0.2718  0.0670
  850MOL0     H14691   2.133   2.613   5.537 -1.9274  0.1602  1.1633
  850MOL0     H14692   1.974   2.655   5.478 -0.1103  0.0608  1.1952
  850MOL0     H14693   2.212   2.558   5.323  0.5180  0.1656  0.6457
  850MOL0     H14694   2.050   2.499   5.323 -2.7356  0.9410 -2.0085
  850MOL0     H14695   1.979   2.717   5.217  1.9218  2.3723  1.7343
  850MOL0     H14696   2.155   2.725   5.159 -1.7160  1.3703 -2.0972
  850MOL0     H14697   1.969   2.493   5.132 -0.3008  1.5607  1.7350
  850MOL0     H14698   2.143   2.503   5.095 -0.4124 -0.2376  2.7097
  850MOL0     H14699   2.076   2.705   4.951  2.0940 -1.2220  1.6180
  850MOL0     H14700   2.054   2.539   4.893 -0.5478 -0.1947  0.5076
  850MOL0     H14701   1.818   2.450   4.821  2.5069  0.9743 -2.8649
  850MOL0     H14702   1.546   2.455   4.817  2.3945 -0.3131 -0.6840
  850MOL0     H14703   1.470   2.608   4.840 -0.1607 -1.8446  0.5021
  850MOL0     H14704   1.688   2.558   4.613 -0.9293 -1.4709 -1.5500
  850MOL0     H14705   1.514   2.520   4.597 -1.6311  0.1714  2.7503
  850MOL0     H14706   1.654   2.789   4.626 -0.1246  0.0510 -2.3819
  850MOL0     H14707   1.478   2.774   4.665 -1.7374 -1.2736 -0.1944
  850MOL0     H14708   1.432   2.691   4.436 -0.6391 -1.6201  0.0443
  850MOL0     H14709   1.609   2.687   4.410 -0.6177 -0.4403  0.4366
  850MOL0     H14710   1.468   2.722   4.215 -2.8704  0.5319  0.3776
  850MOL0     H14711   1.395   2.770   3.992 -0.3015  0.6594  0.7139
  850MOL0     H14712   1.280   3.391   3.819 -0.8544 -0.0094 -0.1201
  850MOL0     H14713   1.331   3.546   3.624  1.2710 -0.0735  3.2807
  850MOL0     H14714   1.663   3.524   3.392 -0.3859  4.6187  1.5408
  850MOL0     H14715   1.589   3.424   3.270 -3.1472  2.3549 -2.7951
  850MOL0     H14716   1.641   3.632   3.177  0.6346  0.5234  0.7955
  850MOL0     H14717   1.482   3.610   3.155  1.5702  1.5089 -1.4633
  850MOL0     H14718   1.450   3.809   3.253  2.6810 -1.0772 -3.4120
  850MOL0     H14719   1.493   3.731   3.413 -2.1003  2.4191  1.1489
  850MOL0     H14720   1.718   3.825   3.250 -1.9035 -1.2700 -2.1566
  850MOL0     H14721   1.680   3.801   3.428 -0.9260 -0.1497  0.1850
  850MOL0     H14722   1.536   4.028   3.292  1.0589  0.1303 -0.4335
  850MOL0     H14723   1.702   4.053   3.290  1.5963 -0.5243  2.0355
  850MOL0     H14724   1.547   3.979   3.546 -2.7336  1.9272  0.0710
  850MOL0     H14725   1.724   4.008   3.545  0.4572  0.8603 -0.8561
  850MOL0     H14726   1.523   4.219   3.465 -1.6040 -3.7373 -0.9026
  850MOL0     H14727   1.704   4.225   3.441 -1.5286  1.9833 -0.4335
  850MOL0     H14728   1.586   4.330   3.673  0.6333 -0.4546  2.0897
  850MOL0     H14729   1.602   4.165   3.719 -1.4070  0.2288  0.8136
  850MOL0     H14730   1.527   3.223   3.427  3.2459 -2.0225  2.5350
  850MOL0     H14731   1.509   3.090   3.646  2.0151  0.8608  3.4488
  850MOL0     H14732   1.407   3.187   4.084 -0.9537  0.0589  0.4138
  850MOL0     H14733   1.447   3.137   4.321  1.9995  1.0865 -0.0152
  850MOL0     H14734   2.685   3.013   5.374 -0.3137 -3.0274  1.3858
  850MOL0     H14735   2.806   3.001   5.161  1.2559 -3.8992 -0.5023
  850MOL0     H14736   2.815   3.155   4.688 -0.2112  0.8317 -1.6502
  850MOL0     H14737   2.944   3.141   4.499 -0.4215  2.2551  0.4664
  850MOL0     H14738   3.216   2.905   4.341  0.4803  2.3379 -5.1051
  850MOL0     H14739   3.169   3.001   4.482 -0.4528 -0.7258  0.0978
  850MOL0     H14740   3.116   3.181   4.342 -0.5037  0.7499 -2.4654
  850MOL0     H14741   3.142   3.074   4.200  2.5578 -2.7036 -0.1875
  850MOL0     H14742   3.338   3.227   4.233  0.5965  0.4909  0.0416
  850MOL0     H14743   3.366   3.060   4.216  1.0838  1.5180 -1.2490
  850MOL0     H14744   3.478   3.195   4.407 -2.9104  3.0317  0.3465
  850MOL0     H14745   3.334   3.167   4.503 -0.8453 -1.1726  1.2309
  850MOL0     H14746   3.534   2.795   4.534 -3.9422 -2.5114  1.1253
  850MOL0     H14747   2.907   2.728   4.478  4.2202 -0.4329  1.6238
  850MOL0     H14748   2.813   2.601   4.683 -0.0600 -0.9988  1.0791
  850MOL0     H14749   2.825   2.699   4.838 -0.3809  2.8645  0.2237
  850MOL0     H14750   2.670   2.676   4.749 -0.8201 -3.4069 -3.7305
  851MOL0     O14751   9.097   4.160   5.299 -0.1645  0.3822  0.2027
  851MOL0     C14752   9.109   4.041   5.245  0.0777 -0.6512 -1.0577
  851MOL0     O14753   9.224   3.985   5.216  0.0124 -0.6694  0.4078
  851MOL0     C14754   9.344   4.053   5.237 -0.4371 -0.1999  0.1909
  851MOL0     C14755   9.454   3.966   5.271  0.4239 -0.6377 -0.2790
  851MOL0     C14756   9.582   4.018   5.279 -0.5292 -0.0702 -0.0151
  851MOL0     C14757   9.604   4.157   5.268 -0.0790  1.0128 -0.3050
  851MOL0     O14758   9.730   4.200   5.286 -0.3876 -0.2751  0.1121
  851MOL0     C14759   9.783   4.317   5.220  0.2562 -0.6400  0.6247
  851MOL0     C14760   9.865   4.284   5.099  0.2084  0.7195  0.5816
  851MOL0     C14761  10.006   4.238   5.141  1.3707 -0.0742 -0.0987
  851MOL0     C14762  10.072   4.115   5.067  0.0330 -0.0843  0.4797
  851MOL0     C14763  10.107   4.118   4.912  1.0426 -0.1401 -0.1866
  851MOL0     C14764  10.114   3.983   4.839 -0.4664  0.6021  0.0704
  851MOL0     C14765  10.138   3.995   4.694 -0.9875  1.2914  0.1523
  851MOL0     C14766  10.176   3.862   4.634  0.0825 -0.2775  0.0675
  851MOL0     N14767  10.228   3.864   4.491  0.0516 -0.2209 -0.7103
  851MOL0     C14768  10.273   3.979   4.427 -0.3955 -1.0158 -0.0909
  851MOL0     C14769  10.283   3.939   4.293  0.5620 -1.0264  0.1736
  851MOL0     C14770  10.313   4.034   4.174 -0.7499  0.7645  0.4282
  851MOL0     C14771  10.307   3.954   4.044 -1.1074 -0.0225 -0.0101
  851MOL0     C14772  10.268   4.034   3.922 -0.4043  0.6398  0.6207
  851MOL0     C14773  10.117   4.080   3.928 -0.4549  0.1720  0.5125
  851MOL0     O14774  10.108   4.212   3.989 -0.0438  0.8903  1.0943
  851MOL0     C14775   9.994   4.289   3.968 -0.6065 -0.0095 -0.3659
  851MOL0     C14776   9.879   4.236   3.911 -0.9185  0.7673  0.2202
  851MOL0     C14777   9.766   4.313   3.889 -0.0175 -0.8738 -0.3045
  851MOL0     C14778   9.777   4.450   3.919 -0.9853  0.0068 -1.2746
  851MOL0     C14779   9.666   4.545   3.893 -0.5119 -0.4540 -0.2635
  851MOL0     O14780   9.663   4.655   3.965 -0.9296 -0.1359 -0.2732
  851MOL0     C14781   9.603   4.765   3.900 -1.0941 -0.4827 -0.3740
  851MOL0     C14782   9.519   4.854   3.980  0.3749 -0.3710 -0.3845
  851MOL0     C14783   9.472   4.976   3.922 -0.1675 -1.0398  0.6797
  851MOL0     C14784   9.515   5.022   3.798  0.8746 -0.5524  0.7155
  851MOL0     O14785   9.476   5.145   3.735 -0.8256  1.1236 -1.2141
  851MOL0     C14786   9.459   5.262   3.820  0.2355  0.4620 -0.0169
  851MOL0     C14787   9.586   5.301   3.901  0.7623  0.4756  0.7822
  851MOL0     C14788   9.555   5.408   3.995 -0.7355 -0.7644 -0.7128
  851MOL0     C14789   9.688   5.452   4.073 -0.0263  0.3548 -0.0403
  851MOL0     C14790   9.740   5.576   4.013 -0.5580 -0.3373  0.6391
  851MOL0     C14791   9.858   5.627   4.103 -0.7194  0.9017  0.0780
  851MOL0     C14792   9.924   5.770   4.061  0.4005 -0.5427 -0.4123
  851MOL0     C14793  10.035   5.807   4.161 -0.3745 -0.1356 -0.2148
  851MOL0    Cl14794   9.964   5.847   4.317 -0.6551  0.3384  0.1502
  851MOL0     C14795   9.586   4.933   3.718 -0.0788 -0.4063  0.1209
  851MOL0     C14796   9.633   4.806   3.771 -0.4426  0.5767  0.3873
  851MOL0     O14797   9.571   4.495   3.837  0.5510 -0.0652  1.6038
  851MOL0     C14798   9.887   4.502   3.987 -0.3530  0.0416 -0.1480
  851MOL0     C14799  10.001   4.418   4.017  0.3729 -0.4853 -0.5519
  851MOL0     N14800  10.254   3.803   4.286  0.8567 -0.8250 -0.9250
  851MOL0     N14801  10.236   3.754   4.406 -0.0152  0.1837  0.0158
  851MOL0     C14802   9.494   4.243   5.235 -0.3354  0.3806  0.2666
  851MOL0     C14803   9.368   4.188   5.220 -1.0452  0.3601 -0.0263
  851MOL0     C14804   8.992   3.958   5.241 -0.0085 -0.3365  0.2818
  851MOL0     C14805   8.913   3.956   5.358 -0.4504 -0.5313  0.2485
  851MOL0     C14806   8.795   3.882   5.350 -0.9092 -0.7167 -0.1630
  851MOL0     C14807   8.763   3.793   5.246 -0.0789 -0.0878 -0.4627
  851MOL0     O14808   8.656   3.711   5.243 -0.2304 -0.9236  0.6099
  851MOL0     C14809   8.570   3.701   5.355 -0.4322 -0.1841 -0.0931
  851MOL0     C14810   8.469   3.587   5.347  0.1229 -0.5188 -0.0056
  851MOL0     C14811   8.540   3.455   5.343  0.3557 -1.8079  0.2122
  851MOL0     C14812   8.444   3.346   5.291 -0.2089  0.5574  0.9048
  851MOL0     C14813   8.446   3.220   5.365  1.0843 -0.0510  0.7863
  851MOL0     C14814   8.464   3.105   5.416  0.2881 -1.2143  0.3676
  851MOL0     C14815   8.856   3.785   5.144 -0.5129  0.6415 -0.3823
  851MOL0     C14816   8.972   3.862   5.135 -0.3157  0.2479 -0.0220
  851MOL0     C14817   9.062   3.838   5.018  0.0258 -0.3574  0.0966
  851MOL0     H14818   9.438   3.859   5.283  0.5522 -1.0777 -3.3229
  851MOL0     H14819   9.674   3.962   5.293  1.3430  2.6159 -0.9253
  851MOL0     H14820   9.712   4.395   5.189  2.7515  1.4970 -0.0639
  851MOL0     H14821   9.834   4.377   5.295 -1.5488  1.8846 -0.0273
  851MOL0     H14822   9.880   4.372   5.035  2.2951 -0.0961 -0.1663
  851MOL0     H14823   9.817   4.207   5.038 -2.5371 -0.5604  4.0796
  851MOL0     H14824   9.993   4.204   5.244 -1.6325  1.6298  0.2039
  851MOL0     H14825  10.068   4.328   5.131  2.4951 -0.8169  0.0307
  851MOL0     H14826  10.160   4.083   5.125  1.7509 -1.8866 -2.8331
  851MOL0     H14827  10.006   4.030   5.086  1.5312 -1.4522 -0.1602
  851MOL0     H14828  10.033   4.183   4.864  0.5343 -0.1984  0.5038
  851MOL0     H14829  10.201   4.171   4.892  0.0185  1.4970 -0.9002
  851MOL0     H14830  10.193   3.931   4.893 -0.9861  1.9423  2.2507
  851MOL0     H14831  10.020   3.935   4.869 -0.4537  1.7122  2.0512
  851MOL0     H14832  10.232   4.050   4.685 -1.5775  2.3460  0.3224
  851MOL0     H14833  10.065   4.050   4.635 -0.4755  2.1630  0.3108
  851MOL0     H14834  10.251   3.808   4.692 -0.5606 -2.6881 -1.2443
  851MOL0     H14835  10.085   3.802   4.632 -0.3739  0.4059 -1.8334
  851MOL0     H14836  10.288   4.082   4.457  0.7876 -1.0613 -0.4860
  851MOL0     H14837  10.230   4.104   4.164  0.1174  1.5255 -2.7768
  851MOL0     H14838  10.406   4.090   4.186 -1.3117  1.3314  2.5508
  851MOL0     H14839  10.399   3.898   4.029 -2.5704 -1.8005 -3.2579
  851MOL0     H14840  10.236   3.871   4.049 -1.0401 -0.3123 -2.7533
  851MOL0     H14841  10.288   3.969   3.837  0.0847 -0.6915  1.7009
  851MOL0     H14842  10.333   4.121   3.909 -0.5815  0.6569 -0.1968
  851MOL0     H14843  10.061   4.003   3.983  0.9881 -2.7025 -1.7419
  851MOL0     H14844  10.078   4.097   3.827  1.3911  0.7771 -0.1294
  851MOL0     H14845   9.872   4.128   3.899 -0.0821  0.5456  1.4741
  851MOL0     H14846   9.674   4.273   3.848 -0.9732  0.9937 -0.1021
  851MOL0     H14847   9.471   4.829   4.074 -2.4279  0.5280 -1.4573
  851MOL0     H14848   9.412   5.048   3.976  2.9184  3.0310 -0.7870
  851MOL0     H14849   9.431   5.354   3.769 -1.3947  0.0880  0.1332
  851MOL0     H14850   9.374   5.241   3.885 -0.2744  1.9159 -0.1876
  851MOL0     H14851   9.632   5.216   3.952  1.1023  1.8084  2.8634
  851MOL0     H14852   9.655   5.345   3.828  0.4278 -0.3437 -0.0446
  851MOL0     H14853   9.494   5.478   3.937 -2.5732 -2.6246 -1.1384
  851MOL0     H14854   9.494   5.367   4.076  2.2895 -1.3994  1.4128
  851MOL0     H14855   9.759   5.369   4.072 -1.4327 -1.0160 -3.4748
  851MOL0     H14856   9.660   5.471   4.177  0.8860  0.2861  0.2260
  851MOL0     H14857   9.659   5.649   4.007  0.7980  1.3033  1.4403
  851MOL0     H14858   9.777   5.545   3.914 -1.2906  0.7559  0.0049
  851MOL0     H14859   9.825   5.627   4.207 -1.4518 -0.7712 -0.1260
  851MOL0     H14860   9.924   5.540   4.092  0.5000  1.6087  1.5247
  851MOL0     H14861   9.849   5.850   4.067  1.7303  0.6725  0.5544
  851MOL0     H14862   9.965   5.772   3.960  0.9839  1.0169 -0.1820
  851MOL0     H14863  10.100   5.719   4.163  1.0923  0.8827 -1.3008
  851MOL0     H14864  10.093   5.892   4.124  1.9444 -0.1954  2.9057
  851MOL0     H14865   9.609   4.954   3.614 -1.4238 -3.5486 -0.9439
  851MOL0     H14866   9.701   4.743   3.714 -0.8549  1.9002 -1.6654
  851MOL0     H14867   9.890   4.600   4.033 -2.4195 -0.6743  1.7059
  851MOL0     H14868  10.088   4.469   4.056 -0.7972  1.0260  0.1664
  851MOL0     H14869   9.501   4.351   5.224  1.1293  0.6530  3.0940
  851MOL0     H14870   9.296   4.260   5.183  2.8365  2.3716 -4.6647
  851MOL0     H14871   8.941   4.021   5.440 -2.7724  0.9681 -0.0697
  851MOL0     H14872   8.727   3.902   5.432 -0.2545  4.2543 -0.5617
  851MOL0     H14873   8.518   3.794   5.380  2.0490  1.1818  0.3332
  851MOL0     H14874   8.634   3.683   5.443 -0.4065 -1.2486 -0.3142
  851MOL0     H14875   8.406   3.599   5.258 -0.8353  0.8381  0.8235
  851MOL0     H14876   8.396   3.603   5.426 -0.7249  1.5951 -1.1367
  851MOL0     H14877   8.582   3.438   5.443  0.0962  0.7848  0.8352
  851MOL0     H14878   8.624   3.466   5.274 -0.1728  1.3010 -0.0522
  851MOL0     H14879   8.340   3.379   5.299 -1.0399 -2.0713  2.1574
  851MOL0     H14880   8.468   3.315   5.189 -0.2795  1.0248  0.7444
  851MOL0     H14881   8.482   3.006   5.452 -2.1748 -2.3715 -1.2702
  851MOL0     H14882   8.836   3.706   5.073  0.6857  0.2928 -0.3423
  851MOL0     H14883   9.012   3.781   4.940  1.3859  0.9168 -1.7756
  851MOL0     H14884   9.093   3.937   4.986 -0.0243  0.2086  1.7054
  851MOL0     H14885   9.154   3.782   5.041 -0.7199 -0.6586  2.6916
  852MOL0     O14886   6.486   0.034   3.153 -0.1157  0.0579  0.4594
  852MOL0     C14887   6.553  -0.057   3.208 -0.3743 -1.1209 -0.3183
  852MOL0     O14888   6.642  -0.137   3.151  0.6202 -0.0203  0.0624
  852MOL0     C14889   6.623  -0.170   3.013  0.2334 -0.9830 -0.1022
  852MOL0     C14890   6.501  -0.167   2.942  0.9837  0.0637 -0.5916
  852MOL0     C14891   6.495  -0.194   2.808 -0.6702  0.5685  0.4412
  852MOL0     C14892   6.610  -0.234   2.738  1.2740  0.3497 -0.2911
  852MOL0     O14893   6.583  -0.261   2.607 -0.6929  0.3287  0.3959
  852MOL0     C14894   6.692  -0.298   2.527 -0.8266 -0.0632 -0.4449
  852MOL0     C14895   6.655  -0.301   2.371 -0.9690 -0.9246  0.0575
  852MOL0     C14896   6.543  -0.399   2.347  0.1421  0.4188 -0.7674
  852MOL0     C14897   6.503  -0.391   2.197  0.2409 -0.7480  0.1009
  852MOL0     C14898   6.499  -0.514   2.117 -0.1095  0.3451  0.0581
  852MOL0     C14899   6.412  -0.493   1.993  0.4830 -0.6860 -0.1521
  852MOL0     C14900   6.423  -0.597   1.874  0.1208  0.2712 -0.4599
  852MOL0     C14901   6.358  -0.731   1.897  0.0916 -0.2787 -0.4576
  852MOL0     N14902   6.273  -0.780   1.778 -1.1433 -0.5046 -0.1250
  852MOL0     C14903   6.141  -0.764   1.754  0.3121  0.3277  0.7547
  852MOL0     C14904   6.130  -0.805   1.620 -1.3364 -0.7525  0.9757
  852MOL0     C14905   6.015  -0.803   1.538  0.0702 -0.7331 -0.4279
  852MOL0     C14906   5.956  -0.668   1.496  0.3404 -0.1341 -0.2924
  852MOL0     C14907   6.067  -0.567   1.445  0.0698  1.3027  0.5507
  852MOL0     C14908   6.010  -0.434   1.403 -1.1819  0.4350 -0.1481
  852MOL0     O14909   5.924  -0.450   1.299  0.5494  0.3120 -0.1876
  852MOL0     C14910   5.838  -0.337   1.284 -0.0003 -0.0482  0.1211
  852MOL0     C14911   5.882  -0.201   1.306 -0.0842  0.2087  0.7797
  852MOL0     C14912   5.795  -0.094   1.282 -0.0393  1.1346 -1.0118
  852MOL0     C14913   5.665  -0.121   1.236 -0.1572  0.2799  0.2469
  852MOL0     C14914   5.591  -0.012   1.171  0.1776 -0.0908 -0.2177
  852MOL0     O14915   5.459  -0.018   1.152 -0.2475 -0.3384  0.4743
  852MOL0     C14916   5.393   0.089   1.102 -0.1525 -0.6765  0.5381
  852MOL0     C14917   5.320   0.078   0.982 -0.1997 -0.2131 -0.0403
  852MOL0     C14918   5.248   0.183   0.937 -0.7665 -0.3396  0.5909
  852MOL0     C14919   5.249   0.309   1.003 -0.7615 -0.1634 -0.6195
  852MOL0     O14920   5.203   0.429   0.951  0.2615 -0.5963 -0.2143
  852MOL0     C14921   5.081   0.431   0.876 -0.0603  0.5568 -0.4584
  852MOL0     C14922   4.972   0.524   0.929  0.4338 -0.3788 -0.0753
  852MOL0     C14923   4.921   0.465   1.065 -0.6732 -0.1361  0.0711
  852MOL0     C14924   4.790   0.543   1.101 -0.3953 -0.6561  0.2331
  852MOL0     C14925   4.738   0.506   1.241  0.1802 -0.0830  0.3615
  852MOL0     C14926   4.686   0.355   1.262  0.7273 -0.9274  0.3869
  852MOL0     C14927   4.606   0.325   1.389  0.9263 -0.2872  0.0979
  852MOL0     C14928   4.466   0.396   1.386  0.5664 -0.2791 -0.2138
  852MOL0    Cl14929   4.397   0.364   1.534 -0.3969  0.3007 -0.1748
  852MOL0     C14930   5.330   0.321   1.126  1.3863  0.3599  0.3253
  852MOL0     C14931   5.384   0.202   1.179  0.8306 -0.6586  0.3995
  852MOL0     O14932   5.664   0.075   1.124  0.1708  1.0679 -0.4702
  852MOL0     C14933   5.626  -0.247   1.232  0.4152 -0.1689 -0.1495
  852MOL0     C14934   5.703  -0.355   1.250  0.3385 -0.2985 -1.0852
  852MOL0     N14935   6.251  -0.867   1.582  0.0975 -0.6228  0.9015
  852MOL0     N14936   6.337  -0.847   1.678 -0.1234  0.6633  0.1742
  852MOL0     C14937   6.734  -0.235   2.801 -0.2763  0.4794  0.8302
  852MOL0     C14938   6.744  -0.195   2.938  0.4614 -0.3132  0.3772
  852MOL0     C14939   6.546  -0.065   3.350  0.1588  0.3265 -0.4609
  852MOL0     C14940   6.653  -0.135   3.421 -1.7743  0.6380  0.9292
  852MOL0     C14941   6.640  -0.161   3.558  0.1426  0.0492  0.5899
  852MOL0     C14942   6.528  -0.111   3.635 -0.7986 -0.9452  0.7754
  852MOL0     O14943   6.501  -0.131   3.769  0.3173 -0.2090  0.5358
  852MOL0     C14944   6.604  -0.168   3.860  0.3156  0.5976  0.8967
  852MOL0     C14945   6.574  -0.125   4.005 -0.0503 -0.7827 -0.6658
  852MOL0     C14946   6.604   0.021   4.036  0.0651  0.6453 -0.6056
  852MOL0     C14947   6.529   0.088   4.163 -0.0916 -0.1955  0.7781
  852MOL0     C14948   6.547   0.015   4.284 -1.0738 -0.3131 -0.0900
  852MOL0     C14949   6.548  -0.056   4.383  0.3339 -0.3742  0.1408
  852MOL0     C14950   6.435  -0.036   3.570  0.0587 -0.1551  0.5274
  852MOL0     C14951   6.432  -0.014   3.430 -0.3447  0.6318 -0.6344
  852MOL0     C14952   6.317   0.066   3.378  0.2244 -0.6637  0.0362
  852MOL0     H14953   6.410  -0.139   2.993  1.1795 -0.5702  0.1125
  852MOL0     H14954   6.399  -0.197   2.756  0.6618 -0.8693 -2.1339
  852MOL0     H14955   6.769  -0.223   2.541 -1.9598  0.5569  3.5380
  852MOL0     H14956   6.732  -0.398   2.544 -2.7073 -0.9220 -0.7429
  852MOL0     H14957   6.737  -0.323   2.302 -0.0461  0.0433  0.8037
  852MOL0     H14958   6.628  -0.196   2.356  0.2344 -0.7665 -1.1770
  852MOL0     H14959   6.464  -0.367   2.415  0.0185  3.1825 -2.0531
  852MOL0     H14960   6.567  -0.502   2.374  1.2865  0.9484  0.3038
  852MOL0     H14961   6.406  -0.341   2.203  1.2002  1.4087 -1.2478
  852MOL0     H14962   6.575  -0.320   2.157  1.0430 -0.4517  1.9348
  852MOL0     H14963   6.603  -0.532   2.091 -0.1206  1.3193 -0.7203
  852MOL0     H14964   6.460  -0.598   2.176  1.9123  0.1700  1.2394
  852MOL0     H14965   6.308  -0.474   2.022  0.1470 -0.2320 -1.5875
  852MOL0     H14966   6.442  -0.395   1.953  2.5125 -1.0802  0.2934
  852MOL0     H14967   6.525  -0.634   1.866 -0.9850 -2.6085 -2.9022
  852MOL0     H14968   6.386  -0.552   1.782  1.1182  0.1900 -0.9104
  852MOL0     H14969   6.430  -0.812   1.908 -1.8006 -2.1006 -0.7359
  852MOL0     H14970   6.316  -0.726   1.998  1.1015  0.5421 -0.0563
  852MOL0     H14971   6.056  -0.737   1.816 -2.7515  0.5991 -3.1421
  852MOL0     H14972   6.045  -0.842   1.441 -2.4469  2.3331 -2.6375
  852MOL0     H14973   5.945  -0.876   1.580  1.0428 -2.2448 -1.3745
  852MOL0     H14974   5.880  -0.685   1.419 -0.3486 -0.3260  0.4150
  852MOL0     H14975   5.897  -0.614   1.571  2.0542  0.8062  0.4419
  852MOL0     H14976   6.118  -0.614   1.360  1.6361 -1.0356  2.6497
  852MOL0     H14977   6.145  -0.543   1.517  1.5928 -0.9267 -0.2375
  852MOL0     H14978   6.089  -0.375   1.355 -1.2631  0.5162 -0.1815
  852MOL0     H14979   5.986  -0.373   1.491  2.8388  4.3445 -1.3716
  852MOL0     H14980   5.981  -0.180   1.346  1.3706 -1.2247 -1.7749
  852MOL0     H14981   5.824   0.009   1.297 -1.1550  1.4715 -1.0331
  852MOL0     H14982   5.343  -0.016   0.933  0.3792 -1.1033  1.8418
  852MOL0     H14983   5.205   0.177   0.838 -0.5562 -1.1495  0.5401
  852MOL0     H14984   5.093   0.459   0.771  0.2400  1.4634 -0.1942
  852MOL0     H14985   5.043   0.330   0.859  0.2186  0.5238 -0.9305
  852MOL0     H14986   5.007   0.626   0.946 -0.9528 -0.0813  1.2823
  852MOL0     H14987   4.885   0.516   0.864 -1.1553  2.0845  1.5630
  852MOL0     H14988   4.904   0.359   1.046 -1.1325 -0.0794  0.1613
  852MOL0     H14989   4.982   0.478   1.155  0.1097 -0.0981 -0.4625
  852MOL0     H14990   4.714   0.529   1.024  0.7776 -0.4664 -0.9987
  852MOL0     H14991   4.808   0.651   1.108 -3.0603 -0.2602  2.5897
  852MOL0     H14992   4.649   0.565   1.264  1.3635  1.1383  2.0090
  852MOL0     H14993   4.809   0.515   1.324  0.1367 -4.6856  1.1549
  852MOL0     H14994   4.631   0.321   1.173  0.4216 -1.0802  0.6319
  852MOL0     H14995   4.774   0.292   1.249  1.9897  1.0953 -1.7388
  852MOL0     H14996   4.658   0.372   1.473 -1.5473  0.5426  1.2618
  852MOL0     H14997   4.590   0.217   1.394  1.0902 -0.2874  0.6958
  852MOL0     H14998   4.464   0.504   1.370 -5.0851 -0.1745 -1.1019
  852MOL0     H14999   4.404   0.342   1.313 -1.3845  0.9641  0.4248
  852MOL0     H15000   5.333   0.421   1.169 -0.4302 -0.0866  1.6145
  852MOL0     H15001   5.424   0.206   1.279 -1.2078  1.0257  1.2210
  852MOL0     H15002   5.537  -0.282   1.180  1.9335 -1.8808 -1.7780
  852MOL0     H15003   5.671  -0.453   1.216  1.5409  0.0852 -3.5756
  852MOL0     H15004   6.829  -0.259   2.753  0.2350  0.5669  1.7766
  852MOL0     H15005   6.840  -0.174   2.985  0.9112 -0.0026 -0.6429
  852MOL0     H15006   6.737  -0.180   3.368 -0.8752  0.7145  2.2379
  852MOL0     H15007   6.716  -0.225   3.603  0.0468  0.6262  1.6031
  852MOL0     H15008   6.699  -0.125   3.830  0.2698 -0.2237 -0.5016
  852MOL0     H15009   6.603  -0.277   3.866  4.9084  0.4691  3.7744
  852MOL0     H15010   6.635  -0.186   4.071 -1.9501 -0.7434  1.2196
  852MOL0     H15011   6.466  -0.134   4.022 -0.1369  0.6030 -0.3440
  852MOL0     H15012   6.585   0.076   3.944  0.9139  3.0091  0.5601
  852MOL0     H15013   6.712   0.040   4.044 -0.0292  0.8390  0.3474
  852MOL0     H15014   6.565   0.188   4.187  4.9277 -2.0879  2.2971
  852MOL0     H15015   6.425   0.095   4.128  0.1894 -1.5643 -0.4640
  852MOL0     H15016   6.551  -0.123   4.467 -0.1613 -1.3796 -0.6177
  852MOL0     H15017   6.355   0.016   3.622 -0.0402 -1.4574  1.7268
  852MOL0     H15018   6.302   0.037   3.273 -1.0919 -0.2274  0.0855
  852MOL0     H15019   6.222   0.052   3.430 -0.6471 -0.4279 -1.4312
  852MOL0     H15020   6.339   0.171   3.400 -0.2425 -0.5184 -0.1740
  853MOL0     O15021   7.691   4.695  10.532  0.4309 -0.3285  0.1549
  853MOL0     C15022   7.808   4.686  10.566  0.7273 -0.0297 -0.4476
  853MOL0     O15023   7.896   4.592  10.518  0.5480 -0.0473 -0.5698
  853MOL0     C15024   7.860   4.514  10.412  0.4166  0.1292 -0.2232
  853MOL0     C15025   7.784   4.391  10.431  0.3770  0.0212  0.2730
  853MOL0     C15026   7.761   4.320  10.314  0.4796  0.3899  1.4396
  853MOL0     C15027   7.816   4.356  10.191  0.7224  0.2741  0.5524
  853MOL0     O15028   7.813   4.272  10.082  0.1421 -0.2408 -0.2267
  853MOL0     C15029   7.835   4.133  10.097  0.1705  0.6793 -0.6090
  853MOL0     C15030   7.965   4.082  10.037  0.2944 -0.3325  0.3313
  853MOL0     C15031   7.966   3.932  10.089  0.2087 -0.7286  0.5646
  853MOL0     C15032   8.093   3.862  10.048  0.4939 -0.8539 -0.6791
  853MOL0     C15033   8.121   3.746  10.129  0.6809  0.0312 -0.0459
  853MOL0     C15034   8.269   3.701  10.118 -0.7608 -0.4226  0.1114
  853MOL0     C15035   8.309   3.593  10.225 -0.3616 -0.2540  0.1420
  853MOL0     C15036   8.460   3.593  10.269  0.3804  0.0738 -0.1202
  853MOL0     N15037   8.470   3.532  10.407 -0.2064 -0.5448  0.2238
  853MOL0     C15038   8.431   3.601  10.515  0.4606 -0.2369 -1.1187
  853MOL0     C15039   8.454   3.525  10.625  0.0216  0.0350  0.9144
  853MOL0     C15040   8.418   3.572  10.769 -0.4939  0.6236  0.0969
  853MOL0     C15041   8.505   3.680  10.836  0.7323  0.0030 -0.1216
  853MOL0     C15042   8.432   3.820  10.819  0.0425  0.0495  0.3832
  853MOL0     C15043   8.515   3.932  10.886  0.1159  0.7288  0.5290
  853MOL0     O15044   8.456   4.044  10.819 -0.3233 -0.3223  0.0436
  853MOL0     C15045   8.499   4.170  10.859 -0.7152  0.9056  1.3811
  853MOL0     C15046   8.432   4.269  10.795 -0.3105 -0.4009 -0.1792
  853MOL0     C15047   8.452   4.402  10.831 -0.1184 -0.8720  0.1075
  853MOL0     C15048   8.563   4.431  10.925  0.4487 -0.7014  0.5909
  853MOL0     C15049   8.582   4.571  10.969 -0.2661  0.2883  1.2709
  853MOL0     O15050   8.533   4.670  10.889  0.3457  0.5046 -0.3357
  853MOL0     C15051   8.503   4.797  10.943  0.6620  0.1603 -1.3726
  853MOL0     C15052   8.421   4.793  11.049  0.5969 -0.2747  0.0602
  853MOL0     C15053   8.361   4.909  11.098 -0.0493  0.0867  0.1648
  853MOL0     C15054   8.395   5.032  11.042  0.7391  0.2572 -0.8635
  853MOL0     O15055   8.331   5.150  11.074 -0.2189  0.1211  0.3664
  853MOL0     C15056   8.195   5.156  11.132  0.3134 -0.5501  0.8512
  853MOL0     C15057   8.165   5.311  11.144  0.0198 -0.0828 -0.1643
  853MOL0     C15058   8.069   5.344  11.257 -0.6430  0.0074  0.5047
  853MOL0     C15059   7.973   5.461  11.234 -0.5157  0.6734  0.3971
  853MOL0     C15060   8.022   5.604  11.249 -0.6087 -0.3157  1.0964
  853MOL0     C15061   8.080   5.627  11.392 -0.1562  0.4360  0.1955
  853MOL0     C15062   8.062   5.763  11.448  0.1395 -0.0347 -0.5258
  853MOL0     C15063   7.935   5.780  11.536 -0.9098 -0.6255  0.2801
  853MOL0    Cl15064   7.808   5.800  11.417 -0.1216  0.2666 -0.2731
  853MOL0     C15065   8.497   5.040  10.939  0.7155 -0.7600  0.4801
  853MOL0     C15066   8.551   4.921  10.884  1.0397  0.9704 -0.3216
  853MOL0     O15067   8.627   4.589  11.078 -0.4296  0.5037  0.0489
  853MOL0     C15068   8.632   4.328  10.985  0.8718 -1.7147 -0.9741
  853MOL0     C15069   8.610   4.194  10.948 -0.0679 -0.0801 -0.5654
  853MOL0     N15070   8.499   3.409  10.579 -0.4933  0.2026 -1.2012
  853MOL0     N15071   8.524   3.414  10.452  0.0435  1.2052 -0.1454
  853MOL0     C15072   7.891   4.470  10.175  0.3958 -0.6432 -0.0586
  853MOL0     C15073   7.916   4.548  10.287 -0.9403  0.2453  0.0993
  853MOL0     C15074   7.870   4.790  10.646  0.2199  0.0515 -0.0055
  853MOL0     C15075   8.005   4.782  10.672  0.2965  0.0642  0.4872
  853MOL0     C15076   8.077   4.880  10.732  0.5041 -0.8752  0.3713
  853MOL0     C15077   8.006   5.001  10.777  0.6325  0.3573  0.4900
  853MOL0     O15078   8.065   5.104  10.844  0.3477  0.4981 -0.9237
  853MOL0     C15079   8.147   5.190  10.762  0.3027  0.7225 -0.3169
  853MOL0     C15080   8.078   5.226  10.625 -0.0870  0.7569  0.5045
  853MOL0     C15081   8.147   5.349  10.562  0.4794 -0.7751  0.2285
  853MOL0     C15082   8.091   5.383  10.423 -0.0177  0.4569  0.2371
  853MOL0     C15083   8.139   5.301  10.306 -0.6195  0.8936 -0.4333
  853MOL0     C15084   8.205   5.257  10.225 -0.4764 -0.1569  0.3570
  853MOL0     C15085   7.868   4.998  10.769  0.1343 -1.1733  1.3683
  853MOL0     C15086   7.798   4.906  10.694 -0.8689  1.2191  0.2713
  853MOL0     C15087   7.662   4.941  10.667  0.0422  1.0755  1.3140
  853MOL0     H15088   7.748   4.362  10.529  0.0466  1.0476  0.4610
  853MOL0     H15089   7.703   4.228  10.317 -0.4572  0.7159 -2.1817
  853MOL0     H15090   7.819   4.100  10.200 -1.5991  0.3879 -0.9561
  853MOL0     H15091   7.753   4.087  10.041  0.7657  0.8106 -1.6027
  853MOL0     H15092   8.045   4.136  10.089  0.9876 -0.2055 -0.8503
  853MOL0     H15093   7.973   4.086   9.928  3.1895  0.9641  0.5032
  853MOL0     H15094   7.877   3.876  10.060  0.0902  1.2776 -3.7268
  853MOL0     H15095   7.971   3.930  10.199 -0.8244  1.9117  0.7308
  853MOL0     H15096   8.077   3.827   9.946  4.7596 -0.2209 -1.7618
  853MOL0     H15097   8.164   3.945  10.053 -2.1004  1.4164  1.6534
  853MOL0     H15098   8.106   3.767  10.235  4.5207  0.6466  0.5482
  853MOL0     H15099   8.050   3.667  10.104 -1.6933  0.7800  3.6657
  853MOL0     H15100   8.290   3.666  10.017  0.0581  0.8242 -0.1667
  853MOL0     H15101   8.333   3.787  10.141 -0.6085 -1.1017  2.5054
  853MOL0     H15102   8.279   3.495  10.187 -2.3564  0.9126 -1.4916
  853MOL0     H15103   8.248   3.617  10.312  1.0115  2.6752  0.4189
  853MOL0     H15104   8.533   3.548  10.201  2.1572  1.8774  0.5037
  853MOL0     H15105   8.494   3.695  10.291 -3.3422  0.6794  4.3896
  853MOL0     H15106   8.388   3.701  10.514 -0.4472 -0.6213 -1.8200
  853MOL0     H15107   8.315   3.605  10.785 -0.4370  0.0147  1.9699
  853MOL0     H15108   8.438   3.483  10.831 -3.4289  0.7117  1.3185
  853MOL0     H15109   8.522   3.650  10.939  0.9622 -0.5115 -0.3051
  853MOL0     H15110   8.602   3.691  10.787 -0.2076 -1.2311 -2.4240
  853MOL0     H15111   8.337   3.813  10.871 -0.8642  1.6576 -0.9425
  853MOL0     H15112   8.418   3.840  10.712 -0.8469 -3.4982 -0.2943
  853MOL0     H15113   8.622   3.924  10.866 -0.0516 -0.1939 -0.0529
  853MOL0     H15114   8.497   3.939  10.994  1.8461 -2.2455  1.1323
  853MOL0     H15115   8.358   4.232  10.725 -0.6450 -2.5381  1.2170
  853MOL0     H15116   8.384   4.472  10.783 -1.5810 -1.7388  0.8452
  853MOL0     H15117   8.391   4.704  11.104  1.7404 -0.8381 -0.2135
  853MOL0     H15118   8.289   4.896  11.178 -0.5006 -1.4206 -0.4506
  853MOL0     H15119   8.104   5.111  11.090 -0.4147 -0.2366  2.0501
  853MOL0     H15120   8.213   5.121  11.234 -0.5025 -3.8793 -0.0231
  853MOL0     H15121   8.262   5.358  11.165 -0.4479  1.1928 -0.7115
  853MOL0     H15122   8.128   5.362  11.054 -1.5830  0.7732  0.9516
  853MOL0     H15123   8.003   5.257  11.261  1.9234 -2.0328  0.9145
  853MOL0     H15124   8.127   5.341  11.350 -0.7308 -3.5110  0.5574
  853MOL0     H15125   7.895   5.457  11.310 -0.0455  2.2413  1.0038
  853MOL0     H15126   7.943   5.452  11.129  0.5281 -1.5171  0.2232
  853MOL0     H15127   7.940   5.672  11.227  1.3577  1.4523 -1.3093
  853MOL0     H15128   8.099   5.627  11.175  0.3388  0.5902  2.3304
  853MOL0     H15129   8.035   5.559  11.465  1.4791  1.3332  2.1291
  853MOL0     H15130   8.187   5.606  11.384 -0.0846  1.1057 -0.8396
  853MOL0     H15131   8.053   5.846  11.377 -0.6774  2.9290  2.7248
  853MOL0     H15132   8.149   5.788  11.509 -0.6904 -0.7701  1.0212
  853MOL0     H15133   7.901   5.696  11.597  0.2918 -0.4063  1.3006
  853MOL0     H15134   7.938   5.865  11.605  4.9109  1.0485 -1.4340
  853MOL0     H15135   8.518   5.139  10.900 -1.2549  0.2782  1.8701
  853MOL0     H15136   8.608   4.921  10.792  1.0936 -0.5275 -0.3015
  853MOL0     H15137   8.699   4.356  11.066  0.0263 -0.6754 -0.6066
  853MOL0     H15138   8.654   4.112  11.002 -2.8000 -1.7683 -0.7421
  853MOL0     H15139   7.940   4.490  10.080 -0.0962  3.3950  0.3330
  853MOL0     H15140   7.995   4.622  10.281  1.2005 -1.8367  0.9918
  853MOL0     H15141   8.052   4.693  10.632  1.0702  1.0769 -0.9831
  853MOL0     H15142   8.184   4.888  10.723  0.4096 -1.1703 -1.2935
  853MOL0     H15143   8.242   5.136  10.760 -0.9513 -1.8116  1.6187
  853MOL0     H15144   8.165   5.287  10.809  2.4618  0.7153 -0.9950
  853MOL0     H15145   7.974   5.259  10.637 -0.6299  0.7413 -3.0898
  853MOL0     H15146   8.068   5.140  10.559  0.8059  0.8260  0.2754
  853MOL0     H15147   8.254   5.325  10.557  0.5774 -0.8213  1.8849
  853MOL0     H15148   8.137   5.437  10.626 -0.6492 -1.3281  0.8424
  853MOL0     H15149   7.982   5.380  10.419  0.0436 -1.1002 -1.3274
  853MOL0     H15150   8.097   5.489  10.395 -2.7121  0.8570  0.9302
  853MOL0     H15151   8.262   5.236  10.137  1.1846  0.8488  1.1252
  853MOL0     H15152   7.811   5.082  10.807 -0.4244 -0.0436 -1.7069
  853MOL0     H15153   7.654   4.964  10.560  2.7131 -1.0857  0.5121
  853MOL0     H15154   7.605   4.852  10.697  1.4244  0.6654  2.8628
  853MOL0     H15155   7.619   5.021  10.728 -1.8402  3.0594 -2.2442
  854MOL0     O15156  11.143   4.640  10.669  0.0795  0.1103  0.0790
  854MOL0     C15157  11.063   4.552  10.660  0.4316  0.3470 -0.1094
  854MOL0     O15158  11.079   4.414  10.690  0.8345 -0.7570  0.6551
  854MOL0     C15159  11.188   4.374  10.768  0.4218 -0.0938 -0.2556
  854MOL0     C15160  11.240   4.251  10.759  0.5117 -0.6330  0.7380
  854MOL0     C15161  11.341   4.212  10.848  0.2068  0.6744 -0.2460
  854MOL0     C15162  11.404   4.296  10.942  0.5145 -0.4703 -0.6363
  854MOL0     O15163  11.509   4.248  11.021  0.0449  0.0629  0.8896
  854MOL0     C15164  11.539   4.291  11.156 -0.5804  0.0910  0.4021
  854MOL0     C15165  11.611   4.179  11.236 -0.0955 -0.1705 -0.5865
  854MOL0     C15166  11.720   4.109  11.167 -0.5900  0.0087  0.0070
  854MOL0     C15167  11.813   4.213  11.121  0.6207  0.6845 -0.7003
  854MOL0     C15168  11.924   4.134  11.045 -0.4629 -1.6539 -0.1947
  854MOL0     C15169  12.048   4.237  11.025 -0.8920  0.0927 -0.8939
  854MOL0     C15170  12.150   4.166  10.935 -2.1602 -0.4408  0.4427
  854MOL0     C15171  12.089   4.139  10.797 -0.1158  0.1657  1.4397
  854MOL0     N15172  12.194   4.073  10.705 -0.3128  0.9055 -0.6452
  854MOL0     C15173  12.273   3.978  10.735  1.1849 -0.2605 -0.1391
  854MOL0     C15174  12.345   3.950  10.627  0.0128  0.4791 -0.2044
  854MOL0     C15175  12.447   3.843  10.628  0.0107  0.4493 -0.3127
  854MOL0     C15176  12.558   3.880  10.526 -0.6147  0.1936 -0.6197
  854MOL0     C15177  12.630   4.007  10.564 -0.8265 -0.4701 -0.4314
  854MOL0     C15178  12.753   4.025  10.482 -0.8239 -0.2741  1.2376
  854MOL0     O15179  12.841   4.136  10.520 -0.6993 -0.6358  0.6817
  854MOL0     C15180  12.859   4.175  10.645 -0.1187 -0.1479  0.7088
  854MOL0     C15181  12.954   4.118  10.733  0.2798 -0.0808  0.0142
  854MOL0     C15182  12.975   4.173  10.861 -0.4906  0.6188  1.1145
  854MOL0     C15183  12.891   4.277  10.905 -0.3932  0.7978  0.6579
  854MOL0     C15184  12.921   4.331  11.043  0.1172  0.2820  1.2374
  854MOL0     O15185  12.964   4.240  11.130 -0.1322  0.3185 -0.3456
  854MOL0     C15186  12.954   4.280  11.263 -0.6843  0.9529 -0.2755
  854MOL0     C15187  13.069   4.282  11.344 -0.1683  0.6736 -0.8745
  854MOL0     C15188  13.061   4.325  11.480  0.1812  0.1688 -0.5918
  854MOL0     C15189  12.941   4.333  11.538 -0.1994  0.2961 -1.0453
  854MOL0     O15190  12.951   4.337  11.681 -1.2416 -0.1731  0.1169
  854MOL0     C15191  12.846   4.366  11.762 -0.9042 -0.3845  0.1148
  854MOL0     C15192  12.902   4.397  11.898 -0.4115 -0.0001  0.6082
  854MOL0     C15193  12.798   4.408  12.012 -0.0453  0.6566 -1.1036
  854MOL0     C15194  12.726   4.270  12.039 -0.1835 -0.1359 -0.1882
  854MOL0     C15195  12.593   4.270  12.129  0.1231  0.5309  0.1392
  854MOL0     C15196  12.502   4.160  12.094  0.0926  0.5016  0.4873
  854MOL0     C15197  12.482   4.140  11.946  0.5280  0.0744 -0.4783
  854MOL0     C15198  12.573   4.016  11.896  0.1082  0.1631 -0.3121
  854MOL0    Cl15199  12.515   3.967  11.734  0.3135  0.6507 -0.0655
  854MOL0     C15200  12.823   4.322  11.468 -0.0461  0.6477 -0.0948
  854MOL0     C15201  12.824   4.294  11.324  0.1599 -0.8330 -0.3472
  854MOL0     O15202  12.882   4.440  11.068 -0.2737  0.6379  0.1371
  854MOL0     C15203  12.798   4.332  10.818 -0.0618 -0.5852  0.2427
  854MOL0     C15204  12.780   4.281  10.692 -0.8771 -0.3427 -0.0725
  854MOL0     N15205  12.299   4.025  10.524  0.7039  1.2267  0.4089
  854MOL0     N15206  12.207   4.102  10.571  0.6743  0.4196  0.4901
  854MOL0     C15207  11.342   4.427  10.955  0.7701 -0.3031  0.5729
  854MOL0     C15208  11.230   4.450  10.875  1.0854 -0.1956  0.4527
  854MOL0     C15209  10.927   4.590  10.637 -0.0659  0.2345 -0.1476
  854MOL0     C15210  10.841   4.538  10.734  0.1476  0.3962 -1.2039
  854MOL0     C15211  10.705   4.564  10.733 -0.2207  0.0032 -0.5383
  854MOL0     C15212  10.653   4.638  10.615 -0.4102  0.0684 -0.8929
  854MOL0     O15213  10.515   4.657  10.606  0.2439  1.1782 -0.3331
  854MOL0     C15214  10.443   4.723  10.501  0.3624  0.0071  0.0158
  854MOL0     C15215  10.422   4.626  10.378  0.4668  0.2623 -0.3338
  854MOL0     C15216  10.309   4.529  10.421 -0.4647 -0.1278  0.3303
  854MOL0     C15217  10.303   4.413  10.316 -0.9855  0.0746  1.0905
  854MOL0     C15218  10.245   4.464  10.186 -0.1114  0.3389 -0.4515
  854MOL0     C15219  10.207   4.509  10.078 -0.5429  0.5228 -0.5759
  854MOL0     C15220  10.743   4.685  10.522 -0.3212 -0.1734  0.8390
  854MOL0     C15221  10.879   4.669  10.533 -0.2662  0.5976  0.5741
  854MOL0     C15222  10.967   4.711  10.420 -0.3031 -0.4772 -0.2045
  854MOL0     H15223  11.193   4.182  10.689  2.4245  0.7300 -2.1196
  854MOL0     H15224  11.386   4.113  10.841  3.2498  1.8699  0.6994
  854MOL0     H15225  11.607   4.377  11.151  2.4976 -2.2384 -3.7297
  854MOL0     H15226  11.443   4.304  11.207 -1.7008 -1.0174 -1.3145
  854MOL0     H15227  11.539   4.098  11.246 -2.0806  1.5044 -0.5225
  854MOL0     H15228  11.638   4.222  11.334  1.9457  2.1200 -2.0342
  854MOL0     H15229  11.679   4.055  11.081  1.5801 -1.6894 -0.0584
  854MOL0     H15230  11.770   4.034  11.229 -1.9305 -0.1381  0.9478
  854MOL0     H15231  11.764   4.287  11.057  2.3941  1.9229 -0.7037
  854MOL0     H15232  11.862   4.272  11.199  1.7437  1.3673 -1.8827
  854MOL0     H15233  11.950   4.040  11.093 -1.6844 -1.2053  1.4481
  854MOL0     H15234  11.882   4.115  10.946  1.8985  0.4366 -1.7190
  854MOL0     H15235  12.015   4.322  10.966 -2.1462  1.0135  1.0023
  854MOL0     H15236  12.097   4.266  11.119 -0.2365  0.9621 -1.4891
  854MOL0     H15237  12.173   4.066  10.973 -0.9459 -0.4373 -0.2516
  854MOL0     H15238  12.239   4.224  10.913 -0.6534 -1.7475  2.6898
  854MOL0     H15239  12.000   4.076  10.793 -0.4368  0.6654 -0.8139
  854MOL0     H15240  12.050   4.231  10.751  0.2746 -0.1775  0.3977
  854MOL0     H15241  12.272   3.923  10.829 -4.7869 -1.5188 -0.5542
  854MOL0     H15242  12.483   3.820  10.728  0.0941  0.1755 -0.4058
  854MOL0     H15243  12.388   3.757  10.597  1.0038 -0.6841  0.8537
  854MOL0     H15244  12.634   3.804  10.543  2.8501  3.8051  2.0909
  854MOL0     H15245  12.521   3.883  10.423  1.3925  0.7759 -1.3785
  854MOL0     H15246  12.650   3.998  10.672 -3.5137 -1.8392  0.0476
  854MOL0     H15247  12.566   4.092  10.543  0.4965  0.5006 -0.6638
  854MOL0     H15248  12.721   4.038  10.378  2.2416 -1.5928  0.0009
  854MOL0     H15249  12.819   3.938  10.488  0.6448  0.5430 -1.4185
  854MOL0     H15250  13.012   4.033  10.700 -1.2991 -0.6860 -1.3563
  854MOL0     H15251  13.048   4.123  10.923  0.0276  0.5668  0.4772
  854MOL0     H15252  13.167   4.274  11.300  1.5022  2.6525  2.1483
  854MOL0     H15253  13.153   4.338  11.535  0.5512 -0.5401 -1.0263
  854MOL0     H15254  12.788   4.448  11.720  1.3017  0.5289 -1.3069
  854MOL0     H15255  12.793   4.271  11.756  0.4236 -1.5397  3.5709
  854MOL0     H15256  12.988   4.333  11.923 -1.4854 -2.1761 -0.9151
  854MOL0     H15257  12.952   4.493  11.891  3.7549 -2.0754 -3.1666
  854MOL0     H15258  12.843   4.440  12.106 -2.5903 -2.0731  1.2534
  854MOL0     H15259  12.728   4.487  11.985 -0.1601  0.0638 -2.6334
  854MOL0     H15260  12.795   4.195  12.080  3.2075  2.8059 -0.0293
  854MOL0     H15261  12.701   4.246  11.935 -2.2084  0.4996  0.1120
  854MOL0     H15262  12.537   4.362  12.111 -0.8995  0.0092  0.5705
  854MOL0     H15263  12.616   4.263  12.236  1.6630 -0.0780 -0.2103
  854MOL0     H15264  12.541   4.065  12.131 -0.2012  0.2777  0.2257
  854MOL0     H15265  12.412   4.169  12.154  2.1497  2.2622  3.5833
  854MOL0     H15266  12.499   4.232  11.890 -1.1915  0.8402  0.1673
  854MOL0     H15267  12.376   4.117  11.931  0.9314 -2.2280 -0.1979
  854MOL0     H15268  12.682   4.026  11.900  0.2020  1.0820 -2.9266
  854MOL0     H15269  12.549   3.937  11.967  0.5081 -1.1252 -1.5797
  854MOL0     H15270  12.731   4.319  11.524  1.3301  1.6208  2.3585
  854MOL0     H15271  12.730   4.284  11.271  0.9816  1.0100 -2.2917
  854MOL0     H15272  12.728   4.406  10.856  0.0553  2.0150 -3.9127
  854MOL0     H15273  12.704   4.324  10.628 -2.3654 -0.7453  1.3601
  854MOL0     H15274  11.369   4.507  11.024 -3.7079  1.5142  0.5218
  854MOL0     H15275  11.187   4.549  10.885 -3.1979 -1.2462 -3.9873
  854MOL0     H15276  10.885   4.489  10.820 -1.3613 -3.3341 -2.3446
  854MOL0     H15277  10.631   4.537  10.808 -2.5228 -0.7722 -2.9686
  854MOL0     H15278  10.489   4.812  10.457  0.0334  1.1440  1.8728
  854MOL0     H15279  10.353   4.769  10.544 -1.2901 -1.3244 -1.8350
  854MOL0     H15280  10.512   4.565  10.360  1.6124  2.2167 -1.6200
  854MOL0     H15281  10.397   4.686  10.290 -0.6498  1.1770  0.5774
  854MOL0     H15282  10.215   4.582  10.439 -0.2266  0.6412 -0.6724
  854MOL0     H15283  10.348   4.483  10.513  1.2773 -1.9894 -1.2558
  854MOL0     H15284  10.403   4.373  10.296 -0.2980  1.5253  1.4926
  854MOL0     H15285  10.232   4.339  10.354 -1.0488 -0.2943  0.2802
  854MOL0     H15286  10.178   4.559   9.987 -0.1301 -0.7281 -1.4164
  854MOL0     H15287  10.711   4.752  10.442  0.2339 -0.5873  0.2564
  854MOL0     H15288  11.071   4.682  10.431 -0.5072 -2.3293 -2.4353
  854MOL0     H15289  10.935   4.668  10.325  2.1603 -1.4490 -0.6561
  854MOL0     H15290  10.969   4.820  10.410  0.2025 -0.7145 -5.1460
  855MOL0     O15291   8.883  10.729   2.005 -0.2661  0.3540 -0.5918
  855MOL0     C15292   8.787  10.656   2.012  0.6638  0.2875 -0.9709
  855MOL0     O15293   8.664  10.693   2.069  0.1379  0.2594  0.8382
  855MOL0     C15294   8.647  10.821   2.105 -0.5933 -0.3032  0.4479
  855MOL0     C15295   8.568  10.905   2.020  0.0760  0.1767  0.4492
  855MOL0     C15296   8.541  11.034   2.046 -0.3400 -0.0479  0.6006
  855MOL0     C15297   8.600  11.102   2.159 -0.1400 -0.2433  0.2281
  855MOL0     O15298   8.600  11.241   2.179 -0.3781 -0.4473  0.0718
  855MOL0     C15299   8.608  11.318   2.055 -0.2406 -0.8488  0.8356
  855MOL0     C15300   8.608  11.463   2.095  0.1341  1.1256  0.2721
  855MOL0     C15301   8.456  11.515   2.122 -0.1865  0.0727  0.0478
  855MOL0     C15302   8.456  11.663   2.105 -0.2226  0.0366 -0.5495
  855MOL0     C15303   8.558  11.741   2.198 -0.1517  0.4695 -0.4128
  855MOL0     C15304   8.518  11.887   2.204  0.3293  0.1269 -0.0441
  855MOL0     C15305   8.633  11.961   2.283  1.3728 -0.1934  1.0666
  855MOL0     C15306   8.599  12.103   2.304  0.0333 -0.3524 -0.2378
  855MOL0     N15307   8.703  12.183   2.374  0.2270  0.6837  0.5147
  855MOL0     C15308   8.723  12.149   2.511  0.1920  0.2759  0.2096
  855MOL0     C15309   8.834  12.224   2.538  0.3620  0.4248  0.8727
  855MOL0     C15310   8.900  12.229   2.678 -0.0576  0.6509 -0.1098
  855MOL0     C15311   8.824  12.157   2.784 -0.6278 -1.2557  0.6836
  855MOL0     C15312   8.880  12.164   2.932  0.7527  0.0850  0.8670
  855MOL0     C15313   8.800  12.063   3.024 -0.4414 -0.0047  0.0467
  855MOL0     O15314   8.876  11.986   3.124  0.4482 -0.3694  0.9010
  855MOL0     C15315   8.792  11.885   3.186 -1.0542  0.9839  0.4904
  855MOL0     C15316   8.696  11.798   3.122  0.0651 -0.5101 -0.9180
  855MOL0     C15317   8.635  11.695   3.200 -0.2549 -0.3825  0.0807
  855MOL0     C15318   8.654  11.677   3.336  0.7151  0.1126 -0.8905
  855MOL0     C15319   8.598  11.567   3.417  0.6745  0.3049  0.6613
  855MOL0     O15320   8.560  11.593   3.541  0.6530 -0.4847 -0.1766
  855MOL0     C15321   8.475  11.516   3.619  0.1435 -1.1339 -0.9896
  855MOL0     C15322   8.444  11.577   3.740  0.2277 -0.0679 -0.2126
  855MOL0     C15323   8.358  11.511   3.834  1.0046 -0.4910 -0.0222
  855MOL0     C15324   8.304  11.388   3.807  0.9290 -0.4904 -0.0982
  855MOL0     O15325   8.218  11.335   3.903  0.0658 -0.6136 -0.5169
  855MOL0     C15326   8.103  11.256   3.865  0.0459  0.2293  0.0754
  855MOL0     C15327   8.020  11.232   3.995 -0.0785 -1.0202  1.5501
  855MOL0     C15328   8.097  11.141   4.096 -0.3749 -0.2373  0.7123
  855MOL0     C15329   8.003  11.109   4.211  0.6556 -0.5051  0.5891
  855MOL0     C15330   7.964  11.244   4.279  0.1414  0.5113  0.1905
  855MOL0     C15331   7.922  11.205   4.426  1.1496  0.4459  0.5886
  855MOL0     C15332   7.856  11.333   4.492 -0.8182  0.8835 -0.3576
  855MOL0     C15333   7.784  11.311   4.628  1.1893  0.4850 -0.2329
  855MOL0    Cl15334   7.655  11.187   4.599 -0.4707 -0.4726  0.3006
  855MOL0     C15335   8.321  11.330   3.679  0.6003 -0.0796  0.1159
  855MOL0     C15336   8.407  11.397   3.592  0.7698  0.3960  1.2103
  855MOL0     O15337   8.570  11.469   3.351 -0.8769 -0.2285  0.4199
  855MOL0     C15338   8.744  11.767   3.397 -0.3966  0.5770  0.0099
  855MOL0     C15339   8.829  11.859   3.317  0.5863 -0.1151 -1.0160
  855MOL0     N15340   8.877  12.288   2.426 -0.8980  0.0164 -0.6419
  855MOL0     N15341   8.808  12.260   2.322  1.0575  0.3130  0.5446
  855MOL0     C15342   8.688  11.026   2.234  0.0922 -0.1773 -0.8054
  855MOL0     C15343   8.706  10.886   2.214  0.1020 -0.3018 -0.3323
  855MOL0     C15344   8.805  10.517   1.950  0.5950 -0.7359 -0.0329
  855MOL0     C15345   8.938  10.470   1.945  0.8710  0.4625 -0.5574
  855MOL0     C15346   8.978  10.357   1.878 -0.4132  0.4205  0.2219
  855MOL0     C15347   8.874  10.275   1.822 -0.0420  0.3791  0.6223
  855MOL0     O15348   8.906  10.156   1.751 -0.3139 -0.2819 -0.5320
  855MOL0     C15349   8.820  10.110   1.653  0.7684  0.6045  0.3612
  855MOL0     C15350   8.869   9.992   1.574  0.4377 -0.8907 -0.0041
  855MOL0     C15351   8.998  10.029   1.509  0.0783 -0.1146  1.0417
  855MOL0     C15352   8.998  10.065   1.352 -0.2102  1.0369 -0.1277
  855MOL0     C15353   8.874  10.123   1.301  0.0682  0.3431  0.2537
  855MOL0     C15354   8.774  10.162   1.254  0.2796  0.4438  1.2109
  855MOL0     C15355   8.734  10.309   1.836  0.1982 -0.2153 -0.9597
  855MOL0     C15356   8.701  10.430   1.902 -0.8429  1.0902  0.2544
  855MOL0     C15357   8.555  10.453   1.927  1.3873  0.0323  0.5966
  855MOL0     H15358   8.526  10.876   1.924  0.8640 -0.7639  0.3712
  855MOL0     H15359   8.470  11.090   1.986  0.8889  0.4406 -0.4431
  855MOL0     H15360   8.696  11.295   1.994 -1.7605 -0.2638 -1.7386
  855MOL0     H15361   8.523  11.286   1.993 -0.1082 -0.9101  0.6851
  855MOL0     H15362   8.651  11.515   2.009  3.2010 -3.3625 -1.2864
  855MOL0     H15363   8.671  11.481   2.183  0.4276  1.0376  0.0798
  855MOL0     H15364   8.437  11.488   2.226  2.3423 -2.1052  0.0587
  855MOL0     H15365   8.391  11.469   2.047  3.9364  1.9045 -5.3410
  855MOL0     H15366   8.477  11.674   1.998  2.8392 -3.2898 -0.4452
  855MOL0     H15367   8.352  11.693   2.121  0.3847  2.9751 -1.5774
  855MOL0     H15368   8.562  11.698   2.299  3.0820 -0.1656 -0.7253
  855MOL0     H15369   8.662  11.734   2.166 -0.3554  1.1393 -1.2354
  855MOL0     H15370   8.514  11.931   2.104 -1.1250 -1.3175 -0.6570
  855MOL0     H15371   8.415  11.899   2.241 -0.2721  0.5098 -1.7613
  855MOL0     H15372   8.727  11.966   2.228 -0.5589 -0.5322 -2.5540
  855MOL0     H15373   8.668  11.917   2.377  2.7473 -1.1698  0.1414
  855MOL0     H15374   8.587  12.151   2.207 -0.3212 -0.1879 -0.1137
  855MOL0     H15375   8.512  12.119   2.369  2.7128  1.1973  3.3035
  855MOL0     H15376   8.667  12.076   2.570 -0.6227  2.1663  1.8871
  855MOL0     H15377   8.994  12.174   2.669 -0.8413 -1.3277  2.4255
  855MOL0     H15378   8.927  12.331   2.707  0.4053  0.0376  1.7658
  855MOL0     H15379   8.722  12.196   2.777 -0.1653 -0.2868 -1.7488
  855MOL0     H15380   8.818  12.055   2.746  1.0648 -1.5024  0.9669
  855MOL0     H15381   8.857  12.266   2.965 -1.2229 -0.6089  1.8060
  855MOL0     H15382   8.989  12.155   2.946  0.9516  3.5971  2.6546
  855MOL0     H15383   8.746  11.993   2.960 -0.9804  1.2471 -0.9044
  855MOL0     H15384   8.731  12.114   3.091  0.5534  3.4236 -1.2616
  855MOL0     H15385   8.664  11.797   3.018 -1.8862 -3.2766 -0.3950
  855MOL0     H15386   8.589  11.616   3.141  2.4505 -2.4128  0.5197
  855MOL0     H15387   8.502  11.666   3.760 -0.0808 -0.3113  1.9507
  855MOL0     H15388   8.355  11.554   3.934  0.2701 -1.8037  0.5481
  855MOL0     H15389   8.054  11.298   3.776  2.2239 -0.9166 -1.7801
  855MOL0     H15390   8.133  11.157   3.830  4.6534  1.4576 -0.0726
  855MOL0     H15391   8.014  11.336   4.028 -0.9108 -0.8526  0.9279
  855MOL0     H15392   7.918  11.198   3.974  0.4467 -2.5008  1.2852
  855MOL0     H15393   8.111  11.053   4.032  0.4583  0.8884 -0.7121
  855MOL0     H15394   8.187  11.190   4.134 -1.0612  0.9394  0.8501
  855MOL0     H15395   8.051  11.049   4.289  0.4223 -1.0971  0.2871
  855MOL0     H15396   7.906  11.065   4.186 -0.2013  0.1530  2.5197
  855MOL0     H15397   7.873  11.281   4.231 -1.5790 -1.9405  1.3627
  855MOL0     H15398   8.040  11.323   4.277 -3.1098  3.9002 -0.5412
  855MOL0     H15399   7.867  11.113   4.448  2.5088  0.2947  4.0519
  855MOL0     H15400   8.012  11.195   4.488 -0.7819 -1.0830  3.3796
  855MOL0     H15401   7.785  11.376   4.421 -0.9521  0.5804 -0.4056
  855MOL0     H15402   7.940  11.401   4.514  0.8948 -1.4355  0.6882
  855MOL0     H15403   7.849  11.273   4.708  2.7443 -1.7802 -2.4198
  855MOL0     H15404   7.744  11.407   4.660 -2.7373 -1.6658  2.1705
  855MOL0     H15405   8.260  11.246   3.649 -0.3470 -0.0956  1.9574
  855MOL0     H15406   8.435  11.356   3.495 -0.0566  0.2051  1.0450
  855MOL0     H15407   8.774  11.770   3.501  0.5821  0.8269 -0.2676
  855MOL0     H15408   8.910  11.918   3.358  1.2329 -0.1631 -2.1679
  855MOL0     H15409   8.735  11.065   2.324  0.4339 -0.8297 -0.6927
  855MOL0     H15410   8.762  10.840   2.296 -0.2520  3.5378  2.3332
  855MOL0     H15411   9.016  10.526   1.995 -0.2802  1.2660  0.3872
  855MOL0     H15412   9.082  10.331   1.863 -0.3584 -1.2215  2.7485
  855MOL0     H15413   8.801  10.195   1.587  0.5866  0.8055  0.6673
  855MOL0     H15414   8.727  10.078   1.701 -0.8487  0.4442 -2.6272
  855MOL0     H15415   8.798   9.970   1.494  0.0298 -1.6287  0.5506
  855MOL0     H15416   8.874   9.912   1.648  1.3243  0.8571  1.9570
  855MOL0     H15417   9.059   9.939   1.518  0.9866  0.3305 -0.3821
  855MOL0     H15418   9.056  10.100   1.568  1.4999  1.5062 -2.0442
  855MOL0     H15419   9.086  10.126   1.328  0.7014 -0.5878 -1.1463
  855MOL0     H15420   9.018   9.977   1.290 -2.9686  1.9224 -2.4564
  855MOL0     H15421   8.675  10.171   1.212 -0.0250 -2.4812  1.0706
  855MOL0     H15422   8.651  10.257   1.789 -2.6186  1.7372  1.4561
  855MOL0     H15423   8.536  10.442   2.034 -0.6292  1.8241  0.4815
  855MOL0     H15424   8.521  10.553   1.899  0.1689 -0.0560  1.6691
  855MOL0     H15425   8.495  10.380   1.872  0.7075  0.6997  0.4347
  856MOL0     O15426   5.181   2.941   0.177  0.5148  0.1396 -1.0111
  856MOL0     C15427   5.285   2.965   0.242  0.5248  0.5890  1.1399
  856MOL0     O15428   5.341   3.089   0.267  0.0323 -0.4228  0.4820
  856MOL0     C15429   5.277   3.195   0.199 -0.7210 -0.2171 -0.8747
  856MOL0     C15430   5.225   3.293   0.281 -0.1604 -0.3790 -0.5687
  856MOL0     C15431   5.171   3.414   0.233  0.1468  0.1990  0.4244
  856MOL0     C15432   5.149   3.429   0.094 -0.6736  0.1381 -0.4409
  856MOL0     O15433   5.091   3.547   0.052  0.3731  0.8136  0.7864
  856MOL0     C15434   4.957   3.521   0.000 -0.5144 -0.0791 -0.3560
  856MOL0     C15435   4.899   3.657  -0.040  0.2773  0.1545  0.9273
  856MOL0     C15436   4.908   3.755   0.073 -0.2946 -0.0681  0.3679
  856MOL0     C15437   4.817   3.878   0.034 -0.2602  0.4253 -0.7001
  856MOL0     C15438   4.807   3.992   0.143  0.0477 -0.9114  0.7571
  856MOL0     C15439   4.665   4.053   0.130 -0.6796 -0.3103  1.0393
  856MOL0     C15440   4.634   4.165   0.245 -0.3946  1.1252  0.6187
  856MOL0     C15441   4.736   4.271   0.264  0.2729  0.4724 -0.2167
  856MOL0     N15442   4.864   4.239   0.345  0.2089  0.1784 -1.4671
  856MOL0     C15443   4.995   4.217   0.317  1.3566 -0.5828  1.1763
  856MOL0     C15444   5.055   4.198   0.434 -0.1386  0.7001 -0.5450
  856MOL0     C15445   5.202   4.170   0.447 -0.1902  0.0607  0.6783
  856MOL0     C15446   5.264   4.027   0.406 -0.5611  1.1019 -0.5058
  856MOL0     C15447   5.282   4.006   0.259  0.6424 -0.4508 -1.2143
  856MOL0     C15448   5.314   3.850   0.244  0.8415 -1.1718 -1.0508
  856MOL0     O15449   5.448   3.827   0.290  0.2387  0.5295 -0.0309
  856MOL0     C15450   5.511   3.702   0.278  0.8995 -0.3575 -0.1509
  856MOL0     C15451   5.613   3.682   0.373 -1.2887 -0.4794 -0.1891
  856MOL0     C15452   5.674   3.562   0.387 -0.8616  0.4605  0.4938
  856MOL0     C15453   5.647   3.462   0.287  0.4263  0.9723  0.0695
  856MOL0     C15454   5.725   3.337   0.282 -1.1831 -0.3163 -0.4979
  856MOL0     O15455   5.687   3.234   0.206  0.4469 -0.4719 -0.0170
  856MOL0     C15456   5.765   3.126   0.213 -0.2222  0.2560  0.7149
  856MOL0     C15457   5.711   3.014   0.282 -0.3052 -0.2350  0.6419
  856MOL0     C15458   5.794   2.915   0.316 -0.5127  0.9505 -0.5443
  856MOL0     C15459   5.931   2.910   0.290 -0.1925 -0.0516 -0.1836
  856MOL0     O15460   6.007   2.804   0.349  0.1563 -0.1261 -0.6814
  856MOL0     C15461   6.110   2.739   0.275  0.3725 -0.5063  0.7815
  856MOL0     C15462   6.248   2.747   0.343 -0.4591  0.2134 -0.0445
  856MOL0     C15463   6.296   2.888   0.373 -0.1394  0.3902  0.4312
  856MOL0     C15464   6.275   2.940   0.513  0.2769  0.4625 -0.4468
  856MOL0     C15465   6.293   3.091   0.531  0.0308 -0.1680 -0.5186
  856MOL0     C15466   6.163   3.178   0.506  1.0702  0.8277  0.3887
  856MOL0     C15467   6.184   3.329   0.488 -0.6578 -0.2965 -0.1280
  856MOL0     C15468   6.284   3.366   0.382 -0.8152  0.7670 -0.1981
  856MOL0    Cl15469   6.258   3.537   0.323 -0.2376 -0.4823 -0.7816
  856MOL0     C15470   5.990   3.019   0.212 -0.1341  0.6701 -0.7610
  856MOL0     C15471   5.903   3.129   0.184 -0.5539 -0.6095 -0.6163
  856MOL0     O15472   5.819   3.331   0.368 -0.5963  0.0184  0.3204
  856MOL0     C15473   5.557   3.487   0.182  0.0072 -0.0918  0.1047
  856MOL0     C15474   5.492   3.607   0.172  0.8113  0.3585  0.4719
  856MOL0     N15475   4.971   4.188   0.538  0.9842  0.4749  0.5586
  856MOL0     N15476   4.852   4.207   0.476 -0.2087 -0.0078 -0.5614
  856MOL0     C15477   5.190   3.320   0.007  0.8905  0.0552  0.4758
  856MOL0     C15478   5.257   3.203   0.054  0.4273 -0.4669 -0.4398
  856MOL0     C15479   5.365   2.853   0.304  1.0984 -0.7622  0.0594
  856MOL0     C15480   5.412   2.871   0.428 -0.2564  0.8362 -0.4138
  856MOL0     C15481   5.462   2.758   0.492  0.5450  0.1572  0.3033
  856MOL0     C15482   5.483   2.638   0.426 -0.4379  0.7574  0.4724
  856MOL0     O15483   5.543   2.523   0.480 -0.6642 -0.1828  0.2688
  856MOL0     C15484   5.681   2.555   0.472  0.1019 -0.4039  0.2704
  856MOL0     C15485   5.770   2.442   0.520 -0.6727 -0.5439 -0.0854
  856MOL0     C15486   5.913   2.453   0.473 -0.6402  0.9926 -0.1328
  856MOL0     C15487   6.004   2.340   0.518 -0.5313 -0.4444 -0.2095
  856MOL0     C15488   6.120   2.359   0.434  0.3259 -0.6270  1.2312
  856MOL0     C15489   6.211   2.348   0.355 -0.0578 -1.2326  0.5503
  856MOL0     C15490   5.438   2.619   0.300 -0.9155  0.1233 -0.0882
  856MOL0     C15491   5.378   2.733   0.236  0.3955 -0.2531  0.1018
  856MOL0     C15492   5.358   2.709   0.082 -0.6220  0.0032  0.1360
  856MOL0     H15493   5.218   3.267   0.386  0.8013  0.7356 -0.2133
  856MOL0     H15494   5.119   3.486   0.295 -2.0040  1.0846 -2.1954
  856MOL0     H15495   4.964   3.466  -0.094  1.3649  2.0630 -1.5863
  856MOL0     H15496   4.889   3.480   0.075  0.3838  2.0104  1.7537
  856MOL0     H15497   4.794   3.646  -0.070 -0.1303  1.7932  1.6452
  856MOL0     H15498   4.949   3.704  -0.125 -0.0052 -0.1389  0.5933
  856MOL0     H15499   5.007   3.801   0.070  1.1456 -2.7966  1.6195
  856MOL0     H15500   4.905   3.710   0.173  1.2217 -0.3574  0.3022
  856MOL0     H15501   4.854   3.917  -0.062 -0.6126 -0.1872 -1.0923
  856MOL0     H15502   4.722   3.830   0.013  0.6252 -3.2649  2.5735
  856MOL0     H15503   4.832   3.952   0.242  2.4291 -0.8998  0.2184
  856MOL0     H15504   4.880   4.070   0.119 -1.3993  0.4316  0.5721
  856MOL0     H15505   4.667   4.100   0.031 -1.9780 -0.3666  0.9685
  856MOL0     H15506   4.574   3.994   0.118 -1.9493  1.7266 -0.0291
  856MOL0     H15507   4.618   4.104   0.334 -3.5434 -0.0770 -0.6032
  856MOL0     H15508   4.533   4.198   0.219 -1.0993 -0.0776  1.7055
  856MOL0     H15509   4.757   4.320   0.169 -0.6564  1.7028  0.1910
  856MOL0     H15510   4.684   4.344   0.327  1.0137 -0.2962  1.3604
  856MOL0     H15511   5.038   4.224   0.218  0.1108 -2.5893  0.4259
  856MOL0     H15512   5.255   4.240   0.382 -0.6706 -0.4863 -0.3237
  856MOL0     H15513   5.233   4.182   0.551  0.7833 -2.0557  0.6835
  856MOL0     H15514   5.355   4.008   0.464 -1.2847 -2.5018 -0.2846
  856MOL0     H15515   5.189   3.959   0.449  0.0607  0.8752  0.2535
  856MOL0     H15516   5.358   4.082   0.236 -0.8956  2.9624  3.4083
  856MOL0     H15517   5.190   4.034   0.207 -0.5508  2.2472  1.9626
  856MOL0     H15518   5.306   3.816   0.140  1.0788 -0.4678 -1.3063
  856MOL0     H15519   5.255   3.775   0.297 -2.0073 -0.1197 -2.5154
  856MOL0     H15520   5.627   3.763   0.445  1.6118  0.0913 -1.2434
  856MOL0     H15521   5.757   3.556   0.456 -0.5669 -0.0897  0.1038
  856MOL0     H15522   5.608   3.018   0.318 -1.2709 -1.5297 -1.7553
  856MOL0     H15523   5.763   2.833   0.381  1.6899  0.5540  0.0920
  856MOL0     H15524   6.096   2.632   0.263  5.7258 -1.4035 -0.2349
  856MOL0     H15525   6.114   2.771   0.170  0.4660  1.1943  1.2754
  856MOL0     H15526   6.247   2.690   0.436  1.4712 -0.9539 -0.6586
  856MOL0     H15527   6.326   2.705   0.277  0.4456  2.9296 -0.8424
  856MOL0     H15528   6.404   2.876   0.366  0.1268  2.1333  1.1325
  856MOL0     H15529   6.270   2.965   0.299 -0.7478 -0.4222 -0.2167
  856MOL0     H15530   6.347   2.890   0.578  0.6166  0.1088 -1.0954
  856MOL0     H15531   6.175   2.912   0.549 -0.2801  4.0566  1.2978
  856MOL0     H15532   6.380   3.121   0.472  0.4176  0.4760  0.3547
  856MOL0     H15533   6.339   3.109   0.629  0.7405 -0.5597 -0.7761
  856MOL0     H15534   6.118   3.153   0.410 -1.7672  0.3218  1.7636
  856MOL0     H15535   6.096   3.158   0.591  2.3590  1.6567  1.6567
  856MOL0     H15536   6.216   3.372   0.583  0.5820 -0.8119 -0.2989
  856MOL0     H15537   6.091   3.375   0.453  0.1150 -1.0487 -3.5354
  856MOL0     H15538   6.381   3.359   0.433 -1.4888 -3.3059  0.8423
  856MOL0     H15539   6.281   3.298   0.297  0.0839 -1.1557  1.2341
  856MOL0     H15540   6.096   3.028   0.191 -0.3528 -1.5488 -3.3468
  856MOL0     H15541   5.963   3.210   0.143  1.0799  1.5799  5.0883
  856MOL0     H15542   5.560   3.411   0.105  5.2588  0.8922 -1.0714
  856MOL0     H15543   5.430   3.641   0.090  3.6296  1.7950 -1.2226
  856MOL0     H15544   5.175   3.325  -0.101  4.3362 -0.8990 -0.1768
  856MOL0     H15545   5.303   3.125  -0.006  1.6542  0.3920 -0.6421
  856MOL0     H15546   5.394   2.956   0.493  2.1893  0.4379  0.8989
  856MOL0     H15547   5.492   2.772   0.595  2.2953  2.1112 -0.4053
  856MOL0     H15548   5.708   2.645   0.529  4.0575  0.5074 -2.6094
  856MOL0     H15549   5.718   2.575   0.371  1.0543  0.6053  0.7950
  856MOL0     H15550   5.732   2.344   0.491 -0.8440 -0.1441 -1.3007
  856MOL0     H15551   5.765   2.437   0.629 -3.2272  0.3117 -0.0918
  856MOL0     H15552   5.962   2.549   0.490  0.6133 -0.1698  3.7058
  856MOL0     H15553   5.891   2.444   0.366  1.4896  0.0315 -0.5475
  856MOL0     H15554   6.042   2.363   0.617 -2.0397 -0.1614  0.3405
  856MOL0     H15555   5.967   2.237   0.510 -1.0061 -0.5596  2.6431
  856MOL0     H15556   6.278   2.339   0.272 -1.0987  1.1596 -0.6669
  856MOL0     H15557   5.443   2.526   0.244 -0.5330  1.6633 -2.7954
  856MOL0     H15558   5.286   2.632   0.056 -0.4609  0.0373 -0.4392
  856MOL0     H15559   5.340   2.798   0.020  1.8659  1.1006  0.8437
  856MOL0     H15560   5.459   2.686   0.045  1.4447  3.9199  2.5810
  857MOL0     O15561   5.860  11.441   3.891  0.0171 -0.3267 -0.9717
  857MOL0     C15562   5.965  11.453   3.825 -0.0926  1.1346 -0.2885
  857MOL0     O15563   6.090  11.423   3.871 -0.3129 -0.0415  0.1036
  857MOL0     C15564   6.098  11.414   4.006  0.4718 -0.6654  0.1706
  857MOL0     C15565   6.073  11.528   4.094 -0.4511  0.2380 -0.5220
  857MOL0     C15566   6.101  11.515   4.229  1.0859 -0.8887  0.6603
  857MOL0     C15567   6.144  11.398   4.285 -0.4120  0.1799 -0.0848
  857MOL0     O15568   6.173  11.407   4.417  0.0273 -0.3896  0.4229
  857MOL0     C15569   6.211  11.287   4.490  0.1054  0.3296  0.2913
  857MOL0     C15570   6.205  11.333   4.643 -0.1394  0.5944  0.4131
  857MOL0     C15571   6.323  11.423   4.679  0.0879  0.0141  0.5132
  857MOL0     C15572   6.310  11.461   4.829  0.4656  0.2887  0.4509
  857MOL0     C15573   6.440  11.512   4.883  0.4023 -0.6031  0.1005
  857MOL0     C15574   6.427  11.526   5.036 -0.2428 -0.4966  0.0973
  857MOL0     C15575   6.344  11.646   5.092  0.1674  0.8171  0.3081
  857MOL0     C15576   6.400  11.788   5.056  1.0695  0.2169 -0.6169
  857MOL0     N15577   6.494  11.844   5.159  0.2474 -0.4127  0.1563
  857MOL0     C15578   6.512  11.810   5.297  0.6251 -0.6005 -0.1881
  857MOL0     C15579   6.617  11.878   5.344 -0.0825 -0.2958  0.1457
  857MOL0     C15580   6.655  11.887   5.483 -0.7424  1.2724 -1.0000
  857MOL0     C15581   6.805  11.844   5.501 -0.5883  0.2492  0.0108
  857MOL0     C15582   6.840  11.870   5.643  0.4585  0.6608  0.2203
  857MOL0     C15583   6.993  11.831   5.668 -0.6158  0.4508 -0.0093
  857MOL0     O15584   7.031  11.888   5.799 -0.7736 -0.1139 -0.6241
  857MOL0     C15585   7.158  11.933   5.802  0.0657  0.0763 -0.2701
  857MOL0     C15586   7.257  11.880   5.712 -0.3400 -0.2450  0.1527
  857MOL0     C15587   7.392  11.933   5.723 -0.4472 -0.1818 -0.2545
  857MOL0     C15588   7.426  12.029   5.819  0.3976  0.2336 -0.2456
  857MOL0     C15589   7.564  12.049   5.860 -0.7047  0.6601  1.1445
  857MOL0     O15590   7.596  12.176   5.898  0.6175  0.0580  0.1523
  857MOL0     C15591   7.731  12.199   5.920 -0.3831  0.5272 -0.6394
  857MOL0     C15592   7.772  12.185   6.056 -0.1169 -0.5517 -0.7391
  857MOL0     C15593   7.901  12.231   6.090  0.5598  0.6588  0.7985
  857MOL0     C15594   7.999  12.261   5.987  0.0991  0.7886 -0.2351
  857MOL0     O15595   8.108  12.329   6.031 -0.3577 -0.5260 -0.0455
  857MOL0     C15596   8.206  12.371   5.928  0.7785  0.1314  0.2575
  857MOL0     C15597   8.300  12.469   6.008  0.4164  0.4168  0.6074
  857MOL0     C15598   8.441  12.441   5.970 -0.4185 -0.2456 -0.3164
  857MOL0     C15599   8.519  12.550   6.040  0.4537 -0.4667  0.1355
  857MOL0     C15600   8.673  12.527   6.032 -0.8110  0.0245  1.3681
  857MOL0     C15601   8.766  12.610   6.133 -0.1320 -0.0175 -0.1427
  857MOL0     C15602   8.832  12.729   6.072 -0.0776 -0.1208 -0.4148
  857MOL0     C15603   8.881  12.814   6.190 -1.3937  0.7374  0.3544
  857MOL0    Cl15604   8.737  12.890   6.257 -0.3775  0.0146 -0.7218
  857MOL0     C15605   7.953  12.255   5.851  0.2030  0.6409 -0.0370
  857MOL0     C15606   7.820  12.223   5.825  0.4975  0.5353  0.8973
  857MOL0     O15607   7.642  11.953   5.869 -0.2088  0.0642 -0.1588
  857MOL0     C15608   7.327  12.068   5.911  0.1973  0.0496  0.5350
  857MOL0     C15609   7.193  12.033   5.890 -1.1803 -0.8358  1.2773
  857MOL0     N15610   6.654  11.964   5.243  0.2265  0.1012  0.3840
  857MOL0     N15611   6.608  11.922   5.131  0.4659  0.3801 -0.6749
  857MOL0     C15612   6.168  11.292   4.195 -0.2834 -0.7317 -1.2745
  857MOL0     C15613   6.130  11.294   4.062  0.1969 -0.3751 -0.4616
  857MOL0     C15614   5.957  11.498   3.684  0.0031 -0.5850 -0.1859
  857MOL0     C15615   6.019  11.416   3.583  0.3924  0.4437  0.2916
  857MOL0     C15616   6.008  11.439   3.449 -0.2682 -0.0657 -0.3012
  857MOL0     C15617   5.931  11.554   3.409 -0.1045 -0.8392 -0.2065
  857MOL0     O15618   5.908  11.583   3.279 -0.0036  0.4261 -0.0752
  857MOL0     C15619   5.850  11.476   3.209  0.1168  0.0387  0.2979
  857MOL0     C15620   5.806  11.528   3.071  0.2028  0.4312 -0.4690
  857MOL0     C15621   5.683  11.622   3.070  0.8136 -0.5324 -0.0558
  857MOL0     C15622   5.650  11.670   2.922 -0.4879 -0.5271  0.1269
  857MOL0     C15623   5.613  11.567   2.837 -0.0073  0.7270 -0.8668
  857MOL0     C15624   5.575  11.484   2.760 -0.1138  1.0355 -0.6545
  857MOL0     C15625   5.881  11.638   3.505 -1.0315 -1.2041  1.3818
  857MOL0     C15626   5.891  11.613   3.642  0.2580 -0.0792  0.0662
  857MOL0     C15627   5.860  11.710   3.741  0.6658 -0.9408 -0.0166
  857MOL0     H15628   6.032  11.619   4.050 -1.0016 -1.3321 -3.5696
  857MOL0     H15629   6.074  11.602   4.289  1.5866 -0.8685  0.8622
  857MOL0     H15630   6.137  11.212   4.460 -0.8540  1.7750 -1.0884
  857MOL0     H15631   6.311  11.248   4.469 -0.5461 -1.4256  0.2395
  857MOL0     H15632   6.215  11.251   4.715  2.1715  2.2273  2.1509
  857MOL0     H15633   6.105  11.376   4.653 -0.6183  0.2077 -2.0894
  857MOL0     H15634   6.325  11.513   4.617 -2.9615  0.3001  0.6854
  857MOL0     H15635   6.412  11.362   4.659  0.8910  0.3313  2.8271
  857MOL0     H15636   6.227  11.530   4.847 -1.7163 -2.0126 -0.1592
  857MOL0     H15637   6.286  11.368   4.883 -0.8454 -0.0193 -0.6004
  857MOL0     H15638   6.519  11.439   4.863  0.8693 -0.5464  1.6122
  857MOL0     H15639   6.462  11.609   4.836 -0.8912  0.8094  2.2584
  857MOL0     H15640   6.395  11.431   5.081 -0.0880  0.1384  1.6344
  857MOL0     H15641   6.526  11.542   5.080 -2.5105  0.2623  5.7440
  857MOL0     H15642   6.345  11.644   5.201  2.5168 -1.3199  0.3586
  857MOL0     H15643   6.246  11.623   5.049  0.4441 -1.8467  0.8965
  857MOL0     H15644   6.456  11.785   4.962  2.1087 -1.7244  0.0060
  857MOL0     H15645   6.316  11.858   5.050  0.4983 -0.2531  1.2702
  857MOL0     H15646   6.452  11.748   5.362 -1.8422  2.7222  0.9851
  857MOL0     H15647   6.641  11.991   5.513  0.5689  2.0471 -2.8895
  857MOL0     H15648   6.601  11.813   5.543  3.1784 -1.6158 -0.6079
  857MOL0     H15649   6.811  11.737   5.478  1.4880  0.2968  0.1669
  857MOL0     H15650   6.864  11.897   5.427  3.1792  0.6214  2.9501
  857MOL0     H15651   6.776  11.811   5.708  0.3322  0.4373 -0.1044
  857MOL0     H15652   6.839  11.979   5.654  3.9584  1.0978 -2.0278
  857MOL0     H15653   7.051  11.868   5.582 -0.6114 -1.7529 -1.0275
  857MOL0     H15654   7.004  11.722   5.676  1.1168  0.5099 -0.9660
  857MOL0     H15655   7.234  11.796   5.647 -0.4585 -0.4824  0.4983
  857MOL0     H15656   7.482  11.897   5.674  0.1257  1.6235 -0.6112
  857MOL0     H15657   7.695  12.156   6.127 -1.8090  1.8790 -1.4687
  857MOL0     H15658   7.934  12.246   6.193  0.1425  0.5230  0.9557
  857MOL0     H15659   8.256  12.290   5.874  1.9921 -0.1548  1.7652
  857MOL0     H15660   8.156  12.421   5.844  0.6359  0.3392  0.4628
  857MOL0     H15661   8.268  12.570   5.982 -1.8594 -0.3749  0.0904
  857MOL0     H15662   8.282  12.444   6.112 -0.9218 -2.6714 -0.2531
  857MOL0     H15663   8.464  12.341   6.009 -1.1769 -1.2689 -2.3464
  857MOL0     H15664   8.454  12.446   5.861 -0.9379 -1.2549 -0.4358
  857MOL0     H15665   8.487  12.550   6.145 -0.8068  0.8566 -0.2073
  857MOL0     H15666   8.497  12.650   6.003  3.2508 -0.3987 -1.6279
  857MOL0     H15667   8.700  12.538   5.927  1.7168 -0.1344  1.9202
  857MOL0     H15668   8.692  12.420   6.039 -0.4155 -0.1895 -1.7161
  857MOL0     H15669   8.707  12.628   6.223 -1.0240  3.2613 -1.2560
  857MOL0     H15670   8.845  12.538   6.155  1.1726  1.8233  1.5790
  857MOL0     H15671   8.760  12.781   6.008 -0.1391  0.3920  0.0681
  857MOL0     H15672   8.924  12.702   6.019  1.3534  1.2217  1.2741
  857MOL0     H15673   8.937  12.766   6.271  3.1913  1.1318 -2.1914
  857MOL0     H15674   8.934  12.900   6.148 -0.1984  1.4220  3.0233
  857MOL0     H15675   8.010  12.278   5.762 -0.0097 -1.9305 -0.9406
  857MOL0     H15676   7.794  12.241   5.721  0.1261  1.2386  1.1025
  857MOL0     H15677   7.360  12.137   5.988 -0.3795  1.2842 -0.3073
  857MOL0     H15678   7.118  12.082   5.951 -1.2520 -0.0978  0.6196
  857MOL0     H15679   6.205  11.195   4.228  0.7573  0.3032  0.8128
  857MOL0     H15680   6.144  11.202   4.006 -3.0954 -3.7486  3.5768
  857MOL0     H15681   6.080  11.331   3.614  0.7932  1.5463  2.7716
  857MOL0     H15682   6.060  11.372   3.381 -3.4303 -1.9584 -1.0655
  857MOL0     H15683   5.766  11.433   3.264 -0.5503  0.3371 -0.4719
  857MOL0     H15684   5.926  11.400   3.191  1.3127  1.4266 -0.7419
  857MOL0     H15685   5.806  11.441   3.005  2.9649  0.6175 -0.8076
  857MOL0     H15686   5.889  11.595   3.049  3.1521 -2.0311  2.2700
  857MOL0     H15687   5.699  11.711   3.132  2.5833  0.3929 -1.7523
  857MOL0     H15688   5.595  11.569   3.108 -1.0431  1.3228 -1.4878
  857MOL0     H15689   5.566  11.740   2.917 -1.6048 -1.7227  1.3744
  857MOL0     H15690   5.733  11.727   2.879 -0.9080  0.6154  0.7702
  857MOL0     H15691   5.519  11.417   2.700 -1.2151  1.5675 -0.2588
  857MOL0     H15692   5.842  11.728   3.459  3.6821  0.0487 -0.6790
  857MOL0     H15693   5.761  11.696   3.783 -0.7412  0.1116 -2.6880
  857MOL0     H15694   5.937  11.715   3.819  2.9147  0.2431 -2.1492
  857MOL0     H15695   5.854  11.809   3.693 -2.0808 -1.6670 -1.3256
  858MOL0     O15696  10.307   3.855   5.174  0.2285  0.1407  0.5299
  858MOL0     C15697  10.220   3.766   5.162 -0.0802 -0.3909  0.4488
  858MOL0     O15698  10.106   3.759   5.241  0.5371  0.3412 -0.2702
  858MOL0     C15699  10.094   3.847   5.353 -0.9134  0.5215 -0.1805
  858MOL0     C15700  10.000   3.950   5.365  0.1124  0.2536  1.1390
  858MOL0     C15701   9.992   4.027   5.478  0.2093 -0.4676 -0.7650
  858MOL0     C15702  10.067   3.987   5.589  0.0107  1.0384 -0.4029
  858MOL0     O15703  10.057   4.050   5.711  0.3443 -0.4191 -0.2294
  858MOL0     C15704   9.958   4.155   5.722 -0.4536 -0.2648  0.5915
  858MOL0     C15705   9.933   4.200   5.867 -0.3125 -0.2388  0.4796
  858MOL0     C15706   9.896   4.087   5.971 -0.1495  0.7193 -0.1630
  858MOL0     C15707   9.842   4.146   6.093  0.8667  0.0514  0.4864
  858MOL0     C15708   9.784   4.024   6.170  0.3779  0.1339 -0.5250
  858MOL0     C15709   9.651   3.971   6.125  0.0783 -0.1494  0.3112
  858MOL0     C15710   9.580   3.904   6.242 -0.4008 -0.3318 -0.1742
  858MOL0     C15711   9.444   3.848   6.193  0.6254 -0.6438 -0.0048
  858MOL0     N15712   9.373   3.770   6.293 -0.0439 -0.5489 -0.4314
  858MOL0     C15713   9.444   3.681   6.364  0.4317 -0.4292 -0.8481
  858MOL0     C15714   9.353   3.591   6.399  0.0004  0.1604 -0.0540
  858MOL0     C15715   9.384   3.470   6.470 -0.4469  0.3171 -0.8157
  858MOL0     C15716   9.270   3.402   6.534 -0.0453  1.3017 -0.1507
  858MOL0     C15717   9.175   3.341   6.425 -0.9730  0.5706  0.3518
  858MOL0     C15718   9.050   3.291   6.496 -0.2696 -0.1009  0.6416
  858MOL0     O15719   9.069   3.164   6.569 -1.2720 -1.1492  0.0898
  858MOL0     C15720   8.958   3.100   6.603 -0.0111 -0.7612  0.1474
  858MOL0     C15721   8.911   3.136   6.726  1.0397  0.5377 -0.3861
  858MOL0     C15722   8.786   3.086   6.771 -0.5938 -0.1531  0.4843
  858MOL0     C15723   8.710   2.992   6.705 -0.3904  0.4902  1.1546
  858MOL0     C15724   8.595   2.935   6.759 -0.0968 -0.6500  0.3050
  858MOL0     O15725   8.532   3.005   6.857  0.0273 -0.1968  0.0999
  858MOL0     C15726   8.391   2.987   6.882 -0.0027 -0.4986  0.2064
  858MOL0     C15727   8.343   3.018   7.011  0.3425 -0.8341  0.7156
  858MOL0     C15728   8.200   3.031   7.036 -0.7215 -0.1562  0.6102
  858MOL0     C15729   8.105   2.991   6.944  0.7021 -0.3538 -0.0423
  858MOL0     O15730   7.966   3.021   6.962 -0.7195 -0.1132 -0.2106
  858MOL0     C15731   7.869   2.934   6.901 -0.1579  0.3979 -0.1218
  858MOL0     C15732   7.791   2.874   7.012  1.1520  0.3369 -0.3446
  858MOL0     C15733   7.682   2.958   7.075  0.2159 -0.1416  0.3628
  858MOL0     C15734   7.608   2.878   7.184  0.9286 -0.0758 -0.6573
  858MOL0     C15735   7.553   2.739   7.148 -0.2396  0.5100 -0.3795
  858MOL0     C15736   7.442   2.698   7.248  0.2480 -0.1809  0.4289
  858MOL0     C15737   7.361   2.576   7.204  0.2782  0.3786 -0.4583
  858MOL0     C15738   7.279   2.523   7.316  0.3818 -0.0504 -0.6085
  858MOL0    Cl15739   7.165   2.642   7.401  0.1119 -0.1182 -0.2114
  858MOL0     C15740   8.156   2.952   6.827 -0.6844 -0.1873 -0.0639
  858MOL0     C15741   8.293   2.949   6.790  0.2161 -0.0762 -0.0632
  858MOL0     O15742   8.556   2.838   6.707  0.3615  0.9683  0.4115
  858MOL0     C15743   8.762   2.955   6.574  0.6838 -1.2042 -0.3284
  858MOL0     C15744   8.879   3.017   6.522  0.4780  0.4531  0.2414
  858MOL0     N15745   9.231   3.630   6.346  0.3951 -0.5808 -0.1052
  858MOL0     N15746   9.239   3.749   6.289 -0.5740 -0.6831  0.3131
  858MOL0     C15747  10.164   3.888   5.578  0.1286  0.5722  0.3999
  858MOL0     C15748  10.174   3.812   5.457 -0.0015 -0.5796  0.3022
  858MOL0     C15749  10.227   3.676   5.037 -0.7288 -0.3340 -0.3193
  858MOL0     C15750  10.107   3.609   4.994  0.0780 -0.7388  0.0675
  858MOL0     C15751  10.115   3.516   4.886 -0.8580  0.1052 -0.4136
  858MOL0     C15752  10.226   3.507   4.801  0.3930  0.4029  0.2969
  858MOL0     O15753  10.231   3.420   4.697 -0.0439 -0.1331  0.1995
  858MOL0     C15754  10.309   3.444   4.581 -0.1279  0.5274 -0.6809
  858MOL0     C15755  10.395   3.323   4.537 -1.9828  0.8648 -0.3473
  858MOL0     C15756  10.505   3.287   4.640  0.6920  0.4947 -0.0531
  858MOL0     C15757  10.611   3.202   4.565  0.8499 -1.0052 -0.4709
  858MOL0     C15758  10.556   3.090   4.483  0.8039  0.0202 -0.1214
  858MOL0     C15759  10.503   2.999   4.423  0.1111 -0.6101 -0.1398
  858MOL0     C15760  10.336   3.583   4.840  0.9718  0.1869 -0.7265
  858MOL0     C15761  10.347   3.647   4.962 -0.1851 -0.1125  0.3814
  858MOL0     C15762  10.479   3.695   5.010 -1.0270 -0.8092 -0.5917
  858MOL0     H15763   9.933   3.961   5.280  1.9425  2.5473 -0.1486
  858MOL0     H15764   9.915   4.103   5.474 -0.0528 -0.7724 -1.6752
  858MOL0     H15765   9.977   4.242   5.659 -1.5015 -2.4441 -3.0473
  858MOL0     H15766   9.860   4.122   5.684 -1.4213  2.6608  0.3056
  858MOL0     H15767   9.849   4.269   5.856  0.3106  0.2587 -1.7702
  858MOL0     H15768  10.022   4.253   5.903  0.9992 -0.4824 -2.1904
  858MOL0     H15769   9.986   4.027   5.983 -0.2472  0.6087  0.0204
  858MOL0     H15770   9.814   4.030   5.927 -0.7382  3.4221 -2.8907
  858MOL0     H15771   9.925   4.188   6.151  1.4238 -0.3757  0.0070
  858MOL0     H15772   9.767   4.221   6.062  1.8997  0.8058 -0.2600
  858MOL0     H15773   9.858   3.943   6.180  2.9228  2.6059  3.4578
  858MOL0     H15774   9.775   4.061   6.273  0.5185 -4.8598  1.5944
  858MOL0     H15775   9.593   4.050   6.077  1.4641  0.2803 -0.7028
  858MOL0     H15776   9.675   3.894   6.051  1.0354  2.2817 -2.0861
  858MOL0     H15777   9.565   3.983   6.316 -0.1083  1.6914 -2.1465
  858MOL0     H15778   9.646   3.826   6.282 -0.8702 -0.1578  0.9781
  858MOL0     H15779   9.379   3.924   6.150  0.0223 -0.7357  0.7072
  858MOL0     H15780   9.465   3.775   6.115 -0.4003  0.5108 -1.4060
  858MOL0     H15781   9.551   3.681   6.385  0.1332  3.9077  1.9330
  858MOL0     H15782   9.439   3.394   6.413 -0.0074 -0.7958  1.0314
  858MOL0     H15783   9.438   3.510   6.556  0.1334  1.5376 -1.7161
  858MOL0     H15784   9.299   3.318   6.598 -1.2103  1.6009  0.8097
  858MOL0     H15785   9.220   3.485   6.585  0.7839  1.2526  0.7751
  858MOL0     H15786   9.215   3.246   6.388 -3.5264 -0.2352 -0.6078
  858MOL0     H15787   9.150   3.399   6.336 -0.7964  1.1954  0.7032
  858MOL0     H15788   8.987   3.279   6.408 -0.6130  1.3036  0.6664
  858MOL0     H15789   9.005   3.370   6.557  0.8747  3.4984 -2.7485
  858MOL0     H15790   8.970   3.204   6.787  1.6746 -0.0854 -0.3009
  858MOL0     H15791   8.766   3.114   6.874  0.0249  1.9819  0.0653
  858MOL0     H15792   8.412   3.048   7.089 -2.8694  0.3399  3.3194
  858MOL0     H15793   8.166   3.067   7.133 -2.9104 -0.5674  0.0482
  858MOL0     H15794   7.813   2.989   6.824 -0.3282 -1.2617 -1.2322
  858MOL0     H15795   7.919   2.856   6.843  2.3456  1.8324 -0.0315
  858MOL0     H15796   7.732   2.792   6.970 -1.1756  1.6836  0.1058
  858MOL0     H15797   7.851   2.839   7.097 -0.3337 -1.0166  0.2019
  858MOL0     H15798   7.718   3.055   7.109  1.7183  0.4695 -2.5903
  858MOL0     H15799   7.620   2.976   6.986  1.6589 -1.7019 -1.0371
  858MOL0     H15800   7.524   2.935   7.224  1.0933  0.4602 -1.0615
  858MOL0     H15801   7.677   2.862   7.266  3.3763 -1.6255 -2.8564
  858MOL0     H15802   7.627   2.659   7.137 -3.8918 -3.0532 -1.4783
  858MOL0     H15803   7.491   2.750   7.058 -2.7477 -0.0635  1.1640
  858MOL0     H15804   7.490   2.687   7.346 -3.7544  0.4153  2.6412
  858MOL0     H15805   7.377   2.784   7.267  1.1847  1.4488 -2.8845
  858MOL0     H15806   7.433   2.500   7.173 -0.2637 -2.1518  3.7020
  858MOL0     H15807   7.297   2.609   7.122  0.3631 -0.4577 -0.8640
  858MOL0     H15808   7.227   2.439   7.269  0.1499  0.2029 -0.8109
  858MOL0     H15809   7.343   2.485   7.396 -1.0622 -0.8021  0.2283
  858MOL0     H15810   8.096   2.922   6.742 -0.4902 -2.4004  0.5187
  858MOL0     H15811   8.322   2.905   6.695  0.1681 -3.2286  1.2579
  858MOL0     H15812   8.703   2.882   6.521  0.3618 -0.2077 -1.3709
  858MOL0     H15813   8.902   2.993   6.418 -3.0407 -1.6272 -0.2230
  858MOL0     H15814  10.216   3.862   5.670 -0.6685  2.1157  1.3348
  858MOL0     H15815  10.233   3.720   5.459 -1.1682 -1.3814 -0.6943
  858MOL0     H15816  10.015   3.628   5.048  0.9436 -1.4033  1.8473
  858MOL0     H15817  10.026   3.460   4.862 -1.9227  1.9496 -0.9412
  858MOL0     H15818  10.379   3.528   4.578 -0.1580  0.5850  0.1170
  858MOL0     H15819  10.244   3.458   4.494 -0.6464 -2.8276 -0.9529
  858MOL0     H15820  10.428   3.353   4.437 -1.9069  0.6770 -0.3788
  858MOL0     H15821  10.330   3.235   4.530  0.4321 -1.1494  1.1112
  858MOL0     H15822  10.455   3.230   4.719  1.6893  0.5570  0.6485
  858MOL0     H15823  10.539   3.379   4.689 -1.5457  1.3752 -0.0643
  858MOL0     H15824  10.648   3.279   4.497  2.0513 -1.0358  0.1280
  858MOL0     H15825  10.684   3.157   4.632 -1.3762 -1.2851  1.9459
  858MOL0     H15826  10.462   2.924   4.358  0.9017  0.3916 -1.8941
  858MOL0     H15827  10.429   3.585   4.785  3.5636  1.4416  3.2137
  858MOL0     H15828  10.559   3.646   4.953 -0.4196 -0.0978 -0.3690
  858MOL0     H15829  10.484   3.804   4.997  3.2478 -0.6525  0.8392
  858MOL0     H15830  10.497   3.669   5.114 -0.6031  1.3507 -0.0659
  859MOL0     O15831   6.254   3.322  10.499 -0.0263  0.0538 -0.0997
  859MOL0     C15832   6.369   3.285  10.505 -0.3558  0.6382 -0.6330
  859MOL0     O15833   6.457   3.329  10.597  1.1479 -0.6731 -0.1186
  859MOL0     C15834   6.419   3.430  10.684 -0.5464  0.2411 -0.8293
  859MOL0     C15835   6.422   3.398  10.824  0.1570  0.3487  0.4110
  859MOL0     C15836   6.418   3.508  10.911 -0.1353 -0.9419 -0.3633
  859MOL0     C15837   6.407   3.640  10.859 -0.1137 -0.0108 -0.4957
  859MOL0     O15838   6.411   3.741  10.952 -0.0305  0.3439 -0.5040
  859MOL0     C15839   6.387   3.874  10.905 -0.1059 -1.1874  0.3938
  859MOL0     C15840   6.517   3.937  10.849 -0.7027 -0.4842  0.8915
  859MOL0     C15841   6.486   4.054  10.756 -0.3747 -0.6720 -0.4316
  859MOL0     C15842   6.607   4.151  10.754  0.5348 -0.1164  0.4128
  859MOL0     C15843   6.603   4.261  10.862  1.0716 -0.0502  0.5473
  859MOL0     C15844   6.667   4.387  10.826 -1.0671 -0.3201  0.3967
  859MOL0     C15845   6.654   4.500  10.921  0.0060  1.1817  1.2281
  859MOL0     C15846   6.688   4.633  10.857 -0.4452  0.0255  1.0748
  859MOL0     N15847   6.585   4.681  10.756  0.4234 -0.4531  0.6310
  859MOL0     C15848   6.446   4.699  10.781 -0.6238  0.4079 -1.0925
  859MOL0     C15849   6.390   4.726  10.670  1.4650  0.3579  0.0688
  859MOL0     C15850   6.239   4.750  10.634 -0.5150  0.3850  0.4916
  859MOL0     C15851   6.220   4.879  10.565  0.2522  0.2720  0.1263
  859MOL0     C15852   6.255   4.997  10.657 -0.2623 -0.2771  0.9773
  859MOL0     C15853   6.206   5.134  10.613 -0.6235 -0.5258 -0.2225
  859MOL0     O15854   6.063   5.149  10.627 -0.3046 -0.6101  0.5217
  859MOL0     C15855   5.994   5.243  10.551 -0.6468 -0.3414  0.6598
  859MOL0     C15856   6.042   5.357  10.483 -0.3495 -0.5643 -0.2513
  859MOL0     C15857   5.955   5.443  10.421 -0.2691 -1.0036  0.1803
  859MOL0     C15858   5.815   5.430  10.419 -0.3564  0.4109 -0.2397
  859MOL0     C15859   5.719   5.510  10.345  0.0003  0.5472  0.4004
  859MOL0     O15860   5.752   5.641  10.329 -0.4883  0.2960 -0.0239
  859MOL0     C15861   5.649   5.718  10.275  0.6689  0.0654  0.1451
  859MOL0     C15862   5.533   5.755  10.344 -1.0720  0.0777 -1.4418
  859MOL0     C15863   5.445   5.845  10.278 -0.4773  0.0947 -0.7201
  859MOL0     C15864   5.463   5.898  10.152 -0.0885  1.1062  0.2751
  859MOL0     O15865   5.381   5.999  10.097  0.5138 -0.8546 -0.2039
  859MOL0     C15866   5.332   6.105  10.184  0.1632  0.1236  1.0429
  859MOL0     C15867   5.259   6.213  10.104  0.0385  0.3530  0.2485
  859MOL0     C15868   5.355   6.314  10.044 -0.1536 -0.6419  0.5087
  859MOL0     C15869   5.292   6.435   9.966 -0.7102  0.2194  0.8483
  859MOL0     C15870   5.397   6.545   9.946  0.0022  0.3799  0.6676
  859MOL0     C15871   5.515   6.503   9.843 -0.0244  0.0992  0.2576
  859MOL0     C15872   5.609   6.618   9.808 -0.9783 -0.1957 -0.3469
  859MOL0     C15873   5.688   6.665   9.933 -0.5278  0.4179  0.5663
  859MOL0    Cl15874   5.778   6.815   9.901 -0.3062 -0.7046  0.0680
  859MOL0     C15875   5.571   5.854  10.079  0.8562  0.3652 -0.0489
  859MOL0     C15876   5.664   5.763  10.139  0.4690 -0.7622 -0.9239
  859MOL0     O15877   5.618   5.453  10.306  0.0537  0.3815  0.7777
  859MOL0     C15878   5.767   5.325  10.494  0.5469 -0.4699  1.0475
  859MOL0     C15879   5.851   5.235  10.563  0.0961  0.6529  0.9324
  859MOL0     N15880   6.490   4.712  10.571 -0.1058  0.8047  0.2161
  859MOL0     N15881   6.601   4.671  10.625  0.0349  0.9091 -0.6325
  859MOL0     C15882   6.394   3.667  10.719  0.3260  0.3248 -0.1198
  859MOL0     C15883   6.398   3.561  10.631 -0.9573 -0.8867 -0.6406
  859MOL0     C15884   6.405   3.160  10.428 -0.1180 -0.7038 -0.1631
  859MOL0     C15885   6.522   3.095  10.465  0.6376  0.6771 -0.2647
  859MOL0     C15886   6.567   2.981  10.403  1.0141  0.9740  0.3299
  859MOL0     C15887   6.505   2.926  10.288  0.8490  0.4459  0.1686
  859MOL0     O15888   6.540   2.805  10.241  0.4684  0.4078  0.2999
  859MOL0     C15889   6.530   2.689  10.338 -0.5816 -0.5848  0.3377
  859MOL0     C15890   6.563   2.558  10.261 -0.2352 -0.5819 -0.5178
  859MOL0     C15891   6.453   2.505  10.176  0.0536  0.2493 -0.6160
  859MOL0     C15892   6.494   2.367  10.119 -1.2023  0.0567 -0.4739
  859MOL0     C15893   6.433   2.339   9.987  0.1856  0.1077 -0.1241
  859MOL0     C15894   6.380   2.315   9.881 -0.6351  0.7939  1.2459
  859MOL0     C15895   6.384   2.995  10.252  0.3192  0.6124 -0.0123
  859MOL0     C15896   6.337   3.113  10.319 -0.5715  0.8777 -0.6117
  859MOL0     C15897   6.224   3.175  10.251  0.1113 -0.8784 -0.4374
  859MOL0     H15898   6.463   3.300  10.842  1.1569 -0.0040 -3.0212
  859MOL0     H15899   6.422   3.507  11.019 -0.2646  2.1785 -0.2203
  859MOL0     H15900   6.300   3.877  10.838 -1.3405  3.2513  1.8541
  859MOL0     H15901   6.337   3.940  10.976  0.1233 -2.1208  1.4575
  859MOL0     H15902   6.570   3.866  10.786 -0.6026  2.9332 -3.4168
  859MOL0     H15903   6.582   3.981  10.925 -0.3321  3.9595 -1.6498
  859MOL0     H15904   6.393   4.101  10.788 -0.2302 -1.5740  1.4289
  859MOL0     H15905   6.475   4.017  10.653  1.7977  0.4013 -1.1057
  859MOL0     H15906   6.694   4.085  10.767 -0.1419 -0.6381  2.7859
  859MOL0     H15907   6.603   4.199  10.656  1.4636  1.1933  0.9833
  859MOL0     H15908   6.497   4.278  10.882  0.1944 -3.0176 -1.0055
  859MOL0     H15909   6.650   4.227  10.955  1.0290 -1.8960 -0.0647
  859MOL0     H15910   6.775   4.377  10.814 -0.7765  3.2342 -1.4276
  859MOL0     H15911   6.643   4.425  10.727  3.6243  0.1290 -0.7953
  859MOL0     H15912   6.717   4.484  11.009 -0.1771  3.7018  1.9117
  859MOL0     H15913   6.550   4.489  10.950 -0.7710  2.5851 -0.8012
  859MOL0     H15914   6.695   4.710  10.934 -1.0438 -0.0753  1.2387
  859MOL0     H15915   6.786   4.622  10.810 -1.2820  0.2440 -0.8197
  859MOL0     H15916   6.404   4.705  10.881 -3.9009  3.2574 -2.4362
  859MOL0     H15917   6.207   4.671  10.566 -0.5397 -1.3082  2.3809
  859MOL0     H15918   6.176   4.744  10.723 -2.2510 -0.8549 -0.7397
  859MOL0     H15919   6.283   4.881  10.476 -1.2227  0.1275 -0.9540
  859MOL0     H15920   6.115   4.894  10.535 -0.7168 -2.3810  1.8287
  859MOL0     H15921   6.362   5.019  10.668 -0.6678  4.0239 -1.5156
  859MOL0     H15922   6.217   4.964  10.754 -2.3091  0.8113  0.5897
  859MOL0     H15923   6.238   5.154  10.510  2.8252 -1.0464  0.6328
  859MOL0     H15924   6.261   5.210  10.669 -2.1369 -0.4741  1.2558
  859MOL0     H15925   6.148   5.379  10.482  0.1074 -2.6605 -0.6254
  859MOL0     H15926   5.995   5.533  10.377  0.3737 -1.8498 -1.0010
  859MOL0     H15927   5.522   5.723  10.447  5.8800  1.4994  0.2940
  859MOL0     H15928   5.353   5.868  10.329 -0.4304  0.4994 -0.8182
  859MOL0     H15929   5.261   6.058  10.252 -0.5896 -0.0386  0.1575
  859MOL0     H15930   5.417   6.142  10.243  1.8644 -0.0085 -1.2145
  859MOL0     H15931   5.201   6.157  10.031  0.7467 -2.5920  1.8076
  859MOL0     H15932   5.197   6.269  10.175 -0.8162 -1.3787  0.9274
  859MOL0     H15933   5.422   6.351  10.122 -0.2444 -1.5657  1.0419
  859MOL0     H15934   5.423   6.275   9.967  0.9682 -1.0342  1.6771
  859MOL0     H15935   5.208   6.478  10.021 -3.0750  0.4014 -2.5429
  859MOL0     H15936   5.255   6.400   9.869 -0.5634 -0.2462  0.9559
  859MOL0     H15937   5.455   6.558  10.038  3.2381 -2.5843 -0.6952
  859MOL0     H15938   5.348   6.630   9.899  0.2754  0.3872  0.3911
  859MOL0     H15939   5.567   6.424   9.897 -0.3622 -0.0807  0.3230
  859MOL0     H15940   5.482   6.468   9.744 -1.1637 -2.8420  1.5716
  859MOL0     H15941   5.560   6.701   9.757 -0.0503  0.6782  0.1549
  859MOL0     H15942   5.695   6.590   9.746 -0.6011  2.0116 -0.9180
  859MOL0     H15943   5.629   6.691  10.022 -0.5748  3.3407 -0.2095
  859MOL0     H15944   5.758   6.589   9.968  0.7469  0.7213 -1.1815
  859MOL0     H15945   5.578   5.889   9.977  1.9562  2.6960  0.7509
  859MOL0     H15946   5.740   5.718  10.077 -0.2288 -0.2604 -2.1808
  859MOL0     H15947   5.661   5.302  10.494  0.0428  1.6545  0.8079
  859MOL0     H15948   5.820   5.147  10.619  0.8327 -1.3804 -1.6359
  859MOL0     H15949   6.388   3.768  10.680  5.0768  1.3075  1.0603
  859MOL0     H15950   6.393   3.572  10.523  1.1725  0.9876 -0.6201
  859MOL0     H15951   6.576   3.141  10.547  0.1941 -1.0811  1.0828
  859MOL0     H15952   6.656   2.928  10.434  0.4477  0.0760  0.4490
  859MOL0     H15953   6.437   2.684  10.395  0.9072 -3.8684  2.8985
  859MOL0     H15954   6.609   2.697  10.414  1.3054 -0.4256 -1.5592
  859MOL0     H15955   6.595   2.493  10.343  2.1371  1.6679  0.5212
  859MOL0     H15956   6.651   2.579  10.200 -0.5781 -1.8550 -1.4844
  859MOL0     H15957   6.444   2.566  10.086 -1.1252 -2.1045 -2.2165
  859MOL0     H15958   6.356   2.507  10.227 -0.2302 -0.7702 -1.0782
  859MOL0     H15959   6.599   2.369  10.089 -1.3994  0.4104 -1.1464
  859MOL0     H15960   6.480   2.283  10.188  2.7457 -2.8157 -2.7703
  859MOL0     H15961   6.342   2.266   9.794  0.5504 -0.0595  1.1801
  859MOL0     H15962   6.330   2.951  10.168 -1.9799  1.2467  1.0660
  859MOL0     H15963   6.136   3.181  10.315  1.2770 -4.3087  1.7072
  859MOL0     H15964   6.243   3.281  10.228  0.2471 -0.8678 -0.2827
  859MOL0     H15965   6.194   3.135  10.153 -2.8584  0.6934 -0.2797
  860MOL0     O15966   7.952   5.323   0.365 -0.0069  0.6743 -0.3718
  860MOL0     C15967   7.854   5.335   0.299  0.4564  0.1686  0.7135
  860MOL0     O15968   7.842   5.269   0.172 -0.6948  0.1442  0.2855
  860MOL0     C15969   7.925   5.163   0.131  0.6180  0.0853  0.5082
  860MOL0     C15970   7.998   5.073   0.214 -0.2349 -1.0242 -1.0989
  860MOL0     C15971   8.074   4.971   0.163 -0.1285 -0.3873  0.5253
  860MOL0     C15972   8.091   4.955   0.017  0.5291 -0.0742  0.6264
  860MOL0     O15973   8.184   4.880  -0.045  0.5439  0.5753 -1.0014
  860MOL0     C15974   8.267   4.798   0.036 -0.3041  0.3430 -0.0226
  860MOL0     C15975   8.348   4.714  -0.064  0.1301 -0.4139  0.9191
  860MOL0     C15976   8.359   4.562  -0.017  0.1690  0.9530  1.0018
  860MOL0     C15977   8.412   4.558   0.129  0.7198  0.2355  0.5705
  860MOL0     C15978   8.492   4.427   0.136 -0.1040 -0.3230  0.3006
  860MOL0     C15979   8.522   4.397   0.292 -0.4042 -0.3576  0.8549
  860MOL0     C15980   8.629   4.289   0.318 -0.7607 -0.4431  0.6256
  860MOL0     C15981   8.632   4.170   0.218  0.6784 -0.2669  0.5744
  860MOL0     N15982   8.773   4.155   0.166  0.3178  0.7984  0.8657
  860MOL0     C15983   8.879   4.097   0.230  0.7711 -0.2513 -0.8112
  860MOL0     C15984   8.984   4.116   0.153  0.3080  0.3654 -0.0911
  860MOL0     C15985   9.122   4.053   0.173  0.1340 -0.3557 -0.0932
  860MOL0     C15986   9.226   4.144   0.103 -0.1828 -0.2981 -0.0546
  860MOL0     C15987   9.367   4.137   0.167  1.2277  0.6129 -0.5917
  860MOL0     C15988   9.434   3.997   0.171  0.4073 -0.5612  0.2211
  860MOL0     O15989   9.387   3.916   0.278  0.4344  0.1942 -0.2244
  860MOL0     C15990   9.403   3.964   0.410  0.3989  0.4034  0.2520
  860MOL0     C15991   9.534   4.004   0.454 -0.4464 -0.8856  0.1564
  860MOL0     C15992   9.548   4.045   0.585 -0.1757  0.1387 -0.7495
  860MOL0     C15993   9.433   4.060   0.674 -1.1312 -0.3256  0.8670
  860MOL0     C15994   9.464   4.098   0.808 -0.1008 -0.3077  0.9714
  860MOL0     O15995   9.593   4.085   0.857  0.3101 -0.0023 -0.1046
  860MOL0     C15996   9.627   4.100   0.995  0.8922 -0.6561  0.4103
  860MOL0     C15997   9.550   4.161   1.092  0.1593 -0.4370  0.3040
  860MOL0     C15998   9.612   4.204   1.216  0.8310 -0.7429 -1.4120
  860MOL0     C15999   9.744   4.172   1.246  0.0131  0.3290  0.7564
  860MOL0     O16000   9.816   4.225   1.343 -0.2062 -0.5290 -0.6547
  860MOL0     C16001   9.867   4.359   1.315  0.1526  0.9875  0.1859
  860MOL0     C16002   9.927   4.417   1.443  0.8236 -1.5171 -0.9188
  860MOL0     C16003  10.024   4.320   1.505 -0.9313 -0.6348 -0.9897
  860MOL0     C16004  10.158   4.336   1.430  0.0648  0.1997 -0.0052
  860MOL0     C16005  10.162   4.226   1.320 -0.5924  0.6191 -0.7669
  860MOL0     C16006  10.305   4.226   1.261  0.0411  0.7430  0.4031
  860MOL0     C16007  10.339   4.108   1.172 -0.6257 -0.6444  0.8712
  860MOL0     C16008  10.487   4.088   1.128 -0.2291 -0.7697 -1.5643
  860MOL0    Cl16009  10.502   3.980   0.978 -0.3504  0.1832 -0.3783
  860MOL0     C16010   9.818   4.112   1.148  0.3358 -0.2660  0.3088
  860MOL0     C16011   9.756   4.071   1.027  0.0663 -0.6239  0.2434
  860MOL0     O16012   9.370   4.145   0.867 -0.2990  0.5726  0.0910
  860MOL0     C16013   9.315   4.006   0.630  0.2586 -0.5297 -0.3097
  860MOL0     C16014   9.304   3.969   0.494  0.0448 -0.0748 -0.8777
  860MOL0     N16015   8.950   4.187   0.043  0.2573 -0.5250  0.5974
  860MOL0     N16016   8.819   4.210   0.046 -0.5762 -0.0488 -0.0581
  860MOL0     C16017   8.017   5.035  -0.069 -0.2149 -0.6185  0.0893
  860MOL0     C16018   7.934   5.133  -0.009  0.2241 -0.0009  0.2534
  860MOL0     C16019   7.747   5.433   0.343 -1.2381  0.0293 -0.2536
  860MOL0     C16020   7.664   5.491   0.242 -0.0109 -0.0753  0.1439
  860MOL0     C16021   7.562   5.580   0.269  0.8175  0.6638 -1.0383
  860MOL0     C16022   7.535   5.614   0.405  0.0420  0.0699  0.3691
  860MOL0     O16023   7.439   5.697   0.471  1.0523  0.3907 -0.8526
  860MOL0     C16024   7.345   5.761   0.382  0.4778 -0.1630  0.3812
  860MOL0     C16025   7.398   5.870   0.296  0.6520 -0.7685 -0.4520
  860MOL0     C16026   7.432   5.993   0.394 -0.9735  0.1044  0.0707
  860MOL0     C16027   7.473   6.118   0.318  0.0092  0.1876  0.1254
  860MOL0     C16028   7.594   6.102   0.233 -0.2083 -0.4127  0.3288
  860MOL0     C16029   7.690   6.083   0.164 -0.2973  0.3935 -0.1549
  860MOL0     C16030   7.614   5.555   0.505  0.5556 -0.2280  0.2023
  860MOL0     C16031   7.721   5.464   0.480 -0.8449  0.9805 -0.2237
  860MOL0     C16032   7.796   5.391   0.591 -0.1884  0.4387  0.0277
  860MOL0     H16033   7.999   5.086   0.322  1.6986  0.6200 -1.2517
  860MOL0     H16034   8.116   4.900   0.234 -1.4924  0.6916  2.5022
  860MOL0     H16035   8.333   4.848   0.107 -2.3370  1.2350  1.3102
  860MOL0     H16036   8.209   4.725   0.092 -0.8040 -1.1525 -2.3399
  860MOL0     H16037   8.448   4.752  -0.089 -0.1471  0.5855  1.2805
  860MOL0     H16038   8.283   4.714  -0.152  0.3231  1.0604  0.7577
  860MOL0     H16039   8.435   4.511  -0.077  1.8440  2.8346  1.4029
  860MOL0     H16040   8.269   4.501  -0.024  0.6120  0.4431 -0.6434
  860MOL0     H16041   8.476   4.647   0.138  4.7249 -2.3071  0.0980
  860MOL0     H16042   8.327   4.563   0.197  0.6015 -1.0982  0.5451
  860MOL0     H16043   8.432   4.345   0.097 -1.0837  0.6025 -0.1988
  860MOL0     H16044   8.583   4.438   0.078  0.3906 -0.4719  1.0365
  860MOL0     H16045   8.535   4.493   0.343 -1.9118  0.2323  0.2073
  860MOL0     H16046   8.427   4.363   0.334 -1.1465  0.4881 -0.0744
  860MOL0     H16047   8.635   4.254   0.421  5.2042  0.0608  0.7850
  860MOL0     H16048   8.717   4.352   0.302 -2.0539  2.0975  2.6784
  860MOL0     H16049   8.597   4.075   0.259  3.5421 -3.2196 -3.0281
  860MOL0     H16050   8.575   4.187   0.126 -1.0311 -0.5339  1.5510
  860MOL0     H16051   8.883   4.051   0.328  0.0085  2.1496  0.4156
  860MOL0     H16052   9.145   4.051   0.280  0.1309  2.1494  0.0199
  860MOL0     H16053   9.142   3.957   0.126  2.3430  0.9677 -2.0699
  860MOL0     H16054   9.216   4.116  -0.002 -1.2428 -1.8677  0.4407
  860MOL0     H16055   9.191   4.248   0.107  0.1678 -0.1996  3.3333
  860MOL0     H16056   9.348   4.178   0.267  1.2762  2.2656 -1.2241
  860MOL0     H16057   9.435   4.201   0.110  1.7933 -0.1444 -0.7761
  860MOL0     H16058   9.542   4.007   0.189  1.1103 -3.6030 -1.5611
  860MOL0     H16059   9.432   3.938   0.079  2.0133 -1.5786  0.7917
  860MOL0     H16060   9.619   4.016   0.388 -1.3424  0.7194 -0.7867
  860MOL0     H16061   9.647   4.075   0.617  0.9875 -3.2973 -0.8262
  860MOL0     H16062   9.443   4.171   1.084 -0.0759 -3.4435 -2.5503
  860MOL0     H16063   9.552   4.249   1.295 -0.0920 -2.1374 -1.2930
  860MOL0     H16064   9.940   4.367   1.234  0.0911  2.8747  0.2596
  860MOL0     H16065   9.791   4.422   1.267 -0.5629 -0.2747 -0.3792
  860MOL0     H16066   9.978   4.513   1.425  1.6010 -2.2896 -3.2549
  860MOL0     H16067   9.844   4.436   1.511  0.2828 -0.3348 -1.8523
  860MOL0     H16068  10.028   4.347   1.611 -0.1917  1.8066 -1.5782
  860MOL0     H16069   9.988   4.217   1.504 -1.1712 -0.5477 -1.8236
  860MOL0     H16070  10.237   4.309   1.500 -0.1656  0.9183  0.5490
  860MOL0     H16071  10.185   4.438   1.401 -3.0332  1.6017  1.5019
  860MOL0     H16072  10.085   4.231   1.243 -1.1358  5.4374 -0.1980
  860MOL0     H16073  10.154   4.132   1.375 -0.2197  0.7814 -0.4333
  860MOL0     H16074  10.316   4.316   1.200 -0.8576  0.9216  0.4914
  860MOL0     H16075  10.380   4.232   1.341 -0.1526  0.8528  0.5796
  860MOL0     H16076  10.276   4.120   1.083  0.4515  3.1406  0.4554
  860MOL0     H16077  10.313   4.015   1.223 -0.6664  0.5456  3.1574
  860MOL0     H16078  10.533   4.182   1.096 -1.8467  0.8091  0.4227
  860MOL0     H16079  10.541   4.028   1.202 -3.7379 -1.5974  0.5496
  860MOL0     H16080   9.924   4.096   1.166  0.7557  0.5242 -1.2757
  860MOL0     H16081   9.809   4.037   0.938  0.2197  2.5648 -1.0254
  860MOL0     H16082   9.219   4.003   0.681 -0.3180 -2.7534 -1.3800
  860MOL0     H16083   9.206   3.942   0.456 -0.7482  0.1623  0.8995
  860MOL0     H16084   8.019   5.020  -0.177 -2.3735 -1.5444  0.1409
  860MOL0     H16085   7.875   5.197  -0.074 -0.6253 -1.2038 -0.1928
  860MOL0     H16086   7.693   5.463   0.141  0.1186 -0.8439  0.3891
  860MOL0     H16087   7.500   5.613   0.186 -1.3662  2.8967  1.2957
  860MOL0     H16088   7.268   5.802   0.447  1.6760  1.8326  0.6397
  860MOL0     H16089   7.303   5.683   0.318  2.1885 -2.3447  1.7559
  860MOL0     H16090   7.311   5.888   0.232  0.0966 -1.7901 -0.0024
  860MOL0     H16091   7.487   5.841   0.239  1.0483  0.9723 -0.7799
  860MOL0     H16092   7.504   5.959   0.468 -2.1229  0.5703  1.4470
  860MOL0     H16093   7.345   6.018   0.456  0.5147  0.7078  1.9929
  860MOL0     H16094   7.393   6.151   0.250 -0.9534 -0.7089  0.7815
  860MOL0     H16095   7.492   6.210   0.374  3.5740  0.8434 -1.8581
  860MOL0     H16096   7.781   6.049   0.118 -0.1980  0.8004 -0.2634
  860MOL0     H16097   7.593   5.580   0.609 -0.5256 -1.6935  0.3512
  860MOL0     H16098   7.755   5.411   0.690  1.4521 -1.1519  1.0812
  860MOL0     H16099   7.797   5.283   0.578 -1.1108  0.4043  0.2236
  860MOL0     H16100   7.902   5.417   0.599 -0.7554  3.0378  0.2116
  861MOL0     O16101   7.195   7.527   3.735 -0.3142  0.2057 -0.2503
  861MOL0     C16102   7.123   7.443   3.786  0.2330 -0.3315  0.7873
  861MOL0     O16103   7.095   7.323   3.722  0.8939 -0.4098 -0.4306
  861MOL0     C16104   7.158   7.305   3.598 -0.3018  0.6437 -0.6762
  861MOL0     C16105   7.293   7.265   3.610  0.0182  0.2976 -0.8066
  861MOL0     C16106   7.369   7.257   3.499 -0.5718 -0.3568 -0.3820
  861MOL0     C16107   7.315   7.294   3.371  0.3018  1.4066 -0.8094
  861MOL0     O16108   7.400   7.283   3.263 -0.1829  0.7511  0.4279
  861MOL0     C16109   7.352   7.317   3.134  0.2281 -0.9171  0.4415
  861MOL0     C16110   7.458   7.298   3.019 -0.6262  0.3718  0.1195
  861MOL0     C16111   7.410   7.295   2.880 -0.7669  0.3115 -0.5446
  861MOL0     C16112   7.523   7.312   2.787  0.0506 -0.9160 -0.0454
  861MOL0     C16113   7.485   7.286   2.643 -0.7394  0.5199  0.5103
  861MOL0     C16114   7.396   7.402   2.591  0.1876  0.4934 -1.4547
  861MOL0     C16115   7.324   7.341   2.474  0.8731 -0.0557 -0.6148
  861MOL0     C16116   7.204   7.433   2.451 -0.6160  0.0474 -0.6914
  861MOL0     N16117   7.122   7.375   2.347  0.4866 -0.2406  0.1501
  861MOL0     C16118   7.121   7.407   2.212  0.6640  0.2382  0.1032
  861MOL0     C16119   7.028   7.323   2.161 -0.3536  0.5075  0.5222
  861MOL0     C16120   7.006   7.317   2.014 -0.1860 -0.0461 -0.4655
  861MOL0     C16121   6.972   7.178   1.962  1.1173  0.2883  0.2406
  861MOL0     C16122   7.005   7.143   1.816 -0.2501  0.4598  1.8825
  861MOL0     C16123   6.936   7.208   1.695  0.0133 -0.0668  0.6807
  861MOL0     O16124   6.799   7.222   1.716 -0.7098  0.8246 -0.0668
  861MOL0     C16125   6.732   7.275   1.615  0.3776 -0.9443  0.0063
  861MOL0     C16126   6.594   7.275   1.630  1.0450 -0.5025  0.7265
  861MOL0     C16127   6.510   7.319   1.530  0.3499 -0.6287 -0.3061
  861MOL0     C16128   6.561   7.381   1.415  0.0087 -0.5320 -0.1001
  861MOL0     C16129   6.477   7.428   1.304  0.9912 -0.3785  0.4502
  861MOL0     O16130   6.541   7.508   1.214  0.0009 -0.3274 -0.1181
  861MOL0     C16131   6.489   7.548   1.096  0.9057  0.8584 -0.5144
  861MOL0     C16132   6.402   7.462   1.017 -0.4463 -0.3157 -0.3853
  861MOL0     C16133   6.333   7.511   0.901 -0.2028  0.0545 -0.3896
  861MOL0     C16134   6.349   7.648   0.870  0.0078  0.1198 -0.1732
  861MOL0     O16135   6.277   7.689   0.756 -0.0466 -0.1962  0.0987
  861MOL0     C16136   6.286   7.824   0.706  0.0416 -0.5759  0.0846
  861MOL0     C16137   6.229   7.809   0.556 -1.1738  0.2850 -0.5128
  861MOL0     C16138   6.256   7.940   0.482  0.2397  0.3356 -0.7336
  861MOL0     C16139   6.383   7.923   0.394  0.1548 -0.9385  0.1517
  861MOL0     C16140   6.428   8.059   0.334 -0.6892 -0.3318  0.3351
  861MOL0     C16141   6.579   8.081   0.304  1.1799 -0.0927 -0.5377
  861MOL0     C16142   6.614   8.215   0.238  0.6026 -0.4405  0.2897
  861MOL0     C16143   6.764   8.242   0.251 -1.0020  0.0254  0.0914
  861MOL0    Cl16144   6.863   8.151   0.141 -0.2998 -0.4850  0.2022
  861MOL0     C16145   6.429   7.734   0.938  0.5230 -0.4216 -0.3828
  861MOL0     C16146   6.496   7.678   1.055 -0.1015 -0.4117 -0.5615
  861MOL0     O16147   6.357   7.399   1.304 -0.1904  0.4512  0.9777
  861MOL0     C16148   6.701   7.393   1.403  0.1751 -0.5548  0.8430
  861MOL0     C16149   6.785   7.336   1.495  0.0793 -0.4277 -0.8150
  861MOL0     N16150   6.958   7.257   2.258  0.4202  0.2258 -0.1900
  861MOL0     N16151   7.017   7.293   2.365 -1.1766 -0.6893 -0.3159
  861MOL0     C16152   7.179   7.323   3.361 -0.2381  0.1833  0.9733
  861MOL0     C16153   7.101   7.330   3.477 -0.2670  0.5789  0.0364
  861MOL0     C16154   7.057   7.461   3.921  0.2086  0.8208 -0.3309
  861MOL0     C16155   6.931   7.406   3.928 -0.1081  0.0048 -0.4766
  861MOL0     C16156   6.863   7.408   4.050 -0.4829 -0.6259 -0.4410
  861MOL0     C16157   6.913   7.480   4.166 -0.2650 -0.9581 -0.4724
  861MOL0     O16158   6.854   7.480   4.291 -0.6630 -0.3825 -0.8762
  861MOL0     C16159   6.899   7.574   4.382 -1.1616 -0.2544 -0.3663
  861MOL0     C16160   6.799   7.606   4.494 -0.9295 -0.0243  0.1559
  861MOL0     C16161   6.763   7.476   4.577  1.2734 -0.0285  0.5345
  861MOL0     C16162   6.612   7.468   4.594 -0.0434  1.0172 -0.4354
  861MOL0     C16163   6.548   7.589   4.650 -0.4167  1.5860 -0.1730
  861MOL0     C16164   6.496   7.674   4.706  0.9616 -0.0303 -0.1550
  861MOL0     C16165   7.042   7.541   4.140 -0.5433 -0.4166 -0.5145
  861MOL0     C16166   7.120   7.522   4.027 -0.0069 -0.8794  0.9130
  861MOL0     C16167   7.271   7.547   4.020  0.3241  0.1298 -0.6388
  861MOL0     H16168   7.339   7.250   3.707 -1.1533 -3.7219 -0.6707
  861MOL0     H16169   7.471   7.220   3.496 -0.4970 -0.5533  2.3229
  861MOL0     H16170   7.277   7.242   3.105  0.3337 -1.8637  2.4539
  861MOL0     H16171   7.314   7.419   3.124  1.2842 -0.7270 -3.0851
  861MOL0     H16172   7.519   7.209   3.040  1.7707  2.6280  3.9110
  861MOL0     H16173   7.527   7.381   3.035 -2.3677  2.0967 -0.9073
  861MOL0     H16174   7.335   7.375   2.871 -0.1770  0.8590 -0.6807
  861MOL0     H16175   7.366   7.199   2.854  0.3430  0.5283 -3.7162
  861MOL0     H16176   7.566   7.411   2.806  5.3712 -3.1601  1.5996
  861MOL0     H16177   7.606   7.245   2.809 -1.2377 -2.7365 -0.5251
  861MOL0     H16178   7.576   7.284   2.582 -1.2275 -2.2460 -0.2574
  861MOL0     H16179   7.443   7.186   2.632  0.5305  0.1708 -1.8930
  861MOL0     H16180   7.320   7.400   2.668  2.3047  3.6633  0.9906
  861MOL0     H16181   7.457   7.492   2.578 -0.2530  1.1060  0.4345
  861MOL0     H16182   7.289   7.239   2.493  4.6067 -1.6230 -1.2395
  861MOL0     H16183   7.375   7.330   2.378 -1.9354  1.9359 -2.4979
  861MOL0     H16184   7.139   7.457   2.536  0.6049  2.7299 -0.4380
  861MOL0     H16185   7.242   7.527   2.411  1.6481  0.7061  2.6396
  861MOL0     H16186   7.191   7.457   2.146 -1.1257  0.9425 -1.3397
  861MOL0     H16187   6.926   7.382   1.978  0.1935  0.3341 -0.6298
  861MOL0     H16188   7.098   7.361   1.973 -1.0056  3.6414  1.2906
  861MOL0     H16189   7.039   7.124   2.029  3.5660  0.0229 -2.2634
  861MOL0     H16190   6.865   7.156   1.976  0.0750  1.4348 -4.2997
  861MOL0     H16191   6.995   7.034   1.815  2.2299  0.1900  1.9764
  861MOL0     H16192   7.111   7.149   1.793 -1.1518  1.6056 -3.2565
  861MOL0     H16193   6.948   7.135   1.615 -0.3627 -1.7720  2.1139
  861MOL0     H16194   6.980   7.307   1.680 -0.4625  0.0130 -0.2269
  861MOL0     H16195   6.551   7.224   1.716  0.2723  0.5249  0.9696
  861MOL0     H16196   6.402   7.317   1.545  0.4699  0.8857  0.9908
  861MOL0     H16197   6.402   7.355   1.037  0.9562 -0.8528 -2.8121
  861MOL0     H16198   6.269   7.449   0.838 -0.5667  0.4831 -0.4400
  861MOL0     H16199   6.215   7.895   0.750 -1.0817 -2.1249  0.9203
  861MOL0     H16200   6.391   7.850   0.693 -0.5069  1.8796  0.1361
  861MOL0     H16201   6.278   7.728   0.502 -0.9895  1.6784 -2.6073
  861MOL0     H16202   6.122   7.792   0.572 -0.9874 -0.5279 -0.1146
  861MOL0     H16203   6.173   7.954   0.411 -0.1400 -2.2622 -0.9108
  861MOL0     H16204   6.269   8.028   0.545  0.0254  0.0222 -0.2477
  861MOL0     H16205   6.368   7.849   0.315 -1.8714 -0.8544  0.3805
  861MOL0     H16206   6.465   7.891   0.458  0.0505 -0.1925  0.6767
  861MOL0     H16207   6.413   8.134   0.413  2.0140  0.8782 -0.1810
  861MOL0     H16208   6.373   8.096   0.247 -1.1551  2.1041  1.5776
  861MOL0     H16209   6.627   8.065   0.401  0.8011  1.1553 -0.1374
  861MOL0     H16210   6.592   7.995   0.236  1.4317  0.9680 -1.8772
  861MOL0     H16211   6.563   8.298   0.288  1.1819  0.0724  0.0565
  861MOL0     H16212   6.582   8.232   0.135  0.1796  0.3796  0.5469
  861MOL0     H16213   6.786   8.349   0.246 -2.0101  0.3695  2.2109
  861MOL0     H16214   6.786   8.204   0.351 -0.9362 -1.7646 -0.5788
  861MOL0     H16215   6.426   7.842   0.923 -1.6090 -0.4854 -0.7717
  861MOL0     H16216   6.555   7.748   1.113  0.6277  0.3116 -2.1091
  861MOL0     H16217   6.749   7.444   1.321 -0.0911  2.0236  2.1674
  861MOL0     H16218   6.890   7.352   1.476  0.2841 -2.1851 -1.3554
  861MOL0     H16219   7.135   7.334   3.262  0.8131 -1.3461  0.3015
  861MOL0     H16220   7.001   7.369   3.462  0.7632  2.6192 -2.0752
  861MOL0     H16221   6.896   7.353   3.841  3.6480  0.2856 -2.3885
  861MOL0     H16222   6.774   7.346   4.057 -1.1884  0.5013  1.0992
  861MOL0     H16223   6.926   7.666   4.330 -2.4991  0.3948  0.0557
  861MOL0     H16224   6.993   7.532   4.419  0.0647 -0.5696 -3.5105
  861MOL0     H16225   6.713   7.662   4.457  0.7195  2.4205 -0.1692
  861MOL0     H16226   6.834   7.682   4.563 -1.8278 -1.5393  2.3953
  861MOL0     H16227   6.801   7.498   4.677  1.3703  0.7411  0.3389
  861MOL0     H16228   6.797   7.383   4.530 -2.7000 -2.7204  2.4422
  861MOL0     H16229   6.559   7.436   4.503  0.3247  2.9462 -1.3656
  861MOL0     H16230   6.587   7.390   4.667  0.8797 -0.7625 -1.9484
  861MOL0     H16231   6.448   7.751   4.763  0.8879 -0.2770  0.1186
  861MOL0     H16232   7.092   7.582   4.228  0.6537 -1.6556 -0.5693
  861MOL0     H16233   7.324   7.555   4.116  0.6908 -3.8063 -0.3663
  861MOL0     H16234   7.317   7.457   3.979  1.6314  1.0069 -1.1498
  861MOL0     H16235   7.287   7.633   3.955  2.8268 -0.0740 -0.3660
  862MOL0     O16236   6.787   6.251   2.225 -0.3644  0.7354  0.5989
  862MOL0     C16237   6.907   6.245   2.191 -0.2184  0.2999  0.2747
  862MOL0     O16238   6.952   6.253   2.063 -0.7186 -0.1040  0.4160
  862MOL0     C16239   6.851   6.224   1.969  0.2367  1.3427 -0.5623
  862MOL0     C16240   6.828   6.104   1.913  0.6217  0.1516 -0.3781
  862MOL0     C16241   6.755   6.098   1.796  0.5707  0.0601 -0.4427
  862MOL0     C16242   6.685   6.208   1.749 -0.1981 -0.1551  0.5117
  862MOL0     O16243   6.617   6.186   1.633  0.4135  0.1051 -0.2123
  862MOL0     C16244   6.598   6.285   1.534  0.5617 -0.4256  0.3730
  862MOL0     C16245   6.448   6.324   1.517 -0.3466 -0.1154  0.2917
  862MOL0     C16246   6.386   6.412   1.630 -0.0910  0.4352  0.1396
  862MOL0     C16247   6.319   6.318   1.736 -0.2736  0.3757  0.0867
  862MOL0     C16248   6.231   6.391   1.832 -0.3088  0.0337 -0.3213
  862MOL0     C16249   6.318   6.458   1.939  0.0274  0.8158  0.4553
  862MOL0     C16250   6.212   6.510   2.043 -0.2645 -0.9877 -0.2455
  862MOL0     C16251   6.137   6.636   1.983  0.7665  1.3848 -1.4368
  862MOL0     N16252   6.135   6.738   2.083  0.6519 -0.0824 -0.5580
  862MOL0     C16253   6.050   6.733   2.190  0.7826 -0.7157 -1.1510
  862MOL0     C16254   6.092   6.830   2.272 -0.8349 -0.5234  0.0834
  862MOL0     C16255   6.042   6.841   2.417 -0.1027  0.1151  0.4140
  862MOL0     C16256   6.131   6.789   2.523  1.1104  1.3253 -0.0053
  862MOL0     C16257   6.245   6.888   2.549  0.1143  0.2685  1.0962
  862MOL0     C16258   6.327   6.840   2.663  0.5238 -0.0711 -0.7027
  862MOL0     O16259   6.408   6.726   2.626 -0.3747  0.5463 -0.2145
  862MOL0     C16260   6.525   6.720   2.706  0.4043  0.3348 -0.0956
  862MOL0     C16261   6.547   6.753   2.842 -0.7164  0.9505 -0.5149
  862MOL0     C16262   6.674   6.746   2.902  0.2177 -0.1599 -0.5113
  862MOL0     C16263   6.785   6.712   2.821 -0.2510 -0.1656  0.0737
  862MOL0     C16264   6.919   6.697   2.874  0.0996 -0.0551 -0.9898
  862MOL0     O16265   7.013   6.651   2.790  0.1835  1.0146  1.1341
  862MOL0     C16266   7.139   6.611   2.812 -0.3381 -0.5080 -0.9664
  862MOL0     C16267   7.242   6.657   2.722  0.6288 -0.4476  0.1968
  862MOL0     C16268   7.371   6.601   2.727  0.2345  0.0572  0.7561
  862MOL0     C16269   7.404   6.508   2.826  0.9332 -0.0995 -0.3515
  862MOL0     O16270   7.529   6.460   2.831 -0.5443 -0.7999  0.3320
  862MOL0     C16271   7.582   6.417   2.706 -0.7452  0.2633 -0.5426
  862MOL0     C16272   7.721   6.345   2.722  0.3090  0.1966 -0.4614
  862MOL0     C16273   7.774   6.317   2.582 -0.1296  1.0870 -0.6330
  862MOL0     C16274   7.910   6.249   2.603  0.2811 -0.2934  0.9643
  862MOL0     C16275   7.958   6.189   2.476 -0.0587  0.9162 -1.6997
  862MOL0     C16276   8.090   6.112   2.490  0.4169  0.2801 -0.3665
  862MOL0     C16277   8.143   6.047   2.359 -0.4119 -0.0714 -0.1648
  862MOL0     C16278   8.057   5.928   2.322  0.4210 -0.7988  0.0425
  862MOL0    Cl16279   8.095   5.853   2.166  0.5409 -0.0501 -0.4249
  862MOL0     C16280   7.308   6.468   2.915 -0.0516  0.5777 -1.0712
  862MOL0     C16281   7.179   6.516   2.914 -0.5323  0.0423  0.4662
  862MOL0     O16282   6.940   6.703   2.992  0.1040  0.2675  0.0462
  862MOL0     C16283   6.757   6.684   2.685  0.5294 -0.1297  0.4437
  862MOL0     C16284   6.630   6.683   2.625 -1.2674  0.1152 -0.3654
  862MOL0     N16285   6.219   6.876   2.221 -0.5260  0.4047 -1.1651
  862MOL0     N16286   6.237   6.820   2.109  0.3175 -0.1242  0.2603
  862MOL0     C16287   6.693   6.331   1.817 -0.4456 -0.0690 -0.9507
  862MOL0     C16288   6.773   6.341   1.927 -0.2349  1.1591 -0.3053
  862MOL0     C16289   7.010   6.234   2.295  0.6873 -0.1027  0.0118
  862MOL0     C16290   7.109   6.134   2.290 -0.2039 -0.7437  0.4699
  862MOL0     C16291   7.224   6.123   2.380  0.4184  0.2435 -0.2116
  862MOL0     C16292   7.227   6.215   2.478 -0.8541  0.9394 -0.4721
  862MOL0     O16293   7.327   6.195   2.582  0.7247  0.2789  0.3339
  862MOL0     C16294   7.279   6.128   2.696  0.5289  1.2383 -0.8567
  862MOL0     C16295   7.407   6.087   2.791  0.7627 -0.5709 -0.1557
  862MOL0     C16296   7.510   6.020   2.699  0.0396  0.5883 -0.1822
  862MOL0     C16297   7.618   5.965   2.785  0.1564  0.4924 -0.3064
  862MOL0     C16298   7.704   5.859   2.723  0.1621 -0.3192 -0.3212
  862MOL0     C16299   7.776   5.784   2.672 -0.2098 -0.0305 -0.7212
  862MOL0     C16300   7.131   6.318   2.483  0.6236 -0.0044 -0.7188
  862MOL0     C16301   7.022   6.326   2.403 -0.1544  0.4650  0.4790
  862MOL0     C16302   6.906   6.427   2.419 -0.1760  1.2057  0.0596
  862MOL0     H16303   6.873   6.015   1.955 -2.1381  0.8985  5.1057
  862MOL0     H16304   6.735   6.004   1.746 -1.8924  1.2736 -1.9535
  862MOL0     H16305   6.667   6.370   1.535  0.5879 -0.2091 -3.5794
  862MOL0     H16306   6.604   6.231   1.440 -2.4486 -0.2543 -0.0309
  862MOL0     H16307   6.383   6.236   1.520 -0.3425 -0.2566 -2.2185
  862MOL0     H16308   6.428   6.375   1.422 -2.3232 -3.7696 -1.4822
  862MOL0     H16309   6.296   6.455   1.584  0.1944 -1.2078 -2.1309
  862MOL0     H16310   6.452   6.481   1.684  1.3552  1.0761 -2.2911
  862MOL0     H16311   6.265   6.240   1.680 -0.6273 -0.2022  1.2010
  862MOL0     H16312   6.404   6.266   1.780 -1.1817 -3.6674 -2.4165
  862MOL0     H16313   6.163   6.470   1.797 -2.0721 -0.3125  2.0968
  862MOL0     H16314   6.159   6.316   1.866 -1.8997  1.7871  0.3900
  862MOL0     H16315   6.391   6.394   1.989 -0.5716  0.3130  0.7102
  862MOL0     H16316   6.373   6.536   1.885 -0.7355  0.0671 -1.5023
  862MOL0     H16317   6.269   6.538   2.132 -1.1543 -0.3251  0.1335
  862MOL0     H16318   6.142   6.430   2.070  1.1165 -2.1662 -0.0422
  862MOL0     H16319   6.201   6.683   1.908 -0.1495  3.1257 -1.1709
  862MOL0     H16320   6.035   6.628   1.947  0.0218  2.5830  0.2559
  862MOL0     H16321   5.954   6.683   2.198  1.7610 -2.5201  0.0120
  862MOL0     H16322   6.002   6.943   2.427 -1.1860 -0.0704 -1.4833
  862MOL0     H16323   5.949   6.784   2.426  0.2399 -0.6281 -0.5412
  862MOL0     H16324   6.076   6.760   2.612 -0.1793  1.6644 -0.6658
  862MOL0     H16325   6.173   6.692   2.493  0.3427  0.8668  0.3835
  862MOL0     H16326   6.187   6.977   2.577 -0.5934  0.0724  0.3017
  862MOL0     H16327   6.305   6.908   2.460  0.0714  0.4072  1.0970
  862MOL0     H16328   6.264   6.821   2.751  1.0631  1.6002  0.0789
  862MOL0     H16329   6.393   6.920   2.697 -0.7715  1.3950 -1.5622
  862MOL0     H16330   6.473   6.788   2.913  1.6824  3.6678  0.8813
  862MOL0     H16331   6.693   6.780   3.003  2.6540 -0.9679 -0.6378
  862MOL0     H16332   7.214   6.726   2.643 -1.2974 -1.2565  0.1062
  862MOL0     H16333   7.452   6.622   2.657 -0.2663 -1.3430 -0.2858
  862MOL0     H16334   7.511   6.352   2.654 -0.4697  0.7607 -1.5811
  862MOL0     H16335   7.605   6.506   2.647  0.5106 -0.3132 -0.9691
  862MOL0     H16336   7.783   6.413   2.782  1.4166 -2.8139  2.1050
  862MOL0     H16337   7.686   6.259   2.779 -2.4441  3.0884  2.6811
  862MOL0     H16338   7.717   6.233   2.542 -2.0633  0.9822  2.1177
  862MOL0     H16339   7.780   6.406   2.518 -0.6641  1.8370  0.3364
  862MOL0     H16340   7.885   6.165   2.668 -0.5095  0.0757  1.1598
  862MOL0     H16341   7.979   6.323   2.644  3.9409 -1.9255 -1.7172
  862MOL0     H16342   7.976   6.278   2.415 -1.0669  1.0093 -1.8836
  862MOL0     H16343   7.885   6.128   2.423  1.7619 -2.4248 -0.6255
  862MOL0     H16344   8.150   6.195   2.527 -1.5061  1.5807  0.0149
  862MOL0     H16345   8.083   6.037   2.570  1.4016 -1.7940 -2.1343
  862MOL0     H16346   8.245   6.014   2.384  0.0068  1.3537  0.1338
  862MOL0     H16347   8.141   6.119   2.276  1.0015  0.0061 -0.1611
  862MOL0     H16348   8.063   5.864   2.410 -2.1908  2.0469  2.5349
  862MOL0     H16349   7.953   5.960   2.314  0.6655 -0.3112 -1.6204
  862MOL0     H16350   7.322   6.399   2.998 -3.7247 -0.8149 -1.3928
  862MOL0     H16351   7.100   6.481   2.981  0.2499  0.1649  1.4689
  862MOL0     H16352   6.829   6.662   2.607  2.8707  3.4814  1.3393
  862MOL0     H16353   6.607   6.649   2.524 -1.6688 -1.6778  0.2921
  862MOL0     H16354   6.638   6.423   1.799  4.1404  2.5825 -3.4749
  862MOL0     H16355   6.776   6.435   1.982  2.4222  1.9582 -1.6478
  862MOL0     H16356   7.125   6.061   2.212  2.5699 -0.2496  0.4901
  862MOL0     H16357   7.304   6.051   2.373  3.1468  2.7485  2.4004
  862MOL0     H16358   7.229   6.038   2.661 -3.5934  2.6641  0.6685
  862MOL0     H16359   7.205   6.190   2.749 -0.5059  0.8671 -1.8188
  862MOL0     H16360   7.380   6.023   2.875 -0.1940  0.7640  0.5980
  862MOL0     H16361   7.454   6.180   2.825 -1.9414  1.4922 -1.6506
  862MOL0     H16362   7.542   6.088   2.619  1.7005 -2.9067 -2.7582
  862MOL0     H16363   7.461   5.936   2.649 -0.4610 -0.0418  1.3215
  862MOL0     H16364   7.682   6.043   2.827 -1.8307  1.4771  1.0165
  862MOL0     H16365   7.569   5.924   2.874  1.0074  3.9225  1.9033
  862MOL0     H16366   7.836   5.708   2.626 -0.4150 -3.4865  3.9352
  862MOL0     H16367   7.142   6.389   2.563 -1.4397 -0.1562 -0.2639
  862MOL0     H16368   6.913   6.505   2.343  1.1840  0.2804 -0.8125
  862MOL0     H16369   6.809   6.377   2.414 -1.5770  3.8116 -0.3361
  862MOL0     H16370   6.925   6.468   2.518  2.8758 -1.5979  0.8179
  863MOL0     O16371  10.307   1.464  10.338  0.5125  0.7365 -0.2909
  863MOL0     C16372  10.344   1.342  10.347 -0.4055 -1.0164  0.0550
  863MOL0     O16373  10.258   1.232  10.341  0.0712  0.5517  0.0251
  863MOL0     C16374  10.133   1.225  10.395  1.1862 -0.2036  0.1584
  863MOL0     C16375  10.045   1.118  10.361 -0.6147  0.5646  0.5410
  863MOL0     C16376   9.906   1.107  10.400 -0.8307 -1.1035  0.1980
  863MOL0     C16377   9.860   1.205  10.491 -0.4697 -0.0893  0.2734
  863MOL0     O16378   9.741   1.190  10.555 -0.4213 -0.3988 -0.1260
  863MOL0     C16379   9.721   1.055  10.610  1.2080 -0.6651  0.5466
  863MOL0     C16380   9.626   1.057  10.726  0.2459 -0.3168 -0.2141
  863MOL0     C16381   9.677   1.140  10.843  0.5279  0.3369 -0.1288
  863MOL0     C16382   9.630   1.280  10.830  0.3585 -0.0542  0.8452
  863MOL0     C16383   9.603   1.341  10.961 -0.3676 -0.3848 -0.8219
  863MOL0     C16384   9.522   1.475  10.962  0.9264 -0.4232 -0.0454
  863MOL0     C16385   9.372   1.447  10.986 -0.0939  0.4348  0.3584
  863MOL0     C16386   9.264   1.549  10.967 -0.0898 -1.3148 -0.3094
  863MOL0     N16387   9.270   1.599  10.832  0.0507  0.4635 -0.7660
  863MOL0     C16388   9.274   1.516  10.717  0.4109  0.1279 -0.7307
  863MOL0     C16389   9.330   1.606  10.627 -0.9705  0.4940  0.0099
  863MOL0     C16390   9.392   1.560  10.497 -0.3645  0.8020  0.4729
  863MOL0     C16391   9.542   1.538  10.525  0.6335 -0.3545 -0.8296
  863MOL0     C16392   9.623   1.674  10.553  0.5561 -0.1641 -0.7346
  863MOL0     C16393   9.761   1.680  10.481  0.0038  0.4637 -0.0086
  863MOL0     O16394   9.802   1.816  10.489 -0.1258 -0.3613 -0.0144
  863MOL0     C16395   9.916   1.852  10.417  0.7535  0.7946  0.4130
  863MOL0     C16396  10.000   1.761  10.356  0.2331  0.3159  0.3122
  863MOL0     C16397  10.120   1.804  10.297  0.6851 -0.0124  0.2869
  863MOL0     C16398  10.158   1.935  10.300 -0.0716 -1.7260  0.4707
  863MOL0     C16399  10.277   1.983  10.233 -0.0076  0.3551  0.4665
  863MOL0     O16400  10.355   1.879  10.193 -0.5716  0.2764  0.1602
  863MOL0     C16401  10.461   1.896  10.110  0.2725  0.2418 -0.2505
  863MOL0     C16402  10.544   2.008  10.097 -0.2044 -0.2074 -0.6951
  863MOL0     C16403  10.665   2.010  10.029 -0.1599 -0.2136  0.1938
  863MOL0     C16404  10.705   1.896   9.962  1.4917 -0.5053  0.4432
  863MOL0     O16405  10.828   1.909   9.907 -0.3369 -0.5827 -0.8112
  863MOL0     C16406  10.897   1.798   9.836  0.1893  0.1770  0.1065
  863MOL0     C16407  10.994   1.855   9.738 -0.8809 -0.3168 -0.4599
  863MOL0     C16408  11.102   1.759   9.685 -0.7791 -0.0823 -0.5468
  863MOL0     C16409  11.223   1.823   9.600 -0.2996  0.5736  0.1089
  863MOL0     C16410  11.307   1.708   9.533 -0.6526 -0.5613 -0.3791
  863MOL0     C16411  11.446   1.766   9.492  0.6428  0.4520  0.5190
  863MOL0     C16412  11.529   1.817   9.618 -0.3417 -0.7104 -0.0057
  863MOL0     C16413  11.672   1.864   9.567 -0.5249 -0.8659  0.7628
  863MOL0    Cl16414  11.757   1.725   9.518  0.1344  0.1195 -0.0148
  863MOL0     C16415  10.626   1.774   9.979  0.0953  0.0058  0.4213
  863MOL0     C16416  10.517   1.780  10.055  0.0770  1.0675 -0.6586
  863MOL0     O16417  10.296   2.101  10.202 -0.6686 -0.5561  0.1379
  863MOL0     C16418  10.076   2.031  10.361 -0.1604  0.4826  0.4254
  863MOL0     C16419   9.952   1.986  10.409 -0.7467  0.2468  0.2942
  863MOL0     N16420   9.353   1.725  10.680  0.1708  0.0765 -0.1662
  863MOL0     N16421   9.317   1.718  10.803  0.4251 -0.7630  0.3002
  863MOL0     C16422   9.940   1.309  10.524 -0.6788  0.2753  0.6066
  863MOL0     C16423  10.077   1.326  10.483 -0.1666  0.2946  0.6484
  863MOL0     C16424  10.490   1.315  10.354  0.3286  0.4203  0.0291
  863MOL0     C16425  10.584   1.387  10.277 -1.5035 -0.6968  0.2415
  863MOL0     C16426  10.717   1.357  10.268  0.3035  0.2111  0.2933
  863MOL0     C16427  10.757   1.236  10.326 -0.7144 -0.2893  0.1056
  863MOL0     O16428  10.893   1.214  10.309 -0.0792 -0.0858 -0.7313
  863MOL0     C16429  10.967   1.242  10.188 -0.7684  0.7026  1.3505
  863MOL0     C16430  11.068   1.121  10.157 -0.0237  0.4570  0.7801
  863MOL0     C16431  10.990   1.011  10.071  0.3398 -0.0804 -0.3776
  863MOL0     C16432  11.047   0.866  10.069  0.7440  0.2877  0.1725
  863MOL0     C16433  10.944   0.774  10.006  1.0891  0.0982 -0.2433
  863MOL0     C16434  10.851   0.711   9.961 -0.4873  0.2762 -0.7756
  863MOL0     C16435  10.668   1.155  10.393 -0.2187 -0.3687 -0.7754
  863MOL0     C16436  10.535   1.196  10.421 -0.4027  0.6557  0.2982
  863MOL0     C16437  10.456   1.108  10.516  0.2315  0.7651  0.2705
  863MOL0     H16438  10.086   1.049  10.288  0.1721  2.0400 -0.4660
  863MOL0     H16439   9.847   1.035  10.344  1.8972 -1.3692 -2.6067
  863MOL0     H16440   9.692   0.994  10.524  2.3337  0.2775 -0.5506
  863MOL0     H16441   9.810   1.011  10.657  0.6561 -3.4246 -0.7683
  863MOL0     H16442   9.598   0.958  10.763 -1.8014 -0.2039 -1.2957
  863MOL0     H16443   9.535   1.102  10.684  1.2431  0.6731 -1.4068
  863MOL0     H16444   9.785   1.149  10.857  0.6629 -0.7600 -0.4026
  863MOL0     H16445   9.642   1.109  10.942  1.1476 -1.3838 -0.4197
  863MOL0     H16446   9.704   1.335  10.771  0.5259 -2.1876 -1.0633
  863MOL0     H16447   9.537   1.297  10.774  2.3391  3.6157 -1.7634
  863MOL0     H16448   9.549   1.273  11.027 -0.6775  2.2002  1.8032
  863MOL0     H16449   9.705   1.354  10.998 -0.5228 -1.7119  0.0895
  863MOL0     H16450   9.567   1.532  11.044 -1.1636  2.9358 -1.0396
  863MOL0     H16451   9.524   1.533  10.870 -3.1306  0.9620  0.5374
  863MOL0     H16452   9.359   1.431  11.094 -0.2659  2.3937  0.6683
  863MOL0     H16453   9.353   1.358  10.927  3.0034  1.3412 -2.2771
  863MOL0     H16454   9.170   1.500  10.992 -0.9279  0.0758 -0.6674
  863MOL0     H16455   9.284   1.632  11.036  0.6781 -2.3049  0.6908
  863MOL0     H16456   9.268   1.410  10.695 -0.2829  0.3232 -1.5212
  863MOL0     H16457   9.348   1.466  10.462  0.4707  1.0463 -1.3302
  863MOL0     H16458   9.373   1.628  10.413  0.7038  0.5830  0.0448
  863MOL0     H16459   9.552   1.463  10.604 -0.3065  0.7576  0.3745
  863MOL0     H16460   9.575   1.492  10.431  0.2218 -1.6662 -0.3584
  863MOL0     H16461   9.637   1.676  10.661 -0.0462 -2.5999 -0.5321
  863MOL0     H16462   9.563   1.757  10.516  1.6769  1.2440  0.5063
  863MOL0     H16463   9.764   1.643  10.378 -1.1877  1.2497 -0.3437
  863MOL0     H16464   9.831   1.616  10.536  1.7202  1.4014 -1.0316
  863MOL0     H16465   9.993   1.653  10.362 -5.5742  0.3717  0.1391
  863MOL0     H16466  10.195   1.738  10.255  1.4038  0.2030  1.1869
  863MOL0     H16467  10.516   2.105  10.137  1.0110 -0.7192  1.6026
  863MOL0     H16468  10.723   2.101  10.032 -3.2212  1.8479  1.6999
  863MOL0     H16469  10.952   1.727   9.898  1.1774 -0.8471 -1.8486
  863MOL0     H16470  10.818   1.741   9.787 -0.8442  1.6091  0.0499
  863MOL0     H16471  10.934   1.886   9.652 -2.1289 -1.1380  0.0917
  863MOL0     H16472  11.044   1.942   9.781  1.3486 -1.5521 -0.4074
  863MOL0     H16473  11.151   1.712   9.771  0.0239  0.8880 -0.4633
  863MOL0     H16474  11.044   1.692   9.621  1.3136  0.8085 -3.5578
  863MOL0     H16475  11.286   1.890   9.660  3.0749 -1.5872 -0.7421
  863MOL0     H16476  11.184   1.893   9.526 -0.9286  0.1368  0.0162
  863MOL0     H16477  11.263   1.676   9.437  3.1147 -2.6398 -1.6155
  863MOL0     H16478  11.338   1.623   9.595 -0.3680  1.6636  2.7407
  863MOL0     H16479  11.502   1.698   9.428 -1.2660 -0.4142 -0.2922
  863MOL0     H16480  11.427   1.852   9.427 -0.4562  0.7407  1.1907
  863MOL0     H16481  11.534   1.732   9.686  2.8429 -1.1612 -0.6702
  863MOL0     H16482  11.484   1.903   9.669 -0.8173 -0.9584 -0.0026
  863MOL0     H16483  11.682   1.941   9.490 -0.7492 -0.5238  1.0752
  863MOL0     H16484  11.716   1.891   9.663 -0.1450 -1.0269  0.6355
  863MOL0     H16485  10.666   1.684   9.933 -0.3488  1.3432 -2.9146
  863MOL0     H16486  10.445   1.701  10.073  1.0219  0.5349  1.0102
  863MOL0     H16487  10.097   2.137  10.368 -2.1190  0.9526 -0.2588
  863MOL0     H16488   9.888   2.058  10.458 -1.6352 -2.7092  3.9622
  863MOL0     H16489   9.884   1.383  10.581 -1.6947 -0.1013  0.1210
  863MOL0     H16490  10.135   1.412  10.515 -1.1480  2.0009 -1.8902
  863MOL0     H16491  10.554   1.479  10.227  0.4245 -0.5060 -0.6465
  863MOL0     H16492  10.768   1.438  10.217 -0.4590 -0.1342 -1.0798
  863MOL0     H16493  11.016   1.336  10.215 -1.0249  0.4906  2.6198
  863MOL0     H16494  10.892   1.248  10.108  0.1028  0.7212  0.5208
  863MOL0     H16495  11.107   1.080  10.251  2.3173  3.1931  1.1508
  863MOL0     H16496  11.155   1.164  10.107 -0.4011  0.3775  0.0446
  863MOL0     H16497  10.985   1.044   9.967  2.5981 -1.5101 -1.0245
  863MOL0     H16498  10.890   1.000  10.114 -0.0792 -1.1712 -1.5613
  863MOL0     H16499  11.148   0.848  10.031  1.1513 -3.9435  2.5763
  863MOL0     H16500  11.065   0.838  10.174  1.1244 -0.5226 -0.1064
  863MOL0     H16501  10.768   0.652   9.928 -0.2529  0.6911 -2.1663
  863MOL0     H16502  10.722   1.072  10.437  0.3099  1.8545  3.2539
  863MOL0     H16503  10.381   1.047  10.466 -2.1004  1.0451  3.1336
  863MOL0     H16504  10.526   1.042  10.568  0.2657 -0.4828 -1.3123
  863MOL0     H16505  10.416   1.168  10.599 -0.2919  2.8365 -1.3772
  864MOL0     O16506   8.906   7.480   8.881  0.4163 -0.3530  0.0995
  864MOL0     C16507   8.964   7.562   8.954 -0.3472 -0.5312 -0.0749
  864MOL0     O16508   8.897   7.654   9.041  0.0804  0.5606 -0.3557
  864MOL0     C16509   8.762   7.656   9.061  0.9575 -0.3717 -0.3550
  864MOL0     C16510   8.680   7.544   9.085 -0.7588  0.9413 -0.5233
  864MOL0     C16511   8.539   7.559   9.090 -0.3287 -1.3553  1.1473
  864MOL0     C16512   8.478   7.685   9.095 -0.5870 -0.5213 -0.0740
  864MOL0     O16513   8.343   7.713   9.108 -0.2159  0.0374 -0.1215
  864MOL0     C16514   8.273   7.619   9.188 -1.5908  0.0191 -0.3863
  864MOL0     C16515   8.156   7.675   9.260  0.0939 -0.3884 -0.9706
  864MOL0     C16516   8.079   7.788   9.197 -0.4934 -0.4494  0.2539
  864MOL0     C16517   7.990   7.742   9.086  1.8792 -0.0029  1.8362
  864MOL0     C16518   7.852   7.810   9.095  0.2281 -0.2792 -0.1086
  864MOL0     C16519   7.760   7.770   8.975  0.2472 -0.0025  0.3650
  864MOL0     C16520   7.607   7.792   8.975  0.3593  0.7959  0.1723
  864MOL0     C16521   7.532   7.687   9.054  0.8146  0.0626 -0.1565
  864MOL0     N16522   7.503   7.574   8.975  0.1693  0.4831 -0.0323
  864MOL0     C16523   7.382   7.556   8.909  0.4594 -0.0036  1.1349
  864MOL0     C16524   7.353   7.428   8.905  0.4240  0.6363 -0.7358
  864MOL0     C16525   7.243   7.354   8.851 -0.6552  0.9816 -0.3678
  864MOL0     C16526   7.099   7.395   8.897  1.0593 -0.7881 -0.9448
  864MOL0     C16527   7.086   7.452   9.041 -0.7136  0.4565 -0.5198
  864MOL0     C16528   7.120   7.349   9.156  0.3738 -0.0426  1.6680
  864MOL0     O16529   7.063   7.216   9.138 -0.1825  0.2552 -0.0280
  864MOL0     C16530   7.053   7.123   9.239  0.4352  1.0704  0.7526
  864MOL0     C16531   7.146   7.102   9.337 -0.7514  0.2889 -0.2639
  864MOL0     C16532   7.148   6.985   9.407 -0.2084  1.2127 -0.0433
  864MOL0     C16533   7.034   6.905   9.405  0.0353  0.2618 -0.2224
  864MOL0     C16534   7.022   6.786   9.495  0.1015 -0.5846  0.5593
  864MOL0     O16535   7.141   6.741   9.554 -0.2306  0.6572  0.6379
  864MOL0     C16536   7.133   6.638   9.642  0.1707 -0.2287 -0.3249
  864MOL0     C16537   7.083   6.645   9.780  0.8016 -1.1387 -0.5210
  864MOL0     C16538   7.105   6.534   9.854  0.0191 -0.5334  0.1898
  864MOL0     C16539   7.179   6.421   9.811  0.4628 -0.0284 -0.1719
  864MOL0     O16540   7.201   6.297   9.870  0.4481 -0.6286 -0.2615
  864MOL0     C16541   7.162   6.299  10.004  0.3225  0.6917  0.0387
  864MOL0     C16542   7.261   6.377  10.084  0.9618  0.1865  0.7013
  864MOL0     C16543   7.249   6.335  10.231  1.2330 -0.0913 -0.8173
  864MOL0     C16544   7.302   6.445  10.323  0.3594 -0.0395 -1.7102
  864MOL0     C16545   7.273   6.406  10.473  0.3339 -0.4453 -1.8622
  864MOL0     C16546   7.336   6.507  10.564  0.1141 -0.5571 -0.4435
  864MOL0     C16547   7.311   6.485  10.715 -0.2218 -0.3697 -0.7090
  864MOL0     C16548   7.386   6.374  10.786 -0.0118  0.1161  0.4924
  864MOL0    Cl16549   7.564   6.393  10.789  0.7323  0.3365  0.2470
  864MOL0     C16550   7.212   6.415   9.678 -0.0771  0.5806 -0.8993
  864MOL0     C16551   7.200   6.523   9.588 -0.1832  0.2154 -1.2573
  864MOL0     O16552   6.906   6.751   9.532 -0.0627 -0.1247  0.2456
  864MOL0     C16553   6.930   6.924   9.315  0.5676  0.0404  0.1726
  864MOL0     C16554   6.941   7.036   9.236  0.5368 -1.0363  0.6209
  864MOL0     N16555   7.458   7.363   8.980  0.5756  0.1171  0.3377
  864MOL0     N16556   7.539   7.452   9.021 -0.7995  0.1604 -0.3891
  864MOL0     C16557   8.567   7.798   9.117  0.0179 -0.4611 -0.1248
  864MOL0     C16558   8.707   7.780   9.095 -0.5879  0.6167 -0.1649
  864MOL0     C16559   9.114   7.553   8.985  1.1109 -0.1970  1.0913
  864MOL0     C16560   9.168   7.624   9.090 -0.7124 -0.1261  0.3418
  864MOL0     C16561   9.301   7.612   9.126 -0.1216 -0.4560 -0.5660
  864MOL0     C16562   9.381   7.522   9.067 -0.3466  0.0102  0.1850
  864MOL0     O16563   9.513   7.527   9.107  0.4453 -0.2143  0.3573
  864MOL0     C16564   9.619   7.461   9.045 -0.1801  1.5442  0.1445
  864MOL0     C16565   9.662   7.531   8.922  0.4073  0.0806 -0.7959
  864MOL0     C16566   9.798   7.598   8.950 -0.1533 -0.3121 -0.0351
  864MOL0     C16567   9.910   7.509   8.905 -1.0592  0.3279  0.4056
  864MOL0     C16568  10.038   7.576   8.935 -0.4020 -0.3973 -0.5621
  864MOL0     C16569  10.138   7.645   8.970 -0.0241  0.3753  0.9689
  864MOL0     C16570   9.330   7.442   8.962 -0.9819 -0.7706 -0.7396
  864MOL0     C16571   9.196   7.458   8.919  0.2284  0.3905  0.0674
  864MOL0     C16572   9.144   7.371   8.807  0.0555 -0.0866 -0.5072
  864MOL0     H16573   8.722   7.444   9.078  0.7391  1.4215  1.1096
  864MOL0     H16574   8.480   7.472   9.062 -3.1319  0.7647 -0.0286
  864MOL0     H16575   8.240   7.536   9.126  3.0458 -1.5076 -1.2520
  864MOL0     H16576   8.344   7.586   9.265 -0.5305  0.4630 -1.1420
  864MOL0     H16577   8.189   7.695   9.362 -2.1408 -1.6933  0.0916
  864MOL0     H16578   8.084   7.593   9.270 -0.9689  0.3852 -2.0014
  864MOL0     H16579   8.150   7.862   9.160 -1.0067  0.2543  0.6611
  864MOL0     H16580   8.022   7.833   9.279 -0.7970 -1.7300  0.7810
  864MOL0     H16581   8.034   7.765   8.989  1.5705 -4.1442  0.5191
  864MOL0     H16582   7.985   7.633   9.082 -2.0049  0.0463  1.7172
  864MOL0     H16583   7.813   7.773   9.191 -0.6790 -1.1635 -0.7910
  864MOL0     H16584   7.858   7.919   9.088  0.7665 -0.2403  0.7874
  864MOL0     H16585   7.801   7.816   8.885  0.5355  0.0531  0.5264
  864MOL0     H16586   7.763   7.661   8.976  2.2484 -0.0317 -1.5795
  864MOL0     H16587   7.578   7.786   8.870  0.7740  4.0570 -0.2211
  864MOL0     H16588   7.584   7.896   9.001  1.1789  0.7552  1.1165
  864MOL0     H16589   7.579   7.667   9.150 -4.4122 -1.2800  2.5265
  864MOL0     H16590   7.436   7.730   9.085  0.5136 -0.9857  0.3926
  864MOL0     H16591   7.317   7.635   8.874  4.1106  3.9536  2.4066
  864MOL0     H16592   7.259   7.367   8.743  2.5480  5.3441  0.3430
  864MOL0     H16593   7.247   7.249   8.881  2.7031  1.7609  2.6263
  864MOL0     H16594   7.054   7.468   8.829  0.3458  1.0248  1.3548
  864MOL0     H16595   7.027   7.313   8.892 -1.9008  1.3556  2.1530
  864MOL0     H16596   6.979   7.465   9.060 -0.4300  0.9203  0.8297
  864MOL0     H16597   7.145   7.544   9.050 -2.0162  1.3037 -0.4027
  864MOL0     H16598   7.096   7.383   9.257 -0.8267  1.5126  0.9094
  864MOL0     H16599   7.229   7.347   9.149  0.2746 -1.0025 -0.0167
  864MOL0     H16600   7.232   7.168   9.337  2.3156 -3.3444  0.3638
  864MOL0     H16601   7.233   6.964   9.471  1.5272 -0.5204 -2.7328
  864MOL0     H16602   7.032   6.732   9.821  0.7040 -2.5247  2.6071
  864MOL0     H16603   7.060   6.533   9.953  0.6641  1.5721  0.5669
  864MOL0     H16604   7.060   6.332  10.020  0.4200  0.3637  1.4124
  864MOL0     H16605   7.166   6.197  10.044 -6.3472 -0.0683 -0.2172
  864MOL0     H16606   7.362   6.362  10.045 -0.6457 -0.9830 -3.4936
  864MOL0     H16607   7.222   6.479  10.078 -1.7544 -0.8266 -0.3346
  864MOL0     H16608   7.145   6.316  10.261  2.1129 -0.4360  2.4850
  864MOL0     H16609   7.298   6.237  10.237 -0.0882 -0.8677 -2.1444
  864MOL0     H16610   7.268   6.545  10.294 -0.8489 -0.2814 -1.1625
  864MOL0     H16611   7.410   6.459  10.309  0.7676 -1.5152 -0.2739
  864MOL0     H16612   7.305   6.304  10.495 -0.9165 -0.5704 -0.5289
  864MOL0     H16613   7.164   6.405  10.480  0.3096  1.3103 -1.3835
  864MOL0     H16614   7.445   6.500  10.554  0.2387  2.5570 -2.3722
  864MOL0     H16615   7.304   6.605  10.526 -3.4370 -1.3237  0.2044
  864MOL0     H16616   7.203   6.473  10.732  0.1282 -0.2965  1.9995
  864MOL0     H16617   7.337   6.577  10.768 -1.4292 -0.6705  0.4747
  864MOL0     H16618   7.353   6.356  10.889 -1.0830 -2.7713 -0.2726
  864MOL0     H16619   7.363   6.281  10.733  1.9991  1.1049 -2.3632
  864MOL0     H16620   7.247   6.317   9.648 -0.1344  1.2102 -3.1737
  864MOL0     H16621   7.218   6.517   9.481  0.3959 -0.1764 -1.1453
  864MOL0     H16622   6.843   6.859   9.308 -0.7772  1.8823 -1.6913
  864MOL0     H16623   6.854   7.055   9.175  1.0994 -1.2049 -0.2548
  864MOL0     H16624   8.525   7.895   9.139  0.9677 -0.1783  0.5314
  864MOL0     H16625   8.778   7.861   9.099  0.9750 -0.6856 -0.4826
  864MOL0     H16626   9.098   7.688   9.143 -1.5339 -0.0956 -0.7268
  864MOL0     H16627   9.342   7.666   9.210  0.5927 -0.6066 -0.8129
  864MOL0     H16628   9.578   7.363   9.018 -1.9727  2.1355  0.5552
  864MOL0     H16629   9.703   7.452   9.115 -0.3729  3.5357  0.6959
  864MOL0     H16630   9.593   7.614   8.903  1.3987  0.7428 -1.6762
  864MOL0     H16631   9.667   7.469   8.831  2.1196 -0.0744 -0.6424
  864MOL0     H16632   9.812   7.637   9.051  1.1312 -0.7045 -0.0436
  864MOL0     H16633   9.808   7.683   8.882  1.3833  2.5070  3.3516
  864MOL0     H16634   9.903   7.417   8.964 -0.9896  0.4861  0.6619
  864MOL0     H16635   9.906   7.489   8.798 -1.9698  0.5682  0.3874
  864MOL0     H16636  10.217   7.711   9.001 -0.5916 -0.2997  4.1734
  864MOL0     H16637   9.398   7.386   8.899  1.5231  3.3618 -2.0961
  864MOL0     H16638   9.057   7.315   8.842  0.3314  0.3231  0.9049
  864MOL0     H16639   9.116   7.426   8.718 -0.1349 -1.0263 -1.0392
  864MOL0     H16640   9.228   7.310   8.771 -0.4874 -0.8073 -0.5735
  865MOL0     O16641   1.211   2.521   7.900 -0.5312  0.0045  0.9982
  865MOL0     C16642   1.271   2.508   8.005  0.0592  0.2976 -0.1774
  865MOL0     O16643   1.238   2.420   8.111 -0.1410 -0.4248  0.1379
  865MOL0     C16644   1.158   2.313   8.080  0.9901  0.0525 -0.4213
  865MOL0     C16645   1.198   2.209   7.996 -0.4454 -0.2959 -0.0650
  865MOL0     C16646   1.109   2.109   7.968  0.3087  0.4337  0.0566
  865MOL0     C16647   0.980   2.105   8.028 -0.1245 -0.3359  0.4513
  865MOL0     O16648   0.886   2.013   7.982 -0.1179 -0.3510 -0.5099
  865MOL0     C16649   0.840   1.925   8.082  0.6447 -0.1380  0.0080
  865MOL0     C16650   0.727   1.831   8.032  0.7809 -0.4801  0.9292
  865MOL0     C16651   0.779   1.743   7.921  0.2277 -0.4858  0.2299
  865MOL0     C16652   0.663   1.669   7.862 -0.6870 -0.2069 -0.8907
  865MOL0     C16653   0.701   1.579   7.743  0.3032 -0.0745  0.4813
  865MOL0     C16654   0.807   1.480   7.782 -0.1297  0.6501 -0.3243
  865MOL0     C16655   0.819   1.359   7.692 -0.8796  0.4106 -0.1974
  865MOL0     C16656   0.857   1.239   7.786 -0.1487  0.5723  0.9769
  865MOL0     N16657   0.988   1.261   7.855  0.2074  0.3295 -0.2260
  865MOL0     C16658   1.112   1.272   7.796 -0.4500 -0.0771 -0.0270
  865MOL0     C16659   1.198   1.267   7.895 -0.5424 -0.0813  1.4439
  865MOL0     C16660   1.336   1.291   7.851  1.0324 -0.0389 -0.4094
  865MOL0     C16661   1.438   1.245   7.966  0.6820 -0.3026  0.4774
  865MOL0     C16662   1.490   1.364   8.035  0.8134 -0.6902 -0.9537
  865MOL0     C16663   1.536   1.338   8.180 -0.4877 -0.5437 -0.0310
  865MOL0     O16664   1.516   1.456   8.265 -0.0448  0.2359  0.2778
  865MOL0     C16665   1.573   1.444   8.387 -0.0371  0.7334 -0.7455
  865MOL0     C16666   1.626   1.328   8.454  0.3381  0.0874  0.8094
  865MOL0     C16667   1.654   1.328   8.591  0.0008 -0.5710  1.1130
  865MOL0     C16668   1.651   1.450   8.662 -0.3288 -0.0379  0.4563
  865MOL0     C16669   1.706   1.455   8.797  0.8327 -0.7410 -0.4605
  865MOL0     O16670   1.753   1.345   8.857 -0.5150 -0.9784 -0.1179
  865MOL0     C16671   1.799   1.365   8.992 -0.2542  1.0376  0.1911
  865MOL0     C16672   1.710   1.335   9.106  0.2590 -0.3335  0.3484
  865MOL0     C16673   1.759   1.326   9.229 -1.1264 -0.1745  0.0685
  865MOL0     C16674   1.895   1.341   9.262 -0.0293  0.2136  0.9072
  865MOL0     O16675   1.911   1.319   9.400 -0.5637 -0.7717 -0.3545
  865MOL0     C16676   2.049   1.305   9.450 -0.1663 -0.5907  0.5496
  865MOL0     C16677   2.051   1.201   9.559  0.1642  0.3736  0.5647
  865MOL0     C16678   2.004   1.265   9.687  0.7334  0.0229  0.8110
  865MOL0     C16679   2.099   1.371   9.754 -1.1207  0.6546 -0.1162
  865MOL0     C16680   2.084   1.371   9.911 -0.2722 -0.5978 -0.5512
  865MOL0     C16681   1.948   1.400   9.967  0.4369 -0.3903 -0.3609
  865MOL0     C16682   1.850   1.278   9.982  0.1719 -0.2633  0.2854
  865MOL0     C16683   1.703   1.308   9.951 -0.4550 -0.1303 -0.3647
  865MOL0    Cl16684   1.669   1.356   9.788  0.4342  0.6978  0.5516
  865MOL0     C16685   1.987   1.360   9.162  0.0540 -1.1542 -0.3774
  865MOL0     C16686   1.941   1.380   9.027  0.8424  1.0627  0.0477
  865MOL0     O16687   1.697   1.570   8.852 -0.8719  0.4202 -0.6573
  865MOL0     C16688   1.602   1.568   8.595  0.6689 -0.2848  0.4804
  865MOL0     C16689   1.561   1.555   8.467 -0.2020  0.8126  0.3258
  865MOL0     N16690   1.139   1.247   8.014 -0.1754  0.0653  0.2310
  865MOL0     N16691   1.017   1.239   7.982 -0.1055  0.6398  0.4159
  865MOL0     C16692   0.938   2.207   8.110 -0.8517 -0.6923 -0.5616
  865MOL0     C16693   1.028   2.316   8.137  0.8149  0.1563  0.3857
  865MOL0     C16694   1.396   2.593   8.025 -0.3802  0.5348  0.8256
  865MOL0     C16695   1.458   2.582   8.150 -0.7334  0.0323  0.6053
  865MOL0     C16696   1.575   2.651   8.166 -0.4049 -0.5688  0.2829
  865MOL0     C16697   1.633   2.745   8.079  0.3740 -0.6055  0.5487
  865MOL0     O16698   1.749   2.818   8.095 -0.0278  0.7783 -0.2931
  865MOL0     C16699   1.844   2.763   8.186 -0.0168  0.6866 -0.7835
  865MOL0     C16700   1.919   2.638   8.137 -0.5336  1.0117  0.1028
  865MOL0     C16701   1.928   2.619   7.987  0.6041 -0.3897 -0.3233
  865MOL0     C16702   2.008   2.499   7.941  0.8891 -0.0308 -0.0927
  865MOL0     C16703   1.954   2.364   7.973 -0.7907 -0.2562  1.2314
  865MOL0     C16704   1.930   2.255   7.997  0.4316 -0.2134  0.1507
  865MOL0     C16705   1.569   2.746   7.950  0.4672 -0.3269 -0.1366
  865MOL0     C16706   1.455   2.675   7.924 -0.0463  0.5113  0.7667
  865MOL0     C16707   1.395   2.670   7.780  0.6060 -0.3305  0.5092
  865MOL0     H16708   1.296   2.206   7.950 -0.1847 -4.2159  0.4471
  865MOL0     H16709   1.121   2.032   7.893  0.2177  0.8732 -0.4127
  865MOL0     H16710   0.923   1.866   8.122  0.1714  0.1526  1.4983
  865MOL0     H16711   0.791   2.001   8.144 -2.3478  2.0843 -4.5396
  865MOL0     H16712   0.641   1.881   7.988  1.1017 -0.8424 -0.1583
  865MOL0     H16713   0.697   1.768   8.116 -0.8663  1.4155  1.8300
  865MOL0     H16714   0.837   1.660   7.963  0.6182 -0.9057 -1.0956
  865MOL0     H16715   0.836   1.794   7.842 -2.8757  3.2613  0.0895
  865MOL0     H16716   0.616   1.605   7.937 -1.7160  1.5896  0.0365
  865MOL0     H16717   0.585   1.733   7.820 -1.3473 -0.3778  0.0432
  865MOL0     H16718   0.610   1.528   7.710 -0.5016  2.5150 -1.6636
  865MOL0     H16719   0.727   1.635   7.652 -3.3098 -0.9485 -1.2698
  865MOL0     H16720   0.899   1.538   7.792 -0.7773  1.5854  0.4986
  865MOL0     H16721   0.776   1.448   7.882  1.3972 -1.1773 -0.3910
  865MOL0     H16722   0.900   1.392   7.626 -1.2532 -0.5712 -1.1691
  865MOL0     H16723   0.730   1.334   7.634 -1.6998 -2.7197  2.1269
  865MOL0     H16724   0.780   1.223   7.862 -1.2634 -0.7401 -0.3625
  865MOL0     H16725   0.865   1.148   7.726  1.1115  0.5078  1.2131
  865MOL0     H16726   1.135   1.301   7.694  2.3758  0.2280  0.6281
  865MOL0     H16727   1.357   1.233   7.760  2.0157 -0.8189  0.2876
  865MOL0     H16728   1.350   1.398   7.833  0.5379  0.6698  2.8520
  865MOL0     H16729   1.390   1.176   8.037  0.0584  1.1650  1.5166
  865MOL0     H16730   1.527   1.192   7.929  0.9846 -1.8463  3.1763
  865MOL0     H16731   1.422   1.449   8.034  2.0502  0.3576 -0.0329
  865MOL0     H16732   1.577   1.407   7.984 -0.6467 -0.0201 -2.9913
  865MOL0     H16733   1.643   1.313   8.178 -0.4440 -0.3187 -2.2521
  865MOL0     H16734   1.472   1.258   8.220 -0.9913 -0.4869 -0.7050
  865MOL0     H16735   1.633   1.236   8.398 -1.3868  0.4624 -0.1071
  865MOL0     H16736   1.687   1.235   8.637  0.9979 -1.4292 -1.1941
  865MOL0     H16737   1.608   1.311   9.075  0.4181 -2.4052  1.2475
  865MOL0     H16738   1.686   1.311   9.308 -2.1511  3.6695  0.0595
  865MOL0     H16739   2.121   1.277   9.372  2.3781 -0.6062  2.7596
  865MOL0     H16740   2.094   1.401   9.478  2.0334 -1.7103  1.1616
  865MOL0     H16741   1.979   1.127   9.523 -0.5792  1.1161  0.5178
  865MOL0     H16742   2.150   1.156   9.574 -0.6942 -0.9092  2.8990
  865MOL0     H16743   1.912   1.319   9.664  1.7283  1.2010 -0.5227
  865MOL0     H16744   1.977   1.175   9.744  0.3260 -1.5482 -1.7421
  865MOL0     H16745   2.075   1.474   9.725 -2.3955  1.4388  3.3302
  865MOL0     H16746   2.199   1.337   9.723 -2.5191 -2.0924 -1.9854
  865MOL0     H16747   2.152   1.449   9.946 -2.2742  2.1110 -2.3173
  865MOL0     H16748   2.110   1.277   9.961 -4.4485 -1.1286  1.0298
  865MOL0     H16749   1.954   1.458  10.059  1.0442  0.7861 -1.1212
  865MOL0     H16750   1.902   1.468   9.894 -0.5073  0.4777  1.0063
  865MOL0     H16751   1.852   1.244  10.086  1.2190  0.7941  0.6352
  865MOL0     H16752   1.884   1.197   9.917  0.1665  2.3130 -3.2402
  865MOL0     H16753   1.658   1.210   9.971  2.9200 -1.6810  0.2430
  865MOL0     H16754   1.673   1.380  10.028  2.2903 -2.1460  2.8552
  865MOL0     H16755   2.090   1.371   9.193 -0.1414 -0.6879  0.1169
  865MOL0     H16756   2.006   1.399   8.942  0.6130 -1.8881 -0.8953
  865MOL0     H16757   1.590   1.661   8.649  2.1034  2.4736 -3.4741
  865MOL0     H16758   1.538   1.649   8.419  2.9422  0.2989 -2.6076
  865MOL0     H16759   0.832   2.208   8.133 -1.1342  0.8987 -1.7181
  865MOL0     H16760   1.006   2.404   8.198 -0.8808  0.5670 -0.7613
  865MOL0     H16761   1.428   2.520   8.233  0.2041  0.9540  1.6726
  865MOL0     H16762   1.609   2.649   8.269 -0.6251  1.4362  0.4275
  865MOL0     H16763   1.798   2.741   8.282  2.1110  0.0203  0.1490
  865MOL0     H16764   1.912   2.846   8.208  2.0614 -0.5193 -2.2522
  865MOL0     H16765   1.870   2.551   8.184  1.4377  0.1537  0.6747
  865MOL0     H16766   2.017   2.626   8.183 -1.3067  1.6098  1.9965
  865MOL0     H16767   1.977   2.701   7.933 -1.0905  0.8098 -0.1132
  865MOL0     H16768   1.829   2.605   7.943  0.7923 -1.6128 -0.3945
  865MOL0     H16769   1.994   2.518   7.834 -3.7562  1.2914  0.5072
  865MOL0     H16770   2.113   2.515   7.964  0.2982  4.8129  0.3161
  865MOL0     H16771   1.908   2.152   8.015 -0.4302  0.0584  0.7271
  865MOL0     H16772   1.621   2.801   7.872  0.5121  1.9442  1.3988
  865MOL0     H16773   1.291   2.704   7.773  0.4055 -1.2970 -2.2091
  865MOL0     H16774   1.452   2.734   7.713 -0.3272 -0.2602 -0.2304
  865MOL0     H16775   1.394   2.572   7.732  3.6271  0.0635 -0.5366
  866MOL0     O16776   8.994  10.452   3.927 -0.4319  0.3034  0.5972
  866MOL0     C16777   8.972  10.397   3.820  0.8547  0.7072  0.2681
  866MOL0     O16778   8.880  10.434   3.731 -0.4319  0.4213  0.0183
  866MOL0     C16779   8.852  10.564   3.727  0.6491 -0.3660 -0.3399
  866MOL0     C16780   8.742  10.625   3.803 -0.0998  1.0467 -0.0237
  866MOL0     C16781   8.710  10.757   3.785  0.0626 -1.4162  1.0168
  866MOL0     C16782   8.801  10.838   3.711 -0.7727 -0.0428 -0.6509
  866MOL0     O16783   8.770  10.974   3.708 -0.4455  0.8756  0.5791
  866MOL0     C16784   8.869  11.063   3.649  0.0939  0.0518 -0.4677
  866MOL0     C16785   8.821  11.213   3.666  0.4317  0.5574  0.1151
  866MOL0     C16786   8.919  11.299   3.588  0.6390  0.6980 -0.2974
  866MOL0     C16787   8.920  11.445   3.635  0.0286 -0.6962  0.4255
  866MOL0     C16788   8.953  11.552   3.516 -0.1952 -0.2799 -0.1193
  866MOL0     C16789   9.087  11.526   3.436  0.0034 -0.1369 -0.0540
  866MOL0     C16790   9.135  11.651   3.367  0.0370 -0.0689  1.3984
  866MOL0     C16791   9.129  11.634   3.217  0.6912 -0.4305  1.0430
  866MOL0     N16792   9.219  11.530   3.171 -0.4949  1.3207  0.8214
  866MOL0     C16793   9.185  11.421   3.098 -0.8084  0.2251 -0.1385
  866MOL0     C16794   9.312  11.368   3.062  0.2703 -0.2855  0.8852
  866MOL0     C16795   9.312  11.256   2.957 -0.0410 -1.4286 -0.4197
  866MOL0     C16796   9.454  11.195   2.940  0.3617  0.0272  0.6639
  866MOL0     C16797   9.451  11.079   2.836  0.9699  0.6217 -0.7953
  866MOL0     C16798   9.583  11.058   2.765 -0.3916 -0.5996 -1.0609
  866MOL0     O16799   9.591  10.934   2.695  0.0191  0.2442  0.0564
  866MOL0     C16800   9.662  10.947   2.571  0.0030 -0.3264 -0.7973
  866MOL0     C16801   9.770  11.036   2.570  0.0165 -0.7065  0.5108
  866MOL0     C16802   9.867  11.040   2.468  0.6899 -0.2370 -0.5977
  866MOL0     C16803   9.844  10.976   2.350  0.0431 -0.0620 -0.4491
  866MOL0     C16804   9.940  11.003   2.230 -0.7558  0.5891  0.4903
  866MOL0     O16805  10.057  11.071   2.261  0.6076  0.1986 -0.5368
  866MOL0     C16806  10.139  11.103   2.153 -0.9130 -0.7477 -0.0599
  866MOL0     C16807  10.242  11.005   2.115 -0.4692 -0.6747 -0.1563
  866MOL0     C16808  10.310  11.028   1.998  1.0523 -0.6679 -0.1189
  866MOL0     C16809  10.299  11.146   1.915  0.8810 -0.4024  0.6734
  866MOL0     O16810  10.376  11.160   1.800  1.2001 -0.2228 -0.3124
  866MOL0     C16811  10.343  11.275   1.716 -0.8165  0.1022  0.4535
  866MOL0     C16812  10.440  11.266   1.592 -0.7825  0.2699  0.4943
  866MOL0     C16813  10.450  11.393   1.507  0.0154  0.2715  0.6411
  866MOL0     C16814  10.538  11.376   1.374 -1.1172 -0.8455 -0.4411
  866MOL0     C16815  10.470  11.329   1.252 -0.3394  0.3464 -1.0912
  866MOL0     C16816  10.367  11.428   1.185 -0.4291  0.6456 -0.2345
  866MOL0     C16817  10.347  11.383   1.036 -0.2519  0.2691  0.6822
  866MOL0     C16818  10.207  11.411   0.996  0.1744  1.0497 -0.3162
  866MOL0    Cl16819  10.187  11.569   0.909 -0.0419  0.3185  0.4423
  866MOL0     C16820  10.213  11.246   1.965  0.1984  0.0358  0.4012
  866MOL0     C16821  10.136  11.229   2.077  0.3745  0.3322 -0.7672
  866MOL0     O16822   9.916  10.954   2.123 -0.1216 -0.8684  0.5126
  866MOL0     C16823   9.743  10.879   2.349  0.3944  0.7094 -0.9581
  866MOL0     C16824   9.652  10.865   2.463  0.5201  0.7160 -0.4388
  866MOL0     N16825   9.409  11.433   3.134  0.2196  0.0611  0.0821
  866MOL0     N16826   9.355  11.536   3.198 -0.1150  0.8647 -1.3987
  866MOL0     C16827   8.913  10.783   3.649 -0.6994  0.2073  0.0230
  866MOL0     C16828   8.932  10.646   3.658 -0.7367 -0.6989  0.6405
  866MOL0     C16829   9.029  10.269   3.773  0.0618  0.0825  0.7095
  866MOL0     C16830   9.050  10.259   3.631  0.4526 -0.2381 -0.3288
  866MOL0     C16831   9.106  10.146   3.576 -0.1792 -0.0985 -0.6647
  866MOL0     C16832   9.142  10.043   3.661 -0.6777  0.0921 -0.4763
  866MOL0     O16833   9.194   9.922   3.618  0.5393  0.1193 -0.0817
  866MOL0     C16834   9.323   9.937   3.565 -0.5048 -1.3146 -0.5083
  866MOL0     C16835   9.427   9.871   3.647 -0.6899 -0.2515  0.6396
  866MOL0     C16836   9.391   9.728   3.676 -0.0340 -0.1424  0.7329
  866MOL0     C16837   9.473   9.672   3.793  0.1032 -0.8070 -0.3654
  866MOL0     C16838   9.408   9.707   3.917 -1.3349  0.4815 -0.5502
  866MOL0     C16839   9.341   9.728   4.007 -0.4290 -0.8673 -0.0855
  866MOL0     C16840   9.144  10.053   3.795  0.0466 -0.8166 -0.4228
  866MOL0     C16841   9.078  10.170   3.853  0.1452  0.4469  0.3777
  866MOL0     C16842   9.066  10.161   4.003  0.5066  0.0331 -0.7235
  866MOL0     H16843   8.691  10.578   3.886  2.1183 -0.8709  0.3574
  866MOL0     H16844   8.637  10.811   3.845  1.7014  4.1692 -1.3399
  866MOL0     H16845   8.965  11.048   3.699 -0.6710  0.6038  1.2539
  866MOL0     H16846   8.881  11.052   3.541  1.2778  0.7669 -0.4288
  866MOL0     H16847   8.817  11.248   3.769 -1.0787  0.0895  0.2443
  866MOL0     H16848   8.719  11.219   3.626  0.4000 -2.4110 -0.5051
  866MOL0     H16849   8.884  11.294   3.484 -1.5361 -3.6530  0.3859
  866MOL0     H16850   9.019  11.255   3.582  0.0544 -0.6023 -0.8786
  866MOL0     H16851   8.829  11.469   3.692  1.1816  2.1199  1.2684
  866MOL0     H16852   8.998  11.461   3.709 -0.7230  0.2749  1.0359
  866MOL0     H16853   8.872  11.547   3.442  0.2278 -3.7920 -0.5226
  866MOL0     H16854   8.954  11.652   3.558 -3.2684 -0.7622  1.4306
  866MOL0     H16855   9.168  11.488   3.500  1.4789  0.6232 -1.3838
  866MOL0     H16856   9.060  11.446   3.365 -1.0320  2.8730 -3.3197
  866MOL0     H16857   9.237  11.683   3.387  0.7499  0.2344 -2.0964
  866MOL0     H16858   9.083  11.745   3.387  0.2663  0.3069  0.3089
  866MOL0     H16859   9.025  11.615   3.189  1.1923 -1.0117 -0.5524
  866MOL0     H16860   9.162  11.722   3.160  2.2652 -1.6980 -0.1073
  866MOL0     H16861   9.084  11.398   3.068 -0.4641 -1.6085 -0.0123
  866MOL0     H16862   9.244  11.178   2.994  1.3256 -1.6092  1.9021
  866MOL0     H16863   9.280  11.290   2.858  1.7122 -2.0252 -1.2415
  866MOL0     H16864   9.521  11.269   2.896 -0.9030 -0.3991 -2.2546
  866MOL0     H16865   9.500  11.171   3.036 -3.2205 -4.7814  1.6006
  866MOL0     H16866   9.375  11.100   2.761 -3.0194 -1.0330  2.4177
  866MOL0     H16867   9.421  10.987   2.887  1.4668 -0.2726 -2.0479
  866MOL0     H16868   9.656  11.067   2.846 -1.2517 -0.5309 -0.2739
  866MOL0     H16869   9.588  11.142   2.694  0.4281 -0.1409 -0.4825
  866MOL0     H16870   9.806  11.103   2.648  3.0260 -0.5130 -0.8879
  866MOL0     H16871   9.951  11.105   2.491  0.2023 -0.4987  2.2510
  866MOL0     H16872  10.251  10.912   2.170 -3.4272  1.6130  4.9452
  866MOL0     H16873  10.368  10.946   1.956 -1.6153 -3.9452  2.1214
  866MOL0     H16874  10.237  11.290   1.696 -0.9001  1.0850  1.5161
  866MOL0     H16875  10.363  11.373   1.761  1.7850 -0.1247 -0.0535
  866MOL0     H16876  10.542  11.235   1.616 -1.3469 -1.3850  0.8995
  866MOL0     H16877  10.397  11.189   1.528  1.4251  0.5512 -1.4650
  866MOL0     H16878  10.350  11.420   1.472  0.6078  0.0234 -1.3729
  866MOL0     H16879  10.495  11.471   1.569 -0.3970 -1.9614  4.0198
  866MOL0     H16880  10.621  11.306   1.392  2.8446  3.3219 -0.6853
  866MOL0     H16881  10.587  11.473   1.362 -3.2781  0.1601 -1.6756
  866MOL0     H16882  10.419  11.235   1.274  0.3461  0.2871  0.3964
  866MOL0     H16883  10.547  11.299   1.180  3.2201  3.3340  1.0916
  866MOL0     H16884  10.272  11.428   1.240  0.5742  1.6723  1.5973
  866MOL0     H16885  10.408  11.529   1.195 -0.2260  0.6785 -1.3340
  866MOL0     H16886  10.363  11.275   1.027  0.1013 -0.0563  4.0118
  866MOL0     H16887  10.420  11.431   0.971  1.0782 -0.0323  1.9119
  866MOL0     H16888  10.194  11.333   0.920  2.7374 -1.0499  1.2273
  866MOL0     H16889  10.139  11.401   1.081 -0.9758  0.5699 -1.2603
  866MOL0     H16890  10.208  11.346   1.925 -0.6580 -0.6957 -1.4458
  866MOL0     H16891  10.081  11.311   2.122 -0.6508 -1.1255  0.7739
  866MOL0     H16892   9.734  10.807   2.269 -0.2939 -4.1789  2.9931
  866MOL0     H16893   9.586  10.778   2.463  1.7987 -0.3417 -2.9392
  866MOL0     H16894   8.992  10.842   3.603  0.6958 -0.2856  1.6858
  866MOL0     H16895   9.003  10.603   3.588  0.9952  3.2555 -0.3191
  866MOL0     H16896   9.033  10.345   3.568  2.1433  0.9725  0.7723
  866MOL0     H16897   9.119  10.144   3.468  1.3358 -0.6346 -0.5008
  866MOL0     H16898   9.368  10.035   3.549  0.3325 -1.7941 -1.2405
  866MOL0     H16899   9.313   9.903   3.462  1.4203  1.4469 -1.7246
  866MOL0     H16900   9.437   9.926   3.741  0.8755  0.5041  0.0674
  866MOL0     H16901   9.522   9.874   3.591 -1.2335 -1.3062 -0.3940
  866MOL0     H16902   9.412   9.670   3.586 -2.4377 -0.5817  0.3874
  866MOL0     H16903   9.285   9.720   3.703  0.3875  1.3838  3.0471
  866MOL0     H16904   9.484   9.563   3.790 -1.3123 -1.0838  2.0674
  866MOL0     H16905   9.568   9.724   3.808 -0.2197 -0.2597 -0.2223
  866MOL0     H16906   9.292   9.754   4.099  2.2518 -0.1067  1.2604
  866MOL0     H16907   9.180   9.980   3.867  1.3691  0.7218  0.5476
  866MOL0     H16908   8.964  10.155   4.041  0.6484 -2.6432 -0.5883
  866MOL0     H16909   9.126  10.084   4.052 -1.0731 -1.4600 -1.0291
  866MOL0     H16910   9.104  10.252   4.052  0.3016 -0.5437  0.5234
  867MOL0     O16911   7.131   3.424   1.727  0.3400 -0.3905  0.1546
  867MOL0     C16912   7.014   3.426   1.729  1.0084 -0.3779  0.4299
  867MOL0     O16913   6.941   3.477   1.829  0.4023  0.1655  0.2704
  867MOL0     C16914   6.990   3.561   1.917 -0.6337  0.2367 -1.0623
  867MOL0     C16915   6.970   3.528   2.058  0.9844  0.2469  0.5862
  867MOL0     C16916   7.003   3.621   2.156 -0.5715  0.6139 -0.2775
  867MOL0     C16917   7.063   3.735   2.118  0.5328  0.3567 -0.0651
  867MOL0     O16918   7.092   3.832   2.214 -0.2208  0.3941 -0.4233
  867MOL0     C16919   7.000   3.938   2.226 -0.2179 -0.7662  0.2362
  867MOL0     C16920   7.047   4.018   2.349  1.0856 -0.6118  0.6090
  867MOL0     C16921   7.085   4.164   2.304 -0.2119 -0.7869  0.0208
  867MOL0     C16922   7.115   4.253   2.429 -0.0914  0.0232 -0.2137
  867MOL0     C16923   7.153   4.389   2.375 -0.0524  0.4381  0.3654
  867MOL0     C16924   7.211   4.488   2.473 -0.3036 -0.4956 -0.4185
  867MOL0     C16925   7.339   4.435   2.542  0.6852 -0.1047 -0.4772
  867MOL0     C16926   7.450   4.396   2.447 -1.0807 -0.1461 -0.0111
  867MOL0     N16927   7.500   4.490   2.358 -0.4625 -0.9331 -0.2780
  867MOL0     C16928   7.473   4.490   2.226 -0.6994  0.3622 -0.8558
  867MOL0     C16929   7.552   4.591   2.178 -0.7387  0.6168  0.6253
  867MOL0     C16930   7.563   4.623   2.028  0.9682  0.4856 -0.2500
  867MOL0     C16931   7.478   4.525   1.934 -0.5856 -0.8380 -0.4816
  867MOL0     C16932   7.525   4.561   1.793 -0.0046 -0.6649 -0.2720
  867MOL0     C16933   7.464   4.474   1.679 -0.8971  0.7689 -1.2554
  867MOL0     O16934   7.327   4.498   1.669 -0.0356  0.3897  0.4783
  867MOL0     C16935   7.284   4.484   1.535  0.8894 -0.4386 -0.5948
  867MOL0     C16936   7.336   4.384   1.463  0.2776 -0.0561  0.4723
  867MOL0     C16937   7.303   4.364   1.331 -0.5390 -1.5564  0.2593
  867MOL0     C16938   7.211   4.451   1.268 -0.0678 -0.3356 -0.1627
  867MOL0     C16939   7.170   4.446   1.126  1.3109 -1.1175 -0.9138
  867MOL0     O16940   7.064   4.515   1.085  0.0008 -0.2283 -0.9627
  867MOL0     C16941   7.044   4.538   0.946 -0.0429  0.4281  1.0926
  867MOL0     C16942   7.078   4.449   0.839  0.1962 -0.1078  0.6003
  867MOL0     C16943   7.023   4.479   0.706 -0.4150  0.1430  0.7512
  867MOL0     C16944   6.956   4.596   0.680  0.5350 -0.4416 -0.0880
  867MOL0     O16945   6.940   4.637   0.546 -0.3230  0.5942 -0.5241
  867MOL0     C16946   6.941   4.546   0.432 -0.5546  0.8887 -0.0736
  867MOL0     C16947   6.881   4.619   0.309 -0.2040  0.0924  0.1049
  867MOL0     C16948   6.757   4.713   0.336  0.0781  0.0311  1.3676
  867MOL0     C16949   6.743   4.831   0.223 -0.7171  1.3337  0.1962
  867MOL0     C16950   6.616   4.920   0.256  0.6339  0.5865 -0.3099
  867MOL0     C16951   6.609   5.051   0.189  0.1696 -0.3193  0.6360
  867MOL0     C16952   6.473   5.117   0.221 -0.0140 -0.4202 -0.9956
  867MOL0     C16953   6.460   5.248   0.151 -0.0252 -0.6849  0.3309
  867MOL0    Cl16954   6.598   5.353   0.208 -0.2363 -0.0661 -0.1577
  867MOL0     C16955   6.930   4.684   0.790  0.2085 -0.2013 -0.8679
  867MOL0     C16956   6.973   4.652   0.918 -0.8005  0.2469  0.0764
  867MOL0     O16957   7.258   4.396   1.059 -0.5086 -0.2491 -0.0167
  867MOL0     C16958   7.176   4.564   1.344  0.7085 -0.4079  0.0875
  867MOL0     C16959   7.200   4.579   1.477 -0.0782 -0.2772  0.1693
  867MOL0     N16960   7.623   4.654   2.283  0.9561 -0.5609 -0.0239
  867MOL0     N16961   7.591   4.588   2.396 -1.1383 -0.4002  0.2059
  867MOL0     C16962   7.092   3.770   1.991  0.3013  0.4379 -0.4897
  867MOL0     C16963   7.066   3.678   1.892  0.5840 -0.3067 -0.4428
  867MOL0     C16964   6.934   3.352   1.621  0.1903 -0.8657  0.5230
  867MOL0     C16965   6.797   3.346   1.631 -0.9352  0.3905 -0.2841
  867MOL0     C16966   6.714   3.287   1.542 -0.4769  0.3921  0.6380
  867MOL0     C16967   6.772   3.222   1.434 -0.3376 -0.3843 -0.0855
  867MOL0     O16968   6.680   3.169   1.345 -0.5984  0.0660 -0.2006
  867MOL0     C16969   6.730   3.115   1.223 -0.3482  0.3460 -0.1575
  867MOL0     C16970   6.605   3.070   1.147  0.8025  0.0037 -1.0796
  867MOL0     C16971   6.620   3.023   0.999  0.7063  0.5673  0.3842
  867MOL0     C16972   6.713   3.107   0.910 -1.2675 -0.4269 -0.2694
  867MOL0     C16973   6.661   3.246   0.899  0.5401 -0.1624  0.3901
  867MOL0     C16974   6.583   3.340   0.900  0.2007 -0.6743  0.3522
  867MOL0     C16975   6.910   3.229   1.421 -0.3176 -0.3755  0.1309
  867MOL0     C16976   6.992   3.281   1.515  0.0591  0.3544 -0.8966
  867MOL0     C16977   7.142   3.266   1.499  0.6284  0.7933  0.0893
  867MOL0     H16978   6.919   3.436   2.082 -0.6919 -0.4698 -4.5554
  867MOL0     H16979   6.984   3.597   2.260  0.3739 -4.8776 -1.0722
  867MOL0     H16980   6.998   4.000   2.136 -3.9334 -2.9414 -1.4054
  867MOL0     H16981   6.897   3.906   2.242 -1.0556  0.7751 -1.6974
  867MOL0     H16982   7.135   3.982   2.403  1.0485 -0.8832  0.4927
  867MOL0     H16983   6.962   4.012   2.418 -1.6719 -0.1934 -2.5024
  867MOL0     H16984   6.999   4.209   2.256 -1.2578 -1.5398  1.1339
  867MOL0     H16985   7.168   4.170   2.232 -1.1543  0.7400 -0.9938
  867MOL0     H16986   7.043   4.255   2.511 -0.3765 -2.3654 -0.3246
  867MOL0     H16987   7.203   4.207   2.473  1.9524  0.2161 -3.7137
  867MOL0     H16988   7.214   4.379   2.285  0.2482  1.4731  0.4422
  867MOL0     H16989   7.068   4.450   2.341  1.2716  2.4456  0.4699
  867MOL0     H16990   7.244   4.575   2.416  0.8967 -1.0059 -0.5498
  867MOL0     H16991   7.138   4.509   2.552 -0.1349 -1.2872 -0.0375
  867MOL0     H16992   7.319   4.353   2.611  0.0867  0.6620  0.2901
  867MOL0     H16993   7.386   4.512   2.605 -0.0613  1.8146 -2.1773
  867MOL0     H16994   7.535   4.353   2.500  0.3987  0.2409 -1.9598
  867MOL0     H16995   7.419   4.311   2.385  0.9373 -1.5996  0.8689
  867MOL0     H16996   7.411   4.425   2.165  0.6801 -0.8015 -1.0753
  867MOL0     H16997   7.526   4.724   2.005  3.1420  1.4940  0.4173
  867MOL0     H16998   7.670   4.634   2.005  1.1067 -2.5587 -1.5201
  867MOL0     H16999   7.510   4.424   1.960  1.9157  0.7783  3.5703
  867MOL0     H17000   7.370   4.521   1.951 -0.5109 -1.2854 -0.1174
  867MOL0     H17001   7.634   4.560   1.786 -0.1232 -1.2271 -3.5286
  867MOL0     H17002   7.487   4.662   1.774 -5.5271 -2.4298 -0.3843
  867MOL0     H17003   7.475   4.373   1.719  0.9841  1.3472 -0.1843
  867MOL0     H17004   7.524   4.488   1.588  2.7278 -3.7103  0.0864
  867MOL0     H17005   7.412   4.312   1.493  1.0939  1.2503  1.6401
  867MOL0     H17006   7.359   4.298   1.265  1.5578  2.9051 -2.9721
  867MOL0     H17007   7.134   4.357   0.836 -2.3708 -1.7758 -2.8738
  867MOL0     H17008   7.083   4.431   0.629  0.8705 -1.0847  2.4421
  867MOL0     H17009   7.047   4.531   0.413 -0.2249  5.2988 -3.1449
  867MOL0     H17010   6.882   4.456   0.452  0.1375  0.2357 -0.9506
  867MOL0     H17011   6.959   4.690   0.280 -1.0921  0.6233 -1.0732
  867MOL0     H17012   6.866   4.539   0.236 -0.6478  0.9676 -0.7952
  867MOL0     H17013   6.668   4.651   0.323  0.6445 -0.4540 -0.6125
  867MOL0     H17014   6.772   4.756   0.435  1.6750  1.4576  0.5786
  867MOL0     H17015   6.735   4.779   0.127  0.3727 -2.8170  2.1280
  867MOL0     H17016   6.839   4.881   0.216  0.2199 -0.5373 -1.3857
  867MOL0     H17017   6.623   4.941   0.363 -1.3705  1.8196 -0.3707
  867MOL0     H17018   6.524   4.871   0.224 -0.9810  3.3268 -0.1326
  867MOL0     H17019   6.695   5.113   0.214 -1.1622  0.2309  4.5293
  867MOL0     H17020   6.616   5.036   0.081  0.0129  0.4646  0.5164
  867MOL0     H17021   6.463   5.142   0.327 -1.1800  0.2587 -1.2552
  867MOL0     H17022   6.390   5.060   0.179  0.6230 -1.7280 -0.5274
  867MOL0     H17023   6.452   5.228   0.044 -1.7824  1.6610 -0.0600
  867MOL0     H17024   6.365   5.293   0.181  1.0208  2.3866 -0.6406
  867MOL0     H17025   6.881   4.775   0.754  2.1236  1.1240 -0.2617
  867MOL0     H17026   6.951   4.720   0.999  3.8447  0.1369  1.6908
  867MOL0     H17027   7.124   4.647   1.298  0.4043  1.6854  3.7674
  867MOL0     H17028   7.161   4.661   1.536  2.6740 -0.5948  2.7090
  867MOL0     H17029   7.130   3.867   1.960 -1.0685  1.0911 -0.2229
  867MOL0     H17030   7.070   3.707   1.787  2.0359  0.8561 -0.0985
  867MOL0     H17031   6.735   3.392   1.708 -1.0699 -0.4283  0.1100
  867MOL0     H17032   6.606   3.292   1.531 -0.2921  4.0117 -1.1585
  867MOL0     H17033   6.799   3.031   1.233  0.9498  1.0915 -2.1846
  867MOL0     H17034   6.782   3.194   1.168 -0.4464 -0.5109 -1.5541
  867MOL0     H17035   6.537   3.156   1.149  2.7240  1.7287 -3.1028
  867MOL0     H17036   6.560   2.990   1.206 -3.8756  0.1114 -4.0004
  867MOL0     H17037   6.519   3.032   0.958  1.4853  2.3109 -1.2837
  867MOL0     H17038   6.659   2.921   0.998  0.3733  0.4468 -0.6461
  867MOL0     H17039   6.814   3.117   0.951 -1.6921 -0.4556  0.8044
  867MOL0     H17040   6.729   3.062   0.812 -0.7190 -0.1486 -0.3125
  867MOL0     H17041   6.507   3.414   0.883 -1.4493 -2.5075 -0.6760
  867MOL0     H17042   6.956   3.175   1.339 -0.1873 -4.0515  2.3924
  867MOL0     H17043   7.180   3.226   1.593 -2.0828 -3.9463 -0.4829
  867MOL0     H17044   7.170   3.210   1.409 -0.4245 -0.4808  0.5132
  867MOL0     H17045   7.185   3.366   1.489  4.1483 -0.7067 -1.1506
  868MOL0     O17046   6.990  10.415   3.809  0.0620  0.5665  0.0086
  868MOL0     C17047   7.079  10.331   3.797  0.2920 -0.1858 -0.0924
  868MOL0     O17048   7.202  10.355   3.757  0.4825  0.1480  0.0603
  868MOL0     C17049   7.251  10.486   3.763 -0.0914  0.6674  0.8196
  868MOL0     C17050   7.220  10.565   3.654 -0.5387 -1.2047  0.0343
  868MOL0     C17051   7.266  10.699   3.654  0.0653 -0.0003 -0.3872
  868MOL0     C17052   7.358  10.729   3.759  0.1936 -1.7526 -0.2378
  868MOL0     O17053   7.436  10.844   3.775 -0.1135  0.4498 -0.1356
  868MOL0     C17054   7.444  10.943   3.668 -1.1117  0.3274 -0.8077
  868MOL0     C17055   7.311  11.023   3.655  0.4460 -0.4223  0.6855
  868MOL0     C17056   7.250  11.065   3.785  0.1273  0.8449 -0.0626
  868MOL0     C17057   7.112  11.133   3.775  0.1807 -0.4598 -0.0261
  868MOL0     C17058   7.054  11.175   3.908 -0.7722  0.9213  0.5406
  868MOL0     C17059   7.100  11.314   3.934  0.2900 -0.6657 -0.8448
  868MOL0     C17060   7.032  11.371   4.055 -0.5543  0.7096 -0.1685
  868MOL0     C17061   7.112  11.490   4.089  0.0063  0.0098 -0.4518
  868MOL0     N17062   7.021  11.589   4.161  0.0836 -0.0986  0.3545
  868MOL0     C17063   6.933  11.564   4.258  0.3907 -0.8186 -0.6639
  868MOL0     C17064   6.894  11.687   4.294 -0.2252  0.6653  0.0023
  868MOL0     C17065   6.825  11.738   4.416  0.2152 -0.8668 -1.2959
  868MOL0     C17066   6.821  11.635   4.531 -0.8410 -0.0632  0.7504
  868MOL0     C17067   6.715  11.673   4.638 -0.5136 -0.6789 -0.0434
  868MOL0     C17068   6.748  11.806   4.698  0.5880 -1.2805 -0.5023
  868MOL0     O17069   6.885  11.790   4.747  0.3966  0.0333  0.1883
  868MOL0     C17070   6.935  11.877   4.844  0.6998  0.9354 -0.4950
  868MOL0     C17071   6.914  11.849   4.979  0.4815  0.8808 -0.1596
  868MOL0     C17072   6.952  11.929   5.084  0.3120 -0.6414 -0.6703
  868MOL0     C17073   7.012  12.055   5.050  0.4979  0.3309 -0.4019
  868MOL0     C17074   7.036  12.156   5.157 -0.7168  0.5896  0.5228
  868MOL0     O17075   7.039  12.109   5.289  0.4943  0.3490  1.1063
  868MOL0     C17076   7.045  12.199   5.388 -0.3888  0.0152 -0.2174
  868MOL0     C17077   7.133  12.160   5.483 -0.5126 -0.1338 -0.7169
  868MOL0     C17078   7.161  12.252   5.592 -0.9446  0.3190  0.1295
  868MOL0     C17079   7.091  12.373   5.604 -0.0750  0.5197  1.3664
  868MOL0     O17080   7.120  12.454   5.711  0.3130 -0.7809 -0.1005
  868MOL0     C17081   7.218  12.430   5.814  0.1440 -0.1472 -0.2553
  868MOL0     C17082   7.184  12.493   5.951 -0.3588 -1.4210 -0.6823
  868MOL0     C17083   7.294  12.449   6.060 -0.4577  0.0811  0.1587
  868MOL0     C17084   7.241  12.432   6.201  0.1372  0.5343 -0.2050
  868MOL0     C17085   7.356  12.397   6.303  0.1914  0.0617 -0.2122
  868MOL0     C17086   7.422  12.520   6.359  0.5619 -0.1333 -0.6676
  868MOL0     C17087   7.513  12.476   6.475 -0.2587 -0.0457 -0.0966
  868MOL0     C17088   7.652  12.425   6.433  0.5136  0.5357  0.5297
  868MOL0    Cl17089   7.652  12.253   6.379  0.1934  0.2542 -0.5245
  868MOL0     C17090   6.986  12.405   5.511 -1.1874  0.5155  0.1408
  868MOL0     C17091   6.970  12.315   5.402  0.0313 -0.4574 -1.1769
  868MOL0     O17092   7.049  12.272   5.122 -0.3735  0.3602 -0.8961
  868MOL0     C17093   7.029  12.083   4.915 -0.2937 -0.5881 -0.4365
  868MOL0     C17094   6.996  11.992   4.807  0.7821 -0.8742  0.3112
  868MOL0     N17095   6.956  11.782   4.217 -0.0666  0.4897 -0.0898
  868MOL0     N17096   7.033  11.717   4.135  0.4134 -0.8088  0.0107
  868MOL0     C17097   7.377  10.645   3.864 -1.0042 -0.1365  0.3921
  868MOL0     C17098   7.317  10.524   3.879  0.1329  0.1893  0.5161
  868MOL0     C17099   7.035  10.195   3.830 -0.2690 -0.7663 -0.2396
  868MOL0     C17100   7.110  10.086   3.778  0.0911  0.0293  0.2787
  868MOL0     C17101   7.073   9.954   3.812 -0.5248 -1.1698 -0.0749
  868MOL0     C17102   6.965   9.930   3.898  0.1632  0.2323  0.3726
  868MOL0     O17103   6.924   9.797   3.933 -0.0985 -0.1199  0.3703
  868MOL0     C17104   7.038   9.722   3.985  0.5032 -0.1187  0.4877
  868MOL0     C17105   7.072   9.763   4.133  0.7822  0.1208  0.0201
  868MOL0     C17106   6.962   9.712   4.232  0.7343  1.1773  0.2799
  868MOL0     C17107   6.954   9.768   4.373 -0.0467 -0.1303  0.2747
  868MOL0     C17108   7.082   9.759   4.440  0.8361  0.0890  0.0296
  868MOL0     C17109   7.189   9.725   4.480  0.0595  0.5535 -0.1899
  868MOL0     C17110   6.892  10.038   3.950  1.1311 -0.1687 -0.5744
  868MOL0     C17111   6.928  10.168   3.915  0.3778 -0.7523 -0.4806
  868MOL0     C17112   6.834  10.276   3.982  0.6819  0.3225 -0.7320
  868MOL0     H17113   7.169  10.536   3.563 -1.4764 -0.3989  0.2975
  868MOL0     H17114   7.240  10.771   3.577 -1.2944  3.5121  3.0063
  868MOL0     H17115   7.525  11.012   3.695 -0.2780 -0.7272 -0.5447
  868MOL0     H17116   7.484  10.889   3.582 -1.7590 -1.0996 -0.2323
  868MOL0     H17117   7.241  10.972   3.589  1.6002  2.0677 -2.7463
  868MOL0     H17118   7.341  11.110   3.596  3.6130 -2.0059 -0.2220
  868MOL0     H17119   7.316  11.136   3.835 -0.7188  0.3496  1.8858
  868MOL0     H17120   7.227  10.972   3.838  0.2686  1.8381  1.8088
  868MOL0     H17121   7.115  11.212   3.700  0.7687  1.6005  2.0731
  868MOL0     H17122   7.042  11.056   3.741  1.4962 -1.8702  0.3357
  868MOL0     H17123   6.946  11.173   3.895 -0.5720  1.5072 -1.6024
  868MOL0     H17124   7.090  11.108   3.986  1.2657  0.9095 -0.3333
  868MOL0     H17125   7.208  11.324   3.945  0.1944  2.8873 -1.7678
  868MOL0     H17126   7.076  11.378   3.848 -1.8422  1.6824  1.3029
  868MOL0     H17127   7.039  11.301   4.139 -1.2775 -0.6836 -1.2327
  868MOL0     H17128   6.932  11.411   4.033  0.3767  2.7967 -0.8628
  868MOL0     H17129   7.190  11.463   4.161 -0.1629  3.0556  1.0480
  868MOL0     H17130   7.146  11.540   3.998 -3.0720  3.8843  0.2348
  868MOL0     H17131   6.905  11.468   4.300 -3.5667  1.7557  3.5167
  868MOL0     H17132   6.875  11.827   4.457 -2.3653  1.4957 -2.9318
  868MOL0     H17133   6.725  11.767   4.383  0.1681 -0.0762 -0.5133
  868MOL0     H17134   6.790  11.535   4.502 -0.1979 -0.7208  2.2097
  868MOL0     H17135   6.925  11.627   4.565 -1.1464  0.5434  1.9115
  868MOL0     H17136   6.723  11.593   4.713  1.5801 -0.7758 -0.3044
  868MOL0     H17137   6.611  11.664   4.605 -0.7804 -0.2746  0.6650
  868MOL0     H17138   6.693  11.833   4.789  2.0329 -1.9088  0.6079
  868MOL0     H17139   6.727  11.883   4.623 -1.3154 -0.2402  1.0187
  868MOL0     H17140   6.856  11.759   5.000  0.8005  0.7874  0.3683
  868MOL0     H17141   6.949  11.897   5.188  1.9427  1.6019  0.1598
  868MOL0     H17142   7.198  12.074   5.476  0.7787  0.6301  1.1506
  868MOL0     H17143   7.240  12.222   5.660 -1.5167 -0.4151  0.5038
  868MOL0     H17144   7.227  12.324   5.837 -3.6279 -0.3660  0.7682
  868MOL0     H17145   7.316  12.459   5.773  0.8030 -2.2002 -0.2297
  868MOL0     H17146   7.177  12.602   5.941  3.1623 -0.8911  0.8992
  868MOL0     H17147   7.089  12.452   5.986 -0.3860 -2.5943 -2.0338
  868MOL0     H17148   7.339  12.354   6.027 -0.8588  0.7699 -2.5736
  868MOL0     H17149   7.365  12.532   6.058 -1.5291  1.2321  3.4513
  868MOL0     H17150   7.171  12.349   6.189  0.7081  0.0205 -0.0077
  868MOL0     H17151   7.185  12.512   6.251  1.6278  0.5477  1.5694
  868MOL0     H17152   7.437  12.344   6.252  0.1945  0.6613 -0.8446
  868MOL0     H17153   7.309  12.334   6.379  0.6742  0.5751  0.5183
  868MOL0     H17154   7.478  12.572   6.281  0.7838  0.6562  0.0066
  868MOL0     H17155   7.351  12.595   6.394 -0.5069 -1.0537 -0.7959
  868MOL0     H17156   7.464  12.403   6.540  0.1284  0.9401  1.3452
  868MOL0     H17157   7.512  12.564   6.540 -0.5892 -1.2902  1.6627
  868MOL0     H17158   7.689  12.491   6.354 -1.2811  1.0438  0.0907
  868MOL0     H17159   7.715  12.422   6.523 -0.6808 -0.2119  1.3698
  868MOL0     H17160   6.932  12.497   5.533  2.1991  2.5608  0.7355
  868MOL0     H17161   6.894  12.355   5.336 -1.4503  3.5543  2.4641
  868MOL0     H17162   7.065  12.182   4.891  2.1461 -1.7001 -1.7457
  868MOL0     H17163   7.016  12.013   4.702  1.8779 -1.3006  0.4308
  868MOL0     H17164   7.453  10.672   3.936 -1.0938 -1.2599  0.9268
  868MOL0     H17165   7.342  10.448   3.952  4.4844  1.2701  0.4236
  868MOL0     H17166   7.204  10.104   3.726 -1.3721 -0.5894 -2.8048
  868MOL0     H17167   7.145   9.876   3.790  1.5505  0.4071  0.7745
  868MOL0     H17168   7.128   9.733   3.924  0.2907 -0.2469  0.1421
  868MOL0     H17169   7.012   9.615   3.983 -3.2149  0.6297  1.1221
  868MOL0     H17170   7.093   9.869   4.150  1.2689  0.8950 -4.3588
  868MOL0     H17171   7.160   9.703   4.161 -0.5167 -2.4374 -1.0920
  868MOL0     H17172   6.965   9.604   4.241 -2.9154  0.5959 -2.7099
  868MOL0     H17173   6.862   9.726   4.190  0.6074  2.2438  0.8980
  868MOL0     H17174   6.926   9.873   4.363  1.2661  0.0097 -3.4873
  868MOL0     H17175   6.883   9.717   4.438  0.2943  0.8443  1.4496
  868MOL0     H17176   7.280   9.683   4.516 -0.2455  1.4078  1.6495
  868MOL0     H17177   6.813  10.021   4.022  2.9938 -1.4622  1.2946
  868MOL0     H17178   6.903  10.346   4.029  0.6602  1.1707 -1.9107
  868MOL0     H17179   6.760  10.325   3.919 -2.2208  1.7110  3.3466
  868MOL0     H17180   6.767  10.226   4.052  0.9647 -0.9684 -1.3457
  869MOL0     O17181   5.151   8.235   9.454  0.0355 -0.0237  0.4861
  869MOL0     C17182   5.033   8.261   9.427  0.3926  0.2408 -0.6126
  869MOL0     O17183   4.919   8.230   9.503  0.1121  0.4343 -0.4235
  869MOL0     C17184   4.922   8.137   9.603  0.6121 -0.8625 -0.5322
  869MOL0     C17185   4.884   8.186   9.730  0.7114  0.7125 -0.6452
  869MOL0     C17186   4.854   8.092   9.836 -0.0075 -0.5474  0.2899
  869MOL0     C17187   4.888   7.963   9.827  0.1370  0.3432  0.3983
  869MOL0     O17188   4.869   7.873   9.927  0.4868 -1.0016  0.0080
  869MOL0     C17189   4.785   7.903  10.045 -0.2036 -0.1277  0.3298
  869MOL0     C17190   4.868   7.969  10.156  0.2105  0.3836 -0.0955
  869MOL0     C17191   4.998   7.882  10.194 -0.8356  0.5604  0.0787
  869MOL0     C17192   4.969   7.762  10.276  0.4527  0.0134  0.1196
  869MOL0     C17193   5.101   7.699  10.320 -0.8703  0.6024  0.0753
  869MOL0     C17194   5.199   7.645  10.213 -0.1499 -0.8746 -0.7772
  869MOL0     C17195   5.310   7.561  10.272 -0.1446  0.3314 -0.3626
  869MOL0     C17196   5.409   7.645  10.354 -0.8200  0.1287 -0.5630
  869MOL0     N17197   5.543   7.593  10.376 -0.3480  0.3128 -0.1367
  869MOL0     C17198   5.655   7.662  10.316  0.2279  0.7416 -0.2409
  869MOL0     C17199   5.748   7.565  10.309 -0.2155 -0.1910  0.5764
  869MOL0     C17200   5.895   7.573  10.252  1.8722  0.2672 -0.0339
  869MOL0     C17201   5.982   7.471  10.322 -0.0688 -0.8809 -0.8928
  869MOL0     C17202   6.126   7.472  10.280 -0.7809  0.1014  0.7387
  869MOL0     C17203   6.215   7.380  10.355 -0.2715  0.0206 -1.6979
  869MOL0     O17204   6.360   7.412  10.348 -0.0681 -0.1557 -0.8093
  869MOL0     C17205   6.457   7.335  10.408 -0.1140 -0.5810  0.2437
  869MOL0     C17206   6.590   7.371  10.384 -0.9681  0.0759  0.0333
  869MOL0     C17207   6.695   7.294  10.439 -0.8097 -1.1115 -0.5251
  869MOL0     C17208   6.665   7.183  10.526  0.3924  0.2092  0.7668
  869MOL0     C17209   6.764   7.095  10.592 -0.2324 -0.4423 -0.2799
  869MOL0     O17210   6.725   7.016  10.699 -0.0204 -0.2123 -0.2078
  869MOL0     C17211   6.831   6.953  10.768  0.8946  0.7056  0.1250
  869MOL0     C17212   6.898   6.838  10.723  0.2542 -0.2609 -0.0908
  869MOL0     C17213   7.003   6.781  10.792  0.7794 -0.2898 -0.6417
  869MOL0     C17214   7.041   6.835  10.911  0.0229  0.2770  0.4614
  869MOL0     O17215   7.143   6.763  10.978 -0.2464  0.6252 -0.2472
  869MOL0     C17216   7.213   6.835  11.078  0.6537 -0.4826 -0.1964
  869MOL0     C17217   7.338   6.759  11.127 -0.5201  0.0541  0.2208
  869MOL0     C17218   7.449   6.755  11.021 -0.0188  1.1021  0.6185
  869MOL0     C17219   7.575   6.707  11.104 -0.0149  0.0963  0.1982
  869MOL0     C17220   7.705   6.714  11.014  0.5552  0.2443  0.6978
  869MOL0     C17221   7.814   6.625  11.069  0.2494  0.9639 -0.7345
  869MOL0     C17222   7.948   6.633  10.998 -0.2697 -0.0928  0.1337
  869MOL0     C17223   7.945   6.576  10.860 -1.0319 -0.0150 -0.5432
  869MOL0    Cl17224   7.945   6.395  10.871 -0.3089 -0.0109  0.2064
  869MOL0     C17225   6.981   6.946  10.959 -0.4845  0.1731  0.0354
  869MOL0     C17226   6.871   6.997  10.890 -0.2781 -0.1782  0.1323
  869MOL0     O17227   6.878   7.099  10.542 -0.2354  0.6263 -0.5604
  869MOL0     C17228   6.524   7.151  10.540  0.2980  0.1307  0.6601
  869MOL0     C17229   6.426   7.219  10.483  0.3310 -0.1723 -0.2213
  869MOL0     N17230   5.694   7.454  10.369  0.2190  1.3686 -0.6285
  869MOL0     N17231   5.573   7.469  10.412  0.4404 -0.1939  0.5115
  869MOL0     C17232   4.920   7.913   9.702 -0.9561 -0.0289 -0.5494
  869MOL0     C17233   4.937   8.001   9.588 -0.1379  0.3874 -0.1435
  869MOL0     C17234   5.000   8.319   9.286  0.8233  0.6023 -0.9871
  869MOL0     C17235   4.879   8.280   9.230  0.4387 -0.0992  0.2508
  869MOL0     C17236   4.828   8.332   9.110 -0.1469  0.6023  0.2549
  869MOL0     C17237   4.905   8.428   9.049 -0.4824  1.0898 -0.3910
  869MOL0     O17238   4.871   8.501   8.941 -0.3669  0.2510  0.3681
  869MOL0     C17239   4.737   8.503   8.893  0.1883 -0.1206  0.1554
  869MOL0     C17240   4.726   8.608   8.786  0.0343 -0.1803  1.0947
  869MOL0     C17241   4.701   8.751   8.842 -0.3428  0.4252  0.9422
  869MOL0     C17242   4.552   8.786   8.878 -0.4356  0.1431  0.0825
  869MOL0     C17243   4.539   8.925   8.940 -0.3091 -0.3340  0.4857
  869MOL0     C17244   4.539   9.041   8.980 -0.2807  0.5238 -0.6711
  869MOL0     C17245   5.030   8.466   9.103  0.4173 -0.4347 -0.1400
  869MOL0     C17246   5.079   8.406   9.216 -0.4664 -0.7667 -0.6733
  869MOL0     C17247   5.205   8.464   9.266 -0.3094 -0.4549  0.3684
  869MOL0     H17248   4.899   8.293   9.735  0.7031  0.7615 -1.6466
  869MOL0     H17249   4.811   8.138   9.925 -3.6864  3.2986 -3.0519
  869MOL0     H17250   4.699   7.963  10.012  0.4749 -1.1416 -3.9513
  869MOL0     H17251   4.752   7.809  10.089  1.2998  0.6166  3.2331
  869MOL0     H17252   4.797   7.966  10.240 -1.6294  0.1632 -1.5967
  869MOL0     H17253   4.896   8.074  10.143 -0.3617  0.4765 -0.5941
  869MOL0     H17254   5.055   7.945  10.263  0.5185 -2.1596  1.5832
  869MOL0     H17255   5.063   7.871  10.106 -0.3128  2.5063  0.1834
  869MOL0     H17256   4.913   7.779  10.368  0.1351 -0.7069  0.0620
  869MOL0     H17257   4.916   7.685  10.220  2.7012 -1.2550 -0.4192
  869MOL0     H17258   5.153   7.771  10.384  1.7453 -0.1025 -1.0925
  869MOL0     H17259   5.081   7.613  10.385 -2.0819  0.7593 -0.0714
  869MOL0     H17260   5.145   7.573  10.150  0.4706 -1.9396 -0.1306
  869MOL0     H17261   5.238   7.723  10.147 -2.9688  0.1568 -1.3655
  869MOL0     H17262   5.375   7.517  10.195  0.5632  1.0557 -0.1841
  869MOL0     H17263   5.269   7.479  10.332  0.7586 -0.3765 -0.6892
  869MOL0     H17264   5.419   7.740  10.300 -0.8216 -0.2238 -1.1938
  869MOL0     H17265   5.375   7.668  10.455 -1.0415 -1.7198 -0.1914
  869MOL0     H17266   5.675   7.766  10.293  1.7789  0.6136  0.4410
  869MOL0     H17267   5.883   7.556  10.145  2.1000  3.4392 -0.6683
  869MOL0     H17268   5.940   7.671  10.268 -0.0575  1.2455 -0.2940
  869MOL0     H17269   5.982   7.508  10.425 -2.5391  3.2452 -2.1257
  869MOL0     H17270   5.941   7.369  10.322 -2.2838 -0.0674  0.2160
  869MOL0     H17271   6.169   7.572  10.286 -2.5461  0.8527  1.3186
  869MOL0     H17272   6.126   7.450  10.173 -2.3414 -3.7394  1.3658
  869MOL0     H17273   6.193   7.275  10.338  2.0689 -1.2078  1.6825
  869MOL0     H17274   6.177   7.398  10.457 -0.8384  1.9903 -2.2053
  869MOL0     H17275   6.612   7.453  10.316 -1.1503  1.1152  1.1938
  869MOL0     H17276   6.798   7.323  10.420 -0.3546 -0.2522  2.5590
  869MOL0     H17277   6.868   6.804  10.624  0.5191 -0.3755 -0.1328
  869MOL0     H17278   7.050   6.690  10.756  0.5597 -0.2655 -0.9998
  869MOL0     H17279   7.244   6.935  11.044 -0.2698 -0.0902  0.0824
  869MOL0     H17280   7.148   6.850  11.165  1.6082  1.0987  0.2983
  869MOL0     H17281   7.375   6.805  11.219 -1.8339  0.5551  0.5270
  869MOL0     H17282   7.304   6.656  11.146 -0.0833 -1.3293 -5.0597
  869MOL0     H17283   7.442   6.684  10.938  2.9746  0.4170  0.8444
  869MOL0     H17284   7.477   6.854  10.984  3.0841  0.2923  0.4868
  869MOL0     H17285   7.543   6.609  11.141 -0.1727 -0.1097 -0.4529
  869MOL0     H17286   7.594   6.770  11.191 -0.3701 -0.9105  1.0306
  869MOL0     H17287   7.746   6.815  11.007 -1.1748  0.8486 -1.9777
  869MOL0     H17288   7.677   6.687  10.912  0.0180  0.6974  0.7241
  869MOL0     H17289   7.825   6.659  11.172 -0.3574  1.8338 -0.9457
  869MOL0     H17290   7.778   6.521  11.071  1.5191  0.5032  1.7310
  869MOL0     H17291   8.024   6.588  11.062 -0.4357  0.7772  0.9562
  869MOL0     H17292   7.971   6.740  10.995 -1.1114  0.1776  2.0934
  869MOL0     H17293   7.858   6.614  10.806 -0.0607 -1.5357 -3.3679
  869MOL0     H17294   8.028   6.612  10.798 -0.2758  0.7601  0.8566
  869MOL0     H17295   7.017   6.991  11.051  2.2896 -0.7163 -0.5282
  869MOL0     H17296   6.825   7.090  10.922  0.6720 -0.3470  2.1092
  869MOL0     H17297   6.491   7.061  10.591  2.5700 -0.6776  0.8089
  869MOL0     H17298   6.328   7.181  10.513 -0.2958  0.6057 -1.2362
  869MOL0     H17299   4.944   7.807   9.705  3.1481  0.7288  2.0953
  869MOL0     H17300   4.970   7.935   9.508  1.9183  2.7236 -1.3701
  869MOL0     H17301   4.814   8.200   9.265 -0.3284 -0.8553 -2.6468
  869MOL0     H17302   4.749   8.288   9.049  2.2083  0.6046 -3.0550
  869MOL0     H17303   4.655   8.522   8.962 -0.6113  2.3342 -1.3160
  869MOL0     H17304   4.712   8.404   8.853  0.4263 -1.3573  2.8767
  869MOL0     H17305   4.646   8.587   8.714 -1.2582  0.1973  2.3776
  869MOL0     H17306   4.821   8.604   8.732 -1.0896  0.6299 -1.0579
  869MOL0     H17307   4.737   8.807   8.755 -0.2918 -1.2593 -0.1517
  869MOL0     H17308   4.777   8.779   8.916  1.5773  4.5595 -2.1286
  869MOL0     H17309   4.485   8.781   8.792 -0.8912  0.7427  0.3993
  869MOL0     H17310   4.525   8.708   8.951 -0.4239  1.5929  1.7001
  869MOL0     H17311   4.537   9.141   9.019  0.1761  0.0689  0.5778
  869MOL0     H17312   5.089   8.533   9.041 -1.4275 -0.8654 -2.5174
  869MOL0     H17313   5.223   8.569   9.242  2.9985 -1.5724 -3.0674
  869MOL0     H17314   5.213   8.468   9.375  2.4704 -2.4061  0.3490
  869MOL0     H17315   5.297   8.417   9.231  1.3073  2.1950  0.7445
  870MOL0     O17316   7.858  11.427   0.726  0.1996  0.2238 -0.6688
  870MOL0     C17317   7.772  11.340   0.772 -0.2193 -0.0826  0.5142
  870MOL0     O17318   7.643  11.325   0.720  0.0179  0.9214 -0.5261
  870MOL0     C17319   7.576  11.422   0.654 -0.1797 -1.0886 -0.1207
  870MOL0     C17320   7.587  11.559   0.679  0.2698  0.2834 -0.7335
  870MOL0     C17321   7.508  11.654   0.619 -0.5049  0.3836  0.4875
  870MOL0     C17322   7.416  11.626   0.528 -0.7266  0.0767  0.5184
  870MOL0     O17323   7.342  11.729   0.484  0.4344 -0.3998  0.7811
  870MOL0     C17324   7.241  11.683   0.383  0.6777 -0.2231  0.8421
  870MOL0     C17325   7.184  11.807   0.314 -0.0866  0.1294  0.1078
  870MOL0     C17326   7.054  11.794   0.234 -0.2369  0.3292  0.8746
  870MOL0     C17327   6.978  11.923   0.236 -1.2724 -0.3254 -0.3549
  870MOL0     C17328   6.851  11.906   0.137 -0.0384 -0.3559  0.5134
  870MOL0     C17329   6.752  12.021   0.156  0.5215  0.4423  0.2171
  870MOL0     C17330   6.799  12.156   0.095 -0.0860  0.2427 -0.1079
  870MOL0     C17331   6.690  12.272   0.113 -0.1954 -0.3075 -0.1645
  870MOL0     N17332   6.623  12.314  -0.005 -0.0483 -0.3877 -0.3855
  870MOL0     C17333   6.502  12.258  -0.045 -0.8672  0.3285  1.0818
  870MOL0     C17334   6.456  12.332  -0.144 -0.1308 -0.3073 -0.4816
  870MOL0     C17335   6.335  12.307  -0.236 -0.9112 -0.3345 -1.1029
  870MOL0     C17336   6.214  12.388  -0.186 -0.0668  0.0004 -0.9100
  870MOL0     C17337   6.227  12.545  -0.187 -0.3749 -0.3502  0.6097
  870MOL0     C17338   6.110  12.616  -0.121  0.2377  0.0868 -0.0050
  870MOL0     O17339   5.981  12.576  -0.178 -0.5267  0.4537  0.6277
  870MOL0     C17340   5.866  12.649  -0.157 -0.3518  0.5124 -0.1717
  870MOL0     C17341   5.862  12.762  -0.070  0.6395 -0.0154 -0.1957
  870MOL0     C17342   5.746  12.836  -0.047 -0.2772  0.5613  0.5877
  870MOL0     C17343   5.623  12.784  -0.099  0.1347 -0.5834  0.1531
  870MOL0     C17344   5.502  12.870  -0.091  0.5431  0.4435  0.0018
  870MOL0     O17345   5.520  12.993  -0.032 -0.2070  0.4578  0.2153
  870MOL0     C17346   5.420  13.058   0.031  0.4916  0.3252 -0.1328
  870MOL0     C17347   5.290  13.025   0.070 -0.5677  0.2932  0.8822
  870MOL0     C17348   5.212  13.115   0.142 -0.0644 -0.6048  0.2408
  870MOL0     C17349   5.252  13.246   0.177 -0.5183 -0.5118 -0.5908
  870MOL0     O17350   5.193  13.331   0.270 -0.1405 -0.0575 -0.0942
  870MOL0     C17351   5.062  13.303   0.297  0.1822 -0.2238 -0.4560
  870MOL0     C17352   4.999  13.412   0.390  0.0520  0.6806  0.3963
  870MOL0     C17353   4.898  13.510   0.322  0.2961 -0.3003  1.0580
  870MOL0     C17354   4.823  13.594   0.412 -0.1233  0.2618  0.8534
  870MOL0     C17355   4.699  13.521   0.473  0.4864  0.0900 -0.0162
  870MOL0     C17356   4.611  13.586   0.579  0.0248  0.1774  0.0511
  870MOL0     C17357   4.518  13.467   0.636 -0.0269  0.1514  0.5645
  870MOL0     C17358   4.431  13.548   0.737 -0.1233 -1.1249  0.3959
  870MOL0    Cl17359   4.344  13.443   0.840  0.2317  0.1443 -0.3748
  870MOL0     C17360   5.382  13.280   0.139  0.0042 -0.0904 -0.5355
  870MOL0     C17361   5.461  13.182   0.083 -0.6169 -0.0669  0.2373
  870MOL0     O17362   5.399  12.818  -0.119  0.4133 -0.7036  0.3639
  870MOL0     C17363   5.628  12.666  -0.171  1.0274 -1.0400 -0.1720
  870MOL0     C17364   5.740  12.606  -0.201 -0.8771 -0.0549 -0.0755
  870MOL0     N17365   6.545  12.440  -0.157  0.5429  0.4179  0.3519
  870MOL0     N17366   6.655  12.421  -0.081  0.8488 -0.5700  0.3485
  870MOL0     C17367   7.397  11.492   0.495  1.0218  0.6174 -0.1900
  870MOL0     C17368   7.479  11.391   0.551  1.2240  0.2393 -0.4542
  870MOL0     C17369   7.816  11.249   0.877 -0.8968  0.4192 -0.0300
  870MOL0     C17370   7.933  11.176   0.838 -0.1385 -0.4820 -0.0068
  870MOL0     C17371   7.987  11.086   0.924 -0.0946  1.5536  0.5820
  870MOL0     C17372   7.911  11.044   1.035 -0.9160 -0.5694 -0.3215
  870MOL0     O17373   7.961  10.943   1.106  0.2777 -0.1900 -0.6452
  870MOL0     C17374   7.889  10.880   1.210  0.2618 -0.4712 -0.3227
  870MOL0     C17375   7.928  10.725   1.206  0.7034 -0.5520 -0.7558
  870MOL0     C17376   7.844  10.669   1.086 -0.7313  0.1051  0.3377
  870MOL0     C17377   7.911  10.542   1.026 -0.5634  0.5985 -0.3919
  870MOL0     C17378   7.873  10.516   0.883  0.1316 -0.3324 -0.8769
  870MOL0     C17379   7.837  10.466   0.782 -0.8425 -0.3581 -0.2030
  870MOL0     C17380   7.793  11.113   1.067 -0.1982 -0.2246  0.1506
  870MOL0     C17381   7.746  11.220   0.992  0.5789 -0.3782  0.3968
  870MOL0     C17382   7.632  11.297   1.046  0.6405 -0.4066 -0.1880
  870MOL0     H17383   7.679  11.579   0.733  1.4555 -2.6318 -1.4764
  870MOL0     H17384   7.538  11.754   0.649  2.2491 -1.2489  3.8929
  870MOL0     H17385   7.291  11.625   0.305  2.8436  2.0649  0.4218
  870MOL0     H17386   7.161  11.623   0.428  0.0934  0.5060  0.8056
  870MOL0     H17387   7.270  11.836   0.253  2.3087 -1.4783  2.4944
  870MOL0     H17388   7.158  11.879   0.391 -0.7337 -0.8363  0.8231
  870MOL0     H17389   7.002  11.707   0.274  2.2082 -2.6614 -1.9466
  870MOL0     H17390   7.065  11.759   0.131 -2.0246  2.5813 -0.2024
  870MOL0     H17391   6.953  11.947   0.339  1.8682 -1.0571  0.6895
  870MOL0     H17392   7.040  12.009   0.209 -1.3931  0.4050  1.5620
  870MOL0     H17393   6.884  11.895   0.034  3.3989  0.2372  1.4233
  870MOL0     H17394   6.804  11.811   0.165  2.2856 -1.7915 -0.2054
  870MOL0     H17395   6.664  11.998   0.096  1.3193 -2.2686 -0.0516
  870MOL0     H17396   6.719  12.034   0.259 -1.6157  1.0146 -0.5062
  870MOL0     H17397   6.805  12.145  -0.014  2.2675  1.7259 -0.2010
  870MOL0     H17398   6.892  12.186   0.143  1.7208 -4.3352 -0.2846
  870MOL0     H17399   6.625  12.237   0.194  1.9715 -2.6907  0.6679
  870MOL0     H17400   6.743  12.365   0.136 -1.2425  0.5707 -1.1508
  870MOL0     H17401   6.464  12.161  -0.014 -0.2281 -0.5332 -0.7034
  870MOL0     H17402   6.375  12.331  -0.334  1.1410  0.2011 -0.1854
  870MOL0     H17403   6.314  12.200  -0.225  3.5494 -1.2473  0.8419
  870MOL0     H17404   6.129  12.360  -0.249  0.7774 -1.7534 -1.3188
  870MOL0     H17405   6.197  12.344  -0.088  2.3678  0.5300 -0.1992
  870MOL0     H17406   6.233  12.583  -0.289 -1.0305 -0.2469  0.6018
  870MOL0     H17407   6.319  12.578  -0.137 -0.7227  0.6438  0.6329
  870MOL0     H17408   6.122  12.724  -0.134 -0.9111  0.1392 -0.7430
  870MOL0     H17409   6.104  12.606  -0.012  2.1210  3.5591  0.5673
  870MOL0     H17410   5.954  12.794  -0.021  0.6402 -2.2423  1.3739
  870MOL0     H17411   5.760  12.925   0.013  1.7794 -0.2404  1.3862
  870MOL0     H17412   5.255  12.924   0.049 -3.2729  1.3920 -0.3411
  870MOL0     H17413   5.125  13.064   0.181  1.8668 -3.3043  1.3795
  870MOL0     H17414   5.004  13.284   0.206 -0.1674 -1.3722 -0.0088
  870MOL0     H17415   5.071  13.215   0.362 -2.8681 -0.5778 -0.3859
  870MOL0     H17416   4.942  13.368   0.472  0.3376  0.2277  0.3533
  870MOL0     H17417   5.078  13.461   0.447  1.4541 -0.7560 -0.2439
  870MOL0     H17418   4.945  13.576   0.248 -4.4674  1.6457 -0.6261
  870MOL0     H17419   4.828  13.448   0.266  2.7023 -3.0332  0.8381
  870MOL0     H17420   4.783  13.672   0.346 -2.3173 -0.6309  1.0633
  870MOL0     H17421   4.887  13.628   0.494 -2.2167  0.6153  2.4239
  870MOL0     H17422   4.743  13.444   0.538  1.6551 -1.6581 -2.7185
  870MOL0     H17423   4.642  13.473   0.393  0.1351 -2.4086  1.5993
  870MOL0     H17424   4.665  13.632   0.661 -2.9847 -1.8535  3.5231
  870MOL0     H17425   4.552  13.666   0.534  1.0341  1.8722  1.6052
  870MOL0     H17426   4.579  13.394   0.691 -0.1176  0.0749  0.5635
  870MOL0     H17427   4.462  13.420   0.555  0.4995  1.8133 -0.8224
  870MOL0     H17428   4.489  13.601   0.813  0.5466  1.8994 -2.0227
  870MOL0     H17429   4.361  13.621   0.694 -1.1075 -1.2951  1.6405
  870MOL0     H17430   5.425  13.372   0.177  1.6380 -0.8342 -0.4945
  870MOL0     H17431   5.568  13.198   0.074 -0.2618 -2.8397 -1.6897
  870MOL0     H17432   5.527  12.640  -0.203 -0.1055  3.8718 -1.3969
  870MOL0     H17433   5.733  12.521  -0.268  1.6613 -0.2124 -0.2578
  870MOL0     H17434   7.302  11.459   0.454  0.9870  2.2820 -1.5690
  870MOL0     H17435   7.456  11.286   0.533  0.0380 -0.1854  2.9142
  870MOL0     H17436   7.978  11.187   0.739 -0.1986 -0.3166 -0.0167
  870MOL0     H17437   8.084  11.043   0.901 -1.7789 -2.6945  0.5437
  870MOL0     H17438   7.781  10.892   1.200  0.1401 -0.9804  0.2558
  870MOL0     H17439   7.917  10.925   1.306 -3.4155  1.8150 -0.1433
  870MOL0     H17440   7.899  10.682   1.302 -4.1489  0.8525 -1.3113
  870MOL0     H17441   8.035  10.724   1.181  0.6246  1.3608 -1.2916
  870MOL0     H17442   7.836  10.748   1.011  3.1875  0.7751  0.4187
  870MOL0     H17443   7.747  10.635   1.123 -1.0137 -1.5208 -1.7217
  870MOL0     H17444   8.020  10.549   1.037  0.0432 -1.6846 -3.4243
  870MOL0     H17445   7.884  10.451   1.079  1.7925  0.4970  0.7635
  870MOL0     H17446   7.801  10.424   0.690 -2.6849  0.7856 -0.0445
  870MOL0     H17447   7.732  11.083   1.152 -0.6430 -0.9069 -0.4008
  870MOL0     H17448   7.554  11.221   1.057 -1.4456  1.4188 -1.4874
  870MOL0     H17449   7.660  11.347   1.139 -0.9542 -1.3087  0.8282
  870MOL0     H17450   7.590  11.368   0.974 -1.3468 -1.2290  0.0980
  871MOL0     O17451  10.679   5.359   5.255 -0.8828  0.7499  0.3978
  871MOL0     C17452  10.738   5.415   5.351  0.0300  0.8364  0.2944
  871MOL0     O17453  10.869   5.394   5.382 -1.0370 -0.1682  0.2336
  871MOL0     C17454  10.928   5.286   5.325  0.4953 -0.1338 -0.6031
  871MOL0     C17455  10.994   5.190   5.401  1.1558  0.0327 -0.4205
  871MOL0     C17456  11.063   5.084   5.344 -0.3445  0.5878  0.4512
  871MOL0     C17457  11.065   5.060   5.205  0.0946 -0.1316  0.3152
  871MOL0     O17458  11.150   4.960   5.158  0.2934  0.5969 -0.1828
  871MOL0     C17459  11.166   4.954   5.017  0.7724 -0.4188  0.1644
  871MOL0     C17460  11.267   4.839   4.980  0.3585 -0.1567  0.4510
  871MOL0     C17461  11.307   4.850   4.829  0.5061 -0.1714 -0.2439
  871MOL0     C17462  11.430   4.764   4.804 -0.0079 -0.3622 -0.5758
  871MOL0     C17463  11.454   4.740   4.649  0.6753 -0.1953 -0.1083
  871MOL0     C17464  11.327   4.683   4.577  0.3371  0.8479  0.4259
  871MOL0     C17465  11.373   4.593   4.459 -0.2284  0.4698  0.4940
  871MOL0     C17466  11.258   4.533   4.391  0.1114  0.1577 -0.1057
  871MOL0     N17467  11.289   4.448   4.275  0.2492  0.3839 -0.4742
  871MOL0     C17468  11.361   4.475   4.156  0.8982 -0.2107  0.6576
  871MOL0     C17469  11.326   4.370   4.076  0.7211 -0.9866  0.1533
  871MOL0     C17470  11.363   4.352   3.937 -0.0371 -0.8780  0.9004
  871MOL0     C17471  11.518   4.320   3.939  0.3351 -0.4245 -0.3192
  871MOL0     C17472  11.577   4.388   3.819 -0.6032 -0.5620 -0.1416
  871MOL0     C17473  11.730   4.394   3.836 -0.3801 -0.3364  1.7182
  871MOL0     O17474  11.758   4.490   3.933 -0.7201 -0.1661 -0.3011
  871MOL0     C17475  11.795   4.473   4.061  0.5530  0.1163  0.1905
  871MOL0     C17476  11.807   4.592   4.137  1.0260  0.4982  0.0791
  871MOL0     C17477  11.815   4.579   4.281  0.6051 -0.6214 -0.1118
  871MOL0     C17478  11.815   4.458   4.346  0.3242  1.2341  0.1700
  871MOL0     C17479  11.820   4.443   4.490  1.0874  0.0816  0.4061
  871MOL0     O17480  11.839   4.568   4.554  0.6069  0.2849  0.1472
  871MOL0     C17481  11.836   4.584   4.692 -0.0347 -0.9497  0.3888
  871MOL0     C17482  11.826   4.489   4.793  0.5216  0.5999  0.1728
  871MOL0     C17483  11.806   4.528   4.922  0.4385  1.0085 -0.6873
  871MOL0     C17484  11.787   4.660   4.961  0.5234 -0.3690 -0.1247
  871MOL0     O17485  11.791   4.701   5.096 -0.0852  0.0114 -0.1740
  871MOL0     C17486  11.733   4.609   5.192  0.3505 -0.7780  0.3705
  871MOL0     C17487  11.814   4.636   5.332 -0.3467 -0.5611  0.9471
  871MOL0     C17488  11.776   4.562   5.456 -0.0029  0.2449  0.3382
  871MOL0     C17489  11.833   4.629   5.584  0.3324 -0.1342  0.7772
  871MOL0     C17490  11.811   4.554   5.716  0.2390  0.5120  0.3906
  871MOL0     C17491  11.654   4.527   5.745 -0.6438  0.6865  0.1947
  871MOL0     C17492  11.633   4.455   5.882  0.7699 -0.0280 -0.8970
  871MOL0     C17493  11.486   4.421   5.913 -0.2950  0.0533 -0.2560
  871MOL0    Cl17494  11.431   4.276   5.824  0.0345 -0.0276  0.0261
  871MOL0     C17495  11.800   4.755   4.855  0.2799  0.9517 -0.1238
  871MOL0     C17496  11.827   4.720   4.725 -0.4264 -0.0960 -0.7445
  871MOL0     O17497  11.799   4.339   4.547  0.7716  0.6565  0.4755
  871MOL0     C17498  11.805   4.343   4.263  0.3179 -0.3345 -0.5105
  871MOL0     C17499  11.794   4.344   4.130 -0.6420  0.3591  0.8095
  871MOL0     N17500  11.241   4.287   4.144 -0.0513 -0.0975 -1.2100
  871MOL0     N17501  11.227   4.331   4.260  0.1262 -0.4960 -0.4795
  871MOL0     C17502  10.998   5.158   5.127 -0.9781  0.3710  1.0791
  871MOL0     C17503  10.934   5.267   5.183  0.1997  0.2191 -0.0836
  871MOL0     C17504  10.696   5.550   5.404  0.2830 -0.1259 -0.2211
  871MOL0     C17505  10.670   5.554   5.543 -0.0247 -0.5261 -0.1211
  871MOL0     C17506  10.595   5.661   5.597 -0.1815  0.0340  0.4076
  871MOL0     C17507  10.551   5.765   5.509 -0.1296  0.7127 -0.5976
  871MOL0     O17508  10.458   5.856   5.557 -0.2451  0.9938 -1.1789
  871MOL0     C17509  10.523   5.943   5.663  0.2203 -0.0849  0.0731
  871MOL0     C17510  10.407   5.976   5.752 -0.4414  0.2017 -0.4493
  871MOL0     C17511  10.282   6.034   5.683  0.3294 -0.2879 -0.3626
  871MOL0     C17512  10.309   6.175   5.642 -0.5505  0.0042  0.0066
  871MOL0     C17513  10.180   6.234   5.589  1.0244  1.7372 -0.4326
  871MOL0     C17514  10.075   6.265   5.533  0.4109  0.0516 -0.2965
  871MOL0     C17515  10.588   5.757   5.377 -0.0587 -0.6541 -0.8706
  871MOL0     C17516  10.669   5.663   5.321 -1.1070 -0.3498  0.6073
  871MOL0     C17517  10.695   5.668   5.172  0.4628  0.6800 -0.4159
  871MOL0     H17518  10.977   5.185   5.508 -0.6082  0.1134 -0.6618
  871MOL0     H17519  11.110   5.004   5.401 -1.9609 -1.2363 -0.6547
  871MOL0     H17520  11.083   4.930   4.950  1.7525 -0.7817 -0.9565
  871MOL0     H17521  11.198   5.053   4.984 -1.3347 -0.5705 -2.6759
  871MOL0     H17522  11.209   4.746   4.985  0.9336 -0.5011  0.7642
  871MOL0     H17523  11.361   4.833   5.034  2.4852  2.8804 -2.4956
  871MOL0     H17524  11.331   4.952   4.799  3.4993 -0.7107 -0.0335
  871MOL0     H17525  11.227   4.813   4.764  1.4507 -3.6213  0.3321
  871MOL0     H17526  11.516   4.806   4.858  0.3384 -0.8742 -0.7309
  871MOL0     H17527  11.417   4.666   4.850  0.5092  0.4342  1.3462
  871MOL0     H17528  11.485   4.829   4.593 -1.6876  1.8415  1.6066
  871MOL0     H17529  11.536   4.667   4.650  1.1473  0.3192 -0.5690
  871MOL0     H17530  11.273   4.619   4.648 -0.9351  2.0486  0.5755
  871MOL0     H17531  11.269   4.763   4.530 -2.5155 -3.2850 -3.9645
  871MOL0     H17532  11.433   4.510   4.499  0.6140  0.9228  0.1909
  871MOL0     H17533  11.428   4.649   4.383  0.0183  1.3869  1.3367
  871MOL0     H17534  11.215   4.459   4.459  0.4662 -1.5533 -1.6429
  871MOL0     H17535  11.177   4.604   4.374 -2.2002 -1.4133  3.1898
  871MOL0     H17536  11.409   4.572   4.143 -1.8467  1.4197  1.8629
  871MOL0     H17537  11.309   4.272   3.885  0.7313 -1.1239  0.4589
  871MOL0     H17538  11.349   4.449   3.888 -1.3702 -1.3930  0.2165
  871MOL0     H17539  11.540   4.363   4.038 -1.2846 -0.2681  0.0030
  871MOL0     H17540  11.538   4.213   3.945  2.3741 -0.0439  3.6057
  871MOL0     H17541  11.531   4.482   3.786 -1.6669  0.6947  4.2822
  871MOL0     H17542  11.553   4.322   3.735 -1.6413  0.6787 -0.8519
  871MOL0     H17543  11.759   4.425   3.735 -3.3501  0.5700  1.0209
  871MOL0     H17544  11.770   4.295   3.855  0.1003 -0.3133  0.8999
  871MOL0     H17545  11.801   4.689   4.090 -1.0617 -0.1340 -1.0864
  871MOL0     H17546  11.824   4.668   4.341 -1.3359  1.8188 -3.1275
  871MOL0     H17547  11.841   4.386   4.761  3.6652  0.2836  2.2363
  871MOL0     H17548  11.793   4.451   4.998 -2.4229  1.6085 -0.4611
  871MOL0     H17549  11.630   4.634   5.217  0.6650 -0.7195  1.6921
  871MOL0     H17550  11.725   4.504   5.162 -0.7472  0.2636 -3.5980
  871MOL0     H17551  11.922   4.623   5.320  0.2719  1.2627  3.4524
  871MOL0     H17552  11.816   4.742   5.359  2.5559 -0.4557  0.6982
  871MOL0     H17553  11.669   4.548   5.476 -0.4091  0.4544 -1.5152
  871MOL0     H17554  11.816   4.461   5.442  2.0774  1.3609 -2.9963
  871MOL0     H17555  11.786   4.727   5.591 -1.6457 -1.1111  2.3383
  871MOL0     H17556  11.939   4.641   5.559 -0.3597  2.5248 -1.2432
  871MOL0     H17557  11.854   4.608   5.800 -1.9133 -1.7961  3.1813
  871MOL0     H17558  11.858   4.456   5.708 -1.6203 -0.4390  0.4410
  871MOL0     H17559  11.615   4.628   5.748 -0.9592  0.5497  2.9361
  871MOL0     H17560  11.605   4.470   5.665 -0.9494 -1.3751  1.7575
  871MOL0     H17561  11.671   4.526   5.956  0.4607  1.3860 -2.0419
  871MOL0     H17562  11.690   4.362   5.884  0.3009 -0.3737 -2.2481
  871MOL0     H17563  11.472   4.415   6.022  1.7239  0.5477  0.0699
  871MOL0     H17564  11.429   4.514   5.906  0.3622  0.6874  1.9324
  871MOL0     H17565  11.774   4.858   4.880 -1.3549  0.3176  0.9627
  871MOL0     H17566  11.836   4.794   4.646 -0.3320  0.9025  0.1812
  871MOL0     H17567  11.815   4.250   4.318 -2.6729  1.5513  3.8527
  871MOL0     H17568  11.795   4.247   4.080  0.2873  0.9446 -0.3609
  871MOL0     H17569  10.985   5.152   5.019 -1.4218 -2.2097  1.2292
  871MOL0     H17570  10.900   5.347   5.117 -1.3916 -0.4443 -0.1226
  871MOL0     H17571  10.707   5.473   5.606  0.5587  1.7901  2.7273
  871MOL0     H17572  10.547   5.652   5.695 -1.2402  0.9211 -0.0081
  871MOL0     H17573  10.577   6.033   5.629  1.4160 -0.5283  0.7508
  871MOL0     H17574  10.591   5.885   5.726  1.7204  1.3380 -0.1458
  871MOL0     H17575  10.452   6.044   5.825 -1.4442  0.1481  0.2454
  871MOL0     H17576  10.394   5.878   5.799  2.3589 -0.6120 -1.1804
  871MOL0     H17577  10.213   6.026   5.767 -0.8781  0.3288 -1.2668
  871MOL0     H17578  10.244   5.974   5.599 -0.0752  2.8731 -2.6184
  871MOL0     H17579  10.346   6.241   5.721 -0.6144  2.7165 -2.0667
  871MOL0     H17580  10.388   6.184   5.566  1.4852 -1.0035  1.8751
  871MOL0     H17581   9.983   6.294   5.487  0.6009 -0.9418 -1.3686
  871MOL0     H17582  10.547   5.838   5.317 -0.6734 -0.1700  0.1772
  871MOL0     H17583  10.694   5.769   5.131 -1.1731  0.9922  0.3342
  871MOL0     H17584  10.795   5.626   5.153  0.9469  1.6703 -0.1336
  871MOL0     H17585  10.615   5.607   5.129 -1.6130  1.7355  1.7000
  872MOL0     O17586   4.479   4.322  10.187 -0.5228  0.5549 -0.1223
  872MOL0     C17587   4.491   4.326  10.307  0.1145 -0.2591  0.3682
  872MOL0     O17588   4.416   4.258  10.390 -0.5506  0.8752 -0.1119
  872MOL0     C17589   4.365   4.133  10.351 -0.1691 -0.4570  0.7736
  872MOL0     C17590   4.394   4.044  10.245 -0.1760 -0.0187 -0.3509
  872MOL0     C17591   4.314   3.923  10.232 -0.2454 -0.7672  0.7186
  872MOL0     C17592   4.213   3.882  10.319  1.2621 -0.0206 -0.7321
  872MOL0     O17593   4.148   3.762  10.304  0.1994  0.8270  0.6654
  872MOL0     C17594   4.010   3.777  10.312 -0.2027 -0.1402  0.5975
  872MOL0     C17595   3.938   3.650  10.274 -0.1540  0.3216 -0.2313
  872MOL0     C17596   3.921   3.546  10.386 -0.0672 -0.5102  0.5796
  872MOL0     C17597   3.835   3.434  10.353 -0.2102  0.3376  0.0461
  872MOL0     C17598   3.908   3.328  10.278 -0.5434  0.2994  0.1667
  872MOL0     C17599   3.818   3.214  10.227  0.5344 -0.4337 -0.0434
  872MOL0     C17600   3.906   3.133  10.126  0.6938  0.2922  0.3463
  872MOL0     C17601   3.814   3.021  10.074 -0.1306 -0.6877  0.8120
  872MOL0     N17602   3.887   2.920  10.006 -1.5211 -0.6485  0.1147
  872MOL0     C17603   3.905   2.921   9.872 -0.1860 -0.8277 -0.5766
  872MOL0     C17604   3.995   2.828   9.857  1.1885 -0.4307  0.9451
  872MOL0     C17605   4.040   2.789   9.721 -1.2810  0.1769  0.2219
  872MOL0     C17606   4.188   2.810   9.711 -0.4310 -0.5380  0.8310
  872MOL0     C17607   4.241   2.797   9.566 -0.2804  0.7661 -0.1303
  872MOL0     C17608   4.195   2.918   9.484  0.2393  0.5940 -0.9057
  872MOL0     O17609   4.241   2.925   9.347 -0.8860  0.1605 -0.4668
  872MOL0     C17610   4.163   2.856   9.254  0.0866 -0.1670  0.0968
  872MOL0     C17611   4.209   2.856   9.122 -1.1911 -1.4060  0.5988
  872MOL0     C17612   4.147   2.772   9.025 -0.3443 -0.1167 -0.1540
  872MOL0     C17613   4.040   2.689   9.055  0.6206  0.7784  0.6515
  872MOL0     C17614   3.996   2.584   8.959  0.5584  0.7156  0.5473
  872MOL0     O17615   4.069   2.569   8.850 -0.9614 -0.4814  0.4906
  872MOL0     C17616   4.053   2.467   8.760 -1.0839  0.8019 -0.2443
  872MOL0     C17617   4.115   2.488   8.638  0.6216 -1.0171 -0.1972
  872MOL0     C17618   4.091   2.400   8.529 -0.1048 -0.3710  0.3423
  872MOL0     C17619   4.018   2.278   8.546  0.1628  0.4057  0.5501
  872MOL0     O17620   4.001   2.172   8.446  0.3885  0.1629  1.1741
  872MOL0     C17621   4.056   2.193   8.318 -0.3199 -0.9704 -0.6881
  872MOL0     C17622   4.205   2.155   8.326 -0.4110 -0.6190 -0.2183
  872MOL0     C17623   4.244   2.013   8.377  0.1220 -0.0017 -0.8650
  872MOL0     C17624   4.173   1.903   8.293  0.5708 -0.4136  0.6597
  872MOL0     C17625   4.186   1.768   8.360 -0.4023 -0.1543 -0.0433
  872MOL0     C17626   4.150   1.656   8.265  0.1975  1.1965  1.3647
  872MOL0     C17627   4.173   1.523   8.331 -0.1020 -0.9570  0.8772
  872MOL0     C17628   4.320   1.487   8.343 -0.0052  0.0910 -0.1844
  872MOL0    Cl17629   4.395   1.499   8.183  0.0082 -0.0920  0.2174
  872MOL0     C17630   3.971   2.254   8.670 -0.9928  0.2308  0.1705
  872MOL0     C17631   3.987   2.349   8.773 -0.1893 -0.1215  1.3157
  872MOL0     O17632   3.888   2.532   8.978 -0.3803 -0.1013  0.3074
  872MOL0     C17633   3.999   2.688   9.194  0.4862 -0.0850  0.8749
  872MOL0     C17634   4.055   2.772   9.285  0.0872  0.5148  0.2926
  872MOL0     N17635   4.045   2.784   9.984  0.4394  0.1315  0.8407
  872MOL0     N17636   3.974   2.840  10.073 -0.2538  0.0515 -0.9709
  872MOL0     C17637   4.190   3.969  10.424  0.0352 -0.3452  0.1938
  872MOL0     C17638   4.254   4.092  10.431 -0.6207  0.0951 -0.6981
  872MOL0     C17639   4.606   4.411  10.370  0.1108  0.5959 -0.5892
  872MOL0     C17640   4.638   4.381  10.507 -1.0583 -0.2563 -0.1539
  872MOL0     C17641   4.717   4.468  10.587  0.8781  1.1536  0.3976
  872MOL0     C17642   4.766   4.584  10.525 -0.2199  0.5533  0.0152
  872MOL0     O17643   4.837   4.673  10.596 -0.8680 -0.0675 -0.6175
  872MOL0     C17644   4.828   4.708  10.735  0.4225 -1.0574 -0.0441
  872MOL0     C17645   4.927   4.816  10.767  0.2246  0.5004  0.4680
  872MOL0     C17646   4.887   4.946  10.695 -0.1899 -0.3316 -0.3990
  872MOL0     C17647   4.958   5.077  10.740  0.1908 -0.0197  0.6237
  872MOL0     C17648   4.900   5.117  10.869  0.0302  0.1436  0.8901
  872MOL0     C17649   4.851   5.152  10.977  0.3030 -0.0205 -0.8803
  872MOL0     C17650   4.737   4.614  10.399  0.4071  0.9496 -0.8467
  872MOL0     C17651   4.667   4.532  10.315 -0.1602  0.6129 -0.2575
  872MOL0     C17652   4.642   4.594  10.178  0.9336  0.4670  0.5170
  872MOL0     H17653   4.464   4.065  10.165 -0.5919  4.4815  0.2199
  872MOL0     H17654   4.347   3.856  10.152  5.9767  2.0630  0.3797
  872MOL0     H17655   3.973   3.806  10.411 -1.8841 -1.1756  0.3126
  872MOL0     H17656   3.971   3.852  10.241 -1.4663 -1.5698 -0.3045
  872MOL0     H17657   3.986   3.591  10.195 -0.2430 -0.3938  0.2462
  872MOL0     H17658   3.844   3.689  10.234 -0.0547 -0.1429 -0.9390
  872MOL0     H17659   3.882   3.611  10.465  1.5558  0.4497  0.6471
  872MOL0     H17660   4.020   3.515  10.420  1.3881  2.9447 -0.0407
  872MOL0     H17661   3.788   3.384  10.439  0.2861 -2.8105 -1.3875
  872MOL0     H17662   3.751   3.466  10.290 -1.6028 -2.4844  0.3020
  872MOL0     H17663   3.967   3.367  10.194  0.3907 -0.5853  0.3819
  872MOL0     H17664   3.986   3.280  10.339 -1.2407 -1.8677 -0.5745
  872MOL0     H17665   3.779   3.149  10.305  1.1241  1.2797  1.7699
  872MOL0     H17666   3.731   3.271  10.194 -0.5875  0.8344  4.4350
  872MOL0     H17667   3.988   3.088  10.183  0.3390 -1.2008 -0.2843
  872MOL0     H17668   3.952   3.197  10.049 -0.8374 -0.0067 -0.8603
  872MOL0     H17669   3.760   2.975  10.157  1.6940  1.0143  3.0833
  872MOL0     H17670   3.737   3.063  10.009  1.0906 -0.7517 -0.7462
  872MOL0     H17671   3.847   2.966   9.792 -1.7759 -1.2381  0.3061
  872MOL0     H17672   4.023   2.682   9.705 -0.7543 -0.1236  1.5443
  872MOL0     H17673   3.980   2.836   9.643  0.1606 -1.8444 -2.2625
  872MOL0     H17674   4.218   2.908   9.750  2.1152 -2.0189  2.8886
  872MOL0     H17675   4.243   2.745   9.780 -0.6660 -2.5749 -0.8070
  872MOL0     H17676   4.217   2.701   9.520  0.7775  1.4291 -2.2295
  872MOL0     H17677   4.351   2.802   9.571 -0.2816  1.5823 -0.6769
  872MOL0     H17678   4.242   3.000   9.539  0.0445 -0.0982  0.3233
  872MOL0     H17679   4.088   2.938   9.484  0.4497  1.8021 -1.6044
  872MOL0     H17680   4.303   2.904   9.096 -2.2622 -0.1140 -1.0806
  872MOL0     H17681   4.190   2.772   8.926  0.9716 -2.5204  0.3299
  872MOL0     H17682   4.160   2.585   8.617 -0.3832 -0.3464  0.5756
  872MOL0     H17683   4.140   2.423   8.434 -2.3828 -0.7702 -1.0109
  872MOL0     H17684   4.001   2.115   8.264 -4.1430 -0.2332  1.8128
  872MOL0     H17685   4.042   2.289   8.267  1.0735 -0.9369 -1.0638
  872MOL0     H17686   4.256   2.158   8.229  1.6570 -1.9486  0.7503
  872MOL0     H17687   4.253   2.223   8.396  0.5178 -1.0142 -0.4462
  872MOL0     H17688   4.353   2.008   8.377  0.2706  2.1726  0.4138
  872MOL0     H17689   4.214   2.002   8.482  0.6774  0.8478 -0.6151
  872MOL0     H17690   4.214   1.899   8.192 -2.9275 -0.3529 -0.9267
  872MOL0     H17691   4.067   1.920   8.269  0.6925 -0.4497  0.0839
  872MOL0     H17692   4.119   1.772   8.447 -0.4306  3.3542 -0.0724
  872MOL0     H17693   4.291   1.761   8.391 -0.8543  3.0364  2.8516
  872MOL0     H17694   4.044   1.673   8.243 -0.0578 -1.3772  0.2722
  872MOL0     H17695   4.198   1.656   8.166  0.5195  0.2716  1.5136
  872MOL0     H17696   4.127   1.447   8.267  2.1687  1.0476 -3.5836
  872MOL0     H17697   4.113   1.530   8.422 -1.6870  0.1204 -0.1912
  872MOL0     H17698   4.377   1.546   8.415 -0.7083 -2.2223  2.4068
  872MOL0     H17699   4.309   1.385   8.379 -3.1524 -0.0691 -1.2559
  872MOL0     H17700   3.919   2.160   8.686  0.8449 -1.5143 -3.1590
  872MOL0     H17701   3.940   2.321   8.867  0.6509 -1.3182  1.4129
  872MOL0     H17702   3.932   2.608   9.224  0.3214  0.4914  2.1106
  872MOL0     H17703   4.015   2.762   9.385 -0.9417 -1.4153 -0.2669
  872MOL0     H17704   4.109   3.956  10.496 -0.2172 -1.3132 -0.2547
  872MOL0     H17705   4.216   4.164  10.502  1.9643  1.2652 -0.3794
  872MOL0     H17706   4.602   4.291  10.555  4.5365 -4.1140 -2.0640
  872MOL0     H17707   4.745   4.429  10.684  2.3449  0.0684 -0.4181
  872MOL0     H17708   4.856   4.620  10.793  0.4221 -1.2266 -0.3021
  872MOL0     H17709   4.728   4.742  10.765  1.7265  0.8968  2.5012
  872MOL0     H17710   5.031   4.783  10.755 -0.1235  0.2099 -2.4799
  872MOL0     H17711   4.924   4.840  10.874  0.9177  0.8552  0.4186
  872MOL0     H17712   4.779   4.955  10.706 -0.2650  0.1656 -1.4046
  872MOL0     H17713   4.906   4.931  10.588 -0.0210 -1.7659 -0.1861
  872MOL0     H17714   5.066   5.063  10.745  0.1600 -1.5741 -1.5993
  872MOL0     H17715   4.920   5.157  10.676 -3.0356  0.5385  2.9659
  872MOL0     H17716   4.820   5.194  11.071 -0.1006 -1.3319 -0.4052
  872MOL0     H17717   4.780   4.704  10.357  1.4829 -0.3122 -2.6322
  872MOL0     H17718   4.658   4.521  10.098 -0.5647  0.3220  0.3270
  872MOL0     H17719   4.538   4.627  10.181  1.4919  2.2687  2.1756
  872MOL0     H17720   4.710   4.676  10.149 -0.0449  0.5201 -1.8654
  873MOL0     O17721   5.090   2.940   0.945  0.2497 -0.9529 -0.5626
  873MOL0     C17722   5.138   2.930   1.058 -0.6048  0.7400  0.9760
  873MOL0     O17723   5.161   3.029   1.145  0.6879  0.1411  0.0410
  873MOL0     C17724   5.109   3.148   1.118 -0.2063  0.1536 -0.8826
  873MOL0     C17725   4.976   3.175   1.151  0.4972 -0.0219  0.1844
  873MOL0     C17726   4.921   3.303   1.147 -0.5453 -0.0019  1.0834
  873MOL0     C17727   4.996   3.406   1.094 -0.1389  0.5008  0.9043
  873MOL0     O17728   4.934   3.526   1.093  1.0496 -0.4766 -0.1035
  873MOL0     C17729   4.995   3.641   1.024 -0.3125  0.8594 -0.8767
  873MOL0     C17730   4.881   3.736   0.982  0.0230 -0.7261 -0.7542
  873MOL0     C17731   4.822   3.821   1.089 -0.7543 -0.2666 -1.5814
  873MOL0     C17732   4.703   3.767   1.174 -0.4051  0.7665  0.2431
  873MOL0     C17733   4.678   3.859   1.298 -0.2548  0.1365 -0.0389
  873MOL0     C17734   4.543   3.838   1.377  0.7872 -0.2059  0.7258
  873MOL0     C17735   4.534   3.950   1.480  0.9174  0.1165  0.7434
  873MOL0     C17736   4.631   3.936   1.591 -0.2511 -0.1419  0.0868
  873MOL0     N17737   4.583   3.868   1.710  1.0504  0.0563 -0.0818
  873MOL0     C17738   4.582   3.735   1.723 -0.3483  0.0123 -0.0836
  873MOL0     C17739   4.511   3.711   1.838 -0.6946 -0.3912 -0.5058
  873MOL0     C17740   4.478   3.577   1.890  0.6160 -0.8542  0.2792
  873MOL0     C17741   4.414   3.595   2.022 -0.3828  0.2381 -0.2674
  873MOL0     C17742   4.428   3.460   2.096 -0.2090  0.5297 -0.2019
  873MOL0     C17743   4.398   3.477   2.251 -0.1821  0.4318  1.1212
  873MOL0     O17744   4.267   3.522   2.277  0.2684 -0.2539  0.9423
  873MOL0     C17745   4.235   3.539   2.407  1.1013  0.2254 -0.7354
  873MOL0     C17746   4.318   3.601   2.495  0.3368 -0.1234 -0.4968
  873MOL0     C17747   4.279   3.613   2.629  1.1695  0.2498 -0.1456
  873MOL0     C17748   4.156   3.559   2.683 -0.2991 -0.0281 -0.2365
  873MOL0     C17749   4.127   3.564   2.824  0.4452  0.0581  0.3232
  873MOL0     O17750   4.021   3.484   2.851  0.0362 -0.1027 -0.5478
  873MOL0     C17751   3.942   3.498   2.959  0.7097  0.4382  0.1106
  873MOL0     C17752   3.899   3.391   3.023  0.5661 -0.5314  0.5805
  873MOL0     C17753   3.822   3.397   3.142  0.5174  0.0496  0.6542
  873MOL0     C17754   3.790   3.518   3.193  0.6782  0.5385  0.0081
  873MOL0     O17755   3.727   3.521   3.310  0.8153 -0.2780 -0.8184
  873MOL0     C17756   3.809   3.564   3.414  0.2533  0.1409 -0.5496
  873MOL0     C17757   3.788   3.490   3.548  0.2575  0.0969  0.0967
  873MOL0     C17758   3.823   3.345   3.559 -0.6961 -0.0852 -0.5812
  873MOL0     C17759   3.736   3.254   3.477  0.4818 -1.0358 -0.4165
  873MOL0     C17760   3.694   3.125   3.556  0.1815  0.1338  0.5601
  873MOL0     C17761   3.804   3.035   3.602 -0.8362  0.3165 -0.4764
  873MOL0     C17762   3.908   2.987   3.496 -0.0681 -0.6226  0.2780
  873MOL0     C17763   4.011   2.900   3.561  0.0795 -0.0981  0.0126
  873MOL0    Cl17764   4.119   2.846   3.435 -0.1015 -0.3096 -0.6434
  873MOL0     C17765   3.844   3.632   3.132 -0.7382  0.4549  0.3207
  873MOL0     C17766   3.906   3.624   3.011  0.1560  0.1222 -0.2747
  873MOL0     O17767   4.174   3.653   2.893  0.4047  0.0595 -0.1500
  873MOL0     C17768   4.068   3.509   2.587 -0.4500  0.0146  0.3212
  873MOL0     C17769   4.115   3.493   2.456  0.1066 -0.6978 -1.9015
  873MOL0     N17770   4.455   3.832   1.880 -0.1707 -1.0361  0.2030
  873MOL0     N17771   4.508   3.927   1.808 -0.7144 -0.5220 -0.6770
  873MOL0     C17772   5.123   3.375   1.037 -0.0952  0.2553 -0.0865
  873MOL0     C17773   5.174   3.247   1.048 -0.9097  0.5550 -0.8912
  873MOL0     C17774   5.180   2.794   1.104 -0.3400 -0.5310 -0.2857
  873MOL0     C17775   5.176   2.765   1.239 -0.0154  0.6145 -0.0601
  873MOL0     C17776   5.220   2.642   1.287 -0.1755 -0.0095  0.0746
  873MOL0     C17777   5.249   2.534   1.198 -0.7306  1.1458  1.2401
  873MOL0     O17778   5.265   2.410   1.248 -0.7767  1.0210 -0.7123
  873MOL0     C17779   5.262   2.294   1.161 -0.3519  0.5506  0.1788
  873MOL0     C17780   5.309   2.174   1.240 -0.1722  0.8070  0.1872
  873MOL0     C17781   5.350   2.059   1.143 -0.2264  0.7193  0.6333
  873MOL0     C17782   5.375   1.921   1.207 -0.7758  0.3355  0.5924
  873MOL0     C17783   5.252   1.849   1.248  1.2003  0.6457  0.1922
  873MOL0     C17784   5.144   1.801   1.277  0.2154 -0.7732 -0.8148
  873MOL0     C17785   5.239   2.563   1.064  0.1352  0.0932  0.9226
  873MOL0     C17786   5.223   2.695   1.010  0.2565  0.4694  0.2195
  873MOL0     C17787   5.258   2.724   0.861  1.1489  0.2280  0.6839
  873MOL0     H17788   4.919   3.091   1.190  2.0607 -0.0393  2.5928
  873MOL0     H17789   4.823   3.317   1.193 -0.4644 -1.0089  1.6037
  873MOL0     H17790   5.060   3.693   1.094 -1.9106 -0.2858  1.5977
  873MOL0     H17791   5.057   3.611   0.939  2.4268 -1.9476  1.8540
  873MOL0     H17792   4.799   3.677   0.940 -0.8893 -1.2979  1.6567
  873MOL0     H17793   4.932   3.813   0.924  1.3319  0.2619  1.5449
  873MOL0     H17794   4.784   3.911   1.041  1.0547  0.3029 -1.9960
  873MOL0     H17795   4.904   3.852   1.154 -0.6447 -0.0897 -1.8039
  873MOL0     H17796   4.613   3.769   1.111 -1.2225 -2.4110  1.1105
  873MOL0     H17797   4.716   3.668   1.217  0.1883  0.0251 -1.5781
  873MOL0     H17798   4.758   3.827   1.366 -0.6057  0.0678  0.3449
  873MOL0     H17799   4.671   3.961   1.261 -0.2074 -0.5047 -1.9564
  873MOL0     H17800   4.455   3.838   1.312 -0.0734 -2.5429  1.7962
  873MOL0     H17801   4.546   3.738   1.422  1.5039  0.1539  1.5184
  873MOL0     H17802   4.436   3.949   1.528  1.4842  0.3337  1.9696
  873MOL0     H17803   4.530   4.045   1.427 -0.0083 -1.0597 -1.4097
  873MOL0     H17804   4.730   3.909   1.555 -0.5969  1.6904 -2.5215
  873MOL0     H17805   4.640   4.040   1.622 -0.0461 -0.8538  2.6343
  873MOL0     H17806   4.629   3.670   1.650 -2.3383  2.0421 -3.4558
  873MOL0     H17807   4.405   3.530   1.824  4.4458 -3.7148 -2.3724
  873MOL0     H17808   4.571   3.519   1.894 -0.2670 -2.7186 -2.8278
  873MOL0     H17809   4.454   3.672   2.088 -0.3188 -1.4172  1.7277
  873MOL0     H17810   4.308   3.618   2.006 -0.2307 -0.0983 -1.9074
  873MOL0     H17811   4.530   3.421   2.089 -0.7310 -1.1314  0.7741
  873MOL0     H17812   4.347   3.390   2.072 -2.7085  2.2392  2.5724
  873MOL0     H17813   4.476   3.534   2.302  2.9169 -2.5343  0.0927
  873MOL0     H17814   4.408   3.377   2.293  0.2819 -0.1642 -0.3279
  873MOL0     H17815   4.417   3.636   2.470 -0.0698  0.1624 -1.8089
  873MOL0     H17816   4.357   3.645   2.698  0.4526 -1.3092  1.4867
  873MOL0     H17817   3.929   3.298   2.976  2.1940 -1.1261  2.6813
  873MOL0     H17818   3.774   3.308   3.181  0.8985 -0.1870  0.5868
  873MOL0     H17819   3.914   3.565   3.384  0.6083 -2.1060  0.4065
  873MOL0     H17820   3.783   3.670   3.426 -3.3162 -0.6905  0.0487
  873MOL0     H17821   3.850   3.547   3.617  0.9936 -1.2543  0.5673
  873MOL0     H17822   3.682   3.504   3.569  0.6833  2.7598  0.8092
  873MOL0     H17823   3.929   3.330   3.538 -0.5597  0.9600 -0.7048
  873MOL0     H17824   3.814   3.317   3.665 -2.1694 -0.6021 -0.8194
  873MOL0     H17825   3.781   3.236   3.379  1.7201 -1.1093  0.1423
  873MOL0     H17826   3.646   3.314   3.460  1.5656  0.2387 -2.0161
  873MOL0     H17827   3.628   3.062   3.495  2.2203 -0.5684 -1.0300
  873MOL0     H17828   3.631   3.153   3.641 -2.6983  1.0851 -1.6887
  873MOL0     H17829   3.860   3.093   3.676 -3.2700  0.9041  1.0036
  873MOL0     H17830   3.766   2.947   3.655  2.3363 -0.3397  0.9546
  873MOL0     H17831   3.948   3.081   3.457 -2.7308  0.2891 -0.4977
  873MOL0     H17832   3.857   2.934   3.415  2.2731  1.5406 -2.7955
  873MOL0     H17833   4.070   2.961   3.629 -0.5708 -0.1298  0.6081
  873MOL0     H17834   3.970   2.814   3.615  2.2215 -2.0048 -1.2067
  873MOL0     H17835   3.822   3.731   3.173 -0.8194  0.9922 -0.9873
  873MOL0     H17836   3.925   3.712   2.950  0.5615  0.7571  0.7416
  873MOL0     H17837   3.963   3.483   2.599 -0.4681 -0.4932 -0.7729
  873MOL0     H17838   4.057   3.426   2.392 -4.1621  0.8736 -0.0948
  873MOL0     H17839   5.172   3.453   0.980 -0.8674  2.3443  1.9609
  873MOL0     H17840   5.267   3.225   0.997 -1.3791 -2.5217 -0.5886
  873MOL0     H17841   5.135   2.830   1.317 -0.8481 -3.6432  3.4315
  873MOL0     H17842   5.231   2.640   1.395  1.7612  0.8011 -0.0656
  873MOL0     H17843   5.329   2.305   1.074  1.2251 -0.7278  1.1907
  873MOL0     H17844   5.159   2.285   1.126 -0.3345  1.1608 -0.0605
  873MOL0     H17845   5.213   2.161   1.292 -1.5452  3.8001 -1.3380
  873MOL0     H17846   5.394   2.212   1.298  2.1630  0.3632 -2.7057
  873MOL0     H17847   5.438   2.104   1.094 -0.2262 -0.8036 -0.8988
  873MOL0     H17848   5.277   2.046   1.063 -0.3985  2.8573  0.3881
  873MOL0     H17849   5.427   1.854   1.138  1.4642 -0.2425  2.7131
  873MOL0     H17850   5.441   1.955   1.288 -1.2865  0.0967  1.1147
  873MOL0     H17851   5.048   1.755   1.288  0.5958 -1.0471  2.6315
  873MOL0     H17852   5.284   2.500   0.989  0.7845  2.2418 -0.5837
  873MOL0     H17853   5.175   2.730   0.791  1.7075  3.1988  0.1248
  873MOL0     H17854   5.310   2.821   0.858 -0.5455  1.4110  4.0655
  873MOL0     H17855   5.306   2.635   0.819 -1.0656 -1.0905  0.7907
  874MOL0     O17856   5.551   1.858   6.778  0.4856  0.1174 -0.8922
  874MOL0     C17857   5.655   1.827   6.840 -0.9074 -0.5639 -1.2876
  874MOL0     O17858   5.703   1.701   6.836 -0.6086 -0.9042 -0.3541
  874MOL0     C17859   5.667   1.608   6.746 -0.1724  0.6576 -0.1991
  874MOL0     C17860   5.588   1.617   6.632  0.5512 -0.0703 -0.0285
  874MOL0     C17861   5.578   1.508   6.555  0.1879  0.1119 -0.7533
  874MOL0     C17862   5.642   1.388   6.572  0.4637  0.6603 -0.5438
  874MOL0     O17863   5.632   1.296   6.468  0.2966 -0.2410  0.8212
  874MOL0     C17864   5.644   1.159   6.517  0.0187  0.2746 -0.4260
  874MOL0     C17865   5.611   1.059   6.406 -0.0634  0.4655  1.1889
  874MOL0     C17866   5.699   1.070   6.284 -0.3069 -0.1956  1.5857
  874MOL0     C17867   5.660   0.978   6.171 -1.0466  0.6171 -0.4359
  874MOL0     C17868   5.764   0.975   6.052  0.6654 -0.1436  0.1457
  874MOL0     C17869   5.746   0.844   5.966 -0.1307  0.7143 -0.4891
  874MOL0     C17870   5.837   0.824   5.847 -0.5313  0.1662  0.0224
  874MOL0     C17871   5.773   0.709   5.759 -0.6491 -0.0613 -0.0981
  874MOL0     N17872   5.770   0.589   5.839 -0.0199 -0.3577  0.6348
  874MOL0     C17873   5.663   0.508   5.858 -0.8727 -0.1338 -0.4050
  874MOL0     C17874   5.710   0.396   5.914 -0.3315  1.4891  0.9566
  874MOL0     C17875   5.620   0.286   5.945 -0.0088  0.1734 -1.1562
  874MOL0     C17876   5.671   0.168   5.864 -0.1399 -0.6189 -0.7694
  874MOL0     C17877   5.572   0.067   5.802  0.3818  0.4828 -0.4399
  874MOL0     C17878   5.585   0.056   5.647  0.2759 -0.1725  0.3243
  874MOL0     O17879   5.720   0.024   5.601  0.2837  0.4987  0.6496
  874MOL0     C17880   5.786   0.098   5.509  0.4387 -0.3042  0.1396
  874MOL0     C17881   5.879   0.029   5.425  0.2540 -0.7955  0.3764
  874MOL0     C17882   5.947   0.110   5.330  0.0407  0.1327  0.0534
  874MOL0     C17883   5.918   0.243   5.301  0.9701  0.9534  0.1257
  874MOL0     C17884   5.982   0.325   5.194  0.0551 -0.1560 -0.3595
  874MOL0     O17885   5.952   0.457   5.171  0.3549 -0.5382  0.3233
  874MOL0     C17886   5.981   0.515   5.045 -0.0337  0.9763  0.8330
  874MOL0     C17887   5.875   0.565   4.974 -0.7248  0.2358  0.7028
  874MOL0     C17888   5.896   0.628   4.848  0.4705  0.0313 -0.4157
  874MOL0     C17889   6.020   0.623   4.787  0.0119  0.6033 -0.6543
  874MOL0     O17890   6.020   0.678   4.660  0.6477 -0.1688  0.6413
  874MOL0     C17891   6.143   0.717   4.600 -0.3970 -0.2955 -0.1826
  874MOL0     C17892   6.138   0.865   4.570 -0.8231 -0.0612 -0.3512
  874MOL0     C17893   6.231   0.897   4.450 -0.4745 -0.3816  0.6014
  874MOL0     C17894   6.374   0.857   4.467 -0.6261 -0.0634 -0.6144
  874MOL0     C17895   6.454   0.866   4.342  0.5811  0.1049 -1.1230
  874MOL0     C17896   6.503   1.008   4.326 -0.5294  0.9446 -0.1786
  874MOL0     C17897   6.549   1.025   4.179  0.7095  0.2601 -0.8597
  874MOL0     C17898   6.648   1.141   4.155 -0.3409 -0.6763 -0.5776
  874MOL0    Cl17899   6.589   1.291   4.230  0.4221  0.4329 -0.5751
  874MOL0     C17900   6.131   0.569   4.865 -0.0605  0.2969  0.5044
  874MOL0     C17901   6.109   0.525   4.992 -0.0369  0.3341 -0.4374
  874MOL0     O17902   6.053   0.265   5.118 -0.2996 -0.0727  0.4170
  874MOL0     C17903   5.830   0.306   5.388  0.0290  0.3644  0.4011
  874MOL0     C17904   5.768   0.235   5.493 -0.7425  0.5001  1.0502
  874MOL0     N17905   5.852   0.407   5.935 -0.3855  0.0637  0.0089
  874MOL0     N17906   5.879   0.520   5.887 -0.0442  0.1257  0.7693
  874MOL0     C17907   5.714   1.375   6.693  0.3734  0.0938 -0.9137
  874MOL0     C17908   5.735   1.486   6.772 -0.5105  0.7395 -0.1386
  874MOL0     C17909   5.734   1.931   6.910  0.6015 -0.3954 -0.3683
  874MOL0     C17910   5.873   1.928   6.892  0.8180  0.6868  0.4448
  874MOL0     C17911   5.959   2.024   6.947 -0.0742  0.3229 -0.1381
  874MOL0     C17912   5.895   2.123   7.025 -0.3515  0.5007  0.0367
  874MOL0     O17913   5.966   2.223   7.087 -0.2464 -0.0616  1.1470
  874MOL0     C17914   6.109   2.217   7.075  0.0395 -1.4133 -0.7666
  874MOL0     C17915   6.180   2.331   7.147  0.6912  0.0023 -0.2091
  874MOL0     C17916   6.323   2.338   7.126 -0.6088 -0.4030  0.2020
  874MOL0     C17917   6.379   2.466   7.197  0.9425  0.0577  0.1477
  874MOL0     C17918   6.515   2.484   7.153  0.0610  0.0181  0.7867
  874MOL0     C17919   6.628   2.532   7.136  0.7898  0.3530 -0.4028
  874MOL0     C17920   5.757   2.125   7.044  0.1897  0.2872  0.6676
  874MOL0     C17921   5.673   2.031   6.985  0.0793  0.0526 -0.1453
  874MOL0     C17922   5.525   2.063   7.006 -0.4059 -0.7163 -0.6242
  874MOL0     H17923   5.538   1.707   6.600  3.2486  0.8686 -1.9800
  874MOL0     H17924   5.537   1.533   6.458 -0.0752  0.2784 -0.6034
  874MOL0     H17925   5.746   1.131   6.545 -1.4965 -2.2578  3.3107
  874MOL0     H17926   5.576   1.144   6.601  1.0734  1.3650  0.6487
  874MOL0     H17927   5.506   1.075   6.380 -0.5510 -0.5167  2.4347
  874MOL0     H17928   5.612   0.966   6.463 -0.9576  0.2166  0.8118
  874MOL0     H17929   5.804   1.049   6.305  0.4645 -2.0654 -2.9243
  874MOL0     H17930   5.698   1.173   6.246  0.0013 -0.3726  1.0830
  874MOL0     H17931   5.657   0.875   6.209  3.1793  1.2807  2.3745
  874MOL0     H17932   5.567   1.008   6.122  0.0484  0.5008 -2.6855
  874MOL0     H17933   5.749   1.062   5.987 -3.4676 -1.7500 -1.3184
  874MOL0     H17934   5.867   0.985   6.090  0.6682  2.6630 -0.3646
  874MOL0     H17935   5.764   0.763   6.036 -4.1163 -2.2030 -2.4484
  874MOL0     H17936   5.643   0.819   5.938  0.1478 -1.4456  0.2778
  874MOL0     H17937   5.932   0.788   5.889 -1.4984 -0.6235  1.6351
  874MOL0     H17938   5.846   0.909   5.778  0.1123  0.1254  0.0479
  874MOL0     H17939   5.677   0.749   5.726 -1.0016  0.7297  1.7886
  874MOL0     H17940   5.836   0.681   5.674  2.1243  2.6963  0.8680
  874MOL0     H17941   5.559   0.532   5.837 -2.4124 -1.4938  4.4963
  874MOL0     H17942   5.621   0.261   6.051  0.5519 -1.9880 -1.6165
  874MOL0     H17943   5.515   0.297   5.913 -0.3653 -0.1878 -0.1418
  874MOL0     H17944   5.725   0.204   5.776 -0.5837 -1.3785 -1.3698
  874MOL0     H17945   5.745   0.118   5.928 -0.4217  1.1630  1.0634
  874MOL0     H17946   5.470   0.093   5.830 -0.9074 -3.7852 -0.4956
  874MOL0     H17947   5.595  -0.027   5.852  0.5370  1.1949  0.8772
  874MOL0     H17948   5.555   0.151   5.601 -2.2917 -0.7297  0.6973
  874MOL0     H17949   5.509  -0.011   5.608  0.9127 -0.6545 -0.0919
  874MOL0     H17950   5.892  -0.079   5.431 -1.2564 -0.9726  0.9755
  874MOL0     H17951   6.014   0.053   5.267 -0.7001  1.8842 -2.4472
  874MOL0     H17952   5.772   0.560   5.009 -1.6009  0.9219 -1.5732
  874MOL0     H17953   5.811   0.674   4.799 -1.3125 -0.7522  1.7519
  874MOL0     H17954   6.241   0.701   4.648 -0.1248 -1.0004 -0.9532
  874MOL0     H17955   6.170   0.657   4.512 -0.1037 -1.6181  0.7678
  874MOL0     H17956   6.042   0.912   4.548  0.5495  2.5838 -1.0384
  874MOL0     H17957   6.183   0.920   4.653  2.3331 -0.3756 -1.7159
  874MOL0     H17958   6.182   0.861   4.360  0.6372 -2.3196  0.7136
  874MOL0     H17959   6.238   1.006   4.459  0.1676 -0.3952  0.3630
  874MOL0     H17960   6.375   0.751   4.494  2.3841  0.2084  0.7320
  874MOL0     H17961   6.428   0.898   4.553  0.9024 -2.7175 -0.1741
  874MOL0     H17962   6.389   0.836   4.259 -2.6500  1.6504  0.6812
  874MOL0     H17963   6.535   0.792   4.349  0.2695 -0.0967  1.3851
  874MOL0     H17964   6.443   1.092   4.363 -0.2821  0.8657  0.4060
  874MOL0     H17965   6.593   1.014   4.387 -0.0497  1.0484 -0.8963
  874MOL0     H17966   6.465   1.061   4.120  0.2425  1.9904  0.7456
  874MOL0     H17967   6.588   0.936   4.129 -0.5892 -0.8650  0.0701
  874MOL0     H17968   6.744   1.102   4.190  1.4944  2.4655 -1.7108
  874MOL0     H17969   6.652   1.151   4.046  0.1704  0.4961 -0.4600
  874MOL0     H17970   6.230   0.588   4.824  1.0056 -2.4456  1.5893
  874MOL0     H17971   6.193   0.491   5.051 -1.5627 -1.1244  1.0312
  874MOL0     H17972   5.805   0.410   5.370 -2.2731 -0.2135 -0.0909
  874MOL0     H17973   5.712   0.286   5.571 -1.2490 -1.6145  2.1403
  874MOL0     H17974   5.772   1.291   6.728  2.7897  1.9090 -0.3435
  874MOL0     H17975   5.798   1.482   6.860 -0.8135 -1.7943  0.0190
  874MOL0     H17976   5.926   1.852   6.835 -2.0135  2.2752 -5.0589
  874MOL0     H17977   6.065   2.010   6.932 -0.1205 -0.9029  0.5595
  874MOL0     H17978   6.140   2.230   6.971  0.5947  2.4949 -0.2749
  874MOL0     H17979   6.138   2.120   7.117 -1.1037 -1.6252 -0.4318
  874MOL0     H17980   6.151   2.342   7.252  1.4059 -1.2375  0.1363
  874MOL0     H17981   6.150   2.428   7.105  1.9290  1.6902  2.5509
  874MOL0     H17982   6.340   2.330   7.018  0.2697 -1.3049  0.3998
  874MOL0     H17983   6.369   2.248   7.169  1.8551  1.6675  2.2352
  874MOL0     H17984   6.319   2.557   7.187  3.6363  1.9425  0.1745
  874MOL0     H17985   6.384   2.450   7.305  0.7882  1.3749  0.3685
  874MOL0     H17986   6.726   2.574   7.125  0.8883 -0.4021 -3.6598
  874MOL0     H17987   5.719   2.209   7.100 -3.4238 -0.1153 -0.8818
  874MOL0     H17988   5.489   2.110   6.914  0.4413  1.8905  0.2854
  874MOL0     H17989   5.472   1.971   7.031  0.3519 -0.8202  0.7262
  874MOL0     H17990   5.506   2.134   7.087 -2.5923 -1.4616 -0.4040
  875MOL0     O17991   9.637   3.827   6.613  0.0962  0.5611 -0.2166
  875MOL0     C17992   9.631   3.946   6.631  0.0123 -0.6068  0.1900
  875MOL0     O17993   9.533   4.004   6.697 -0.3905 -0.8196  0.8338
  875MOL0     C17994   9.413   3.939   6.726  0.5360  0.1165 -0.4589
  875MOL0     C17995   9.373   3.906   6.862  0.4178 -0.1688 -0.1863
  875MOL0     C17996   9.246   3.844   6.883  0.5631  0.8820 -0.3132
  875MOL0     C17997   9.162   3.823   6.773  0.0819 -0.0536  1.3066
  875MOL0     O17998   9.039   3.763   6.789 -0.6248  0.4826 -0.3720
  875MOL0     C17999   8.958   3.718   6.685 -0.3523 -0.6572  1.0297
  875MOL0     C18000   8.841   3.652   6.738  0.1588  0.2024 -1.2148
  875MOL0     C18001   8.724   3.619   6.649 -0.6645  0.1299  0.1704
  875MOL0     C18002   8.736   3.506   6.556 -0.2221 -0.0462 -0.6844
  875MOL0     C18003   8.599   3.441   6.541 -0.2538 -0.2440  0.2758
  875MOL0     C18004   8.591   3.358   6.417  0.3153 -0.5652 -0.5009
  875MOL0     C18005   8.451   3.300   6.409  0.2049  0.5837  0.2971
  875MOL0     C18006   8.438   3.205   6.287  0.5762  0.6418  0.6853
  875MOL0     N18007   8.314   3.146   6.255  0.3034 -0.6865 -0.0142
  875MOL0     C18008   8.212   3.203   6.179 -1.1610 -0.4303  0.2144
  875MOL0     C18009   8.113   3.106   6.175 -0.1666  0.0939  0.3841
  875MOL0     C18010   7.974   3.103   6.110 -0.5693 -0.7515 -0.7082
  875MOL0     C18011   7.971   3.102   5.959  0.7186  0.5755  0.5762
  875MOL0     C18012   7.840   3.143   5.891  0.1038  0.4974  0.1403
  875MOL0     C18013   7.721   3.048   5.906  1.0468  0.4323 -0.6253
  875MOL0     O18014   7.647   3.069   6.028  0.3007  0.5099  0.2711
  875MOL0     C18015   7.559   2.971   6.081 -0.3217  0.1659 -0.5563
  875MOL0     C18016   7.606   2.849   6.119 -0.0111 -0.0670  0.8957
  875MOL0     C18017   7.528   2.742   6.148 -1.0968 -0.7392 -0.2121
  875MOL0     C18018   7.386   2.754   6.151  0.0404 -0.2973 -0.3730
  875MOL0     C18019   7.292   2.649   6.186  0.6992  0.9051  0.3896
  875MOL0     O18020   7.183   2.669   6.268  0.0877 -0.4200  0.2672
  875MOL0     C18021   7.194   2.759   6.371 -0.0228  0.3848 -0.4654
  875MOL0     C18022   7.088   2.834   6.416 -0.3573  0.2691  0.0251
  875MOL0     C18023   7.091   2.918   6.522  1.6189 -0.0981  0.9618
  875MOL0     C18024   7.211   2.941   6.586 -1.0178 -0.6551 -0.0677
  875MOL0     O18025   7.218   3.046   6.677 -0.2280  0.0996  0.2873
  875MOL0     C18026   7.347   3.067   6.735 -0.1322 -0.2731 -0.4190
  875MOL0     C18027   7.345   3.202   6.811  0.1367 -0.3969 -0.5235
  875MOL0     C18028   7.253   3.206   6.937  0.3173 -0.0690 -0.3644
  875MOL0     C18029   7.327   3.157   7.064 -0.3783 -0.4480 -0.3348
  875MOL0     C18030   7.245   3.188   7.187  0.8754  0.7793  0.4647
  875MOL0     C18031   7.282   3.331   7.235  0.9941 -0.0710 -0.7522
  875MOL0     C18032   7.218   3.348   7.370 -0.2480  0.1022  0.1217
  875MOL0     C18033   7.209   3.493   7.407 -0.6954  0.6825  0.8451
  875MOL0    Cl18034   7.360   3.579   7.377 -0.7026 -0.2276 -0.2784
  875MOL0     C18035   7.327   2.880   6.535  1.6929  1.0004 -0.5053
  875MOL0     C18036   7.320   2.784   6.435  0.5515  0.8808 -0.0384
  875MOL0     O18037   7.312   2.553   6.111 -0.8853 -0.2780 -0.2248
  875MOL0     C18038   7.331   2.876   6.104 -0.2660 -0.7473 -0.5192
  875MOL0     C18039   7.416   2.979   6.064 -0.1393 -0.2335 -0.3285
  875MOL0     N18040   8.156   3.000   6.250 -0.2122 -0.0697 -0.9348
  875MOL0     N18041   8.272   3.030   6.298 -0.6618  0.4214 -0.6764
  875MOL0     C18042   9.201   3.842   6.643 -0.0663 -0.5770 -1.0252
  875MOL0     C18043   9.329   3.898   6.622 -1.1453  1.4429 -0.0149
  875MOL0     C18044   9.734   4.031   6.567  0.0899 -0.1764 -0.0221
  875MOL0     C18045   9.702   4.166   6.569  0.0669 -0.0059 -0.8776
  875MOL0     C18046   9.795   4.265   6.545  0.6585  0.2428  0.5212
  875MOL0     C18047   9.920   4.230   6.506 -0.2971 -0.6434  0.3128
  875MOL0     O18048  10.016   4.334   6.495 -0.2984 -0.1764  0.0467
  875MOL0     C18049  10.154   4.303   6.467 -0.8441 -0.2870 -0.6332
  875MOL0     C18050  10.188   4.274   6.322 -0.2580 -0.3831  0.1296
  875MOL0     C18051  10.202   4.407   6.240 -0.1360 -0.2439 -0.6152
  875MOL0     C18052  10.353   4.451   6.224  0.4588 -0.4696  0.2242
  875MOL0     C18053  10.402   4.539   6.335  0.3463  0.3195  0.2281
  875MOL0     C18054  10.413   4.619   6.422  0.2546 -0.6008  1.2225
  875MOL0     C18055   9.948   4.095   6.483 -1.1188  0.4682  0.3522
  875MOL0     C18056   9.863   3.996   6.526 -0.3680  0.5528 -0.3407
  875MOL0     C18057   9.917   3.855   6.517 -0.7451  0.2029 -0.1206
  875MOL0     H18058   9.442   3.926   6.944 -1.7386 -0.2372  1.7537
  875MOL0     H18059   9.204   3.840   6.983  0.2489 -3.4415 -0.4380
  875MOL0     H18060   8.910   3.803   6.634 -1.0125 -1.9926 -0.6728
  875MOL0     H18061   9.007   3.656   6.610 -1.1203  0.3002 -0.3211
  875MOL0     H18062   8.801   3.713   6.820  0.9902  0.1532 -0.7672
  875MOL0     H18063   8.876   3.559   6.784 -0.8213 -0.1883 -1.2234
  875MOL0     H18064   8.708   3.717   6.605  1.4293  0.6497  0.4635
  875MOL0     H18065   8.638   3.608   6.716  0.6812  1.0774  2.1766
  875MOL0     H18066   8.773   3.545   6.461  0.5899 -1.6351 -1.0580
  875MOL0     H18067   8.798   3.424   6.592 -1.1830 -0.1157  0.9062
  875MOL0     H18068   8.592   3.376   6.629 -3.0737  1.5224  1.5167
  875MOL0     H18069   8.524   3.521   6.545 -0.4018 -0.4308  1.5906
  875MOL0     H18070   8.613   3.423   6.332  1.2932 -0.0854  0.1060
  875MOL0     H18071   8.666   3.279   6.419 -0.5096 -1.3560 -0.1488
  875MOL0     H18072   8.380   3.382   6.403  1.6973  1.9966  1.0292
  875MOL0     H18073   8.429   3.246   6.502  0.7277 -0.2663 -0.0599
  875MOL0     H18074   8.462   3.261   6.196 -1.2132 -0.9763 -0.8702
  875MOL0     H18075   8.511   3.125   6.299 -0.3624 -0.2182  0.8399
  875MOL0     H18076   8.205   3.299   6.129 -1.7703  0.1367  1.3621
  875MOL0     H18077   7.919   3.018   6.151  0.6628 -0.9536  0.5950
  875MOL0     H18078   7.920   3.194   6.140 -2.1017 -2.0971  0.8382
  875MOL0     H18079   8.046   3.168   5.915  0.1427 -0.7757 -2.8067
  875MOL0     H18080   7.982   2.997   5.928 -0.3526  0.3845  0.7757
  875MOL0     H18081   7.860   3.156   5.784 -1.1230  2.0022  0.0453
  875MOL0     H18082   7.815   3.240   5.935 -0.7182 -0.4427  1.8451
  875MOL0     H18083   7.765   2.948   5.904 -1.2443 -0.6543 -2.7604
  875MOL0     H18084   7.662   3.058   5.814  2.9152 -1.1201 -2.0772
  875MOL0     H18085   7.714   2.841   6.131  0.1168  1.8922  1.3671
  875MOL0     H18086   7.572   2.647   6.177 -0.7611  0.0426  2.0888
  875MOL0     H18087   6.993   2.817   6.365 -0.6485  2.8734 -0.4737
  875MOL0     H18088   7.001   2.968   6.558  3.1525  1.8429  2.3392
  875MOL0     H18089   7.375   3.003   6.819 -0.0019  0.6622  0.2587
  875MOL0     H18090   7.426   3.080   6.661 -0.7674 -0.2773 -1.1166
  875MOL0     H18091   7.448   3.216   6.844 -0.0427 -1.1650  0.4006
  875MOL0     H18092   7.326   3.285   6.742 -0.9730 -1.0645 -1.0519
  875MOL0     H18093   7.210   3.304   6.955 -1.9026 -1.2210  1.0983
  875MOL0     H18094   7.166   3.141   6.919  0.8037 -0.9018  0.2387
  875MOL0     H18095   7.416   3.220   7.063  0.9605 -2.2453  0.4654
  875MOL0     H18096   7.361   3.053   7.063  0.3546 -0.2875  2.1231
  875MOL0     H18097   7.253   3.112   7.264 -4.1154  2.0449  2.6680
  875MOL0     H18098   7.144   3.184   7.144  1.4806  0.6110 -1.0078
  875MOL0     H18099   7.390   3.346   7.246  1.1248  0.6880 -2.6227
  875MOL0     H18100   7.244   3.411   7.170 -0.6535 -0.4466 -0.3098
  875MOL0     H18101   7.254   3.279   7.446  3.8592  3.0571  1.2176
  875MOL0     H18102   7.115   3.312   7.358  0.2007 -0.3714 -3.1204
  875MOL0     H18103   7.125   3.542   7.358  0.1066  1.9828  0.7350
  875MOL0     H18104   7.169   3.502   7.508  0.2702  0.9833  1.2104
  875MOL0     H18105   7.427   2.910   6.567  0.4695  3.0366  1.7124
  875MOL0     H18106   7.404   2.720   6.410  1.2626  0.7757  2.3169
  875MOL0     H18107   7.223   2.862   6.110  0.0531 -3.4789  3.4876
  875MOL0     H18108   7.376   3.070   6.020 -0.3532 -1.6787 -3.3615
  875MOL0     H18109   9.133   3.827   6.560 -0.3546 -1.4296 -0.6440
  875MOL0     H18110   9.379   3.919   6.528 -0.8634 -0.8951 -0.4450
  875MOL0     H18111   9.605   4.207   6.594  0.4287  0.4269 -0.1651
  875MOL0     H18112   9.769   4.370   6.559 -2.0035 -0.1208 -0.9815
  875MOL0     H18113  10.188   4.221   6.531  1.8809  3.2629  2.9769
  875MOL0     H18114  10.206   4.389   6.509  0.1915 -0.8122 -0.8233
  875MOL0     H18115  10.099   4.223   6.284 -0.0920 -2.1034  1.8858
  875MOL0     H18116  10.274   4.205   6.325  0.1754  0.0120 -1.8125
  875MOL0     H18117  10.129   4.483   6.270 -2.8023 -3.7629  3.0481
  875MOL0     H18118  10.166   4.363   6.146 -1.1498 -2.9952  0.9337
  875MOL0     H18119  10.408   4.359   6.205 -0.8536 -1.3996  0.8280
  875MOL0     H18120  10.356   4.517   6.136 -0.9296  2.7594  2.4014
  875MOL0     H18121  10.431   4.674   6.513 -0.7488 -0.2024  1.1867
  875MOL0     H18122  10.051   4.069   6.459 -1.0992  1.4583 -0.7277
  875MOL0     H18123   9.910   3.809   6.616 -0.9436 -2.4581 -1.2813
  875MOL0     H18124   9.857   3.790   6.453  2.2105  0.3596 -3.3800
  875MOL0     H18125  10.010   3.841   6.461 -2.3478 -0.8043 -2.7401
  876MOL0     O18126   5.619   7.666   8.416 -1.1816 -0.6870 -0.0264
  876MOL0     C18127   5.710   7.668   8.330  0.1927 -1.0752 -0.2900
  876MOL0     O18128   5.836   7.726   8.341  0.1524  0.1175  0.2588
  876MOL0     C18129   5.892   7.761   8.463  0.3436 -0.5680  0.0456
  876MOL0     C18130   5.910   7.901   8.489 -0.2134  0.1388  0.2733
  876MOL0     C18131   5.946   7.937   8.619 -0.1953 -0.1704  0.2400
  876MOL0     C18132   5.949   7.855   8.728 -0.0754  0.4460  0.1840
  876MOL0     O18133   5.974   7.898   8.856 -0.0856  0.7329 -1.0680
  876MOL0     C18134   5.987   8.035   8.901  0.2326  0.2322 -0.3441
  876MOL0     C18135   5.847   8.100   8.923  1.0738  0.3381 -0.4838
  876MOL0     C18136   5.722   7.997   8.922 -0.8030  0.0588 -0.0548
  876MOL0     C18137   5.610   8.060   8.986  0.4582 -0.9935 -1.2591
  876MOL0     C18138   5.484   7.968   8.985  0.6764  0.1363 -0.4139
  876MOL0     C18139   5.360   8.042   9.034  1.2451 -0.3906 -0.9521
  876MOL0     C18140   5.233   7.961   9.046  0.5877 -0.9938  0.0294
  876MOL0     C18141   5.116   8.037   9.114  0.3245 -0.2354 -1.0246
  876MOL0     N18142   4.998   7.955   9.138 -0.5837 -0.1021 -0.3175
  876MOL0     C18143   4.923   7.885   9.043 -0.3398 -0.2389  0.6893
  876MOL0     C18144   4.816   7.826   9.103 -0.7692  1.0327 -0.6188
  876MOL0     C18145   4.715   7.731   9.056  0.0118  0.2300  0.2378
  876MOL0     C18146   4.596   7.826   9.027  0.6812  1.2418 -0.5594
  876MOL0     C18147   4.522   7.839   9.150  0.6193 -0.3356 -0.2333
  876MOL0     C18148   4.373   7.899   9.139 -0.4839  0.0893 -0.6907
  876MOL0     O18149   4.292   7.805   9.079 -0.0777 -0.2178  0.1623
  876MOL0     C18150   4.188   7.757   9.154 -0.3296 -0.4869  0.0462
  876MOL0     C18151   4.210   7.696   9.276 -0.1461 -0.9354  0.2578
  876MOL0     C18152   4.110   7.650   9.364 -0.1582 -0.8508 -0.4111
  876MOL0     C18153   3.979   7.663   9.311 -0.0920  0.0950 -1.3096
  876MOL0     C18154   3.870   7.622   9.406 -0.5701  0.1767 -0.5568
  876MOL0     O18155   3.910   7.581   9.524  0.1630 -0.2847 -1.0071
  876MOL0     C18156   3.814   7.565   9.619 -0.7960  0.4308 -0.2608
  876MOL0     C18157   3.796   7.657   9.714 -0.0317  0.0193 -0.7210
  876MOL0     C18158   3.695   7.639   9.814 -0.1980  0.4094  0.1861
  876MOL0     C18159   3.624   7.516   9.825 -0.4127  0.4385 -1.0227
  876MOL0     O18160   3.515   7.492   9.914  0.2461  0.5265 -0.2600
  876MOL0     C18161   3.485   7.573  10.031  0.2531  0.4601  0.0608
  876MOL0     C18162   3.595   7.550  10.140  0.6437  0.9727  0.7068
  876MOL0     C18163   3.583   7.404  10.179  0.1906  1.4526 -0.1276
  876MOL0     C18164   3.661   7.391  10.308  0.2500  0.1056  1.0353
  876MOL0     C18165   3.624   7.255  10.378  0.3513 -0.1365  0.3251
  876MOL0     C18166   3.472   7.258  10.426 -0.5981  0.1743 -0.1603
  876MOL0     C18167   3.414   7.390  10.491  0.1697  0.2674 -0.5611
  876MOL0     C18168   3.467   7.425  10.629 -1.0475 -0.1200  0.1729
  876MOL0    Cl18169   3.404   7.310  10.746 -0.0165  0.2816  0.0915
  876MOL0     C18170   3.647   7.420   9.733 -0.2383  0.4981 -0.5788
  876MOL0     C18171   3.737   7.446   9.623 -0.9116  1.3780 -0.2619
  876MOL0     O18172   3.756   7.654   9.373 -0.5552  0.1201 -0.6420
  876MOL0     C18173   3.958   7.721   9.180  0.9136  1.0021 -0.2891
  876MOL0     C18174   4.060   7.760   9.100 -0.8617 -1.1124 -0.5910
  876MOL0     N18175   4.827   7.866   9.237 -0.0846  0.3285 -0.0875
  876MOL0     N18176   4.933   7.940   9.258 -0.4774  1.3281 -0.3010
  876MOL0     C18177   5.926   7.719   8.706  0.3119 -0.0051 -1.0020
  876MOL0     C18178   5.898   7.669   8.578  0.0984 -0.8837 -0.2610
  876MOL0     C18179   5.675   7.645   8.185  0.3299  0.2786 -0.6224
  876MOL0     C18180   5.742   7.716   8.083  0.4557  0.6582 -0.1030
  876MOL0     C18181   5.719   7.680   7.953  0.7321  0.0185 -0.6640
  876MOL0     C18182   5.626   7.585   7.914 -0.2674  0.5782  0.0369
  876MOL0     O18183   5.611   7.569   7.780  1.1008 -0.1626 -0.0651
  876MOL0     C18184   5.544   7.455   7.723 -0.7080  0.2446  0.4594
  876MOL0     C18185   5.657   7.358   7.672 -0.3205  1.0854 -0.2070
  876MOL0     C18186   5.767   7.326   7.775 -0.3183  1.0963 -0.8470
  876MOL0     C18187   5.845   7.201   7.721  0.7019 -0.5139 -0.4297
  876MOL0     C18188   5.918   7.229   7.591  0.4730 -0.6662 -0.0520
  876MOL0     C18189   5.981   7.226   7.490  0.0810  0.8050 -0.4362
  876MOL0     C18190   5.542   7.545   8.011 -0.0939  0.7205 -0.4701
  876MOL0     C18191   5.571   7.557   8.149  0.5118  0.1657 -0.5689
  876MOL0     C18192   5.481   7.486   8.246  0.0958  0.4135  0.2440
  876MOL0     H18193   5.896   7.974   8.410  0.9923  1.1495  0.9611
  876MOL0     H18194   5.964   8.042   8.637  0.0040 -0.3961  1.4664
  876MOL0     H18195   6.034   8.027   9.000 -3.2983 -0.4901  1.4635
  876MOL0     H18196   6.056   8.099   8.846  0.6701 -0.8445 -1.0789
  876MOL0     H18197   5.838   8.168   8.838  0.7477 -1.2415 -1.7712
  876MOL0     H18198   5.848   8.161   9.014  0.4334  2.1998 -1.6804
  876MOL0     H18199   5.752   7.903   8.970 -1.4072 -0.3312 -0.4270
  876MOL0     H18200   5.685   7.977   8.821 -4.3817 -1.4117  1.3541
  876MOL0     H18201   5.629   8.085   9.091  2.0233  0.3622 -1.8395
  876MOL0     H18202   5.575   8.149   8.933 -3.5642 -2.5055 -1.5591
  876MOL0     H18203   5.472   7.921   8.887  4.0895  1.0994 -1.4449
  876MOL0     H18204   5.513   7.895   9.062  0.5464  1.8217  1.3083
  876MOL0     H18205   5.393   8.075   9.133  0.5691  0.3994 -0.9832
  876MOL0     H18206   5.338   8.119   8.960  0.0513 -1.4272 -1.7333
  876MOL0     H18207   5.245   7.862   9.091  2.8467 -1.9545 -2.4206
  876MOL0     H18208   5.207   7.942   8.941  2.1128 -1.9679 -0.2130
  876MOL0     H18209   5.149   8.066   9.214  1.1262 -1.1984 -0.9945
  876MOL0     H18210   5.099   8.123   9.048 -3.4999 -1.5274 -1.9733
  876MOL0     H18211   4.940   7.887   8.936  0.5856  4.4460  0.7032
  876MOL0     H18212   4.749   7.689   8.961 -2.8484 -0.6485 -0.5138
  876MOL0     H18213   4.687   7.646   9.119  0.8390 -0.3257 -0.1246
  876MOL0     H18214   4.636   7.918   8.983  1.6297 -0.0053 -2.4460
  876MOL0     H18215   4.529   7.790   8.948  4.3226  0.1545 -3.4636
  876MOL0     H18216   4.578   7.907   9.215  1.0928 -0.0407 -0.9325
  876MOL0     H18217   4.507   7.743   9.200 -0.4035  0.3595  0.8529
  876MOL0     H18218   4.367   7.990   9.079  0.5491 -0.0126 -0.9679
  876MOL0     H18219   4.340   7.927   9.240 -4.6323 -3.3330 -0.8418
  876MOL0     H18220   4.313   7.684   9.308  0.5396  3.0193  0.0008
  876MOL0     H18221   4.146   7.618   9.461  1.3978  1.7989 -0.0141
  876MOL0     H18222   3.866   7.739   9.724  3.1393 -2.4774 -0.8705
  876MOL0     H18223   3.667   7.721   9.878 -2.7314  0.5737 -1.0117
  876MOL0     H18224   3.481   7.678  10.001 -1.5200  0.6855  0.9530
  876MOL0     H18225   3.383   7.555  10.067 -0.1205  0.8251 -0.7914
  876MOL0     H18226   3.691   7.572  10.092  0.6094  0.6225  0.4733
  876MOL0     H18227   3.573   7.620  10.221  0.3758  1.3341  0.3285
  876MOL0     H18228   3.480   7.380  10.205  0.2678 -0.2576 -1.2407
  876MOL0     H18229   3.631   7.340  10.104  0.9617  0.3589  1.2503
  876MOL0     H18230   3.637   7.473  10.376  1.2583  0.3369  1.1233
  876MOL0     H18231   3.770   7.388  10.297  0.1070  0.7788 -0.7663
  876MOL0     H18232   3.690   7.232  10.462  1.5127 -0.4250 -0.6396
  876MOL0     H18233   3.618   7.174  10.305 -2.9356  0.1884  0.0602
  876MOL0     H18234   3.408   7.218  10.347  0.7375 -2.3590 -0.0745
  876MOL0     H18235   3.461   7.181  10.503  3.3604  1.2968  1.8354
  876MOL0     H18236   3.305   7.386  10.502  0.1984  2.5522  1.3114
  876MOL0     H18237   3.430   7.477  10.426  1.1857  1.4877  1.2398
  876MOL0     H18238   3.576   7.417  10.628 -1.0179  0.2961 -0.9069
  876MOL0     H18239   3.451   7.529  10.659 -2.7353  0.1022 -1.3290
  876MOL0     H18240   3.595   7.325   9.724 -0.7509  0.4713  1.9675
  876MOL0     H18241   3.749   7.364   9.553 -0.7123 -1.0831  2.4537
  876MOL0     H18242   3.854   7.732   9.149  0.1298  2.0400  2.4246
  876MOL0     H18243   4.029   7.820   9.015 -3.2996 -1.9041 -0.3342
  876MOL0     H18244   5.926   7.647   8.787 -1.0180  0.1015 -0.8823
  876MOL0     H18245   5.889   7.561   8.574  0.5337 -0.9930  1.0996
  876MOL0     H18246   5.810   7.800   8.094  0.2202  1.0625 -1.5554
  876MOL0     H18247   5.776   7.733   7.877  1.3959  2.1252  1.2078
  876MOL0     H18248   5.490   7.488   7.634  3.6317  2.3664 -1.6349
  876MOL0     H18249   5.484   7.396   7.793 -0.9638  0.8395  0.7468
  876MOL0     H18250   5.713   7.395   7.585  1.9292  0.9647  1.1205
  876MOL0     H18251   5.603   7.266   7.647  1.0852  0.3168 -0.4716
  876MOL0     H18252   5.721   7.318   7.874 -0.2151  0.9179 -0.8133
  876MOL0     H18253   5.834   7.412   7.789 -0.9002  1.5188 -0.5954
  876MOL0     H18254   5.926   7.167   7.786 -0.4884 -0.7137  0.9723
  876MOL0     H18255   5.775   7.118   7.708  0.2864  0.1027 -2.6360
  876MOL0     H18256   6.025   7.228   7.393  1.7314 -2.1768  0.1314
  876MOL0     H18257   5.455   7.487   7.981 -0.5921  0.8663  0.6169
  876MOL0     H18258   5.429   7.407   8.191 -0.4315 -0.2639  1.6713
  876MOL0     H18259   5.534   7.444   8.332  1.3138 -0.0169 -0.7017
  876MOL0     H18260   5.405   7.560   8.276  0.2761  0.2688  1.0987
  877MOL0     O18261   9.937   8.489   3.805 -0.2154 -0.0246  0.7015
  877MOL0     C18262   9.907   8.523   3.919 -0.4926  0.0241  0.2126
  877MOL0     O18263   9.957   8.471   4.023 -0.0897  0.6002  0.2115
  877MOL0     C18264  10.078   8.405   4.033 -0.7425  0.8524  0.6233
  877MOL0     C18265  10.084   8.307   4.125 -0.2198 -0.4286 -0.2501
  877MOL0     C18266  10.208   8.241   4.153 -0.2644  0.2569 -0.1914
  877MOL0     C18267  10.319   8.266   4.070  0.0617  0.8155 -0.0737
  877MOL0     O18268  10.431   8.196   4.089 -1.0708  0.8079 -0.6624
  877MOL0     C18269  10.551   8.254   4.110 -0.7969  0.9824 -0.2396
  877MOL0     C18270  10.626   8.171   4.215 -0.1964  0.3697  0.6246
  877MOL0     C18271  10.656   8.023   4.183 -0.0834 -0.1674 -0.6294
  877MOL0     C18272  10.747   7.969   4.299  1.2378 -0.6615  1.2621
  877MOL0     C18273  10.680   7.934   4.436  0.0755 -0.1476 -0.1417
  877MOL0     C18274  10.789   7.890   4.541  0.3886 -0.4240  0.5683
  877MOL0     C18275  10.722   7.862   4.675 -0.2979  0.5029 -0.6465
  877MOL0     C18276  10.595   7.781   4.682 -0.1325 -0.4542  0.2277
  877MOL0     N18277  10.565   7.736   4.821  0.2476 -0.4525  0.2017
  877MOL0     C18278  10.593   7.607   4.863 -0.5173  0.0639  1.0037
  877MOL0     C18279  10.543   7.595   4.988 -0.1396  0.2752  0.3651
  877MOL0     C18280  10.545   7.478   5.080 -1.2230 -0.6107 -0.0739
  877MOL0     C18281  10.429   7.384   5.039  0.1545  0.4271  0.1725
  877MOL0     C18282  10.411   7.256   5.114 -0.0847  0.6218 -0.0004
  877MOL0     C18283  10.364   7.273   5.257 -0.7150  0.6206 -0.5405
  877MOL0     O18284  10.260   7.369   5.281 -0.0617 -0.6671 -0.1147
  877MOL0     C18285  10.144   7.360   5.212  1.1022  0.2518 -0.3965
  877MOL0     C18286  10.086   7.242   5.153 -0.0123 -0.4245  0.7115
  877MOL0     C18287   9.968   7.257   5.073  1.1189 -0.4288 -0.1351
  877MOL0     C18288   9.915   7.383   5.044 -0.5062  0.0151 -0.5225
  877MOL0     C18289   9.796   7.392   4.968 -0.1638 -0.7127 -0.2065
  877MOL0     O18290   9.709   7.282   4.968 -0.4698 -0.6437  0.5605
  877MOL0     C18291   9.581   7.289   4.914  0.6068  0.1014  0.6622
  877MOL0     C18292   9.527   7.169   4.865 -0.6574 -0.5446  0.3627
  877MOL0     C18293   9.394   7.155   4.818 -0.4707  0.6258 -1.0434
  877MOL0     C18294   9.323   7.271   4.808  0.4270  0.0118  0.1284
  877MOL0     O18295   9.197   7.254   4.736 -0.9541 -0.5011 -0.3256
  877MOL0     C18296   9.114   7.375   4.716  0.1969  0.3306 -0.3210
  877MOL0     C18297   8.980   7.348   4.645 -1.0123 -0.2232  1.1819
  877MOL0     C18298   8.993   7.246   4.530 -1.1259  0.2834 -0.1188
  877MOL0     C18299   8.932   7.118   4.548  1.0809 -0.0584 -0.4294
  877MOL0     C18300   9.009   7.016   4.634  0.6781 -0.1643  0.1212
  877MOL0     C18301   8.961   6.872   4.611  0.6179 -0.5050 -1.0047
  877MOL0     C18302   8.845   6.828   4.713 -0.2403  1.2357  0.1907
  877MOL0     C18303   8.729   6.915   4.718  0.4426  0.4876 -0.0191
  877MOL0    Cl18304   8.647   6.946   4.557 -0.0017 -0.3979  0.0442
  877MOL0     C18305   9.375   7.398   4.846 -0.1246  0.3679 -0.2233
  877MOL0     C18306   9.500   7.399   4.915  0.6765  0.2772 -0.0394
  877MOL0     O18307   9.771   7.496   4.920  0.6664 -0.2829 -0.8034
  877MOL0     C18308   9.989   7.500   5.087 -0.4019  1.1783 -0.7150
  877MOL0     C18309  10.083   7.481   5.188  0.1029 -0.1618 -0.4978
  877MOL0     N18310  10.485   7.724   5.027 -0.7450 -0.0237  0.2984
  877MOL0     N18311  10.488   7.799   4.920 -0.1741  0.0604 -0.0916
  877MOL0     C18312  10.311   8.366   3.979  0.5871  0.4098  0.0704
  877MOL0     C18313  10.191   8.430   3.956 -0.3115 -0.7470  0.3652
  877MOL0     C18314   9.795   8.619   3.930  0.0938 -0.2305 -0.0545
  877MOL0     C18315   9.704   8.580   4.034  0.2721 -0.6266  0.1736
  877MOL0     C18316   9.584   8.648   4.049 -0.4492 -0.8934 -0.3805
  877MOL0     C18317   9.556   8.765   3.981  0.1002  1.4133 -0.3661
  877MOL0     O18318   9.442   8.822   4.023  0.2180 -1.0247  0.0852
  877MOL0     C18319   9.436   8.968   3.999 -0.4410 -0.3182  0.0637
  877MOL0     C18320   9.552   9.043   4.062 -0.6348 -0.8512  0.4752
  877MOL0     C18321   9.563   9.192   4.008 -0.3091  0.2318  0.3625
  877MOL0     C18322   9.682   9.263   4.078 -0.3379  0.4299 -0.4077
  877MOL0     C18323   9.688   9.406   4.045 -0.3111  0.2288 -0.6760
  877MOL0     C18324   9.686   9.528   4.045 -0.4654 -0.3327 -0.7623
  877MOL0     C18325   9.654   8.804   3.881 -0.2061 -0.6761  0.1719
  877MOL0     C18326   9.767   8.730   3.851 -0.7238  0.8841  0.3404
  877MOL0     C18327   9.857   8.788   3.744 -0.0409 -0.4266 -0.2374
  877MOL0     H18328   9.994   8.299   4.186  1.1211  1.5127  2.1936
  877MOL0     H18329  10.227   8.173   4.236  0.1681 -2.4576 -2.3495
  877MOL0     H18330  10.612   8.261   4.019  0.6178  0.8113  0.6515
  877MOL0     H18331  10.526   8.351   4.153 -4.1553  0.4161 -0.6507
  877MOL0     H18332  10.563   8.179   4.304 -1.7352  1.7114 -0.5220
  877MOL0     H18333  10.720   8.224   4.234 -0.2536  0.7452 -0.0989
  877MOL0     H18334  10.703   8.013   4.084  0.0291 -2.3363 -0.4103
  877MOL0     H18335  10.564   7.964   4.193  0.0666 -0.3442 -0.2935
  877MOL0     H18336  10.782   7.872   4.261  0.6355 -0.7110  0.8201
  877MOL0     H18337  10.847   8.014   4.302  0.3883  1.6984 -1.2005
  877MOL0     H18338  10.639   8.026   4.479  1.7181  0.8668 -0.6873
  877MOL0     H18339  10.598   7.862   4.422  0.9101 -1.7024  2.4160
  877MOL0     H18340  10.826   7.792   4.509 -0.0658 -0.6888  0.8357
  877MOL0     H18341  10.881   7.949   4.546  1.0813 -1.5728  3.6399
  877MOL0     H18342  10.708   7.951   4.738  0.8347  1.7223 -2.0577
  877MOL0     H18343  10.798   7.813   4.737  0.4756 -0.3054 -2.1959
  877MOL0     H18344  10.515   7.850   4.651  0.4412  0.9942  1.8119
  877MOL0     H18345  10.592   7.704   4.605 -1.8747  2.1256 -2.5466
  877MOL0     H18346  10.628   7.525   4.801  2.7135  2.6851 -0.9485
  877MOL0     H18347  10.641   7.425   5.070 -0.3475  0.7099  0.9303
  877MOL0     H18348  10.545   7.506   5.186  1.2617 -2.7390  0.6052
  877MOL0     H18349  10.335   7.440   5.035  0.7880  1.4217 -1.4298
  877MOL0     H18350  10.450   7.356   4.935  4.1956  1.6961  0.4694
  877MOL0     H18351  10.507   7.205   5.111  1.1217  2.4940  2.8856
  877MOL0     H18352  10.334   7.199   5.061  0.9405  0.3064 -1.2153
  877MOL0     H18353  10.451   7.266   5.324 -0.6408 -0.1732 -0.7012
  877MOL0     H18354  10.331   7.175   5.294  1.1119  0.8068  1.8148
  877MOL0     H18355  10.116   7.139   5.169  1.1385 -0.6007 -2.0189
  877MOL0     H18356   9.908   7.171   5.048 -3.4052  2.1151  0.7476
  877MOL0     H18357   9.593   7.086   4.890  1.6063  0.8910 -0.5448
  877MOL0     H18358   9.354   7.061   4.783 -4.4000  2.1552 -1.1892
  877MOL0     H18359   9.083   7.426   4.808 -2.6740  1.3129 -1.7316
  877MOL0     H18360   9.177   7.442   4.657  0.8632 -2.1359 -2.6069
  877MOL0     H18361   8.905   7.316   4.718 -0.4637  1.0418  2.3457
  877MOL0     H18362   8.937   7.439   4.603 -2.4080 -1.6976 -0.7534
  877MOL0     H18363   8.960   7.302   4.442  2.7906 -0.0338 -2.0124
  877MOL0     H18364   9.101   7.235   4.516 -1.3737  0.6149 -3.0023
  877MOL0     H18365   8.914   7.080   4.447  0.7303  2.3830 -1.3315
  877MOL0     H18366   8.835   7.132   4.597  0.7208  1.3823 -1.4765
  877MOL0     H18367   9.011   7.045   4.740  0.7766 -1.3322  0.4506
  877MOL0     H18368   9.116   7.023   4.608  1.1279 -2.5414  1.0763
  877MOL0     H18369   8.922   6.862   4.510  1.4742 -0.8554 -1.3080
  877MOL0     H18370   9.043   6.802   4.627 -0.3402 -1.0945  2.2205
  877MOL0     H18371   8.893   6.812   4.811  1.1711  0.2577 -0.6221
  877MOL0     H18372   8.802   6.735   4.674 -0.8260 -0.0354  3.4657
  877MOL0     H18373   8.661   6.863   4.786  0.1438 -0.8376 -1.2927
  877MOL0     H18374   8.766   7.002   4.774 -0.9771  0.7428  0.5667
  877MOL0     H18375   9.325   7.493   4.841  1.7008  1.4609  0.9683
  877MOL0     H18376   9.539   7.481   4.974  0.1599 -1.5486  3.0538
  877MOL0     H18377   9.954   7.599   5.058 -1.9747  0.4635 -1.4336
  877MOL0     H18378  10.127   7.560   5.248  2.2717 -0.7224 -1.2596
  877MOL0     H18379  10.379   8.385   3.897 -2.9409  0.3677 -3.1173
  877MOL0     H18380  10.175   8.501   3.876  0.3135 -2.0088 -0.9197
  877MOL0     H18381   9.716   8.490   4.094  0.1173 -0.0867  1.0265
  877MOL0     H18382   9.516   8.626   4.131 -0.4266  1.5188  0.3502
  877MOL0     H18383   9.343   9.008   4.039 -0.6210  0.5356 -1.1528
  877MOL0     H18384   9.431   8.979   3.890  0.5626 -3.8222 -0.4705
  877MOL0     H18385   9.652   9.001   4.046  0.0774  1.6425 -2.5661
  877MOL0     H18386   9.532   9.045   4.170  2.9150 -1.9550  1.2809
  877MOL0     H18387   9.469   9.247   4.025  0.5818  1.6731  0.7645
  877MOL0     H18388   9.581   9.193   3.901 -2.1408 -4.1468 -0.2306
  877MOL0     H18389   9.678   9.254   4.187  0.2145 -0.0961 -0.4255
  877MOL0     H18390   9.776   9.227   4.036 -0.3433 -0.0238 -0.0527
  877MOL0     H18391   9.697   9.634   4.051  2.8960 -0.6526  3.2791
  877MOL0     H18392   9.630   8.897   3.831 -2.9274 -0.5976  1.4295
  877MOL0     H18393   9.961   8.764   3.769  0.5448  0.6420 -1.5353
  877MOL0     H18394   9.837   8.748   3.645 -1.9465  1.2452 -0.5822
  877MOL0     H18395   9.848   8.897   3.751 -1.0394 -0.4666 -0.7294
  878MOL0     O18396   7.623   3.739   9.224 -0.2099 -0.4378  0.2158
  878MOL0     C18397   7.599   3.645   9.295 -0.3586 -0.0901 -0.3702
  878MOL0     O18398   7.690   3.548   9.330 -0.2292 -0.4067  0.6627
  878MOL0     C18399   7.826   3.548   9.312  0.5995  0.2063 -0.5050
  878MOL0     C18400   7.907   3.626   9.225 -0.0300 -0.4507 -0.7636
  878MOL0     C18401   8.047   3.624   9.235  0.2395  0.8599 -0.6432
  878MOL0     C18402   8.112   3.536   9.323  0.2160  0.0000  0.1243
  878MOL0     O18403   8.240   3.525   9.359 -0.0151  0.5263  0.3970
  878MOL0     C18404   8.322   3.528   9.240  0.8037  0.2874 -0.6480
  878MOL0     C18405   8.469   3.560   9.278 -0.8581 -0.0483  0.0932
  878MOL0     C18406   8.480   3.709   9.325  0.1030 -0.0078  0.1157
  878MOL0     C18407   8.595   3.738   9.423  0.8513  0.1774  0.3027
  878MOL0     C18408   8.602   3.876   9.472 -0.4240  0.9806  0.1028
  878MOL0     C18409   8.477   3.950   9.514 -0.6932 -0.3636  0.1137
  878MOL0     C18410   8.412   3.875   9.630 -0.1206 -0.3714  0.1577
  878MOL0     C18411   8.274   3.923   9.664 -0.4024 -0.1220 -0.3957
  878MOL0     N18412   8.286   4.060   9.720  0.0369  0.3349 -0.4084
  878MOL0     C18413   8.335   4.077   9.847  0.0638 -0.6153 -0.1320
  878MOL0     C18414   8.330   4.219   9.855 -0.0259 -0.3202  0.8532
  878MOL0     C18415   8.383   4.290   9.982  0.1365 -0.2880  0.3018
  878MOL0     C18416   8.354   4.438   9.987  0.0914  0.1499 -0.4854
  878MOL0     C18417   8.440   4.515   9.882  0.0118  0.4218 -0.1274
  878MOL0     C18418   8.372   4.643   9.843 -0.1755  0.0569  0.3220
  878MOL0     O18419   8.365   4.741   9.949 -0.0284 -0.0265 -0.0113
  878MOL0     C18420   8.462   4.840   9.967 -0.8723 -0.4080  0.2975
  878MOL0     C18421   8.458   4.889  10.094  0.5472 -0.1475 -0.1721
  878MOL0     C18422   8.547   4.985  10.138  0.3306 -0.0489 -0.0377
  878MOL0     C18423   8.649   5.026  10.046 -0.9346  0.0475  0.6866
  878MOL0     C18424   8.741   5.138  10.079 -0.6059 -0.3556  0.0858
  878MOL0     O18425   8.813   5.198   9.980  0.3254  0.3331  1.0655
  878MOL0     C18426   8.905   5.287  10.011  0.1197  0.7048 -0.5746
  878MOL0     C18427   9.040   5.258   9.976  0.1389 -0.7215 -0.1207
  878MOL0     C18428   9.129   5.367  10.010 -0.1226  0.6012 -1.1210
  878MOL0     C18429   9.093   5.494  10.050 -0.5903 -0.5792 -0.3159
  878MOL0     O18430   9.180   5.596  10.092 -0.6543 -0.6892  0.7782
  878MOL0     C18431   9.314   5.578  10.048  0.3560 -0.2337 -1.0383
  878MOL0     C18432   9.383   5.714  10.060 -0.6824 -0.0197  0.1526
  878MOL0     C18433   9.535   5.712  10.028  0.9669 -0.0785 -0.0073
  878MOL0     C18434   9.575   5.695   9.881  0.3977 -0.9202  0.0119
  878MOL0     C18435   9.726   5.698   9.855 -0.7100 -0.1341 -0.2274
  878MOL0     C18436   9.781   5.839   9.864 -0.6551  0.3243  1.3056
  878MOL0     C18437   9.932   5.841   9.823  0.4861 -0.0311  0.5566
  878MOL0     C18438  10.010   5.968   9.845 -0.2079  0.4478 -0.2511
  878MOL0    Cl18439   9.987   6.018  10.024  0.4177  0.0930 -0.5247
  878MOL0     C18440   8.957   5.515  10.067 -0.4843  0.2849 -0.4692
  878MOL0     C18441   8.867   5.413  10.057  0.2573 -0.0738  0.4967
  878MOL0     O18442   8.760   5.148  10.195  1.0532 -0.3068  1.0521
  878MOL0     C18443   8.649   4.974   9.916 -0.2172 -0.0317  0.0682
  878MOL0     C18444   8.564   4.870   9.875 -0.1911 -0.7086  0.2723
  878MOL0     N18445   8.268   4.268   9.750 -0.2446  0.1648 -0.0092
  878MOL0     N18446   8.247   4.173   9.669 -1.0292 -0.2919 -0.1422
  878MOL0     C18447   8.034   3.452   9.405 -0.0094 -0.5924 -0.0422
  878MOL0     C18448   7.898   3.457   9.398  0.6456  0.6283  1.0813
  878MOL0     C18449   7.463   3.628   9.347 -0.3784 -0.1218 -0.1571
  878MOL0     C18450   7.429   3.503   9.402  0.1881  0.2637  0.3415
  878MOL0     C18451   7.299   3.475   9.452 -0.4628  0.1647 -0.7981
  878MOL0     C18452   7.211   3.576   9.483  0.9758 -0.5195  0.7200
  878MOL0     O18453   7.085   3.550   9.534 -0.3037  0.2571  0.1811
  878MOL0     C18454   6.996   3.659   9.538  1.1568 -0.7046 -0.2706
  878MOL0     C18455   6.850   3.617   9.543  0.1616  0.3542 -0.3981
  878MOL0     C18456   6.771   3.739   9.550  0.1010 -0.0853 -0.2664
  878MOL0     C18457   6.621   3.707   9.552 -0.4355  0.2505  0.0054
  878MOL0     C18458   6.590   3.630   9.681 -0.1426 -0.0893 -0.2509
  878MOL0     C18459   6.555   3.563   9.776 -0.0166  0.4446 -0.6129
  878MOL0     C18460   7.243   3.702   9.429  0.3637  0.0660 -0.5059
  878MOL0     C18461   7.363   3.729   9.361 -0.5060  0.1600  0.1120
  878MOL0     C18462   7.390   3.880   9.331 -0.7618  0.8943 -0.3131
  878MOL0     H18463   7.857   3.684   9.148  1.6813  0.0102 -1.5841
  878MOL0     H18464   8.092   3.699   9.171 -4.3924  2.0247 -2.9762
  878MOL0     H18465   8.298   3.434   9.188 -0.5278  0.4322 -0.3469
  878MOL0     H18466   8.287   3.605   9.172 -3.9772 -0.1766  0.9262
  878MOL0     H18467   8.540   3.537   9.197  0.4735 -0.6398  1.3774
  878MOL0     H18468   8.494   3.508   9.371 -1.4140  1.1458  0.9352
  878MOL0     H18469   8.384   3.740   9.368  0.1718  0.5844 -0.1492
  878MOL0     H18470   8.506   3.775   9.241 -0.1797  1.7626  1.3545
  878MOL0     H18471   8.583   3.672   9.509 -2.5187  1.4958  1.0013
  878MOL0     H18472   8.693   3.715   9.380  0.2089 -2.7607  0.2343
  878MOL0     H18473   8.679   3.882   9.550 -0.4436 -1.2626  0.3422
  878MOL0     H18474   8.649   3.932   9.391 -2.9926 -0.8995 -2.8943
  878MOL0     H18475   8.507   4.048   9.553 -1.2770 -1.3094  3.2049
  878MOL0     H18476   8.408   3.973   9.432 -0.3940  1.4705  0.3296
  878MOL0     H18477   8.475   3.889   9.717  2.3090 -1.4297 -1.3216
  878MOL0     H18478   8.400   3.768   9.610  1.4168 -0.9887  2.2496
  878MOL0     H18479   8.201   3.929   9.582 -1.7373 -1.6423  0.6259
  878MOL0     H18480   8.224   3.861   9.739 -1.2954  1.6680  0.5512
  878MOL0     H18481   8.367   4.007   9.924  1.2697 -2.2779 -2.0681
  878MOL0     H18482   8.338   4.236  10.065  1.1324 -0.2123  0.9084
  878MOL0     H18483   8.488   4.260   9.992 -0.1128 -0.6614  2.1538
  878MOL0     H18484   8.248   4.464   9.977  0.4228  2.2209  0.7791
  878MOL0     H18485   8.382   4.464  10.089 -1.5640 -2.6583  0.7901
  878MOL0     H18486   8.462   4.451   9.796 -0.0401  1.5950 -1.0313
  878MOL0     H18487   8.540   4.541   9.919 -0.6105  1.2293  1.0512
  878MOL0     H18488   8.267   4.628   9.819 -1.2388  1.5444  3.4841
  878MOL0     H18489   8.438   4.678   9.763  1.3714 -1.4245  0.8804
  878MOL0     H18490   8.388   4.846  10.165  0.0405  1.5608  0.4337
  878MOL0     H18491   8.533   5.034  10.234 -4.8011  0.0252 -0.5796
  878MOL0     H18492   9.069   5.157   9.948 -1.9737 -1.1438 -0.9429
  878MOL0     H18493   9.235   5.341  10.009  0.3031  2.0296  0.7266
  878MOL0     H18494   9.356   5.492  10.101 -1.5787 -1.2746 -1.0722
  878MOL0     H18495   9.315   5.560   9.940  0.7575  2.0475 -1.4549
  878MOL0     H18496   9.330   5.787   9.998 -0.9938  0.5905  1.1004
  878MOL0     H18497   9.358   5.750  10.161 -2.9221 -0.6341 -0.1280
  878MOL0     H18498   9.572   5.792  10.093 -0.8633 -1.7658  3.3796
  878MOL0     H18499   9.587   5.632  10.080  2.4750  0.9686  0.1709
  878MOL0     H18500   9.514   5.762   9.820  0.1300 -1.2063 -0.0372
  878MOL0     H18501   9.539   5.592   9.871 -2.0382 -0.1894  0.5326
  878MOL0     H18502   9.731   5.663   9.751  1.1606 -0.2208 -0.1412
  878MOL0     H18503   9.772   5.632   9.928 -2.1454  1.0599  1.8543
  878MOL0     H18504   9.727   5.904   9.795  0.5000 -2.9224 -3.0593
  878MOL0     H18505   9.757   5.872   9.966 -3.1802  0.0908  0.8345
  878MOL0     H18506   9.937   5.821   9.715 -0.8347  0.5465  0.3686
  878MOL0     H18507   9.983   5.762   9.879 -0.0241  0.0973  1.2074
  878MOL0     H18508  10.113   5.954   9.812 -0.7263 -1.9254 -1.0633
  878MOL0     H18509   9.968   6.044   9.779  0.1720 -1.3920 -2.7373
  878MOL0     H18510   8.917   5.613  10.088  2.6086  1.6321 -0.3406
  878MOL0     H18511   8.766   5.433  10.091 -0.0675  0.6068 -0.8035
  878MOL0     H18512   8.724   5.002   9.842  1.2832 -3.8871 -0.1461
  878MOL0     H18513   8.577   4.820   9.779  1.8224 -0.9595  0.6223
  878MOL0     H18514   8.075   3.379   9.475 -0.7561 -3.7194 -2.6136
  878MOL0     H18515   7.832   3.411   9.471 -1.9760  0.5096 -1.1790
  878MOL0     H18516   7.503   3.424   9.394  0.0435  0.2973 -2.1381
  878MOL0     H18517   7.271   3.377   9.490  0.1903  0.3685  0.2424
  878MOL0     H18518   7.001   3.730   9.454  2.4147  0.1240  0.4593
  878MOL0     H18519   7.020   3.725   9.621  2.4421 -1.2452 -0.1798
  878MOL0     H18520   6.840   3.554   9.632 -1.8141  0.3461 -0.5873
  878MOL0     H18521   6.818   3.569   9.451  2.8568 -0.3247 -1.0859
  878MOL0     H18522   6.797   3.793   9.458  2.3257  4.3676  2.6596
  878MOL0     H18523   6.789   3.808   9.632 -0.6672  0.4324 -0.5177
  878MOL0     H18524   6.561   3.799   9.549 -1.1502 -0.2166 -0.2196
  878MOL0     H18525   6.587   3.663   9.458 -3.7262  1.4036  0.4896
  878MOL0     H18526   6.544   3.503   9.864  1.1099  0.1806 -0.6438
  878MOL0     H18527   7.186   3.794   9.434 -0.0126 -0.2313  2.5937
  878MOL0     H18528   7.360   3.941   9.417 -0.0254 -1.8368  2.0605
  878MOL0     H18529   7.496   3.898   9.312 -0.6813 -0.6730 -1.5977
  878MOL0     H18530   7.353   3.909   9.233  1.4181 -0.2895 -1.5642
  879MOL0     O18531   3.769   5.302   4.137  0.5248 -0.4338  0.6408
  879MOL0     C18532   3.832   5.386   4.080 -0.0299  0.4042  0.2349
  879MOL0     O18533   3.804   5.512   4.069  0.3333 -0.6368  0.5527
  879MOL0     C18534   3.695   5.565   4.131 -0.4610  0.6067 -0.0713
  879MOL0     C18535   3.560   5.550   4.089  0.3905 -0.1338 -0.4732
  879MOL0     C18536   3.449   5.614   4.156  0.3691  0.5805  0.5156
  879MOL0     C18537   3.476   5.686   4.267 -0.3326 -0.0476  0.0082
  879MOL0     O18538   3.376   5.739   4.336  0.0670 -0.1101 -0.3040
  879MOL0     C18539   3.310   5.657   4.428  0.7870  0.0002 -0.7394
  879MOL0     C18540   3.350   5.699   4.572 -0.5435  0.1328  0.2941
  879MOL0     C18541   3.284   5.826   4.615  0.3204 -0.0665  0.3777
  879MOL0     C18542   3.135   5.816   4.626 -0.3725  0.5286  0.1751
  879MOL0     C18543   3.064   5.932   4.556 -0.3546  0.2077 -0.4034
  879MOL0     C18544   2.914   5.931   4.578  1.1651  0.5457 -0.0386
  879MOL0     C18545   2.835   6.017   4.486 -0.1753  0.7020 -0.7332
  879MOL0     C18546   2.839   6.162   4.531 -0.1804 -1.2014  0.7775
  879MOL0     N18547   2.850   6.259   4.418  0.7264 -0.4337 -0.6916
  879MOL0     C18548   2.962   6.265   4.343 -0.5507 -0.1081 -0.0609
  879MOL0     C18549   2.923   6.333   4.233 -0.1353 -0.2038 -0.7494
  879MOL0     C18550   3.014   6.355   4.115  0.0113  0.1078  0.2316
  879MOL0     C18551   3.027   6.228   4.025  0.1866  0.5194  0.8336
  879MOL0     C18552   3.120   6.236   3.898 -1.6560  0.1450 -0.5723
  879MOL0     C18553   3.265   6.264   3.934 -0.1674  0.7137  0.1269
  879MOL0     O18554   3.329   6.140   3.952  0.1274  0.0852 -0.3257
  879MOL0     C18555   3.465   6.119   3.938  0.8895  0.0744 -0.0799
  879MOL0     C18556   3.508   5.991   3.963  1.1462  0.3716 -0.8876
  879MOL0     C18557   3.641   5.953   3.945  0.1505 -0.2833  0.1271
  879MOL0     C18558   3.740   6.045   3.901  0.1047  0.5218  0.3033
  879MOL0     C18559   3.884   6.005   3.890  0.4024  0.8674  0.8129
  879MOL0     O18560   3.923   5.881   3.934 -0.4224 -0.3518 -0.2383
  879MOL0     C18561   4.051   5.831   3.934  0.7601 -0.1100  0.2900
  879MOL0     C18562   4.074   5.721   4.009 -0.3475  0.5680  0.1271
  879MOL0     C18563   4.205   5.654   3.999  0.3982 -0.3794 -0.0313
  879MOL0     C18564   4.313   5.702   3.924 -0.2743  0.2199 -0.1318
  879MOL0     O18565   4.428   5.635   3.912  0.3915  0.5359  0.0103
  879MOL0     C18566   4.470   5.548   4.014  0.0815  0.3850 -0.1268
  879MOL0     C18567   4.617   5.532   3.990  0.1089  1.0162  0.1030
  879MOL0     C18568   4.700   5.646   3.935  0.2836 -0.5515 -0.6801
  879MOL0     C18569   4.700   5.774   4.015  0.4129  0.0357  0.1725
  879MOL0     C18570   4.792   5.866   3.940 -0.2012  0.7575 -0.5492
  879MOL0     C18571   4.811   5.993   4.021 -0.2290  1.4326  0.7165
  879MOL0     C18572   4.917   6.079   3.963  0.9694 -1.0958  0.6231
  879MOL0     C18573   4.972   6.173   4.056 -0.4456  0.3854 -0.6341
  879MOL0    Cl18574   4.868   6.308   4.072 -0.0934  0.1817  0.3645
  879MOL0     C18575   4.287   5.811   3.844 -0.3050  0.6514  0.4854
  879MOL0     C18576   4.159   5.872   3.848 -0.3528 -0.0292  0.0302
  879MOL0     O18577   3.961   6.091   3.841  0.5549 -0.6738  0.1282
  879MOL0     C18578   3.700   6.175   3.873 -0.3239 -0.4699  0.0738
  879MOL0     C18579   3.564   6.211   3.894 -0.3170 -0.1825  1.0521
  879MOL0     N18580   2.788   6.375   4.247 -0.6074 -0.7224  0.1581
  879MOL0     N18581   2.746   6.317   4.354  0.8375  0.4201 -1.1074
  879MOL0     C18582   3.611   5.707   4.314  0.1685  0.5014 -0.5449
  879MOL0     C18583   3.717   5.640   4.245  0.4036 -0.6944 -0.0419
  879MOL0     C18584   3.946   5.330   3.998  1.7659  0.1382  0.4510
  879MOL0     C18585   4.000   5.411   3.893  0.8021 -0.2820 -0.7179
  879MOL0     C18586   4.101   5.366   3.812  0.1591 -0.1630 -0.5150
  879MOL0     C18587   4.160   5.253   3.837 -0.7855  1.2025  0.7519
  879MOL0     O18588   4.280   5.228   3.771  0.1955 -0.1474  0.0285
  879MOL0     C18589   4.388   5.160   3.833  0.1379  0.1300  0.7684
  879MOL0     C18590   4.501   5.160   3.730 -0.7557 -0.4724  0.1376
  879MOL0     C18591   4.483   5.070   3.604  0.6772  0.3372  0.2826
  879MOL0     C18592   4.437   4.925   3.633  0.4410  0.5946 -0.2450
  879MOL0     C18593   4.386   4.853   3.515  0.7026  0.1545 -0.1407
  879MOL0     C18594   4.349   4.773   3.436 -0.0798 -0.4072  0.5816
  879MOL0     C18595   4.118   5.175   3.942  0.0090 -0.1662 -0.0720
  879MOL0     C18596   4.008   5.202   4.024 -0.6697  0.6628 -1.0511
  879MOL0     C18597   3.977   5.098   4.135 -0.1335 -0.1157  1.0426
  879MOL0     H18598   3.550   5.486   4.003  1.3439  0.1543 -0.8102
  879MOL0     H18599   3.347   5.596   4.125  0.9308  0.1617 -1.2134
  879MOL0     H18600   3.202   5.648   4.413  0.7427 -2.3115  0.5284
  879MOL0     H18601   3.349   5.557   4.408  2.0931 -0.0635  1.7067
  879MOL0     H18602   3.459   5.710   4.569 -0.7504  2.3739 -1.1586
  879MOL0     H18603   3.317   5.624   4.644 -0.1405 -0.4840 -0.1471
  879MOL0     H18604   3.312   5.912   4.554 -2.3549  0.1562 -0.6772
  879MOL0     H18605   3.318   5.856   4.714 -1.5152 -0.6641  1.2462
  879MOL0     H18606   3.078   5.724   4.608 -2.7816  2.1670 -1.2937
  879MOL0     H18607   3.115   5.820   4.733 -0.8671  2.8279  0.0619
  879MOL0     H18608   3.103   6.028   4.591 -1.9644  2.8147 -4.9229
  879MOL0     H18609   3.090   5.926   4.450  0.5457 -0.0752 -0.1699
  879MOL0     H18610   2.903   5.829   4.541  0.7533  1.2847 -2.0992
  879MOL0     H18611   2.889   5.939   4.684  4.5933  1.2413  0.8406
  879MOL0     H18612   2.731   5.986   4.500  0.9432 -2.8579  0.8716
  879MOL0     H18613   2.867   6.005   4.382 -4.6766 -0.0215 -2.2399
  879MOL0     H18614   2.749   6.182   4.590  0.3238  0.4251  1.0425
  879MOL0     H18615   2.928   6.185   4.592 -1.3228  3.6136  1.0721
  879MOL0     H18616   3.064   6.245   4.373 -0.8297 -0.2570  0.8423
  879MOL0     H18617   2.988   6.442   4.053  0.1676  0.8278  1.1493
  879MOL0     H18618   3.113   6.395   4.140  0.6001  1.2304 -3.2982
  879MOL0     H18619   3.063   6.147   4.089 -3.9126 -0.7151  1.8368
  879MOL0     H18620   2.925   6.196   4.002 -0.4543  1.3240  2.4541
  879MOL0     H18621   3.087   6.314   3.830  1.9293 -1.2803 -4.4260
  879MOL0     H18622   3.117   6.134   3.859  0.6051 -0.2540  0.1185
  879MOL0     H18623   3.259   6.330   4.021  1.8245  0.7905  0.2376
  879MOL0     H18624   3.319   6.317   3.855  0.9418 -0.9030 -0.2299
  879MOL0     H18625   3.443   5.911   3.997 -0.7635  2.1543 -0.1309
  879MOL0     H18626   3.670   5.849   3.944  0.9600 -0.0705 -0.5132
  879MOL0     H18627   3.984   5.691   4.062 -1.3336  0.8149 -1.3532
  879MOL0     H18628   4.211   5.565   4.061 -1.8084  0.8831  2.2169
  879MOL0     H18629   4.453   5.594   4.112 -1.0460  0.0472 -0.1476
  879MOL0     H18630   4.425   5.449   4.019  3.2757 -1.1675  0.2467
  879MOL0     H18631   4.659   5.509   4.088 -0.4455  3.0553  0.8620
  879MOL0     H18632   4.639   5.452   3.918  0.0030  0.6704  0.4523
  879MOL0     H18633   4.805   5.616   3.922  0.7084  0.5815 -0.0093
  879MOL0     H18634   4.668   5.668   3.833  0.0594  0.7083 -0.3493
  879MOL0     H18635   4.736   5.766   4.118 -1.8575  1.1116  1.1132
  879MOL0     H18636   4.598   5.811   4.001 -0.1160 -1.4225  0.0217
  879MOL0     H18637   4.757   5.895   3.840  1.4921  2.1707 -0.7678
  879MOL0     H18638   4.891   5.821   3.931 -0.3626  0.6280 -1.8565
  879MOL0     H18639   4.712   6.039   4.034 -1.5320 -1.0505  0.2004
  879MOL0     H18640   4.848   5.977   4.123  2.9708 -2.2836 -0.7611
  879MOL0     H18641   4.878   6.120   3.869 -0.6255 -0.8575  1.3724
  879MOL0     H18642   5.003   6.017   3.938  2.3824  0.9691  0.0324
  879MOL0     H18643   4.991   6.134   4.156  1.0480  3.1628  0.2708
  879MOL0     H18644   5.067   6.200   4.008 -0.1252 -1.5018 -1.1646
  879MOL0     H18645   4.367   5.849   3.781 -1.2830  1.2889 -0.4041
  879MOL0     H18646   4.151   5.961   3.787  2.5627 -0.7991 -1.7074
  879MOL0     H18647   3.774   6.251   3.852  0.8307 -1.2590  1.1115
  879MOL0     H18648   3.538   6.314   3.872 -0.0311 -0.3404 -0.0837
  879MOL0     H18649   3.641   5.748   4.410  0.5469  0.5290 -0.6713
  879MOL0     H18650   3.820   5.640   4.278  1.0205 -3.8459 -1.5518
  879MOL0     H18651   3.960   5.509   3.868  3.4572  0.4664 -2.4811
  879MOL0     H18652   4.144   5.431   3.737 -1.4938 -2.7513 -3.9595
  879MOL0     H18653   4.360   5.056   3.856 -0.4488  0.2969  0.8333
  879MOL0     H18654   4.414   5.214   3.925 -1.2045  0.1978  1.1314
  879MOL0     H18655   4.587   5.108   3.772  1.0505  2.0122 -0.2572
  879MOL0     H18656   4.517   5.265   3.707  0.2643 -0.7160 -0.3559
  879MOL0     H18657   4.564   5.077   3.531 -0.4510  1.0643 -0.9485
  879MOL0     H18658   4.398   5.115   3.551  0.5243  0.7700  0.8722
  879MOL0     H18659   4.514   4.854   3.667 -0.2858 -1.2386 -2.1768
  879MOL0     H18660   4.354   4.932   3.705  0.9130 -2.0173  0.6677
  879MOL0     H18661   4.299   4.715   3.361 -1.9197  1.3467  0.3595
  879MOL0     H18662   4.173   5.084   3.965 -0.5540 -0.3388  0.6347
  879MOL0     H18663   3.941   5.148   4.226 -0.0226 -0.3245  1.2033
  879MOL0     H18664   3.909   5.029   4.085  0.0442  0.2575  0.2636
  879MOL0     H18665   4.064   5.040   4.166 -0.3964 -0.8620  0.3964
  880MOL0     O18666   9.689   8.033   9.990 -0.0730  0.6336 -0.2941
  880MOL0     C18667   9.704   7.937   9.914 -0.2059  0.7619 -0.1731
  880MOL0     O18668   9.702   7.943   9.778 -0.0874  1.3650 -0.1628
  880MOL0     C18669   9.608   8.031   9.734  0.4935 -0.4159  1.0317
  880MOL0     C18670   9.467   8.017   9.762  0.1491 -0.1955  0.2454
  880MOL0     C18671   9.376   8.110   9.714  0.5114 -0.3625 -0.6501
  880MOL0     C18672   9.411   8.217   9.639  1.0533 -0.6807  0.2183
  880MOL0     O18673   9.313   8.310   9.598 -0.5247 -0.8784 -0.0402
  880MOL0     C18674   9.356   8.445   9.583 -0.7021  0.3148  0.5185
  880MOL0     C18675   9.417   8.494   9.711 -0.5237  0.4427  0.3965
  880MOL0     C18676   9.462   8.644   9.696  0.2108  1.3979  0.5563
  880MOL0     C18677   9.386   8.742   9.796 -1.5745 -0.2264 -0.0140
  880MOL0     C18678   9.403   8.713   9.949 -0.2003  0.1703  0.1302
  880MOL0     C18679   9.322   8.824  10.020 -0.3038 -0.6025  0.3898
  880MOL0     C18680   9.280   8.785  10.165  0.3507 -0.4687  0.3154
  880MOL0     C18681   9.382   8.752  10.266 -0.0606  0.0373 -0.7306
  880MOL0     N18682   9.468   8.863  10.291  0.7872  0.8755 -0.0719
  880MOL0     C18683   9.596   8.875  10.240  0.3085 -0.1067 -0.2832
  880MOL0     C18684   9.644   8.978  10.304 -0.3757 -0.5695  0.6903
  880MOL0     C18685   9.794   8.997  10.294 -0.7706  0.8324 -0.6902
  880MOL0     C18686   9.856   8.880  10.379  0.1593 -0.5440  0.2823
  880MOL0     C18687   9.998   8.874  10.398  0.1767  0.1798  0.1345
  880MOL0     C18688  10.090   8.839  10.277 -0.0762 -1.3673 -0.7496
  880MOL0     O18689  10.062   8.704  10.232 -0.5980  0.3862  0.6404
  880MOL0     C18690  10.150   8.611  10.269 -0.6421 -0.0158 -0.4539
  880MOL0     C18691  10.248   8.627  10.370 -0.4393  0.3854  0.4456
  880MOL0     C18692  10.329   8.526  10.406  0.3050 -0.0989  0.4584
  880MOL0     C18693  10.313   8.392  10.344 -0.2459  0.6552 -0.2624
  880MOL0     C18694  10.392   8.277  10.389 -0.7300  0.1382  0.7038
  880MOL0     O18695  10.512   8.309  10.445 -0.3025  0.7665 -0.3053
  880MOL0     C18696  10.595   8.204  10.471 -0.3908 -0.0042  1.0347
  880MOL0     C18697  10.609   8.142  10.595 -0.3193 -1.2537 -1.1032
  880MOL0     C18698  10.712   8.053  10.614 -0.0779  1.4085  0.0032
  880MOL0     C18699  10.802   8.010  10.518 -0.0940  0.2450 -0.2154
  880MOL0     O18700  10.897   7.923  10.554 -0.0981 -0.0254 -0.4756
  880MOL0     C18701  10.960   7.828  10.467 -0.4065 -0.1772  0.2860
  880MOL0     C18702  11.018   7.714  10.542  0.3518  0.1630 -0.3922
  880MOL0     C18703  11.166   7.735  10.579 -0.4976 -0.2133 -0.2327
  880MOL0     C18704  11.222   7.626  10.673 -0.0274 -0.3102  0.3722
  880MOL0     C18705  11.381   7.625  10.700 -0.2823  0.0181  0.4398
  880MOL0     C18706  11.429   7.478  10.731 -0.1381 -0.2500 -0.1569
  880MOL0     C18707  11.574   7.470  10.760 -0.1221  0.1104  0.7154
  880MOL0     C18708  11.629   7.333  10.786  0.2623  0.6302  0.8484
  880MOL0    Cl18709  11.595   7.231  10.655  0.4503 -0.5243 -0.1580
  880MOL0     C18710  10.790   8.069  10.394 -0.1903 -0.7674 -0.2378
  880MOL0     C18711  10.686   8.152  10.370 -0.6632 -0.6739 -0.2028
  880MOL0     O18712  10.345   8.163  10.352 -0.2183 -0.6909 -1.0756
  880MOL0     C18713  10.219   8.374  10.247  1.4508  0.0974  0.4251
  880MOL0     C18714  10.138   8.488  10.213  0.3237  0.7090  0.1884
  880MOL0     N18715   9.549   9.042  10.386  1.6874 -0.3102 -0.0396
  880MOL0     N18716   9.439   8.968  10.370 -0.0875  0.7414  0.1183
  880MOL0     C18717   9.541   8.221   9.583 -0.1096 -0.9351 -0.5262
  880MOL0     C18718   9.639   8.127   9.632 -0.1219  0.4312 -0.3389
  880MOL0     C18719   9.752   7.814   9.989 -0.1219  0.2936  0.2223
  880MOL0     C18720   9.840   7.732   9.920 -0.0001  0.4193 -0.0640
  880MOL0     C18721   9.896   7.611   9.974  0.1463 -0.9747  1.2341
  880MOL0     C18722   9.869   7.584  10.101  1.3309 -0.9830  0.6133
  880MOL0     O18723   9.916   7.472  10.164 -0.6631  0.3892 -0.0051
  880MOL0     C18724  10.022   7.397  10.103  0.3456 -0.4474  0.1754
  880MOL0     C18725  10.087   7.319  10.222 -0.0736 -0.0300 -0.8135
  880MOL0     C18726  10.174   7.399  10.312 -0.5372  0.5274 -0.6574
  880MOL0     C18727  10.217   7.317  10.442  0.3835 -0.0572  0.0703
  880MOL0     C18728  10.282   7.194  10.395  1.1728  0.1198  0.2811
  880MOL0     C18729  10.357   7.106  10.344  0.4010  0.0605 -0.6106
  880MOL0     C18730   9.790   7.666  10.175  0.0420 -0.3601  0.2044
  880MOL0     C18731   9.724   7.778  10.124 -0.8797 -0.5569 -0.9372
  880MOL0     C18732   9.618   7.853  10.214 -0.6456  0.0656 -0.1410
  880MOL0     H18733   9.438   7.938   9.830 -0.5844  2.5184  3.3329
  880MOL0     H18734   9.271   8.116   9.742  0.0419  2.0662 -2.5787
  880MOL0     H18735   9.420   8.452   9.495 -4.3772  0.4784 -2.3944
  880MOL0     H18736   9.274   8.511   9.553 -0.6544  0.1117 -0.0826
  880MOL0     H18737   9.500   8.428   9.739 -0.6312 -0.2278 -0.8012
  880MOL0     H18738   9.338   8.498   9.787 -0.9859  1.2956 -0.1106
  880MOL0     H18739   9.453   8.686   9.595  0.4699  4.0435  1.5441
  880MOL0     H18740   9.567   8.649   9.728 -0.0971 -1.2249  2.3033
  880MOL0     H18741   9.426   8.840   9.770 -2.6142  0.5279  1.1377
  880MOL0     H18742   9.281   8.737   9.767 -1.0487  0.1033 -2.1174
  880MOL0     H18743   9.359   8.614   9.963  2.1124 -1.0438 -0.7546
  880MOL0     H18744   9.503   8.715   9.993 -0.9722  1.9681  1.9223
  880MOL0     H18745   9.386   8.912  10.011 -1.4352  0.1170 -1.0795
  880MOL0     H18746   9.230   8.864   9.975  0.8817  0.4540 -1.2227
  880MOL0     H18747   9.210   8.702  10.164  0.8263 -1.0232  2.9869
  880MOL0     H18748   9.235   8.876  10.205  1.9513  0.8553 -0.7346
  880MOL0     H18749   9.324   8.728  10.356 -0.3228 -0.0907 -0.9285
  880MOL0     H18750   9.436   8.664  10.230 -2.0273 -2.5568  2.1567
  880MOL0     H18751   9.654   8.818  10.168  0.3110 -0.3409 -0.0956
  880MOL0     H18752   9.833   8.990  10.192  0.6219  0.8739 -0.1796
  880MOL0     H18753   9.825   9.091  10.341  0.9986  0.4054 -0.9460
  880MOL0     H18754   9.799   8.886  10.473 -0.5076  0.3800 -0.1650
  880MOL0     H18755   9.830   8.786  10.330  2.8145 -0.7428 -0.9004
  880MOL0     H18756  10.016   8.791  10.466  2.1588  1.0678  0.7841
  880MOL0     H18757  10.039   8.967  10.440 -2.2419  0.6929  1.5250
  880MOL0     H18758  10.189   8.859  10.319 -0.4938 -0.9070  0.0430
  880MOL0     H18759  10.071   8.911  10.196  0.4740 -0.8945 -0.4663
  880MOL0     H18760  10.268   8.716  10.428 -2.1579  0.1985  1.3903
  880MOL0     H18761  10.412   8.539  10.475 -1.4031  1.6765  2.3281
  880MOL0     H18762  10.551   8.186  10.676 -3.7826 -0.6586 -3.6605
  880MOL0     H18763  10.719   8.024  10.719 -1.7079 -1.6999 -0.6265
  880MOL0     H18764  10.884   7.795  10.395 -2.9814  2.8062  1.3877
  880MOL0     H18765  11.044   7.879  10.419  2.0928 -0.8020  3.6710
  880MOL0     H18766  10.962   7.711  10.637  0.4388  2.3120 -0.2235
  880MOL0     H18767  11.004   7.614  10.499  2.6644  0.1058 -1.1414
  880MOL0     H18768  11.215   7.753  10.483 -3.2749  0.5375 -1.6112
  880MOL0     H18769  11.165   7.829  10.634 -3.4299 -0.4459  0.2620
  880MOL0     H18770  11.197   7.535  10.617 -1.9058  1.0673 -1.1311
  880MOL0     H18771  11.170   7.621  10.769  0.0634 -1.0106  0.3905
  880MOL0     H18772  11.418   7.687  10.782  0.3522 -1.4625  1.3100
  880MOL0     H18773  11.426   7.647  10.602  0.2866 -0.9948  0.4639
  880MOL0     H18774  11.381   7.450  10.825 -2.2152 -0.8169 -1.3236
  880MOL0     H18775  11.391   7.408  10.656 -2.4805  1.6715 -0.8868
  880MOL0     H18776  11.585   7.517  10.858  4.1971 -0.0498  0.4806
  880MOL0     H18777  11.621   7.508  10.669 -0.3781 -1.3888 -0.0790
  880MOL0     H18778  11.737   7.331  10.807  0.7905 -2.0486 -1.5233
  880MOL0     H18779  11.574   7.297  10.874  0.2633 -1.6179 -0.0092
  880MOL0     H18780  10.851   8.034  10.310 -1.3975 -0.6853 -1.1743
  880MOL0     H18781  10.693   8.182  10.265  1.3316 -1.3062 -0.2812
  880MOL0     H18782  10.205   8.282  10.192 -2.1422  0.4645  0.4926
  880MOL0     H18783  10.060   8.474  10.139  1.9889 -3.1704 -1.1058
  880MOL0     H18784   9.568   8.289   9.503  1.6131  1.5057  1.9739
  880MOL0     H18785   9.740   8.133   9.593 -1.1281  1.4510 -3.0242
  880MOL0     H18786   9.853   7.747   9.814  0.7216  1.1127  0.1183
  880MOL0     H18787   9.955   7.555   9.902  2.8307  1.2513  1.5340
  880MOL0     H18788  10.085   7.474  10.055 -1.8129  2.1768  1.2574
  880MOL0     H18789   9.985   7.339  10.017  0.8360  1.9874 -1.8185
  880MOL0     H18790  10.131   7.228  10.181 -0.0511 -0.5229  0.2682
  880MOL0     H18791  10.005   7.273  10.277 -0.8102  2.4816  0.3292
  880MOL0     H18792  10.124   7.494  10.334 -1.6963 -0.3895  0.8686
  880MOL0     H18793  10.270   7.426  10.269  0.1513 -1.0518 -0.1892
  880MOL0     H18794  10.287   7.372  10.505 -1.0804  0.1886  1.5655
  880MOL0     H18795  10.131   7.283  10.500  0.6929  0.3553  0.7751
  880MOL0     H18796  10.445   7.063  10.300 -0.6881 -1.1321 -1.7125
  880MOL0     H18797   9.764   7.618  10.269  1.3111 -2.3887 -0.4023
  880MOL0     H18798   9.549   7.784  10.262 -0.7072  1.8317  2.4926
  880MOL0     H18799   9.660   7.903  10.302 -1.2543 -1.4090  1.0287
  880MOL0     H18800   9.564   7.922  10.148 -0.1046  0.8087  0.1769
  881MOL0     O18801   3.002   6.867   8.337 -0.2186 -0.1707  0.8321
  881MOL0     C18802   3.088   6.781   8.354  0.1813  1.3107 -0.5981
  881MOL0     O18803   3.222   6.799   8.364  0.4670  0.2537  0.2079
  881MOL0     C18804   3.260   6.933   8.369 -0.4732  1.0300  0.0439
  881MOL0     C18805   3.218   7.033   8.455 -0.6322 -0.2597 -0.2403
  881MOL0     C18806   3.278   7.159   8.438  0.6522 -1.0487 -0.4187
  881MOL0     C18807   3.392   7.186   8.359  0.6816  0.1445  0.2371
  881MOL0     O18808   3.456   7.307   8.356 -0.3059 -0.1769  0.0888
  881MOL0     C18809   3.559   7.333   8.262  0.7447  0.5367 -1.5035
  881MOL0     C18810   3.567   7.475   8.231 -0.7539 -1.1102 -0.4260
  881MOL0     C18811   3.673   7.479   8.121 -0.7181 -0.8771  0.5908
  881MOL0     C18812   3.659   7.614   8.043 -1.2957  0.9916  0.2659
  881MOL0     C18813   3.777   7.613   7.948  0.1161  0.9876 -0.6140
  881MOL0     C18814   3.798   7.739   7.867  0.2230 -0.3640  0.5932
  881MOL0     C18815   3.841   7.857   7.956  0.1888  0.6896  0.9915
  881MOL0     C18816   3.834   7.991   7.875  0.4584  0.5215  0.1488
  881MOL0     N18817   3.914   8.101   7.924  1.0534 -0.2230 -0.0495
  881MOL0     C18818   4.037   8.134   7.864 -0.8829  0.3361 -0.8908
  881MOL0     C18819   4.079   8.243   7.935 -0.2796  0.3871  0.0085
  881MOL0     C18820   4.190   8.331   7.894  0.1113  0.0128  0.2329
  881MOL0     C18821   4.337   8.292   7.936  0.2637 -0.2155  0.2336
  881MOL0     C18822   4.388   8.157   7.883  0.2067 -0.0485 -0.1964
  881MOL0     C18823   4.379   8.142   7.736  0.0805 -0.8815  0.2014
  881MOL0     O18824   4.512   8.109   7.680  0.5393 -0.1145 -0.0145
  881MOL0     C18825   4.583   8.210   7.610  0.0153  0.0603 -0.1529
  881MOL0     C18826   4.550   8.346   7.604 -0.5874 -0.0063  1.6041
  881MOL0     C18827   4.600   8.426   7.499 -0.3371 -0.6537 -0.3528
  881MOL0     C18828   4.709   8.384   7.428  0.2465 -0.4212  0.6925
  881MOL0     C18829   4.781   8.482   7.339  0.4658  0.4185 -0.4035
  881MOL0     O18830   4.698   8.580   7.297 -0.4807  0.6055  0.0913
  881MOL0     C18831   4.761   8.697   7.265  0.5068  0.2823  0.7251
  881MOL0     C18832   4.710   8.807   7.333  0.8164  0.3209 -0.5928
  881MOL0     C18833   4.765   8.934   7.299  0.6025 -0.4066  0.2206
  881MOL0     C18834   4.862   8.947   7.207  1.0899 -0.3087 -0.2971
  881MOL0     O18835   4.895   9.072   7.166 -0.2602  0.1388 -0.0859
  881MOL0     C18836   4.931   9.172   7.267 -0.8974 -0.9256 -0.0527
  881MOL0     C18837   4.845   9.290   7.234 -0.0014 -0.3938  0.8686
  881MOL0     C18838   4.887   9.410   7.324 -0.4380  0.2445  1.0384
  881MOL0     C18839   4.821   9.401   7.457 -1.0886  0.7414 -0.9635
  881MOL0     C18840   4.907   9.480   7.562  0.9659 -0.4218 -0.2834
  881MOL0     C18841   5.020   9.396   7.613 -0.9765  0.5011 -0.5601
  881MOL0     C18842   5.107   9.464   7.729  0.7631  0.8034 -0.1610
  881MOL0     C18843   5.249   9.410   7.740  0.5371 -0.4911 -0.0361
  881MOL0    Cl18844   5.271   9.239   7.768  0.2266  0.6980  0.4598
  881MOL0     C18845   4.911   8.833   7.138  0.3879  0.6997 -0.1154
  881MOL0     C18846   4.858   8.714   7.167  0.0153  0.4230 -0.0297
  881MOL0     O18847   4.898   8.470   7.308  0.2200  0.5812  0.6027
  881MOL0     C18848   4.753   8.245   7.446  0.8310 -0.5413 -0.7375
  881MOL0     C18849   4.692   8.163   7.537  1.0920 -0.8881  0.6710
  881MOL0     N18850   3.979   8.270   8.029 -0.3777 -1.2337  0.5035
  881MOL0     N18851   3.885   8.187   8.020  0.4967 -0.7488 -0.4102
  881MOL0     C18852   3.438   7.077   8.285  0.2429 -1.2518 -0.3817
  881MOL0     C18853   3.370   6.959   8.284 -0.1906 -0.5454  1.0852
  881MOL0     C18854   3.043   6.643   8.383 -0.4303  0.3637  0.1083
  881MOL0     C18855   3.116   6.534   8.325 -0.4548 -0.6832  0.7689
  881MOL0     C18856   3.052   6.412   8.334  0.2358 -0.5524  0.4633
  881MOL0     C18857   2.921   6.400   8.376  0.3799 -0.2275 -0.3050
  881MOL0     O18858   2.875   6.270   8.368  0.3134  0.2683  0.1883
  881MOL0     C18859   2.745   6.236   8.389  0.6610  0.2347 -0.6024
  881MOL0     C18860   2.634   6.312   8.303 -0.1754 -0.3287  0.8665
  881MOL0     C18861   2.686   6.349   8.153  0.6069 -0.4966 -0.1031
  881MOL0     C18862   2.584   6.445   8.100 -0.1836  0.3891 -0.9222
  881MOL0     C18863   2.651   6.577   8.122 -0.8959  1.0170  0.8099
  881MOL0     C18864   2.708   6.685   8.130  0.6353 -0.8042 -0.3352
  881MOL0     C18865   2.854   6.501   8.435 -0.2620 -1.1745  0.8823
  881MOL0     C18866   2.916   6.626   8.440  0.9466 -0.0798  0.3015
  881MOL0     C18867   2.848   6.732   8.523  0.0276  0.2305  0.6426
  881MOL0     H18868   3.127   7.013   8.510 -0.3845 -2.0310 -0.4181
  881MOL0     H18869   3.239   7.237   8.503  1.3175 -0.9396 -0.1423
  881MOL0     H18870   3.652   7.286   8.296  0.9272  0.0099 -2.6673
  881MOL0     H18871   3.533   7.288   8.166  1.0527  0.5710 -1.6044
  881MOL0     H18872   3.585   7.535   8.321 -1.0579 -2.1801  0.3799
  881MOL0     H18873   3.469   7.510   8.198  0.1771  3.0158  0.6694
  881MOL0     H18874   3.677   7.395   8.051  2.6710 -2.3814  2.3849
  881MOL0     H18875   3.774   7.476   8.163 -0.2894 -0.0742 -0.3401
  881MOL0     H18876   3.562   7.634   7.997 -1.7663  1.2783  1.3345
  881MOL0     H18877   3.676   7.700   8.109  2.4868 -0.7476  1.8637
  881MOL0     H18878   3.872   7.599   8.000  1.4611  1.8851 -2.6702
  881MOL0     H18879   3.768   7.526   7.882  2.0303 -0.6756  1.1851
  881MOL0     H18880   3.887   7.729   7.804 -0.8445 -0.7172 -0.9101
  881MOL0     H18881   3.706   7.757   7.810  0.6256  0.7187  0.2547
  881MOL0     H18882   3.938   7.840   8.004  0.9282  0.9711 -0.3559
  881MOL0     H18883   3.769   7.861   8.038  0.9029  1.1938  1.6027
  881MOL0     H18884   3.845   7.981   7.766  0.1188  0.2635  0.1359
  881MOL0     H18885   3.730   8.023   7.881 -0.0324 -0.6411 -1.3975
  881MOL0     H18886   4.089   8.095   7.778  0.3544  0.3393 -0.1756
  881MOL0     H18887   4.186   8.344   7.786 -2.1190 -1.9662 -0.0215
  881MOL0     H18888   4.185   8.427   7.945  1.2086 -0.2211  0.8190
  881MOL0     H18889   4.411   8.368   7.909  2.9375 -3.0200 -0.8933
  881MOL0     H18890   4.351   8.272   8.043  2.9512  0.4873  0.0798
  881MOL0     H18891   4.327   8.075   7.922 -2.0975  1.5784 -0.1661
  881MOL0     H18892   4.493   8.157   7.914  0.5510  4.7946 -0.6629
  881MOL0     H18893   4.337   8.226   7.681  0.5510 -0.5009  0.4120
  881MOL0     H18894   4.316   8.056   7.713 -3.4799  2.2681 -3.4356
  881MOL0     H18895   4.462   8.394   7.646 -0.7646  0.8800  0.3087
  881MOL0     H18896   4.556   8.522   7.473 -1.2136 -0.9185  0.1342
  881MOL0     H18897   4.629   8.819   7.404  0.8609  3.5383 -0.9273
  881MOL0     H18898   4.721   9.026   7.338  2.9280  2.1970 -2.7712
  881MOL0     H18899   4.923   9.129   7.367  0.8152  2.0976  1.5262
  881MOL0     H18900   5.036   9.201   7.263 -0.2189 -2.8185  2.0683
  881MOL0     H18901   4.861   9.324   7.132 -2.7570 -0.9362  0.1855
  881MOL0     H18902   4.738   9.276   7.252 -0.1475 -0.7387 -0.2135
  881MOL0     H18903   4.996   9.399   7.321 -0.1477  2.6278 -1.4685
  881MOL0     H18904   4.860   9.505   7.277 -1.4413  0.3891  1.8667
  881MOL0     H18905   4.820   9.298   7.495  0.8391  1.5709  1.6145
  881MOL0     H18906   4.716   9.432   7.452 -1.3324  0.2470  0.5032
  881MOL0     H18907   4.854   9.520   7.649  0.5388 -0.7868 -0.3665
  881MOL0     H18908   4.943   9.566   7.505  0.1693  0.9845  1.2356
  881MOL0     H18909   4.992   9.297   7.651  0.4526 -0.1677 -1.1582
  881MOL0     H18910   5.090   9.385   7.529 -1.7684  3.6533 -1.7731
  881MOL0     H18911   5.045   9.443   7.817  2.7899 -3.3684  0.5077
  881MOL0     H18912   5.114   9.573   7.729  4.1045  0.7232 -1.8390
  881MOL0     H18913   5.315   9.443   7.660  0.6683 -4.5431 -1.8464
  881MOL0     H18914   5.287   9.467   7.826 -1.2788  0.0066  0.4904
  881MOL0     H18915   4.977   8.847   7.053 -0.3973  1.0045 -0.6803
  881MOL0     H18916   4.875   8.626   7.106 -1.7407 -0.2849  0.4218
  881MOL0     H18917   4.841   8.213   7.392  1.8288  0.3326  0.3269
  881MOL0     H18918   4.717   8.059   7.552  0.9704 -1.1487 -0.7795
  881MOL0     H18919   3.532   7.068   8.232  0.5088 -2.2178  0.2331
  881MOL0     H18920   3.420   6.886   8.222 -0.7657  1.1609 -1.5369
  881MOL0     H18921   3.210   6.554   8.275 -2.2703  2.0930 -1.8766
  881MOL0     H18922   3.093   6.321   8.291 -0.0377 -0.9338  1.0058
  881MOL0     H18923   2.713   6.260   8.491 -1.2085 -1.2815 -0.7692
  881MOL0     H18924   2.733   6.127   8.382 -3.3609  0.6091 -3.1439
  881MOL0     H18925   2.595   6.403   8.349 -0.0296  0.3999 -0.4000
  881MOL0     H18926   2.550   6.243   8.290  1.1722 -1.7386 -0.8695
  881MOL0     H18927   2.687   6.253   8.099  1.0410 -1.2806  1.2702
  881MOL0     H18928   2.790   6.383   8.153  0.2145  0.7706 -1.3018
  881MOL0     H18929   2.565   6.424   7.995 -0.1838  2.2227 -1.3258
  881MOL0     H18930   2.495   6.463   8.161  0.1511 -3.6248  1.0875
  881MOL0     H18931   2.745   6.785   8.117 -0.9088 -0.2425 -0.7425
  881MOL0     H18932   2.755   6.478   8.471 -1.8312  0.8871 -1.7480
  881MOL0     H18933   2.767   6.774   8.464  1.0734 -0.3574 -1.3015
  881MOL0     H18934   2.809   6.683   8.613  1.1297 -2.0766 -0.0493
  881MOL0     H18935   2.913   6.808   8.568  2.9512 -2.1893  0.8619
  882MOL0     O18936   0.172   0.634   4.675  0.4012  0.7293  0.5977
  882MOL0     C18937   0.138   0.607   4.558 -0.0725  1.0812 -0.0699
  882MOL0     O18938   0.179   0.665   4.448  0.1389 -0.7180 -0.7882
  882MOL0     C18939   0.210   0.798   4.468  0.0579 -0.1409  0.5541
  882MOL0     C18940   0.334   0.836   4.530 -0.2151 -0.1058  0.1680
  882MOL0     C18941   0.378   0.966   4.554  0.9310 -0.6774 -0.0018
  882MOL0     C18942   0.288   1.069   4.513  0.0240 -0.3218 -0.2485
  882MOL0     O18943   0.346   1.196   4.518  0.3045 -0.3274 -0.2489
  882MOL0     C18944   0.247   1.296   4.552 -0.4693  0.7128 -0.7083
  882MOL0     C18945   0.312   1.430   4.535  0.2557 -0.3348  0.4655
  882MOL0     C18946   0.215   1.529   4.609 -0.2338  0.2144  0.1873
  882MOL0     C18947   0.296   1.661   4.610  0.1607 -0.0366  0.5486
  882MOL0     C18948   0.194   1.776   4.624 -0.0493  0.0177  0.4687
  882MOL0     C18949   0.258   1.915   4.628  0.8216 -0.0270  0.1050
  882MOL0     C18950   0.154   2.027   4.633 -0.5865  0.0012 -0.2442
  882MOL0     C18951   0.083   2.027   4.762  0.5295  1.0532 -0.1642
  882MOL0     N18952   0.063   2.162   4.837 -0.1065 -0.5930 -1.4069
  882MOL0     C18953   0.034   2.285   4.773  0.4691  0.7645 -0.6419
  882MOL0     C18954   0.074   2.372   4.870  0.1558 -0.2483  0.1719
  882MOL0     C18955   0.052   2.526   4.855  0.3864 -1.0981 -0.6178
  882MOL0     C18956   0.157   2.576   4.744  0.3578  0.4643  0.6519
  882MOL0     C18957   0.086   2.586   4.603  0.1355  0.3898  0.0743
  882MOL0     C18958   0.161   2.568   4.473 -0.2750  0.3930  0.4175
  882MOL0     O18959   0.152   2.419   4.443  0.9148  0.4614 -0.0425
  882MOL0     C18960   0.205   2.390   4.324 -0.6609 -0.2942 -0.0101
  882MOL0     C18961   0.342   2.408   4.308 -0.3785 -0.0195 -0.2591
  882MOL0     C18962   0.401   2.382   4.187  0.3595 -0.2155 -0.1221
  882MOL0     C18963   0.324   2.345   4.078  1.1107  0.4009  0.2133
  882MOL0     C18964   0.390   2.316   3.954  0.7062  0.3640  0.0001
  882MOL0     O18965   0.524   2.285   3.964 -0.9555  0.5771  0.2534
  882MOL0     C18966   0.578   2.237   3.843  0.6859  0.3175 -0.4299
  882MOL0     C18967   0.588   2.102   3.830 -0.0621  0.6106  1.2822
  882MOL0     C18968   0.642   2.056   3.712 -0.6786  0.1769 -0.2773
  882MOL0     C18969   0.683   2.141   3.604 -0.0078 -0.0342 -0.8258
  882MOL0     O18970   0.721   2.107   3.478 -0.4368  0.0086 -0.3431
  882MOL0     C18971   0.746   1.970   3.441 -0.2263  0.5003  0.2740
  882MOL0     C18972   0.620   1.889   3.407  0.2808 -0.4645 -0.8510
  882MOL0     C18973   0.530   1.954   3.304 -0.9441  0.6029 -0.8795
  882MOL0     C18974   0.472   1.835   3.228 -0.1554 -0.3146 -1.4201
  882MOL0     C18975   0.378   1.749   3.318  1.2672  0.4234 -0.1381
  882MOL0     C18976   0.268   1.673   3.242 -0.1983  0.2240 -0.4792
  882MOL0     C18977   0.181   1.584   3.329  0.1666 -0.0023 -0.3632
  882MOL0     C18978   0.128   1.462   3.257 -0.4633 -0.1240 -0.4907
  882MOL0    Cl18979   0.240   1.335   3.269  0.0851  0.0285  0.3943
  882MOL0     C18980   0.667   2.275   3.619 -0.2139  0.4755 -0.3656
  882MOL0     C18981   0.606   2.319   3.736  0.2038  0.3838 -1.4215
  882MOL0     O18982   0.321   2.301   3.853  0.4223  0.4282 -1.1913
  882MOL0     C18983   0.178   2.326   4.092  0.2333 -0.0698 -0.1645
  882MOL0     C18984   0.122   2.347   4.217 -0.2944  0.2605 -0.1115
  882MOL0     N18985   0.120   2.309   4.986 -0.3971  0.4333  0.2894
  882MOL0     N18986   0.114   2.181   4.966  0.0707 -0.6661 -0.1059
  882MOL0     C18987   0.167   1.039   4.447  0.3555  0.4125 -0.3717
  882MOL0     C18988   0.123   0.902   4.435 -0.4356 -0.5756  0.3858
  882MOL0     C18989   0.034   0.506   4.548 -0.2834  0.2896 -0.8863
  882MOL0     C18990  -0.065   0.523   4.452 -0.0191 -0.2827  0.5688
  882MOL0     C18991  -0.158   0.426   4.418  0.4351  0.2474 -0.4124
  882MOL0     C18992  -0.167   0.320   4.505  0.7043  0.5947  0.1548
  882MOL0     O18993  -0.249   0.213   4.491  0.2275 -0.3003  0.3524
  882MOL0     C18994  -0.374   0.218   4.417  0.1330 -0.8798 -0.1579
  882MOL0     C18995  -0.488   0.300   4.485 -0.5840 -0.3501 -0.8150
  882MOL0     C18996  -0.501   0.443   4.436 -0.4528 -0.4769  0.0482
  882MOL0     C18997  -0.627   0.514   4.471 -0.8170  0.6487  0.7304
  882MOL0     C18998  -0.618   0.552   4.607  1.2623 -0.3216  0.1020
  882MOL0     C18999  -0.633   0.563   4.726  0.1729  0.0353  0.2280
  882MOL0     C19000  -0.071   0.304   4.608 -0.3770 -0.1980  0.2427
  882MOL0     C19001   0.033   0.394   4.638  0.4513  0.7615  0.3063
  882MOL0     C19002   0.137   0.368   4.740 -0.1514 -0.1128 -0.0300
  882MOL0     H19003   0.403   0.753   4.532  1.3859  1.1797  2.0519
  882MOL0     H19004   0.476   0.977   4.599  2.1312  0.1906 -2.5829
  882MOL0     H19005   0.157   1.281   4.492 -0.9124 -1.1712  0.3417
  882MOL0     H19006   0.219   1.278   4.656  3.3980  0.1962  0.4031
  882MOL0     H19007   0.304   1.445   4.427  0.3275 -3.5032 -0.0990
  882MOL0     H19008   0.413   1.435   4.576  0.3719  0.3461  0.1082
  882MOL0     H19009   0.193   1.498   4.711 -0.5560  2.4997  0.8597
  882MOL0     H19010   0.123   1.534   4.551  1.2927  0.2970 -2.4318
  882MOL0     H19011   0.377   1.661   4.683  2.4070  0.5888 -1.7817
  882MOL0     H19012   0.345   1.679   4.514 -2.0760  1.7161 -0.3846
  882MOL0     H19013   0.115   1.776   4.549 -0.9614  0.4560  1.4027
  882MOL0     H19014   0.143   1.752   4.718  2.6398  0.2406  2.0906
  882MOL0     H19015   0.319   1.918   4.718  0.1969  0.6754  0.5200
  882MOL0     H19016   0.317   1.925   4.536  0.4470  0.1575 -0.1205
  882MOL0     H19017   0.080   2.025   4.553  1.4342  2.6420 -2.3639
  882MOL0     H19018   0.219   2.115   4.634  3.2066 -2.2983  5.3062
  882MOL0     H19019  -0.010   1.973   4.744 -0.0589  2.4903 -1.7731
  882MOL0     H19020   0.140   1.963   4.830  0.6889  3.0035  1.6442
  882MOL0     H19021   0.002   2.305   4.671 -1.1337 -3.3489 -1.1533
  882MOL0     H19022  -0.050   2.556   4.829 -0.2128 -1.3266  1.3714
  882MOL0     H19023   0.068   2.574   4.952 -3.6550  0.2107 -0.4310
  882MOL0     H19024   0.195   2.674   4.775 -1.1247  1.9628 -1.9222
  882MOL0     H19025   0.233   2.498   4.737 -2.4914 -2.3630 -3.3142
  882MOL0     H19026   0.054   2.691   4.600  2.4887  1.1521 -0.2844
  882MOL0     H19027  -0.002   2.522   4.590  0.0675  0.2008  1.3460
  882MOL0     H19028   0.265   2.602   4.479  0.9331 -2.0216 -3.2392
  882MOL0     H19029   0.111   2.617   4.389 -0.2839 -0.2949  0.0121
  882MOL0     H19030   0.392   2.429   4.402 -0.8275 -0.3212  0.0529
  882MOL0     H19031   0.507   2.405   4.177  0.7554 -2.0918 -0.6140
  882MOL0     H19032   0.550   2.035   3.907 -2.4847 -0.9469 -1.0842
  882MOL0     H19033   0.647   1.949   3.695 -3.7260  0.4669 -4.3237
  882MOL0     H19034   0.806   1.968   3.350 -2.1226  0.2673 -1.0447
  882MOL0     H19035   0.805   1.919   3.518 -1.5850 -2.1254 -0.3037
  882MOL0     H19036   0.665   1.796   3.374  0.7952 -1.4373  2.2806
  882MOL0     H19037   0.566   1.861   3.498  0.9624 -3.4624 -1.2700
  882MOL0     H19038   0.456   2.019   3.352  1.9579  2.5599  1.2745
  882MOL0     H19039   0.582   2.020   3.235 -1.9741  0.0398 -2.2560
  882MOL0     H19040   0.547   1.767   3.186  0.5886 -1.1145  1.0292
  882MOL0     H19041   0.425   1.875   3.138  0.6932 -1.1734 -2.2796
  882MOL0     H19042   0.318   1.807   3.388  3.1455 -1.0300  2.8897
  882MOL0     H19043   0.440   1.687   3.383 -0.5724  0.9627  2.3135
  882MOL0     H19044   0.202   1.728   3.175 -1.0849  0.9881  0.9709
  882MOL0     H19045   0.317   1.613   3.165 -2.3079  0.8881 -2.4114
  882MOL0     H19046   0.092   1.643   3.353 -0.7087 -1.6549  0.5927
  882MOL0     H19047   0.229   1.550   3.421 -1.2680  1.2540  0.9076
  882MOL0     H19048   0.040   1.432   3.316  2.7930 -1.6069  4.1817
  882MOL0     H19049   0.109   1.486   3.152  2.1306  1.4818 -0.6664
  882MOL0     H19050   0.672   2.347   3.538 -0.8599 -0.7005 -1.4850
  882MOL0     H19051   0.575   2.422   3.746 -2.4756 -0.5574  1.9695
  882MOL0     H19052   0.116   2.308   4.004 -0.1214 -5.0510  0.8123
  882MOL0     H19053   0.017   2.361   4.238  0.3582  3.6056  1.6987
  882MOL0     H19054   0.107   1.117   4.402  0.2051  0.3159 -0.3374
  882MOL0     H19055   0.040   0.880   4.369 -0.5848  0.2156  0.3011
  882MOL0     H19056  -0.063   0.618   4.398 -1.4677 -0.0438  0.8937
  882MOL0     H19057  -0.220   0.451   4.333  1.5616  0.3129 -1.2301
  882MOL0     H19058  -0.410   0.115   4.409  1.8667 -1.8698  3.0597
  882MOL0     H19059  -0.359   0.247   4.313  2.4943  3.4602  1.1664
  882MOL0     H19060  -0.466   0.309   4.592 -2.5429 -2.5238 -0.1323
  882MOL0     H19061  -0.577   0.239   4.466 -1.1508  0.1276  0.2306
  882MOL0     H19062  -0.482   0.431   4.329  1.9651  2.3955  0.0399
  882MOL0     H19063  -0.420   0.496   4.488 -3.6547  2.1998  2.7953
  882MOL0     H19064  -0.645   0.591   4.395 -0.3281 -1.8013 -2.0503
  882MOL0     H19065  -0.711   0.445   4.469  1.4080 -2.2283  0.1702
  882MOL0     H19066  -0.647   0.584   4.831 -2.9208 -2.0629  0.3558
  882MOL0     H19067  -0.092   0.213   4.663 -2.4130 -0.3733 -0.7172
  882MOL0     H19068   0.148   0.260   4.755  2.8049 -0.0372 -0.9810
  882MOL0     H19069   0.234   0.404   4.703 -0.2344  0.5489  0.3819
  882MOL0     H19070   0.110   0.403   4.840 -0.6606  1.0971 -0.5683
  883MOL0     O19071   1.352   7.013  11.034 -0.3987 -0.2355 -0.1502
  883MOL0     C19072   1.347   7.063  11.145  0.9756 -1.2664 -0.0316
  883MOL0     O19073   1.252   7.161  11.180 -0.0639 -0.8311 -0.5255
  883MOL0     C19074   1.171   7.210  11.084  0.5641 -1.3493  0.6918
  883MOL0     C19075   1.029   7.210  11.104 -0.1643 -0.7168  0.5492
  883MOL0     C19076   0.957   7.270  11.008  0.5836  0.0532  0.5982
  883MOL0     C19077   1.010   7.310  10.887  0.0273 -0.3125 -0.3489
  883MOL0     O19078   0.919   7.360  10.794  0.2953 -0.4238 -0.2612
  883MOL0     C19079   0.943   7.312  10.665  1.0189  0.0484  0.1811
  883MOL0     C19080   0.809   7.330  10.580 -0.2956 -0.8831  0.5578
  883MOL0     C19081   0.849   7.315  10.431  0.0270 -0.3626  0.0944
  883MOL0     C19082   0.730   7.304  10.334  0.6353  0.1860 -0.6892
  883MOL0     C19083   0.775   7.318  10.189  0.6509 -0.7870  0.1269
  883MOL0     C19084   0.646   7.330  10.112 -0.6673  0.2834  0.4923
  883MOL0     C19085   0.654   7.310   9.959 -0.5143  0.4647  0.7127
  883MOL0     C19086   0.552   7.196   9.904 -0.5232 -1.3097 -0.2868
  883MOL0     N19087   0.410   7.224   9.911 -0.3944 -0.1501  0.5649
  883MOL0     C19088   0.319   7.148   9.979  0.6533 -0.9314  0.1983
  883MOL0     C19089   0.195   7.207   9.965 -1.2591 -0.2966 -1.1959
  883MOL0     C19090   0.069   7.151  10.020 -0.8656 -0.3214 -0.3051
  883MOL0     C19091  -0.021   7.268  10.049  0.0169 -0.0042  0.8391
  883MOL0     C19092   0.039   7.374  10.142 -0.1706 -0.2273  0.5549
  883MOL0     C19093  -0.058   7.412  10.263  0.8554 -0.2230  0.3301
  883MOL0     O19094  -0.163   7.499  10.216  0.5603  0.2226 -0.5905
  883MOL0     C19095  -0.163   7.636  10.219  1.2794  1.0465  0.4281
  883MOL0     C19096  -0.057   7.717  10.264 -0.3751 -0.4846 -0.4801
  883MOL0     C19097  -0.087   7.855  10.270 -1.0603  0.0860  0.6292
  883MOL0     C19098  -0.216   7.909  10.252  0.4279 -0.7806  0.6053
  883MOL0     C19099  -0.240   8.051  10.281  0.7828 -0.2467  0.3683
  883MOL0     O19100  -0.135   8.136  10.282  0.1577 -0.6767  0.2987
  883MOL0     C19101  -0.134   8.269  10.268  0.5856 -0.9660 -0.0169
  883MOL0     C19102  -0.010   8.322  10.235  0.5946 -0.3165  0.3338
  883MOL0     C19103   0.001   8.465  10.223  0.3351 -0.4069  0.3958
  883MOL0     C19104  -0.119   8.546  10.228  0.3985 -0.9115  0.0004
  883MOL0     O19105  -0.127   8.681  10.223 -0.1878  0.8366 -0.0545
  883MOL0     C19106  -0.013   8.753  10.265  1.0866 -0.1763  0.3084
  883MOL0     C19107  -0.059   8.903  10.314  0.4462  0.4763  0.2357
  883MOL0     C19108  -0.128   8.893  10.453  0.2821  0.0262 -0.6165
  883MOL0     C19109  -0.203   9.015  10.497  0.1658  0.3964  0.4650
  883MOL0     C19110  -0.296   8.999  10.623 -0.1047 -0.3042  0.2342
  883MOL0     C19111  -0.414   9.100  10.620 -0.3071  0.4652  0.2865
  883MOL0     C19112  -0.493   9.073  10.744  0.2671 -0.4644 -1.2174
  883MOL0     C19113  -0.546   9.206  10.802  0.2194  0.1266  0.1928
  883MOL0    Cl19114  -0.691   9.161  10.898  0.0773 -0.5849 -0.1489
  883MOL0     C19115  -0.244   8.492  10.246 -0.1975  0.8231  0.0433
  883MOL0     C19116  -0.252   8.357  10.262  0.3663 -0.7142  0.6743
  883MOL0     O19117  -0.359   8.087  10.266 -0.3786  0.1235 -0.3064
  883MOL0     C19118  -0.317   7.825  10.197 -0.6298 -0.7483 -0.3950
  883MOL0     C19119  -0.288   7.693  10.183 -0.2182  0.8550  0.4393
  883MOL0     N19120   0.209   7.318   9.889 -0.9606  0.4573  0.5495
  883MOL0     N19121   0.342   7.327   9.853 -0.1420 -0.1422 -0.1165
  883MOL0     C19122   1.150   7.320  10.869 -0.8798 -0.2362 -0.5353
  883MOL0     C19123   1.230   7.263  10.968 -0.2221 -0.6437  0.4088
  883MOL0     C19124   1.434   7.031  11.259 -0.8467 -0.7666  1.4003
  883MOL0     C19125   1.383   7.056  11.387  0.2638  0.9364 -0.5871
  883MOL0     C19126   1.459   7.026  11.501  0.3662  0.9859 -0.3239
  883MOL0     C19127   1.592   6.983  11.494 -0.7769  2.1155  0.1980
  883MOL0     O19128   1.671   6.958  11.600 -0.0411 -0.1494  0.0314
  883MOL0     C19129   1.621   6.875  11.717  0.6103  0.7356 -0.7630
  883MOL0     C19130   1.592   6.731  11.656  0.1652 -0.0824  0.2653
  883MOL0     C19131   1.579   6.635  11.774 -0.2973  0.4617 -0.1903
  883MOL0     C19132   1.562   6.492  11.725  0.8289 -0.3458 -0.3768
  883MOL0     C19133   1.579   6.398  11.838  0.9783  0.4499  0.4385
  883MOL0     C19134   1.612   6.326  11.926  0.4520 -0.4296 -0.6817
  883MOL0     C19135   1.649   6.961  11.360 -0.3394 -0.4580  0.6353
  883MOL0     C19136   1.569   6.986  11.246  0.1492 -0.3185 -0.3487
  883MOL0     C19137   1.627   6.962  11.108 -0.0169  0.6335  0.6307
  883MOL0     H19138   0.979   7.150  11.179 -1.3956  2.2882  2.3357
  883MOL0     H19139   0.849   7.263  11.013  0.5858 -3.1467 -1.3235
  883MOL0     H19140   1.010   7.374  10.605 -1.4884  0.3289 -2.6093
  883MOL0     H19141   0.971   7.207  10.670 -2.1650 -0.8347  3.2712
  883MOL0     H19142   0.776   7.433  10.591  0.8840 -0.2507 -1.2338
  883MOL0     H19143   0.742   7.248  10.607 -0.0878 -0.5262  2.2222
  883MOL0     H19144   0.890   7.215  10.416 -0.1087 -0.3789 -0.1811
  883MOL0     H19145   0.911   7.400  10.401 -0.3076  1.6319  4.2920
  883MOL0     H19146   0.675   7.211  10.349  0.6262 -0.0442 -2.0608
  883MOL0     H19147   0.677   7.396  10.360 -0.0748 -0.4489  0.1653
  883MOL0     H19148   0.848   7.395  10.163  2.7795 -3.3059 -1.9792
  883MOL0     H19149   0.808   7.217  10.163  0.3318 -1.0017  0.5423
  883MOL0     H19150   0.579   7.253  10.152  0.1232 -0.6453  0.0798
  883MOL0     H19151   0.592   7.424  10.127 -1.1705  0.5085 -2.2266
  883MOL0     H19152   0.756   7.281   9.932 -0.7664  2.1939 -2.7360
  883MOL0     H19153   0.641   7.409   9.913  1.4098  0.2862 -0.2841
  883MOL0     H19154   0.579   7.169   9.802  0.9839 -1.9173  0.2343
  883MOL0     H19155   0.581   7.111   9.966  1.1853  0.3412  1.3512
  883MOL0     H19156   0.330   7.053  10.028  0.0576 -1.2341 -0.2380
  883MOL0     H19157   0.024   7.084   9.946 -1.7289 -0.5019  0.3589
  883MOL0     H19158   0.087   7.092  10.110  4.7879 -0.9096 -1.4807
  883MOL0     H19159  -0.065   7.316   9.962 -1.7523 -1.0208  1.1308
  883MOL0     H19160  -0.105   7.212  10.090  0.2431 -1.8224 -0.9784
  883MOL0     H19161   0.064   7.465  10.086  0.7014 -1.8783 -1.9486
  883MOL0     H19162   0.129   7.334  10.190  0.9131  2.5247  1.0328
  883MOL0     H19163  -0.015   7.452  10.356 -0.0855  0.9206  0.2900
  883MOL0     H19164  -0.100   7.314  10.289  1.3201  0.1904  2.9784
  883MOL0     H19165   0.040   7.670  10.276 -1.0318 -2.2182 -1.6674
  883MOL0     H19166  -0.009   7.930  10.280 -2.9585  2.5011 -1.3539
  883MOL0     H19167   0.074   8.254  10.234  0.4743 -0.4890  1.1254
  883MOL0     H19168   0.096   8.510  10.196 -1.6362  2.9781 -1.6311
  883MOL0     H19169   0.030   8.697  10.348 -1.0853  0.7597  2.1839
  883MOL0     H19170   0.048   8.754  10.174 -0.3952 -2.6873 -0.8241
  883MOL0     H19171   0.027   8.971  10.318  0.1067  0.8730  0.9560
  883MOL0     H19172  -0.130   8.950  10.246 -1.4425  0.5115  2.1388
  883MOL0     H19173  -0.197   8.810  10.437  0.5137  0.2141 -3.0259
  883MOL0     H19174  -0.068   8.849  10.533 -1.2132  0.4635  0.7998
  883MOL0     H19175  -0.266   9.054  10.417  1.0303 -0.7309 -0.8343
  883MOL0     H19176  -0.126   9.085  10.530 -1.3442  1.6664  1.4164
  883MOL0     H19177  -0.230   9.011  10.709  0.7469 -1.5646 -0.2124
  883MOL0     H19178  -0.344   8.901  10.623 -3.5763  1.2366 -0.5957
  883MOL0     H19179  -0.373   9.201  10.632 -0.2980  0.1767  3.2906
  883MOL0     H19180  -0.475   9.088  10.530 -1.0525 -0.8783  0.9438
  883MOL0     H19181  -0.439   9.018  10.822  0.1195  1.5373  0.3887
  883MOL0     H19182  -0.566   9.001  10.707 -0.1836 -1.8308  2.0128
  883MOL0     H19183  -0.474   9.257  10.867  1.0316  1.2182 -1.4846
  883MOL0     H19184  -0.570   9.280  10.725  1.2188  0.0771 -0.1794
  883MOL0     H19185  -0.330   8.558  10.244  0.7036  2.1025  1.6172
  883MOL0     H19186  -0.351   8.313  10.259  0.3795 -0.8302  1.6998
  883MOL0     H19187  -0.411   7.866  10.158  0.1524  0.1192 -1.4401
  883MOL0     H19188  -0.360   7.625  10.137 -1.8126  2.5081  0.3800
  883MOL0     H19189   1.187   7.367  10.779  0.4593 -0.0502  0.0873
  883MOL0     H19190   1.337   7.268  10.956 -0.3568 -0.6170 -0.8368
  883MOL0     H19191   1.277   7.077  11.396  0.0010  0.6319 -2.4386
  883MOL0     H19192   1.428   7.037  11.605  0.4580 -2.3464  0.1653
  883MOL0     H19193   1.547   6.918  11.785 -0.7290  0.1896 -1.8134
  883MOL0     H19194   1.706   6.860  11.784  0.8744 -0.4097 -1.3182
  883MOL0     H19195   1.672   6.703  11.588  0.0318 -0.4247  0.2487
  883MOL0     H19196   1.500   6.735  11.597 -0.0811  0.2840  0.6678
  883MOL0     H19197   1.491   6.668  11.830  0.5095 -0.6631  1.8378
  883MOL0     H19198   1.667   6.640  11.839 -0.6170 -5.0825  1.1661
  883MOL0     H19199   1.461   6.476  11.687  0.4669  1.0228 -0.0748
  883MOL0     H19200   1.640   6.475  11.650  2.3304 -0.2664  1.0885
  883MOL0     H19201   1.636   6.241  11.986  0.9418 -1.3111 -2.0727
  883MOL0     H19202   1.755   6.951  11.340 -0.7295  1.9743 -3.9785
  883MOL0     H19203   1.588   6.867  11.071 -1.5875  2.0815 -1.6427
  883MOL0     H19204   1.596   7.032  11.031 -1.1592 -3.6443 -3.2095
  883MOL0     H19205   1.736   6.957  11.120 -0.0683  0.9805  1.3066
  884MOL0     O19206   9.902  11.347   9.642 -0.9802  0.1416  0.7085
  884MOL0     C19207  10.018  11.330   9.600 -0.4753 -0.2176 -0.2942
  884MOL0     O19208  10.093  11.219   9.647 -0.8249 -0.7426 -0.1908
  884MOL0     C19209  10.042  11.119   9.723  0.6642  0.2878 -0.1989
  884MOL0     C19210   9.918  11.062   9.702  0.8292 -0.0041  1.0688
  884MOL0     C19211   9.865  10.967   9.789 -0.2531 -0.6281 -0.2679
  884MOL0     C19212   9.940  10.934   9.898 -0.0467  0.0498 -0.3433
  884MOL0     O19213   9.910  10.836   9.987 -0.8627  0.4085  0.2868
  884MOL0     C19214   9.795  10.755   9.984  0.1573  0.3975  0.6823
  884MOL0     C19215   9.775  10.713  10.130  0.4688 -0.4646  0.1425
  884MOL0     C19216   9.719  10.812  10.219  0.2093 -1.3349  0.6295
  884MOL0     C19217   9.668  10.750  10.360 -0.7606 -0.0466  0.2740
  884MOL0     C19218   9.561  10.841  10.430  0.2800 -0.1084 -0.0304
  884MOL0     C19219   9.621  10.984  10.458  0.3716 -0.5859  0.7318
  884MOL0     C19220   9.533  11.070  10.550  1.1015 -0.4550 -0.4701
  884MOL0     C19221   9.580  11.214  10.566 -0.4467 -0.6997 -0.2720
  884MOL0     N19222   9.497  11.284  10.673 -0.1974 -0.5607  0.1533
  884MOL0     C19223   9.526  11.291  10.806 -0.5664  0.4022 -0.3968
  884MOL0     C19224   9.424  11.340  10.874 -0.5382 -0.2666  0.0566
  884MOL0     C19225   9.409  11.368  11.027  0.2321  0.2878  0.3085
  884MOL0     C19226   9.304  11.277  11.096 -0.2627  0.5891  0.7500
  884MOL0     C19227   9.346  11.132  11.116  0.0707  0.9336 -1.1577
  884MOL0     C19228   9.314  11.045  11.003  0.0889 -0.5779  0.8806
  884MOL0     O19229   9.313  10.906  11.031  0.0791  0.0882 -0.5004
  884MOL0     C19230   9.429  10.838  11.020  1.0675 -0.1140  0.4336
  884MOL0     C19231   9.512  10.829  11.132 -1.0718  1.0076  0.7709
  884MOL0     C19232   9.642  10.789  11.111  0.8015  0.2593  0.3990
  884MOL0     C19233   9.687  10.744  10.984 -0.0697  0.0306  0.3173
  884MOL0     C19234   9.825  10.678  10.978 -0.3161 -0.8533  0.3227
  884MOL0     O19235   9.916  10.735  11.057  0.8620 -0.6732 -0.5639
  884MOL0     C19236  10.035  10.674  11.059 -0.0274 -0.1583 -0.8311
  884MOL0     C19237  10.135  10.692  10.962 -0.2459 -0.0856 -0.0501
  884MOL0     C19238  10.258  10.633  10.978 -0.1048  0.4534  0.4404
  884MOL0     C19239  10.295  10.563  11.089 -0.1370  0.0896  0.5067
  884MOL0     O19240  10.423  10.515  11.103 -0.3112 -0.8265  0.5429
  884MOL0     C19241  10.420  10.382  11.132 -0.1276  0.4087  1.1252
  884MOL0     C19242  10.421  10.290  11.012  1.0744  0.7574  0.2851
  884MOL0     C19243  10.486  10.154  11.034  0.2851 -0.2084  0.4721
  884MOL0     C19244  10.476  10.063  10.906  0.7769  1.3772  0.1621
  884MOL0     C19245  10.524   9.921  10.953 -0.8128  0.6304  0.0170
  884MOL0     C19246  10.601   9.842  10.844 -0.0446 -0.1108  0.6216
  884MOL0     C19247  10.692   9.736  10.896  0.0422 -0.0093  0.5791
  884MOL0     C19248  10.757   9.657  10.778 -0.9353  0.1520 -0.1194
  884MOL0    Cl19249  10.905   9.741  10.716  0.2174  0.3266 -0.0331
  884MOL0     C19250  10.199  10.556  11.189  0.3235  0.0652 -0.8289
  884MOL0     C19251  10.073  10.607  11.174  0.7808  0.0946  0.5288
  884MOL0     O19252   9.845  10.601  10.890  0.1871  0.8401  0.0498
  884MOL0     C19253   9.600  10.753  10.873  1.0969 -0.2324  0.3282
  884MOL0     C19254   9.472  10.799  10.889  0.6071  0.1794 -0.0620
  884MOL0     N19255   9.326  11.356  10.781  0.6878  0.3136 -0.4586
  884MOL0     N19256   9.371  11.334  10.663  0.3723  0.1392  0.1830
  884MOL0     C19257  10.059  10.989   9.926 -0.9369 -0.1305 -0.2836
  884MOL0     C19258  10.118  11.079   9.832  0.8040  0.1983 -0.4648
  884MOL0     C19259  10.088  11.409   9.500  0.2409 -0.6424  0.0055
  884MOL0     C19260  10.216  11.362   9.464 -0.9674  0.7050 -0.2643
  884MOL0     C19261  10.301  11.431   9.375  0.5924  0.3556  0.2821
  884MOL0     C19262  10.248  11.542   9.301 -0.5649 -0.6517  0.0476
  884MOL0     O19263  10.329  11.585   9.192  0.2859 -0.0473  0.5674
  884MOL0     C19264  10.294  11.718   9.138  0.0400  1.4914 -0.7793
  884MOL0     C19265  10.368  11.762   9.020 -0.4114 -1.1470 -0.2148
  884MOL0     C19266  10.334  11.682   8.905 -0.3749 -1.3154 -0.6869
  884MOL0     C19267  10.410  11.743   8.778 -0.8413 -0.2605  0.4163
  884MOL0     C19268  10.356  11.662   8.674 -0.5541  1.0353 -0.2697
  884MOL0     C19269  10.316  11.588   8.591  0.4638 -1.0984 -0.6060
  884MOL0     C19270  10.122  11.603   9.352 -0.8831  0.2809  0.3952
  884MOL0     C19271  10.046  11.536   9.456  0.3479 -0.0582 -0.2683
  884MOL0     C19272   9.918  11.603   9.514 -0.4765  0.6560  0.4213
  884MOL0     H19273   9.854  11.086   9.618 -0.3533  1.7646  2.3858
  884MOL0     H19274   9.766  10.931   9.763  0.3062 -1.6633 -1.0451
  884MOL0     H19275   9.704  10.809   9.956 -2.3299 -3.7933 -0.2342
  884MOL0     H19276   9.808  10.666   9.922  2.5709 -1.3703  3.4893
  884MOL0     H19277   9.870  10.688  10.178  0.5722  2.9601  2.0486
  884MOL0     H19278   9.702  10.632  10.123  0.3378 -0.1920 -3.9607
  884MOL0     H19279   9.627  10.856  10.179 -0.2997 -1.3391  1.7426
  884MOL0     H19280   9.786  10.896  10.238  0.6234 -1.4955 -0.1048
  884MOL0     H19281   9.618  10.656  10.334  2.1516 -1.0101 -2.4562
  884MOL0     H19282   9.761  10.728  10.413  0.0343 -0.6590 -1.3269
  884MOL0     H19283   9.464  10.847  10.378 -0.2405 -2.6460  0.5214
  884MOL0     H19284   9.519  10.801  10.523 -1.4950 -1.4540 -1.3361
  884MOL0     H19285   9.726  10.982  10.488 -0.2060 -1.9315  2.8810
  884MOL0     H19286   9.626  11.039  10.363 -1.2754 -2.3795 -0.4558
  884MOL0     H19287   9.548  11.027  10.649  1.3468  0.6187 -0.0250
  884MOL0     H19288   9.430  11.054  10.516  1.0319 -0.8957 -0.0541
  884MOL0     H19289   9.687  11.230  10.582 -0.5241 -0.7291  0.2982
  884MOL0     H19290   9.556  11.260  10.469  1.1036 -0.6443 -0.6445
  884MOL0     H19291   9.621  11.263  10.852  0.2251  0.6051 -1.8312
  884MOL0     H19292   9.508  11.348  11.069  0.6272 -0.6947 -1.0065
  884MOL0     H19293   9.394  11.475  11.041  4.7397  1.1520  0.0649
  884MOL0     H19294   9.284  11.310  11.198  0.6663  0.5580  0.9501
  884MOL0     H19295   9.211  11.266  11.039  0.0851 -1.3770  0.4651
  884MOL0     H19296   9.300  11.095  11.208  1.4324  1.9340 -0.0351
  884MOL0     H19297   9.455  11.131  11.130  0.0714  1.0152 -1.1591
  884MOL0     H19298   9.390  11.061  10.926  1.2334 -1.9431  1.6784
  884MOL0     H19299   9.215  11.073  10.966  1.4297  4.6122  0.3786
  884MOL0     H19300   9.474  10.872  11.224  0.9651  3.9641  0.4050
  884MOL0     H19301   9.723  10.772  11.180  2.7214 -1.1326 -2.0281
  884MOL0     H19302  10.106  10.738  10.869 -1.1277 -1.6067 -0.5662
  884MOL0     H19303  10.328  10.651  10.898 -0.1825  1.3917  0.5757
  884MOL0     H19304  10.520  10.363  11.175  0.3560 -0.4088 -0.2932
  884MOL0     H19305  10.342  10.347  11.200 -1.5385  3.0869  0.9934
  884MOL0     H19306  10.322  10.262  10.976  0.7374  0.1148  1.6454
  884MOL0     H19307  10.464  10.334  10.922 -1.7687  2.2291 -0.4909
  884MOL0     H19308  10.590  10.154  11.068  2.1385 -0.6782 -4.3293
  884MOL0     H19309  10.431  10.100  11.111  1.9979 -1.8718  0.6186
  884MOL0     H19310  10.538  10.106  10.827 -1.0248  1.8137 -1.0638
  884MOL0     H19311  10.371  10.056  10.875  0.6835  0.1923  0.7018
  884MOL0     H19312  10.440   9.859  10.985  1.3719 -3.8472 -1.8691
  884MOL0     H19313  10.594   9.935  11.036 -1.7319  0.7597  0.7785
  884MOL0     H19314  10.521   9.799  10.783 -0.2831  1.8609 -0.5791
  884MOL0     H19315  10.649   9.919  10.782 -0.1026  0.3005  1.0843
  884MOL0     H19316  10.630   9.672  10.960  0.3732 -0.0392  0.8728
  884MOL0     H19317  10.777   9.764  10.959 -0.1593 -2.1509  1.8951
  884MOL0     H19318  10.793   9.558  10.809 -0.6255  0.5928  0.9845
  884MOL0     H19319  10.683   9.650  10.698 -0.4267  2.5776 -0.8911
  884MOL0     H19320  10.222  10.499  11.279 -1.0029 -0.2855 -0.6902
  884MOL0     H19321  10.006  10.581  11.255 -0.4324  0.4576 -0.3208
  884MOL0     H19322   9.648  10.727  10.779 -0.4309  2.4611 -1.2950
  884MOL0     H19323   9.415  10.819  10.799  1.0372  1.7438 -0.0212
  884MOL0     H19324  10.105  10.956  10.019 -1.2502 -0.3898 -0.2169
  884MOL0     H19325  10.217  11.120   9.846  0.2256  1.0912  1.2858
  884MOL0     H19326  10.262  11.273   9.505  0.3185  0.7880 -1.4871
  884MOL0     H19327  10.396  11.380   9.364  1.4463  1.6585  1.2381
  884MOL0     H19328  10.311  11.774   9.230 -5.9081 -0.7558  2.2357
  884MOL0     H19329  10.188  11.711   9.114 -0.8821  2.8220  2.3801
  884MOL0     H19330  10.474  11.761   9.046 -0.7753  3.7772  2.5570
  884MOL0     H19331  10.355  11.870   9.005  0.2373 -0.6292  2.4326
  884MOL0     H19332  10.225  11.681   8.895 -0.6661  1.1628  1.2493
  884MOL0     H19333  10.371  11.580   8.912  2.8962 -0.1885  0.1122
  884MOL0     H19334  10.387  11.849   8.773 -0.8930 -0.3214 -2.6331
  884MOL0     H19335  10.519  11.731   8.775 -0.5779  1.8841  0.1284
  884MOL0     H19336  10.287  11.526   8.508 -0.2676  0.8064 -1.8342
  884MOL0     H19337  10.086  11.696   9.308 -0.5055  0.5554  0.6591
  884MOL0     H19338   9.919  11.712   9.511  2.2461  0.6818 -0.5532
  884MOL0     H19339   9.820  11.564   9.482  0.1999 -3.6368  2.7346
  884MOL0     H19340   9.917  11.588   9.623 -4.0070 -0.2326  0.4042
  885MOL0     O19341   3.357   0.440  10.697 -0.1542 -0.0418 -0.2119
  885MOL0     C19342   3.234   0.449  10.688 -0.3247  0.8886  0.0358
  885MOL0     O19343   3.150   0.339  10.680  0.4369 -0.1778  0.1039
  885MOL0     C19344   3.175   0.230  10.758 -0.0803 -0.1546  0.5340
  885MOL0     C19345   3.069   0.170  10.829 -0.4404 -0.9307 -0.5982
  885MOL0     C19346   3.093   0.054  10.910  0.9053  0.2328  0.4958
  885MOL0     C19347   3.212  -0.001  10.917  0.2201 -1.0012 -0.5351
  885MOL0     O19348   3.235  -0.097  11.008 -0.0671 -0.9417 -0.0215
  885MOL0     C19349   3.185  -0.228  10.989 -0.1041 -0.8624  1.4268
  885MOL0     C19350   3.119  -0.300  11.108 -0.2706 -1.0099 -0.2613
  885MOL0     C19351   2.981  -0.243  11.150  0.3517  0.0498 -0.1931
  885MOL0     C19352   2.872  -0.288  11.063 -0.3870  0.5743 -1.2541
  885MOL0     C19353   2.723  -0.262  11.107 -0.1719 -0.2373  0.4785
  885MOL0     C19354   2.624  -0.323  11.009  1.0339 -0.3562  0.5112
  885MOL0     C19355   2.625  -0.469  11.019  1.4155 -0.4189 -0.6127
  885MOL0     C19356   2.506  -0.520  10.935 -1.2070 -1.2144 -0.1073
  885MOL0     N19357   2.498  -0.665  10.965  0.5019  0.0866 -0.1306
  885MOL0     C19358   2.411  -0.721  11.054 -0.1487  0.7784 -0.4073
  885MOL0     C19359   2.446  -0.849  11.055  0.8252  0.0245  1.2304
  885MOL0     C19360   2.351  -0.953  11.102 -0.2417  0.6713  0.0395
  885MOL0     C19361   2.410  -1.094  11.097  0.1078  0.5421 -0.5979
  885MOL0     C19362   2.313  -1.207  11.144  0.3771 -0.8296 -0.1056
  885MOL0     C19363   2.231  -1.180  11.271 -0.3810  0.5995  0.5279
  885MOL0     O19364   2.165  -1.295  11.316  0.0788 -0.1727 -0.3506
  885MOL0     C19365   2.068  -1.281  11.411  0.4438 -0.5234 -0.0369
  885MOL0     C19366   1.993  -1.399  11.441  0.0128 -0.2319  0.2162
  885MOL0     C19367   1.891  -1.393  11.537  1.1975  0.5367 -0.3361
  885MOL0     C19368   1.852  -1.275  11.604 -0.4680  0.4803  0.8034
  885MOL0     C19369   1.760  -1.279  11.704 -0.4338 -0.2558  0.6531
  885MOL0     O19370   1.718  -1.395  11.755  0.0880 -0.3562  0.6105
  885MOL0     C19371   1.597  -1.388  11.819  1.1685 -0.2222 -0.6696
  885MOL0     C19372   1.581  -1.419  11.957 -0.9909 -0.0789  0.1080
  885MOL0     C19373   1.460  -1.390  12.024  0.2894  0.0274  0.7146
  885MOL0     C19374   1.355  -1.342  11.954  0.0404  0.0133  0.6452
  885MOL0     O19375   1.231  -1.312  11.991  0.6699  0.2028 -0.3939
  885MOL0     C19376   1.218  -1.280  12.130  0.1897 -0.9711  0.2359
  885MOL0     C19377   1.064  -1.270  12.162 -0.0004  0.1936 -0.4826
  885MOL0     C19378   1.031  -1.202  12.300  0.0260  0.3599 -0.6186
  885MOL0     C19379   0.882  -1.217  12.339 -0.9810  0.1065  0.9060
  885MOL0     C19380   0.781  -1.169  12.230  0.7880  0.6128 -0.8955
  885MOL0     C19381   0.646  -1.151  12.305  0.1965 -0.3110  0.0365
  885MOL0     C19382   0.537  -1.131  12.197  0.4229 -0.2412  0.2773
  885MOL0     C19383   0.400  -1.089  12.258  0.4085  0.3168  0.5668
  885MOL0    Cl19384   0.333  -1.232  12.337  0.0870  0.2306  0.3680
  885MOL0     C19385   1.361  -1.329  11.816 -0.1399 -0.5847 -0.4712
  885MOL0     C19386   1.482  -1.357  11.748  0.4313 -0.6050 -0.2683
  885MOL0     O19387   1.716  -1.171  11.732 -0.9561 -0.4341  0.0910
  885MOL0     C19388   1.921  -1.159  11.560 -0.5239  0.2577 -0.2130
  885MOL0     C19389   2.037  -1.158  11.474  0.3070  0.2050 -0.0492
  885MOL0     N19390   2.536  -0.874  10.954  0.8982 -0.0419 -0.7256
  885MOL0     N19391   2.560  -0.761  10.899 -0.1557  0.0899 -0.6526
  885MOL0     C19392   3.313   0.044  10.834 -1.2964  1.9790 -0.0718
  885MOL0     C19393   3.291   0.159  10.756 -0.1739 -0.0447 -0.5755
  885MOL0     C19394   3.183   0.580  10.651  0.9082  0.9119 -0.1169
  885MOL0     C19395   3.054   0.576  10.594  0.3107  0.4710  0.4386
  885MOL0     C19396   2.983   0.699  10.560 -0.0986  0.3231 -0.5355
  885MOL0     C19397   3.048   0.822  10.572 -0.5517  0.4005 -0.5725
  885MOL0     O19398   2.972   0.922  10.521  0.1647  0.9285 -0.1279
  885MOL0     C19399   3.015   1.056  10.508  0.2899  0.0251 -1.0100
  885MOL0     C19400   2.888   1.132  10.485  0.0825 -0.5924  0.2158
  885MOL0     C19401   2.921   1.278  10.524  0.1934  0.3892 -0.4932
  885MOL0     C19402   2.804   1.385  10.493  1.1126 -1.2977  0.6487
  885MOL0     C19403   2.858   1.522  10.473  0.9766 -0.0309 -0.0815
  885MOL0     C19404   2.891   1.634  10.453 -0.7342  0.7784 -0.1890
  885MOL0     C19405   3.172   0.830  10.626  0.4142 -0.5485 -0.1412
  885MOL0     C19406   3.242   0.705  10.667  0.0351 -0.5180  0.5883
  885MOL0     C19407   3.382   0.726  10.740  1.1248  0.8257  0.9588
  885MOL0     H19408   2.973   0.221  10.830  0.6954  1.3142  0.4210
  885MOL0     H19409   3.014   0.031  10.981 -0.3567 -0.2633 -1.0035
  885MOL0     H19410   3.115  -0.217  10.906  2.5526  2.7913 -0.6493
  885MOL0     H19411   3.272  -0.288  10.960 -0.2464 -0.5036  0.1875
  885MOL0     H19412   3.184  -0.286  11.194 -0.1121 -0.4371 -0.4719
  885MOL0     H19413   3.099  -0.406  11.088 -0.4557 -1.7023  3.0789
  885MOL0     H19414   2.981  -0.134  11.141 -2.6178  0.0676 -0.9832
  885MOL0     H19415   2.967  -0.268  11.256 -1.8424 -0.2199 -0.5007
  885MOL0     H19416   2.882  -0.253  10.959 -1.5962 -1.0619 -1.9604
  885MOL0     H19417   2.889  -0.395  11.054 -0.2977  0.5996 -1.4001
  885MOL0     H19418   2.711  -0.297  11.210  1.9188 -1.7849  0.2605
  885MOL0     H19419   2.705  -0.154  11.108 -0.6915 -0.3166  0.1626
  885MOL0     H19420   2.526  -0.280  11.029  0.5141 -1.3302  0.1044
  885MOL0     H19421   2.653  -0.295  10.907  1.3545  1.0448  0.9634
  885MOL0     H19422   2.609  -0.500  11.123  0.2417  0.2852 -0.5598
  885MOL0     H19423   2.721  -0.506  10.984  0.4844 -0.6104 -3.1437
  885MOL0     H19424   2.403  -0.486  10.949 -0.9782 -0.4230 -0.2592
  885MOL0     H19425   2.528  -0.499  10.830  1.3650 -1.8490  0.2400
  885MOL0     H19426   2.326  -0.674  11.102 -0.2206 -1.3695  1.7559
  885MOL0     H19427   2.334  -0.934  11.208  0.4365  0.6313  0.1609
  885MOL0     H19428   2.257  -0.939  11.047 -0.1031  2.0640  0.1155
  885MOL0     H19429   2.435  -1.113  10.993 -0.9482  2.8522 -1.3421
  885MOL0     H19430   2.504  -1.102  11.152  1.2527  2.1333 -2.2332
  885MOL0     H19431   2.370  -1.295  11.176 -0.7497 -0.8571  2.0625
  885MOL0     H19432   2.257  -1.230  11.053  2.2683 -1.3685 -1.1974
  885MOL0     H19433   2.167  -1.097  11.239  2.0508  1.4296 -2.7568
  885MOL0     H19434   2.287  -1.143  11.357  2.7237 -1.5846 -0.3630
  885MOL0     H19435   2.022  -1.491  11.392 -1.4860 -2.0657  2.5500
  885MOL0     H19436   1.854  -1.487  11.577  1.3461  0.7444  0.3176
  885MOL0     H19437   1.667  -1.457  12.011 -2.8058 -2.8656  1.3098
  885MOL0     H19438   1.449  -1.414  12.129  1.2420 -0.5433  0.6946
  885MOL0     H19439   1.265  -1.352  12.197  1.5943  0.9626  1.4367
  885MOL0     H19440   1.267  -1.187  12.161  1.1449 -1.4877  0.3352
  885MOL0     H19441   1.020  -1.211  12.081  0.8447 -1.8719 -2.5600
  885MOL0     H19442   1.025  -1.372  12.153  0.5968 -0.1064  0.1961
  885MOL0     H19443   1.093  -1.257  12.372 -0.8608  1.7083  1.2566
  885MOL0     H19444   1.060  -1.097  12.291  1.7108 -0.1679 -2.0315
  885MOL0     H19445   0.869  -1.160  12.431  1.1957  2.7779 -0.2867
  885MOL0     H19446   0.863  -1.321  12.369  0.4407 -0.2772  0.5626
  885MOL0     H19447   0.758  -1.247  12.157 -3.0140  2.8904 -2.4362
  885MOL0     H19448   0.815  -1.080  12.177  1.8356  1.3709  0.9614
  885MOL0     H19449   0.633  -1.237  12.371 -0.2508  0.9825  1.7037
  885MOL0     H19450   0.662  -1.058  12.361  0.5041  0.8304 -1.8649
  885MOL0     H19451   0.514  -1.217  12.134  1.6085  0.1680 -0.7458
  885MOL0     H19452   0.565  -1.045  12.135 -1.3531 -0.0189 -0.2923
  885MOL0     H19453   0.403  -1.007  12.329 -0.4080  1.3118 -0.5108
  885MOL0     H19454   0.337  -1.055  12.176  2.9173 -2.4423 -2.8504
  885MOL0     H19455   1.271  -1.301  11.763 -1.6211  1.8834  2.9676
  885MOL0     H19456   1.485  -1.348  11.639 -3.0998  3.4843 -0.2904
  885MOL0     H19457   1.882  -1.066  11.599 -0.4939  0.9694 -1.7976
  885MOL0     H19458   2.103  -1.073  11.475 -1.0456  1.2820  0.6990
  885MOL0     H19459   3.404  -0.014  10.843 -1.8341  1.0920 -0.2662
  885MOL0     H19460   3.373   0.192  10.692  0.5562 -1.4079 -0.3873
  885MOL0     H19461   3.003   0.481  10.594  3.4667 -1.3603 -0.0822
  885MOL0     H19462   2.881   0.684  10.527 -0.3050 -0.1813  0.3016
  885MOL0     H19463   3.084   1.078  10.426  0.7209 -0.1366 -0.6915
  885MOL0     H19464   3.070   1.092  10.596 -1.4553  2.5464 -0.8139
  885MOL0     H19465   2.808   1.102  10.552  3.2145 -0.8959  4.2032
  885MOL0     H19466   2.852   1.127  10.382 -0.5523 -0.2800  0.4163
  885MOL0     H19467   3.004   1.315  10.462  1.3670 -0.5023  0.4879
  885MOL0     H19468   2.944   1.282  10.631  1.6261  2.0124 -0.8112
  885MOL0     H19469   2.739   1.352  10.411 -1.2236 -3.0520  3.0310
  885MOL0     H19470   2.735   1.388  10.578 -4.2421 -1.2844 -3.1713
  885MOL0     H19471   2.925   1.734  10.440 -1.1440  1.2203  1.6866
  885MOL0     H19472   3.232   0.920  10.633 -2.4006  1.7377 -2.8968
  885MOL0     H19473   3.389   0.651  10.818  0.8831  1.3919  1.5345
  885MOL0     H19474   3.470   0.702  10.680  0.0955 -1.7345  0.3301
  885MOL0     H19475   3.375   0.831  10.770 -0.9122  1.4887 -1.4300
  886MOL0     O19476   7.303   6.406   4.392  0.9373  0.2215  0.4111
  886MOL0     C19477   7.344   6.519   4.415 -0.0015 -0.6099 -0.0994
  886MOL0     O19478   7.469   6.559   4.376 -0.2930  0.4009 -0.2344
  886MOL0     C19479   7.561   6.454   4.341 -1.3547  0.1481  0.9124
  886MOL0     C19480   7.623   6.448   4.212  0.3190  0.1041 -0.2033
  886MOL0     C19481   7.734   6.359   4.189 -0.2061 -0.7430  0.3643
  886MOL0     C19482   7.772   6.270   4.295  0.7975 -0.6802 -0.9009
  886MOL0     O19483   7.891   6.202   4.302  0.5999  0.3069  0.1571
  886MOL0     C19484   7.907   6.093   4.197  0.2049 -0.2650 -0.5769
  886MOL0     C19485   7.789   6.011   4.166  0.4108 -0.1618  0.9711
  886MOL0     C19486   7.747   5.920   4.281  0.4631 -0.2992  0.8348
  886MOL0     C19487   7.592   5.890   4.282 -0.6478 -0.0785  0.2348
  886MOL0     C19488   7.565   5.831   4.422 -0.3274 -0.4821 -0.4124
  886MOL0     C19489   7.662   5.717   4.477  0.0280 -0.0732  0.0747
  886MOL0     C19490   7.630   5.649   4.602  0.4469 -0.5895  0.8655
  886MOL0     C19491   7.505   5.552   4.571 -0.0183 -0.0496 -0.5199
  886MOL0     N19492   7.485   5.471   4.699  0.0754  0.5751  0.4784
  886MOL0     C19493   7.576   5.389   4.770  0.4855  0.2062  1.1128
  886MOL0     C19494   7.500   5.353   4.879 -0.9885 -0.0585  0.1319
  886MOL0     C19495   7.544   5.256   4.981 -0.4313 -0.4621 -0.5621
  886MOL0     C19496   7.626   5.317   5.094  0.0211  0.2815  0.5876
  886MOL0     C19497   7.748   5.397   5.056 -0.4291  0.0637  0.1094
  886MOL0     C19498   7.731   5.545   5.035  1.0780 -0.9195 -0.6380
  886MOL0     O19499   7.833   5.600   4.957 -0.7909 -0.8737 -0.6109
  886MOL0     C19500   7.829   5.736   4.925 -0.0842 -0.4454  0.6694
  886MOL0     C19501   7.749   5.833   4.984  1.2152  0.4282  0.2781
  886MOL0     C19502   7.766   5.962   4.960 -0.0040 -0.5515  0.5563
  886MOL0     C19503   7.863   6.005   4.865 -0.2577  0.4819  0.4300
  886MOL0     C19504   7.860   6.143   4.809 -0.3258 -1.1703 -0.8280
  886MOL0     O19505   7.964   6.177   4.732 -1.0455  0.0762  0.0019
  886MOL0     C19506   7.998   6.308   4.719  0.2070 -0.8776 -0.1221
  886MOL0     C19507   8.056   6.384   4.822  0.1149 -0.4981  0.5163
  886MOL0     C19508   8.112   6.511   4.797  0.3935 -0.1035  0.1592
  886MOL0     C19509   8.106   6.566   4.667 -0.3770 -0.2615 -0.1570
  886MOL0     O19510   8.137   6.698   4.642  0.0416 -0.3251  0.0590
  886MOL0     C19511   8.177   6.736   4.507 -0.8664  0.0696  0.3875
  886MOL0     C19512   8.235   6.878   4.512  0.1768  0.0438  1.7176
  886MOL0     C19513   8.122   6.981   4.553 -0.0079  0.2577 -0.0383
  886MOL0     C19514   8.190   7.121   4.548  0.8918 -0.7236  0.0230
  886MOL0     C19515   8.102   7.240   4.576  0.7140 -0.9802 -0.2177
  886MOL0     C19516   8.013   7.278   4.459 -0.0327  0.3293  0.5816
  886MOL0     C19517   7.974   7.424   4.449 -1.0978  0.6903  0.6611
  886MOL0     C19518   7.843   7.417   4.366  0.0180  0.1533  0.0618
  886MOL0    Cl19519   7.708   7.344   4.462  0.0906 -0.5516 -0.1531
  886MOL0     C19520   8.043   6.489   4.571 -0.1552 -0.0914  0.5484
  886MOL0     C19521   7.992   6.362   4.589 -1.2533  0.1923 -0.2321
  886MOL0     O19522   7.770   6.222   4.840 -0.4843 -0.2257  0.0590
  886MOL0     C19523   7.951   5.912   4.819  0.9627  0.3383  0.5857
  886MOL0     C19524   7.931   5.775   4.851  0.1019 -0.5478  0.6979
  886MOL0     N19525   7.381   5.419   4.879  0.5033 -0.0224  0.1156
  886MOL0     N19526   7.364   5.473   4.764 -0.4163 -1.3987  0.6551
  886MOL0     C19527   7.696   6.271   4.417  0.0341  0.5043  0.5949
  886MOL0     C19528   7.585   6.350   4.431  0.4841 -0.2032 -0.9533
  886MOL0     C19529   7.249   6.614   4.478 -0.2096  0.8779  0.7692
  886MOL0     C19530   7.266   6.754   4.461  0.0548 -0.0692 -0.7124
  886MOL0     C19531   7.176   6.857   4.499  0.1099 -0.2798  0.0615
  886MOL0     C19532   7.069   6.809   4.578 -0.0987 -0.1790 -0.1916
  886MOL0     O19533   6.990   6.902   4.644 -0.2168 -0.6824  0.2559
  886MOL0     C19534   6.850   6.897   4.638  0.5421  0.0385 -0.6758
  886MOL0     C19535   6.799   7.007   4.557 -0.4653  0.5313  0.3931
  886MOL0     C19536   6.837   6.990   4.406  0.8357 -0.3860  0.1659
  886MOL0     C19537   6.812   7.123   4.330 -0.3204 -0.5965  0.3211
  886MOL0     C19538   6.672   7.169   4.322  1.2455 -0.1675  0.0393
  886MOL0     C19539   6.559   7.200   4.283 -0.5949 -0.5699  0.5758
  886MOL0     C19540   7.054   6.674   4.605 -0.2366 -1.0052 -1.3668
  886MOL0     C19541   7.139   6.578   4.560 -0.2749 -0.2015 -0.1994
  886MOL0     C19542   7.111   6.443   4.619  0.9232  0.3309  0.3521
  886MOL0     H19543   7.600   6.533   4.148 -3.2927  0.1253  0.9313
  886MOL0     H19544   7.788   6.382   4.098  0.0388 -2.0813  0.1602
  886MOL0     H19545   7.933   6.151   4.108 -1.5711  1.5281 -0.0066
  886MOL0     H19546   7.986   6.029   4.238 -0.9460 -1.6334 -0.4218
  886MOL0     H19547   7.802   5.938   4.086  0.1725  1.3777 -0.5230
  886MOL0     H19548   7.711   6.080   4.133  0.4965 -0.5677 -0.1299
  886MOL0     H19549   7.780   5.973   4.371  2.0259  0.7876 -0.3111
  886MOL0     H19550   7.803   5.827   4.278  2.4655  0.8238 -2.7495
  886MOL0     H19551   7.531   5.978   4.260 -2.8113 -0.5783  3.5710
  886MOL0     H19552   7.585   5.822   4.197 -0.6159  1.5178 -1.0978
  886MOL0     H19553   7.583   5.909   4.497  1.3290  1.2959 -2.5364
  886MOL0     H19554   7.464   5.790   4.424  0.1416 -1.6488  0.9015
  886MOL0     H19555   7.664   5.650   4.391 -1.0996 -0.9182  0.6837
  886MOL0     H19556   7.766   5.751   4.487 -0.6333  2.1777 -0.1767
  886MOL0     H19557   7.610   5.714   4.687 -0.4054 -1.1798  1.1305
  886MOL0     H19558   7.713   5.582   4.626 -1.8111 -2.7491  3.2774
  886MOL0     H19559   7.418   5.612   4.543 -0.1081  0.0461 -0.0522
  886MOL0     H19560   7.526   5.490   4.484 -1.0969 -0.6038 -0.3972
  886MOL0     H19561   7.674   5.354   4.739  0.7005  1.0613  0.7865
  886MOL0     H19562   7.463   5.194   5.020  0.0803 -0.7043  0.1442
  886MOL0     H19563   7.613   5.192   4.925  2.0184  1.7705 -0.2954
  886MOL0     H19564   7.562   5.375   5.161  2.0348 -1.1763  4.0499
  886MOL0     H19565   7.664   5.226   5.141 -0.0760 -1.1415 -1.8801
  886MOL0     H19566   7.819   5.352   4.986  0.6621 -0.7945  1.7042
  886MOL0     H19567   7.811   5.387   5.146  0.1155 -0.9186 -0.3679
  886MOL0     H19568   7.736   5.585   5.137 -1.6878  0.2563 -0.8606
  886MOL0     H19569   7.634   5.563   4.988  2.0541 -1.8000 -3.1435
  886MOL0     H19570   7.692   5.800   5.070  1.0856  2.7988  1.1537
  886MOL0     H19571   7.712   6.038   5.016 -0.8591  0.3833 -1.4264
  886MOL0     H19572   8.090   6.344   4.918 -1.5871 -0.8114  1.0254
  886MOL0     H19573   8.154   6.554   4.887 -4.0105  3.5284  0.8749
  886MOL0     H19574   8.252   6.669   4.465  2.0677  3.6012 -0.4821
  886MOL0     H19575   8.084   6.738   4.450 -0.5185  2.8105 -0.1851
  886MOL0     H19576   8.320   6.887   4.580 -0.4457 -0.4484  2.5742
  886MOL0     H19577   8.273   6.918   4.417 -1.3711 -0.3046  0.9162
  886MOL0     H19578   8.050   6.984   4.471  0.9749 -2.1000 -1.1167
  886MOL0     H19579   8.070   6.965   4.648  1.5387  1.9560  1.1700
  886MOL0     H19580   8.243   7.136   4.454  0.5114 -2.3745 -0.4852
  886MOL0     H19581   8.273   7.123   4.620 -0.7489 -0.1310  2.0132
  886MOL0     H19582   8.164   7.326   4.603 -1.9042  0.5524  1.3303
  886MOL0     H19583   8.032   7.226   4.659  1.2930  2.3148  0.9999
  886MOL0     H19584   8.065   7.251   4.366 -0.0573 -1.5799  1.0834
  886MOL0     H19585   7.925   7.213   4.457  0.8826 -1.0022 -1.8405
  886MOL0     H19586   8.050   7.486   4.401  1.4017 -1.3462  1.7439
  886MOL0     H19587   7.963   7.479   4.543 -0.6140  2.0709 -0.0705
  886MOL0     H19588   7.811   7.522   4.360 -2.0205 -0.1484  3.1392
  886MOL0     H19589   7.864   7.378   4.266  3.0920 -0.4892  0.8289
  886MOL0     H19590   8.027   6.523   4.469 -0.8391  1.5634  1.1765
  886MOL0     H19591   7.958   6.299   4.508  1.0414 -0.1790 -0.9747
  886MOL0     H19592   8.028   5.941   4.749 -0.3901  2.4780 -0.0940
  886MOL0     H19593   7.995   5.693   4.819 -0.7876 -1.4201  1.1216
  886MOL0     H19594   7.726   6.223   4.509  2.0611  0.7466  0.1083
  886MOL0     H19595   7.529   6.351   4.524 -1.9522  2.5598 -2.2753
  886MOL0     H19596   7.352   6.795   4.409 -0.7226 -0.6315 -2.5289
  886MOL0     H19597   7.196   6.960   4.471 -1.7371 -0.0566 -0.5277
  886MOL0     H19598   6.812   6.905   4.740 -0.8563 -0.0104 -1.1804
  886MOL0     H19599   6.818   6.804   4.592  1.5146  0.3386 -2.0434
  886MOL0     H19600   6.832   7.104   4.597  1.4559 -0.9834  2.7463
  886MOL0     H19601   6.690   7.000   4.559 -0.5541  1.3369 -0.7039
  886MOL0     H19602   6.774   6.919   4.352  1.5704  1.4974 -3.4407
  886MOL0     H19603   6.941   6.958   4.411  1.1216  0.4047 -0.5840
  886MOL0     H19604   6.862   7.210   4.375  0.0635  0.1419 -1.4492
  886MOL0     H19605   6.839   7.098   4.227  0.8766 -1.8037  0.8936
  886MOL0     H19606   6.459   7.228   4.256 -0.3417  0.4949  0.6753
  886MOL0     H19607   6.974   6.654   4.677  3.7735 -0.7169  3.7993
  886MOL0     H19608   7.199   6.378   4.621  1.3075  0.8637  1.3357
  886MOL0     H19609   7.072   6.442   4.721  3.1174 -2.1607  1.2833
  886MOL0     H19610   7.039   6.403   4.548  1.5058 -2.1690  1.0894
  887MOL0     O19611   6.359   5.000   9.513  0.7064 -0.0418  0.3254
  887MOL0     C19612   6.268   5.044   9.584 -0.2646 -0.0853 -0.7273
  887MOL0     O19613   6.289   5.124   9.705 -0.3954  0.2946  0.8703
  887MOL0     C19614   6.414   5.113   9.769  1.3708 -0.9279 -0.3202
  887MOL0     C19615   6.448   4.986   9.809 -0.3125  0.1691 -0.0570
  887MOL0     C19616   6.563   4.970   9.889  0.1413  0.1531  0.0219
  887MOL0     C19617   6.649   5.081   9.906  0.9429 -0.3391 -0.2126
  887MOL0     O19618   6.762   5.086   9.980  0.0936  0.0515 -0.3786
  887MOL0     C19619   6.831   4.964  10.012  0.1508 -0.3513  1.1721
  887MOL0     C19620   6.801   4.941  10.161  0.1322 -0.1685  0.3361
  887MOL0     C19621   6.902   4.828  10.203 -1.1470 -0.8437 -0.5692
  887MOL0     C19622   6.924   4.823  10.351  0.6821 -0.4981  1.5173
  887MOL0     C19623   7.059   4.768  10.372 -0.7008  0.7642  0.4410
  887MOL0     C19624   7.088   4.760  10.527 -0.4365  0.2733 -0.0162
  887MOL0     C19625   7.242   4.788  10.554 -0.8094 -0.0723  0.1182
  887MOL0     C19626   7.341   4.713  10.469 -0.3161 -0.1133 -0.4298
  887MOL0     N19627   7.332   4.573  10.501 -0.3794  0.7665  1.3527
  887MOL0     C19628   7.412   4.512  10.594 -0.4761  0.6441  0.3923
  887MOL0     C19629   7.362   4.384  10.584 -0.2923  1.1225 -0.6221
  887MOL0     C19630   7.406   4.274  10.678 -1.3489  1.1927 -0.5839
  887MOL0     C19631   7.398   4.130  10.607 -0.0791 -1.1624 -0.1958
  887MOL0     C19632   7.399   4.036  10.730  0.4039 -0.0010 -0.1639
  887MOL0     C19633   7.405   3.894  10.690  0.4819 -0.4251 -0.2510
  887MOL0     O19634   7.291   3.866  10.607 -0.3910  0.0345  0.0885
  887MOL0     C19635   7.272   3.725  10.593 -0.4154 -0.7959  0.4599
  887MOL0     C19636   7.144   3.688  10.573 -0.3000  0.5652 -0.0417
  887MOL0     C19637   7.111   3.551  10.553 -0.3865 -0.2065 -0.3139
  887MOL0     C19638   7.210   3.448  10.571  0.5031 -0.1683  0.8249
  887MOL0     C19639   7.161   3.302  10.573 -0.1342  0.3861  0.0938
  887MOL0     O19640   7.043   3.271  10.618 -0.4713  0.0359 -0.6656
  887MOL0     C19641   6.999   3.148  10.658  0.7815  0.2476  0.1411
  887MOL0     C19642   6.864   3.154  10.701  0.1084  0.3325 -0.7882
  887MOL0     C19643   6.793   3.034  10.713  0.1612 -0.2961 -0.4522
  887MOL0     C19644   6.845   2.910  10.706 -0.1545  1.1191 -0.2351
  887MOL0     O19645   6.776   2.788  10.727  0.3135  0.1875 -0.1330
  887MOL0     C19646   6.685   2.789  10.835 -0.7057  0.3277 -0.4359
  887MOL0     C19647   6.537   2.752  10.798 -0.1403 -0.6636 -0.1763
  887MOL0     C19648   6.533   2.602  10.768 -0.2016  0.6476 -1.1377
  887MOL0     C19649   6.396   2.562  10.717  0.6579 -0.1294 -0.2725
  887MOL0     C19650   6.366   2.408  10.717 -0.5195  0.3356  1.0112
  887MOL0     C19651   6.451   2.324  10.615 -1.0560 -0.6005 -0.5594
  887MOL0     C19652   6.383   2.261  10.498 -0.0529  0.3331  0.0987
  887MOL0     C19653   6.302   2.136  10.543 -0.0698 -0.0036 -0.3920
  887MOL0    Cl19654   6.253   2.034  10.399  0.4664  0.2529  0.4993
  887MOL0     C19655   6.980   2.904  10.680 -0.0380  0.4567 -0.4060
  887MOL0     C19656   7.059   3.019  10.657 -0.4782  0.1294  0.2594
  887MOL0     O19657   7.245   3.223  10.545 -0.1426  0.0906  0.6670
  887MOL0     C19658   7.336   3.486  10.601 -0.3479  0.5633  0.7502
  887MOL0     C19659   7.366   3.618  10.614  0.1921 -1.0598  0.6585
  887MOL0     N19660   7.268   4.378  10.483 -0.5033  0.6309 -1.3154
  887MOL0     N19661   7.254   4.486  10.431 -0.9335 -0.6247  0.0460
  887MOL0     C19662   6.605   5.205   9.868 -0.0555 -1.0258 -0.8242
  887MOL0     C19663   6.489   5.228   9.796  0.2405  0.2872 -0.3436
  887MOL0     C19664   6.125   5.025   9.539  0.5261  0.6003  0.3990
  887MOL0     C19665   6.107   4.944   9.432  0.3208 -0.0698 -0.2366
  887MOL0     C19666   5.991   4.933   9.364  0.0556  0.6328  0.2273
  887MOL0     C19667   5.879   4.993   9.408 -0.0761 -0.7573 -0.8603
  887MOL0     O19668   5.763   4.989   9.330  0.2616  0.9634  0.1194
  887MOL0     C19669   5.772   4.998   9.188 -0.5194 -0.9701  0.5450
  887MOL0     C19670   5.629   5.031   9.136 -0.4883  0.1083 -0.1092
  887MOL0     C19671   5.541   4.905   9.162 -0.3050  0.0302  0.0470
  887MOL0     C19672   5.421   4.888   9.062 -0.7109 -0.3342 -0.3070
  887MOL0     C19673   5.341   5.019   9.040 -0.1907 -0.3340  0.7299
  887MOL0     C19674   5.267   5.120   9.026 -0.5693 -0.2629 -0.8179
  887MOL0     C19675   5.891   5.059   9.529  0.2826  0.0825  0.8032
  887MOL0     C19676   6.008   5.089   9.601 -0.5124  0.7106  0.1759
  887MOL0     C19677   6.017   5.165   9.729 -1.1009 -0.5549  1.3820
  887MOL0     H19678   6.375   4.907   9.794  1.2211 -1.1486 -1.0802
  887MOL0     H19679   6.579   4.878   9.945 -1.3491 -0.8183 -1.0714
  887MOL0     H19680   6.814   4.875   9.950 -3.0396 -0.5426  2.1498
  887MOL0     H19681   6.935   4.988   9.987  0.2856  0.7854  2.7028
  887MOL0     H19682   6.700   4.905  10.184 -0.2682  0.1837 -0.8035
  887MOL0     H19683   6.817   5.030  10.222  0.8807 -0.6935  0.9196
  887MOL0     H19684   6.994   4.862  10.155 -1.0262  2.6273  1.7859
  887MOL0     H19685   6.879   4.726  10.171 -6.0355  0.7670 -3.3508
  887MOL0     H19686   6.930   4.926  10.387 -1.1207 -0.1026  0.7778
  887MOL0     H19687   6.836   4.776  10.396  0.2889  0.7555  2.0878
  887MOL0     H19688   7.065   4.665  10.334  4.6327 -0.1874  2.8621
  887MOL0     H19689   7.141   4.818  10.320  1.5105 -1.8312  1.1364
  887MOL0     H19690   7.023   4.835  10.570 -0.5276  0.0234  0.2843
  887MOL0     H19691   7.056   4.662  10.565  2.3266 -0.9711 -0.6081
  887MOL0     H19692   7.254   4.768  10.660 -4.2994  1.0000  0.8332
  887MOL0     H19693   7.256   4.896  10.553  0.0931 -0.1721  1.0087
  887MOL0     H19694   7.317   4.723  10.363 -1.5842 -0.6157 -0.1968
  887MOL0     H19695   7.444   4.751  10.479 -0.1689 -0.6574  0.2308
  887MOL0     H19696   7.500   4.544  10.649  0.0874  0.0508 -0.1370
  887MOL0     H19697   7.512   4.285  10.703 -1.5989  1.3234  0.4638
  887MOL0     H19698   7.345   4.269  10.768 -2.1913  0.1210 -1.1910
  887MOL0     H19699   7.308   4.122  10.545 -2.2237  2.6604  2.0091
  887MOL0     H19700   7.488   4.116  10.547  0.1476 -3.9987  0.6586
  887MOL0     H19701   7.312   4.049  10.796  0.2413 -3.9088  0.6400
  887MOL0     H19702   7.487   4.067  10.787  1.3379 -0.6077 -1.2404
  887MOL0     H19703   7.419   3.834  10.781 -0.0081  0.9630  0.7640
  887MOL0     H19704   7.485   3.896  10.615 -0.7681 -2.5140 -1.7445
  887MOL0     H19705   7.074   3.770  10.564  2.0644  2.8928  1.5007
  887MOL0     H19706   7.003   3.538  10.543 -0.7440  1.8481  0.3915
  887MOL0     H19707   6.817   3.252  10.709  3.6416  2.0760  0.9051
  887MOL0     H19708   6.687   3.026  10.738  0.5101  0.4951  1.4948
  887MOL0     H19709   6.707   2.726  10.921 -0.8979  0.7025 -0.1094
  887MOL0     H19710   6.675   2.883  10.891 -2.2918 -1.4652  2.5489
  887MOL0     H19711   6.467   2.774  10.879  0.2124  0.7860 -0.2249
  887MOL0     H19712   6.502   2.816  10.716 -1.0792  1.0508  1.4707
  887MOL0     H19713   6.607   2.591  10.688  0.1509  1.7194 -0.9708
  887MOL0     H19714   6.564   2.555  10.861 -0.4591 -0.4020 -1.5644
  887MOL0     H19715   6.384   2.602  10.616 -1.4172  0.0812  0.0101
  887MOL0     H19716   6.327   2.603  10.792  1.3938 -0.9557  0.8954
  887MOL0     H19717   6.261   2.386  10.694  0.4618 -1.2203 -3.0250
  887MOL0     H19718   6.377   2.370  10.819  2.1479 -3.8617 -0.5658
  887MOL0     H19719   6.525   2.392  10.572  1.2027 -2.5716  0.0095
  887MOL0     H19720   6.506   2.258  10.682  1.5464  3.6483  1.9366
  887MOL0     H19721   6.455   2.235  10.421 -1.8662  1.7651 -2.1996
  887MOL0     H19722   6.309   2.324  10.449 -3.8176 -2.6810  1.3987
  887MOL0     H19723   6.344   2.073  10.622 -3.3365 -0.6875  0.9440
  887MOL0     H19724   6.212   2.168  10.596  0.1810 -2.6690  1.8958
  887MOL0     H19725   7.029   2.807  10.681  4.5635  2.5163  0.8858
  887MOL0     H19726   7.165   3.003  10.640 -0.6126 -0.6072  0.0895
  887MOL0     H19727   7.415   3.416  10.628 -2.0644 -1.6918  0.2107
  887MOL0     H19728   7.466   3.644  10.647 -0.1201  1.3846 -0.1230
  887MOL0     H19729   6.671   5.286   9.899  0.5785 -1.1487 -1.8220
  887MOL0     H19730   6.478   5.331   9.766 -4.1828 -0.9289 -4.0013
  887MOL0     H19731   6.176   4.863   9.410  1.1693  0.7939 -0.8790
  887MOL0     H19732   5.986   4.876   9.272 -0.0239  0.7475  0.1611
  887MOL0     H19733   5.818   4.915   9.133 -0.7202  0.2684 -1.6224
  887MOL0     H19734   5.838   5.079   9.155 -3.7050  1.1613 -1.1636
  887MOL0     H19735   5.636   5.047   9.028  0.8463 -2.7943 -0.5791
  887MOL0     H19736   5.591   5.119   9.189 -0.4808 -0.8599  1.6055
  887MOL0     H19737   5.500   4.905   9.263  0.0408  1.8922  0.2205
  887MOL0     H19738   5.607   4.818   9.159 -0.0004 -0.0154  3.7149
  887MOL0     H19739   5.458   4.853   8.966  0.8456 -0.5455  0.3456
  887MOL0     H19740   5.355   4.816   9.112  2.6031 -1.4779  2.8152
  887MOL0     H19741   5.184   5.185   9.008 -1.6227 -0.9629  1.2198
  887MOL0     H19742   5.792   5.086   9.565  0.3141  0.2159  0.7860
  887MOL0     H19743   6.081   5.253   9.719 -1.9440 -0.0014  0.7541
  887MOL0     H19744   5.921   5.195   9.774 -0.3714  3.5328  0.5686
  887MOL0     H19745   6.066   5.096   9.799  3.3658  0.9348  0.0244
  888MOL0     O19746   4.445   6.962   7.432  0.5366  0.1111 -0.5141
  888MOL0     C19747   4.375   6.891   7.510  0.3946  0.3692  1.2928
  888MOL0     O19748   4.237   6.898   7.534  0.1566 -0.1137  0.0975
  888MOL0     C19749   4.174   7.016   7.502 -0.1432  0.5316  0.4314
  888MOL0     C19750   4.196   7.082   7.376 -1.4775 -0.0830 -0.4006
  888MOL0     C19751   4.108   7.188   7.335  0.4420 -0.1141  0.0079
  888MOL0     C19752   4.009   7.234   7.420  0.7501  0.1621 -0.1521
  888MOL0     O19753   3.917   7.333   7.394  0.1200 -0.0377  0.1802
  888MOL0     C19754   3.780   7.338   7.446  0.0794 -1.1181 -0.2960
  888MOL0     C19755   3.703   7.445   7.364 -0.1777  1.1351 -0.2830
  888MOL0     C19756   3.642   7.386   7.235 -0.4136  0.0795  0.5382
  888MOL0     C19757   3.593   7.491   7.140 -0.4565 -0.2487  0.3026
  888MOL0     C19758   3.515   7.414   7.017 -0.0295  0.0548 -0.3085
  888MOL0     C19759   3.535   7.469   6.878 -0.1889 -0.6205 -0.9164
  888MOL0     C19760   3.489   7.622   6.870 -0.1342 -0.8462  0.5320
  888MOL0     C19761   3.552   7.679   6.740 -1.0344  1.1907  0.3974
  888MOL0     N19762   3.556   7.823   6.742  0.3405 -0.7136 -0.0264
  888MOL0     C19763   3.463   7.914   6.699  0.3215 -0.7508  0.2229
  888MOL0     C19764   3.528   8.033   6.720  0.2801 -0.0133  0.4140
  888MOL0     C19765   3.477   8.156   6.659  0.1458 -0.8369 -0.2308
  888MOL0     C19766   3.440   8.260   6.763 -0.2140 -0.9177 -0.1837
  888MOL0     C19767   3.303   8.220   6.816 -0.2444  0.9571  0.3398
  888MOL0     C19768   3.291   8.289   6.956 -0.3540  0.3446  0.0149
  888MOL0     O19769   3.159   8.313   6.993 -0.7461  0.3739 -0.0467
  888MOL0     C19770   3.090   8.225   7.079 -0.0278  0.7399  0.3668
  888MOL0     C19771   3.139   8.106   7.121  0.1520  0.5996  0.4492
  888MOL0     C19772   3.077   8.034   7.224  0.6856 -0.7326 -0.3215
  888MOL0     C19773   2.948   8.071   7.260 -0.1251  0.7369  0.5873
  888MOL0     C19774   2.883   7.977   7.359 -0.6409  0.2994  0.5958
  888MOL0     O19775   2.962   7.880   7.417 -0.9209  0.1865 -1.0694
  888MOL0     C19776   2.916   7.803   7.515 -0.0963 -0.4501  0.1297
  888MOL0     C19777   2.801   7.724   7.515 -0.0374  0.4881  0.6681
  888MOL0     C19778   2.773   7.644   7.626 -0.2511 -0.0604 -0.8521
  888MOL0     C19779   2.850   7.647   7.746 -0.4885  1.0383 -0.5467
  888MOL0     O19780   2.844   7.570   7.859  0.1962  0.3342  0.3354
  888MOL0     C19781   2.709   7.540   7.897  1.0796  0.6909 -0.4870
  888MOL0     C19782   2.710   7.517   8.042 -0.0455  1.1064 -0.6847
  888MOL0     C19783   2.579   7.451   8.100  0.0425  0.6005 -0.7857
  888MOL0     C19784   2.595   7.426   8.247 -0.3680 -0.1541 -0.1217
  888MOL0     C19785   2.453   7.380   8.312 -0.4299  0.5891  0.7975
  888MOL0     C19786   2.464   7.367   8.461  0.7972 -0.1873  0.4643
  888MOL0     C19787   2.336   7.298   8.519 -0.3566  0.2244  0.1976
  888MOL0     C19788   2.200   7.322   8.457 -0.1221 -0.1671 -0.0415
  888MOL0    Cl19789   2.154   7.501   8.468 -0.6073  0.3201 -0.1080
  888MOL0     C19790   2.962   7.724   7.744  0.1688  0.5377  1.1915
  888MOL0     C19791   2.996   7.806   7.634 -0.5085 -0.1058  0.6022
  888MOL0     O19792   2.770   7.999   7.381 -1.3187 -0.8202  0.2155
  888MOL0     C19793   2.901   8.188   7.218 -0.0989  0.0369  0.2818
  888MOL0     C19794   2.968   8.271   7.135 -0.7222 -0.0205 -0.0825
  888MOL0     N19795   3.647   8.003   6.801 -0.2176 -0.1317  0.1252
  888MOL0     N19796   3.661   7.871   6.805 -0.7113  0.0194 -0.4710
  888MOL0     C19797   3.994   7.175   7.541 -1.0434 -0.0934 -0.6280
  888MOL0     C19798   4.066   7.061   7.580  0.6750  1.0383  0.7288
  888MOL0     C19799   4.458   6.787   7.568 -0.6965  0.0969 -1.2562
  888MOL0     C19800   4.492   6.787   7.707 -0.7221  1.0406  0.3767
  888MOL0     C19801   4.581   6.693   7.764 -0.1439  0.6982  0.9474
  888MOL0     C19802   4.634   6.601   7.672  0.5842  0.1733 -0.5665
  888MOL0     O19803   4.725   6.500   7.712 -0.2281 -0.4488 -0.6169
  888MOL0     C19804   4.801   6.526   7.828 -0.5900  0.3203 -0.3968
  888MOL0     C19805   4.931   6.612   7.802  0.6173  0.7980  0.2230
  888MOL0     C19806   5.022   6.603   7.921 -0.8775 -0.6209  0.1828
  888MOL0     C19807   5.002   6.693   8.046  0.1127  0.7812 -0.0310
  888MOL0     C19808   4.994   6.843   8.022  0.2788  0.0780 -0.3244
  888MOL0     C19809   4.990   6.961   7.994  0.7636 -0.8108  0.4888
  888MOL0     C19810   4.608   6.597   7.545 -0.4763 -0.8853  0.4773
  888MOL0     C19811   4.527   6.693   7.481 -0.0971 -1.5677  0.1308
  888MOL0     C19812   4.514   6.681   7.327  0.7818  0.2313  0.4328
  888MOL0     H19813   4.278   7.061   7.308 -1.8424 -2.9255 -0.0627
  888MOL0     H19814   4.119   7.238   7.239  2.0238  2.4125  1.3983
  888MOL0     H19815   3.731   7.241   7.439  0.8614 -1.9577  3.5531
  888MOL0     H19816   3.791   7.362   7.552 -0.0906 -3.0221  0.1891
  888MOL0     H19817   3.775   7.510   7.313 -1.4253  0.5330 -2.9886
  888MOL0     H19818   3.626   7.502   7.418 -1.2578  0.3790 -0.9772
  888MOL0     H19819   3.558   7.319   7.257 -0.4232  0.2718  1.0873
  888MOL0     H19820   3.713   7.320   7.184 -1.2392 -0.1128 -0.4093
  888MOL0     H19821   3.523   7.561   7.188 -0.2627 -2.7035  4.6935
  888MOL0     H19822   3.683   7.544   7.106 -2.1761  2.6821 -0.0883
  888MOL0     H19823   3.543   7.308   7.009  0.0812  0.1143 -0.7427
  888MOL0     H19824   3.406   7.414   7.028 -0.2785  1.5029 -2.2732
  888MOL0     H19825   3.642   7.456   6.864  0.2179  1.9879 -0.7151
  888MOL0     H19826   3.482   7.412   6.802 -0.1575  1.4883 -2.6068
  888MOL0     H19827   3.528   7.674   6.958  2.0469 -1.8528  0.2376
  888MOL0     H19828   3.380   7.628   6.872 -0.3660 -2.0153 -2.6734
  888MOL0     H19829   3.654   7.641   6.730 -0.9023  2.1357 -3.7539
  888MOL0     H19830   3.497   7.637   6.655  0.0964  0.0601  0.1931
  888MOL0     H19831   3.366   7.895   6.653  0.4728  1.1419 -1.0079
  888MOL0     H19832   3.553   8.203   6.597  0.6188  0.5664  1.3586
  888MOL0     H19833   3.393   8.124   6.595 -0.7332 -0.2555  0.6018
  888MOL0     H19834   3.510   8.286   6.843 -0.3822 -1.4502  0.1424
  888MOL0     H19835   3.423   8.344   6.695  0.2674 -0.4568  0.2476
  888MOL0     H19836   3.293   8.113   6.831 -1.8398  0.8014 -1.4972
  888MOL0     H19837   3.224   8.266   6.756  0.7999  0.8026 -1.2241
  888MOL0     H19838   3.335   8.388   6.947 -0.8137  0.3900 -2.4482
  888MOL0     H19839   3.341   8.226   7.030 -1.8574 -1.9294 -0.7764
  888MOL0     H19840   3.228   8.061   7.078 -0.3075 -1.5249  1.5622
  888MOL0     H19841   3.132   7.949   7.263  0.9824  1.0507  3.6441
  888MOL0     H19842   2.740   7.708   7.427  1.9648 -1.1681 -0.5061
  888MOL0     H19843   2.694   7.570   7.622 -0.5590  0.0287  1.7800
  888MOL0     H19844   2.633   7.615   7.873 -0.1491 -0.0500  0.9684
  888MOL0     H19845   2.677   7.448   7.848 -4.5303  0.9854  1.8589
  888MOL0     H19846   2.796   7.453   8.062  0.4708  1.6555 -1.1350
  888MOL0     H19847   2.715   7.614   8.091  3.0618 -0.5911  2.9025
  888MOL0     H19848   2.490   7.514   8.090  0.1620  1.0731  0.8055
  888MOL0     H19849   2.569   7.353   8.052  0.1884  0.4165 -0.4469
  888MOL0     H19850   2.622   7.516   8.304 -1.4141  0.4221 -0.5148
  888MOL0     H19851   2.659   7.339   8.265  0.4839  0.0709 -1.8432
  888MOL0     H19852   2.418   7.290   8.260  0.4428 -1.3134  3.2994
  888MOL0     H19853   2.381   7.461   8.301  1.8981  2.7587  0.5698
  888MOL0     H19854   2.550   7.302   8.482  1.3694  0.7655  1.1961
  888MOL0     H19855   2.489   7.462   8.510  4.6752 -0.9696  0.3503
  888MOL0     H19856   2.326   7.325   8.624  3.7703  1.1970  0.5243
  888MOL0     H19857   2.348   7.190   8.507 -1.5864  0.2403 -1.3784
  888MOL0     H19858   2.213   7.298   8.351  0.1564  1.0301 -0.3005
  888MOL0     H19859   2.127   7.263   8.512 -1.7787  0.9955 -0.9024
  888MOL0     H19860   3.032   7.712   7.826  2.0490  1.1169 -0.2550
  888MOL0     H19861   3.088   7.860   7.652  1.4176 -2.4907 -1.2939
  888MOL0     H19862   2.808   8.213   7.269 -0.1963  0.7434 -0.2387
  888MOL0     H19863   2.930   8.369   7.109  2.9405  1.3359 -1.0396
  888MOL0     H19864   3.940   7.228   7.619  1.2891  0.4884  0.6968
  888MOL0     H19865   4.044   7.009   7.673  2.7003 -1.8549 -0.2750
  888MOL0     H19866   4.444   6.854   7.778  2.5081  1.7917  2.0217
  888MOL0     H19867   4.603   6.708   7.869  0.5360 -0.0211  0.9136
  888MOL0     H19868   4.832   6.422   7.843  0.4537  0.4545 -1.5447
  888MOL0     H19869   4.758   6.560   7.923 -0.3818 -0.3291 -0.0559
  888MOL0     H19870   4.905   6.710   7.762  0.1957  0.4734 -0.3205
  888MOL0     H19871   4.988   6.570   7.719  2.6864 -2.0217  2.8441
  888MOL0     H19872   5.126   6.618   7.892 -0.7045  1.3667  1.5677
  888MOL0     H19873   5.023   6.499   7.954 -1.3555  0.0405  2.4916
  888MOL0     H19874   4.919   6.655   8.107  1.8608 -3.2159  0.1740
  888MOL0     H19875   5.073   6.673   8.126  1.8500 -2.3664 -2.1445
  888MOL0     H19876   4.969   7.060   7.960  1.1231  0.1335  2.8636
  888MOL0     H19877   4.654   6.525   7.478  2.5807  1.0658  0.2878
  888MOL0     H19878   4.559   6.768   7.278 -0.2287  0.4272 -0.1750
  888MOL0     H19879   4.557   6.582   7.306  2.0367  0.9188 -0.3826
  888MOL0     H19880   4.412   6.671   7.290  2.2659  0.4279 -4.5757
  889MOL0     O19881   4.707   3.826   7.723 -0.1800  0.0923  0.6274
  889MOL0     C19882   4.670   3.778   7.614 -0.3015 -0.6882  0.0367
  889MOL0     O19883   4.692   3.650   7.562  1.2153  0.1174 -0.1806
  889MOL0     C19884   4.786   3.561   7.608  0.8515 -0.6336  0.3045
  889MOL0     C19885   4.776   3.433   7.550 -0.4011  0.9239  0.3859
  889MOL0     C19886   4.866   3.336   7.580  0.0972  0.1952 -0.8388
  889MOL0     C19887   4.957   3.347   7.680  0.1749  0.7233 -0.2902
  889MOL0     O19888   5.021   3.236   7.718  0.0407 -0.2638  0.2342
  889MOL0     C19889   5.146   3.251   7.793 -0.0094  0.5567  0.8812
  889MOL0     C19890   5.183   3.098   7.827 -0.2877 -0.6822  0.2478
  889MOL0     C19891   5.330   3.083   7.866 -0.0547  0.1537  0.3384
  889MOL0     C19892   5.364   2.951   7.926  0.0722  0.7332  0.3523
  889MOL0     C19893   5.421   2.946   8.067  0.2172  0.3156 -0.2899
  889MOL0     C19894   5.563   2.980   8.058 -0.3018 -0.0265 -0.0065
  889MOL0     C19895   5.626   3.018   8.197 -0.0195  0.8321 -0.4676
  889MOL0     C19896   5.610   2.912   8.307  0.5129  0.7779  0.0855
  889MOL0     N19897   5.711   2.936   8.416  0.5481 -0.9968  0.0506
  889MOL0     C19898   5.849   2.948   8.404 -0.4473 -1.3998  0.1002
  889MOL0     C19899   5.891   3.029   8.508 -0.1967 -0.2034  0.4361
  889MOL0     C19900   6.034   3.072   8.528 -1.3155 -0.4472 -0.4136
  889MOL0     C19901   6.049   3.230   8.519 -0.0598  0.7378 -0.6051
  889MOL0     C19902   6.192   3.269   8.471  0.0252  0.1077 -0.1208
  889MOL0     C19903   6.301   3.215   8.565 -0.8552 -0.1790 -0.2890
  889MOL0     O19904   6.423   3.210   8.494 -0.1503 -0.2615  0.4150
  889MOL0     C19905   6.523   3.294   8.540  0.5818 -0.0860 -0.2089
  889MOL0     C19906   6.503   3.429   8.579  0.2924 -0.1353 -0.4907
  889MOL0     C19907   6.608   3.506   8.624  0.3861  0.1300  0.6946
  889MOL0     C19908   6.734   3.461   8.620 -0.3443  0.0744  0.3186
  889MOL0     C19909   6.849   3.555   8.650  1.0280  0.2276 -0.0605
  889MOL0     O19910   6.969   3.504   8.639 -0.3921 -0.2365  0.1407
  889MOL0     C19911   7.071   3.590   8.661 -0.2801 -0.0842 -0.0395
  889MOL0     C19912   7.164   3.604   8.563 -0.5175  0.2572  0.1314
  889MOL0     C19913   7.281   3.680   8.566  0.3049  0.4386 -0.3077
  889MOL0     C19914   7.298   3.748   8.688 -1.2454  0.4992 -0.4442
  889MOL0     O19915   7.406   3.828   8.693  0.1087  1.0829  0.0331
  889MOL0     C19916   7.400   3.939   8.782  0.6674  0.8290  0.2961
  889MOL0     C19917   7.501   3.934   8.896 -0.4210 -1.1587 -0.4306
  889MOL0     C19918   7.638   3.937   8.835 -0.5539  0.4045 -0.1619
  889MOL0     C19919   7.740   3.941   8.943 -0.4586  0.3410  0.0115
  889MOL0     C19920   7.889   3.931   8.891  0.2387 -0.3581 -0.0959
  889MOL0     C19921   7.976   3.959   9.005 -0.9328  0.5289  0.3512
  889MOL0     C19922   8.093   4.035   8.955 -0.1745  0.9111 -0.9289
  889MOL0     C19923   8.180   4.086   9.063  0.6463 -0.2102 -0.4385
  889MOL0    Cl19924   8.245   3.945   9.160  0.1504 -0.3994 -0.1616
  889MOL0     C19925   7.211   3.723   8.796  0.3910 -0.5721  0.1013
  889MOL0     C19926   7.095   3.643   8.782  0.3674 -0.4154 -0.0111
  889MOL0     O19927   6.818   3.660   8.706 -0.3037  0.4631  0.0773
  889MOL0     C19928   6.766   3.331   8.576 -0.0056 -0.4095 -0.0104
  889MOL0     C19929   6.660   3.258   8.527 -0.2562  0.2685 -0.2218
  889MOL0     N19930   5.781   3.047   8.582  0.0510 -1.0993 -0.0415
  889MOL0     N19931   5.678   2.968   8.543 -0.2752 -1.1886  0.3226
  889MOL0     C19932   4.978   3.471   7.739 -0.6800 -0.8238  1.2139
  889MOL0     C19933   4.887   3.573   7.711  0.2172  0.2817 -0.6488
  889MOL0     C19934   4.618   3.868   7.517  0.0015  0.4846 -0.5595
  889MOL0     C19935   4.639   3.849   7.384  0.2439 -0.2164  0.0285
  889MOL0     C19936   4.588   3.945   7.289  0.1811 -0.6402 -0.7822
  889MOL0     C19937   4.488   4.033   7.324  0.5919  0.8008 -0.0235
  889MOL0     O19938   4.439   4.126   7.231 -0.1316 -0.3492  0.6355
  889MOL0     C19939   4.303   4.163   7.236  0.4914 -0.1242  0.0234
  889MOL0     C19940   4.272   4.223   7.100 -0.0600 -0.6096  0.1882
  889MOL0     C19941   4.333   4.152   6.976  1.4657  0.2065  0.7569
  889MOL0     C19942   4.297   4.220   6.849  0.1605  0.5215  0.1759
  889MOL0     C19943   4.409   4.313   6.818 -0.3952 -0.4973 -0.7292
  889MOL0     C19944   4.491   4.398   6.807  0.1610  0.8985 -0.7142
  889MOL0     C19945   4.460   4.037   7.460  0.7481  0.0876 -0.5945
  889MOL0     C19946   4.534   3.974   7.559  0.2169  0.1273 -0.2008
  889MOL0     C19947   4.497   4.023   7.697  0.8746  0.8471  0.5526
  889MOL0     H19948   4.699   3.411   7.478 -0.2957  1.0798  0.2234
  889MOL0     H19949   4.862   3.243   7.524  3.0944  0.0781 -1.0303
  889MOL0     H19950   5.221   3.301   7.732 -0.5945 -2.1138 -2.3348
  889MOL0     H19951   5.121   3.319   7.874  1.4329  0.5163  1.3763
  889MOL0     H19952   5.159   3.023   7.751  0.0700  0.4784 -1.0490
  889MOL0     H19953   5.128   3.079   7.920  2.4312 -0.4311  2.0250
  889MOL0     H19954   5.356   3.164   7.936 -2.6319 -0.6921  2.4798
  889MOL0     H19955   5.394   3.098   7.779 -0.3870  2.7509  0.4428
  889MOL0     H19956   5.267   2.901   7.930  0.8991 -1.0556 -0.5606
  889MOL0     H19957   5.423   2.883   7.864 -0.8099 -0.1915  0.4921
  889MOL0     H19958   5.370   3.015   8.135 -0.1832 -2.4218  2.3931
  889MOL0     H19959   5.415   2.845   8.107 -1.6791 -0.7117 -2.9072
  889MOL0     H19960   5.619   2.899   8.010  1.4264 -0.1636  2.0504
  889MOL0     H19961   5.575   3.069   7.997 -1.2064  0.3395  0.3252
  889MOL0     H19962   5.573   3.102   8.243 -0.1933 -1.0814  3.1684
  889MOL0     H19963   5.731   3.037   8.174 -0.0843  2.0687  0.1867
  889MOL0     H19964   5.505   2.910   8.339  0.0167  3.0927 -1.2000
  889MOL0     H19965   5.635   2.811   8.273 -1.0928  0.3184  0.1897
  889MOL0     H19966   5.915   2.927   8.321  0.3190 -1.8635  0.8098
  889MOL0     H19967   6.066   3.027   8.623  1.1842  0.0007 -0.9778
  889MOL0     H19968   6.080   3.015   8.447 -2.7164 -3.0812  0.5259
  889MOL0     H19969   5.977   3.271   8.447  1.3831  0.7113 -2.1187
  889MOL0     H19970   6.037   3.277   8.617  1.5492 -1.8598  0.9750
  889MOL0     H19971   6.193   3.378   8.468 -2.9329  0.2208 -2.4018
  889MOL0     H19972   6.208   3.221   8.374  1.7186  2.9055 -1.3425
  889MOL0     H19973   6.284   3.115   8.608  3.5374 -0.6761  0.7143
  889MOL0     H19974   6.316   3.281   8.650  0.3013  0.4697 -0.9745
  889MOL0     H19975   6.401   3.467   8.580 -0.6549 -2.3595  2.2133
  889MOL0     H19976   6.571   3.607   8.640 -0.6788 -0.0117 -0.6440
  889MOL0     H19977   7.141   3.569   8.462  2.6376 -1.3862 -0.1772
  889MOL0     H19978   7.356   3.693   8.489  0.7665  5.7222  0.6821
  889MOL0     H19979   7.436   4.027   8.726  0.7572  0.3130 -0.4734
  889MOL0     H19980   7.298   3.969   8.807  0.7855 -1.0841  3.5651
  889MOL0     H19981   7.495   4.025   8.956  1.3380 -1.8078  0.8001
  889MOL0     H19982   7.479   3.858   8.972  0.2745 -1.5258 -0.5954
  889MOL0     H19983   7.660   3.841   8.787 -1.8693 -1.3900  2.5267
  889MOL0     H19984   7.653   4.028   8.777  1.2980 -0.0905 -0.5268
  889MOL0     H19985   7.733   3.858   9.014 -1.7287  0.4307  0.0158
  889MOL0     H19986   7.721   4.033   8.999 -2.2889  0.6332 -1.0250
  889MOL0     H19987   7.901   4.016   8.823  3.4306 -0.0621  0.6745
  889MOL0     H19988   7.917   3.837   8.843 -1.4134 -0.8397 -0.1781
  889MOL0     H19989   7.920   4.016   9.079 -3.4799  2.3221 -2.7076
  889MOL0     H19990   8.002   3.865   9.054  0.4505  0.4316 -0.5054
  889MOL0     H19991   8.054   4.131   8.922 -0.3536  1.0482 -0.3340
  889MOL0     H19992   8.149   3.978   8.880  1.1541 -2.2705  2.1801
  889MOL0     H19993   8.263   4.139   9.015 -1.4318  2.8991 -0.8567
  889MOL0     H19994   8.131   4.155   9.133 -2.4929 -1.5891 -1.1235
  889MOL0     H19995   7.217   3.778   8.889 -0.7260 -2.0258  1.0797
  889MOL0     H19996   7.042   3.624   8.875  1.3788 -1.0639  0.4577
  889MOL0     H19997   6.869   3.302   8.556  1.3385  1.6271  3.1955
  889MOL0     H19998   6.680   3.160   8.486 -0.4941  0.1066  0.0432
  889MOL0     H19999   5.049   3.486   7.819  0.6298  1.1869 -0.2322
  889MOL0     H20000   4.888   3.662   7.774  1.8923  0.2485 -0.5995
  889MOL0     H20001   4.695   3.764   7.348  0.1920  0.1420 -0.9221
  889MOL0     H20002   4.615   3.952   7.184  1.7861  6.7047 -0.3861
  889MOL0     H20003   4.276   4.241   7.308  0.9371  0.7831 -0.7673
  889MOL0     H20004   4.232   4.080   7.248  0.4549  0.1371  1.9749
  889MOL0     H20005   4.311   4.325   7.091 -2.3562  0.3134  0.2357
  889MOL0     H20006   4.166   4.245   7.085  0.4920  0.9701 -1.9072
  889MOL0     H20007   4.287   4.054   6.973  0.7818  0.4921  1.5942
  889MOL0     H20008   4.442   4.146   6.990  1.7661  0.7954 -1.0793
  889MOL0     H20009   4.310   4.140   6.776  1.8387 -1.1099  2.1502
  889MOL0     H20010   4.202   4.273   6.837  0.0159  0.3743  0.6720
  889MOL0     H20011   4.568   4.471   6.796 -0.1422  0.9166 -3.5169
  889MOL0     H20012   4.390   4.112   7.496 -0.2798 -0.2725 -1.7580
  889MOL0     H20013   4.395   4.064   7.692  0.6357  0.4023  1.4457
  889MOL0     H20014   4.497   3.936   7.764 -0.9943  0.5177  0.2020
  889MOL0     H20015   4.565   4.107   7.714 -0.3064  2.4337 -1.8860
  890MOL0     O20016   7.473   0.574   0.207  0.3005 -0.2311  0.5996
  890MOL0     C20017   7.459   0.512   0.102 -0.4153  0.9037  0.8162
  890MOL0     O20018   7.551   0.433   0.053 -0.0482 -0.1999  0.6921
  890MOL0     C20019   7.636   0.368   0.134  0.1915  0.3570 -0.7173
  890MOL0     C20020   7.605   0.278   0.242  0.4733 -0.2678 -0.1010
  890MOL0     C20021   7.707   0.221   0.319 -0.1796  1.0402 -0.1183
  890MOL0     C20022   7.838   0.244   0.289 -0.2039  0.4658  1.0255
  890MOL0     O20023   7.955   0.206   0.353 -0.5341  0.3445 -0.2103
  890MOL0     C20024   7.936   0.138   0.477  1.2322 -0.2375  0.1418
  890MOL0     C20025   8.065   0.098   0.533 -0.2753 -0.4723  0.2382
  890MOL0     C20026   8.188   0.197   0.506 -0.1794  0.4666  0.5960
  890MOL0     C20027   8.317   0.121   0.549  0.7355  0.6289 -0.0523
  890MOL0     C20028   8.330   0.072   0.691  0.0394  0.0052  0.5313
  890MOL0     C20029   8.470   0.054   0.744  0.2149 -0.3615  0.2679
  890MOL0     C20030   8.551  -0.048   0.662 -1.0784 -0.3608  1.4329
  890MOL0     C20031   8.500  -0.199   0.678 -0.3992 -0.2264 -0.5100
  890MOL0     N20032   8.412  -0.226   0.565  0.5530 -0.2085  0.0074
  890MOL0     C20033   8.457  -0.245   0.437 -0.7541  0.2084  0.4117
  890MOL0     C20034   8.342  -0.266   0.367 -0.2921  0.3937 -0.1059
  890MOL0     C20035   8.336  -0.280   0.224 -0.4454 -0.0307  0.4044
  890MOL0     C20036   8.208  -0.221   0.169 -0.5721  0.1202  0.4586
  890MOL0     C20037   8.208  -0.066   0.174  0.4086  0.3709  0.6141
  890MOL0     C20038   8.066  -0.014   0.122  0.3609 -0.2772 -0.2161
  890MOL0     O20039   8.030  -0.066  -0.008  0.5261  0.3917 -0.1200
  890MOL0     C20040   7.932  -0.012  -0.087 -0.6390 -1.0170 -0.8060
  890MOL0     C20041   7.941  -0.048  -0.223  1.0861 -0.4197  0.0963
  890MOL0     C20042   7.838  -0.019  -0.318 -0.9548  1.2460 -0.6827
  890MOL0     C20043   7.733   0.061  -0.287 -0.0424  0.0290 -0.5303
  890MOL0     C20044   7.638   0.114  -0.385  0.1935  0.4795  0.3708
  890MOL0     O20045   7.522   0.147  -0.325 -0.1157  0.2409 -0.2356
  890MOL0     C20046   7.420   0.195  -0.396  0.5225  0.2468  0.3838
  890MOL0     C20047   7.353   0.122  -0.490 -0.1466  0.2814  0.1947
  890MOL0     C20048   7.251   0.169  -0.566  0.3875  0.1029  0.5473
  890MOL0     C20049   7.209   0.302  -0.556 -0.2073 -1.3135 -1.0678
  890MOL0     O20050   7.131   0.356  -0.651  0.9219  0.0108 -0.6054
  890MOL0     C20051   7.102   0.496  -0.653 -1.1261  0.3685 -0.4411
  890MOL0     C20052   7.205   0.586  -0.733 -1.1492 -0.1162 -0.2283
  890MOL0     C20053   7.239   0.525  -0.868  0.6427 -0.6623  0.0499
  890MOL0     C20054   7.303   0.638  -0.956  0.3730 -0.4022  0.4099
  890MOL0     C20055   7.362   0.572  -1.084 -0.2580  0.0703 -0.0725
  890MOL0     C20056   7.256   0.500  -1.174 -0.1303  0.1686  0.1617
  890MOL0     C20057   7.304   0.471  -1.319  0.1257 -0.4807  0.6295
  890MOL0     C20058   7.388   0.345  -1.317  0.2117  0.6613  0.6611
  890MOL0    Cl20059   7.346   0.238  -1.459  0.2572 -0.0439 -0.1509
  890MOL0     C20060   7.291   0.382  -0.468  0.5191  0.3069  0.1047
  890MOL0     C20061   7.387   0.331  -0.380  0.4714 -1.2146  1.4592
  890MOL0     O20062   7.671   0.120  -0.505 -0.1513  0.0294  0.0908
  890MOL0     C20063   7.720   0.100  -0.150 -0.1154  0.7138  0.0931
  890MOL0     C20064   7.817   0.052  -0.047  1.0695  1.1224  0.6361
  890MOL0     N20065   8.233  -0.251   0.459 -0.6839  0.3907  0.0186
  890MOL0     N20066   8.273  -0.246   0.581 -0.7926 -0.1366 -0.5784
  890MOL0     C20067   7.869   0.322   0.180  0.6449 -0.2325 -0.1098
  890MOL0     C20068   7.768   0.381   0.109  0.7714  0.9131 -0.1970
  890MOL0     C20069   7.335   0.521   0.030 -0.6320  0.2689  0.3374
  890MOL0     C20070   7.303   0.402  -0.043  0.4845 -0.3522  0.1193
  890MOL0     C20071   7.193   0.393  -0.139 -0.7596 -0.7016 -0.7640
  890MOL0     C20072   7.106   0.499  -0.149  0.9104 -0.0766  0.4681
  890MOL0     O20073   7.002   0.512  -0.242  0.1602  0.3225  0.5717
  890MOL0     C20074   6.954   0.402  -0.308  0.5757 -0.4260  0.8512
  890MOL0     C20075   6.829   0.448  -0.381 -0.2443  0.7356  0.0428
  890MOL0     C20076   6.714   0.450  -0.282  0.7864 -0.0482  0.7519
  890MOL0     C20077   6.592   0.525  -0.336  0.2668 -0.4179 -0.3078
  890MOL0     C20078   6.563   0.484  -0.474  1.1889  0.0446 -0.1794
  890MOL0     C20079   6.513   0.453  -0.583  0.1404 -0.1612 -0.3213
  890MOL0     C20080   7.128   0.618  -0.079 -0.6353  0.2138 -0.4375
  890MOL0     C20081   7.246   0.628   0.004  0.3424 -0.2631  0.6979
  890MOL0     C20082   7.266   0.752   0.087 -0.4348 -0.5084 -0.6176
  890MOL0     H20083   7.503   0.257   0.272  0.5985 -1.1658 -0.2697
  890MOL0     H20084   7.677   0.160   0.404 -1.9703 -1.7264 -2.5439
  890MOL0     H20085   7.899   0.205   0.555 -1.2906 -1.8829  0.4504
  890MOL0     H20086   7.863   0.057   0.478 -1.3740  1.9753 -0.4511
  890MOL0     H20087   8.088  -0.000   0.490  0.7984  0.1708 -0.7203
  890MOL0     H20088   8.057   0.054   0.633 -0.1038  1.0371  0.9417
  890MOL0     H20089   8.179   0.293   0.558 -0.4433 -0.0345  1.5106
  890MOL0     H20090   8.199   0.208   0.398 -2.1778  1.7972  0.4859
  890MOL0     H20091   8.328   0.028   0.492 -2.5120 -1.9504  3.0879
  890MOL0     H20092   8.399   0.189   0.525  1.9394 -1.1796 -1.3909
  890MOL0     H20093   8.287   0.156   0.746  0.9547  1.2990 -0.6377
  890MOL0     H20094   8.270  -0.018   0.705  1.1468 -0.4191  3.2708
  890MOL0     H20095   8.541   0.137   0.744  1.2923 -1.2331  1.5432
  890MOL0     H20096   8.452   0.016   0.846  2.7266 -5.8910 -0.9715
  890MOL0     H20097   8.656  -0.052   0.692 -0.6207  0.5503  0.0729
  890MOL0     H20098   8.550  -0.042   0.552  3.8221 -1.4455  1.1153
  890MOL0     H20099   8.588  -0.262   0.663  0.3570  0.8232 -0.5665
  890MOL0     H20100   8.455  -0.224   0.774 -0.4008 -2.3375 -1.0142
  890MOL0     H20101   8.561  -0.252   0.406 -1.4499  1.6409 -2.5926
  890MOL0     H20102   8.429  -0.239   0.182 -0.4230 -2.6014 -2.3839
  890MOL0     H20103   8.331  -0.383   0.188  1.8447  0.0467 -0.2938
  890MOL0     H20104   8.211  -0.243   0.061  0.2932  1.0032  0.2809
  890MOL0     H20105   8.113  -0.256   0.209 -1.2224  0.8536 -0.3960
  890MOL0     H20106   8.285  -0.027   0.106 -1.6061  2.2896 -0.7228
  890MOL0     H20107   8.232  -0.022   0.272  2.8062  2.5707 -0.7994
  890MOL0     H20108   8.061   0.095   0.120  0.7129 -0.2708 -1.1228
  890MOL0     H20109   7.989  -0.041   0.195  0.9117  1.1812  0.9707
  890MOL0     H20110   8.023  -0.108  -0.261  3.2834  3.5162 -2.0866
  890MOL0     H20111   7.854  -0.034  -0.424  5.4664  3.0093 -0.3615
  890MOL0     H20112   7.382   0.018  -0.500 -2.1148 -0.3888  0.9702
  890MOL0     H20113   7.212   0.107  -0.646 -1.3348  0.0982  1.3457
  890MOL0     H20114   7.003   0.506  -0.699 -1.6315  0.9649  0.7420
  890MOL0     H20115   7.090   0.549  -0.558 -0.8431  3.0976 -1.8423
  890MOL0     H20116   7.174   0.688  -0.753  0.4060 -0.1099 -3.2048
  890MOL0     H20117   7.295   0.598  -0.671 -2.3419  3.9782  1.0221
  890MOL0     H20118   7.309   0.442  -0.853 -0.2980 -1.1438  2.2009
  890MOL0     H20119   7.143   0.494  -0.909  0.1876  3.2105 -2.4063
  890MOL0     H20120   7.386   0.692  -0.909  1.3251 -1.4845  0.0444
  890MOL0     H20121   7.226   0.713  -0.975 -1.4149 -1.6574  2.3424
  890MOL0     H20122   7.445   0.507  -1.054 -0.3270  1.1763  2.9557
  890MOL0     H20123   7.390   0.652  -1.153  0.3683 -0.9728 -1.0469
  890MOL0     H20124   7.208   0.412  -1.131 -0.5720  1.9153  3.6383
  890MOL0     H20125   7.171   0.567  -1.192  0.3602  1.3429  1.9765
  890MOL0     H20126   7.351   0.557  -1.368 -3.4380  0.8422 -0.8068
  890MOL0     H20127   7.207   0.458  -1.368 -0.5023  1.0451  1.3947
  890MOL0     H20128   7.485   0.390  -1.341 -1.4197  2.3937 -3.6108
  890MOL0     H20129   7.371   0.295  -1.221 -2.3174 -0.7895 -0.4614
  890MOL0     H20130   7.267   0.488  -0.469  2.5922  0.8277 -1.7507
  890MOL0     H20131   7.421   0.399  -0.303 -2.1938  2.4378 -0.3224
  890MOL0     H20132   7.634   0.162  -0.129 -1.4960 -0.8926 -0.5814
  890MOL0     H20133   7.802   0.077   0.058  1.7359  1.1171  0.7357
  890MOL0     H20134   7.966   0.367   0.162 -0.6657  1.8371 -2.6570
  890MOL0     H20135   7.779   0.457   0.032 -1.0129 -0.8777 -2.3671
  890MOL0     H20136   7.357   0.310  -0.024 -2.0092 -2.1684 -0.8955
  890MOL0     H20137   7.186   0.297  -0.190  4.0875 -2.1365  0.7427
  890MOL0     H20138   6.936   0.318  -0.241 -0.5453 -1.0357 -0.1732
  890MOL0     H20139   7.032   0.381  -0.382  1.6109  0.3229  1.6958
  890MOL0     H20140   6.815   0.382  -0.467  3.3726  0.6232 -0.6539
  890MOL0     H20141   6.845   0.547  -0.426  0.0801  0.4999 -0.3713
  890MOL0     H20142   6.731   0.501  -0.186 -0.5172  0.8623  0.5358
  890MOL0     H20143   6.685   0.354  -0.238 -4.1024  0.0460 -1.5550
  890MOL0     H20144   6.516   0.504  -0.261  2.8103 -1.3265  2.1958
  890MOL0     H20145   6.615   0.632  -0.332 -0.4901 -0.2519 -0.2726
  890MOL0     H20146   6.474   0.442  -0.682  1.3198 -1.4859 -0.6590
  890MOL0     H20147   7.058   0.700  -0.088  0.1125  1.6243  3.9546
  890MOL0     H20148   7.358   0.802   0.057 -1.2845  0.5521 -1.5689
  890MOL0     H20149   7.179   0.819   0.079 -0.3450 -0.0757  1.5742
  890MOL0     H20150   7.258   0.717   0.190  1.2606 -0.9723 -0.6142
  891MOL0     O20151   4.874   2.232   9.574 -0.3650 -0.4207  0.4349
  891MOL0     C20152   4.875   2.163   9.476 -0.5877  0.7491  0.3277
  891MOL0     O20153   4.894   2.023   9.489  0.0193 -0.9205  0.1981
  891MOL0     C20154   4.883   1.966   9.611  0.3206 -0.0897  0.1505
  891MOL0     C20155   4.997   1.931   9.680  0.0539  1.4063 -0.2923
  891MOL0     C20156   4.985   1.858   9.797 -1.4505 -0.3411 -0.0378
  891MOL0     C20157   4.862   1.819   9.855 -0.4195 -0.6313 -1.0237
  891MOL0     O20158   4.856   1.742   9.970  0.1082  0.1877 -0.1815
  891MOL0     C20159   4.726   1.669   9.990 -0.3270  0.2541  1.3807
  891MOL0     C20160   4.761   1.594  10.123 -0.2711  0.4211  0.6904
  891MOL0     C20161   4.660   1.479  10.155  0.9241  0.2514 -0.0002
  891MOL0     C20162   4.676   1.346  10.079  0.1693  0.1955 -0.4792
  891MOL0     C20163   4.563   1.253  10.121  0.6639 -0.8784  0.0863
  891MOL0     C20164   4.421   1.296  10.092 -0.0211  0.0007 -0.1427
  891MOL0     C20165   4.306   1.199  10.110  0.6074 -0.7470  0.7761
  891MOL0     C20166   4.296   1.124  10.238  0.4077 -1.3828 -0.0141
  891MOL0     N20167   4.156   1.090  10.259  0.8430 -0.4003 -0.2235
  891MOL0     C20168   4.094   0.982  10.191  0.0683 -1.2560 -1.0901
  891MOL0     C20169   3.974   0.966  10.247  0.5996 -0.6862 -0.0121
  891MOL0     C20170   3.886   0.864  10.190 -0.6159  0.1183 -1.2805
  891MOL0     C20171   3.785   0.930  10.104 -0.3132  0.6711  0.0877
  891MOL0     C20172   3.703   0.827  10.019 -0.1875 -0.0332 -0.2661
  891MOL0     C20173   3.579   0.908   9.962  0.4814  0.3592 -0.5664
  891MOL0     O20174   3.518   0.847   9.840  0.2549  0.0301 -0.5666
  891MOL0     C20175   3.422   0.749   9.837  0.7593  0.4131  0.5243
  891MOL0     C20176   3.370   0.692   9.952 -1.0298 -0.1464 -0.5199
  891MOL0     C20177   3.273   0.600   9.948  0.3987  0.8126  0.0435
  891MOL0     C20178   3.217   0.554   9.827  0.0413  0.4011  0.3845
  891MOL0     C20179   3.116   0.448   9.827  0.0411  0.4706 -0.2962
  891MOL0     O20180   3.008   0.455   9.743 -0.1815 -1.1503 -0.0116
  891MOL0     C20181   2.924   0.347   9.746 -0.0076  1.1794 -1.0370
  891MOL0     C20182   2.783   0.353   9.763  0.3319 -0.5760 -1.0863
  891MOL0     C20183   2.700   0.245   9.750 -0.4122  0.4470  0.6075
  891MOL0     C20184   2.764   0.120   9.719 -0.2781  0.3124 -0.6141
  891MOL0     O20185   2.696   0.008   9.689 -0.4994 -0.0638  0.1227
  891MOL0     C20186   2.583  -0.020   9.767  0.5765  1.0402  0.1615
  891MOL0     C20187   2.447   0.013   9.685  0.5344  0.0921 -0.0949
  891MOL0     C20188   2.324   0.019   9.785 -0.5104 -0.3265  0.2988
  891MOL0     C20189   2.298   0.167   9.826 -0.5000 -0.9427  0.5144
  891MOL0     C20190   2.169   0.188   9.888  0.4320 -0.3168  0.5890
  891MOL0     C20191   2.160   0.123  10.022  0.4832  0.5452 -0.5957
  891MOL0     C20192   2.023   0.142  10.080 -0.8413  0.5969 -0.0340
  891MOL0     C20193   2.002   0.041  10.189  0.9368  0.0847  0.3321
  891MOL0    Cl20194   2.137   0.067  10.313 -0.0426 -0.0225 -0.1773
  891MOL0     C20195   2.904   0.111   9.699  0.9389  0.2209 -0.5667
  891MOL0     C20196   2.986   0.219   9.718  0.7946  0.6520  0.9066
  891MOL0     O20197   3.143   0.355   9.903  0.0213  0.1216  0.6492
  891MOL0     C20198   3.263   0.613   9.710  0.1783 -0.2824 -0.2134
  891MOL0     C20199   3.362   0.711   9.717 -0.5617 -0.4071  0.0138
  891MOL0     N20200   3.961   1.068  10.345 -0.5873  0.4675 -0.1603
  891MOL0     N20201   4.069   1.133  10.359 -0.5534  0.5456  0.5347
  891MOL0     C20202   4.751   1.867   9.783  0.6768  0.6221  1.0136
  891MOL0     C20203   4.760   1.939   9.661 -0.4453  0.4488  0.1355
  891MOL0     C20204   4.857   2.228   9.342  0.3672 -0.4794  0.0111
  891MOL0     C20205   4.823   2.145   9.231 -0.4027 -0.3390 -0.2430
  891MOL0     C20206   4.780   2.202   9.109  0.1763 -0.2409 -0.0832
  891MOL0     C20207   4.782   2.334   9.088 -0.4130 -0.4704 -0.6323
  891MOL0     O20208   4.733   2.381   8.976  0.1529  0.2226  0.8588
  891MOL0     C20209   4.685   2.519   8.957  0.2162  0.0339 -0.6943
  891MOL0     C20210   4.581   2.525   8.844 -1.2588  0.4681  1.0330
  891MOL0     C20211   4.641   2.507   8.698  0.0668 -0.4757 -0.0913
  891MOL0     C20212   4.739   2.621   8.655 -0.0732 -0.4417 -0.0270
  891MOL0     C20213   4.817   2.564   8.541 -0.1398 -0.6355 -0.2796
  891MOL0     C20214   4.881   2.532   8.438 -0.3696  0.1114  0.9960
  891MOL0     C20215   4.824   2.418   9.190  0.5083  1.3967 -0.7243
  891MOL0     C20216   4.859   2.366   9.319  0.2181 -0.0108 -0.8290
  891MOL0     C20217   4.884   2.474   9.423  0.3562 -0.0808  1.0973
  891MOL0     H20218   5.090   1.970   9.640  0.5086  0.3084 -0.3594
  891MOL0     H20219   5.070   1.820   9.853 -0.6966  0.5856 -0.5305
  891MOL0     H20220   4.643   1.741   9.989 -0.8168 -0.2740 -0.5807
  891MOL0     H20221   4.713   1.599   9.907 -1.5844  2.8853 -0.8427
  891MOL0     H20222   4.768   1.661  10.209 -1.4663 -0.6239  1.6475
  891MOL0     H20223   4.859   1.552  10.101 -1.1226 -2.4212  1.9000
  891MOL0     H20224   4.563   1.518  10.121  2.0780  4.0762  0.6366
  891MOL0     H20225   4.659   1.466  10.264 -1.1105  1.4494  0.1836
  891MOL0     H20226   4.657   1.366   9.973  2.2116 -1.0441 -1.1357
  891MOL0     H20227   4.773   1.304  10.107  0.4756  2.3508  2.0496
  891MOL0     H20228   4.579   1.155  10.076  0.7343 -0.9531  0.2710
  891MOL0     H20229   4.565   1.250  10.231 -0.6511  4.6603  0.5880
  891MOL0     H20230   4.402   1.366  10.174  0.5838  0.2459 -0.2014
  891MOL0     H20231   4.419   1.347   9.995 -1.8495 -0.6216 -0.4655
  891MOL0     H20232   4.300   1.119  10.036 -1.8823 -1.8122  2.0001
  891MOL0     H20233   4.228   1.273  10.092  0.3092 -1.3836 -0.6952
  891MOL0     H20234   4.363   1.037  10.235  2.7003 -0.2864  5.6214
  891MOL0     H20235   4.333   1.186  10.321 -1.4022  2.2803 -1.7189
  891MOL0     H20236   4.137   0.933  10.104  0.2059 -0.1462 -1.6582
  891MOL0     H20237   3.944   0.805  10.118 -1.4902  0.6133 -2.4223
  891MOL0     H20238   3.838   0.805  10.268 -1.5687  1.1969 -1.0259
  891MOL0     H20239   3.717   0.993  10.162 -0.5185  2.0119 -1.5409
  891MOL0     H20240   3.843   0.987  10.031 -0.1042 -0.5073 -0.7014
  891MOL0     H20241   3.665   0.745  10.080 -1.0582  2.4782  2.7997
  891MOL0     H20242   3.750   0.785   9.930  0.2720  3.1886 -1.7198
  891MOL0     H20243   3.628   1.001   9.930  0.1008  0.1873 -1.6872
  891MOL0     H20244   3.511   0.931  10.044  0.8703 -1.3765  0.2943
  891MOL0     H20245   3.411   0.712  10.051 -1.0403  0.0078 -0.5462
  891MOL0     H20246   3.246   0.562  10.045  1.0972 -1.2362 -0.5288
  891MOL0     H20247   2.737   0.449   9.785 -1.8936 -1.3993 -1.8993
  891MOL0     H20248   2.592   0.245   9.743 -0.5879 -0.5852  2.6686
  891MOL0     H20249   2.587  -0.126   9.796  0.8139  1.2591  0.9482
  891MOL0     H20250   2.585   0.048   9.853  0.6251  2.2937 -0.8044
  891MOL0     H20251   2.473   0.103   9.628  3.9115 -1.0256 -0.5458
  891MOL0     H20252   2.431  -0.071   9.617 -0.0170 -1.5934  1.9776
  891MOL0     H20253   2.241   0.004   9.715 -1.0623  1.7792  0.4538
  891MOL0     H20254   2.333  -0.053   9.867  0.5406 -0.6849 -0.1196
  891MOL0     H20255   2.305   0.232   9.739 -0.4525 -0.0965  1.1414
  891MOL0     H20256   2.380   0.189   9.895 -1.5861  0.3937  1.4406
  891MOL0     H20257   2.096   0.154   9.814  0.5123  2.5945 -1.0001
  891MOL0     H20258   2.156   0.296   9.897 -0.2968 -0.2457 -0.9298
  891MOL0     H20259   2.185   0.017  10.011 -1.4617 -0.2658  1.7708
  891MOL0     H20260   2.231   0.155  10.099  0.1894 -0.8761  0.2916
  891MOL0     H20261   1.956   0.126   9.995  1.8735  0.1236 -2.2199
  891MOL0     H20262   2.023   0.244  10.119  3.1350  0.4473  0.6932
  891MOL0     H20263   1.917   0.079  10.247  2.5757  0.3408  2.7529
  891MOL0     H20264   1.993  -0.061  10.151 -3.4445 -0.3360  1.9543
  891MOL0     H20265   2.949   0.013   9.686 -0.5181 -0.2528 -2.5191
  891MOL0     H20266   3.094   0.214   9.707  0.7924  1.4577  0.3831
  891MOL0     H20267   3.225   0.580   9.614 -1.3052 -0.5177  0.4176
  891MOL0     H20268   3.402   0.757   9.628  1.7377  0.8921  1.6151
  891MOL0     H20269   4.646   1.852   9.808  0.0240  4.0677  0.8592
  891MOL0     H20270   4.672   1.967   9.603  0.0307  0.3868 -0.6311
  891MOL0     H20271   4.805   2.039   9.250  0.4795 -0.2650  1.1207
  891MOL0     H20272   4.748   2.148   9.021 -0.8024 -2.5104  1.5670
  891MOL0     H20273   4.771   2.584   8.942 -2.5395  4.0992 -0.5812
  891MOL0     H20274   4.642   2.566   9.047  0.8261 -2.6815  1.1333
  891MOL0     H20275   4.549   2.629   8.843 -0.8683  0.5888 -0.5663
  891MOL0     H20276   4.501   2.454   8.865 -1.7358  0.7572  0.2113
  891MOL0     H20277   4.552   2.505   8.634 -1.3259 -0.3203  1.7295
  891MOL0     H20278   4.680   2.407   8.681 -1.4632 -0.5960 -3.8906
  891MOL0     H20279   4.689   2.717   8.640 -1.7847 -1.3107 -0.0708
  891MOL0     H20280   4.812   2.635   8.735  1.1716 -0.3345 -1.1483
  891MOL0     H20281   4.948   2.513   8.356 -1.7447  3.1934 -1.0425
  891MOL0     H20282   4.814   2.525   9.174  3.8246  1.8499 -0.5464
  891MOL0     H20283   4.913   2.568   9.377  0.7349 -1.4375 -1.6379
  891MOL0     H20284   4.792   2.492   9.480 -0.8619  0.4931 -0.9664
  891MOL0     H20285   4.957   2.434   9.495 -2.5076 -2.4512  2.9601
  892MOL0     O20286   8.436   2.135   0.533  0.5840 -0.6365  0.5978
  892MOL0     C20287   8.419   2.166   0.416  0.1678  0.3185 -0.0702
  892MOL0     O20288   8.485   2.266   0.353 -0.0879 -0.3961  0.1937
  892MOL0     C20289   8.525   2.359   0.442  0.2799 -0.2562 -0.3399
  892MOL0     C20290   8.440   2.427   0.531 -0.4097 -0.3472 -0.1024
  892MOL0     C20291   8.490   2.526   0.621 -0.8136 -0.7235 -0.7360
  892MOL0     C20292   8.633   2.564   0.612  0.3217  0.0293 -0.5844
  892MOL0     O20293   8.690   2.659   0.690  1.0457 -0.2490 -1.0584
  892MOL0     C20294   8.627   2.786   0.718  0.6032 -0.6136  0.2068
  892MOL0     C20295   8.612   2.829   0.860  0.5677  0.0162  0.2671
  892MOL0     C20296   8.519   2.746   0.948  0.4331  0.1979 -0.5013
  892MOL0     C20297   8.543   2.806   1.091  0.3094 -0.1042 -0.2720
  892MOL0     C20298   8.452   2.753   1.205 -0.4918 -0.3842  0.1071
  892MOL0     C20299   8.303   2.785   1.178  0.2606 -0.4583  0.4418
  892MOL0     C20300   8.277   2.936   1.168  0.4545 -0.4977 -0.1895
  892MOL0     C20301   8.133   2.979   1.162 -0.4163 -0.0052 -0.6602
  892MOL0     N20302   8.127   3.127   1.171  0.4943 -0.0025 -1.1633
  892MOL0     C20303   8.167   3.216   1.078 -0.6186 -0.6593  0.5225
  892MOL0     C20304   8.139   3.338   1.139  0.4457  0.9952  0.5935
  892MOL0     C20305   8.121   3.469   1.065  0.3716 -0.7713  0.5652
  892MOL0     C20306   8.243   3.571   1.066  0.0045  0.6143 -0.1923
  892MOL0     C20307   8.256   3.642   0.931 -0.7873  0.1409  0.7704
  892MOL0     C20308   8.364   3.752   0.943  0.2436  0.2565  0.0821
  892MOL0     O20309   8.495   3.706   0.982  0.3534  0.0409 -0.2882
  892MOL0     C20310   8.565   3.631   0.893  0.1864 -0.0426 -0.6343
  892MOL0     C20311   8.669   3.566   0.955 -0.4256 -1.1276 -0.4299
  892MOL0     C20312   8.765   3.490   0.882 -0.8964  0.0462 -0.7654
  892MOL0     C20313   8.755   3.482   0.740 -1.2517 -0.2096 -1.0050
  892MOL0     C20314   8.854   3.412   0.646 -1.1002 -0.5104  0.5354
  892MOL0     O20315   8.837   3.424   0.516  0.9428 -0.4171 -0.2714
  892MOL0     C20316   8.896   3.330   0.430  0.8244  0.1898 -0.1305
  892MOL0     C20317   8.970   3.374   0.316 -0.2692  0.5585 -0.0439
  892MOL0     C20318   9.044   3.279   0.241 -0.6298 -0.6414  0.0128
  892MOL0     C20319   9.038   3.141   0.272  0.4066  0.3257  0.7300
  892MOL0     O20320   9.092   3.051   0.183  1.2705 -0.0631 -0.0117
  892MOL0     C20321   9.227   3.021   0.230 -0.6360  0.7526 -0.3190
  892MOL0     C20322   9.316   2.967   0.110 -0.3916 -0.1318 -0.4158
  892MOL0     C20323   9.334   3.050  -0.011  0.4603 -0.0269 -0.2672
  892MOL0     C20324   9.442   3.165   0.017  0.2163 -0.0630 -0.9088
  892MOL0     C20325   9.484   3.258  -0.100  0.6205  0.1364  0.1961
  892MOL0     C20326   9.521   3.192  -0.231  0.4049 -0.3815  0.2603
  892MOL0     C20327   9.584   3.285  -0.322  0.1219  0.0722 -0.1587
  892MOL0     C20328   9.487   3.397  -0.367 -0.2606  0.3252 -0.2574
  892MOL0    Cl20329   9.531   3.471  -0.526  0.2066  0.1907  0.0755
  892MOL0     C20330   8.957   3.103   0.382 -0.6006 -0.6407 -0.0518
  892MOL0     C20331   8.892   3.197   0.461  0.3906  0.6263  0.0275
  892MOL0     O20332   8.957   3.358   0.694  0.4785  0.1847 -0.6461
  892MOL0     C20333   8.636   3.544   0.684 -0.6297  0.6234  0.0436
  892MOL0     C20334   8.542   3.621   0.756 -0.1255 -0.1666  1.1918
  892MOL0     N20335   8.063   3.317   1.256  0.2631  1.1024 -0.5154
  892MOL0     N20336   8.073   3.192   1.277 -0.0574 -0.3959 -0.3091
  892MOL0     C20337   8.717   2.488   0.529 -0.0983  0.2369 -0.2129
  892MOL0     C20338   8.661   2.390   0.442  0.3659  0.1598  0.1038
  892MOL0     C20339   8.322   2.080   0.352 -0.4452  1.0246  0.0538
  892MOL0     C20340   8.280   1.956   0.404 -0.2371  0.2480 -0.0450
  892MOL0     C20341   8.197   1.865   0.345  0.0819  0.3017 -0.2288
  892MOL0     C20342   8.164   1.873   0.212 -0.6953 -0.1959  0.5183
  892MOL0     O20343   8.107   1.779   0.139 -0.1957 -0.4505 -0.5825
  892MOL0     C20344   8.049   1.661   0.198  0.6033 -0.1689 -0.1358
  892MOL0     C20345   7.998   1.557   0.098  0.3608  0.6612 -0.3971
  892MOL0     C20346   8.017   1.417   0.165  0.0939  0.0606  0.2165
  892MOL0     C20347   7.894   1.376   0.240  0.7388 -0.5518 -1.1304
  892MOL0     C20348   7.895   1.237   0.293  0.6292 -0.1149 -0.2800
  892MOL0     C20349   7.900   1.127   0.336 -1.1621  0.8623 -1.5661
  892MOL0     C20350   8.205   1.992   0.148 -0.1261  0.4884  0.1989
  892MOL0     C20351   8.278   2.092   0.216 -0.0411  0.1870 -0.1745
  892MOL0     C20352   8.308   2.223   0.139 -0.4704  0.0443 -0.0214
  892MOL0     H20353   8.332   2.426   0.524 -0.4795 -1.3621  0.8184
  892MOL0     H20354   8.414   2.569   0.685 -1.9505 -2.5491 -0.7672
  892MOL0     H20355   8.681   2.866   0.665 -0.5076 -1.0503 -1.6683
  892MOL0     H20356   8.531   2.791   0.666 -1.7072 -0.7068  4.0669
  892MOL0     H20357   8.561   2.926   0.846 -0.9181 -1.1767 -4.3019
  892MOL0     H20358   8.713   2.833   0.903  0.1747  0.4569  1.1912
  892MOL0     H20359   8.546   2.640   0.944 -2.1253 -0.6004  1.0627
  892MOL0     H20360   8.417   2.760   0.914  0.4736 -1.7919 -1.6410
  892MOL0     H20361   8.642   2.773   1.122  0.8111  0.8118 -0.8542
  892MOL0     H20362   8.546   2.916   1.092 -6.6108  0.5354  0.7265
  892MOL0     H20363   8.458   2.644   1.195 -0.9485 -0.4704  0.7476
  892MOL0     H20364   8.476   2.773   1.309 -3.2363 -2.2385  1.2088
  892MOL0     H20365   8.279   2.728   1.088  0.4743  0.0776  0.0363
  892MOL0     H20366   8.238   2.745   1.256 -1.4557 -2.4122 -1.8463
  892MOL0     H20367   8.326   2.982   1.081  0.7198  0.5991  0.5233
  892MOL0     H20368   8.311   2.982   1.261 -2.5991  0.7050  0.4232
  892MOL0     H20369   8.069   2.956   1.077 -1.9620 -1.4029  0.8189
  892MOL0     H20370   8.075   2.934   1.243 -1.7126  0.9872 -1.0011
  892MOL0     H20371   8.205   3.213   0.976  0.5762 -0.9177  0.9564
  892MOL0     H20372   8.098   3.442   0.961  2.2360  0.1599 -0.1307
  892MOL0     H20373   8.034   3.516   1.111  0.9800 -2.2548  3.4160
  892MOL0     H20374   8.228   3.643   1.148  1.0934  2.3054 -1.4170
  892MOL0     H20375   8.332   3.514   1.095 -0.7512  0.4970  2.1353
  892MOL0     H20376   8.175   3.699   0.886  0.8002  1.5834 -0.4099
  892MOL0     H20377   8.308   3.576   0.861  1.0603  2.7144 -0.4532
  892MOL0     H20378   8.328   3.824   1.016  2.6718  1.6362  0.0240
  892MOL0     H20379   8.368   3.795   0.842 -2.4222  2.2536  0.7242
  892MOL0     H20380   8.681   3.579   1.063  1.9670  0.6954 -0.8125
  892MOL0     H20381   8.853   3.460   0.937 -0.6147  1.4342 -0.4219
  892MOL0     H20382   8.952   3.478   0.291  0.4436  0.7669  0.2687
  892MOL0     H20383   9.095   3.293   0.146  0.4972 -0.1211  0.6849
  892MOL0     H20384   9.271   3.113   0.271 -3.2708  1.8190  0.3089
  892MOL0     H20385   9.218   2.948   0.311 -0.7255 -0.7059 -1.5956
  892MOL0     H20386   9.414   2.947   0.153  0.1217  3.7312  0.5331
  892MOL0     H20387   9.280   2.868   0.078  0.1108 -0.0384 -1.2863
  892MOL0     H20388   9.369   2.997  -0.100 -1.3320 -1.6105 -0.0771
  892MOL0     H20389   9.241   3.099  -0.044 -1.0479 -0.4499  2.9933
  892MOL0     H20390   9.535   3.110   0.033  1.6258  1.2142 -4.0047
  892MOL0     H20391   9.411   3.210   0.112  0.6927  0.9597 -1.2287
  892MOL0     H20392   9.561   3.331  -0.071 -0.2227  0.8378  0.7390
  892MOL0     H20393   9.397   3.322  -0.118  1.0698  0.8211  0.4519
  892MOL0     H20394   9.593   3.111  -0.221  2.9126  1.4878 -1.4934
  892MOL0     H20395   9.439   3.133  -0.274 -2.2488  0.5173  3.5829
  892MOL0     H20396   9.606   3.235  -0.417 -3.8927 -1.9851 -0.2447
  892MOL0     H20397   9.670   3.326  -0.269  0.7311  1.6012 -2.1895
  892MOL0     H20398   9.386   3.353  -0.364  0.0215 -0.3065  2.5621
  892MOL0     H20399   9.491   3.475  -0.290 -2.3109 -0.1677  0.4316
  892MOL0     H20400   8.947   2.995   0.391  1.6834 -1.1910 -2.7410
  892MOL0     H20401   8.824   3.158   0.536  2.9546 -4.2942  0.2504
  892MOL0     H20402   8.612   3.550   0.578 -0.5315  4.1606  0.1022
  892MOL0     H20403   8.464   3.679   0.710  1.1253  2.8914  2.6577
  892MOL0     H20404   8.825   2.484   0.531 -0.1153 -2.8566  2.2930
  892MOL0     H20405   8.734   2.345   0.376  1.6039  1.0337  0.8297
  892MOL0     H20406   8.299   1.938   0.510 -1.1054  2.0165  0.4489
  892MOL0     H20407   8.168   1.781   0.407 -0.0390  1.4549  1.3275
  892MOL0     H20408   7.968   1.680   0.268 -0.5036 -0.9157 -1.1710
  892MOL0     H20409   8.136   1.617   0.248  0.6803 -0.5784 -0.6231
  892MOL0     H20410   8.075   1.565   0.020  2.2916 -0.0566  1.3346
  892MOL0     H20411   7.902   1.581   0.053 -1.4573 -0.1554  2.7484
  892MOL0     H20412   8.107   1.416   0.226 -0.2209  0.6135  0.7057
  892MOL0     H20413   8.026   1.347   0.082  1.4651  1.1697 -0.6272
  892MOL0     H20414   7.886   1.449   0.321  4.9822 -0.1514 -0.8445
  892MOL0     H20415   7.802   1.375   0.182 -0.6743 -4.4356  0.8114
  892MOL0     H20416   7.898   1.025   0.369  0.7601  0.4528 -2.5634
  892MOL0     H20417   8.190   2.006   0.041  3.4286 -1.1871 -0.6925
  892MOL0     H20418   8.257   2.303   0.194  0.1434  0.1654  0.3825
  892MOL0     H20419   8.408   2.260   0.117 -1.8037  3.2497 -1.3274
  892MOL0     H20420   8.254   2.210   0.045 -1.3073  1.1474  0.2894
  893MOL0     O20421   0.325   4.206   2.351 -0.1694 -0.4027  0.7487
  893MOL0     C20422   0.333   4.317   2.399 -0.6234 -0.4286 -0.7326
  893MOL0     O20423   0.257   4.351   2.510  0.3119  0.3426  0.5766
  893MOL0     C20424   0.176   4.262   2.581  0.6881 -0.8432  0.6330
  893MOL0     C20425   0.233   4.183   2.681  0.1521  0.1420  1.2618
  893MOL0     C20426   0.147   4.093   2.755  0.7638 -0.0813  0.5574
  893MOL0     C20427   0.009   4.085   2.721  0.3239  0.3061 -0.2758
  893MOL0     O20428  -0.096   4.018   2.791 -0.5784 -0.0132  0.3557
  893MOL0     C20429  -0.055   3.928   2.888 -0.7029 -0.9797  0.0300
  893MOL0     C20430  -0.086   3.995   3.026 -0.2324 -0.5757 -0.1035
  893MOL0     C20431   0.001   3.932   3.142  0.5866  0.7620  0.1589
  893MOL0     C20432  -0.025   4.010   3.271  1.0764 -0.4412 -0.9949
  893MOL0     C20433   0.069   3.950   3.381  0.3403  0.0790  0.2781
  893MOL0     C20434   0.012   3.960   3.523  0.3173  0.4491  0.3511
  893MOL0     C20435   0.113   3.950   3.632  0.0818 -0.1264  0.2069
  893MOL0     C20436   0.043   3.968   3.767  0.9466 -0.3700  0.2575
  893MOL0     N20437   0.136   3.941   3.874 -0.6647 -0.4924 -0.2535
  893MOL0     C20438   0.142   3.831   3.961  0.1795 -0.1777  0.2360
  893MOL0     C20439   0.242   3.868   4.046  0.2447 -0.2261 -0.6834
  893MOL0     C20440   0.284   3.788   4.174 -0.1197 -0.1756  0.1757
  893MOL0     C20441   0.216   3.850   4.290  0.1058 -0.1312  0.0132
  893MOL0     C20442   0.263   3.781   4.423 -0.8533  0.4913 -0.1241
  893MOL0     C20443   0.174   3.832   4.540 -0.1979 -0.4032  0.1389
  893MOL0     O20444   0.220   3.970   4.579  0.4892 -0.8074  0.0618
  893MOL0     C20445   0.140   4.034   4.662  0.1155  0.3366  0.3026
  893MOL0     C20446   0.139   3.993   4.797 -0.5859  0.6799 -0.7789
  893MOL0     C20447   0.068   4.071   4.883  0.1464 -0.0623 -0.1412
  893MOL0     C20448  -0.014   4.184   4.843 -0.1494 -0.4084  0.6024
  893MOL0     C20449  -0.090   4.267   4.942  0.4366 -1.0960  0.4688
  893MOL0     O20450  -0.074   4.239   5.080  0.9151 -0.3183  0.5816
  893MOL0     C20451  -0.102   4.343   5.171  0.0608 -0.1015  0.9164
  893MOL0     C20452  -0.109   4.289   5.296  0.6472 -0.5644 -0.4974
  893MOL0     C20453  -0.135   4.374   5.404 -1.1654 -0.2811 -0.3058
  893MOL0     C20454  -0.174   4.508   5.377  0.8245 -0.4113  0.2858
  893MOL0     O20455  -0.222   4.607   5.470 -0.2912  0.7042 -0.1655
  893MOL0     C20456  -0.229   4.549   5.604 -0.5979 -1.0729 -0.0687
  893MOL0     C20457  -0.297   4.653   5.701 -0.7744 -0.1233 -1.0072
  893MOL0     C20458  -0.235   4.787   5.682 -0.3068  0.1764 -0.0456
  893MOL0     C20459  -0.290   4.898   5.781  0.9184 -0.1181  0.4331
  893MOL0     C20460  -0.274   4.867   5.931  0.1331 -0.0016  0.1390
  893MOL0     C20461  -0.124   4.845   5.971  0.0735  0.9103 -0.2278
  893MOL0     C20462  -0.092   4.801   6.120  0.3362 -0.3186  0.8993
  893MOL0     C20463  -0.154   4.888   6.233  0.4428  0.8348 -0.1590
  893MOL0    Cl20464  -0.300   4.795   6.291  0.0053  0.0190 -0.2425
  893MOL0     C20465  -0.170   4.552   5.251  0.4623 -0.9071  0.9385
  893MOL0     C20466  -0.129   4.477   5.143 -0.5369 -0.4665  0.8027
  893MOL0     O20467  -0.171   4.345   4.894  0.5984  0.9730 -0.6542
  893MOL0     C20468  -0.012   4.223   4.706 -0.4982  0.0196  0.3329
  893MOL0     C20469   0.067   4.148   4.625  0.8583  0.5239 -0.0725
  893MOL0     N20470   0.292   3.998   4.024 -0.2904  0.0868  0.1439
  893MOL0     N20471   0.229   4.030   3.915  0.1433  0.2113  0.3778
  893MOL0     C20472  -0.043   4.160   2.611  0.1401 -0.4015 -0.7457
  893MOL0     C20473   0.043   4.254   2.547 -0.0144  0.7451  0.1163
  893MOL0     C20474   0.412   4.424   2.326  0.8777  0.3860 -0.4668
  893MOL0     C20475   0.417   4.555   2.373 -0.8460  0.7585 -0.9042
  893MOL0     C20476   0.491   4.655   2.318  0.2039  0.2685 -0.3379
  893MOL0     C20477   0.557   4.632   2.196  0.1731 -0.0069  0.2446
  893MOL0     O20478   0.620   4.734   2.143 -0.3626  0.9537  0.8548
  893MOL0     C20479   0.728   4.716   2.049 -0.3027 -0.2687  0.7356
  893MOL0     C20480   0.778   4.857   2.008 -0.8395  0.1715 -0.9573
  893MOL0     C20481   0.664   4.942   1.940  1.1042 -0.2999 -0.5700
  893MOL0     C20482   0.633   4.909   1.794 -0.3296  0.8272 -0.3111
  893MOL0     C20483   0.734   4.977   1.711 -0.1777 -0.5485  0.4015
  893MOL0     C20484   0.815   5.047   1.640  0.2876  0.1532 -0.2560
  893MOL0     C20485   0.561   4.501   2.152 -0.3218 -0.7308 -0.1344
  893MOL0     C20486   0.489   4.400   2.206  0.6677 -0.2395  0.0366
  893MOL0     C20487   0.486   4.263   2.132  0.2677 -0.0078  0.8545
  893MOL0     H20488   0.335   4.202   2.711 -0.1384  5.1032 -0.0510
  893MOL0     H20489   0.188   4.020   2.824  0.1152  0.8976  2.0261
  893MOL0     H20490  -0.115   3.837   2.883 -2.3851  0.0881  0.0928
  893MOL0     H20491   0.051   3.902   2.894 -0.1741  1.2111  2.7606
  893MOL0     H20492  -0.193   3.996   3.049 -0.7770  2.8437 -2.0665
  893MOL0     H20493  -0.053   4.100   3.026  1.7808 -1.1755  0.1172
  893MOL0     H20494   0.106   3.945   3.113  0.8752  0.8443  1.1991
  893MOL0     H20495  -0.023   3.825   3.144 -0.2342  0.6963 -4.0355
  893MOL0     H20496  -0.022   4.118   3.256 -1.1672  0.0440  1.3459
  893MOL0     H20497  -0.127   3.994   3.306  0.4188  0.6942 -2.2815
  893MOL0     H20498   0.083   3.845   3.356 -2.8583 -0.5161  0.4743
  893MOL0     H20499   0.171   3.989   3.380  0.9758 -1.5066 -1.4295
  893MOL0     H20500  -0.038   4.057   3.527  0.0608  0.4107 -1.3461
  893MOL0     H20501  -0.068   3.885   3.529  1.8203 -1.1977  0.6681
  893MOL0     H20502   0.196   4.021   3.625  0.5588 -0.6474  0.4220
  893MOL0     H20503   0.164   3.852   3.631  0.1930 -0.0763 -0.8926
  893MOL0     H20504  -0.003   4.066   3.783 -0.5757 -0.8719 -0.7930
  893MOL0     H20505  -0.034   3.892   3.783  1.0721 -0.4371  0.5361
  893MOL0     H20506   0.094   3.734   3.968  0.3176 -0.2500  0.1760
  893MOL0     H20507   0.268   3.680   4.169  1.7258 -0.4885  0.3549
  893MOL0     H20508   0.391   3.789   4.195  0.1371 -0.1182 -1.0649
  893MOL0     H20509   0.234   3.957   4.290 -0.1821 -0.0814 -0.1081
  893MOL0     H20510   0.109   3.831   4.276 -1.0112  3.6473  2.0814
  893MOL0     H20511   0.366   3.797   4.455 -1.4249  3.3531  0.5764
  893MOL0     H20512   0.238   3.674   4.418 -1.2395  0.5609  0.1970
  893MOL0     H20513   0.185   3.758   4.620  0.7815 -1.1781 -0.6798
  893MOL0     H20514   0.068   3.831   4.511 -0.8002 -2.3731  2.1695
  893MOL0     H20515   0.188   3.903   4.834 -2.5211 -0.2978 -0.4324
  893MOL0     H20516   0.046   4.047   4.986 -3.7341 -1.3224 -1.1047
  893MOL0     H20517  -0.092   4.183   5.308 -5.2641 -1.7614  0.2490
  893MOL0     H20518  -0.135   4.329   5.503  2.0403 -1.1880 -0.5774
  893MOL0     H20519  -0.299   4.465   5.610 -0.4727 -1.1231  1.0082
  893MOL0     H20520  -0.127   4.526   5.634  0.2880  2.1179 -0.2447
  893MOL0     H20521  -0.400   4.661   5.664 -0.0523 -1.1919 -3.4673
  893MOL0     H20522  -0.308   4.620   5.804 -2.1337  3.4359  0.1478
  893MOL0     H20523  -0.126   4.785   5.687 -0.3591 -1.6418  1.1641
  893MOL0     H20524  -0.257   4.814   5.578  1.0205 -1.3775 -0.7715
  893MOL0     H20525  -0.397   4.910   5.760  1.1246  1.6766  0.2950
  893MOL0     H20526  -0.238   4.992   5.758 -0.8525  0.7965 -0.0060
  893MOL0     H20527  -0.314   4.770   5.961  0.3856  0.6268  2.6978
  893MOL0     H20528  -0.323   4.943   5.992  1.0414 -0.2901  1.2672
  893MOL0     H20529  -0.090   4.755   5.921  2.7552  0.2773  2.4241
  893MOL0     H20530  -0.064   4.929   5.937  0.6766  1.0586  1.1438
  893MOL0     H20531   0.015   4.816   6.132 -0.0640  0.6188  4.2561
  893MOL0     H20532  -0.131   4.700   6.130 -0.1177 -0.2711 -0.1671
  893MOL0     H20533  -0.087   4.891   6.320 -0.6640 -0.7880  0.8170
  893MOL0     H20534  -0.178   4.988   6.197 -1.8101 -0.4797 -2.6673
  893MOL0     H20535  -0.180   4.660   5.243  0.9134 -0.9737 -3.4164
  893MOL0     H20536  -0.129   4.508   5.040 -0.6878 -2.8751  0.0097
  893MOL0     H20537  -0.069   4.310   4.675 -2.3765 -1.6490 -1.1863
  893MOL0     H20538   0.057   4.166   4.518 -3.0248  2.0475  0.3923
  893MOL0     H20539  -0.149   4.150   2.594 -0.6067  1.3905  2.1962
  893MOL0     H20540   0.018   4.319   2.464 -1.1367 -1.3276 -1.2355
  893MOL0     H20541   0.354   4.564   2.461  0.7294 -1.9122  0.6299
  893MOL0     H20542   0.511   4.753   2.362  2.6330 -0.5418  0.5639
  893MOL0     H20543   0.688   4.656   1.966  2.1925 -0.4852 -0.3980
  893MOL0     H20544   0.809   4.658   2.093 -1.2549 -1.5073  0.9423
  893MOL0     H20545   0.862   4.833   1.942 -0.8097 -1.0364 -0.5179
  893MOL0     H20546   0.814   4.908   2.098 -0.6773 -0.3620 -0.7118
  893MOL0     H20547   0.692   5.046   1.957 -2.2579  0.6692 -0.4061
  893MOL0     H20548   0.578   4.932   2.006  1.0799  2.1987 -0.1163
  893MOL0     H20549   0.633   4.802   1.769 -1.6720  0.6878  0.2103
  893MOL0     H20550   0.536   4.951   1.765  0.1312  0.9067 -1.8190
  893MOL0     H20551   0.871   5.102   1.568 -1.9993  1.3780 -1.1876
  893MOL0     H20552   0.617   4.484   2.061 -2.1911  1.4795 -1.8244
  893MOL0     H20553   0.383   4.226   2.133 -0.3948  1.5387 -1.7393
  893MOL0     H20554   0.517   4.282   2.029 -1.8758  1.2924  0.4060
  893MOL0     H20555   0.549   4.187   2.180  2.3424  0.7667 -0.5057
  894MOL0     O20556   6.219   7.870   2.007 -0.4619  0.2642 -0.1453
  894MOL0     C20557   6.257   7.749   1.989 -0.2118 -1.1837  0.6449
  894MOL0     O20558   6.165   7.641   1.972  0.3195 -0.1847 -0.0453
  894MOL0     C20559   6.036   7.677   1.987 -0.2036  0.3643 -0.2426
  894MOL0     C20560   5.977   7.632   2.107 -0.1221 -1.1072 -0.2202
  894MOL0     C20561   5.839   7.666   2.127 -0.6806  0.8430  0.1506
  894MOL0     C20562   5.772   7.734   2.023 -0.2527 -0.0601 -0.0446
  894MOL0     O20563   5.634   7.729   2.029  0.0580 -0.3853  0.1900
  894MOL0     C20564   5.575   7.599   2.001 -0.2481  0.2989 -0.7003
  894MOL0     C20565   5.426   7.594   1.986 -0.2602 -0.7468  0.0224
  894MOL0     C20566   5.353   7.621   2.113  0.5728 -0.8820  0.1472
  894MOL0     C20567   5.364   7.516   2.218 -0.4624  0.5633 -0.5437
  894MOL0     C20568   5.295   7.567   2.344  0.7158 -0.0833 -0.5918
  894MOL0     C20569   5.305   7.457   2.459  0.7551 -0.3163 -0.9724
  894MOL0     C20570   5.265   7.496   2.604  0.2410 -0.1445 -0.7735
  894MOL0     C20571   5.356   7.616   2.664  1.1206  0.4015  0.8307
  894MOL0     N20572   5.339   7.631   2.809  0.2004  0.0339 -0.2142
  894MOL0     C20573   5.434   7.671   2.891 -0.4562  0.3266 -0.7702
  894MOL0     C20574   5.382   7.661   3.019 -1.1401 -0.6724 -0.6230
  894MOL0     C20575   5.456   7.690   3.146  0.2130 -0.6584 -0.3378
  894MOL0     C20576   5.499   7.570   3.227 -0.6722  0.0396  0.0339
  894MOL0     C20577   5.548   7.608   3.367  1.0469  0.4686 -0.0100
  894MOL0     C20578   5.612   7.496   3.448 -0.2462 -0.2017  0.1198
  894MOL0     O20579   5.733   7.460   3.389  0.3173 -0.4868 -0.4022
  894MOL0     C20580   5.854   7.493   3.429  0.0314 -0.1362 -0.4184
  894MOL0     C20581   5.952   7.421   3.375 -0.3701  0.0212 -0.2296
  894MOL0     C20582   6.081   7.458   3.391 -1.3631 -0.4553  0.6676
  894MOL0     C20583   6.121   7.575   3.467 -0.5835  0.3970 -1.0803
  894MOL0     C20584   6.263   7.627   3.480  1.3612  0.7874 -0.4411
  894MOL0     O20585   6.359   7.573   3.404  0.3473 -0.0852 -0.2536
  894MOL0     C20586   6.491   7.623   3.423 -0.5219  0.9838 -0.3219
  894MOL0     C20587   6.543   7.724   3.346 -0.0266 -0.1351  0.7903
  894MOL0     C20588   6.674   7.775   3.353  0.1693 -0.2786  0.9024
  894MOL0     C20589   6.765   7.714   3.440  1.3108  0.1773 -0.4437
  894MOL0     O20590   6.897   7.762   3.433 -0.1399  0.3882 -0.3107
  894MOL0     C20591   7.004   7.686   3.490  0.3314  0.2220 -0.5539
  894MOL0     C20592   7.126   7.724   3.406 -0.1431 -0.2871  1.2622
  894MOL0     C20593   7.188   7.857   3.452  0.2804 -0.0324 -0.5180
  894MOL0     C20594   7.305   7.888   3.365 -0.0161  0.0613  0.4382
  894MOL0     C20595   7.383   8.016   3.409 -0.3446  0.1394 -0.0463
  894MOL0     C20596   7.509   8.054   3.325 -0.5804 -0.2933 -0.0525
  894MOL0     C20597   7.466   8.052   3.175 -1.0110  0.1787  0.3688
  894MOL0     C20598   7.600   8.095   3.102 -0.4020 -0.2788 -0.1606
  894MOL0    Cl20599   7.703   7.959   3.085  0.5117 -0.1598  0.2000
  894MOL0     C20600   6.724   7.609   3.522 -1.2939  0.1742 -0.7162
  894MOL0     C20601   6.588   7.569   3.520  0.2910 -0.0583 -0.5229
  894MOL0     O20602   6.278   7.701   3.577 -0.8637  0.0981  0.2069
  894MOL0     C20603   6.012   7.643   3.536 -0.5614 -0.7223  0.2405
  894MOL0     C20604   5.884   7.605   3.512  0.1868 -0.0144 -0.6523
  894MOL0     N20605   5.252   7.629   2.998  0.8120  0.5670  0.4445
  894MOL0     N20606   5.226   7.610   2.874 -0.1581  0.2561  0.0610
  894MOL0     C20607   5.834   7.781   1.903  0.7410 -0.0284  0.7950
  894MOL0     C20608   5.966   7.747   1.890  0.0393  0.7146  0.7833
  894MOL0     C20609   6.398   7.719   1.969 -0.0531  0.7093  0.7243
  894MOL0     C20610   6.429   7.627   1.871 -0.0772 -0.1494  1.4580
  894MOL0     C20611   6.558   7.603   1.833 -0.2776  0.4458  0.5768
  894MOL0     C20612   6.665   7.675   1.906  0.3007  0.8564  0.7784
  894MOL0     O20613   6.795   7.632   1.894  0.1755  0.2303  0.1600
  894MOL0     C20614   6.875   7.723   1.824  0.8534  0.0062  0.1378
  894MOL0     C20615   6.964   7.655   1.724 -0.2659  0.3977 -0.4043
  894MOL0     C20616   7.047   7.747   1.635 -0.4135 -0.3408  0.6258
  894MOL0     C20617   7.113   7.667   1.516  0.4411  0.1876 -0.8738
  894MOL0     C20618   7.213   7.567   1.571  0.6744 -0.1136  0.8367
  894MOL0     C20619   7.296   7.491   1.607 -0.6862 -0.5690  0.5325
  894MOL0     C20620   6.625   7.774   2.004 -0.9195 -0.0039  0.0205
  894MOL0     C20621   6.495   7.791   2.043  0.4698  0.2816  0.3298
  894MOL0     C20622   6.456   7.895   2.158 -0.2487 -0.5975 -1.6629
  894MOL0     H20623   6.026   7.553   2.162 -0.6201 -0.7971  0.6779
  894MOL0     H20624   5.791   7.629   2.217  2.6988 -2.2748  0.9373
  894MOL0     H20625   5.606   7.590   1.897  0.3636  1.7875 -0.6729
  894MOL0     H20626   5.609   7.518   2.067  2.4458  2.3690  0.6635
  894MOL0     H20627   5.386   7.504   1.937  3.0294 -2.1765 -0.2897
  894MOL0     H20628   5.404   7.683   1.927  3.0933  0.8547  0.9563
  894MOL0     H20629   5.247   7.633   2.088  0.8699  2.9264  0.1683
  894MOL0     H20630   5.382   7.722   2.145 -1.7914  1.2734 -3.6524
  894MOL0     H20631   5.312   7.427   2.181  1.7046 -0.7131 -0.6917
  894MOL0     H20632   5.469   7.493   2.238 -0.5122  2.9728  3.6920
  894MOL0     H20633   5.338   7.666   2.364 -0.6722  0.8785 -2.0621
  894MOL0     H20634   5.191   7.583   2.314  0.0655 -1.2147  0.9839
  894MOL0     H20635   5.245   7.370   2.429  2.7207 -2.0530 -0.1516
  894MOL0     H20636   5.408   7.426   2.479  0.4537  0.8018  3.1352
  894MOL0     H20637   5.270   7.410   2.672 -1.1560 -0.4607 -1.0372
  894MOL0     H20638   5.162   7.531   2.599 -0.0224 -0.7252  0.2240
  894MOL0     H20639   5.456   7.601   2.623 -0.3638  1.7370 -3.9467
  894MOL0     H20640   5.318   7.706   2.614  1.7269 -0.6570 -1.6625
  894MOL0     H20641   5.539   7.685   2.866 -0.1642  1.2757  0.7947
  894MOL0     H20642   5.547   7.746   3.121  0.8570 -0.9760  1.1706
  894MOL0     H20643   5.404   7.764   3.208  1.1865 -0.1967 -0.0385
  894MOL0     H20644   5.420   7.496   3.237  0.1680 -0.7221  1.4570
  894MOL0     H20645   5.586   7.525   3.179 -0.5514  0.9783 -0.6537
  894MOL0     H20646   5.455   7.630   3.420  0.4674  1.5424 -1.4160
  894MOL0     H20647   5.601   7.703   3.371 -1.2293  1.9446 -2.3266
  894MOL0     H20648   5.548   7.410   3.467 -1.8804  1.1649  1.0758
  894MOL0     H20649   5.621   7.526   3.553  1.9689  2.8700 -0.8041
  894MOL0     H20650   5.930   7.337   3.309 -1.1340 -0.1572  0.2367
  894MOL0     H20651   6.162   7.394   3.356 -0.2238  0.4555  1.5684
  894MOL0     H20652   6.472   7.766   3.276  2.0438  0.3109 -1.1421
  894MOL0     H20653   6.718   7.849   3.287 -0.1627 -1.3501 -0.5816
  894MOL0     H20654   7.011   7.707   3.598  0.1528 -2.0892 -0.0394
  894MOL0     H20655   6.985   7.579   3.479  1.1604  0.2005 -1.8802
  894MOL0     H20656   7.201   7.645   3.415 -0.3118 -1.0579 -2.2759
  894MOL0     H20657   7.102   7.734   3.299 -1.5809  1.3693  1.7030
  894MOL0     H20658   7.106   7.929   3.442 -1.4073 -1.8798 -0.5176
  894MOL0     H20659   7.219   7.846   3.557 -2.1593 -0.3170  0.2408
  894MOL0     H20660   7.269   7.883   3.262 -1.5871  0.9953  0.8985
  894MOL0     H20661   7.377   7.805   3.362 -0.9845 -0.7710 -1.6535
  894MOL0     H20662   7.411   7.991   3.511  2.9243 -1.2945 -1.1574
  894MOL0     H20663   7.308   8.095   3.414  0.0950  0.5704 -0.2003
  894MOL0     H20664   7.543   8.151   3.362 -1.9300 -0.5102  1.8724
  894MOL0     H20665   7.589   7.980   3.336 -1.2850 -1.2058 -0.8357
  894MOL0     H20666   7.391   8.123   3.139 -0.6749 -0.5378 -1.9197
  894MOL0     H20667   7.438   7.953   3.137  0.2936  0.9945 -3.1381
  894MOL0     H20668   7.585   8.126   2.999  0.5227  0.5550 -0.0598
  894MOL0     H20669   7.650   8.183   3.145  0.2066 -1.3901  1.5181
  894MOL0     H20670   6.790   7.571   3.599 -2.4327 -1.7829 -0.6444
  894MOL0     H20671   6.548   7.498   3.592 -1.0332  0.2404 -0.9298
  894MOL0     H20672   6.027   7.735   3.592  1.8277 -1.5131  1.0273
  894MOL0     H20673   5.807   7.662   3.564  0.9297  0.4573 -0.0497
  894MOL0     H20674   5.775   7.827   1.824  0.4267 -3.2906 -1.0354
  894MOL0     H20675   6.013   7.791   1.803 -2.4625  2.9172  0.4284
  894MOL0     H20676   6.361   7.559   1.821 -1.1416 -0.1877  2.8918
  894MOL0     H20677   6.591   7.524   1.766  1.7636  1.5728  0.1962
  894MOL0     H20678   6.936   7.794   1.881  1.3660 -1.1854  1.1116
  894MOL0     H20679   6.801   7.785   1.772 -0.6986 -0.7894  1.3383
  894MOL0     H20680   6.901   7.583   1.670  2.1907 -1.2088 -1.3232
  894MOL0     H20681   7.030   7.589   1.781 -0.6378 -0.2215 -0.6803
  894MOL0     H20682   7.126   7.801   1.689  1.9282 -0.4675 -2.3924
  894MOL0     H20683   6.989   7.829   1.593  0.2055 -0.2883 -0.1363
  894MOL0     H20684   7.031   7.620   1.460 -0.9948 -2.1843  2.7809
  894MOL0     H20685   7.161   7.741   1.452  1.5422 -1.1933 -1.7134
  894MOL0     H20686   7.373   7.438   1.658  1.6118  0.7996 -1.3016
  894MOL0     H20687   6.696   7.831   2.064 -4.6786  2.8926  2.1415
  894MOL0     H20688   6.393   7.845   2.232  0.6329  0.1097 -0.3978
  894MOL0     H20689   6.550   7.939   2.194 -0.5956  1.0396 -2.6686
  894MOL0     H20690   6.399   7.982   2.126  0.0481  0.4097  0.4096
  895MOL0     O20691   8.756   0.671   4.312  0.4916 -0.1192 -0.9012
  895MOL0     C20692   8.847   0.596   4.273 -0.0124 -0.0689 -0.2245
  895MOL0     O20693   8.887   0.480   4.340 -0.2331  0.4356 -0.4558
  895MOL0     C20694   8.797   0.439   4.428 -0.1320 -0.4969 -0.1880
  895MOL0     C20695   8.831   0.453   4.563  0.3151  0.0224 -0.4134
  895MOL0     C20696   8.741   0.404   4.656 -0.1981  0.5616  0.5899
  895MOL0     C20697   8.632   0.322   4.618 -0.8859  0.7319 -0.4851
  895MOL0     O20698   8.560   0.277   4.725  0.4387  0.1386  0.4311
  895MOL0     C20699   8.418   0.305   4.731  0.2778 -0.0344  0.4414
  895MOL0     C20700   8.362   0.257   4.862  0.4543 -0.4659 -0.0330
  895MOL0     C20701   8.226   0.326   4.891 -0.6197 -0.8763 -0.2959
  895MOL0     C20702   8.238   0.470   4.971 -0.6852 -0.0647 -0.0204
  895MOL0     C20703   8.209   0.455   5.121 -0.8054 -0.5111  0.0112
  895MOL0     C20704   8.326   0.386   5.193  0.1395 -0.3438  0.3229
  895MOL0     C20705   8.305   0.351   5.342  0.0304  0.6084  0.4838
  895MOL0     C20706   8.429   0.272   5.402 -0.0757 -0.2302 -0.0167
  895MOL0     N20707   8.508   0.211   5.298 -0.3043  0.6938 -0.9341
  895MOL0     C20708   8.630   0.259   5.256 -0.2332 -0.6715 -0.5280
  895MOL0     C20709   8.668   0.179   5.149  0.6625  0.0197 -0.2708
  895MOL0     C20710   8.790   0.188   5.072  0.3217 -0.2148  0.1718
  895MOL0     C20711   8.921   0.208   5.154  0.5810  0.2428  0.9086
  895MOL0     C20712   9.042   0.227   5.061  0.0835  0.3696  0.0198
  895MOL0     C20713   9.172   0.243   5.154  0.4056 -0.1897  1.0643
  895MOL0     O20714   9.227   0.127   5.200 -0.1431 -0.0798  0.4061
  895MOL0     C20715   9.294   0.031   5.134  0.4770 -0.3869 -0.2789
  895MOL0     C20716   9.325   0.029   5.002 -0.5836 -0.8990 -0.8310
  895MOL0     C20717   9.388  -0.081   4.933 -0.0733 -0.2074 -0.6406
  895MOL0     C20718   9.419  -0.194   5.015 -0.2156  0.9535  0.0272
  895MOL0     C20719   9.464  -0.323   4.969 -0.4515  0.4232 -0.1577
  895MOL0     O20720   9.447  -0.429   5.048 -0.4130 -0.4693 -0.4725
  895MOL0     C20721   9.476  -0.560   5.032  0.0968 -0.5934  0.0636
  895MOL0     C20722   9.505  -0.632   5.149  0.3605 -0.0474  0.2905
  895MOL0     C20723   9.551  -0.767   5.146  0.2452 -0.1444  0.0452
  895MOL0     C20724   9.590  -0.823   5.023  0.7620 -0.1675 -0.3984
  895MOL0     O20725   9.634  -0.948   5.007 -0.1843  0.6623 -0.9275
  895MOL0     C20726   9.670  -1.036   5.128 -0.1742 -0.5586 -0.0544
  895MOL0     C20727   9.724  -1.167   5.058  0.0259  0.6292 -0.2341
  895MOL0     C20728   9.753  -1.280   5.159 -0.5448 -0.4878  0.6736
  895MOL0     C20729   9.858  -1.386   5.105  0.2621 -0.1679  0.7300
  895MOL0     C20730   9.878  -1.508   5.192  0.3932 -0.7576 -0.6541
  895MOL0     C20731   9.744  -1.576   5.215  0.3288  0.3302 -0.3905
  895MOL0     C20732   9.759  -1.716   5.284  0.3614  0.3534 -0.7013
  895MOL0     C20733   9.818  -1.715   5.425 -0.6043 -0.6284  1.0589
  895MOL0    Cl20734   9.729  -1.642   5.551 -0.0581  0.0619  0.4575
  895MOL0     C20735   9.584  -0.746   4.911 -0.9210 -0.4968 -0.3772
  895MOL0     C20736   9.521  -0.623   4.915 -0.8539 -0.0606 -0.5282
  895MOL0     O20737   9.522  -0.327   4.861 -0.0893 -0.6481  0.7549
  895MOL0     C20738   9.401  -0.180   5.153 -0.2333  0.1803 -0.6169
  895MOL0     C20739   9.338  -0.069   5.209 -0.2678 -1.0662  0.6034
  895MOL0     N20740   8.572   0.082   5.135  0.1328  0.6400 -0.0545
  895MOL0     N20741   8.479   0.096   5.224  0.6301 -0.8717 -0.6044
  895MOL0     C20742   8.602   0.309   4.484  0.4587  0.0677  0.0805
  895MOL0     C20743   8.691   0.364   4.385 -0.1710  0.5071  0.1232
  895MOL0     C20744   8.922   0.642   4.150  0.0784  0.6206  0.3715
  895MOL0     C20745   8.877   0.747   4.071  0.2191  0.9871  0.0642
  895MOL0     C20746   8.932   0.785   3.948  0.2304  0.7895  0.1731
  895MOL0     C20747   9.053   0.739   3.910 -0.1934  0.5630  0.4998
  895MOL0     O20748   9.104   0.792   3.803 -0.3437  0.6490  0.1851
  895MOL0     C20749   9.241   0.813   3.812 -0.8200  0.2474 -0.2378
  895MOL0     C20750   9.289   0.861   3.670  0.3798 -0.4640  0.1363
  895MOL0     C20751   9.392   0.978   3.672 -0.3843  0.3187 -0.3250
  895MOL0     C20752   9.401   1.069   3.545  1.3225 -0.1278  0.4086
  895MOL0     C20753   9.440   0.989   3.431 -0.4251 -0.0888  0.4488
  895MOL0     C20754   9.475   0.920   3.337  0.1229 -0.4633  1.1018
  895MOL0     C20755   9.115   0.632   3.987  0.3160 -0.5798  0.6758
  895MOL0     C20756   9.047   0.583   4.102 -0.5092 -0.1368 -0.1292
  895MOL0     C20757   9.115   0.465   4.160 -0.5901  0.5551  0.7510
  895MOL0     H20758   8.911   0.515   4.602 -0.8350  0.1659  1.8974
  895MOL0     H20759   8.742   0.435   4.760 -1.5870 -0.5513  0.9615
  895MOL0     H20760   8.407   0.413   4.718 -1.7372 -0.2271  0.2360
  895MOL0     H20761   8.364   0.259   4.647 -0.4703  1.9834 -0.2351
  895MOL0     H20762   8.425   0.292   4.944  1.0355 -0.1964 -0.5902
  895MOL0     H20763   8.348   0.148   4.863  1.6761 -0.6681  2.0527
  895MOL0     H20764   8.163   0.254   4.944  1.6542 -3.0006 -0.3419
  895MOL0     H20765   8.177   0.340   4.794 -1.5311  0.3005  0.3026
  895MOL0     H20766   8.330   0.523   4.943 -1.1513  0.5033 -0.4903
  895MOL0     H20767   8.163   0.536   4.927  1.4799  1.9303 -0.9351
  895MOL0     H20768   8.208   0.557   5.161  0.6757  0.0795 -1.3610
  895MOL0     H20769   8.111   0.410   5.140  0.1156 -1.2707  3.8702
  895MOL0     H20770   8.334   0.296   5.132  4.0405 -0.8822  1.3456
  895MOL0     H20771   8.414   0.445   5.165  0.7040 -0.8522  1.0007
  895MOL0     H20772   8.224   0.278   5.344  1.2024 -0.7237  1.9124
  895MOL0     H20773   8.295   0.434   5.413  3.3838  1.1752  0.4834
  895MOL0     H20774   8.500   0.346   5.442  0.5853 -1.2881  0.8229
  895MOL0     H20775   8.409   0.202   5.484  1.1049 -0.3128  0.2225
  895MOL0     H20776   8.693   0.343   5.284 -0.1592 -0.1019 -2.2700
  895MOL0     H20777   8.798   0.108   4.997 -1.2466 -1.1149  0.9214
  895MOL0     H20778   8.785   0.287   5.026  2.1186  0.7808  1.9772
  895MOL0     H20779   8.909   0.296   5.219 -2.1490  1.4425 -1.0052
  895MOL0     H20780   8.932   0.122   5.221  2.3844 -0.6474 -0.4563
  895MOL0     H20781   9.033   0.318   5.001  3.5626  2.7472  2.6405
  895MOL0     H20782   9.058   0.140   4.997  2.3860  0.2193  0.7220
  895MOL0     H20783   9.150   0.305   5.241 -1.7729 -2.2199  2.0456
  895MOL0     H20784   9.237   0.300   5.087 -0.1380  0.9354  1.4813
  895MOL0     H20785   9.298   0.109   4.933 -0.2976  0.1900  0.2918
  895MOL0     H20786   9.390  -0.078   4.825 -3.3515  2.9276 -0.8198
  895MOL0     H20787   9.496  -0.590   5.249  2.8939 -3.7234  2.3158
  895MOL0     H20788   9.567  -0.826   5.236 -5.4265 -0.2114  1.3597
  895MOL0     H20789   9.745  -0.992   5.194  0.8460 -2.3283  0.0407
  895MOL0     H20790   9.583  -1.077   5.181 -0.2331 -2.6562 -1.6256
  895MOL0     H20791   9.656  -1.198   4.977 -1.5983  1.6893  0.6593
  895MOL0     H20792   9.815  -1.134   5.008  0.7331 -0.3375  0.3785
  895MOL0     H20793   9.804  -1.229   5.241 -0.8344  0.4326  0.2921
  895MOL0     H20794   9.655  -1.321   5.185 -0.0346 -1.8827  0.4509
  895MOL0     H20795   9.948  -1.325   5.095 -1.1090  1.7483 -0.5538
  895MOL0     H20796   9.822  -1.414   5.006  1.0157 -0.0078  0.4092
  895MOL0     H20797   9.925  -1.458   5.276 -1.8073  2.0456 -0.9215
  895MOL0     H20798   9.958  -1.571   5.153  1.4417  0.6562 -0.8742
  895MOL0     H20799   9.681  -1.520   5.284 -1.6064 -0.1421 -1.6875
  895MOL0     H20800   9.677  -1.595   5.130 -1.3016 -0.8848  1.0841
  895MOL0     H20801   9.802  -1.778   5.205  0.1575 -0.7524  0.0345
  895MOL0     H20802   9.656  -1.749   5.298  0.6671 -1.7502 -2.8753
  895MOL0     H20803   9.846  -1.816   5.455  3.3782 -0.4186 -1.2563
  895MOL0     H20804   9.913  -1.662   5.414 -1.7436  1.2382 -0.7635
  895MOL0     H20805   9.630  -0.795   4.826 -1.0784 -0.9724 -0.1910
  895MOL0     H20806   9.513  -0.564   4.823  0.2881  3.1515  1.2649
  895MOL0     H20807   9.414  -0.262   5.223 -2.1202 -1.4933 -2.0909
  895MOL0     H20808   9.319  -0.070   5.316  5.0263  2.8996  2.0000
  895MOL0     H20809   8.510   0.259   4.453 -0.0575  1.0073  0.0699
  895MOL0     H20810   8.658   0.360   4.281  1.4983 -2.5917 -0.4135
  895MOL0     H20811   8.782   0.784   4.108 -1.1266  2.2286 -4.0089
  895MOL0     H20812   8.875   0.858   3.891 -3.1566 -2.5215 -1.1071
  895MOL0     H20813   9.303   0.728   3.842 -0.4619  1.2097  1.9618
  895MOL0     H20814   9.254   0.896   3.881 -0.5639 -0.3207  0.4049
  895MOL0     H20815   9.203   0.892   3.610  0.5533 -2.6099 -1.3463
  895MOL0     H20816   9.327   0.783   3.603  1.3902 -0.0627  0.2190
  895MOL0     H20817   9.491   0.931   3.681 -0.6555 -0.2737 -0.3856
  895MOL0     H20818   9.369   1.047   3.754 -0.8010 -1.9356  1.5452
  895MOL0     H20819   9.302   1.108   3.520 -0.2243 -3.0188  1.5787
  895MOL0     H20820   9.474   1.150   3.558  1.0458  0.5383 -1.7372
  895MOL0     H20821   9.503   0.872   3.245  3.1227  0.9903  1.1474
  895MOL0     H20822   9.195   0.577   3.938 -3.1063 -2.1639 -3.7446
  895MOL0     H20823   9.190   0.429   4.089  0.6027  1.5672  1.4601
  895MOL0     H20824   9.154   0.488   4.259  0.0080  1.6234  0.2917
  895MOL0     H20825   9.048   0.379   4.169 -0.4023  0.5532  2.3558
  896MOL0     O20826   1.896   5.132   0.079  0.3702 -0.2716  0.1459
  896MOL0     C20827   1.936   5.200  -0.013 -0.0453  0.0990  0.1024
  896MOL0     O20828   1.867   5.235  -0.120 -0.3181 -1.3323 -0.3712
  896MOL0     C20829   1.737   5.229  -0.119  0.7469  0.5158 -0.3328
  896MOL0     C20830   1.676   5.353  -0.081  0.4736 -0.1416  0.8790
  896MOL0     C20831   1.534   5.354  -0.087  0.7378  0.5279 -0.3131
  896MOL0     C20832   1.455   5.233  -0.102 -0.8838 -0.5475 -0.4449
  896MOL0     O20833   1.325   5.234  -0.105 -0.1689 -0.5779  0.1748
  896MOL0     C20834   1.255   5.345  -0.152 -1.4545  1.3085  0.3353
  896MOL0     C20835   1.114   5.301  -0.183  0.5204  0.2629  0.8384
  896MOL0     C20836   1.096   5.216  -0.320 -0.0243 -1.4504  0.2319
  896MOL0     C20837   0.966   5.136  -0.331  0.3994  0.5280 -0.1853
  896MOL0     C20838   0.965   5.047  -0.457 -0.4823  1.3764  0.2734
  896MOL0     C20839   1.082   4.944  -0.458 -0.0524  0.1575 -0.5302
  896MOL0     C20840   1.071   4.842  -0.570 -0.4904  0.0652 -0.6152
  896MOL0     C20841   1.148   4.871  -0.701  0.7922  0.1028 -0.7700
  896MOL0     N20842   1.128   4.767  -0.803 -0.3934 -0.8028  0.0727
  896MOL0     C20843   1.042   4.779  -0.914 -0.0519 -0.0842  0.1220
  896MOL0     C20844   1.072   4.665  -0.984 -0.5682 -0.0576  0.0908
  896MOL0     C20845   0.991   4.616  -1.107  0.3217 -0.9890 -0.5257
  896MOL0     C20846   0.887   4.513  -1.071 -0.1851  0.0806  0.8020
  896MOL0     C20847   0.808   4.540  -0.944  0.0118 -0.2438 -0.0160
  896MOL0     C20848   0.850   4.452  -0.822  1.1280 -0.7127 -0.1399
  896MOL0     O20849   0.753   4.485  -0.725 -0.1136 -0.4204  0.3728
  896MOL0     C20850   0.786   4.548  -0.607  0.5103  0.5676  0.1253
  896MOL0     C20851   0.677   4.615  -0.545 -0.0374 -0.0495 -1.0491
  896MOL0     C20852   0.685   4.673  -0.415 -0.6602  0.1215 -0.5779
  896MOL0     C20853   0.809   4.659  -0.353 -0.3078  0.0154  0.4868
  896MOL0     C20854   0.829   4.718  -0.218 -0.5208 -0.1993  0.4043
  896MOL0     O20855   0.953   4.747  -0.171 -0.4428  0.9817 -0.0077
  896MOL0     C20856   0.948   4.763  -0.034  0.5396 -0.0703 -0.2258
  896MOL0     C20857   0.913   4.884   0.017  0.3355 -0.3883  0.2285
  896MOL0     C20858   0.928   4.918   0.149  0.1552 -0.8300  0.8181
  896MOL0     C20859   0.983   4.826   0.231  0.8988 -0.3567  0.0401
  896MOL0     O20860   1.015   4.856   0.367 -1.0739 -0.5062  0.6383
  896MOL0     C20861   0.950   4.788   0.481 -0.0400  0.3198  0.0408
  896MOL0     C20862   0.998   4.871   0.600 -0.5104 -0.1212 -0.2096
  896MOL0     C20863   1.154   4.868   0.603 -0.9165  1.5776 -1.0974
  896MOL0     C20864   1.200   4.772   0.709  0.8431 -0.0569 -0.0060
  896MOL0     C20865   1.346   4.734   0.722  0.7115 -0.3786 -0.0799
  896MOL0     C20866   1.446   4.852   0.752 -0.5300  0.0767 -0.3604
  896MOL0     C20867   1.586   4.800   0.770  0.0029  0.1049 -0.4908
  896MOL0     C20868   1.683   4.906   0.776 -0.7417 -0.2444 -0.0387
  896MOL0    Cl20869   1.656   5.007   0.914 -0.2174 -0.3945  0.2568
  896MOL0     C20870   1.020   4.698   0.178 -0.2756 -0.3796 -0.5933
  896MOL0     C20871   0.999   4.666   0.047  0.0279 -0.0117 -0.0064
  896MOL0     O20872   0.724   4.720  -0.154 -0.2317  1.0701  0.8806
  896MOL0     C20873   0.918   4.597  -0.415 -0.7856 -0.1256  0.0096
  896MOL0     C20874   0.904   4.541  -0.540 -0.0045  0.2608 -0.6082
  896MOL0     N20875   1.151   4.579  -0.898  0.1358  0.4886  0.2938
  896MOL0     N20876   1.177   4.641  -0.783  0.0675  0.0321 -0.0174
  896MOL0     C20877   1.527   5.114  -0.122 -0.1765  0.0264  0.0253
  896MOL0     C20878   1.669   5.112  -0.129  0.2595  0.0944  0.6771
  896MOL0     C20879   2.075   5.242   0.007  1.2430 -0.7681  0.0579
  896MOL0     C20880   2.079   5.382  -0.019  0.1166 -0.8413 -0.5149
  896MOL0     C20881   2.209   5.438  -0.000  0.5693 -0.0031  0.6812
  896MOL0     C20882   2.316   5.360   0.029 -0.1626 -0.3520  0.2841
  896MOL0     O20883   2.440   5.420   0.046  0.2353 -0.0710 -0.7834
  896MOL0     C20884   2.456   5.557   0.077 -0.2091 -0.6553  0.0197
  896MOL0     C20885   2.424   5.579   0.228 -1.1400  0.2286  0.0619
  896MOL0     C20886   2.519   5.498   0.324  0.5544 -0.5697 -0.2349
  896MOL0     C20887   2.644   5.578   0.375 -0.7025  1.0516 -0.4632
  896MOL0     C20888   2.740   5.480   0.429  0.1497 -0.1557  0.3555
  896MOL0     C20889   2.814   5.381   0.437  0.0166 -0.5270 -0.0187
  896MOL0     C20890   2.306   5.226   0.052  0.1014  1.1913  0.2541
  896MOL0     C20891   2.185   5.162   0.044 -0.0251 -0.1432  1.3863
  896MOL0     C20892   2.182   5.013   0.070 -0.4348  0.0870  0.0936
  896MOL0     H20893   1.731   5.445  -0.068  2.5087 -1.2182  0.2760
  896MOL0     H20894   1.493   5.455  -0.084  3.2527  1.6839 -1.7264
  896MOL0     H20895   1.257   5.432  -0.085 -1.6842  0.3518  1.6112
  896MOL0     H20896   1.307   5.375  -0.243  0.8425 -2.8670  0.0351
  896MOL0     H20897   1.057   5.394  -0.189  2.9476  1.7522 -3.4287
  896MOL0     H20898   1.076   5.242  -0.099  2.1832 -0.5898  1.0361
  896MOL0     H20899   1.186   5.154  -0.328  1.6532  0.4921  2.5210
  896MOL0     H20900   1.102   5.278  -0.410  4.2017  1.0775  1.9432
  896MOL0     H20901   0.942   5.082  -0.239  3.8187 -0.0512  0.5036
  896MOL0     H20902   0.884   5.206  -0.351  1.2758  1.4888 -0.5384
  896MOL0     H20903   0.872   4.991  -0.459 -0.3344  1.1311  0.2395
  896MOL0     H20904   0.975   5.108  -0.548  4.6589 -2.2867 -2.1173
  896MOL0     H20905   1.180   4.991  -0.465  0.1736  0.3656  2.4794
  896MOL0     H20906   1.083   4.883  -0.367 -2.1876 -2.6005 -2.1761
  896MOL0     H20907   0.967   4.816  -0.593 -0.3575 -0.9652 -0.0933
  896MOL0     H20908   1.111   4.747  -0.534  1.7165 -0.5435 -4.1371
  896MOL0     H20909   1.108   4.969  -0.732 -0.8281 -0.4938 -0.6641
  896MOL0     H20910   1.255   4.874  -0.677  0.2250 -1.7858  2.4097
  896MOL0     H20911   0.985   4.864  -0.950 -0.1317  0.0008  0.4431
  896MOL0     H20912   0.957   4.709  -1.153  1.0234  0.6301  2.0089
  896MOL0     H20913   1.043   4.557  -1.182 -0.1280  0.4975 -2.0632
  896MOL0     H20914   0.817   4.519  -1.155  0.8387  0.7884 -0.0330
  896MOL0     H20915   0.934   4.417  -1.049 -0.1724  0.1171  0.9366
  896MOL0     H20916   0.706   4.521  -0.977 -0.0845 -1.3597  0.8423
  896MOL0     H20917   0.810   4.644  -0.912 -1.3025 -1.0160  3.0546
  896MOL0     H20918   0.954   4.474  -0.795  1.0046  4.2064 -2.5619
  896MOL0     H20919   0.838   4.347  -0.851 -1.4264 -0.3696 -0.5631
  896MOL0     H20920   0.574   4.625  -0.579 -1.4057 -0.6540  2.4350
  896MOL0     H20921   0.600   4.732  -0.381 -1.9486 -1.8659 -0.2180
  896MOL0     H20922   0.883   4.959  -0.056 -0.3214 -0.9391 -0.0800
  896MOL0     H20923   0.910   5.015   0.194 -0.8944 -0.8334  0.4462
  896MOL0     H20924   0.841   4.797   0.476 -0.1249 -0.9373 -0.8759
  896MOL0     H20925   0.979   4.683   0.491  0.8529  0.0705 -3.6982
  896MOL0     H20926   0.966   4.975   0.583 -1.7888 -0.0746  2.0134
  896MOL0     H20927   0.964   4.840   0.699  0.4868 -0.3575  0.0680
  896MOL0     H20928   1.191   4.837   0.504 -0.4010  1.7061 -0.9506
  896MOL0     H20929   1.195   4.967   0.625  0.7421  1.5551 -3.6516
  896MOL0     H20930   1.144   4.680   0.690 -1.1667  0.8873  0.9750
  896MOL0     H20931   1.158   4.812   0.802 -3.3761  1.2257 -2.2164
  896MOL0     H20932   1.381   4.692   0.628  0.7305  1.7329 -1.0775
  896MOL0     H20933   1.354   4.656   0.798 -0.6649  0.9690  1.5433
  896MOL0     H20934   1.427   4.915   0.665 -1.8131 -2.4631 -2.0346
  896MOL0     H20935   1.418   4.909   0.842  1.3700  3.0452 -1.4876
  896MOL0     H20936   1.625   4.742   0.686  1.4815 -0.5875  0.6186
  896MOL0     H20937   1.590   4.742   0.863  0.0835  2.5138  1.0783
  896MOL0     H20938   1.776   4.849   0.782 -2.7031 -3.7508 -0.0547
  896MOL0     H20939   1.675   4.963   0.684  3.0533  0.7812  0.1023
  896MOL0     H20940   1.080   4.638   0.245  1.1972  2.9489  1.3535
  896MOL0     H20941   1.027   4.564   0.024 -1.0792 -0.3821  0.2269
  896MOL0     H20942   1.018   4.607  -0.373  0.4911  0.8589 -2.9964
  896MOL0     H20943   0.984   4.493  -0.596 -1.5714 -0.7894 -2.0143
  896MOL0     H20944   1.474   5.021  -0.141 -2.9904  1.6586 -0.6995
  896MOL0     H20945   1.726   5.023  -0.151  0.3627  0.8040 -2.4277
  896MOL0     H20946   1.996   5.443  -0.054  0.6577  0.2366  0.0197
  896MOL0     H20947   2.215   5.546  -0.009 -0.1920  0.1795  2.0780
  896MOL0     H20948   2.388   5.625   0.026  0.6310  0.1027 -0.1175
  896MOL0     H20949   2.557   5.592   0.053 -0.5261  0.5300  0.3666
  896MOL0     H20950   2.320   5.560   0.253 -1.9359  0.1227 -2.9144
  896MOL0     H20951   2.423   5.685   0.256 -3.1088  0.2424  0.0705
  896MOL0     H20952   2.559   5.412   0.270 -0.0003 -1.4491  0.7136
  896MOL0     H20953   2.454   5.468   0.407  3.1808 -1.8774  1.4878
  896MOL0     H20954   2.692   5.629   0.291  0.4083  1.8396  0.6065
  896MOL0     H20955   2.619   5.648   0.456 -1.9566 -2.5105  2.5298
  896MOL0     H20956   2.883   5.299   0.433  2.2768  1.2677  0.0305
  896MOL0     H20957   2.397   5.173   0.075  0.3843  1.5556 -0.0053
  896MOL0     H20958   2.249   4.972  -0.006 -0.3078 -0.9068  0.7281
  896MOL0     H20959   2.227   4.989   0.166 -0.8890 -0.2100  0.2326
  896MOL0     H20960   2.083   4.967   0.065  0.4025 -1.7393 -0.2676
  897MOL0     O20961   7.796   3.306   2.808 -0.8512 -0.1614  0.3846
  897MOL0     C20962   7.691   3.371   2.819 -1.0430  0.0192 -0.3347
  897MOL0     O20963   7.614   3.424   2.710  0.8757  0.0137 -0.5980
  897MOL0     C20964   7.633   3.393   2.582  0.6378  0.5744  1.2183
  897MOL0     C20965   7.532   3.332   2.501 -0.4895  0.0658  0.1979
  897MOL0     C20966   7.546   3.292   2.370 -0.2873 -0.0410  0.4503
  897MOL0     C20967   7.668   3.317   2.306  0.0558  0.6989 -1.6351
  897MOL0     O20968   7.682   3.286   2.174 -0.6383  0.0254 -0.0898
  897MOL0     C20969   7.814   3.270   2.119 -0.1726  0.4902 -0.1515
  897MOL0     C20970   7.791   3.210   1.974  0.4766  0.4152  0.8009
  897MOL0     C20971   7.722   3.071   1.982  0.1277 -0.5511 -1.0989
  897MOL0     C20972   7.837   2.976   2.005 -0.0909 -0.3161  0.7109
  897MOL0     C20973   7.798   2.823   1.988 -0.1302  0.3188 -0.0572
  897MOL0     C20974   7.687   2.788   2.085 -0.6188 -0.1029  0.6188
  897MOL0     C20975   7.670   2.633   2.092  0.4099  0.8232  0.2689
  897MOL0     C20976   7.599   2.573   2.225 -0.6345 -1.1673  0.1970
  897MOL0     N20977   7.700   2.564   2.344 -0.6453 -0.2765  0.5851
  897MOL0     C20978   7.829   2.608   2.355  0.0947 -0.1251  0.3816
  897MOL0     C20979   7.878   2.552   2.468  0.1614  0.8956 -0.5716
  897MOL0     C20980   8.021   2.576   2.520  0.0433 -1.8781  0.3896
  897MOL0     C20981   8.116   2.460   2.494  1.1201  0.1032  0.2841
  897MOL0     C20982   8.185   2.477   2.357 -0.1476  0.8091  0.2324
  897MOL0     C20983   8.314   2.555   2.354 -0.5870  0.4800 -0.7359
  897MOL0     O20984   8.395   2.518   2.465  0.1597 -0.6815 -0.2962
  897MOL0     C20985   8.519   2.581   2.469 -0.2380 -0.2443 -0.0148
  897MOL0     C20986   8.612   2.541   2.379 -0.7461  0.1963 -0.6527
  897MOL0     C20987   8.743   2.605   2.375  0.6898  0.0154 -0.0379
  897MOL0     C20988   8.764   2.717   2.464 -0.0672 -0.2656  0.5872
  897MOL0     C20989   8.914   2.753   2.483  0.4363 -0.0275 -0.5786
  897MOL0     O20990   9.009   2.667   2.434 -0.8142  0.1123  0.7491
  897MOL0     C20991   9.147   2.677   2.456 -0.1494 -0.0895 -1.7574
  897MOL0     C20992   9.186   2.690   2.593  0.4549  0.8203  0.7510
  897MOL0     C20993   9.310   2.712   2.624 -0.1113 -0.8391 -0.6888
  897MOL0     C20994   9.415   2.713   2.527  0.7353 -0.7621 -1.0472
  897MOL0     O20995   9.553   2.725   2.554 -0.5377  0.0824 -0.0936
  897MOL0     C20996   9.602   2.825   2.643 -1.1167  0.5636 -0.2606
  897MOL0     C20997   9.667   2.753   2.767 -0.2486  0.3606  0.5418
  897MOL0     C20998   9.713   2.866   2.867  0.3943 -0.2242 -0.1434
  897MOL0     C20999   9.782   2.814   2.992  0.4567  0.5694  0.7583
  897MOL0     C21000   9.918   2.748   2.972  0.0638 -0.0018 -0.3072
  897MOL0     C21001   9.912   2.593   2.990  0.8032 -0.5237 -0.0274
  897MOL0     C21002  10.056   2.535   3.022  0.0815  0.2207  0.3644
  897MOL0     C21003  10.043   2.399   3.080 -0.2755  0.2309 -1.5142
  897MOL0    Cl21004  10.196   2.331   3.099  0.1482  0.0992 -0.2305
  897MOL0     C21005   9.377   2.693   2.393 -0.1018 -0.0027 -0.3945
  897MOL0     C21006   9.244   2.675   2.359  0.8799  0.0704 -1.5662
  897MOL0     O21007   8.946   2.849   2.554  0.4032  0.2153 -0.0713
  897MOL0     C21008   8.655   2.773   2.529 -0.6673 -0.1140 -0.1878
  897MOL0     C21009   8.535   2.704   2.534 -1.0182  0.5145 -0.4672
  897MOL0     N21010   7.778   2.477   2.532 -0.4295 -0.1051  0.4530
  897MOL0     N21011   7.676   2.484   2.451 -0.0880  0.0774  0.4512
  897MOL0     C21012   7.774   3.372   2.386  0.2667 -0.3664  0.0969
  897MOL0     C21013   7.760   3.411   2.519  0.7119 -0.6433 -0.0085
  897MOL0     C21014   7.632   3.383   2.960  0.2729  0.3369  0.4548
  897MOL0     C21015   7.497   3.420   2.972 -0.0140  0.0105 -0.2429
  897MOL0     C21016   7.432   3.412   3.095 -0.0822  0.0076 -1.1804
  897MOL0     C21017   7.499   3.402   3.220 -0.1837 -0.1748  0.0871
  897MOL0     O21018   7.420   3.401   3.330 -0.5106 -0.1505 -0.4756
  897MOL0     C21019   7.473   3.389   3.459 -0.0742 -0.2102  0.2012
  897MOL0     C21020   7.537   3.261   3.501  0.2271  0.2960 -0.0954
  897MOL0     C21021   7.431   3.147   3.522 -0.5009 -0.4224 -0.4622
  897MOL0     C21022   7.481   3.023   3.610 -0.8541 -1.1487  0.8324
  897MOL0     C21023   7.598   2.957   3.542 -0.9631 -0.5684 -0.1940
  897MOL0     C21024   7.689   2.894   3.484 -0.3386 -0.1710  0.1400
  897MOL0     C21025   7.642   3.378   3.210 -0.0069  0.6484  0.0677
  897MOL0     C21026   7.711   3.370   3.088  0.9810 -0.4493  0.7697
  897MOL0     C21027   7.858   3.325   3.080 -0.2705 -0.0397  0.0426
  897MOL0     H21028   7.433   3.318   2.543 -1.5828  0.5208 -2.0795
  897MOL0     H21029   7.468   3.236   2.318  1.3085  0.3096 -2.5584
  897MOL0     H21030   7.859   3.369   2.104  0.3446  0.5963  1.8367
  897MOL0     H21031   7.872   3.208   2.189 -0.1934 -1.4065 -1.7363
  897MOL0     H21032   7.888   3.196   1.926 -0.0421  0.7537 -0.3892
  897MOL0     H21033   7.728   3.288   1.931  0.3074 -0.2334 -0.1708
  897MOL0     H21034   7.685   3.061   1.879  2.8967  0.0161 -2.2458
  897MOL0     H21035   7.651   3.074   2.065  1.7082  3.0834  0.3409
  897MOL0     H21036   7.908   2.978   1.922 -2.0065  3.9377 -1.0891
  897MOL0     H21037   7.891   2.988   2.099  3.3503  0.0900 -1.1354
  897MOL0     H21038   7.774   2.799   1.884 -1.9548  1.1347  0.1334
  897MOL0     H21039   7.892   2.771   2.009 -0.6546  0.5078  3.3563
  897MOL0     H21040   7.718   2.835   2.179  0.8556  0.5170 -0.1287
  897MOL0     H21041   7.603   2.846   2.046  2.3528  2.6511 -2.3084
  897MOL0     H21042   7.766   2.582   2.085  0.7649  1.4499  0.4902
  897MOL0     H21043   7.603   2.604   2.010 -2.0246 -0.3913  2.5316
  897MOL0     H21044   7.511   2.631   2.252  0.9539  2.0214 -1.0036
  897MOL0     H21045   7.563   2.475   2.191 -0.2907 -1.7104  1.3456
  897MOL0     H21046   7.874   2.674   2.282 -2.0192  2.4959  1.2984
  897MOL0     H21047   8.062   2.668   2.475 -0.0406 -2.0639 -0.0727
  897MOL0     H21048   8.011   2.593   2.628  0.3931  0.9281  0.0663
  897MOL0     H21049   8.191   2.462   2.574  2.3603 -0.9954 -0.8040
  897MOL0     H21050   8.072   2.361   2.505  0.6243 -0.2420 -3.4044
  897MOL0     H21051   8.123   2.523   2.279 -0.5722 -0.7306 -0.3839
  897MOL0     H21052   8.210   2.380   2.311  1.5908  0.6895  1.3468
  897MOL0     H21053   8.285   2.660   2.351  2.1688  1.3071 -0.7566
  897MOL0     H21054   8.368   2.545   2.259 -0.3253  1.9124 -0.7482
  897MOL0     H21055   8.595   2.445   2.332 -0.3241 -0.6526  0.8539
  897MOL0     H21056   8.819   2.560   2.313  0.9045 -3.0207  2.1965
  897MOL0     H21057   9.109   2.682   2.670 -3.4757 -1.8450 -2.9680
  897MOL0     H21058   9.336   2.735   2.727  3.0338  0.1226 -1.5755
  897MOL0     H21059   9.679   2.881   2.589  1.6617 -1.5996  1.2036
  897MOL0     H21060   9.534   2.903   2.678  1.5508  1.4772  3.5570
  897MOL0     H21061   9.586   2.690   2.807  1.4720  0.2611  4.3325
  897MOL0     H21062   9.747   2.687   2.733 -1.7687 -1.1804 -0.2460
  897MOL0     H21063   9.784   2.928   2.812  0.0691  2.1531  1.9348
  897MOL0     H21064   9.630   2.921   2.912  0.0025 -1.3709  0.5779
  897MOL0     H21065   9.717   2.746   3.049  0.0613 -1.1513 -1.6227
  897MOL0     H21066   9.801   2.900   3.058  1.5601  1.0412 -0.1525
  897MOL0     H21067   9.971   2.795   3.055 -2.3203 -0.4518  1.5809
  897MOL0     H21068   9.969   2.775   2.879  1.3973 -0.8285  0.1476
  897MOL0     H21069   9.843   2.575   3.073  0.2619  1.2983 -0.0518
  897MOL0     H21070   9.876   2.552   2.895 -0.3474  3.7109 -1.6597
  897MOL0     H21071  10.109   2.595   3.096 -0.0989  1.1860 -0.2754
  897MOL0     H21072  10.127   2.527   2.940 -0.8344  1.6223 -0.5974
  897MOL0     H21073   9.996   2.415   3.177  0.5687 -2.5861 -0.5554
  897MOL0     H21074   9.976   2.334   3.023  0.0910  1.1188 -3.0317
  897MOL0     H21075   9.451   2.714   2.317 -0.5068  1.4392 -0.4233
  897MOL0     H21076   9.223   2.680   2.253  0.2493  1.2978 -1.4104
  897MOL0     H21077   8.666   2.872   2.572 -1.2553  0.3359 -1.0489
  897MOL0     H21078   8.462   2.733   2.610 -0.2268  1.4596 -0.0518
  897MOL0     H21079   7.868   3.413   2.351  0.0984  0.0865  0.1669
  897MOL0     H21080   7.841   3.449   2.581 -1.9506  1.0654  2.6714
  897MOL0     H21081   7.433   3.455   2.891 -0.6843 -1.4092 -0.3760
  897MOL0     H21082   7.325   3.428   3.095  0.2114  2.9715  1.7413
  897MOL0     H21083   7.393   3.417   3.528  0.2614  0.6831  0.2375
  897MOL0     H21084   7.553   3.464   3.464  1.7277 -1.7443 -2.7883
  897MOL0     H21085   7.591   3.269   3.596  2.7596 -1.8682 -1.2196
  897MOL0     H21086   7.607   3.233   3.421 -0.5243  1.2910 -1.1414
  897MOL0     H21087   7.406   3.107   3.424 -1.7216 -0.4914 -0.1378
  897MOL0     H21088   7.335   3.187   3.557 -2.1582 -3.0174 -1.6985
  897MOL0     H21089   7.508   3.054   3.711 -1.1990 -0.1327  0.6224
  897MOL0     H21090   7.403   2.947   3.619  0.0278 -1.9299  2.2827
  897MOL0     H21091   7.769   2.839   3.438 -1.4676 -1.4768 -0.3008
  897MOL0     H21092   7.706   3.364   3.296  0.6300 -1.6931 -0.7198
  897MOL0     H21093   7.888   3.239   3.020  1.6708  0.4583  0.2209
  897MOL0     H21094   7.916   3.409   3.041 -1.3259  0.8585  0.3645
  897MOL0     H21095   7.917   3.314   3.172  0.4010  0.3821 -0.3318
  898MOL0     O21096   4.331   7.135   5.116  0.0453  1.1271 -0.8174
  898MOL0     C21097   4.223   7.183   5.136 -0.0100 -0.9730  0.2051
  898MOL0     O21098   4.194   7.277   5.226 -0.0651  0.0218 -0.5480
  898MOL0     C21099   4.286   7.357   5.273 -0.7485 -0.6129 -0.1549
  898MOL0     C21100   4.321   7.343   5.408 -0.3286 -0.1578  0.1051
  898MOL0     C21101   4.387   7.448   5.475  0.1773 -0.5378 -0.4781
  898MOL0     C21102   4.430   7.561   5.404  0.2919 -0.7296  0.3641
  898MOL0     O21103   4.488   7.669   5.458  0.1349 -0.7539  0.7167
  898MOL0     C21104   4.569   7.666   5.572  0.4567 -0.8274  0.5022
  898MOL0     C21105   4.702   7.589   5.538  0.2702 -0.1919  0.1621
  898MOL0     C21106   4.767   7.647   5.409  0.2483 -0.5188  0.3902
  898MOL0     C21107   4.806   7.810   5.413 -0.8044  0.5986 -0.3650
  898MOL0     C21108   4.917   7.850   5.514  0.4406 -0.3439  0.5749
  898MOL0     C21109   5.035   7.749   5.524 -1.2646  0.8604  0.4157
  898MOL0     C21110   5.147   7.786   5.617  1.6003 -0.3650  0.2833
  898MOL0     C21111   5.206   7.930   5.590  0.1189  0.7211  1.0221
  898MOL0     N21112   5.233   7.955   5.444 -0.0439  0.7904 -0.7019
  898MOL0     C21113   5.286   7.884   5.341 -1.0118 -0.3279  0.8216
  898MOL0     C21114   5.273   7.961   5.227 -0.9268 -0.5776 -0.3887
  898MOL0     C21115   5.339   7.931   5.085 -0.5485  0.1993  0.9837
  898MOL0     C21116   5.233   7.871   4.998  0.6247 -0.8086 -0.3666
  898MOL0     C21117   5.245   7.895   4.844  0.7177 -0.2384 -0.2030
  898MOL0     C21118   5.364   7.955   4.784 -0.3425  0.4742 -0.8322
  898MOL0     O21119   5.348   7.955   4.643 -0.7296 -0.3405 -1.0356
  898MOL0     C21120   5.357   7.852   4.563 -0.0907  0.2232 -0.0021
  898MOL0     C21121   5.328   7.864   4.431 -0.5453  0.1867  0.6501
  898MOL0     C21122   5.323   7.766   4.337  0.1270  0.5281  0.2137
  898MOL0     C21123   5.350   7.633   4.372 -1.7429 -0.6009 -1.0665
  898MOL0     C21124   5.345   7.518   4.283  0.0851  0.4120  0.9620
  898MOL0     O21125   5.327   7.539   4.148 -0.0351 -0.3131 -0.0466
  898MOL0     C21126   5.396   7.455   4.061 -0.6581  0.2165  0.0566
  898MOL0     C21127   5.363   7.455   3.925  0.0755 -0.7013  1.0178
  898MOL0     C21128   5.445   7.403   3.818  0.2209 -0.0170  0.2956
  898MOL0     C21129   5.574   7.350   3.858 -0.7152  0.2323  0.5949
  898MOL0     O21130   5.659   7.323   3.759  0.5592 -0.2603  0.2503
  898MOL0     C21131   5.641   7.186   3.719 -0.1706 -0.2399  0.7606
  898MOL0     C21132   5.735   7.151   3.603  0.1970  0.6767 -0.2848
  898MOL0     C21133   5.665   7.056   3.505  0.5002 -0.3055 -0.8376
  898MOL0     C21134   5.765   7.024   3.396 -0.0531  0.0718 -0.8495
  898MOL0     C21135   5.690   6.926   3.296  0.1046 -0.2346 -0.5483
  898MOL0     C21136   5.788   6.840   3.218  0.1841  0.4202  0.0851
  898MOL0     C21137   5.879   6.926   3.134  0.1934 -0.9511 -0.7775
  898MOL0     C21138   5.950   6.832   3.047  0.0302  0.5984  0.2377
  898MOL0    Cl21139   6.071   6.922   2.962  0.2219  0.2358  0.1191
  898MOL0     C21140   5.604   7.323   3.994  0.5149  0.3405 -0.0534
  898MOL0     C21141   5.517   7.377   4.093 -0.3069 -0.5976 -0.8184
  898MOL0     O21142   5.343   7.411   4.335  0.1693  0.4576  0.0765
  898MOL0     C21143   5.399   7.614   4.502  0.0893 -0.7666 -0.6933
  898MOL0     C21144   5.399   7.726   4.591 -0.0101  0.7216  0.9283
  898MOL0     N21145   5.208   8.070   5.264 -0.7157 -0.9038 -0.6745
  898MOL0     N21146   5.180   8.073   5.389  0.0045  1.1210 -0.3186
  898MOL0     C21147   4.393   7.568   5.269  1.0606 -0.1042 -1.2018
  898MOL0     C21148   4.310   7.477   5.210  0.0494 -0.2609  0.2834
  898MOL0     C21149   4.122   7.157   5.035  0.0502 -0.4303  0.1333
  898MOL0     C21150   4.042   7.261   4.994  0.3206 -0.5606 -0.4915
  898MOL0     C21151   3.958   7.248   4.875 -0.3249  0.3849 -0.5621
  898MOL0     C21152   3.957   7.141   4.800  0.1319  0.4612  0.0100
  898MOL0     O21153   3.871   7.144   4.693 -0.7746 -0.5596  0.5392
  898MOL0     C21154   3.877   7.038   4.593  0.1052  0.1445 -0.5840
  898MOL0     C21155   3.781   7.039   4.478  0.0548  0.0218  0.7742
  898MOL0     C21156   3.633   7.032   4.499  0.1134  0.2747  0.2181
  898MOL0     C21157   3.554   6.991   4.364  0.8620  0.0396  0.5936
  898MOL0     C21158   3.544   7.087   4.244  0.2176 -0.2000  0.1992
  898MOL0     C21159   3.562   7.162   4.155 -0.1528 -0.6807  0.8378
  898MOL0     C21160   4.030   7.033   4.845  0.2140 -0.7125 -0.4932
  898MOL0     C21161   4.107   7.032   4.972  0.0883 -0.4275 -0.6885
  898MOL0     C21162   4.158   6.910   5.028  0.9851 -0.1436  0.0357
  898MOL0     H21163   4.290   7.258   5.468  2.6487 -0.6930  1.0807
  898MOL0     H21164   4.408   7.448   5.582  2.1274  2.9241 -0.6970
  898MOL0     H21165   4.589   7.772   5.585 -1.2060  0.2484 -3.9482
  898MOL0     H21166   4.528   7.634   5.668  1.2528  0.4907  1.2979
  898MOL0     H21167   4.677   7.483   5.541 -0.0980 -0.1104  0.0741
  898MOL0     H21168   4.770   7.608   5.622  0.5187 -1.1247  0.1776
  898MOL0     H21169   4.705   7.624   5.322 -0.1565  0.7469  0.3185
  898MOL0     H21170   4.863   7.600   5.385  0.6112  1.1797 -1.8028
  898MOL0     H21171   4.827   7.849   5.313  0.4893 -1.6684 -1.0695
  898MOL0     H21172   4.722   7.871   5.446 -0.0152  1.1140  0.7902
  898MOL0     H21173   4.954   7.950   5.493 -0.8175 -0.2240 -1.2475
  898MOL0     H21174   4.878   7.852   5.616 -0.7984  1.0677  0.1070
  898MOL0     H21175   4.997   7.652   5.559  0.8796  0.2013  1.0745
  898MOL0     H21176   5.080   7.737   5.426  0.0811 -1.2713  1.2274
  898MOL0     H21177   5.226   7.710   5.611  0.1397 -2.0309  1.2806
  898MOL0     H21178   5.120   7.788   5.723  3.7981 -2.9942  1.0106
  898MOL0     H21179   5.146   8.011   5.632 -3.4468 -2.2531  2.2146
  898MOL0     H21180   5.308   7.941   5.627  1.7532  2.2967 -3.2210
  898MOL0     H21181   5.344   7.792   5.347 -0.5977 -0.1050  0.2279
  898MOL0     H21182   5.376   8.022   5.038 -1.6697  0.3184  0.3022
  898MOL0     H21183   5.420   7.857   5.085  0.6840  1.5168  1.5625
  898MOL0     H21184   5.233   7.762   5.014  1.4558 -0.6133  1.1633
  898MOL0     H21185   5.134   7.898   5.035  0.8742  2.2871 -1.6558
  898MOL0     H21186   5.168   7.970   4.823 -0.1522 -1.2492 -0.7429
  898MOL0     H21187   5.222   7.797   4.801 -0.0108 -0.8855  1.5391
  898MOL0     H21188   5.451   7.891   4.802  1.0143  1.5518 -3.1663
  898MOL0     H21189   5.391   8.053   4.823  1.5376  0.3558 -1.7300
  898MOL0     H21190   5.304   7.965   4.400 -0.6291 -0.3640 -1.2104
  898MOL0     H21191   5.297   7.795   4.236 -3.8459  0.1614  0.9580
  898MOL0     H21192   5.274   7.515   3.909  2.2258  1.8012 -3.1998
  898MOL0     H21193   5.419   7.402   3.713  4.3935  2.7938 -1.0007
  898MOL0     H21194   5.650   7.117   3.803 -0.8126 -0.4140  0.6949
  898MOL0     H21195   5.538   7.193   3.682  1.1889  0.3400 -3.4910
  898MOL0     H21196   5.773   7.243   3.557  1.2315 -0.5179 -1.9335
  898MOL0     H21197   5.824   7.097   3.637 -0.5043  0.9052  2.0486
  898MOL0     H21198   5.627   6.975   3.568  2.6163 -0.2150  0.6552
  898MOL0     H21199   5.579   7.102   3.456  3.4157  1.7524 -4.5384
  898MOL0     H21200   5.844   6.965   3.443 -0.8469  1.2586  2.2214
  898MOL0     H21201   5.800   7.109   3.338 -2.9760  0.8093 -1.6851
  898MOL0     H21202   5.627   6.974   3.221 -0.7987 -2.2437 -1.1473
  898MOL0     H21203   5.628   6.852   3.349  0.8138 -0.0503  0.5669
  898MOL0     H21204   5.839   6.770   3.285 -2.0487  1.8877  3.6147
  898MOL0     H21205   5.733   6.782   3.143 -1.2793  2.3809 -0.4363
  898MOL0     H21206   5.956   6.982   3.188  0.0141  1.1739 -2.5619
  898MOL0     H21207   5.825   7.003   3.078  0.0282 -0.3421  0.1883
  898MOL0     H21208   5.999   6.751   3.101 -3.4088 -0.9802  1.2902
  898MOL0     H21209   5.887   6.779   2.976  1.4022 -2.0243  0.8814
  898MOL0     H21210   5.704   7.282   4.008 -0.6270 -2.3435  1.0338
  898MOL0     H21211   5.555   7.373   4.194 -0.9674  0.4891 -0.5063
  898MOL0     H21212   5.435   7.516   4.531 -0.9081 -0.5871  1.3585
  898MOL0     H21213   5.442   7.710   4.689 -0.3356  0.5874  1.0486
  898MOL0     H21214   4.403   7.662   5.216 -3.3575 -1.2674 -4.7527
  898MOL0     H21215   4.276   7.497   5.108 -0.9358  0.6223  0.7642
  898MOL0     H21216   4.062   7.354   5.047  2.1048 -1.7526  1.0546
  898MOL0     H21217   3.898   7.331   4.841 -1.3679  0.1503  0.6307
  898MOL0     H21218   3.870   6.945   4.650 -5.0791  2.3592  3.2674
  898MOL0     H21219   3.978   7.052   4.554  0.2049 -0.1806 -0.4393
  898MOL0     H21220   3.795   6.948   4.418 -2.9249 -0.5235  0.7481
  898MOL0     H21221   3.792   7.121   4.407  3.4992  2.1671  3.4805
  898MOL0     H21222   3.604   7.135   4.520 -0.0745  0.4437 -0.8195
  898MOL0     H21223   3.604   6.976   4.589  0.1636 -1.2486 -0.6858
  898MOL0     H21224   3.595   6.897   4.326  0.7649  0.5152 -0.7506
  898MOL0     H21225   3.446   6.981   4.379  0.7064 -0.2494 -0.6057
  898MOL0     H21226   3.584   7.240   4.084  1.4749 -0.8252  1.1444
  898MOL0     H21227   3.998   6.945   4.792  1.0072  1.1567 -4.4621
  898MOL0     H21228   4.260   6.889   4.993  1.9538 -2.5321  3.6915
  898MOL0     H21229   4.173   6.914   5.136 -2.4143 -0.1716  0.6049
  898MOL0     H21230   4.094   6.827   4.998  0.3003 -0.0056  1.0693
  899MOL0     O21231   9.420   2.241   8.590 -0.1492  0.4119  0.4722
  899MOL0     C21232   9.352   2.323   8.641 -0.3492 -0.5558 -0.0324
  899MOL0     O21233   9.284   2.421   8.579  0.1105  0.2666  0.2660
  899MOL0     C21234   9.288   2.434   8.442  0.0795  0.5443  0.1878
  899MOL0     C21235   9.359   2.543   8.395  0.7117  0.2423 -0.3593
  899MOL0     C21236   9.387   2.560   8.264 -0.5626  0.1365  0.6523
  899MOL0     C21237   9.348   2.468   8.168 -0.0889  0.3797  0.3152
  899MOL0     O21238   9.362   2.478   8.026  0.6306  1.0098 -0.1001
  899MOL0     C21239   9.419   2.589   7.980  0.4901  0.0091  0.5883
  899MOL0     C21240   9.419   2.584   7.823  0.6773 -0.1588  0.8198
  899MOL0     C21241   9.450   2.710   7.747  0.1649 -0.0100 -0.7870
  899MOL0     C21242   9.417   2.690   7.603  1.2735 -0.0402  0.0771
  899MOL0     C21243   9.425   2.817   7.514  0.5119  0.2845  0.1488
  899MOL0     C21244   9.344   2.788   7.387 -0.4143 -0.5969 -0.1951
  899MOL0     C21245   9.299   2.913   7.317  0.6376  0.1175 -0.5306
  899MOL0     C21246   9.174   2.881   7.234 -0.5239  0.3328 -0.3169
  899MOL0     N21247   9.105   3.010   7.188 -1.1678  0.1315  0.0248
  899MOL0     C21248   9.132   3.146   7.202  0.0759  0.6541 -0.6776
  899MOL0     C21249   9.034   3.209   7.133 -1.4338  1.4386 -0.5846
  899MOL0     C21250   9.023   3.349   7.123 -0.2984  0.1288  0.7164
  899MOL0     C21251   9.153   3.426   7.085 -0.2167  0.3029  0.3779
  899MOL0     C21252   9.223   3.373   6.956 -0.0638 -0.4952 -0.0099
  899MOL0     C21253   9.310   3.486   6.905  0.0824  0.0096  0.8813
  899MOL0     O21254   9.402   3.534   7.005  0.6899 -0.7561  0.5123
  899MOL0     C21255   9.538   3.528   6.980  0.4861  0.0490  0.5427
  899MOL0     C21256   9.583   3.601   6.872 -0.2159 -0.0959 -0.3114
  899MOL0     C21257   9.716   3.605   6.834  0.8075 -0.3848 -0.7291
  899MOL0     C21258   9.806   3.529   6.903  0.7571  0.4022 -0.2565
  899MOL0     C21259   9.939   3.522   6.859 -1.2341  1.2308 -0.1378
  899MOL0     O21260   9.997   3.640   6.833 -1.2442  0.4036  0.8650
  899MOL0     C21261  10.130   3.633   6.800 -0.2641 -0.2758  0.1625
  899MOL0     C21262  10.165   3.570   6.680 -0.6554  0.1433 -0.6067
  899MOL0     C21263  10.304   3.552   6.661  0.0628 -0.6347 -0.2102
  899MOL0     C21264  10.396   3.578   6.760  0.2641 -0.5540 -0.0731
  899MOL0     O21265  10.531   3.563   6.742  0.0967  0.3358 -0.6235
  899MOL0     C21266  10.561   3.429   6.718  0.7277  0.6955 -0.3080
  899MOL0     C21267  10.707   3.452   6.654 -0.4827 -0.1823 -0.3679
  899MOL0     C21268  10.780   3.327   6.611  0.6034 -1.0349 -0.0758
  899MOL0     C21269  10.793   3.220   6.718  0.5162 -0.3056  0.0554
  899MOL0     C21270  10.889   3.122   6.658 -0.3315  0.5771 -1.0070
  899MOL0     C21271  10.854   2.979   6.719 -0.3901  0.6488 -0.1282
  899MOL0     C21272  10.925   2.876   6.644 -0.9705  0.7693 -0.0134
  899MOL0     C21273  10.838   2.828   6.529  0.0902 -0.4619  0.4218
  899MOL0    Cl21274  10.837   2.936   6.386 -0.2350  0.0495  0.4850
  899MOL0     C21275  10.357   3.630   6.884  0.5010  0.2198  0.1561
  899MOL0     C21276  10.220   3.661   6.901 -0.0295 -0.2384  0.2629
  899MOL0     O21277   9.997   3.408   6.858 -1.1081  0.2222  0.0214
  899MOL0     C21278   9.766   3.440   7.004 -0.2715 -1.1154  0.2979
  899MOL0     C21279   9.627   3.439   7.045  0.2862 -1.2496  0.6767
  899MOL0     N21280   8.941   3.116   7.085 -0.2431 -0.0821  0.6422
  899MOL0     N21281   8.992   3.002   7.124 -0.6023  0.7413  0.3699
  899MOL0     C21282   9.277   2.360   8.214  0.5627 -0.0507  0.6062
  899MOL0     C21283   9.259   2.329   8.348  0.5695  0.2569 -1.3127
  899MOL0     C21284   9.365   2.322   8.788 -0.0717 -0.6474  0.0932
  899MOL0     C21285   9.367   2.204   8.861 -1.0403  1.2486  0.6296
  899MOL0     C21286   9.399   2.206   8.999 -0.5813 -0.0575 -0.0375
  899MOL0     C21287   9.422   2.332   9.063 -0.7321 -0.2418 -0.0993
  899MOL0     O21288   9.470   2.357   9.194  0.9533 -0.0996  0.2346
  899MOL0     C21289   9.463   2.245   9.290 -0.7981 -0.1426  1.0323
  899MOL0     C21290   9.311   2.225   9.333 -0.0792  0.7995  0.4912
  899MOL0     C21291   9.287   2.083   9.395  0.2803 -0.3241  0.8408
  899MOL0     C21292   9.156   2.029   9.354  0.8766 -0.3692 -0.1492
  899MOL0     C21293   9.125   2.024   9.213 -0.3419  0.3557 -0.4183
  899MOL0     C21294   9.116   2.009   9.095  0.3500 -0.2284  0.2968
  899MOL0     C21295   9.415   2.450   8.991  0.8567 -0.5395  0.1658
  899MOL0     C21296   9.388   2.446   8.857  0.1485  0.1772 -0.0423
  899MOL0     C21297   9.414   2.573   8.780  0.4690 -0.1391  0.5979
  899MOL0     H21298   9.397   2.616   8.467 -1.6113  0.4005  0.8186
  899MOL0     H21299   9.444   2.648   8.236 -1.5519  0.4121 -0.5616
  899MOL0     H21300   9.372   2.680   8.016  0.1753  0.4863 -0.9474
  899MOL0     H21301   9.525   2.596   8.008 -0.0369  1.1160  2.3847
  899MOL0     H21302   9.320   2.551   7.789 -0.4268 -2.5531  5.4687
  899MOL0     H21303   9.488   2.501   7.805 -3.2426 -3.9366  1.5574
  899MOL0     H21304   9.556   2.734   7.763  0.1022 -1.5501  3.2270
  899MOL0     H21305   9.387   2.783   7.798  2.1307  0.8106  0.6101
  899MOL0     H21306   9.496   2.626   7.563  0.1320 -1.3772 -0.1441
  899MOL0     H21307   9.326   2.632   7.586  2.9087 -2.8699  0.3211
  899MOL0     H21308   9.377   2.894   7.575 -1.4265 -1.3176  0.7589
  899MOL0     H21309   9.531   2.840   7.498  1.1728 -1.5626  1.4957
  899MOL0     H21310   9.409   2.718   7.333 -0.9457 -1.3792  0.1507
  899MOL0     H21311   9.256   2.733   7.423 -0.7998  0.4827  0.5563
  899MOL0     H21312   9.387   2.945   7.260  2.0510  4.4724  3.4454
  899MOL0     H21313   9.279   2.998   7.383  0.6852  1.7040 -2.4607
  899MOL0     H21314   9.196   2.810   7.154 -0.1437 -0.6728  0.6532
  899MOL0     H21315   9.111   2.833   7.309  0.4348 -0.5672 -0.0710
  899MOL0     H21316   9.220   3.192   7.244  1.6094 -1.8968 -0.8589
  899MOL0     H21317   8.955   3.355   7.037  0.7315 -1.5464 -0.2632
  899MOL0     H21318   8.967   3.390   7.207  1.3135  0.1941  1.7961
  899MOL0     H21319   9.104   3.519   7.053 -1.7216 -1.1969 -2.1111
  899MOL0     H21320   9.221   3.437   7.169 -1.1138 -2.1241  1.5401
  899MOL0     H21321   9.158   3.339   6.875 -1.6260  3.0937 -0.4728
  899MOL0     H21322   9.280   3.285   6.987 -0.0483 -0.3150  0.4758
  899MOL0     H21323   9.239   3.566   6.881  0.0348  0.1037  1.3317
  899MOL0     H21324   9.362   3.449   6.816  2.3519 -0.8610  2.4979
  899MOL0     H21325   9.510   3.658   6.816  1.4409 -0.5674 -3.1524
  899MOL0     H21326   9.752   3.663   6.749 -0.9192  1.1897 -0.4534
  899MOL0     H21327  10.089   3.533   6.611 -1.3065  2.3419 -1.1560
  899MOL0     H21328  10.344   3.501   6.575  0.6677 -1.7584  0.7058
  899MOL0     H21329  10.561   3.361   6.804 -1.7053  0.4985 -0.3955
  899MOL0     H21330  10.500   3.381   6.641 -0.7190 -1.0474  1.7988
  899MOL0     H21331  10.696   3.513   6.564  1.6739 -0.1017 -0.6266
  899MOL0     H21332  10.760   3.518   6.722  0.4418 -2.3460  1.1227
  899MOL0     H21333  10.730   3.291   6.520 -0.6870  1.6389 -0.5272
  899MOL0     H21334  10.879   3.366   6.587 -0.0760  0.7954 -0.0106
  899MOL0     H21335  10.697   3.176   6.745 -1.7775  3.7696 -0.6366
  899MOL0     H21336  10.824   3.269   6.811  3.1737 -1.0289 -0.3499
  899MOL0     H21337  10.993   3.135   6.688 -0.3106  0.4308 -1.0181
  899MOL0     H21338  10.875   3.120   6.550 -0.8641 -4.0159 -1.0541
  899MOL0     H21339  10.891   2.972   6.822 -1.4119 -0.7997  0.1881
  899MOL0     H21340  10.746   2.965   6.733 -0.9458  4.5220  0.5518
  899MOL0     H21341  10.923   2.787   6.708 -4.2406  0.0298 -0.9499
  899MOL0     H21342  11.025   2.911   6.618 -0.8669  2.1958  2.1247
  899MOL0     H21343  10.870   2.729   6.495 -0.0765  0.0456 -1.2999
  899MOL0     H21344  10.734   2.821   6.561 -1.0725  3.5440 -1.8640
  899MOL0     H21345  10.431   3.660   6.958  0.2072  2.1562 -0.2988
  899MOL0     H21346  10.198   3.708   6.996  1.3087 -1.1908  1.0726
  899MOL0     H21347   9.834   3.367   7.047 -0.4658 -0.7449  1.2736
  899MOL0     H21348   9.583   3.376   7.121  0.5840 -2.9748 -0.5260
  899MOL0     H21349   9.248   2.271   8.159  0.4381 -0.8437  1.9249
  899MOL0     H21350   9.222   2.232   8.380 -0.2168  1.2537  1.0375
  899MOL0     H21351   9.362   2.116   8.797 -0.8905  1.0764  0.8518
  899MOL0     H21352   9.411   2.112   9.053  1.1089 -0.7976 -1.5779
  899MOL0     H21353   9.518   2.274   9.380  0.7834  1.2036 -0.2947
  899MOL0     H21354   9.512   2.152   9.259  1.0021  0.5079  1.7594
  899MOL0     H21355   9.245   2.243   9.248  1.1478  0.5914 -0.5324
  899MOL0     H21356   9.275   2.294   9.410 -0.8042  1.2367 -0.2241
  899MOL0     H21357   9.292   2.078   9.504 -1.2526  2.8903  1.2024
  899MOL0     H21358   9.365   2.012   9.366  0.9238 -0.3776  2.5807
  899MOL0     H21359   9.158   1.923   9.383  1.1912 -1.2352 -3.0742
  899MOL0     H21360   9.078   2.087   9.405  3.1322  2.8747 -0.1343
  899MOL0     H21361   9.101   1.990   8.991 -0.4594  1.1426  0.1485
  899MOL0     H21362   9.434   2.540   9.049  0.3981 -0.7851  0.7075
  899MOL0     H21363   9.459   2.552   8.682 -2.7322 -2.6581 -0.5192
  899MOL0     H21364   9.323   2.628   8.754  1.2429  0.4789 -0.9754
  899MOL0     H21365   9.485   2.624   8.845  1.4760 -2.1589  1.1710
  900MOL0     O21366   6.822   8.317  10.582  0.5958  0.4356 -0.4367
  900MOL0     C21367   6.808   8.199  10.561 -0.0737 -0.6694  0.1207
  900MOL0     O21368   6.894   8.099  10.612 -0.8363 -0.5998 -0.0713
  900MOL0     C21369   7.009   8.134  10.684 -0.6740 -0.5448 -1.3360
  900MOL0     C21370   7.006   8.149  10.826  0.6600 -0.8561  0.8151
  900MOL0     C21371   7.116   8.212  10.891 -0.0844  0.5945  1.2830
  900MOL0     C21372   7.224   8.248  10.808 -0.6356  0.1055 -0.1997
  900MOL0     O21373   7.326   8.321  10.865  0.5041 -0.2787  1.2191
  900MOL0     C21374   7.289   8.454  10.898  0.2010 -0.8079  0.3899
  900MOL0     C21375   7.307   8.498  11.047  0.6057 -0.9325  0.2303
  900MOL0     C21376   7.445   8.528  11.108 -0.1908  0.7223  0.8095
  900MOL0     C21377   7.442   8.596  11.244 -0.7591 -0.1026 -0.4857
  900MOL0     C21378   7.582   8.643  11.282  0.1046 -0.9808  0.0390
  900MOL0     C21379   7.646   8.572  11.403  0.3705 -0.3399  0.2952
  900MOL0     C21380   7.791   8.613  11.423 -0.0579 -0.1119 -1.0466
  900MOL0     C21381   7.882   8.549  11.311  0.6555 -0.3595 -0.1835
  900MOL0     N21382   7.981   8.459  11.361 -0.5034 -0.2556  0.0175
  900MOL0     C21383   8.118   8.480  11.401  0.0394 -0.9741  0.4923
  900MOL0     C21384   8.159   8.357  11.437  0.1610  0.0516  0.5261
  900MOL0     C21385   8.292   8.320  11.488  0.2721 -0.1344  0.3571
  900MOL0     C21386   8.346   8.432  11.589 -0.9210 -0.4729 -0.3431
  900MOL0     C21387   8.447   8.364  11.679 -0.0831  0.4885  0.1080
  900MOL0     C21388   8.554   8.274  11.607  0.1129  0.8324 -0.4726
  900MOL0     O21389   8.621   8.333  11.493 -0.1700  0.3833 -0.1484
  900MOL0     C21390   8.714   8.258  11.429  1.0427  0.1018  0.1109
  900MOL0     C21391   8.763   8.127  11.465 -0.5838 -0.0844 -0.2591
  900MOL0     C21392   8.858   8.066  11.387  0.6609  0.2465 -1.1457
  900MOL0     C21393   8.905   8.118  11.264  0.8338 -0.2495  0.9597
  900MOL0     C21394   9.007   8.061  11.174  0.3931  0.5711  0.1719
  900MOL0     O21395   9.011   7.922  11.148 -0.5611 -0.4751  0.3601
  900MOL0     C21396   8.919   7.830  11.181  0.4842  1.7999  0.9954
  900MOL0     C21397   8.954   7.733  11.272 -0.8211 -0.5855  0.3916
  900MOL0     C21398   8.866   7.639  11.318  1.0690  0.2684 -0.6057
  900MOL0     C21399   8.744   7.624  11.250  0.6032  0.1383  0.3529
  900MOL0     O21400   8.646   7.538  11.270  0.7413 -0.1113  0.0734
  900MOL0     C21401   8.666   7.421  11.355 -0.2605 -0.4272  0.2540
  900MOL0     C21402   8.565   7.315  11.351 -1.1372 -0.1113  0.7603
  900MOL0     C21403   8.441   7.340  11.439 -0.5442 -0.0796 -0.3024
  900MOL0     C21404   8.332   7.228  11.400 -0.2910  0.6496  0.4130
  900MOL0     C21405   8.215   7.240  11.497  1.1964  0.3080  0.2377
  900MOL0     C21406   8.110   7.343  11.445  0.2327  0.4816  0.1289
  900MOL0     C21407   8.119   7.469  11.528 -0.1809 -0.1769  0.1111
  900MOL0     C21408   8.069   7.452  11.679 -0.5267  0.6828  0.5336
  900MOL0    Cl21409   8.126   7.600  11.755  0.2736  0.6045 -0.2382
  900MOL0     C21410   8.707   7.714  11.155  0.3236  0.2480 -0.6667
  900MOL0     C21411   8.791   7.820  11.119 -0.7737  0.2322  0.8000
  900MOL0     O21412   9.095   8.135  11.136 -0.0917 -0.3835  0.0393
  900MOL0     C21413   8.853   8.242  11.224 -0.4441 -0.4113 -0.0859
  900MOL0     C21414   8.757   8.305  11.308  0.0583  0.6391  0.1613
  900MOL0     N21415   8.052   8.274  11.425 -1.0854  0.2409  0.0594
  900MOL0     N21416   7.950   8.331  11.374  0.3882  0.2872 -0.1459
  900MOL0     C21417   7.230   8.229  10.677 -0.2528  0.4467  0.4839
  900MOL0     C21418   7.119   8.167  10.614 -0.8025  0.0876  0.1336
  900MOL0     C21419   6.678   8.163  10.511  0.6814 -0.6221  0.5409
  900MOL0     C21420   6.616   8.035  10.557  0.3708 -0.7759  0.4379
  900MOL0     C21421   6.491   7.997  10.496  0.7469  0.3204  0.4531
  900MOL0     C21422   6.424   8.076  10.406 -0.1372  0.3058 -0.1053
  900MOL0     O21423   6.314   8.032  10.346  0.0635 -0.3040  0.0044
  900MOL0     C21424   6.324   7.927  10.246 -0.1785  1.1161  0.0323
  900MOL0     C21425   6.192   7.856  10.249  0.8660  0.1644 -0.6022
  900MOL0     C21426   6.088   7.950  10.186 -0.5480  0.6152 -0.0577
  900MOL0     C21427   5.975   7.997  10.273 -0.8075 -0.3487  0.0896
  900MOL0     C21428   5.871   8.038  10.194  0.8267 -0.4710  0.5880
  900MOL0     C21429   5.787   8.094  10.124 -0.0422  0.7054  0.0187
  900MOL0     C21430   6.486   8.183  10.358 -0.4775 -0.0595  0.2695
  900MOL0     C21431   6.603   8.237  10.409 -0.5465  0.1430  0.1529
  900MOL0     C21432   6.666   8.348  10.337 -0.8215 -0.9291  0.3983
  900MOL0     H21433   6.917   8.100  10.865  0.2280 -0.7122  0.0556
  900MOL0     H21434   7.121   8.230  10.998  0.8585  2.5286  0.9674
  900MOL0     H21435   7.346   8.525  10.837 -2.0327  1.1198  0.3921
  900MOL0     H21436   7.186   8.477  10.870  0.8932  2.0251 -0.1829
  900MOL0     H21437   7.238   8.440  11.109 -0.6575  1.4835  1.2460
  900MOL0     H21438   7.255   8.594  11.056  0.3839 -0.7777 -2.0196
  900MOL0     H21439   7.497   8.584  11.031  1.7952 -2.8991 -0.7506
  900MOL0     H21440   7.496   8.431  11.115 -0.7816  0.2964 -0.4040
  900MOL0     H21441   7.377   8.682  11.258 -0.5404  0.4363 -2.4803
  900MOL0     H21442   7.401   8.519  11.311 -2.4479  0.7822 -0.4561
  900MOL0     H21443   7.638   8.639  11.189  1.4245  1.7961  0.6338
  900MOL0     H21444   7.570   8.749  11.305  0.7482 -0.7830 -0.5291
  900MOL0     H21445   7.589   8.595  11.493  2.2768 -1.5944  1.8963
  900MOL0     H21446   7.640   8.463  11.397  0.3781 -0.3379  0.2506
  900MOL0     H21447   7.824   8.563  11.515 -1.7658  2.2978  1.0432
  900MOL0     H21448   7.794   8.721  11.440 -1.7321 -0.4131  2.0533
  900MOL0     H21449   7.814   8.497  11.243  1.7360 -2.3636  0.1984
  900MOL0     H21450   7.935   8.630  11.260 -1.1425  0.5035 -0.7572
  900MOL0     H21451   8.189   8.561  11.416  0.7757 -1.2714 -1.2158
  900MOL0     H21452   8.284   8.223  11.538  3.2575 -0.7282 -0.0926
  900MOL0     H21453   8.348   8.310  11.395 -0.0094  2.7043 -0.2058
  900MOL0     H21454   8.390   8.522  11.546  1.4301 -0.5210  1.7245
  900MOL0     H21455   8.276   8.473  11.662 -1.1801  0.4953 -1.1219
  900MOL0     H21456   8.397   8.321  11.766 -0.7281 -0.7597 -0.8579
  900MOL0     H21457   8.517   8.432  11.728 -1.1501  3.3684 -2.0252
  900MOL0     H21458   8.497   8.184  11.583 -1.6185  1.4711  1.0469
  900MOL0     H21459   8.628   8.241  11.681 -1.8911 -0.2463  1.1341
  900MOL0     H21460   8.720   8.076  11.550 -2.4798 -1.8568 -2.1723
  900MOL0     H21461   8.904   7.970  11.409 -1.9365 -0.8722 -0.2624
  900MOL0     H21462   9.053   7.738  11.316 -0.8604 -2.9618  0.8744
  900MOL0     H21463   8.908   7.580  11.399  0.1727  1.9363  1.1467
  900MOL0     H21464   8.763   7.378  11.326  1.2025  0.0588  3.9054
  900MOL0     H21465   8.677   7.443  11.461  0.9074 -2.2030  0.5498
  900MOL0     H21466   8.539   7.306  11.245  1.1724  0.5257  0.0885
  900MOL0     H21467   8.612   7.222  11.386 -0.3270 -0.3295 -0.8220
  900MOL0     H21468   8.480   7.323  11.540  0.8583 -1.0246 -0.9714
  900MOL0     H21469   8.399   7.440  11.424 -3.3784 -0.9041  1.3864
  900MOL0     H21470   8.386   7.134  11.415 -1.8723 -0.9415 -2.8200
  900MOL0     H21471   8.301   7.239  11.296 -0.3102  0.7032  0.4244
  900MOL0     H21472   8.261   7.281  11.588  1.3546  0.5745  0.0404
  900MOL0     H21473   8.170   7.144  11.521  0.3436  0.4478 -0.7227
  900MOL0     H21474   8.122   7.361  11.338 -1.0925  1.3201  0.0971
  900MOL0     H21475   8.014   7.295  11.468  0.6800 -1.5463 -1.7993
  900MOL0     H21476   8.064   7.548  11.477  1.3769  0.1652 -1.1333
  900MOL0     H21477   8.222   7.506  11.524  0.2864 -1.5085 -1.4944
  900MOL0     H21478   7.960   7.444  11.680 -0.3959 -2.5586  2.7080
  900MOL0     H21479   8.104   7.359  11.723  0.4681  1.3976  1.2933
  900MOL0     H21480   8.601   7.721  11.132 -0.9797 -0.4526  4.0369
  900MOL0     H21481   8.752   7.896  11.052 -0.6906 -2.0430 -2.0557
  900MOL0     H21482   8.880   8.281  11.126  0.4191  3.8911  1.6612
  900MOL0     H21483   8.727   8.400  11.265 -1.7263 -0.8324 -2.1199
  900MOL0     H21484   7.307   8.286  10.626 -0.1403 -0.8925 -0.9001
  900MOL0     H21485   7.117   8.144  10.508 -0.3694 -2.3963  0.5911
  900MOL0     H21486   6.672   7.971  10.624  1.9086  1.6993  1.6571
  900MOL0     H21487   6.438   7.908  10.527  0.4169 -0.0259 -1.0497
  900MOL0     H21488   6.401   7.856  10.277 -2.3397 -1.2446  0.2926
  900MOL0     H21489   6.354   7.961  10.146  4.2988 -1.6785  0.1294
  900MOL0     H21490   6.155   7.817  10.344 -0.5484 -0.4728 -1.3789
  900MOL0     H21491   6.191   7.773  10.177  0.3214 -0.3005 -0.0731
  900MOL0     H21492   6.044   7.896  10.102  0.7718  1.9106 -1.6663
  900MOL0     H21493   6.141   8.039  10.150 -0.1727 -0.4520 -2.2993
  900MOL0     H21494   5.936   7.906  10.320 -1.6156 -0.9463 -1.6312
  900MOL0     H21495   5.996   8.074  10.348  1.2931  1.1412 -1.9129
  900MOL0     H21496   5.714   8.116  10.050  0.2121 -1.0738 -0.8020
  900MOL0     H21497   6.427   8.233  10.282 -0.1203 -1.7857 -1.2231
  900MOL0     H21498   6.604   8.377  10.251  0.0241 -0.6647 -0.1391
  900MOL0     H21499   6.679   8.435  10.402 -1.1979 -0.3909 -0.2319
  900MOL0     H21500   6.765   8.321  10.298 -0.0855 -0.4006  1.8582
  901MOL0     O21501   6.909   5.728   3.802 -0.0131  0.0004 -0.5521
  901MOL0     C21502   6.998   5.642   3.818  1.3147  0.1706 -1.5813
  901MOL0     O21503   7.085   5.604   3.726 -0.9421 -0.1589  0.1913
  901MOL0     C21504   7.076   5.649   3.597 -0.3157 -0.5562 -0.0073
  901MOL0     C21505   7.100   5.782   3.548  0.1706 -0.2964 -1.1543
  901MOL0     C21506   7.083   5.805   3.411 -0.6627 -0.5751  0.1931
  901MOL0     C21507   7.026   5.711   3.330 -0.5944  0.4350  0.0023
  901MOL0     O21508   7.012   5.740   3.198 -0.0463  0.3622 -0.0277
  901MOL0     C21509   6.903   5.827   3.165 -0.0418 -0.0078 -0.5616
  901MOL0     C21510   6.919   5.845   3.017  0.3055 -0.1493  0.8107
  901MOL0     C21511   6.896   5.987   2.971 -0.4221 -0.6864 -0.2559
  901MOL0     C21512   6.762   6.043   3.001 -0.4896  0.3671 -0.4706
  901MOL0     C21513   6.764   6.192   3.021 -0.2067  0.1103 -0.1552
  901MOL0     C21514   6.622   6.247   3.020  0.4422  0.4768  0.0207
  901MOL0     C21515   6.604   6.391   3.034 -0.0481  0.6925  0.3370
  901MOL0     C21516   6.717   6.460   3.124  0.3078 -0.0841  0.1615
  901MOL0     N21517   6.712   6.426   3.264 -1.5286  0.8463 -0.0692
  901MOL0     C21518   6.745   6.515   3.364  0.7849 -0.3804  0.1489
  901MOL0     C21519   6.732   6.445   3.482  0.1428 -0.0598  1.0236
  901MOL0     C21520   6.766   6.507   3.616  0.8336 -0.2649  0.0938
  901MOL0     C21521   6.659   6.584   3.699 -0.2442 -0.4745  0.0660
  901MOL0     C21522   6.580   6.682   3.609 -1.2388 -0.0403  0.5004
  901MOL0     C21523   6.484   6.777   3.678 -1.3209  0.1554  0.5247
  901MOL0     O21524   6.371   6.698   3.713 -0.5296 -0.7289 -0.0001
  901MOL0     C21525   6.258   6.775   3.743 -0.1612  1.9729  1.1608
  901MOL0     C21526   6.133   6.701   3.744 -0.2129 -0.6870 -0.1012
  901MOL0     C21527   6.015   6.758   3.794 -0.3350  0.4489  0.2634
  901MOL0     C21528   6.020   6.888   3.841  0.4412 -0.1130 -0.1003
  901MOL0     C21529   5.899   6.944   3.905  0.7018 -1.3196 -0.0263
  901MOL0     O21530   5.800   6.858   3.921  0.4174  0.3834  0.0839
  901MOL0     C21531   5.686   6.894   3.997 -0.1197  0.0683  0.9575
  901MOL0     C21532   5.564   6.842   3.943  0.1237 -0.4783  0.0758
  901MOL0     C21533   5.444   6.885   3.992 -0.4973  0.4664 -0.0309
  901MOL0     C21534   5.433   6.946   4.120 -0.3265  0.6667  0.3294
  901MOL0     O21535   5.313   6.951   4.186  0.4343  0.1966 -0.2032
  901MOL0     C21536   5.318   6.999   4.320  0.5669 -0.2097 -0.5019
  901MOL0     C21537   5.175   7.007   4.366 -0.8618  0.0344 -0.1810
  901MOL0     C21538   5.089   7.119   4.304 -0.4702  0.3388 -0.1208
  901MOL0     C21539   4.942   7.078   4.303 -0.1839 -0.2055 -0.5942
  901MOL0     C21540   4.856   7.173   4.221  0.1619 -0.1551  0.4392
  901MOL0     C21541   4.709   7.135   4.240  0.5585  0.6877  0.4425
  901MOL0     C21542   4.623   7.233   4.159 -0.2233 -0.3900  0.6536
  901MOL0     C21543   4.476   7.189   4.162 -0.4473 -0.2557  0.4723
  901MOL0    Cl21544   4.405   7.312   4.060 -0.1979  0.1710 -0.3097
  901MOL0     C21545   5.550   6.989   4.168 -0.0831 -0.4993 -0.1454
  901MOL0     C21546   5.676   6.969   4.117 -0.3212 -0.7052  0.7606
  901MOL0     O21547   5.897   7.061   3.939 -0.0883 -0.2440 -0.2689
  901MOL0     C21548   6.140   6.954   3.841  0.7185  0.3499 -0.0835
  901MOL0     C21549   6.255   6.900   3.791  0.2258 -0.2863  0.0696
  901MOL0     N21550   6.686   6.318   3.459  0.0341 -0.3032 -0.1312
  901MOL0     N21551   6.682   6.308   3.329  0.3492  0.1268 -0.0845
  901MOL0     C21552   6.986   5.593   3.379 -0.1797  0.2181 -0.5456
  901MOL0     C21553   7.017   5.557   3.513  0.1888 -0.0625 -0.4111
  901MOL0     C21554   7.001   5.601   3.963  0.3902 -0.5434 -0.8248
  901MOL0     C21555   7.116   5.524   4.005 -0.1506  0.6339 -0.8322
  901MOL0     C21556   7.142   5.499   4.138  0.2031  0.0367  0.1608
  901MOL0     C21557   7.056   5.525   4.246 -0.2222  0.5003  0.4061
  901MOL0     O21558   7.068   5.490   4.374 -0.1061  0.2945 -0.2208
  901MOL0     C21559   7.202   5.467   4.434 -0.6698 -0.6500 -0.3049
  901MOL0     C21560   7.229   5.320   4.438 -1.2588  0.7103 -0.1792
  901MOL0     C21561   7.206   5.258   4.570 -0.2922  0.4083  0.1601
  901MOL0     C21562   7.142   5.121   4.563  0.1258  0.0041  0.4473
  901MOL0     C21563   7.204   5.017   4.479 -0.0403  0.3861  0.2463
  901MOL0     C21564   7.261   4.937   4.421 -0.1610 -0.5524 -0.0630
  901MOL0     C21565   6.941   5.592   4.212  0.6784  0.3749  0.3069
  901MOL0     C21566   6.908   5.635   4.077 -0.1514 -0.3590  0.8034
  901MOL0     C21567   6.783   5.718   4.048 -0.1347  0.4397 -0.2182
  901MOL0     H21568   7.137   5.855   3.618 -0.4924 -2.8485  2.0778
  901MOL0     H21569   7.107   5.907   3.381 -2.2750 -0.1575  0.1871
  901MOL0     H21570   6.802   5.792   3.187 -0.2103  0.8506  0.1230
  901MOL0     H21571   6.924   5.914   3.228 -3.5017 -0.2903  1.2025
  901MOL0     H21572   6.850   5.779   2.963 -0.0135  0.7361  0.1062
  901MOL0     H21573   7.019   5.819   2.981 -0.0218 -0.3994  0.0557
  901MOL0     H21574   6.913   6.003   2.864 -1.9134  4.3059 -0.0156
  901MOL0     H21575   6.969   6.054   3.018 -0.3315 -2.2403  1.9715
  901MOL0     H21576   6.688   6.019   2.925 -1.3635 -1.0165  0.7578
  901MOL0     H21577   6.736   6.004   3.100  2.5931 -0.8796 -0.0308
  901MOL0     H21578   6.805   6.214   3.120 -0.8754 -1.5357  0.5296
  901MOL0     H21579   6.828   6.249   2.953 -1.8344  3.3656  0.8594
  901MOL0     H21580   6.575   6.220   2.925 -0.6688 -2.4779  1.2846
  901MOL0     H21581   6.565   6.193   3.096 -1.8866  0.1088 -1.8843
  901MOL0     H21582   6.505   6.419   3.072 -1.5515 -0.6345 -2.3027
  901MOL0     H21583   6.603   6.435   2.933  0.3915 -2.6020 -1.2550
  901MOL0     H21584   6.810   6.432   3.073  1.5124  5.1203 -1.1150
  901MOL0     H21585   6.714   6.569   3.113 -0.9587 -0.0525  0.6860
  901MOL0     H21586   6.771   6.620   3.352  3.9780 -0.9460  1.1653
  901MOL0     H21587   6.796   6.426   3.683  1.5239 -0.3734 -0.3368
  901MOL0     H21588   6.844   6.579   3.589 -0.4857  0.9172 -0.6511
  901MOL0     H21589   6.591   6.524   3.758 -1.9463  1.6425  0.3886
  901MOL0     H21590   6.713   6.649   3.769 -0.6196  2.0291 -1.8041
  901MOL0     H21591   6.517   6.644   3.528 -1.8369  1.8716  0.0177
  901MOL0     H21592   6.649   6.740   3.547  3.5664 -3.0316  2.4469
  901MOL0     H21593   6.456   6.852   3.604  3.6204  0.5364 -1.3239
  901MOL0     H21594   6.539   6.830   3.756  1.5861 -0.9536 -0.6595
  901MOL0     H21595   6.144   6.596   3.717  1.1362 -0.0386 -2.3432
  901MOL0     H21596   5.930   6.690   3.791  1.3454 -1.7440 -2.0987
  901MOL0     H21597   5.568   6.758   3.874  1.4944 -2.0043  1.8977
  901MOL0     H21598   5.348   6.843   3.961  1.0140 -4.3410  0.9684
  901MOL0     H21599   5.381   6.935   4.383 -0.2824  0.0597  0.6545
  901MOL0     H21600   5.361   7.100   4.319  1.9757 -0.7888 -1.7162
  901MOL0     H21601   5.128   6.912   4.341  1.8186 -1.2457 -0.7271
  901MOL0     H21602   5.183   7.019   4.474  2.6798 -0.8947 -0.2120
  901MOL0     H21603   5.100   7.210   4.364  1.4726 -1.7450  2.9526
  901MOL0     H21604   5.122   7.154   4.206  0.5304 -1.2745 -0.3934
  901MOL0     H21605   4.903   7.070   4.405 -1.3174 -1.0528 -1.0660
  901MOL0     H21606   4.943   6.981   4.252  1.2215 -1.0444  0.9416
  901MOL0     H21607   4.884   7.164   4.115  0.5575  2.4640  0.2505
  901MOL0     H21608   4.870   7.281   4.237 -0.5361  0.3760 -2.0653
  901MOL0     H21609   4.697   7.034   4.200 -0.5637  0.1880  1.9271
  901MOL0     H21610   4.679   7.133   4.345 -3.1516 -2.1943 -0.4545
  901MOL0     H21611   4.671   7.235   4.061  0.5597  0.1119  1.0352
  901MOL0     H21612   4.628   7.329   4.211  1.1176 -0.8994  1.5212
  901MOL0     H21613   4.467   7.091   4.114  4.3211 -1.6899  1.9655
  901MOL0     H21614   4.433   7.187   4.262  1.7482  0.2503  1.4898
  901MOL0     H21615   5.550   7.041   4.263  2.4386  1.2008 -0.9653
  901MOL0     H21616   5.768   6.988   4.172 -0.2285  0.9736  0.0834
  901MOL0     H21617   6.164   7.055   3.871  3.0254 -0.1773  0.0466
  901MOL0     H21618   6.344   6.963   3.797 -1.6924  2.9294 -2.3477
  901MOL0     H21619   6.944   5.513   3.318 -4.3447 -0.3335  2.5882
  901MOL0     H21620   6.997   5.461   3.559 -0.8240  0.6368  0.6614
  901MOL0     H21621   7.185   5.485   3.931  0.2855 -0.2707  0.0411
  901MOL0     H21622   7.238   5.453   4.158  0.6107  2.1053  3.8305
  901MOL0     H21623   7.202   5.501   4.538  2.7213  0.2691 -0.5052
  901MOL0     H21624   7.271   5.531   4.379 -1.0605  1.5221  1.5547
  901MOL0     H21625   7.335   5.313   4.411 -2.1872 -0.4770 -4.2005
  901MOL0     H21626   7.158   5.276   4.368 -0.1424  1.6366 -1.9726
  901MOL0     H21627   7.136   5.317   4.629 -2.1097 -1.1210 -0.3526
  901MOL0     H21628   7.305   5.247   4.617  0.5471 -1.6144 -1.9012
  901MOL0     H21629   7.149   5.085   4.667 -2.0008 -1.3531  0.1904
  901MOL0     H21630   7.034   5.129   4.543 -0.7890  0.0578  4.4321
  901MOL0     H21631   7.326   4.867   4.373  1.8432 -1.2920  3.3790
  901MOL0     H21632   6.878   5.608   4.299 -1.0040  0.5378 -0.8799
  901MOL0     H21633   6.819   5.816   4.015 -1.1142  0.3983 -1.5041
  901MOL0     H21634   6.725   5.671   3.968  1.2924  0.3738 -1.2552
  901MOL0     H21635   6.718   5.751   4.130 -1.0955  1.9524 -1.5137
  902MOL0     O21636   6.673   4.513   9.893 -0.4472  0.0719 -0.2674
  902MOL0     C21637   6.730   4.593   9.817 -0.3240  0.4770 -0.9706
  902MOL0     O21638   6.670   4.663   9.726 -0.6816  0.2074  0.8950
  902MOL0     C21639   6.559   4.630   9.661 -0.4160  0.3585 -0.5914
  902MOL0     C21640   6.538   4.719   9.551  0.4686  0.2064  0.3100
  902MOL0     C21641   6.420   4.711   9.472 -0.8571  0.2810  0.6265
  902MOL0     C21642   6.327   4.612   9.505  0.1455 -0.0070  0.9378
  902MOL0     O21643   6.220   4.612   9.419 -0.0388  0.3462 -0.3592
  902MOL0     C21644   6.104   4.540   9.459 -1.1098 -0.3677 -0.3442
  902MOL0     C21645   5.979   4.575   9.370 -0.8616  1.0627 -0.4826
  902MOL0     C21646   5.844   4.550   9.442  1.1517  0.5313 -0.7251
  902MOL0     C21647   5.737   4.598   9.348 -0.2765 -0.3622  0.5352
  902MOL0     C21648   5.595   4.576   9.404  0.4008 -0.0013 -0.4633
  902MOL0     C21649   5.551   4.690   9.502 -0.3005 -0.6802 -0.1851
  902MOL0     C21650   5.494   4.651   9.638  0.1154  0.1821 -0.8578
  902MOL0     C21651   5.456   4.789   9.713 -0.8168  0.1004  0.8485
  902MOL0     N21652   5.369   4.881   9.639 -0.1326 -0.6673  0.6600
  902MOL0     C21653   5.241   4.869   9.605  0.3700  0.2484  0.1157
  902MOL0     C21654   5.202   4.978   9.533 -0.9114  0.3491  0.5891
  902MOL0     C21655   5.079   4.990   9.457 -0.7664 -0.4237  0.2107
  902MOL0     C21656   4.992   4.860   9.434 -1.1074 -0.7163  0.1553
  902MOL0     C21657   4.859   4.867   9.358  0.4843  0.2401 -0.2890
  902MOL0     C21658   4.775   4.984   9.410  0.3190  0.8272 -0.0334
  902MOL0     O21659   4.640   4.955   9.373  0.2501 -0.0148 -0.0119
  902MOL0     C21660   4.547   5.018   9.448  0.1055  0.3675 -0.0320
  902MOL0     C21661   4.470   4.938   9.531 -0.1316  0.4605  0.0537
  902MOL0     C21662   4.372   4.997   9.609 -0.1708 -0.0404 -0.2946
  902MOL0     C21663   4.335   5.135   9.610  0.4996  0.2186  0.3646
  902MOL0     C21664   4.239   5.190   9.711  0.0970  0.0076  0.8515
  902MOL0     O21665   4.239   5.132   9.828  0.9110 -0.0434 -0.2751
  902MOL0     C21666   4.128   5.141   9.910 -0.0884 -0.1844  0.6615
  902MOL0     C21667   4.150   5.104  10.045 -0.8435  0.5030  0.2017
  902MOL0     C21668   4.047   5.099  10.139 -0.1806 -0.5309 -0.4507
  902MOL0     C21669   3.928   5.147  10.096  1.1072  0.8356 -1.1553
  902MOL0     O21670   3.825   5.153  10.189 -0.2307 -0.1711 -0.2734
  902MOL0     C21671   3.848   5.211  10.315  0.3409  0.0110 -0.2853
  902MOL0     C21672   3.720   5.295  10.353 -0.0805  0.4941 -0.3142
  902MOL0     C21673   3.698   5.322  10.502 -0.2047  0.8578  0.7173
  902MOL0     C21674   3.586   5.414  10.532 -0.3694  0.3529  0.1496
  902MOL0     C21675   3.599   5.484  10.668  0.9808 -0.2740  0.6430
  902MOL0     C21676   3.485   5.587  10.688  0.5982 -0.7745  0.9426
  902MOL0     C21677   3.488   5.621  10.838 -0.5440 -0.0856  0.4965
  902MOL0     C21678   3.398   5.746  10.869  0.7628 -0.3306  0.4562
  902MOL0    Cl21679   3.228   5.721  10.859  0.0270  0.0048  0.3017
  902MOL0     C21680   3.894   5.169   9.962  0.6278  0.0749 -0.0240
  902MOL0     C21681   3.988   5.164   9.866 -0.3394  1.0253 -0.3785
  902MOL0     O21682   4.165   5.281   9.672  0.0718 -0.3119 -0.4807
  902MOL0     C21683   4.413   5.213   9.523  0.5015 -0.1845 -0.5591
  902MOL0     C21684   4.526   5.160   9.450 -0.6678  0.3198 -0.0725
  902MOL0     N21685   5.314   5.061   9.527  1.1390  0.5772 -0.2011
  902MOL0     N21686   5.413   5.004   9.584  0.4799  0.5420  0.1858
  902MOL0     C21687   6.348   4.526   9.616 -0.3984 -0.9485 -0.0614
  902MOL0     C21688   6.460   4.535   9.689 -0.4762  0.3073 -0.3736
  902MOL0     C21689   6.880   4.593   9.843  0.0310 -0.6851  0.2859
  902MOL0     C21690   6.929   4.502   9.944 -0.1076 -0.2530 -0.0268
  902MOL0     C21691   7.057   4.509   9.991 -0.6932  0.2569 -0.5410
  902MOL0     C21692   7.150   4.592   9.933 -0.8264  0.1726  0.8539
  902MOL0     O21693   7.284   4.599   9.953 -0.9560 -0.0866 -0.0644
  902MOL0     C21694   7.338   4.592  10.085 -0.4790  0.0717  0.4130
  902MOL0     C21695   7.494   4.581  10.082 -1.3294  0.3443 -0.6401
  902MOL0     C21696   7.552   4.705  10.020 -0.2669 -0.0117 -0.1153
  902MOL0     C21697   7.568   4.818  10.116 -0.4511 -1.4860 -0.1743
  902MOL0     C21698   7.445   4.907  10.120  0.4086  0.3124 -0.5975
  902MOL0     C21699   7.340   4.961  10.133  0.2017 -0.9470  0.3693
  902MOL0     C21700   7.107   4.669   9.828  0.0140 -0.9194  0.3040
  902MOL0     C21701   6.981   4.676   9.779 -0.7417 -0.0575  0.7797
  902MOL0     C21702   6.953   4.774   9.672 -0.7426 -0.2749  0.3087
  902MOL0     H21703   6.618   4.790   9.531  1.6133 -1.7421 -2.7312
  902MOL0     H21704   6.410   4.780   9.389 -0.2329  2.8122  2.5307
  902MOL0     H21705   6.120   4.433   9.451 -0.8687 -0.4762  1.2002
  902MOL0     H21706   6.091   4.572   9.563  0.4289  0.5787 -0.3977
  902MOL0     H21707   5.998   4.523   9.275  3.3651  0.2728  0.6087
  902MOL0     H21708   5.985   4.682   9.349 -0.3611  1.3396  0.9302
  902MOL0     H21709   5.839   4.600   9.539  1.1347 -3.4179  1.5355
  902MOL0     H21710   5.830   4.443   9.460 -1.9797  0.2946 -3.4951
  902MOL0     H21711   5.757   4.703   9.322  0.2064 -0.3426  0.9587
  902MOL0     H21712   5.730   4.536   9.259 -0.1291  1.0896 -0.5348
  902MOL0     H21713   5.527   4.582   9.318  0.0052 -1.5754 -0.2768
  902MOL0     H21714   5.590   4.482   9.460  3.2901 -1.2391 -2.0897
  902MOL0     H21715   5.639   4.754   9.513  2.7027 -4.7687  2.5820
  902MOL0     H21716   5.474   4.744   9.446  0.4464 -2.1647 -2.8159
  902MOL0     H21717   5.572   4.603   9.698  0.0323  0.0717 -0.8390
  902MOL0     H21718   5.406   4.586   9.634  0.2561 -0.1688  0.8205
  902MOL0     H21719   5.415   4.765   9.811 -0.7769  1.1064  1.1135
  902MOL0     H21720   5.552   4.837   9.735  0.4311 -1.8760  0.0409
  902MOL0     H21721   5.175   4.784   9.617 -1.5561  1.8199  1.3295
  902MOL0     H21722   5.027   5.063   9.521 -2.7729 -2.3138  0.8832
  902MOL0     H21723   5.103   5.032   9.359  3.9363  1.2136  1.8111
  902MOL0     H21724   5.040   4.801   9.356 -2.2040 -0.4383 -0.7633
  902MOL0     H21725   4.981   4.805   9.528 -0.5366 -0.0033  0.6459
  902MOL0     H21726   4.800   4.778   9.379  3.6790 -1.8738  0.3393
  902MOL0     H21727   4.865   4.888   9.250 -0.9176 -2.6561 -1.0461
  902MOL0     H21728   4.807   5.084   9.380 -1.0546  1.0868 -0.7237
  902MOL0     H21729   4.775   4.990   9.519  2.2735 -0.4463  0.0817
  902MOL0     H21730   4.496   4.833   9.526  1.3664  0.8085  0.0153
  902MOL0     H21731   4.306   4.933   9.666 -0.9825  0.7940 -0.2832
  902MOL0     H21732   4.245   5.065  10.080 -1.9448 -4.3234 -1.3857
  902MOL0     H21733   4.061   5.066  10.241  0.5284 -3.0137 -1.2889
  902MOL0     H21734   3.864   5.134  10.391  4.6377  1.7345  0.8605
  902MOL0     H21735   3.945   5.263  10.310  0.2953  0.2428  1.0610
  902MOL0     H21736   3.718   5.390  10.299 -1.8465 -0.9040 -2.9637
  902MOL0     H21737   3.629   5.238  10.331 -2.1900  2.6968  2.0968
  902MOL0     H21738   3.682   5.228  10.557  0.9457  1.4399  2.0927
  902MOL0     H21739   3.790   5.366  10.540  0.4718  0.6165 -0.5764
  902MOL0     H21740   3.490   5.361  10.536 -0.2170 -0.0951 -1.6588
  902MOL0     H21741   3.584   5.485  10.449  0.5302  0.8454  0.5338
  902MOL0     H21742   3.695   5.535  10.685  0.3335  1.9547 -1.8232
  902MOL0     H21743   3.571   5.411  10.745 -1.3818  0.1534  0.2665
  902MOL0     H21744   3.517   5.672  10.627  1.5616 -1.5901  0.2945
  902MOL0     H21745   3.381   5.558  10.671  0.1362  1.2748 -0.0105
  902MOL0     H21746   3.589   5.643  10.873 -1.5628  1.9919  2.3788
  902MOL0     H21747   3.464   5.533  10.898 -0.7239 -1.2306 -1.1751
  902MOL0     H21748   3.425   5.781  10.969 -2.3411 -1.1771  1.7154
  902MOL0     H21749   3.420   5.825  10.797 -2.8152 -0.1951 -0.7289
  902MOL0     H21750   3.788   5.174   9.941  1.1969  1.6431 -3.1122
  902MOL0     H21751   3.962   5.156   9.761 -1.3518 -1.7039 -0.0081
  902MOL0     H21752   4.396   5.320   9.527 -0.1732 -0.2551 -1.4006
  902MOL0     H21753   4.586   5.235   9.398  0.4236 -0.9645 -0.7231
  902MOL0     H21754   6.268   4.461   9.649 -0.9169  0.4705  1.6676
  902MOL0     H21755   6.477   4.464   9.769 -2.2931  0.5571  0.2595
  902MOL0     H21756   6.855   4.436   9.988  1.0924 -2.3715 -1.0076
  902MOL0     H21757   7.084   4.451  10.078  0.0116  0.4763 -0.6054
  902MOL0     H21758   7.300   4.498  10.126 -0.8711 -0.3553 -0.8594
  902MOL0     H21759   7.311   4.677  10.147 -0.4036 -0.2459  0.8843
  902MOL0     H21760   7.538   4.498  10.026  1.9554  0.2320  1.7913
  902MOL0     H21761   7.541   4.551  10.176 -1.9082  0.1646 -0.4001
  902MOL0     H21762   7.498   4.722   9.927  0.2270  1.0472 -0.2181
  902MOL0     H21763   7.651   4.689   9.978 -0.4052 -3.4461  0.5599
  902MOL0     H21764   7.615   4.794  10.212  0.4825 -2.5704 -0.8710
  902MOL0     H21765   7.646   4.884  10.076 -1.6219  2.3242  3.1800
  902MOL0     H21766   7.244   5.008  10.124  1.3206  1.8923  1.9977
  902MOL0     H21767   7.184   4.738   9.795 -0.5314 -1.4565 -2.3945
  902MOL0     H21768   6.870   4.843   9.686 -0.5293  0.2119 -0.6997
  902MOL0     H21769   7.045   4.831   9.653 -0.4360 -0.0191  2.2983
  902MOL0     H21770   6.931   4.722   9.578  0.5093  0.2200 -0.2951
  903MOL0     O21771   5.734   3.144   4.393 -0.2965  1.0163  0.0485
  903MOL0     C21772   5.708   3.046   4.471 -0.2223  0.2880 -0.6001
  903MOL0     O21773   5.713   2.917   4.437 -0.4345  0.0648 -0.2846
  903MOL0     C21774   5.711   2.887   4.303  0.5824  0.0798 -0.6756
  903MOL0     C21775   5.609   2.803   4.251  0.0591 -0.6715  0.0873
  903MOL0     C21776   5.613   2.755   4.120 -0.5887  0.5528 -0.0290
  903MOL0     C21777   5.723   2.778   4.031 -0.0360  0.5040  0.1378
  903MOL0     O21778   5.716   2.709   3.923 -0.3124 -0.6990  0.4599
  903MOL0     C21779   5.693   2.795   3.813  0.8739  0.9753 -0.9464
  903MOL0     C21780   5.661   2.693   3.696 -0.2561 -0.8788  1.0447
  903MOL0     C21781   5.639   2.773   3.567 -0.7563  0.2913 -0.7198
  903MOL0     C21782   5.771   2.849   3.532 -0.3395  0.3252 -1.5443
  903MOL0     C21783   5.763   2.879   3.381  0.0806  0.5330  0.9754
  903MOL0     C21784   5.840   3.006   3.343 -0.3501 -0.5914 -0.0937
  903MOL0     C21785   5.990   2.977   3.351  1.0210 -0.8179 -0.0425
  903MOL0     C21786   6.064   3.114   3.351  0.2833 -1.0163 -0.6379
  903MOL0     N21787   6.203   3.094   3.359  0.0593 -0.6398  0.2959
  903MOL0     C21788   6.260   3.025   3.462  0.2279 -0.0915  0.7030
  903MOL0     C21789   6.387   3.061   3.460 -0.5761  1.2615  0.0858
  903MOL0     C21790   6.491   3.007   3.545  0.4152 -0.0706 -0.5407
  903MOL0     C21791   6.542   3.107   3.651  0.1375  0.3407 -1.1557
  903MOL0     C21792   6.654   3.052   3.740  0.7377 -0.1710 -0.8210
  903MOL0     C21793   6.674   3.142   3.865  0.6970  1.9625  1.0569
  903MOL0     O21794   6.709   3.271   3.812  0.3378 -0.0810  0.6965
  903MOL0     C21795   6.747   3.360   3.909  0.9563 -0.7356  0.4547
  903MOL0     C21796   6.767   3.340   4.043  0.7063  0.1902 -0.3304
  903MOL0     C21797   6.811   3.447   4.128 -0.2016  1.2232  0.1469
  903MOL0     C21798   6.841   3.571   4.077  0.9259  0.5940  0.1536
  903MOL0     C21799   6.889   3.678   4.172  0.5158 -0.0176 -0.7783
  903MOL0     O21800   6.852   3.809   4.141  0.0975 -0.2200 -1.0566
  903MOL0     C21801   6.871   3.918   4.223 -0.3567  0.1068 -1.0321
  903MOL0     C21802   6.858   4.046   4.177 -0.7807 -0.4688  0.0445
  903MOL0     C21803   6.859   4.157   4.267 -0.4469 -0.2431 -0.0781
  903MOL0     C21804   6.876   4.142   4.405  0.0358  1.0494 -0.3737
  903MOL0     O21805   6.846   4.246   4.487  0.0880  0.1313  0.5227
  903MOL0     C21806   6.822   4.230   4.628  0.3038 -0.1009 -0.1891
  903MOL0     C21807   6.765   4.350   4.699 -0.0405  0.7279 -0.4781
  903MOL0     C21808   6.621   4.396   4.645 -0.3368  0.7857  0.1882
  903MOL0     C21809   6.571   4.502   4.722  1.0558 -0.6150 -1.0674
  903MOL0     C21810   6.426   4.537   4.687 -0.5677 -0.5027  0.4675
  903MOL0     C21811   6.369   4.633   4.798 -0.2261 -0.6240 -0.1018
  903MOL0     C21812   6.222   4.684   4.771 -0.3063 -0.8530 -0.4273
  903MOL0     C21813   6.186   4.781   4.883 -0.0714  0.1161  0.9200
  903MOL0    Cl21814   6.170   4.701   5.049 -0.7603  0.4821  0.1755
  903MOL0     C21815   6.891   4.011   4.462  0.1110  0.5789  0.2629
  903MOL0     C21816   6.895   3.910   4.370  0.3509  0.4397  0.9351
  903MOL0     O21817   6.942   3.631   4.273 -0.5038 -1.8001  0.2319
  903MOL0     C21818   6.826   3.593   3.940  0.5589  1.0157 -0.2766
  903MOL0     C21819   6.781   3.484   3.858 -0.2032 -0.0541  0.2884
  903MOL0     N21820   6.414   3.138   3.356 -0.2097 -0.4741  1.0612
  903MOL0     N21821   6.305   3.160   3.294  0.9086 -0.2219  0.3849
  903MOL0     C21822   5.833   2.856   4.080  0.0898  1.3836  0.0742
  903MOL0     C21823   5.824   2.912   4.220  0.2618  0.6626  0.1061
  903MOL0     C21824   5.684   3.073   4.617 -0.9593 -0.3152 -0.7898
  903MOL0     C21825   5.584   2.993   4.679  0.0135 -0.8232 -0.6461
  903MOL0     C21826   5.568   2.998   4.808  0.6236  0.0022  0.7974
  903MOL0     C21827   5.641   3.073   4.890 -0.6951  0.3200 -0.1827
  903MOL0     O21828   5.605   3.078   5.019  0.2527 -0.1360  0.1257
  903MOL0     C21829   5.685   2.982   5.095  0.1030 -0.9907 -1.0836
  903MOL0     C21830   5.680   3.018   5.243 -0.1818 -0.2888  0.5234
  903MOL0     C21831   5.809   2.965   5.315 -0.6421  0.1889  0.0693
  903MOL0     C21832   5.814   2.824   5.367  0.2992 -0.2380  0.4325
  903MOL0     C21833   5.777   2.713   5.271 -0.3427 -0.5297  0.5094
  903MOL0     C21834   5.776   2.620   5.184 -0.5556  0.2406 -0.4550
  903MOL0     C21835   5.729   3.158   4.838  0.5927 -0.6499  0.1295
  903MOL0     C21836   5.751   3.178   4.700  1.0282  0.4760 -0.1063
  903MOL0     C21837   5.832   3.298   4.654  0.1943  1.1336  0.2525
  903MOL0     H21838   5.532   2.774   4.322  1.5570  1.0920  2.5903
  903MOL0     H21839   5.527   2.695   4.091  1.2260 -0.3697 -4.1491
  903MOL0     H21840   5.608   2.863   3.826  1.6257  1.6980  0.4150
  903MOL0     H21841   5.785   2.852   3.796  0.1604  2.8803  1.0095
  903MOL0     H21842   5.563   2.646   3.712 -1.1827 -0.1274 -1.8611
  903MOL0     H21843   5.742   2.619   3.688  0.6278  0.0262  1.4019
  903MOL0     H21844   5.546   2.830   3.565 -1.9193 -1.5384 -3.1207
  903MOL0     H21845   5.629   2.703   3.484 -0.5912  2.2686 -2.4871
  903MOL0     H21846   5.790   2.940   3.590  0.0652  0.7018 -2.2515
  903MOL0     H21847   5.857   2.784   3.553 -1.4339 -0.3737  1.2627
  903MOL0     H21848   5.802   2.792   3.328  1.9415  0.7038  1.9653
  903MOL0     H21849   5.659   2.892   3.350  0.5749  4.6736  0.5150
  903MOL0     H21850   5.807   3.041   3.245  2.0619  2.1379 -0.0373
  903MOL0     H21851   5.815   3.087   3.412  2.0812 -1.3600  1.8477
  903MOL0     H21852   6.006   2.907   3.268 -2.6412 -2.2777  0.3091
  903MOL0     H21853   6.015   2.931   3.447  0.5761  3.1026  2.1216
  903MOL0     H21854   6.042   3.181   3.267  0.8566 -1.3731 -1.0831
  903MOL0     H21855   6.033   3.159   3.446 -4.9067 -3.5782 -0.7834
  903MOL0     H21856   6.214   2.958   3.534  0.2198 -1.4878 -0.5508
  903MOL0     H21857   6.471   2.912   3.594  1.9448 -0.4789 -0.6630
  903MOL0     H21858   6.571   2.984   3.474 -2.5001 -2.1299 -3.4591
  903MOL0     H21859   6.578   3.197   3.602 -0.9422  2.0323  1.0187
  903MOL0     H21860   6.462   3.138   3.719  0.2613 -1.3507 -0.1732
  903MOL0     H21861   6.750   3.063   3.687 -1.1739  3.1886 -4.1177
  903MOL0     H21862   6.643   2.947   3.769  2.2673  0.3700  2.1609
  903MOL0     H21863   6.762   3.097   3.914 -0.6554 -3.6806 -0.8908
  903MOL0     H21864   6.591   3.133   3.936  1.3496 -1.9657  1.5777
  903MOL0     H21865   6.742   3.246   4.093 -0.5796  2.2341  3.2101
  903MOL0     H21866   6.816   3.431   4.235  2.0384 -1.0573 -0.1933
  903MOL0     H21867   6.846   4.054   4.070 -1.8400 -0.0945  0.1836
  903MOL0     H21868   6.841   4.257   4.229 -0.5382 -0.8689 -1.7853
  903MOL0     H21869   6.742   4.155   4.626 -1.0563  1.2757 -2.2369
  903MOL0     H21870   6.915   4.197   4.675  1.2836  2.6859  0.0559
  903MOL0     H21871   6.764   4.332   4.807  1.0556 -0.1988 -0.6067
  903MOL0     H21872   6.832   4.433   4.675  1.9431 -1.1776 -2.0025
  903MOL0     H21873   6.635   4.434   4.543  0.1276  1.1725  0.3920
  903MOL0     H21874   6.548   4.315   4.639  1.2375 -0.5958 -2.3238
  903MOL0     H21875   6.630   4.593   4.714 -1.8584  1.5884  0.6100
  903MOL0     H21876   6.566   4.457   4.822 -0.9879  3.0017  0.6673
  903MOL0     H21877   6.364   4.447   4.697 -4.2407  1.8720  1.2551
  903MOL0     H21878   6.424   4.582   4.587 -2.3940 -0.4480  0.4910
  903MOL0     H21879   6.375   4.588   4.897  2.6353  1.2739  0.7174
  903MOL0     H21880   6.436   4.718   4.813 -1.4122  0.5611 -1.2321
  903MOL0     H21881   6.139   4.613   4.768 -3.6328  2.4686  2.7428
  903MOL0     H21882   6.225   4.739   4.676  0.9149  1.7062  1.0008
  903MOL0     H21883   6.258   4.862   4.896  2.4710 -1.9005  0.2650
  903MOL0     H21884   6.092   4.836   4.870  0.4119  0.9952  1.0387
  903MOL0     H21885   6.904   3.981   4.566 -0.2334  0.6675  0.3320
  903MOL0     H21886   6.898   3.806   4.402  1.7975 -0.2686 -1.2971
  903MOL0     H21887   6.844   3.693   3.901  0.8289  1.7054  1.4897
  903MOL0     H21888   6.772   3.500   3.751 -4.1244 -2.2499  0.1011
  903MOL0     H21889   5.915   2.876   4.012 -0.3390  1.0648 -0.5393
  903MOL0     H21890   5.915   2.959   4.255  0.3595 -0.3279  1.2500
  903MOL0     H21891   5.529   2.923   4.617  0.7635 -1.4808 -0.5841
  903MOL0     H21892   5.488   2.935   4.845 -0.6886 -0.0794 -1.9647
  903MOL0     H21893   5.790   2.988   5.067  0.0204  0.5238 -1.1477
  903MOL0     H21894   5.653   2.877   5.092 -1.3948 -0.5557 -0.9749
  903MOL0     H21895   5.596   2.972   5.296 -1.3786  2.2242  0.9825
  903MOL0     H21896   5.674   3.127   5.250  0.3469 -0.2229  0.0323
  903MOL0     H21897   5.825   3.024   5.406  1.0336 -0.3403  0.1659
  903MOL0     H21898   5.893   2.990   5.250 -1.8404  1.9311 -0.8704
  903MOL0     H21899   5.919   2.804   5.389 -0.1525 -0.6680  2.4121
  903MOL0     H21900   5.755   2.813   5.459 -0.7389 -2.5911 -0.4330
  903MOL0     H21901   5.782   2.534   5.120  0.0987  0.6521 -0.9659
  903MOL0     H21902   5.780   3.231   4.902 -0.7473  1.7948 -1.4520
  903MOL0     H21903   5.877   3.297   4.554 -0.0874 -0.1530  0.1195
  903MOL0     H21904   5.789   3.396   4.675 -1.1998  0.1369  2.4185
  903MOL0     H21905   5.923   3.305   4.715  0.4507  1.0586 -0.1153
  904MOL0     O21906   9.877   9.300   9.709 -1.1227 -0.7673  0.2743
  904MOL0     C21907   9.894   9.342   9.823 -0.0810  0.6015 -0.1024
  904MOL0     O21908   9.920   9.254   9.928 -0.1373  0.1019 -0.5180
  904MOL0     C21909   9.882   9.122   9.911 -0.6255  0.0719 -0.2054
  904MOL0     C21910   9.752   9.084   9.891 -0.0604  0.1229 -0.9032
  904MOL0     C21911   9.721   8.949   9.903  0.0179 -1.0937 -0.0703
  904MOL0     C21912   9.813   8.848   9.933 -0.8842 -0.7719 -0.6072
  904MOL0     O21913   9.766   8.735   9.923  0.3095  0.2710  0.9712
  904MOL0     C21914   9.853   8.619   9.899  1.1513  0.3518  0.4529
  904MOL0     C21915   9.763   8.494   9.923 -1.2211 -0.5152 -1.0148
  904MOL0     C21916   9.812   8.371   9.850 -0.0714 -0.0678  0.6497
  904MOL0     C21917   9.967   8.337   9.872  0.1167 -0.6567  0.4083
  904MOL0     C21918  10.034   8.213   9.808 -0.3966 -0.5144 -0.0269
  904MOL0     C21919  10.045   8.226   9.655  0.1355 -0.5886  1.3143
  904MOL0     C21920  10.085   8.102   9.579 -0.4446  1.1111 -0.4046
  904MOL0     C21921  10.231   8.040   9.621  0.0080  0.1083 -0.5444
  904MOL0     N21922  10.357   8.110   9.582 -0.1845 -0.0805 -1.1625
  904MOL0     C21923  10.487   8.087   9.632  0.0781 -0.3782  0.0796
  904MOL0     C21924  10.569   8.166   9.557  0.5748  0.1068 -0.8190
  904MOL0     C21925  10.707   8.205   9.596  0.0472 -0.1367 -0.0539
  904MOL0     C21926  10.727   8.357   9.612 -0.4869  0.1614  0.2227
  904MOL0     C21927  10.872   8.396   9.608 -0.1294 -0.5335 -1.0049
  904MOL0     C21928  10.897   8.535   9.632  0.5584  0.3973 -0.3748
  904MOL0     O21929  10.825   8.628   9.546 -0.1416 -0.5408  0.0805
  904MOL0     C21930  10.845   8.756   9.587 -0.2887  0.0385  0.7230
  904MOL0     C21931  10.976   8.816   9.567  0.5912 -0.1054 -0.3827
  904MOL0     C21932  10.992   8.950   9.611  0.4601 -0.9697 -0.2735
  904MOL0     C21933  10.882   9.024   9.682 -0.8268  0.7073  0.7455
  904MOL0     C21934  10.902   9.166   9.724  0.1191 -0.4084  0.2783
  904MOL0     O21935  10.790   9.252   9.741 -0.4602  0.4385  0.4094
  904MOL0     C21936  10.797   9.377   9.792 -0.4085 -0.6954  0.1917
  904MOL0     C21937  10.874   9.407   9.904 -0.3382 -0.2070 -0.4039
  904MOL0     C21938  10.856   9.533   9.961 -0.2577 -0.1114  0.7620
  904MOL0     C21939  10.772   9.626   9.903 -1.0517 -0.4447  0.3472
  904MOL0     O21940  10.772   9.751   9.963  0.0279 -0.3244  0.0799
  904MOL0     C21941  10.653   9.829   9.947 -0.9978  0.0336 -0.1608
  904MOL0     C21942  10.668   9.969  10.018  0.0703  1.0569  1.0841
  904MOL0     C21943  10.533  10.042  10.014 -0.6098  0.4021  0.1122
  904MOL0     C21944  10.542  10.191  10.074 -0.4737 -0.1504  0.5901
  904MOL0     C21945  10.446  10.289  10.000 -0.5917 -0.1160  0.1626
  904MOL0     C21946  10.329  10.366  10.087  0.8280  0.6106  0.1379
  904MOL0     C21947  10.230  10.430   9.987  1.0405 -0.3028  0.1646
  904MOL0     C21948  10.169  10.562  10.028 -1.1825 -0.0204 -0.2363
  904MOL0    Cl21949  10.286  10.693  10.069 -0.5694 -0.0794 -0.0007
  904MOL0     C21950  10.698   9.594   9.789 -0.7201 -0.3538 -0.3795
  904MOL0     C21951  10.716   9.473   9.733  0.5917  0.3986 -1.0039
  904MOL0     O21952  11.019   9.210   9.723  0.4676 -0.8178  0.1609
  904MOL0     C21953  10.763   8.952   9.694 -0.1225  0.3022  0.1624
  904MOL0     C21954  10.740   8.823   9.651 -0.1269  0.3276  0.8896
  904MOL0     N21955  10.492   8.222   9.456 -0.2251  0.7312  0.2691
  904MOL0     N21956  10.372   8.176   9.465 -0.2644  0.2172 -0.2503
  904MOL0     C21957   9.944   8.887   9.942 -0.3853 -0.2993 -0.2133
  904MOL0     C21958   9.975   9.023   9.935  0.5074  0.3044 -0.5697
  904MOL0     C21959   9.895   9.485   9.845 -0.4122  0.2125  0.3865
  904MOL0     C21960   9.914   9.533   9.978 -0.6915 -0.3480  0.4688
  904MOL0     C21961   9.908   9.666  10.016 -0.0513  0.2117 -0.1779
  904MOL0     C21962   9.872   9.757   9.914  0.3484  0.3404 -0.1900
  904MOL0     O21963   9.856   9.889   9.951 -0.8391 -0.1149 -0.3832
  904MOL0     C21964   9.973   9.932  10.025 -0.2378  0.2147  0.6592
  904MOL0     C21965  10.001  10.079  10.011 -0.7038 -0.0149 -0.6678
  904MOL0     C21966   9.882  10.140  10.079  0.5616  0.9879 -0.1176
  904MOL0     C21967   9.868  10.296  10.089 -0.0095  0.0538 -0.3265
  904MOL0     C21968   9.941  10.356  10.198 -1.1612 -0.9954 -0.0481
  904MOL0     C21969   9.990  10.399  10.300  0.9065  0.3488 -0.7161
  904MOL0     C21970   9.843   9.710   9.785  0.4778 -0.0731  0.2962
  904MOL0     C21971   9.854   9.579   9.749 -0.8366 -0.0890  0.5011
  904MOL0     C21972   9.823   9.545   9.604  0.1302  0.2814 -0.4398
  904MOL0     H21973   9.679   9.163   9.872 -2.4951 -2.5032 -3.4791
  904MOL0     H21974   9.622   8.912   9.879 -1.3241  3.0107 -1.7585
  904MOL0     H21975   9.890   8.613   9.796 -1.3766  2.1081 -0.6674
  904MOL0     H21976   9.932   8.627   9.973 -1.3590  1.9404  3.1729
  904MOL0     H21977   9.656   8.507   9.905 -1.6395  1.2368  2.0128
  904MOL0     H21978   9.783   8.480  10.030  1.9580  6.5344 -0.1177
  904MOL0     H21979   9.794   8.389   9.743  1.0796 -0.5231  0.3677
  904MOL0     H21980   9.749   8.286   9.877 -0.0706 -0.0753  0.6282
  904MOL0     H21981  10.029   8.418   9.831  0.0566 -1.5300 -1.5508
  904MOL0     H21982   9.984   8.327   9.979 -4.0107  1.1264  1.4159
  904MOL0     H21983  10.133   8.206   9.855 -0.4325 -0.0530  0.1185
  904MOL0     H21984   9.974   8.126   9.833 -2.1456  0.9396  1.0521
  904MOL0     H21985   9.951   8.269   9.620  1.7551  2.1626 -0.0187
  904MOL0     H21986  10.113   8.308   9.630 -1.3149  0.4154  0.4873
  904MOL0     H21987  10.091   8.140   9.477 -5.5313  3.1504 -0.2458
  904MOL0     H21988  10.003   8.032   9.601  1.8885 -1.4176  0.8428
  904MOL0     H21989  10.229   8.038   9.730 -0.1262 -0.9592 -0.5514
  904MOL0     H21990  10.251   7.940   9.581 -0.6452 -0.5919  0.8199
  904MOL0     H21991  10.522   8.033   9.720 -0.7586 -2.4384 -0.7900
  904MOL0     H21992  10.736   8.166   9.694  1.9609 -0.1331 -0.5865
  904MOL0     H21993  10.779   8.161   9.527 -0.8842 -1.8968  0.0501
  904MOL0     H21994  10.681   8.420   9.536 -2.9262 -0.3045  1.1958
  904MOL0     H21995  10.683   8.376   9.711 -1.1970 -0.6570  0.0830
  904MOL0     H21996  10.907   8.365   9.509 -0.2249 -0.7989 -0.9573
  904MOL0     H21997  10.931   8.336   9.678 -0.4325 -1.4748 -1.5380
  904MOL0     H21998  11.005   8.549   9.625  0.6939  1.0516  2.1416
  904MOL0     H21999  10.870   8.548   9.737 -2.1286 -2.9119 -0.4591
  904MOL0     H22000  11.052   8.758   9.515  1.0192  0.0290  0.0837
  904MOL0     H22001  11.091   8.990   9.599  0.1786 -0.4346 -0.8657
  904MOL0     H22002  10.946   9.338   9.947  0.9495  0.5846 -1.2169
  904MOL0     H22003  10.928   9.554  10.039 -0.7422  0.8897  0.9523
  904MOL0     H22004  10.648   9.848   9.840 -1.5587  0.0007 -0.1449
  904MOL0     H22005  10.570   9.767   9.982  1.0333 -1.6239  2.0805
  904MOL0     H22006  10.696   9.957  10.123 -0.7436 -0.7890  1.1268
  904MOL0     H22007  10.740  10.020   9.953 -0.0772 -1.4579 -1.2304
  904MOL0     H22008  10.510  10.061   9.909 -1.3225  2.2578  0.5603
  904MOL0     H22009  10.453   9.986  10.065 -1.4334  0.4133 -1.1366
  904MOL0     H22010  10.648  10.212  10.056 -0.6097  0.3008  0.2850
  904MOL0     H22011  10.524  10.197  10.182  1.1713  0.4875  0.8607
  904MOL0     H22012  10.393  10.247   9.914 -1.7823  2.8336 -0.6602
  904MOL0     H22013  10.500  10.376   9.962 -0.8708  1.1736  2.5156
  904MOL0     H22014  10.270  10.301  10.152  1.7562 -0.8834 -0.4573
  904MOL0     H22015  10.367  10.441  10.157 -1.6345  1.1486  0.9988
  904MOL0     H22016  10.146  10.360   9.979  0.1091  0.6206  1.5181
  904MOL0     H22017  10.272  10.457   9.890 -0.5912 -0.2780 -0.5579
  904MOL0     H22018  10.097  10.582   9.948  0.1882 -3.0004 -2.4091
  904MOL0     H22019  10.102  10.556  10.115  0.7243 -0.0440  1.3028
  904MOL0     H22020  10.639   9.665   9.732 -0.3784 -1.0933 -1.7011
  904MOL0     H22021  10.671   9.440   9.640  2.8525 -0.2233 -1.9483
  904MOL0     H22022  10.694   9.005   9.759  0.7322 -0.2034  1.5403
  904MOL0     H22023  10.643   8.780   9.672 -1.2524  2.0986 -0.4293
  904MOL0     H22024  10.022   8.814   9.962  1.9626  2.0882 -0.0715
  904MOL0     H22025  10.077   9.046   9.963  0.2631 -1.8168  2.6460
  904MOL0     H22026   9.930   9.460  10.057 -0.6735 -2.1769 -1.1413
  904MOL0     H22027   9.936   9.686  10.119  1.0799  3.0966 -0.9426
  904MOL0     H22028  10.055   9.879   9.976  0.1304  0.4919  0.9737
  904MOL0     H22029   9.972   9.913  10.132  4.7099 -1.0936  0.6924
  904MOL0     H22030   9.993  10.097   9.904 -2.0876  1.6649 -0.3127
  904MOL0     H22031  10.090  10.112  10.066 -0.3022 -2.1859  0.0967
  904MOL0     H22032   9.856  10.101  10.178 -2.5870 -1.2195 -1.6607
  904MOL0     H22033   9.803  10.108  10.010  1.1977  1.5491 -1.1338
  904MOL0     H22034   9.899  10.342   9.994  1.0257 -2.4491 -1.3048
  904MOL0     H22035   9.762  10.319  10.093 -0.5066 -1.4916 -2.4456
  904MOL0     H22036  10.017  10.455  10.388  1.3153  0.2340 -0.7651
  904MOL0     H22037   9.793   9.782   9.721  1.2021 -0.2366 -0.4626
  904MOL0     H22038   9.812   9.636   9.546  1.8191  0.6590 -0.2189
  904MOL0     H22039   9.915   9.497   9.569 -0.7141 -0.9897 -1.0234
  904MOL0     H22040   9.741   9.473   9.603 -1.0596  1.5811  0.4577
  905MOL0     O22041  11.099   1.385   9.121 -0.3713 -0.1447  0.0092
  905MOL0     C22042  11.056   1.302   9.040  0.9636 -0.1248 -0.2678
  905MOL0     O22043  11.065   1.319   8.900 -0.9335 -0.3066  0.0749
  905MOL0     C22044  11.139   1.420   8.858 -0.2724 -0.2254  0.8522
  905MOL0     C22045  11.270   1.449   8.909  0.7325  0.3620  0.1592
  905MOL0     C22046  11.337   1.546   8.857 -0.3093 -0.8610  1.0997
  905MOL0     C22047  11.285   1.625   8.755  0.1216 -0.9722 -0.4469
  905MOL0     O22048  11.372   1.731   8.698  0.1614  0.7153  0.2371
  905MOL0     C22049  11.511   1.745   8.738  1.0700  0.0161 -0.5150
  905MOL0     C22050  11.568   1.875   8.692 -0.0839  0.6444  0.9018
  905MOL0     C22051  11.602   1.886   8.541 -0.4140 -0.4635 -0.3824
  905MOL0     C22052  11.711   1.786   8.507  0.0394 -0.5682  0.8332
  905MOL0     C22053  11.746   1.793   8.366 -0.2619 -0.5629  0.6170
  905MOL0     C22054  11.856   1.692   8.331 -0.3484 -0.5248 -0.1371
  905MOL0     C22055  11.906   1.694   8.181  0.6923 -0.0493 -0.2426
  905MOL0     C22056  11.805   1.627   8.079 -0.6621 -0.5320 -0.0948
  905MOL0     N22057  11.807   1.482   8.097  0.0983 -0.2912  0.7843
  905MOL0     C22058  11.915   1.399   8.089 -0.2016  0.5979 -0.0041
  905MOL0     C22059  11.867   1.282   8.052 -0.2693 -0.1254 -0.0053
  905MOL0     C22060  11.959   1.160   8.010  1.2131 -0.6565  0.6878
  905MOL0     C22061  12.005   1.102   8.132 -0.9859 -0.1432  0.0381
  905MOL0     C22062  12.135   1.020   8.116  0.3931 -0.2862  0.7243
  905MOL0     C22063  12.169   0.939   8.245  0.4104 -0.0475 -0.8231
  905MOL0     O22064  12.310   0.943   8.268 -0.2905 -0.5218 -0.2879
  905MOL0     C22065  12.403   0.874   8.193 -0.1675 -0.8501  0.3618
  905MOL0     C22066  12.392   0.739   8.148 -0.3817 -0.6289  0.0458
  905MOL0     C22067  12.492   0.682   8.069  0.1879  0.0219 -0.1217
  905MOL0     C22068  12.597   0.765   8.016  0.5843 -0.3023  0.7818
  905MOL0     C22069  12.702   0.714   7.928 -0.7365 -0.6906  0.4348
  905MOL0     O22070  12.700   0.583   7.907 -0.1758 -0.6257  0.6182
  905MOL0     C22071  12.812   0.521   7.959 -0.1410  0.2349  1.1777
  905MOL0     C22072  12.825   0.381   7.929 -0.6857 -0.5133 -1.1399
  905MOL0     C22073  12.922   0.298   8.000  0.3953 -0.3629  1.0489
  905MOL0     C22074  13.016   0.355   8.075 -0.5305  0.2508 -0.6223
  905MOL0     O22075  13.134   0.288   8.123  0.4069 -0.1746  0.2897
  905MOL0     C22076  13.105   0.161   8.180  0.5038 -0.4137 -0.9833
  905MOL0     C22077  13.184   0.148   8.312 -0.9263 -0.4246 -0.5403
  905MOL0     C22078  13.336   0.147   8.277  0.7347 -0.4385  0.3343
  905MOL0     C22079  13.418   0.149   8.400  0.0084 -0.5862 -0.7128
  905MOL0     C22080  13.414   0.285   8.473 -0.5947  0.0349 -0.0241
  905MOL0     C22081  13.459   0.256   8.619 -0.0136 -0.8656 -0.0906
  905MOL0     C22082  13.597   0.182   8.638  0.0644  0.0435  0.1762
  905MOL0     C22083  13.686   0.260   8.731 -0.1347 -0.5734  0.2253
  905MOL0    Cl22084  13.740   0.419   8.653  0.3824  0.7319  0.1108
  905MOL0     C22085  13.015   0.496   8.077 -0.4676 -0.4156 -0.5026
  905MOL0     C22086  12.916   0.580   8.026  0.6506  0.2865 -0.3204
  905MOL0     O22087  12.768   0.793   7.864 -0.3456 -0.2038  0.5854
  905MOL0     C22088  12.606   0.898   8.054 -0.1618 -0.8690 -0.0542
  905MOL0     C22089  12.508   0.957   8.139 -0.4424  0.1726 -1.0815
  905MOL0     N22090  11.730   1.281   8.065  0.1997  0.0221 -0.1743
  905MOL0     N22091  11.692   1.397   8.079 -0.4630  0.1617  0.3117
  905MOL0     C22092  11.156   1.605   8.711  0.0572 -1.5753 -0.2201
  905MOL0     C22093  11.083   1.500   8.757 -0.9559  0.8940 -0.5105
  905MOL0     C22094  10.990   1.187   9.107  0.1425  0.4709  0.7465
  905MOL0     C22095  10.968   1.180   9.249 -0.1203  0.4542  0.2031
  905MOL0     C22096  10.925   1.064   9.318 -0.9949 -0.2226 -0.5141
  905MOL0     C22097  10.870   0.960   9.244 -0.3070  0.1459  0.7974
  905MOL0     O22098  10.803   0.852   9.304 -0.6568 -0.2425 -0.3069
  905MOL0     C22099  10.753   0.851   9.439 -0.1749 -0.4134  0.5586
  905MOL0     C22100  10.833   0.756   9.516 -0.0638  0.0603 -0.7707
  905MOL0     C22101  10.970   0.800   9.545 -0.2417 -0.3587 -0.7946
  905MOL0     C22102  11.058   0.722   9.638  0.3962 -0.0317 -0.1457
  905MOL0     C22103  11.187   0.785   9.666  1.3678 -0.5154  0.3549
  905MOL0     C22104  11.298   0.839   9.701  0.7610  0.3949 -0.0963
  905MOL0     C22105  10.868   0.967   9.109  0.6786 -1.2083 -0.1337
  905MOL0     C22106  10.931   1.079   9.040 -0.0654 -0.3749 -0.2367
  905MOL0     C22107  10.920   1.075   8.887  0.8259 -0.3080  0.6053
  905MOL0     H22108  11.310   1.375   8.977  0.3045 -1.6268 -1.6300
  905MOL0     H22109  11.439   1.549   8.895 -0.0707  5.2402  0.9645
  905MOL0     H22110  11.525   1.760   8.846  1.6585  3.0972 -0.8995
  905MOL0     H22111  11.576   1.660   8.714 -0.4700 -1.4051  0.1837
  905MOL0     H22112  11.660   1.886   8.751  0.6452 -0.2851 -0.0365
  905MOL0     H22113  11.505   1.959   8.723 -2.2367 -0.4189 -0.3616
  905MOL0     H22114  11.645   1.986   8.538  2.6814 -1.6644 -0.4661
  905MOL0     H22115  11.515   1.878   8.476 -0.6287 -2.0210  0.0424
  905MOL0     H22116  11.801   1.802   8.567 -0.4415 -0.4011  1.5312
  905MOL0     H22117  11.674   1.685   8.525 -1.9100  0.0764  0.6279
  905MOL0     H22118  11.661   1.784   8.298  1.1000  5.1331 -2.5251
  905MOL0     H22119  11.798   1.887   8.346 -0.7960 -0.6031 -1.1335
  905MOL0     H22120  11.936   1.722   8.399 -2.3723  0.6588  1.9056
  905MOL0     H22121  11.831   1.589   8.357  0.7790 -0.4302  1.5009
  905MOL0     H22122  11.999   1.637   8.178 -1.5465 -4.2043  1.2906
  905MOL0     H22123  11.908   1.801   8.157 -3.4465  0.1405 -0.5706
  905MOL0     H22124  11.702   1.662   8.072 -0.9194 -1.1387  0.6307
  905MOL0     H22125  11.847   1.642   7.979 -0.1295 -2.4100 -0.1811
  905MOL0     H22126  12.022   1.421   8.095  0.2485 -1.6644  1.6135
  905MOL0     H22127  11.909   1.088   7.945  2.5444  1.0654 -2.4989
  905MOL0     H22128  12.042   1.210   7.958 -0.4755  0.2739 -1.2870
  905MOL0     H22129  12.018   1.182   8.205 -3.1388  1.8668 -1.6579
  905MOL0     H22130  11.924   1.039   8.171 -1.6180  1.5750  1.6559
  905MOL0     H22131  12.215   1.094   8.101  0.9773 -0.2106  3.5203
  905MOL0     H22132  12.134   0.951   8.032 -2.1896 -1.9959  2.0285
  905MOL0     H22133  12.141   0.834   8.233  1.1430 -0.3813  0.3001
  905MOL0     H22134  12.123   0.985   8.333 -1.0280  0.6391 -1.8848
  905MOL0     H22135  12.310   0.678   8.184  0.9437 -3.0673 -0.8829
  905MOL0     H22136  12.499   0.574   8.060  1.5197  0.2018 -1.7532
  905MOL0     H22137  12.754   0.332   7.863 -0.4048  0.7494 -2.4401
  905MOL0     H22138  12.920   0.192   7.975 -0.7503 -0.4974  1.6676
  905MOL0     H22139  13.002   0.159   8.217  1.3836 -2.9557  1.6998
  905MOL0     H22140  13.121   0.083   8.105  0.6326  0.5089 -1.9410
  905MOL0     H22141  13.157   0.236   8.371 -2.4006  1.0254 -3.2148
  905MOL0     H22142  13.171   0.050   8.359  6.2806 -1.2760  0.8020
  905MOL0     H22143  13.356   0.059   8.215 -0.7967  1.7448 -3.6028
  905MOL0     H22144  13.358   0.235   8.215 -1.3986  0.3256  0.5767
  905MOL0     H22145  13.520   0.124   8.372  1.5355  1.0393  2.8053
  905MOL0     H22146  13.374   0.073   8.465 -0.1863 -0.8287 -1.1227
  905MOL0     H22147  13.312   0.326   8.473 -0.8377 -0.5061 -1.6278
  905MOL0     H22148  13.480   0.362   8.431 -0.2909 -0.5996 -0.7360
  905MOL0     H22149  13.460   0.346   8.681  1.2803 -0.9800  0.0731
  905MOL0     H22150  13.391   0.188   8.673  1.0227 -0.2950  2.0327
  905MOL0     H22151  13.649   0.172   8.542  4.2828 -3.7672  2.4753
  905MOL0     H22152  13.582   0.088   8.692  1.0413 -0.5341 -0.5332
  905MOL0     H22153  13.638   0.281   8.827 -1.5592 -0.0322 -0.5733
  905MOL0     H22154  13.767   0.193   8.758 -0.5533 -1.2624 -0.1873
  905MOL0     H22155  13.103   0.544   8.118 -0.5239 -0.1030 -0.7416
  905MOL0     H22156  12.926   0.685   8.050 -0.9449  0.6249 -1.0057
  905MOL0     H22157  12.680   0.973   8.031 -2.7836  1.4461 -1.5667
  905MOL0     H22158  12.534   1.058   8.170 -0.7670 -0.4565  1.4876
  905MOL0     H22159  11.112   1.682   8.648 -0.6433 -1.4327  0.4198
  905MOL0     H22160  10.981   1.474   8.734 -0.7080  0.7118 -1.4670
  905MOL0     H22161  10.994   1.267   9.309 -5.0875  1.0966  1.9847
  905MOL0     H22162  10.927   1.055   9.426 -1.1171 -0.8083 -0.5562
  905MOL0     H22163  10.647   0.833   9.457 -0.5798 -3.0266 -3.1915
  905MOL0     H22164  10.762   0.952   9.478  1.1306  0.0316 -0.8054
  905MOL0     H22165  10.830   0.659   9.466 -1.8323  0.4980 -1.5883
  905MOL0     H22166  10.787   0.754   9.616  2.2037 -1.5633  0.3359
  905MOL0     H22167  10.945   0.898   9.586 -0.0981 -0.1172 -1.2823
  905MOL0     H22168  11.023   0.811   9.450 -2.6918 -0.2061 -2.2310
  905MOL0     H22169  10.996   0.717   9.727 -1.5336 -1.7041 -1.4985
  905MOL0     H22170  11.073   0.623   9.595 -1.8759  0.2484 -1.7487
  905MOL0     H22171  11.387   0.895   9.720  0.9842 -0.3310  1.1090
  905MOL0     H22172  10.807   0.900   9.050 -0.3684  0.2746 -0.7725
  905MOL0     H22173  10.859   0.989   8.857 -3.0616  1.7446  1.8554
  905MOL0     H22174  10.874   1.169   8.856  2.5645  0.1748 -0.6269
  905MOL0     H22175  11.018   1.067   8.839  0.5239 -0.9839  0.0751
  906MOL0     O22176   4.347  10.565  11.274 -0.0182 -0.0805 -0.0971
  906MOL0     C22177   4.361  10.457  11.219 -0.2442 -0.1999 -0.5039
  906MOL0     O22178   4.423  10.440  11.104 -0.4383  0.7882  0.4503
  906MOL0     C22179   4.459  10.540  11.019 -0.1272 -0.1496 -0.5890
  906MOL0     C22180   4.371  10.640  10.976 -0.2631 -0.0629  1.3138
  906MOL0     C22181   4.425  10.748  10.903 -0.6796 -0.2231 -0.3942
  906MOL0     C22182   4.564  10.760  10.862 -0.4788 -0.3810  0.4951
  906MOL0     O22183   4.628  10.863  10.800 -1.0017 -0.0118  0.0008
  906MOL0     C22184   4.576  10.922  10.689  0.7335  0.8726 -0.1788
  906MOL0     C22185   4.540  11.060  10.744 -0.5118  0.7094 -1.6734
  906MOL0     C22186   4.423  11.132  10.685 -0.6061 -0.4441  0.0003
  906MOL0     C22187   4.370  11.250  10.765  0.7387  0.7610  0.2070
  906MOL0     C22188   4.243  11.316  10.712 -0.3496  0.8112 -0.1233
  906MOL0     C22189   4.123  11.281  10.790 -0.3708  0.7320 -0.0316
  906MOL0     C22190   4.010  11.361  10.749 -0.8942 -0.4704 -0.1152
  906MOL0     C22191   3.897  11.338  10.857  0.0297 -0.0408 -0.3623
  906MOL0     N22192   3.906  11.412  10.986 -0.6756 -1.0611 -0.0353
  906MOL0     C22193   3.915  11.551  11.000 -1.3315  0.4327 -0.4976
  906MOL0     C22194   3.871  11.580  11.118  0.1387 -0.0164  0.1050
  906MOL0     C22195   3.855  11.706  11.198  0.0095  0.3420  0.1986
  906MOL0     C22196   3.743  11.797  11.152 -0.3378  0.1944 -0.1120
  906MOL0     C22197   3.600  11.745  11.190 -0.7001  0.4245 -0.7268
  906MOL0     C22198   3.496  11.823  11.097 -0.3537  1.1526  0.3892
  906MOL0     O22199   3.487  11.953  11.122  0.2682 -0.2086  0.5565
  906MOL0     C22200   3.371  12.022  11.096 -0.0331 -1.1055 -0.6048
  906MOL0     C22201   3.364  12.161  11.125 -0.1155  0.8926  1.1701
  906MOL0     C22202   3.263  12.245  11.078 -0.2378  0.5680 -0.4107
  906MOL0     C22203   3.156  12.185  11.017  0.5844 -0.1384 -0.2982
  906MOL0     C22204   3.046  12.266  10.963  0.7688 -0.4934 -0.3717
  906MOL0     O22205   3.063  12.398  10.971  0.9863  0.2657  0.2062
  906MOL0     C22206   2.962  12.491  10.955 -0.5488  0.0495 -0.5514
  906MOL0     C22207   2.849  12.482  10.868 -0.2332  0.3979 -0.8083
  906MOL0     C22208   2.759  12.577  10.868 -0.0162  0.4316 -0.0629
  906MOL0     C22209   2.761  12.684  10.953 -0.2037 -0.9298  0.0441
  906MOL0     O22210   2.670  12.786  10.942 -0.0966  0.4709  0.2499
  906MOL0     C22211   2.664  12.884  11.044 -0.4777 -0.3454 -0.9528
  906MOL0     C22212   2.542  12.968  11.029 -0.0533 -0.7357  0.7590
  906MOL0     C22213   2.540  13.064  11.149  0.0519 -0.4834 -0.2492
  906MOL0     C22214   2.439  13.177  11.130 -0.9186  0.3681  0.4243
  906MOL0     C22215   2.410  13.261  11.263 -0.1825  0.7810  0.2110
  906MOL0     C22216   2.530  13.342  11.308 -0.0016 -0.9099  0.6597
  906MOL0     C22217   2.522  13.472  11.220  0.5812 -0.6159  0.7080
  906MOL0     C22218   2.628  13.572  11.263 -0.3921  0.0789 -0.1700
  906MOL0    Cl22219   2.789  13.501  11.265  0.3475 -0.5287  0.3245
  906MOL0     C22220   2.879  12.702  11.020 -0.7253  1.2155 -0.5299
  906MOL0     C22221   2.976  12.611  11.026  0.2183  0.0330  0.2037
  906MOL0     O22222   2.948  12.210  10.916  0.5346  0.3281  0.4301
  906MOL0     C22223   3.145  12.043  11.004 -0.0567  0.4463 -1.2605
  906MOL0     C22224   3.255  11.961  11.036  0.5658  0.2326  0.4570
  906MOL0     N22225   3.845  11.458  11.175  0.2965  0.3216  0.7131
  906MOL0     N22226   3.858  11.360  11.094 -0.3462 -0.5165 -1.0469
  906MOL0     C22227   4.646  10.654  10.898 -0.8428 -0.4212 -0.4037
  906MOL0     C22228   4.595  10.546  10.970  0.1347  0.0377 -0.2656
  906MOL0     C22229   4.354  10.336  11.309 -0.7544  0.0548 -0.0795
  906MOL0     C22230   4.411  10.205  11.266  0.6994 -0.2222  0.2726
  906MOL0     C22231   4.408  10.089  11.340  0.6479 -0.1300 -0.1763
  906MOL0     C22232   4.328  10.082  11.455 -1.2341 -0.5351  0.0970
  906MOL0     O22233   4.274   9.963  11.509  0.3640 -0.4250 -0.0253
  906MOL0     C22234   4.286   9.848  11.432 -0.1142  0.8534  0.0514
  906MOL0     C22235   4.218   9.730  11.499  0.2712  0.2418  0.6801
  906MOL0     C22236   4.072   9.757  11.511  0.5149  0.9171 -0.0094
  906MOL0     C22237   4.006   9.636  11.561 -0.7439 -0.6815 -1.0422
  906MOL0     C22238   3.868   9.652  11.563 -0.1700 -0.1177 -0.1407
  906MOL0     C22239   3.743   9.651  11.557 -0.4544  0.1206  0.0947
  906MOL0     C22240   4.281  10.201  11.506  0.5658  0.4028  0.1534
  906MOL0     C22241   4.292  10.323  11.438  0.5897  0.6330  0.2645
  906MOL0     C22242   4.211  10.435  11.506 -0.0858 -0.3337  0.9912
  906MOL0     H22243   4.266  10.629  11.002 -0.4030 -2.2348  0.0400
  906MOL0     H22244   4.348  10.813  10.862 -0.4810 -0.0176 -0.4430
  906MOL0     H22245   4.662  10.940  10.624  1.3311  0.9223  0.6056
  906MOL0     H22246   4.489  10.873  10.644  0.5628  2.6729 -1.9528
  906MOL0     H22247   4.622  11.131  10.734  0.1290  0.5117  1.2693
  906MOL0     H22248   4.510  11.060  10.849 -0.0780  1.3026 -1.5418
  906MOL0     H22249   4.338  11.064  10.675  0.6973 -2.4449  1.5387
  906MOL0     H22250   4.456  11.182  10.594 -0.4829  2.2582  1.4485
  906MOL0     H22251   4.352  11.212  10.866 -0.7685 -0.9862 -0.6561
  906MOL0     H22252   4.447  11.327  10.772  1.9568 -0.2709 -1.2890
  906MOL0     H22253   4.263  11.423  10.713  3.7765  0.1908  1.3465
  906MOL0     H22254   4.219  11.291  10.608  2.1956  1.8949 -1.0565
  906MOL0     H22255   4.096  11.176  10.779  2.0863  0.2629 -2.7285
  906MOL0     H22256   4.138  11.295  10.897 -1.9264 -0.7663  0.4316
  906MOL0     H22257   3.979  11.330  10.649 -0.4618 -0.2098 -0.3349
  906MOL0     H22258   4.037  11.467  10.752 -0.9544 -0.4496 -0.3732
  906MOL0     H22259   3.806  11.370  10.805 -0.0031  0.6939  0.1254
  906MOL0     H22260   3.903  11.232  10.880  2.2220  0.6442  2.9426
  906MOL0     H22261   3.946  11.623  10.925  2.5748 -0.3747  0.1119
  906MOL0     H22262   3.844  11.688  11.305 -0.6752  1.0101  0.2478
  906MOL0     H22263   3.946  11.766  11.192  0.7417 -0.9231 -2.9304
  906MOL0     H22264   3.751  11.901  11.187  0.5852 -0.1583  0.7395
  906MOL0     H22265   3.746  11.798  11.043  0.7012 -0.8347 -0.1061
  906MOL0     H22266   3.578  11.754  11.297 -1.4406  3.4613 -1.0347
  906MOL0     H22267   3.586  11.645  11.150 -2.1687  1.2020 -2.2445
  906MOL0     H22268   3.394  11.784  11.106 -0.7859  2.4455  1.4652
  906MOL0     H22269   3.512  11.806  10.990 -0.5139 -1.3834  0.7010
  906MOL0     H22270   3.459  12.190  11.170  2.9631 -2.9633 -2.0909
  906MOL0     H22271   3.269  12.352  11.093 -0.1908  0.2849  1.8216
  906MOL0     H22272   2.836  12.396  10.803 -2.4892 -0.3453  0.5127
  906MOL0     H22273   2.666  12.557  10.817 -1.8839  0.6823  2.9689
  906MOL0     H22274   2.658  12.832  11.140  5.1425 -0.1293 -0.1519
  906MOL0     H22275   2.754  12.946  11.051  0.1988 -1.1684 -2.0381
  906MOL0     H22276   2.543  13.038  10.945  0.6195  1.8998  2.8332
  906MOL0     H22277   2.465  12.891  11.016  2.2378 -3.4007  1.8598
  906MOL0     H22278   2.522  12.996  11.233  2.3504 -1.4697 -0.4787
  906MOL0     H22279   2.644  13.090  11.172  0.7388 -3.4479  0.3891
  906MOL0     H22280   2.342  13.128  11.118 -0.3277 -0.6318 -0.3786
  906MOL0     H22281   2.461  13.239  11.042  0.7581  1.0472  1.2822
  906MOL0     H22282   2.392  13.193  11.347  0.5277 -0.4808 -0.6199
  906MOL0     H22283   2.319  13.318  11.243 -0.9701 -0.7711 -0.8238
  906MOL0     H22284   2.528  13.368  11.414  0.5609  2.5411 -0.0645
  906MOL0     H22285   2.625  13.290  11.299  0.8716  0.8165 -0.9394
  906MOL0     H22286   2.426  13.522  11.240  0.3813 -0.8566  0.3559
  906MOL0     H22287   2.556  13.453  11.118  1.4900 -0.4795  0.9764
  906MOL0     H22288   2.639  13.665  11.207  1.7235  1.2442  1.9855
  906MOL0     H22289   2.583  13.601  11.359 -2.5998 -2.6223 -0.2574
  906MOL0     H22290   2.895  12.787  11.086 -0.6733  0.4456  0.4763
  906MOL0     H22291   3.066  12.625  11.085  0.8023 -0.3043 -0.5903
  906MOL0     H22292   3.052  11.996  10.974  0.5395 -1.3686 -0.4262
  906MOL0     H22293   3.236  11.861  10.998 -2.8574  1.1980 -0.7370
  906MOL0     H22294   4.752  10.659  10.875 -0.2721 -1.4920  1.7576
  906MOL0     H22295   4.666  10.470  11.002 -0.5677  0.5849  2.9325
  906MOL0     H22296   4.470  10.202  11.175 -1.6714  0.2000 -1.3735
  906MOL0     H22297   4.464  10.001  11.313 -1.1765 -2.6098  3.2585
  906MOL0     H22298   4.391   9.821  11.435 -0.5477 -0.8634  1.8704
  906MOL0     H22299   4.243   9.854  11.332  0.6184  1.0058 -0.2542
  906MOL0     H22300   4.269   9.718  11.595  1.6511 -0.6468 -0.1214
  906MOL0     H22301   4.235   9.644  11.433  1.9298 -0.6138  2.1381
  906MOL0     H22302   4.035   9.801  11.418  1.3704  0.3069 -0.6545
  906MOL0     H22303   4.067   9.830  11.593  3.3672 -2.2831  3.3676
  906MOL0     H22304   4.034   9.551  11.497  0.0385 -0.5851 -0.8392
  906MOL0     H22305   4.038   9.621  11.664 -0.0090 -1.2801 -1.3464
  906MOL0     H22306   3.637   9.657  11.542 -0.2605 -1.3247 -2.3968
  906MOL0     H22307   4.246  10.208  11.608  1.4469  2.2740  0.3678
  906MOL0     H22308   4.290  10.509  11.504  0.8209 -1.2532 -2.0800
  906MOL0     H22309   4.128  10.467  11.442 -0.1802  2.5395  2.3872
  906MOL0     H22310   4.179  10.412  11.608  1.0370 -5.0809  0.5194
  907MOL0     O22311  11.003   6.747   6.416  0.1265  0.3694 -0.4584
  907MOL0     C22312  10.983   6.782   6.535  0.8573  0.9303 -0.2573
  907MOL0     O22313  11.042   6.717   6.642 -0.0410 -0.3509 -0.2064
  907MOL0     C22314  11.147   6.642   6.612  0.1652  0.2925  0.6898
  907MOL0     C22315  11.158   6.513   6.662  0.6713  0.2034 -0.2637
  907MOL0     C22316  11.279   6.442   6.666  0.5223 -0.6739  0.2720
  907MOL0     C22317  11.392   6.495   6.604  0.4610  0.0476 -0.1795
  907MOL0     O22318  11.508   6.424   6.590  0.1869 -0.8056 -0.1917
  907MOL0     C22319  11.551   6.356   6.711  0.6908 -0.2969  0.1995
  907MOL0     C22320  11.699   6.333   6.694  0.7744  1.0731  0.1899
  907MOL0     C22321  11.748   6.234   6.805  0.0241 -0.3281  0.0751
  907MOL0     C22322  11.907   6.245   6.824  0.0615  0.3135 -0.5034
  907MOL0     C22323  11.967   6.221   6.692  0.2477 -0.5026  0.4456
  907MOL0     C22324  12.119   6.190   6.703  0.7747  0.1324 -0.0244
  907MOL0     C22325  12.168   6.151   6.564 -0.8894 -0.2267 -0.1403
  907MOL0     C22326  12.314   6.113   6.561 -0.3937  0.6706 -0.0012
  907MOL0     N22327  12.394   6.219   6.622 -0.4941  0.2932  0.2718
  907MOL0     C22328  12.460   6.314   6.543  0.0582  0.1819  0.8434
  907MOL0     C22329  12.544   6.376   6.628 -0.8827 -0.2020 -0.0504
  907MOL0     C22330  12.637   6.478   6.572  0.2737  0.3821  0.7653
  907MOL0     C22331  12.557   6.583   6.492 -0.2053  0.6943 -0.1066
  907MOL0     C22332  12.642   6.652   6.379  0.6324  0.6511 -0.3796
  907MOL0     C22333  12.548   6.735   6.283 -0.7308  0.0754  0.7283
  907MOL0     O22334  12.446   6.814   6.343  0.7268 -0.0973  1.2982
  907MOL0     C22335  12.483   6.919   6.414 -0.2758  0.2350  0.4172
  907MOL0     C22336  12.403   6.973   6.531 -0.1164  0.1004  0.5653
  907MOL0     C22337  12.447   7.063   6.622 -0.2278 -0.6861  0.5810
  907MOL0     C22338  12.565   7.139   6.588 -0.6448  0.5827  0.0755
  907MOL0     C22339  12.610   7.239   6.680  0.3121  0.8693  0.3767
  907MOL0     O22340  12.716   7.300   6.643 -0.2292 -0.4379 -0.2388
  907MOL0     C22341  12.782   7.382   6.728  0.0641  1.5510  0.5266
  907MOL0     C22342  12.894   7.341   6.811 -0.6794  0.1670  0.1102
  907MOL0     C22343  12.951   7.421   6.908 -0.5476  0.1466  0.4755
  907MOL0     C22344  12.887   7.542   6.935  1.1567 -0.5465 -0.9496
  907MOL0     O22345  12.922   7.630   7.039 -0.6393 -0.2600 -0.3024
  907MOL0     C22346  13.044   7.612   7.103  0.0899 -0.3871 -0.6017
  907MOL0     C22347  13.078   7.724   7.199 -0.5875  0.5864 -0.3784
  907MOL0     C22348  13.204   7.692   7.283 -0.0512 -0.4073 -0.4894
  907MOL0     C22349  13.338   7.681   7.196 -0.4027  0.4648 -0.3712
  907MOL0     C22350  13.470   7.665   7.283 -0.1283 -0.0779 -0.8664
  907MOL0     C22351  13.578   7.715   7.195 -0.6473 -0.8973  0.6091
  907MOL0     C22352  13.707   7.701   7.269 -1.0149 -0.5921  0.0844
  907MOL0     C22353  13.835   7.734   7.188 -1.2987 -0.0564 -1.1151
  907MOL0    Cl22354  13.867   7.631   7.049  0.0891 -0.2650  0.2950
  907MOL0     C22355  12.774   7.584   6.859 -0.7517 -0.1680 -0.3838
  907MOL0     C22356  12.732   7.512   6.748  0.4589  0.0852 -0.0017
  907MOL0     O22357  12.549   7.260   6.781  0.3872 -0.2759  0.0306
  907MOL0     C22358  12.649   7.096   6.478  0.3467  0.0043 -0.4764
  907MOL0     C22359  12.609   6.982   6.403 -0.2827 -0.6834 -0.5598
  907MOL0     N22360  12.527   6.312   6.753 -0.9431 -0.7729  0.2908
  907MOL0     N22361  12.450   6.211   6.748  0.7446  0.2617 -0.2890
  907MOL0     C22362  11.388   6.621   6.548 -0.1612 -0.6873  0.6003
  907MOL0     C22363  11.265   6.694   6.555 -0.6643  0.5208  1.0954
  907MOL0     C22364  10.874   6.881   6.589 -0.1248  0.0712 -0.4485
  907MOL0     C22365  10.858   6.882   6.726  0.5182 -0.5136  0.7218
  907MOL0     C22366  10.745   6.949   6.781  0.5745 -0.0664 -0.0944
  907MOL0     C22367  10.662   7.030   6.709 -0.1060  0.4045 -0.3475
  907MOL0     O22368  10.562   7.103   6.778 -0.1329 -0.1720  0.1707
  907MOL0     C22369  10.605   7.187   6.886  1.0705  0.7338 -0.3470
  907MOL0     C22370  10.656   7.322   6.832  0.6574 -0.2475 -0.1532
  907MOL0     C22371  10.531   7.393   6.756 -0.5519 -0.5228 -0.1679
  907MOL0     C22372  10.596   7.506   6.673  0.6052 -0.4847  0.6418
  907MOL0     C22373  10.488   7.570   6.590  0.2096 -0.7045 -0.2444
  907MOL0     C22374  10.391   7.620   6.540 -0.1118 -0.3138 -0.5632
  907MOL0     C22375  10.688   7.028   6.567 -0.3470 -1.1159 -0.1398
  907MOL0     C22376  10.796   6.961   6.504  0.4110  0.3259 -0.5384
  907MOL0     C22377  10.823   6.981   6.357  0.2246  0.1145  0.6486
  907MOL0     H22378  11.070   6.466   6.704  0.9868  1.1204  1.4922
  907MOL0     H22379  11.284   6.344   6.712 -2.8086 -0.3192  1.7247
  907MOL0     H22380  11.526   6.408   6.804 -0.5879 -3.2234  1.6326
  907MOL0     H22381  11.501   6.260   6.722 -1.5011  0.8225  0.6053
  907MOL0     H22382  11.758   6.426   6.697 -2.8075  3.6098  4.1872
  907MOL0     H22383  11.716   6.280   6.600  0.4509 -1.1780  1.3358
  907MOL0     H22384  11.715   6.137   6.767 -1.7021  0.2190  0.0814
  907MOL0     H22385  11.703   6.257   6.902 -1.2735  3.3573 -1.1968
  907MOL0     H22386  11.930   6.338   6.876 -3.3020 -0.2675  2.4519
  907MOL0     H22387  11.928   6.177   6.908 -1.2079  0.3478 -0.1307
  907MOL0     H22388  11.920   6.135   6.644 -0.6593 -0.3521  1.0315
  907MOL0     H22389  11.955   6.309   6.628  3.4258 -1.2725 -1.4321
  907MOL0     H22390  12.185   6.268   6.740 -1.3071  2.2537 -0.5273
  907MOL0     H22391  12.142   6.114   6.779  0.7946 -0.5170 -0.6690
  907MOL0     H22392  12.156   6.240   6.502  1.8435  2.6302  3.0697
  907MOL0     H22393  12.111   6.064   6.528 -0.9597 -0.5975  0.8192
  907MOL0     H22394  12.337   6.027   6.625  2.9513 -0.2565 -2.1807
  907MOL0     H22395  12.350   6.091   6.460  0.2320 -0.9557  0.5433
  907MOL0     H22396  12.436   6.351   6.444  0.9384  3.4866  1.7422
  907MOL0     H22397  12.674   6.539   6.655 -0.6651 -0.1911  1.6215
  907MOL0     H22398  12.716   6.431   6.512 -1.4442 -2.8605  0.8216
  907MOL0     H22399  12.473   6.547   6.431  0.5604 -0.9936 -0.2118
  907MOL0     H22400  12.523   6.653   6.569 -0.1559 -0.0644  0.6252
  907MOL0     H22401  12.696   6.578   6.320  0.7115  2.0987 -2.2264
  907MOL0     H22402  12.704   6.725   6.433 -2.7833  2.9398  0.8165
  907MOL0     H22403  12.504   6.665   6.211  0.1829  1.9510 -1.8065
  907MOL0     H22404  12.608   6.794   6.214 -1.9049  1.3334  0.7462
  907MOL0     H22405  12.314   6.925   6.570  0.3602 -1.6630 -0.4330
  907MOL0     H22406  12.383   7.101   6.701  0.4267 -0.8823  1.2196
  907MOL0     H22407  12.932   7.242   6.789 -1.3065 -0.4827  1.7885
  907MOL0     H22408  13.031   7.383   6.969 -1.0615  1.0857  1.7710
  907MOL0     H22409  13.049   7.519   7.161 -0.1512  0.5658  1.0083
  907MOL0     H22410  13.116   7.604   7.021  0.2224 -2.2425 -0.3442
  907MOL0     H22411  13.096   7.819   7.147 -1.9387  0.5477 -0.9625
  907MOL0     H22412  12.998   7.735   7.272  0.2075  2.4698  0.2665
  907MOL0     H22413  13.214   7.767   7.362  2.8965 -0.8425 -0.3489
  907MOL0     H22414  13.189   7.597   7.335 -2.5262 -0.7389 -1.6736
  907MOL0     H22415  13.346   7.771   7.133 -2.4259  1.6599  0.9607
  907MOL0     H22416  13.328   7.587   7.142  3.8252 -1.4929  1.7717
  907MOL0     H22417  13.493   7.559   7.298  0.7901  0.1385 -0.6589
  907MOL0     H22418  13.460   7.728   7.372 -0.4155  1.4882 -1.9712
  907MOL0     H22419  13.592   7.656   7.104  1.0591 -1.9646  1.5036
  907MOL0     H22420  13.556   7.819   7.172  3.2486  0.0677  0.4772
  907MOL0     H22421  13.718   7.595   7.294 -0.4296  0.1746  3.5621
  907MOL0     H22422  13.723   7.754   7.363  4.1014  1.6468 -1.6883
  907MOL0     H22423  13.824   7.838   7.157  0.5943  0.1794 -1.0528
  907MOL0     H22424  13.924   7.725   7.250 -4.4760  1.8847  4.5297
  907MOL0     H22425  12.731   7.680   6.888 -2.4057 -1.0003  0.0804
  907MOL0     H22426  12.646   7.544   6.690  1.9184  1.3593 -1.5593
  907MOL0     H22427  12.748   7.137   6.462 -0.4527  1.4151 -2.1659
  907MOL0     H22428  12.679   6.946   6.329  1.6286 -0.3478  0.9910
  907MOL0     H22429  11.477   6.647   6.493 -2.1661  1.2343 -2.0011
  907MOL0     H22430  11.268   6.785   6.496 -1.2218  0.1097  0.4172
  907MOL0     H22431  10.914   6.828   6.801  3.3338  1.5084  0.2189
  907MOL0     H22432  10.736   6.932   6.888 -1.0760  2.5309  0.2752
  907MOL0     H22433  10.684   7.137   6.944 -0.5033  1.4879  2.6847
  907MOL0     H22434  10.524   7.197   6.959  0.1828 -1.8403 -0.8619
  907MOL0     H22435  10.731   7.307   6.753 -2.6441  0.8833 -3.8522
  907MOL0     H22436  10.695   7.385   6.912  1.9599 -1.1635 -0.0300
  907MOL0     H22437  10.445   7.429   6.813 -0.4597  1.4210 -1.1335
  907MOL0     H22438  10.481   7.317   6.696 -1.8061 -0.9192  1.3256
  907MOL0     H22439  10.633   7.598   6.720  1.4668  0.2262 -1.3100
  907MOL0     H22440  10.669   7.473   6.599  0.6709  4.4493 -1.8960
  907MOL0     H22441  10.310   7.658   6.482 -1.2731 -0.8525  0.6520
  907MOL0     H22442  10.624   7.095   6.510  0.4689  0.7538  1.0158
  907MOL0     H22443  10.751   7.049   6.311  1.1751  0.4650 -0.3477
  907MOL0     H22444  10.917   7.037   6.348  0.3727 -0.4891 -3.5432
  907MOL0     H22445  10.840   6.887   6.305 -2.5016 -1.5489  2.4975
  908MOL0     O22446  10.038   9.572   5.686 -0.0206  0.6361 -0.1833
  908MOL0     C22447  10.158   9.560   5.663  0.2057 -0.6356  0.1091
  908MOL0     O22448  10.240   9.668   5.640 -0.3865  0.5685  1.0812
  908MOL0     C22449  10.179   9.788   5.613 -1.1110 -0.4926  0.1407
  908MOL0     C22450  10.118   9.874   5.712 -1.0607  0.3670 -0.0787
  908MOL0     C22451  10.060   9.990   5.673  0.8838  1.1386 -0.5801
  908MOL0     C22452  10.070  10.040   5.545 -0.3168  0.5277 -0.4385
  908MOL0     O22453  10.018  10.165   5.514 -0.5511 -0.5453 -0.4997
  908MOL0     C22454   9.918  10.224   5.595 -0.2586 -0.5456 -1.2601
  908MOL0     C22455   9.871  10.365   5.548 -0.0647 -0.0627  0.0556
  908MOL0     C22456   9.978  10.471   5.571  0.3114  0.0345  0.6701
  908MOL0     C22457   9.950  10.591   5.475  0.7134 -0.2964 -1.1452
  908MOL0     C22458   9.829  10.683   5.515  0.1080 -0.2880  0.3089
  908MOL0     C22459   9.842  10.828   5.487  0.5195  0.5892  0.8533
  908MOL0     C22460   9.699  10.889   5.462 -0.4213 -0.0174  1.3585
  908MOL0     C22461   9.602  10.848   5.587 -0.2797  0.1318  0.9773
  908MOL0     N22462   9.464  10.895   5.583  0.7179  1.4086 -1.1282
  908MOL0     C22463   9.357  10.840   5.518  0.3720 -0.2006  0.7461
  908MOL0     C22464   9.258  10.936   5.520 -0.2203 -0.4687 -0.3302
  908MOL0     C22465   9.124  10.919   5.454 -0.6702  0.2544  0.0473
  908MOL0     C22466   9.053  10.800   5.500 -0.3246  0.6618  0.7211
  908MOL0     C22467   8.910  10.786   5.450  0.1907  1.0673 -0.4165
  908MOL0     C22468   8.917  10.753   5.293  0.1250 -0.4976 -0.3340
  908MOL0     O22469   8.997  10.637   5.276  0.0033 -0.3874 -0.1889
  908MOL0     C22470   9.071  10.626   5.161 -0.2593 -0.7396  0.4949
  908MOL0     C22471   9.066  10.708   5.053 -0.7531  0.2583  0.1895
  908MOL0     C22472   9.152  10.695   4.947  0.3634  0.1517 -1.5949
  908MOL0     C22473   9.239  10.579   4.945 -0.2810 -0.8897  0.2145
  908MOL0     C22474   9.313  10.535   4.828 -0.1217  0.8212 -0.7133
  908MOL0     O22475   9.277  10.614   4.719 -0.2192  0.3644 -0.0527
  908MOL0     C22476   9.332  10.585   4.602  0.0273  0.8594 -0.3647
  908MOL0     C22477   9.339  10.462   4.529  0.7937  0.1723  0.3321
  908MOL0     C22478   9.404  10.452   4.411 -0.2632  0.3351  0.3958
  908MOL0     C22479   9.481  10.557   4.362 -0.2068  0.1034  0.2234
  908MOL0     O22480   9.553  10.542   4.243 -0.0832 -0.3660 -0.7198
  908MOL0     C22481   9.636  10.639   4.184 -0.7242 -0.0682  0.3608
  908MOL0     C22482   9.698  10.589   4.053  0.1022 -0.1157  0.7555
  908MOL0     C22483   9.780  10.464   4.062  0.1650  0.0295  0.6732
  908MOL0     C22484   9.904  10.479   3.975  0.7679  0.5188  0.4191
  908MOL0     C22485   9.984  10.348   3.970 -0.5498  0.1637 -0.8867
  908MOL0     C22486   9.929  10.244   3.874 -0.2362 -0.0457  0.6603
  908MOL0     C22487  10.032  10.143   3.833 -0.3749  0.2841 -0.6112
  908MOL0     C22488   9.996  10.081   3.704  0.5916  0.0635  0.4323
  908MOL0    Cl22489   9.828  10.012   3.713 -0.2240  0.5046  0.2407
  908MOL0     C22490   9.473  10.682   4.424  0.1537 -0.6262 -0.2869
  908MOL0     C22491   9.401  10.692   4.542  0.2268 -0.4007 -0.2582
  908MOL0     O22492   9.384  10.431   4.826  0.0763 -0.3595 -0.4674
  908MOL0     C22493   9.244  10.499   5.050 -0.5117  0.3911 -0.1241
  908MOL0     C22494   9.166  10.525   5.156  0.3761 -0.3775 -0.0479
  908MOL0     N22495   9.309  11.047   5.581 -0.2817  0.2306  0.5322
  908MOL0     N22496   9.432  11.023   5.612 -0.3676  0.5646 -0.7617
  908MOL0     C22497  10.128   9.958   5.449 -0.3442  0.5499  0.5793
  908MOL0     C22498  10.191   9.840   5.483  1.0286 -0.1715 -0.0955
  908MOL0     C22499  10.230   9.432   5.673 -0.7683  0.6564  0.4782
  908MOL0     C22500  10.373   9.435   5.693  0.1333  1.7749  0.7100
  908MOL0     C22501  10.450   9.317   5.713 -0.2279  0.3527  0.5349
  908MOL0     C22502  10.391   9.188   5.707 -0.2979 -0.2778  0.6810
  908MOL0     O22503  10.434   9.062   5.733 -0.0781 -0.3522  0.0976
  908MOL0     C22504  10.551   9.043   5.808 -0.1854  0.7847 -0.0413
  908MOL0     C22505  10.560   8.899   5.870 -0.2830 -0.5381 -0.4230
  908MOL0     C22506  10.548   8.794   5.759  1.1838 -0.2041  0.9368
  908MOL0     C22507  10.564   8.643   5.797  0.6858 -0.5874 -0.0742
  908MOL0     C22508  10.472   8.617   5.908 -0.1188  0.0908  0.7884
  908MOL0     C22509  10.406   8.587   6.004  0.4564 -0.0473  0.4603
  908MOL0     C22510  10.254   9.190   5.679  0.1704  0.0293  0.4213
  908MOL0     C22511  10.173   9.305   5.673  0.0450 -0.3829 -0.0345
  908MOL0     C22512  10.017   9.290   5.681 -0.9722 -0.0439 -0.3362
  908MOL0     H22513  10.107   9.836   5.814  0.9877 -0.1733 -0.0255
  908MOL0     H22514  10.016  10.046   5.755  3.0833 -1.0094  2.3067
  908MOL0     H22515   9.831  10.158   5.598 -0.2933 -0.4668  0.4921
  908MOL0     H22516   9.967  10.244   5.691 -0.0588 -1.7606 -1.0869
  908MOL0     H22517   9.790  10.383   5.620  0.4111  0.3476  0.4952
  908MOL0     H22518   9.849  10.367   5.441  3.5137 -2.0356 -0.8807
  908MOL0     H22519  10.080  10.442   5.548 -0.3783 -0.8029 -1.5746
  908MOL0     H22520   9.969  10.501   5.676  0.2967  0.5016  0.5374
  908MOL0     H22521  10.038  10.656   5.477 -2.0773  3.8643  0.0684
  908MOL0     H22522   9.953  10.558   5.371  1.7437 -1.6770 -0.7000
  908MOL0     H22523   9.737  10.638   5.477  0.6147 -2.1566  1.1515
  908MOL0     H22524   9.830  10.676   5.624  0.9986 -1.0154  0.2690
  908MOL0     H22525   9.895  10.880   5.568  1.2319 -0.2593  0.9473
  908MOL0     H22526   9.914  10.837   5.405 -2.1172 -0.9095 -1.8146
  908MOL0     H22527   9.662  10.864   5.363  0.5993 -0.1649  1.0096
  908MOL0     H22528   9.719  10.997   5.460  2.4869 -0.4863  1.0019
  908MOL0     H22529   9.607  10.739   5.595  3.3484  0.0116 -0.7139
  908MOL0     H22530   9.660  10.901   5.663  0.1862  1.5678 -0.3223
  908MOL0     H22531   9.348  10.733   5.501 -1.7811 -0.3419  2.4061
  908MOL0     H22532   9.059  11.002   5.483  1.6437  2.1822 -0.0416
  908MOL0     H22533   9.137  10.931   5.347 -0.5362  1.0942  0.1570
  908MOL0     H22534   9.114  10.715   5.470  0.4807  0.7955  1.9189
  908MOL0     H22535   9.055  10.801   5.610 -1.1799 -1.8873  0.8366
  908MOL0     H22536   8.850  10.874   5.474  0.3969  0.3272  3.5051
  908MOL0     H22537   8.863  10.696   5.492  0.7573  0.4444 -1.0878
  908MOL0     H22538   8.949  10.840   5.235  0.0526 -0.2642 -0.0280
  908MOL0     H22539   8.821  10.718   5.255 -0.0452 -0.8488  0.4053
  908MOL0     H22540   8.986  10.780   5.035 -0.7788 -0.1156 -1.2858
  908MOL0     H22541   9.142  10.764   4.864 -0.1333  2.8555  0.5550
  908MOL0     H22542   9.289  10.371   4.562 -3.1636  2.2747  0.6149
  908MOL0     H22543   9.395  10.357   4.358  1.5989  0.0641  0.5093
  908MOL0     H22544   9.581  10.732   4.165 -1.9732 -0.7481  0.5685
  908MOL0     H22545   9.724  10.666   4.244 -0.5340  1.3255 -0.5050
  908MOL0     H22546   9.615  10.569   3.985 -1.4030 -1.3365  2.8265
  908MOL0     H22547   9.769  10.663   4.015 -1.4897  1.1382  0.0731
  908MOL0     H22548   9.799  10.435   4.166 -1.0243  0.6776  1.0882
  908MOL0     H22549   9.720  10.382   4.023  0.6809  0.1847 -0.4925
  908MOL0     H22550   9.971  10.553   4.019 -0.7835 -0.0324  4.0882
  908MOL0     H22551   9.866  10.509   3.877  0.0133 -1.3075  0.1089
  908MOL0     H22552  10.021  10.316   4.067  1.9051  1.6898 -1.2365
  908MOL0     H22553  10.077  10.387   3.929 -0.5451  1.5047  0.3543
  908MOL0     H22554   9.842  10.200   3.923 -3.2354  4.6325  0.1024
  908MOL0     H22555   9.893  10.293   3.783 -0.5140 -0.2896  0.6360
  908MOL0     H22556  10.046  10.071   3.914  1.8102  1.7431  0.3888
  908MOL0     H22557  10.133  10.179   3.811 -1.1621  1.2848 -2.9079
  908MOL0     H22558  10.003  10.158   3.626 -0.1056  2.0115  2.1959
  908MOL0     H22559  10.065  10.005   3.668 -1.8102 -1.5303 -1.1386
  908MOL0     H22560   9.521  10.774   4.391  0.0171 -0.0629  1.0274
  908MOL0     H22561   9.400  10.789   4.591  2.0615 -0.5057  0.0648
  908MOL0     H22562   9.317  10.418   5.049  0.4149  1.1368 -2.6640
  908MOL0     H22563   9.177  10.479   5.253 -0.1900  3.2118  1.9011
  908MOL0     H22564  10.115   9.995   5.348 -3.4416  0.4577  0.8513
  908MOL0     H22565  10.251   9.777   5.418  1.4112 -1.8467  1.7801
  908MOL0     H22566  10.434   9.524   5.697  1.2258  1.1770 -1.4383
  908MOL0     H22567  10.557   9.332   5.720 -0.2469  0.2867  0.9798
  908MOL0     H22568  10.568   9.109   5.894  1.6704 -0.4875  0.6255
  908MOL0     H22569  10.633   9.070   5.740 -0.2501  0.6923 -0.1556
  908MOL0     H22570  10.480   8.894   5.944  0.6360  3.3141  1.0444
  908MOL0     H22571  10.652   8.884   5.928  1.1703  3.6631 -1.3122
  908MOL0     H22572  10.610   8.827   5.675 -1.3167  0.1067 -0.8876
  908MOL0     H22573  10.448   8.799   5.715  0.6200 -1.8961  1.9393
  908MOL0     H22574  10.532   8.579   5.714 -2.1571  1.2193 -0.4959
  908MOL0     H22575  10.667   8.622   5.828  0.8892  1.5932  0.8750
  908MOL0     H22576  10.347   8.555   6.088  0.8365 -1.4639  0.2149
  908MOL0     H22577  10.212   9.091   5.666  1.9517 -0.7175  0.0445
  908MOL0     H22578   9.977   9.193   5.649  0.7100 -1.4958  1.6371
  908MOL0     H22579  10.005   9.293   5.790 -0.0399 -1.9934 -0.1430
  908MOL0     H22580   9.963   9.365   5.623 -0.2399  0.5352 -0.2790
  909MOL0     O22581   6.573   8.564   3.977  0.0739 -0.2385 -0.7214
  909MOL0     C22582   6.543   8.450   4.016  0.5958 -0.2138 -0.3563
  909MOL0     O22583   6.600   8.381   4.127  0.2214 -0.1296  0.9246
  909MOL0     C22584   6.662   8.465   4.214 -0.5431 -0.3611 -0.9704
  909MOL0     C22585   6.792   8.525   4.172 -0.3827  0.6891  0.1302
  909MOL0     C22586   6.863   8.599   4.255 -0.7569  0.0250 -0.3114
  909MOL0     C22587   6.818   8.623   4.386 -0.9760 -0.0281  0.5354
  909MOL0     O22588   6.891   8.698   4.479  0.1178  0.8507 -0.3293
  909MOL0     C22589   6.991   8.779   4.424  0.5611  0.2038 -0.7298
  909MOL0     C22590   7.017   8.892   4.525  0.4313 -0.3808  0.1590
  909MOL0     C22591   6.926   9.014   4.498  0.6765 -0.2928  0.2216
  909MOL0     C22592   6.971   9.142   4.580 -0.5442  0.5631  0.5517
  909MOL0     C22593   6.891   9.144   4.711 -0.2401  0.4233  0.1529
  909MOL0     C22594   6.904   9.278   4.781  0.1201 -0.2701  0.8165
  909MOL0     C22595   6.818   9.264   4.903  0.1301  0.5337 -0.1699
  909MOL0     C22596   6.788   9.389   4.994 -0.9208 -0.5840  0.9190
  909MOL0     N22597   6.901   9.401   5.091 -0.4401 -0.7980 -0.3275
  909MOL0     C22598   6.895   9.378   5.223 -0.7791  0.1004 -1.0000
  909MOL0     C22599   7.016   9.412   5.284  0.8099  0.5978  0.8418
  909MOL0     C22600   7.061   9.399   5.427 -0.0180  0.0871  0.0964
  909MOL0     C22601   7.194   9.320   5.434  0.3478 -0.0746 -0.4406
  909MOL0     C22602   7.317   9.401   5.379 -0.2974  0.5410  0.2243
  909MOL0     C22603   7.442   9.354   5.441 -0.5048  0.5786 -0.0016
  909MOL0     O22604   7.563   9.428   5.395 -0.1976 -0.0886 -0.8384
  909MOL0     C22605   7.672   9.363   5.345  0.2357 -0.4257  0.1941
  909MOL0     C22606   7.799   9.416   5.371 -0.0683 -0.1865 -0.2978
  909MOL0     C22607   7.915   9.352   5.327 -0.5257 -0.0237 -0.1988
  909MOL0     C22608   7.911   9.236   5.246 -0.9080  0.2728 -0.7351
  909MOL0     C22609   8.032   9.171   5.192  0.1067  0.1095  0.8437
  909MOL0     O22610   8.150   9.203   5.264  0.4119 -0.1334 -0.5653
  909MOL0     C22611   8.269   9.143   5.259  0.1563 -0.6007 -0.0967
  909MOL0     C22612   8.372   9.186   5.342 -0.8930  0.1637 -1.2320
  909MOL0     C22613   8.499   9.126   5.342  0.3107 -0.9015 -0.6464
  909MOL0     C22614   8.521   8.997   5.284  0.4229 -0.3424 -0.5977
  909MOL0     O22615   8.650   8.944   5.285  0.7599 -0.9361 -0.1503
  909MOL0     C22616   8.676   8.817   5.222  0.3715 -0.8643 -0.3550
  909MOL0     C22617   8.816   8.780   5.277  0.2324  0.3532 -0.3917
  909MOL0     C22618   8.829   8.639   5.238  0.0715  0.4047  0.4455
  909MOL0     C22619   8.954   8.568   5.307  0.0188  0.1749  1.0401
  909MOL0     C22620   8.996   8.444   5.217 -0.9200  0.2564  0.4296
  909MOL0     C22621   9.092   8.344   5.282 -0.7804 -0.4989  0.6256
  909MOL0     C22622   9.118   8.229   5.178 -0.1355 -0.5992 -0.3778
  909MOL0     C22623   9.241   8.131   5.215  0.9184  0.3525  0.2055
  909MOL0    Cl22624   9.386   8.248   5.240  0.6175  0.6482 -0.6124
  909MOL0     C22625   8.413   8.941   5.212  0.1153  0.1963  0.0570
  909MOL0     C22626   8.288   9.012   5.201  0.1800 -0.0295  0.7433
  909MOL0     O22627   8.022   9.098   5.094 -0.0305  0.4155 -0.8177
  909MOL0     C22628   7.785   9.200   5.208  0.2301  0.5628  0.2686
  909MOL0     C22629   7.669   9.264   5.256  0.2675  0.8896  1.0858
  909MOL0     N22630   7.087   9.467   5.181 -0.3225  0.1017  0.2115
  909MOL0     N22631   7.021   9.457   5.063  0.5263  0.3874  0.1112
  909MOL0     C22632   6.706   8.560   4.432 -0.0582 -1.1594  0.4739
  909MOL0     C22633   6.626   8.487   4.347 -0.4441  0.6399 -0.1708
  909MOL0     C22634   6.456   8.377   3.926 -0.4948 -0.1912  0.1653
  909MOL0     C22635   6.450   8.235   3.948 -0.3444 -0.1636 -0.1572
  909MOL0     C22636   6.379   8.153   3.853 -0.0889 -0.7405  0.0628
  909MOL0     C22637   6.298   8.212   3.752  1.0261  0.4544 -0.6693
  909MOL0     O22638   6.227   8.149   3.650  0.1719 -0.0546  0.0828
  909MOL0     C22639   6.185   8.018   3.670  0.3199  0.5298 -0.0020
  909MOL0     C22640   6.116   7.977   3.798 -0.3577  0.7123  1.2199
  909MOL0     C22641   5.976   8.044   3.798 -1.3264 -0.2295 -0.1158
  909MOL0     C22642   5.944   8.066   3.946  0.8853  0.5879  0.2011
  909MOL0     C22643   6.009   8.185   4.008  0.3381 -0.1807  0.0264
  909MOL0     C22644   6.054   8.280   4.071 -0.6043  0.7390 -0.1714
  909MOL0     C22645   6.291   8.350   3.745  0.4313 -0.5931  0.1764
  909MOL0     C22646   6.361   8.437   3.832 -0.0187  0.5245  0.8027
  909MOL0     C22647   6.339   8.592   3.817  1.1347  0.2268  0.9183
  909MOL0     H22648   6.826   8.506   4.071 -1.6127  3.5471 -0.9139
  909MOL0     H22649   6.956   8.641   4.219 -0.8349  2.4110  1.9673
  909MOL0     H22650   7.082   8.720   4.412  1.0861 -0.1366  3.4624
  909MOL0     H22651   6.967   8.825   4.328  0.1650  0.1835 -0.6428
  909MOL0     H22652   7.119   8.931   4.519 -0.4425  2.1368  0.2196
  909MOL0     H22653   7.001   8.863   4.629  0.4812  2.5720  1.1026
  909MOL0     H22654   6.825   8.982   4.527  1.6484 -3.7643  0.2142
  909MOL0     H22655   6.937   9.059   4.399 -0.4571  3.8536  1.7359
  909MOL0     H22656   7.080   9.138   4.594 -0.4172 -2.1781 -0.5451
  909MOL0     H22657   6.951   9.226   4.514  2.2810 -1.8269 -3.8773
  909MOL0     H22658   6.790   9.106   4.696 -0.0027 -0.4840  0.7340
  909MOL0     H22659   6.936   9.061   4.767 -2.1073 -1.3070 -0.7958
  909MOL0     H22660   7.009   9.290   4.809  0.9018 -2.3696 -0.8789
  909MOL0     H22661   6.866   9.353   4.711 -0.9487 -0.3815  1.2566
  909MOL0     H22662   6.859   9.184   4.965 -1.1960  0.2758  0.4053
  909MOL0     H22663   6.719   9.236   4.866 -0.4800  3.2911 -0.8660
  909MOL0     H22664   6.783   9.479   4.931 -1.6561 -0.3412  1.3129
  909MOL0     H22665   6.693   9.389   5.050 -1.6358  4.5856  0.2685
  909MOL0     H22666   6.811   9.341   5.281  0.1568  0.4185  0.6241
  909MOL0     H22667   7.076   9.499   5.470 -0.0264  0.3283 -0.4455
  909MOL0     H22668   6.985   9.353   5.491  0.6068  0.1068  0.8548
  909MOL0     H22669   7.204   9.286   5.537  0.3622 -0.5257 -0.5910
  909MOL0     H22670   7.181   9.223   5.387  3.4887 -0.2642 -1.1519
  909MOL0     H22671   7.308   9.510   5.391  2.8371  1.2907 -2.6808
  909MOL0     H22672   7.312   9.389   5.270 -0.3728  3.7354 -0.2261
  909MOL0     H22673   7.454   9.246   5.425  0.6912  0.0054  3.7711
  909MOL0     H22674   7.425   9.370   5.547 -2.3325 -2.2805  0.2525
  909MOL0     H22675   7.797   9.508   5.428  1.1219 -0.0782 -0.4034
  909MOL0     H22676   8.014   9.393   5.344  0.4403 -1.8875 -1.0052
  909MOL0     H22677   8.348   9.265   5.413 -0.5208 -0.0209 -0.8942
  909MOL0     H22678   8.565   9.189   5.401 -1.7599  1.7414 -0.9613
  909MOL0     H22679   8.606   8.740   5.255 -0.1944 -0.2884 -0.1857
  909MOL0     H22680   8.678   8.820   5.112 -1.6609 -1.5100 -0.4595
  909MOL0     H22681   8.898   8.840   5.236  1.3302 -2.6573 -2.9786
  909MOL0     H22682   8.820   8.791   5.386 -0.2207  1.9948 -0.5064
  909MOL0     H22683   8.739   8.581   5.258  0.9584 -1.9014 -1.7012
  909MOL0     H22684   8.839   8.637   5.129 -0.2480  0.3091  0.4179
  909MOL0     H22685   8.918   8.537   5.406  1.7404 -1.5083  1.2039
  909MOL0     H22686   9.027   8.647   5.324 -1.6208  2.2948 -1.2027
  909MOL0     H22687   9.052   8.469   5.126  2.3673 -3.4158  1.1766
  909MOL0     H22688   8.907   8.394   5.178 -0.6144  1.3800 -1.8754
  909MOL0     H22689   9.186   8.393   5.310 -0.8459 -1.1611  2.1466
  909MOL0     H22690   9.041   8.303   5.370 -1.1505 -0.4204  0.4486
  909MOL0     H22691   9.135   8.268   5.078 -1.4994  1.4911  0.1234
  909MOL0     H22692   9.015   8.194   5.169 -1.9116  3.4258  1.6357
  909MOL0     H22693   9.235   8.073   5.307  1.1990  0.8193  0.5277
  909MOL0     H22694   9.262   8.057   5.138  1.1565  0.1102  0.5005
  909MOL0     H22695   8.423   8.843   5.168  1.5201  0.4935 -0.3197
  909MOL0     H22696   8.207   8.964   5.146  0.4076 -0.0628  0.4358
  909MOL0     H22697   7.771   9.111   5.147  0.1654  0.5135  0.3573
  909MOL0     H22698   7.577   9.212   5.231  1.4702 -2.3066  2.7006
  909MOL0     H22699   6.678   8.578   4.535 -0.3627  0.9083  0.0755
  909MOL0     H22700   6.543   8.428   4.384 -0.9580  0.2744 -1.8314
  909MOL0     H22701   6.514   8.179   4.015 -2.6704 -3.6284 -0.6024
  909MOL0     H22702   6.395   8.047   3.867  0.8961 -0.4992  0.8362
  909MOL0     H22703   6.267   7.947   3.655  0.7565  0.7173  1.3656
  909MOL0     H22704   6.115   7.995   3.589 -3.8249 -1.1260  3.6982
  909MOL0     H22705   6.182   7.989   3.884  0.9435  1.3392  0.1801
  909MOL0     H22706   6.092   7.871   3.787  2.3405  0.3147 -3.9225
  909MOL0     H22707   5.904   7.976   3.753  1.0588 -4.2890  1.6482
  909MOL0     H22708   5.977   8.129   3.729 -0.7145 -1.4089 -1.6395
  909MOL0     H22709   5.837   8.087   3.961  0.6071  0.4278 -1.3668
  909MOL0     H22710   5.965   7.970   3.993 -0.5820 -0.9948 -2.1413
  909MOL0     H22711   6.067   8.366   4.133 -1.9271  1.0186 -0.2406
  909MOL0     H22712   6.236   8.393   3.662  2.3316  0.5583 -0.5452
  909MOL0     H22713   6.408   8.624   3.739 -1.7170 -0.3587 -2.0760
  909MOL0     H22714   6.239   8.610   3.776  1.4382  1.5285  0.7030
  909MOL0     H22715   6.350   8.648   3.911 -1.4775 -0.7870  1.9245
  910MOL0     O22716   3.372   7.727   8.280 -0.8871  0.3417 -0.1728
  910MOL0     C22717   3.253   7.734   8.264  0.1532 -0.2681  0.0606
  910MOL0     O22718   3.180   7.818   8.174  0.3432  0.1939 -0.1562
  910MOL0     C22719   3.237   7.873   8.064  0.0842 -0.1392  0.2104
  910MOL0     C22720   3.370   7.871   8.024  0.3287  0.2351  0.0938
  910MOL0     C22721   3.427   7.965   7.937  0.3040 -0.4656 -0.1800
  910MOL0     C22722   3.350   8.053   7.865  0.1943 -0.4645  0.0551
  910MOL0     O22723   3.413   8.137   7.773  1.3572  0.5953 -0.2942
  910MOL0     C22724   3.380   8.267   7.749 -0.2785 -0.3130 -0.3862
  910MOL0     C22725   3.366   8.296   7.594 -0.1830 -0.1349 -0.8852
  910MOL0     C22726   3.301   8.425   7.553 -0.4561 -0.3538 -0.6850
  910MOL0     C22727   3.286   8.449   7.401 -0.7012  0.3826 -0.7514
  910MOL0     C22728   3.197   8.572   7.381  0.3132  0.3750 -0.0947
  910MOL0     C22729   3.169   8.597   7.225 -0.2974  0.2464 -0.9908
  910MOL0     C22730   3.104   8.740   7.209  0.4874  0.3905  1.1497
  910MOL0     C22731   3.109   8.802   7.070  0.7905  0.3001  0.3917
  910MOL0     N22732   3.005   8.756   6.971  0.0669  0.0843  1.2979
  910MOL0     C22733   3.017   8.650   6.890  0.7377 -0.2058  0.2483
  910MOL0     C22734   2.903   8.647   6.823  0.5735  0.0102  0.0717
  910MOL0     C22735   2.866   8.557   6.708  0.2317 -0.1433  0.3632
  910MOL0     C22736   2.840   8.417   6.766  0.7885  0.5818 -0.5766
  910MOL0     C22737   2.809   8.305   6.660 -0.0425  0.2293 -0.1876
  910MOL0     C22738   2.708   8.350   6.553  1.0167 -0.3732 -1.0145
  910MOL0     O22739   2.773   8.433   6.455 -0.1324  0.4081  0.5574
  910MOL0     C22740   2.704   8.512   6.372  0.4069  0.0726 -0.4077
  910MOL0     C22741   2.566   8.520   6.366 -0.1960  0.1324  0.7710
  910MOL0     C22742   2.508   8.615   6.276  0.3906 -0.8867  0.1495
  910MOL0     C22743   2.578   8.705   6.197 -0.5010  0.0929  0.5410
  910MOL0     C22744   2.511   8.795   6.105  1.0341  0.1887 -0.0786
  910MOL0     O22745   2.374   8.787   6.087  0.6233 -0.0624  0.1329
  910MOL0     C22746   2.300   8.884   6.025  0.8470  0.5290  0.8348
  910MOL0     C22747   2.165   8.865   6.015  1.0290  1.0272  0.4533
  910MOL0     C22748   2.072   8.957   5.970 -0.2221 -0.2083 -1.1376
  910MOL0     C22749   2.114   9.070   5.909 -0.8535  0.2335  0.2985
  910MOL0     O22750   2.022   9.146   5.844  0.8781 -0.0955  0.5800
  910MOL0     C22751   2.068   9.240   5.748  0.4096  1.0417  0.0830
  910MOL0     C22752   1.942   9.267   5.657  0.0030 -0.4355  0.2958
  910MOL0     C22753   1.893   9.153   5.572 -0.1931 -0.6670  0.3892
  910MOL0     C22754   1.774   9.198   5.493  0.6649  0.4864  0.3254
  910MOL0     C22755   1.707   9.068   5.429 -0.0031 -0.5680 -0.7696
  910MOL0     C22756   1.569   9.095   5.359 -0.0595 -0.5599  0.7718
  910MOL0     C22757   1.593   9.166   5.221 -0.2326 -0.1319  0.0084
  910MOL0     C22758   1.474   9.150   5.138  0.1364  0.6043  0.3141
  910MOL0    Cl22759   1.461   8.975   5.079  0.1924 -0.3683 -0.0787
  910MOL0     C22760   2.253   9.098   5.899 -0.1969 -0.0427  0.2853
  910MOL0     C22761   2.345   9.008   5.953  0.1798  0.4699 -0.0221
  910MOL0     O22762   2.584   8.875   6.048 -0.2072  0.3160 -0.8543
  910MOL0     C22763   2.720   8.697   6.209 -0.0101  0.3640  0.4028
  910MOL0     C22764   2.781   8.603   6.297 -0.0946  0.2628  0.1493
  910MOL0     N22765   2.818   8.745   6.871  0.7582  1.0208 -0.5240
  910MOL0     N22766   2.882   8.815   6.967 -0.6016  0.6006 -0.0453
  910MOL0     C22767   3.210   8.059   7.906 -0.3395 -0.5363  0.2400
  910MOL0     C22768   3.153   7.971   8.006  0.3099  1.1601 -0.0194
  910MOL0     C22769   3.163   7.636   8.343 -0.0731  0.1244 -0.2186
  910MOL0     C22770   3.052   7.571   8.282  0.3035  0.1193  0.5877
  910MOL0     C22771   2.960   7.499   8.360 -0.3682  0.6735  0.5949
  910MOL0     C22772   2.979   7.473   8.496  0.7812 -0.3880 -0.0088
  910MOL0     O22773   2.881   7.391   8.553  0.1310 -0.4021 -1.0112
  910MOL0     C22774   2.904   7.354   8.692  0.6606  0.5099 -0.8345
  910MOL0     C22775   2.853   7.462   8.793  0.0011  0.2000  0.5947
  910MOL0     C22776   2.698   7.458   8.781  0.5808 -0.5146  0.0444
  910MOL0     C22777   2.634   7.573   8.859 -0.0268 -0.0602  0.4049
  910MOL0     C22778   2.491   7.555   8.858  0.0245  0.1871 -0.9230
  910MOL0     C22779   2.373   7.518   8.876  0.5114 -0.6613 -0.1038
  910MOL0     C22780   3.097   7.528   8.547 -0.4845  0.8796 -0.6228
  910MOL0     C22781   3.190   7.604   8.481 -0.6787  0.5858  0.1297
  910MOL0     C22782   3.318   7.652   8.550  0.0552 -0.2361  0.2097
  910MOL0     H22783   3.436   7.797   8.068  1.8717  1.0801 -0.6932
  910MOL0     H22784   3.533   7.949   7.922 -0.2419 -4.2696 -0.9151
  910MOL0     H22785   3.285   8.285   7.801 -0.3829  1.4156 -1.1101
  910MOL0     H22786   3.452   8.338   7.789  1.2405 -0.9576 -1.8802
  910MOL0     H22787   3.314   8.210   7.551 -0.3619 -0.5904  0.2037
  910MOL0     H22788   3.469   8.297   7.557 -0.5405  1.3164 -1.9154
  910MOL0     H22789   3.355   8.512   7.591  2.4871 -1.2583 -2.4801
  910MOL0     H22790   3.206   8.430   7.608  0.8609  0.2391  1.7031
  910MOL0     H22791   3.390   8.455   7.366 -0.8498 -0.3899 -1.3498
  910MOL0     H22792   3.252   8.357   7.352  0.7625  0.4157 -1.9301
  910MOL0     H22793   3.096   8.569   7.422 -0.1447  0.2321 -1.1978
  910MOL0     H22794   3.241   8.657   7.434  0.1458  1.2045 -1.2529
  910MOL0     H22795   3.260   8.589   7.166  0.5877 -2.0634  0.5216
  910MOL0     H22796   3.102   8.522   7.182 -2.7275  1.1714  0.8838
  910MOL0     H22797   3.153   8.810   7.276 -2.0890  0.4019  3.1952
  910MOL0     H22798   2.999   8.738   7.240 -0.2931  2.0887 -1.1179
  910MOL0     H22799   3.088   8.908   7.087 -0.5475  0.1437 -0.1822
  910MOL0     H22800   3.212   8.791   7.034  1.0578  0.4886  1.0820
  910MOL0     H22801   3.111   8.597   6.876 -0.2727 -2.1234  0.5265
  910MOL0     H22802   2.780   8.610   6.666  1.4764  2.0392  0.4663
  910MOL0     H22803   2.954   8.538   6.646  0.9928 -1.2695  1.7234
  910MOL0     H22804   2.917   8.375   6.830 -0.1811 -0.2141  0.1038
  910MOL0     H22805   2.756   8.426   6.836  3.1401 -1.8065  2.8229
  910MOL0     H22806   2.789   8.219   6.725 -0.0821  1.0493  0.9340
  910MOL0     H22807   2.904   8.284   6.611 -0.0867  1.5300 -0.8734
  910MOL0     H22808   2.628   8.404   6.605  1.4612 -1.0372  0.3959
  910MOL0     H22809   2.668   8.261   6.504  0.9954 -0.7073 -0.3989
  910MOL0     H22810   2.498   8.457   6.422  1.1045  1.5398  4.2097
  910MOL0     H22811   2.401   8.621   6.263  0.1840 -0.8424  1.6272
  910MOL0     H22812   2.122   8.772   6.052  0.0834 -0.4353 -3.6975
  910MOL0     H22813   1.966   8.934   5.974 -0.3680  0.5630  1.1454
  910MOL0     H22814   2.106   9.334   5.788  2.3752  0.0627  0.5966
  910MOL0     H22815   2.147   9.197   5.685 -1.4018 -0.2186 -1.4677
  910MOL0     H22816   1.853   9.303   5.708 -0.0388  2.3059 -1.5208
  910MOL0     H22817   1.961   9.342   5.580 -3.1262  0.5108  0.3384
  910MOL0     H22818   1.975   9.120   5.508 -0.2171 -1.6400  0.8453
  910MOL0     H22819   1.871   9.067   5.635  3.2156 -1.9643  0.0421
  910MOL0     H22820   1.811   9.252   5.406  1.0911 -0.1100  0.1297
  910MOL0     H22821   1.700   9.267   5.535  0.6981  1.7813 -1.5956
  910MOL0     H22822   1.687   9.011   5.520 -0.7094  2.7840  1.3715
  910MOL0     H22823   1.775   9.001   5.376 -2.1119 -0.6847 -3.4986
  910MOL0     H22824   1.523   9.000   5.333 -1.2018  0.2314 -0.2320
  910MOL0     H22825   1.499   9.151   5.421 -2.4281 -0.9369 -1.4088
  910MOL0     H22826   1.673   9.109   5.172  0.0851  0.3670 -0.0514
  910MOL0     H22827   1.630   9.269   5.223 -1.4003  0.3396 -1.3962
  910MOL0     H22828   1.385   9.172   5.198 -0.5532 -2.5488  0.6225
  910MOL0     H22829   1.494   9.229   5.065 -1.1085 -1.8802 -2.9170
  910MOL0     H22830   2.288   9.193   5.859  0.7447 -1.8468 -3.6228
  910MOL0     H22831   2.449   9.036   5.938  0.8731 -1.1111  1.4190
  910MOL0     H22832   2.779   8.774   6.159 -0.2163 -0.4601 -1.1749
  910MOL0     H22833   2.890   8.606   6.303  0.1096 -0.1017 -2.4613
  910MOL0     H22834   3.148   8.135   7.858 -1.4055 -0.3270  1.8682
  910MOL0     H22835   3.054   7.982   8.048  0.3853  0.1902  0.4459
  910MOL0     H22836   3.027   7.594   8.179  1.5566  0.6295  0.3711
  910MOL0     H22837   2.866   7.470   8.315  0.2609  1.8689 -1.6017
  910MOL0     H22838   3.008   7.326   8.712 -0.1981 -0.5082  3.0033
  910MOL0     H22839   2.855   7.259   8.715  3.5328 -0.7154  0.7313
  910MOL0     H22840   2.894   7.559   8.765 -0.2390  0.6215  1.6487
  910MOL0     H22841   2.875   7.426   8.894 -2.2707 -0.0834  1.0578
  910MOL0     H22842   2.675   7.359   8.822  1.0017 -0.8457 -0.5044
  910MOL0     H22843   2.660   7.463   8.678 -0.2891  1.7895  0.4305
  910MOL0     H22844   2.674   7.572   8.961 -0.6448  1.6618  0.6970
  910MOL0     H22845   2.670   7.664   8.810 -2.6850 -0.4449 -2.5993
  910MOL0     H22846   2.273   7.488   8.895 -0.0411  1.3761  0.5037
  910MOL0     H22847   3.112   7.493   8.649 -0.6885 -0.7296 -1.1239
  910MOL0     H22848   3.402   7.590   8.516 -0.3720 -0.8840  0.3150
  910MOL0     H22849   3.332   7.758   8.529  1.3058 -1.0396 -3.7966
  910MOL0     H22850   3.320   7.633   8.658 -0.6532 -0.3100  0.2112
  911MOL0     O22851   4.198   6.809  11.340  0.5710  0.2841 -0.0467
  911MOL0     C22852   4.242   6.699  11.319 -0.2659  0.2663  0.4772
  911MOL0     O22853   4.227   6.590  11.411 -0.1128  0.1188  0.1682
  911MOL0     C22854   4.140   6.600  11.514  0.0769  0.4915  0.0304
  911MOL0     C22855   4.003   6.618  11.495  0.3243  0.2929  0.0392
  911MOL0     C22856   3.920   6.654  11.604 -0.5155  1.2050  0.6079
  911MOL0     C22857   3.972   6.660  11.735  0.5069 -0.0517  1.3661
  911MOL0     O22858   3.876   6.682  11.839  0.4298  0.2680  0.3401
  911MOL0     C22859   3.913   6.626  11.969  0.3729 -0.5959  0.8029
  911MOL0     C22860   3.786   6.620  12.065 -0.7225  0.2228  0.8045
  911MOL0     C22861   3.712   6.749  12.076  0.2722 -1.0761 -0.2153
  911MOL0     C22862   3.651   6.782  12.221 -0.6702 -0.5571 -0.4776
  911MOL0     C22863   3.572   6.914  12.229 -0.1819  0.0152 -0.1650
  911MOL0     C22864   3.419   6.900  12.185 -0.3749 -0.0816 -0.7693
  911MOL0     C22865   3.334   7.033  12.196 -0.2076  0.1302  0.1901
  911MOL0     C22866   3.187   7.002  12.201 -0.8564  0.0314 -0.0164
  911MOL0     N22867   3.126   6.925  12.093 -0.0636  0.0605  0.2137
  911MOL0     C22868   3.103   6.792  12.106  0.3157  0.1028 -0.8247
  911MOL0     C22869   2.996   6.769  12.021  0.3175 -0.3007 -1.1568
  911MOL0     C22870   2.934   6.637  11.984  0.0206 -1.1017 -0.6467
  911MOL0     C22871   3.027   6.574  11.881 -0.6259 -0.1403 -0.2574
  911MOL0     C22872   3.019   6.635  11.736 -0.2332  0.0709 -0.6324
  911MOL0     C22873   3.124   6.586  11.637 -0.1635  0.7956 -0.2145
  911MOL0     O22874   3.098   6.446  11.632 -0.0084 -0.3747  1.5285
  911MOL0     C22875   3.177   6.371  11.543 -0.3659  0.7375 -0.2618
  911MOL0     C22876   3.282   6.424  11.471 -0.2789  0.0214 -0.7999
  911MOL0     C22877   3.350   6.347  11.383  0.6929 -0.6443 -0.9957
  911MOL0     C22878   3.325   6.212  11.366 -0.9316 -0.7700 -0.2756
  911MOL0     C22879   3.407   6.127  11.274  0.0208 -0.8839 -0.7308
  911MOL0     O22880   3.519   6.176  11.211  0.2382 -0.7711  0.2040
  911MOL0     C22881   3.583   6.102  11.119 -0.3168  0.3098  0.1992
  911MOL0     C22882   3.631   6.177  11.005 -0.9983  0.4358 -0.1621
  911MOL0     C22883   3.682   6.115  10.898 -0.0248  0.8060 -0.1619
  911MOL0     C22884   3.705   5.971  10.905  0.5730  0.2803  0.0629
  911MOL0     O22885   3.767   5.897  10.801  1.0939  0.2138 -0.3381
  911MOL0     C22886   3.897   5.942  10.766  0.1020 -0.3913  0.2417
  911MOL0     C22887   3.985   5.825  10.728  0.6049  0.2977 -0.0337
  911MOL0     C22888   3.933   5.756  10.609 -0.5947  0.2614 -0.4812
  911MOL0     C22889   4.030   5.684  10.520  0.0025 -0.3015  0.4044
  911MOL0     C22890   3.961   5.646  10.395 -0.5275  0.1622 -0.0427
  911MOL0     C22891   4.046   5.565  10.296  0.0237  0.1837  0.7871
  911MOL0     C22892   3.976   5.555  10.160 -0.1206 -0.1222  0.0340
  911MOL0     C22893   4.054   5.472  10.059  0.6329 -0.4606 -0.5480
  911MOL0    Cl22894   4.198   5.558  10.005 -0.3363 -0.3286  0.1945
  911MOL0     C22895   3.656   5.900  11.010  0.2461  0.0540 -0.4721
  911MOL0     C22896   3.597   5.967  11.112  0.4000  0.2220  0.4887
  911MOL0     O22897   3.349   6.024  11.250 -0.0165 -0.4468  0.3796
  911MOL0     C22898   3.213   6.163  11.422 -0.2372 -0.3639  0.0808
  911MOL0     C22899   3.140   6.239  11.518 -0.7340 -0.3858 -0.1716
  911MOL0     N22900   2.962   6.893  11.965 -0.1873 -0.1003  0.4720
  911MOL0     N22901   3.037   6.988  12.004  0.2672  0.7308 -0.0253
  911MOL0     C22902   4.104   6.643  11.750 -0.5331  0.3496 -0.3531
  911MOL0     C22903   4.187   6.623  11.638 -0.4379 -0.2073 -0.4401
  911MOL0     C22904   4.303   6.667  11.190 -0.0259 -0.4262  0.4175
  911MOL0     C22905   4.292   6.531  11.159 -0.3526  0.4905 -0.5470
  911MOL0     C22906   4.361   6.483  11.046  0.3898  0.6010 -0.3722
  911MOL0     C22907   4.438   6.568  10.967  0.5761  0.1967  0.4353
  911MOL0     O22908   4.512   6.509  10.867 -0.9876  0.4192 -0.2437
  911MOL0     C22909   4.592   6.596  10.777 -1.1898  0.4060 -0.1232
  911MOL0     C22910   4.621   6.524  10.650 -0.2947  0.4151 -0.1734
  911MOL0     C22911   4.673   6.616  10.544  0.0107  1.0295 -1.0730
  911MOL0     C22912   4.722   6.546  10.417 -0.2382  0.1028  0.6475
  911MOL0     C22913   4.763   6.647  10.319  0.0379  0.2084  0.4028
  911MOL0     C22914   4.812   6.727  10.240  1.6914 -0.2165  0.2532
  911MOL0     C22915   4.451   6.706  11.005  0.9424  0.9522  1.0613
  911MOL0     C22916   4.379   6.754  11.107  0.1773  0.3048 -0.2666
  911MOL0     C22917   4.382   6.901  11.128 -0.1238 -0.1906  0.8733
  911MOL0     H22918   3.953   6.605  11.399 -4.0132  0.0615  2.0930
  911MOL0     H22919   3.814   6.672  11.589 -1.6879 -2.6066  2.9280
  911MOL0     H22920   3.944   6.523  11.950  1.3779 -0.2074  0.2145
  911MOL0     H22921   3.993   6.687  12.012  0.2546  1.3540 -1.5086
  911MOL0     H22922   3.825   6.577  12.158  0.7488  3.1046  1.6419
  911MOL0     H22923   3.716   6.551  12.017  1.2636 -1.3614  0.0361
  911MOL0     H22924   3.629   6.746  12.004 -2.3397 -1.7819  2.5968
  911MOL0     H22925   3.783   6.829  12.053 -2.8420  1.9374 -0.2104
  911MOL0     H22926   3.602   6.693  12.262 -1.2505  1.2086  3.0078
  911MOL0     H22927   3.730   6.807  12.293 -1.8361 -2.8212  1.7457
  911MOL0     H22928   3.577   6.937  12.335  0.6481 -4.5873  1.0049
  911MOL0     H22929   3.621   6.992  12.170  1.2553 -0.9212 -0.2552
  911MOL0     H22930   3.403   6.880  12.079 -1.1954  3.1225 -1.3398
  911MOL0     H22931   3.381   6.817  12.246 -1.2759  2.1333  1.9161
  911MOL0     H22932   3.351   7.084  12.100 -4.3824  0.1888 -0.6802
  911MOL0     H22933   3.361   7.084  12.289 -1.2159 -0.1370  0.6424
  911MOL0     H22934   3.161   6.955  12.297  1.0282  4.3269  2.9447
  911MOL0     H22935   3.141   7.102  12.202 -2.1033 -0.5206 -0.7122
  911MOL0     H22936   3.158   6.712  12.155 -0.9289 -1.0867 -1.2878
  911MOL0     H22937   2.934   6.578  12.076 -0.2894  1.7041  1.2851
  911MOL0     H22938   2.826   6.646  11.965  0.2335  0.1806 -1.3565
  911MOL0     H22939   3.133   6.592  11.899 -0.4946 -2.5100  1.7279
  911MOL0     H22940   2.998   6.470  11.868 -1.3904  0.2957 -2.4960
  911MOL0     H22941   3.054   6.739  11.744  2.0636 -0.7075  0.5409
  911MOL0     H22942   2.930   6.626  11.674  0.7045 -1.6603 -1.8062
  911MOL0     H22943   3.228   6.601  11.667  0.4042 -1.9995 -0.4857
  911MOL0     H22944   3.122   6.636  11.540  0.5641  2.1320  0.4244
  911MOL0     H22945   3.314   6.526  11.489  1.8040 -0.7152 -0.0201
  911MOL0     H22946   3.433   6.396  11.332  0.7122  2.9992  2.0853
  911MOL0     H22947   3.617   6.284  10.996  0.3721  0.8746  2.0029
  911MOL0     H22948   3.727   6.170  10.816 -2.9259  2.5753 -0.7219
  911MOL0     H22949   3.891   6.027  10.697 -2.4752  1.0196  2.0279
  911MOL0     H22950   3.941   5.987  10.855  1.9414  2.4224 -1.9056
  911MOL0     H22951   4.083   5.872  10.715  1.1595 -0.9933 -0.6452
  911MOL0     H22952   3.977   5.762  10.817  0.2969 -0.3298 -0.4954
  911MOL0     H22953   3.856   5.686  10.643 -0.9885  0.2582 -1.3461
  911MOL0     H22954   3.886   5.835  10.550 -1.0142  0.6855  0.4095
  911MOL0     H22955   4.050   5.597  10.583 -2.1442  0.8663  2.8494
  911MOL0     H22956   4.113   5.750  10.491 -0.2108 -0.0603  0.3437
  911MOL0     H22957   3.916   5.724  10.332 -0.7787 -0.4206 -0.6026
  911MOL0     H22958   3.875   5.585  10.425  0.6167 -0.5317  1.9679
  911MOL0     H22959   4.147   5.606  10.292  1.3474 -2.3799  3.3617
  911MOL0     H22960   4.052   5.467  10.344  0.8869  1.3741  3.3227
  911MOL0     H22961   3.969   5.654  10.114  0.6386 -0.4329 -0.7869
  911MOL0     H22962   3.874   5.516  10.165 -0.5288  1.0299  1.4389
  911MOL0     H22963   4.083   5.379  10.108  2.8958  2.1481  3.7617
  911MOL0     H22964   3.995   5.458   9.968  2.9420  0.6920 -2.3704
  911MOL0     H22965   3.675   5.793  11.018  2.9041  0.5682  2.6328
  911MOL0     H22966   3.553   5.898  11.183  1.8638  0.9274  2.1304
  911MOL0     H22967   3.164   6.068  11.405 -2.6916  0.0794  3.5490
  911MOL0     H22968   3.042   6.211  11.556 -0.6176 -1.9312 -0.9160
  911MOL0     H22969   4.168   6.642  11.838  1.7182 -0.0643 -1.9060
  911MOL0     H22970   4.292   6.627  11.665 -0.5412 -0.2801 -0.0306
  911MOL0     H22971   4.222   6.473  11.218  0.0741  3.6826  3.5095
  911MOL0     H22972   4.355   6.378  11.019 -3.0455  1.2213 -2.6684
  911MOL0     H22973   4.687   6.618  10.825 -1.1425 -1.0007  0.4741
  911MOL0     H22974   4.535   6.684  10.745 -1.3827  0.2936 -0.0930
  911MOL0     H22975   4.526   6.482  10.615 -0.5514  0.3051  0.6316
  911MOL0     H22976   4.696   6.447  10.671 -1.9117 -1.0854  0.3760
  911MOL0     H22977   4.750   6.687  10.576 -0.6777  0.7715  1.3471
  911MOL0     H22978   4.584   6.670  10.510 -0.6597  1.3153  1.0109
  911MOL0     H22979   4.806   6.478  10.430 -0.1069  0.2497  0.5672
  911MOL0     H22980   4.646   6.488  10.364 -0.8833  0.3695  1.2517
  911MOL0     H22981   4.836   6.802  10.168  1.5540 -0.4157 -0.0026
  911MOL0     H22982   4.507   6.773  10.939 -1.9523  0.8123 -1.8122
  911MOL0     H22983   4.403   6.921  11.234  1.5116  0.5169  0.4614
  911MOL0     H22984   4.469   6.941  11.075  0.2609 -0.2879  1.4212
  911MOL0     H22985   4.289   6.947  11.095 -1.0105 -0.5907  2.6910
  912MOL0     O22986   6.616   5.087  10.759 -0.6161  0.0722  0.3468
  912MOL0     C22987   6.671   5.128  10.655  1.1224  0.3808  0.1300
  912MOL0     O22988   6.801   5.135  10.628 -0.5764  0.2199 -0.1344
  912MOL0     C22989   6.882   5.114  10.736 -0.4264  0.9822  0.4936
  912MOL0     C22990   6.911   4.980  10.773 -0.3807 -0.5370  0.9944
  912MOL0     C22991   7.023   4.960  10.860 -0.3446 -0.8606  0.5080
  912MOL0     C22992   7.105   5.065  10.895  0.6744 -0.6625  0.3988
  912MOL0     O22993   7.207   5.078  10.988  0.8051 -0.0498  0.3740
  912MOL0     C22994   7.269   4.965  11.040  0.4506 -0.5204 -0.0956
  912MOL0     C22995   7.355   4.893  10.934 -0.6246  0.2094 -0.2397
  912MOL0     C22996   7.385   4.746  10.976 -0.7919 -0.5508 -0.0549
  912MOL0     C22997   7.517   4.679  10.939 -0.3910 -0.8254  0.4565
  912MOL0     C22998   7.536   4.543  11.004  0.3445  0.2841 -0.2387
  912MOL0     C22999   7.653   4.459  10.952  0.0603  0.3233 -0.3631
  912MOL0     C23000   7.675   4.336  11.055  1.3537  0.8634 -0.6007
  912MOL0     C23001   7.809   4.260  11.026  0.3366  1.3037  0.8522
  912MOL0     N23002   7.802   4.184  10.900 -0.0602  0.0264  0.2628
  912MOL0     C23003   7.785   4.049  10.884  0.1742 -0.5074  0.2676
  912MOL0     C23004   7.803   4.024  10.745 -0.5491 -0.0377  0.3071
  912MOL0     C23005   7.812   3.889  10.684 -0.1089 -1.3560 -0.8395
  912MOL0     C23006   7.948   3.824  10.702 -0.4944  0.3881 -0.1291
  912MOL0     C23007   8.074   3.896  10.647  0.1194  0.4013  0.4077
  912MOL0     C23008   8.083   3.907  10.493 -1.0305 -0.5442 -0.4058
  912MOL0     O23009   8.211   3.950  10.438  0.4284  0.3363  0.1787
  912MOL0     C23010   8.250   4.078  10.456 -0.0400  0.2997 -0.3208
  912MOL0     C23011   8.373   4.104  10.419 -0.7557 -1.2088  0.2654
  912MOL0     C23012   8.414   4.242  10.401  0.0901  0.3709 -0.7120
  912MOL0     C23013   8.331   4.348  10.459 -0.2497  0.2882  1.0526
  912MOL0     C23014   8.366   4.494  10.450  0.7923 -0.3315  0.1826
  912MOL0     O23015   8.274   4.591  10.487 -0.3332 -0.5894  0.2403
  912MOL0     C23016   8.315   4.717  10.476 -0.2062 -0.5839 -0.2028
  912MOL0     C23017   8.420   4.772  10.549  0.3954 -1.4521  0.3621
  912MOL0     C23018   8.457   4.907  10.544  0.9881  0.0536 -0.0423
  912MOL0     C23019   8.381   5.000  10.478 -0.5249  0.0569 -0.0273
  912MOL0     O23020   8.406   5.134  10.487  0.4476  0.2664  0.1261
  912MOL0     C23021   8.538   5.173  10.501 -0.5438  0.8178  0.1485
  912MOL0     C23022   8.553   5.316  10.446  0.1715 -0.4092 -0.0711
  912MOL0     C23023   8.704   5.351  10.470 -0.1016 -0.1847 -0.0111
  912MOL0     C23024   8.703   5.506  10.490 -0.3814 -0.2123 -0.0502
  912MOL0     C23025   8.844   5.559  10.475 -0.5096  0.5025 -0.0651
  912MOL0     C23026   8.847   5.710  10.496  0.1152 -0.4984  0.8740
  912MOL0     C23027   8.973   5.771  10.451 -0.2743 -0.1143 -0.5898
  912MOL0     C23028   8.972   5.919  10.468 -0.6813 -0.4499 -0.0275
  912MOL0    Cl23029   9.086   6.019  10.373 -0.4758  0.2458  0.2789
  912MOL0     C23030   8.276   4.947  10.401 -0.3640  0.4677  0.5247
  912MOL0     C23031   8.239   4.812  10.392 -0.1471  0.7451 -1.0664
  912MOL0     O23032   8.470   4.514  10.388  0.4676  0.5777  1.1955
  912MOL0     C23033   8.200   4.317  10.508 -0.8887  0.0737  0.1608
  912MOL0     C23034   8.163   4.180  10.498 -0.2129  0.0027  1.1005
  912MOL0     N23035   7.837   4.139  10.682  0.2523 -1.2985 -0.5781
  912MOL0     N23036   7.841   4.233  10.774  0.4202  0.0451  0.7382
  912MOL0     C23037   7.076   5.190  10.848  0.7094  0.6157  0.2022
  912MOL0     C23038   6.963   5.224  10.773  0.0495  0.3513  0.8705
  912MOL0     C23039   6.580   5.142  10.541  0.0209  0.4341  0.4159
  912MOL0     C23040   6.547   5.032  10.449 -0.2963  0.3873 -0.1577
  912MOL0     C23041   6.475   5.054  10.328  0.7305  0.7298 -0.6984
  912MOL0     C23042   6.428   5.179  10.300  0.0768 -0.7077  0.3089
  912MOL0     O23043   6.331   5.210  10.205  0.5031  0.5473  0.8412
  912MOL0     C23044   6.287   5.119  10.105 -0.8096  0.1247  0.3222
  912MOL0     C23045   6.162   5.039  10.148  0.6021 -0.4836  0.6894
  912MOL0     C23046   6.044   5.130  10.188  0.4757 -0.9672  0.3130
  912MOL0     C23047   5.907   5.059  10.214  0.6239  0.2537  1.0081
  912MOL0     C23048   5.850   5.023  10.086 -0.4065  0.2897  0.1165
  912MOL0     C23049   5.816   4.995   9.971 -0.5590 -0.3427 -0.5286
  912MOL0     C23050   6.452   5.288  10.387  0.0234  0.6254 -0.9216
  912MOL0     C23051   6.535   5.274  10.498 -1.3760 -0.5700  0.1187
  912MOL0     C23052   6.597   5.394  10.569 -0.2245  0.0088 -0.0257
  912MOL0     H23053   6.851   4.894  10.743  1.6246 -2.8150  3.1391
  912MOL0     H23054   7.052   4.866  10.905  0.8993 -0.7853 -0.0799
  912MOL0     H23055   7.324   5.002  11.127 -0.7199  0.0068  0.4426
  912MOL0     H23056   7.195   4.888  11.067 -1.4410  1.0197 -0.6727
  912MOL0     H23057   7.449   4.949  10.935 -1.0192  0.9286 -1.6290
  912MOL0     H23058   7.319   4.903  10.832 -1.3044  0.5185  0.0204
  912MOL0     H23059   7.302   4.692  10.929 -2.3960  1.1445  0.7044
  912MOL0     H23060   7.375   4.743  11.085  2.0270 -3.2589  0.2899
  912MOL0     H23061   7.524   4.666  10.830  1.7625 -2.4126  0.7000
  912MOL0     H23062   7.599   4.747  10.965 -2.4664  2.3811 -0.6930
  912MOL0     H23063   7.558   4.569  11.108  0.9635  0.8593 -0.5022
  912MOL0     H23064   7.444   4.486  11.007 -1.0387  2.4374  1.0287
  912MOL0     H23065   7.633   4.423  10.850  1.5801 -0.5700 -0.3703
  912MOL0     H23066   7.747   4.513  10.956  0.7227 -0.7065 -1.2685
  912MOL0     H23067   7.587   4.272  11.056  0.5334  1.9470  0.7013
  912MOL0     H23068   7.688   4.381  11.154 -2.0534 -0.6134  0.6580
  912MOL0     H23069   7.887   4.336  11.033  0.5879  0.9134  2.8049
  912MOL0     H23070   7.833   4.186  11.103  2.7227  0.7825 -0.3057
  912MOL0     H23071   7.780   3.977  10.966  2.6495 -0.0398  0.9286
  912MOL0     H23072   7.732   3.824  10.721  0.1413 -0.2199  1.9973
  912MOL0     H23073   7.796   3.899  10.576 -3.8432 -0.9185 -0.3876
  912MOL0     H23074   7.965   3.798  10.807  2.5662  0.3115 -0.5505
  912MOL0     H23075   7.947   3.725  10.655  4.2937 -0.1284  0.3225
  912MOL0     H23076   8.170   3.850  10.671  1.1453  1.2967 -1.6659
  912MOL0     H23077   8.081   4.000  10.680  0.1269  1.3570 -2.3468
  912MOL0     H23078   7.992   3.958  10.462  0.9684  1.3259 -3.7897
  912MOL0     H23079   8.066   3.806  10.454 -2.7877 -0.1663 -0.6860
  912MOL0     H23080   8.441   4.028  10.382 -0.9334 -0.6123 -1.3636
  912MOL0     H23081   8.515   4.266  10.371  1.0730 -3.2418 -0.7730
  912MOL0     H23082   8.473   4.715  10.625  0.3877 -1.1349  0.6071
  912MOL0     H23083   8.543   4.936  10.604 -0.1546 -1.5136  2.5402
  912MOL0     H23084   8.572   5.158  10.604  1.4704 -1.2554 -0.7276
  912MOL0     H23085   8.603   5.107  10.443 -1.8355  0.0159 -0.4244
  912MOL0     H23086   8.536   5.334  10.339  1.4837  3.6695  0.2325
  912MOL0     H23087   8.484   5.378  10.504 -0.7662 -1.5536  0.0779
  912MOL0     H23088   8.753   5.287  10.544 -1.6922  0.3969  1.6234
  912MOL0     H23089   8.755   5.317  10.379 -0.6146 -1.6939  0.2229
  912MOL0     H23090   8.649   5.536  10.580 -0.4276 -1.8498  0.4997
  912MOL0     H23091   8.659   5.558  10.403 -0.4723  0.2828  0.2875
  912MOL0     H23092   8.879   5.535  10.374  1.5601 -1.9643  1.1316
  912MOL0     H23093   8.909   5.512  10.549 -0.9378 -2.1079 -1.2466
  912MOL0     H23094   8.768   5.765  10.446 -0.0422  1.5949  3.2337
  912MOL0     H23095   8.839   5.730  10.604 -2.9289  1.7801  0.3545
  912MOL0     H23096   8.973   5.749  10.344  0.3688 -5.6317  0.2403
  912MOL0     H23097   9.064   5.728  10.494 -1.6581 -1.0361  1.5872
  912MOL0     H23098   8.874   5.947  10.428 -0.4579  0.5539  0.0920
  912MOL0     H23099   8.965   5.943  10.574  3.4448  2.1911 -0.1456
  912MOL0     H23100   8.217   5.018  10.345 -0.0627 -0.7074 -1.3901
  912MOL0     H23101   8.148   4.786  10.340  0.0483  1.2154 -1.6551
  912MOL0     H23102   8.133   4.395  10.543  0.5333  1.3436  0.1708
  912MOL0     H23103   8.068   4.164  10.549 -0.0968 -1.5729  0.8459
  912MOL0     H23104   7.138   5.270  10.886  0.8447  0.0836  1.1299
  912MOL0     H23105   6.955   5.320  10.725 -0.1312 -0.6612 -1.2161
  912MOL0     H23106   6.570   4.930  10.477  1.4630 -0.0241 -2.7465
  912MOL0     H23107   6.460   4.974  10.257  0.1741  0.8271 -0.6992
  912MOL0     H23108   6.370   5.053  10.079 -2.1368 -1.8191  0.8741
  912MOL0     H23109   6.264   5.178  10.016 -2.1987 -0.6951  0.1116
  912MOL0     H23110   6.186   4.972  10.231 -2.6506 -1.0036  1.3180
  912MOL0     H23111   6.139   4.979  10.059  0.9959  0.7382 -0.2648
  912MOL0     H23112   6.031   5.216  10.123 -0.5916 -0.3936  1.2444
  912MOL0     H23113   6.069   5.175  10.285 -3.0047  0.5656  0.6418
  912MOL0     H23114   5.914   4.973  10.281 -1.8859 -0.9573 -0.1598
  912MOL0     H23115   5.840   5.124  10.271 -2.0300 -1.3582 -0.0541
  912MOL0     H23116   5.781   4.998   9.870 -0.7370  2.1373 -0.4687
  912MOL0     H23117   6.392   5.377  10.371  0.6266  0.7515 -2.8123
  912MOL0     H23118   6.560   5.481  10.515  0.8084 -2.0095 -4.4254
  912MOL0     H23119   6.561   5.388  10.672 -1.0616  3.0683 -0.0596
  912MOL0     H23120   6.706   5.387  10.568 -0.1974  0.1414  0.8421
  913MOL0     O23121   0.905   1.503   0.934  0.3619  0.0458 -0.0385
  913MOL0     C23122   0.870   1.581   1.030 -0.1623  0.2433 -0.5391
  913MOL0     O23123   0.886   1.718   1.035  0.0472 -0.0032 -0.0418
  913MOL0     C23124   0.901   1.778   0.913  0.0498 -0.1454 -0.4278
  913MOL0     C23125   0.788   1.792   0.830 -0.2961 -0.5107 -0.8282
  913MOL0     C23126   0.787   1.877   0.715 -0.2550 -0.4593 -0.3109
  913MOL0     C23127   0.885   1.980   0.705 -0.8081 -0.5603  0.8029
  913MOL0     O23128   0.887   2.073   0.601  0.4563  0.5306  0.7449
  913MOL0     C23129   1.009   2.145   0.574 -0.1821 -0.9524 -0.7844
  913MOL0     C23130   0.993   2.231   0.458  0.1067  0.4030 -0.0304
  913MOL0     C23131   1.101   2.328   0.430 -0.4358  0.0042 -0.2770
  913MOL0     C23132   1.236   2.245   0.411  0.2886 -0.6831  0.8325
  913MOL0     C23133   1.349   2.334   0.349 -0.5484 -0.4147 -0.3104
  913MOL0     C23134   1.379   2.456   0.428  0.9928  0.8279 -0.7852
  913MOL0     C23135   1.526   2.501   0.386 -0.7277 -1.5599 -1.0273
  913MOL0     C23136   1.572   2.627   0.470  0.1867 -0.4305  0.6663
  913MOL0     N23137   1.529   2.757   0.425  0.0731  0.4254 -0.1738
  913MOL0     C23138   1.577   2.818   0.310 -0.7368 -0.0389 -0.2111
  913MOL0     C23139   1.515   2.941   0.305 -0.4379  0.1554  0.2768
  913MOL0     C23140   1.522   3.045   0.202 -0.7987  0.8561  0.7071
  913MOL0     C23141   1.398   3.137   0.180  1.1152 -0.1676 -0.4419
  913MOL0     C23142   1.425   3.257   0.076  0.2480  0.1404 -0.7781
  913MOL0     C23143   1.315   3.357   0.114 -0.2640 -0.9518  0.0975
  913MOL0     O23144   1.184   3.308   0.093  0.7973 -0.3127  0.2724
  913MOL0     C23145   1.068   3.379   0.100 -0.1630  0.7009 -0.4892
  913MOL0     C23146   1.068   3.520   0.129 -0.2965  0.2649 -0.0923
  913MOL0     C23147   0.952   3.589   0.163  0.2767 -0.3119  0.3923
  913MOL0     C23148   0.827   3.521   0.159 -0.6317  0.4816 -0.0990
  913MOL0     C23149   0.701   3.597   0.184  0.2598  0.1273 -0.2092
  913MOL0     O23150   0.717   3.720   0.225 -0.1481  0.4057  1.1037
  913MOL0     C23151   0.607   3.790   0.280 -0.3357 -0.4193 -0.2602
  913MOL0     C23152   0.490   3.752   0.353  0.8964 -1.3329  0.4390
  913MOL0     C23153   0.403   3.850   0.412 -0.6681 -0.0036 -0.7026
  913MOL0     C23154   0.422   3.985   0.390  0.4246  0.0796 -0.2245
  913MOL0     O23155   0.335   4.074   0.445  0.0790 -0.0418  0.5653
  913MOL0     C23156   0.339   4.220   0.418 -0.1759  0.5308 -0.7052
  913MOL0     C23157   0.254   4.315   0.510 -0.4967  0.2099 -0.0914
  913MOL0     C23158   0.238   4.459   0.464  0.1492 -0.9809  0.5682
  913MOL0     C23159   0.135   4.537   0.539  0.9580 -0.5893 -0.5681
  913MOL0     C23160   0.120   4.688   0.522  0.1434  0.3734 -0.6593
  913MOL0     C23161  -0.001   4.746   0.599  0.4846 -0.3462  0.5779
  913MOL0     C23162  -0.041   4.880   0.527 -0.2230 -0.3706  0.0676
  913MOL0     C23163  -0.097   4.975   0.624 -0.1822 -0.5417 -0.2383
  913MOL0    Cl23164  -0.270   4.930   0.682 -0.0736  0.1966 -0.1058
  913MOL0     C23165   0.533   4.023   0.309 -0.0592  0.0574  0.1601
  913MOL0     C23166   0.629   3.927   0.257  1.2362 -0.1305  0.2307
  913MOL0     O23167   0.585   3.537   0.175 -0.5213 -0.2375  0.1764
  913MOL0     C23168   0.831   3.387   0.129 -0.4585 -0.6468 -0.3658
  913MOL0     C23169   0.945   3.310   0.110 -0.0148 -0.1979  0.5905
  913MOL0     N23170   1.444   2.954   0.422  0.0170 -1.5643  0.1449
  913MOL0     N23171   1.451   2.850   0.491  0.4391 -0.5322 -0.4820
  913MOL0     C23172   0.998   1.971   0.796 -0.6387  0.9929  0.6373
  913MOL0     C23173   1.001   1.871   0.895  0.3720  2.0792  0.2562
  913MOL0     C23174   0.839   1.521   1.165  0.9433 -0.8415  1.3452
  913MOL0     C23175   0.835   1.605   1.280  0.6633 -0.2791  1.0670
  913MOL0     C23176   0.809   1.545   1.403  1.1507 -0.6601  0.0393
  913MOL0     C23177   0.782   1.414   1.411 -1.0382  0.1565 -0.1178
  913MOL0     O23178   0.753   1.355   1.528  0.0017 -0.1243 -0.0415
  913MOL0     C23179   0.636   1.271   1.524  0.3101  0.2084 -0.0910
  913MOL0     C23180   0.503   1.333   1.500  0.8411  0.4682 -0.9781
  913MOL0     C23181   0.490   1.485   1.542  0.5980  0.8456 -0.4150
  913MOL0     C23182   0.519   1.528   1.690 -1.0026 -0.2700 -0.4405
  913MOL0     C23183   0.467   1.450   1.797  0.4857 -0.4007 -0.7621
  913MOL0     C23184   0.444   1.375   1.895  0.7995 -0.4383 -0.7883
  913MOL0     C23185   0.802   1.330   1.296 -0.3060 -0.1856  0.2495
  913MOL0     C23186   0.828   1.383   1.175 -0.2574  0.3395 -0.4817
  913MOL0     C23187   0.820   1.287   1.049  0.8383  0.2076 -0.6619
  913MOL0     H23188   0.713   1.715   0.841 -2.3038  1.2992 -1.0544
  913MOL0     H23189   0.700   1.878   0.650 -1.1149 -1.6321  0.7875
  913MOL0     H23190   1.023   2.209   0.661  1.5860 -2.5693  0.2064
  913MOL0     H23191   1.096   2.079   0.572  1.7666  1.2465  2.5477
  913MOL0     H23192   0.901   2.291   0.460  0.7116  1.4921 -2.1860
  913MOL0     H23193   0.973   2.177   0.365  1.7311  0.9885 -0.7434
  913MOL0     H23194   1.099   2.403   0.510 -3.7431 -0.3046  0.0561
  913MOL0     H23195   1.093   2.389   0.340 -0.1776  1.6788  0.7923
  913MOL0     H23196   1.269   2.209   0.509 -1.5809 -2.5410  0.8523
  913MOL0     H23197   1.212   2.163   0.343 -0.8041 -0.5241  1.0060
  913MOL0     H23198   1.436   2.270   0.337  0.1747  0.2047  1.2991
  913MOL0     H23199   1.325   2.378   0.252 -0.9992 -0.0452 -0.0381
  913MOL0     H23200   1.297   2.527   0.411 -0.7504 -0.4869  1.5346
  913MOL0     H23201   1.382   2.432   0.535  0.1572  1.9562 -0.4877
  913MOL0     H23202   1.530   2.538   0.283 -0.5834 -0.4669 -0.6459
  913MOL0     H23203   1.597   2.423   0.416 -1.2213 -1.9236 -0.8050
  913MOL0     H23204   1.528   2.624   0.570  0.1600  0.7432  0.7023
  913MOL0     H23205   1.682   2.626   0.470  0.1874 -1.1362  1.0135
  913MOL0     H23206   1.649   2.785   0.235  2.3789  0.7946  2.2004
  913MOL0     H23207   1.611   3.108   0.203 -0.1769  0.1007 -1.3576
  913MOL0     H23208   1.516   2.991   0.107  0.2896 -2.0592  2.1821
  913MOL0     H23209   1.314   3.076   0.144  1.4197 -2.5620  2.4497
  913MOL0     H23210   1.357   3.170   0.276 -0.2320 -2.3078 -0.2144
  913MOL0     H23211   1.416   3.208  -0.022 -1.0992  3.1593 -2.3035
  913MOL0     H23212   1.521   3.309   0.079 -0.2203  1.0602 -1.2500
  913MOL0     H23213   1.330   3.443   0.047  1.3461 -1.8256 -0.7218
  913MOL0     H23214   1.325   3.398   0.215 -1.0718 -0.2968 -0.0781
  913MOL0     H23215   1.160   3.576   0.138 -0.6614  0.5878  2.4053
  913MOL0     H23216   0.952   3.696   0.183 -1.8501 -0.2786  0.4478
  913MOL0     H23217   0.482   3.648   0.386 -0.6732 -1.5095 -0.3733
  913MOL0     H23218   0.324   3.827   0.482 -0.3057 -1.0666 -0.6204
  913MOL0     H23219   0.439   4.258   0.436  0.9241 -2.9502  1.6048
  913MOL0     H23220   0.299   4.241   0.318 -0.8149 -2.8317 -1.2915
  913MOL0     H23221   0.155   4.269   0.515  0.2912 -2.4981 -4.1672
  913MOL0     H23222   0.294   4.317   0.612  1.5193 -2.9798 -0.6596
  913MOL0     H23223   0.335   4.505   0.482 -0.3731  0.6864 -0.5957
  913MOL0     H23224   0.228   4.474   0.356  1.0662  0.1965  0.6250
  913MOL0     H23225   0.165   4.513   0.641  1.5156  0.1172 -0.5593
  913MOL0     H23226   0.036   4.493   0.528  0.8443 -0.7445  0.9279
  913MOL0     H23227   0.096   4.693   0.415 -2.0610  3.6933 -0.1641
  913MOL0     H23228   0.212   4.744   0.540  0.2008  0.2685 -0.6258
  913MOL0     H23229  -0.086   4.677   0.597  0.3789 -0.2142  0.4438
  913MOL0     H23230   0.027   4.770   0.702 -1.3507  2.0522  0.5927
  913MOL0     H23231  -0.110   4.845   0.450  0.5884 -1.4668 -0.1942
  913MOL0     H23232   0.038   4.923   0.465  0.7115 -1.5491  0.3835
  913MOL0     H23233  -0.031   4.976   0.710  0.0422  0.3827 -0.4113
  913MOL0     H23234  -0.116   5.074   0.581  0.3725  0.4268  1.6715
  913MOL0     H23235   0.557   4.128   0.297  3.1776 -0.5866  0.1125
  913MOL0     H23236   0.701   3.968   0.187  1.1930  2.8464  1.7792
  913MOL0     H23237   0.750   3.318   0.150  0.3397 -1.1746  1.1120
  913MOL0     H23238   0.933   3.203   0.117 -0.7776 -0.1097  0.6905
  913MOL0     H23239   1.085   2.031   0.773 -0.8648  1.4456  0.9449
  913MOL0     H23240   1.087   1.869   0.961  1.2249 -1.3348 -0.7665
  913MOL0     H23241   0.853   1.712   1.281 -0.1429 -0.1307  0.6770
  913MOL0     H23242   0.805   1.607   1.492 -1.4450  0.1987 -0.5852
  913MOL0     H23243   0.619   1.248   1.630 -1.5908  4.5890  0.7669
  913MOL0     H23244   0.648   1.194   1.447 -0.6538 -1.6902  1.5685
  913MOL0     H23245   0.426   1.283   1.560  1.3447 -1.3942 -1.8189
  913MOL0     H23246   0.486   1.331   1.392  0.4082 -0.1024 -0.9055
  913MOL0     H23247   0.390   1.526   1.528 -0.2403  1.5692  5.3604
  913MOL0     H23248   0.553   1.537   1.470 -1.1210 -2.2835 -4.5600
  913MOL0     H23249   0.628   1.529   1.706 -0.9492  0.2218 -0.8024
  913MOL0     H23250   0.481   1.630   1.697  0.3096  0.1387  1.5993
  913MOL0     H23251   0.435   1.306   1.977 -1.8143 -1.8677 -2.1772
  913MOL0     H23252   0.795   1.222   1.303 -1.5338 -0.4697 -3.4168
  913MOL0     H23253   0.746   1.333   0.983  2.1915  2.4931 -0.6837
  913MOL0     H23254   0.917   1.274   1.000  0.7106 -4.7959 -0.0382
  913MOL0     H23255   0.790   1.190   1.089  1.1288  0.2056 -0.4513
  914MOL0     O23256   6.508   9.738   1.139  0.4583 -0.3988 -0.1405
  914MOL0     C23257   6.524   9.861   1.137  0.0190  1.0342  0.6244
  914MOL0     O23258   6.546   9.925   1.026  0.5083 -0.3158 -0.0243
  914MOL0     C23259   6.588   9.868   0.905 -0.5983 -0.2615 -1.7068
  914MOL0     C23260   6.622   9.732   0.874  0.5631  0.3572  0.2171
  914MOL0     C23261   6.670   9.699   0.739  0.0441  0.4295  0.1124
  914MOL0     C23262   6.677   9.798   0.640  0.3950  0.2973  0.2489
  914MOL0     O23263   6.706   9.785   0.509  0.4118 -0.3086  0.0436
  914MOL0     C23264   6.833   9.731   0.485 -0.0538  0.6499 -0.5028
  914MOL0     C23265   6.886   9.745   0.341 -0.8752  0.2193  0.7186
  914MOL0     C23266   6.855   9.637   0.239 -0.0791 -0.4232  0.7791
  914MOL0     C23267   6.703   9.598   0.257  0.3711  0.6487  0.6130
  914MOL0     C23268   6.667   9.483   0.158  0.1018  0.4469 -0.1059
  914MOL0     C23269   6.605   9.535   0.029  0.5666 -0.4713  0.5741
  914MOL0     C23270   6.510   9.434  -0.040 -0.0042 -0.1885  0.5719
  914MOL0     C23271   6.459   9.474  -0.179 -0.0239 -0.8037  0.6054
  914MOL0     N23272   6.405   9.613  -0.172  0.0494  0.6296  0.7426
  914MOL0     C23273   6.321   9.674  -0.083  1.0358  0.7672  0.5573
  914MOL0     C23274   6.343   9.809  -0.105 -0.2604 -0.3854  0.3662
  914MOL0     C23275   6.305   9.919  -0.006  0.4654  0.5331  0.5276
  914MOL0     C23276   6.387   9.939   0.119 -0.1871 -0.1978 -0.0482
  914MOL0     C23277   6.524   9.982   0.075 -0.0997  1.1200 -0.9405
  914MOL0     C23278   6.600  10.030   0.189 -0.0660 -0.9069  0.1142
  914MOL0     O23279   6.554  10.159   0.223 -0.0324 -0.2584 -0.0847
  914MOL0     C23280   6.598  10.222   0.328 -0.6316 -0.4833 -1.0931
  914MOL0     C23281   6.531  10.332   0.371  0.3524  0.6312 -0.0216
  914MOL0     C23282   6.555  10.397   0.488 -0.8357 -0.2548 -0.9654
  914MOL0     C23283   6.651  10.348   0.578 -0.3163 -0.2479 -0.2443
  914MOL0     C23284   6.668  10.417   0.709  0.1293  1.2190 -0.5128
  914MOL0     O23285   6.722  10.334   0.799  0.1303  0.7323 -0.2983
  914MOL0     C23286   6.728  10.339   0.936  0.3033  0.1462  0.2268
  914MOL0     C23287   6.787  10.236   1.001  0.7402 -0.0804 -0.1562
  914MOL0     C23288   6.793  10.230   1.141  0.4798 -0.1009 -0.0522
  914MOL0     C23289   6.720  10.324   1.221 -0.9124  0.3595 -0.5210
  914MOL0     O23290   6.715  10.288   1.355 -0.5770 -0.9559  0.2899
  914MOL0     C23291   6.697  10.400   1.452 -0.4011  0.0912  0.1312
  914MOL0     C23292   6.813  10.493   1.463 -0.1838 -0.1521  0.7592
  914MOL0     C23293   6.804  10.608   1.561 -0.0218 -0.0663  0.1210
  914MOL0     C23294   6.858  10.573   1.704  0.0481  0.1036  0.6278
  914MOL0     C23295   6.813  10.681   1.813  0.0085 -0.4816 -0.7363
  914MOL0     C23296   6.891  10.679   1.940 -0.1684 -0.2334 -1.3182
  914MOL0     C23297   7.032  10.752   1.926 -0.7931  1.3639 -0.2659
  914MOL0     C23298   7.153  10.660   1.912  0.2712 -0.1998 -0.0690
  914MOL0    Cl23299   7.159  10.561   2.057  0.3800 -0.0548 -0.2854
  914MOL0     C23300   6.666  10.435   1.157 -0.5908  0.6256  0.4208
  914MOL0     C23301   6.669  10.442   1.015  0.3544  0.4766 -0.1288
  914MOL0     O23302   6.625  10.531   0.733  0.2084  0.6454 -0.4278
  914MOL0     C23303   6.727  10.239   0.540 -0.3681  0.0619 -0.9753
  914MOL0     C23304   6.705  10.176   0.416  0.6326 -0.0351  0.4809
  914MOL0     N23305   6.405   9.828  -0.226 -0.2111  0.4216  1.0310
  914MOL0     N23306   6.454   9.709  -0.266  0.3418 -0.1386  0.7172
  914MOL0     C23307   6.616   9.920   0.665  0.2120 -0.1519 -0.5058
  914MOL0     C23308   6.594   9.957   0.798  1.4374 -0.4939 -0.2366
  914MOL0     C23309   6.474   9.938   1.254 -0.6134  0.0950  0.5580
  914MOL0     C23310   6.461  10.076   1.246  0.2541  0.4244 -0.4126
  914MOL0     C23311   6.396  10.145   1.351 -0.3569 -0.0648  0.4134
  914MOL0     C23312   6.337  10.084   1.456 -0.1838  0.2166  0.5899
  914MOL0     O23313   6.267  10.135   1.560 -0.6814 -0.8226  0.6426
  914MOL0     C23314   6.179  10.238   1.511 -0.1869  0.1125  0.0280
  914MOL0     C23315   6.166  10.334   1.633 -0.5810  1.0016 -0.4130
  914MOL0     C23316   6.105  10.250   1.739 -0.9468 -0.1752  1.2609
  914MOL0     C23317   6.126  10.324   1.867 -0.5233  0.1232 -0.2955
  914MOL0     C23318   6.019  10.421   1.892 -0.5259  0.2117 -0.3040
  914MOL0     C23319   5.935  10.500   1.901 -0.3699 -0.6479 -0.1366
  914MOL0     C23320   6.364   9.943   1.468  0.7119 -0.0846 -0.1177
  914MOL0     C23321   6.438   9.876   1.374  0.5677  0.5356  0.0143
  914MOL0     C23322   6.470   9.735   1.430  0.4192  0.8801 -0.4372
  914MOL0     H23323   6.644   9.649   0.940  0.7124 -0.3642 -0.7242
  914MOL0     H23324   6.703   9.600   0.710 -0.3914  0.9485 -2.3707
  914MOL0     H23325   6.896   9.793   0.550 -2.2463  1.9282  0.5243
  914MOL0     H23326   6.835   9.624   0.509 -1.0582  0.5028 -1.0402
  914MOL0     H23327   6.995   9.756   0.341 -0.7627 -0.3655  2.9133
  914MOL0     H23328   6.845   9.841   0.309  0.6692  0.9314  0.7866
  914MOL0     H23329   6.921   9.550   0.241 -0.5419 -0.8109 -0.0690
  914MOL0     H23330   6.871   9.669   0.136 -0.0057  0.9801  1.2043
  914MOL0     H23331   6.689   9.570   0.362  2.3898  2.3126  1.4024
  914MOL0     H23332   6.637   9.683   0.238  1.3639  1.3933  0.4360
  914MOL0     H23333   6.748   9.411   0.140 -0.6264 -1.3944  3.2346
  914MOL0     H23334   6.596   9.424   0.217  0.5590 -0.8485 -0.8125
  914MOL0     H23335   6.548   9.628   0.038  2.1585  0.5181  0.7380
  914MOL0     H23336   6.685   9.578  -0.032 -1.4431  2.0231 -0.4457
  914MOL0     H23337   6.422   9.428   0.025  1.2576  1.9597  2.6667
  914MOL0     H23338   6.569   9.342  -0.047 -0.9347 -1.0115  2.5627
  914MOL0     H23339   6.546   9.465  -0.244 -0.2527 -2.7590  0.4974
  914MOL0     H23340   6.385   9.406  -0.223  1.1297 -0.8130 -1.4796
  914MOL0     H23341   6.264   9.622  -0.007  0.2032  3.0543  1.5953
  914MOL0     H23342   6.302  10.013  -0.062  0.7120 -0.7280 -1.7027
  914MOL0     H23343   6.204   9.907   0.035  0.8328  3.6342  2.7483
  914MOL0     H23344   6.338  10.025   0.164 -0.1653  0.6127 -1.5085
  914MOL0     H23345   6.376   9.846   0.176 -0.5531 -1.6470 -2.3591
  914MOL0     H23346   6.519  10.054  -0.007 -0.9684  0.2968 -1.6476
  914MOL0     H23347   6.572   9.889   0.042 -0.1486  0.7262  0.0414
  914MOL0     H23348   6.708  10.020   0.176  0.1393  0.5547  0.5652
  914MOL0     H23349   6.572   9.975   0.279  0.0840  1.3865  1.6460
  914MOL0     H23350   6.446  10.378   0.321 -0.4176  1.4455  1.9232
  914MOL0     H23351   6.492  10.483   0.511  0.4491  0.5094 -0.2126
  914MOL0     H23352   6.827  10.161   0.934 -3.6269 -1.6162 -1.3644
  914MOL0     H23353   6.846  10.145   1.182  3.1458  0.3923 -2.1617
  914MOL0     H23354   6.602  10.453   1.439 -0.4615  0.2106  1.0136
  914MOL0     H23355   6.683  10.355   1.551 -0.9808  1.2578  0.5908
  914MOL0     H23356   6.897  10.424   1.467 -2.3957 -3.0041  1.9507
  914MOL0     H23357   6.809  10.545   1.366  0.1244  0.9837  1.3401
  914MOL0     H23358   6.849  10.696   1.515  0.0409  0.4633  1.1641
  914MOL0     H23359   6.699  10.636   1.575  0.2517  0.7856  0.5297
  914MOL0     H23360   6.966  10.563   1.694 -0.2146 -2.9156 -0.5932
  914MOL0     H23361   6.829  10.476   1.746  2.6200 -1.0444 -0.0285
  914MOL0     H23362   6.705  10.663   1.825  0.0780 -0.1527  0.6073
  914MOL0     H23363   6.826  10.784   1.777  2.7503  0.4320  2.3537
  914MOL0     H23364   6.836  10.722   2.024  0.5248 -3.0450  0.7331
  914MOL0     H23365   6.890  10.574   1.972  1.2309 -0.1555 -0.9479
  914MOL0     H23366   7.047  10.807   2.019  1.8774 -0.9659  0.8303
  914MOL0     H23367   7.028  10.814   1.835 -0.5115  2.7311  0.6206
  914MOL0     H23368   7.153  10.607   1.817 -3.5070 -2.7485  1.1214
  914MOL0     H23369   7.245  10.720   1.910 -0.3039  0.6773 -0.5351
  914MOL0     H23370   6.615  10.517   1.208 -0.5922  0.7633  0.2005
  914MOL0     H23371   6.617  10.531   0.980 -2.2742  2.5281  7.0466
  914MOL0     H23372   6.812  10.197   0.593 -3.0948 -1.7760  2.3632
  914MOL0     H23373   6.762  10.089   0.384  2.3110  1.6509 -1.4501
  914MOL0     H23374   6.613   9.989   0.581 -0.3677  0.7226  0.2156
  914MOL0     H23375   6.576  10.063   0.807  0.0051 -0.8475  1.8323
  914MOL0     H23376   6.497  10.131   1.159  3.6291  0.4123  0.8152
  914MOL0     H23377   6.408  10.253   1.347  1.8138 -0.2891 -0.6990
  914MOL0     H23378   6.085  10.185   1.493  0.2969 -0.5713 -0.5024
  914MOL0     H23379   6.211  10.295   1.424 -2.5652  0.8691 -0.4189
  914MOL0     H23380   6.101  10.419   1.608  0.8715  2.3225  0.1561
  914MOL0     H23381   6.265  10.371   1.660  0.8246 -0.3122 -3.2928
  914MOL0     H23382   6.158  10.155   1.747 -1.6502 -0.9804 -2.1705
  914MOL0     H23383   5.998  10.235   1.721 -0.7915 -2.3021  1.8949
  914MOL0     H23384   6.125  10.249   1.947  0.4450 -0.2271 -0.5876
  914MOL0     H23385   6.228  10.365   1.872 -0.7354  0.5416  1.9553
  914MOL0     H23386   5.860  10.573   1.923  1.7042  1.2484  0.9822
  914MOL0     H23387   6.313   9.899   1.554 -0.0715  0.5333 -0.2509
  914MOL0     H23388   6.469   9.732   1.540  3.8352  2.8852 -0.2235
  914MOL0     H23389   6.391   9.668   1.393  0.2906  1.6335 -1.5590
  914MOL0     H23390   6.565   9.697   1.394 -0.1666 -1.5310  0.3417
  915MOL0     O23391   3.133   4.183   6.056  0.6125  0.2353  0.2828
  915MOL0     C23392   3.242   4.147   6.109  0.7084  0.6321 -0.6067
  915MOL0     O23393   3.270   4.016   6.141  0.3368 -0.1545 -0.6324
  915MOL0     C23394   3.203   3.936   6.053  0.3367 -0.5004  1.0635
  915MOL0     C23395   3.247   3.910   5.916 -0.3861  0.1265  0.1695
  915MOL0     C23396   3.178   3.821   5.831  0.8112 -0.7599 -0.2054
  915MOL0     C23397   3.063   3.754   5.873  0.3119 -0.7849  0.1160
  915MOL0     O23398   2.987   3.663   5.795  0.0840  0.3406  0.2904
  915MOL0     C23399   2.896   3.557   5.844  0.1975 -1.4659 -0.8360
  915MOL0     C23400   2.861   3.460   5.739  0.6788  0.0189  0.1226
  915MOL0     C23401   2.772   3.513   5.636  0.3880 -0.1063  0.3146
  915MOL0     C23402   2.738   3.407   5.531 -0.0944 -0.6407 -0.1399
  915MOL0     C23403   2.755   3.462   5.397 -0.2609  0.3070 -0.4180
  915MOL0     C23404   2.792   3.343   5.309  0.0975 -0.9206  0.4605
  915MOL0     C23405   2.784   3.377   5.150 -0.2105  0.3709  0.2347
  915MOL0     C23406   2.647   3.418   5.090  0.6162  0.0012 -0.1387
  915MOL0     N23407   2.647   3.436   4.943 -0.4994  0.2610 -0.8039
  915MOL0     C23408   2.585   3.542   4.884 -0.0681  0.0973  0.4154
  915MOL0     C23409   2.634   3.543   4.753  0.4803 -0.0780  0.0513
  915MOL0     C23410   2.598   3.636   4.634  1.1686  0.0547 -0.8430
  915MOL0     C23411   2.492   3.750   4.667 -0.4832  0.6394  0.2086
  915MOL0     C23412   2.491   3.863   4.548 -0.4337  0.4907 -1.2262
  915MOL0     C23413   2.342   3.885   4.500 -0.0340 -0.0645 -1.0967
  915MOL0     O23414   2.306   4.025   4.511 -0.1340 -0.2989 -0.0260
  915MOL0     C23415   2.249   4.072   4.625  0.1536  0.1752  0.4434
  915MOL0     C23416   2.318   4.167   4.698  0.1355  0.1681 -0.2762
  915MOL0     C23417   2.283   4.217   4.829 -0.5189  0.3668 -0.4157
  915MOL0     C23418   2.178   4.157   4.892  0.0667  0.6001 -0.6272
  915MOL0     C23419   2.152   4.185   5.042  0.5063 -0.0186 -0.4628
  915MOL0     O23420   2.082   4.080   5.103 -0.2854  0.1045  0.0227
  915MOL0     C23421   2.066   4.081   5.241  0.0586 -0.0090  0.3835
  915MOL0     C23422   2.168   4.070   5.345 -0.6653 -0.0163  0.0382
  915MOL0     C23423   2.142   4.056   5.480 -0.1711 -0.7136 -0.0312
  915MOL0     C23424   2.012   4.066   5.527  1.5438 -0.3533 -0.1758
  915MOL0     O23425   1.997   4.038   5.659 -0.8011  0.0897  0.1216
  915MOL0     C23426   1.863   4.021   5.709  0.2956  0.2415  0.2893
  915MOL0     C23427   1.870   3.976   5.856 -0.2113 -0.0040 -1.1649
  915MOL0     C23428   1.899   4.102   5.952  0.6028  0.0188 -0.1459
  915MOL0     C23429   1.994   4.054   6.068 -0.3953 -0.0821  0.1335
  915MOL0     C23430   2.027   4.171   6.169  0.2941  0.0154 -0.3987
  915MOL0     C23431   2.099   4.114   6.279 -0.6317  0.2084  1.3386
  915MOL0     C23432   2.106   4.214   6.392 -0.1217  0.1899  0.6569
  915MOL0     C23433   2.176   4.149   6.513 -0.5213  0.5042  0.9841
  915MOL0    Cl23434   2.074   4.038   6.606 -0.3759  0.2613  0.0219
  915MOL0     C23435   1.909   4.072   5.432 -0.3005  0.8591  1.6526
  915MOL0     C23436   1.933   4.084   5.292 -0.1368 -0.2536  0.4914
  915MOL0     O23437   2.206   4.274   5.103  0.5399  0.4787  0.5342
  915MOL0     C23438   2.099   4.054   4.820 -0.4808  0.6603  0.4718
  915MOL0     C23439   2.126   4.024   4.680 -1.5260 -0.8008  0.7617
  915MOL0     N23440   2.723   3.443   4.745 -0.4092 -0.2278  0.6065
  915MOL0     N23441   2.730   3.377   4.856 -0.2058  0.1827 -1.0818
  915MOL0     C23442   3.024   3.786   6.007  0.1347 -0.4095  0.4986
  915MOL0     C23443   3.085   3.875   6.088 -0.0426 -0.1583 -0.0659
  915MOL0     C23444   3.314   4.261   6.167 -0.3876  0.4293  0.9165
  915MOL0     C23445   3.344   4.357   6.074 -0.5705 -0.5514  0.2460
  915MOL0     C23446   3.386   4.481   6.126  0.6634 -0.2851  0.3289
  915MOL0     C23447   3.415   4.506   6.261  0.6541  0.2940 -0.4748
  915MOL0     O23448   3.463   4.631   6.299 -0.2564  0.4521  1.1264
  915MOL0     C23449   3.444   4.667   6.439  0.5148 -0.2226  0.6957
  915MOL0     C23450   3.578   4.634   6.503  0.8746  0.1244 -1.0771
  915MOL0     C23451   3.571   4.644   6.655 -0.5330 -0.8367 -1.0334
  915MOL0     C23452   3.511   4.784   6.712 -0.3749 -0.0461  0.1626
  915MOL0     C23453   3.539   4.808   6.849  1.0268  0.5432 -0.3006
  915MOL0     C23454   3.545   4.832   6.969  0.8446  0.7251  0.0608
  915MOL0     C23455   3.388   4.398   6.352 -0.2532  0.6657  0.0842
  915MOL0     C23456   3.326   4.273   6.306  0.1476  0.2238  1.0882
  915MOL0     C23457   3.285   4.176   6.412  0.0023  0.9367  1.0886
  915MOL0     H23458   3.332   3.958   5.869 -0.8117 -0.3076 -1.0940
  915MOL0     H23459   3.216   3.805   5.730 -3.0260 -2.9983 -1.4965
  915MOL0     H23460   2.951   3.499   5.919  1.2720 -0.6195 -0.9451
  915MOL0     H23461   2.810   3.604   5.893 -0.3382  0.3189 -3.3000
  915MOL0     H23462   2.795   3.393   5.796  1.3349  1.5126  2.8034
  915MOL0     H23463   2.953   3.416   5.701 -1.5579 -0.0412 -6.5329
  915MOL0     H23464   2.835   3.591   5.593  0.7449 -0.6073 -0.0888
  915MOL0     H23465   2.681   3.549   5.684  0.4990 -2.4630  2.5264
  915MOL0     H23466   2.804   3.321   5.547 -2.0947 -2.7689 -2.5407
  915MOL0     H23467   2.635   3.374   5.548  0.2841 -1.5728  0.4077
  915MOL0     H23468   2.659   3.506   5.367 -1.0724 -1.2310 -0.1936
  915MOL0     H23469   2.834   3.538   5.388  4.3587 -3.5733  2.5520
  915MOL0     H23470   2.895   3.310   5.329  0.2477 -0.5441  0.3211
  915MOL0     H23471   2.731   3.254   5.324 -1.7049 -0.4615 -3.1323
  915MOL0     H23472   2.813   3.287   5.095 -1.2386  0.9699 -1.3454
  915MOL0     H23473   2.851   3.461   5.128  1.0128  0.2487  3.0388
  915MOL0     H23474   2.568   3.343   5.102 -3.2874  3.3273 -2.6275
  915MOL0     H23475   2.619   3.515   5.132 -1.1186 -1.0730  1.3315
  915MOL0     H23476   2.506   3.601   4.930 -2.5597 -2.9941  0.4852
  915MOL0     H23477   2.697   3.676   4.616  2.3346 -0.6758  2.9377
  915MOL0     H23478   2.569   3.560   4.560 -1.0108 -0.9031  0.8354
  915MOL0     H23479   2.394   3.701   4.674  0.0021 -0.8000 -2.1424
  915MOL0     H23480   2.504   3.803   4.762  0.4684  0.8233 -0.0058
  915MOL0     H23481   2.556   3.834   4.464 -0.4674  2.4785 -1.9869
  915MOL0     H23482   2.527   3.955   4.595 -1.3132 -0.5688  1.7848
  915MOL0     H23483   2.268   3.833   4.561 -3.9267  4.3093 -1.5511
  915MOL0     H23484   2.345   3.845   4.398  1.0808 -1.9063 -0.3872
  915MOL0     H23485   2.409   4.202   4.650  1.0670 -0.8274  0.6833
  915MOL0     H23486   2.358   4.275   4.883 -2.2819  1.5038  0.8998
  915MOL0     H23487   2.274   4.069   5.322 -0.9089 -0.7847 -1.1044
  915MOL0     H23488   2.236   4.036   5.531  0.1579 -0.0187 -0.3467
  915MOL0     H23489   1.802   4.111   5.703 -3.6024 -2.0900  1.0531
  915MOL0     H23490   1.803   3.943   5.661 -1.9619  2.1520 -0.1148
  915MOL0     H23491   1.773   3.935   5.886 -0.1629  1.5294  1.4085
  915MOL0     H23492   1.947   3.902   5.879 -1.0596 -0.0974  1.9682
  915MOL0     H23493   1.940   4.191   5.903 -0.3149  1.1109  0.9963
  915MOL0     H23494   1.802   4.126   5.996  2.2765  4.1418  1.9065
  915MOL0     H23495   2.083   4.004   6.030 -0.3871  1.3393 -1.9072
  915MOL0     H23496   1.938   3.976   6.121 -0.2310  1.2365  2.3486
  915MOL0     H23497   1.941   4.217   6.218  1.0970 -0.4239  1.5015
  915MOL0     H23498   2.087   4.253   6.127  0.5932  0.8834  1.6245
  915MOL0     H23499   2.046   4.023   6.310 -4.3394  0.7742 -2.4265
  915MOL0     H23500   2.203   4.088   6.255 -0.3225  2.3747  0.0300
  915MOL0     H23501   2.007   4.240   6.431  0.3402  2.8004  0.3012
  915MOL0     H23502   2.157   4.304   6.357 -0.4279 -1.0938 -3.8019
  915MOL0     H23503   2.260   4.089   6.477 -1.0248  0.1319  0.4178
  915MOL0     H23504   2.211   4.231   6.576  0.9188 -0.2045  1.1377
  915MOL0     H23505   1.802   4.060   5.445 -1.3171  2.4034 -3.0685
  915MOL0     H23506   1.844   4.094   5.230  0.8534  1.4003 -0.7740
  915MOL0     H23507   2.027   3.987   4.864 -0.4716 -0.5901 -1.3400
  915MOL0     H23508   2.055   3.962   4.626 -2.5500  1.5529 -0.7611
  915MOL0     H23509   2.926   3.745   6.031 -0.9535 -2.1561 -5.3567
  915MOL0     H23510   3.045   3.897   6.186 -1.4983  1.4010 -0.9551
  915MOL0     H23511   3.328   4.343   5.968  0.7450 -1.0557  0.0969
  915MOL0     H23512   3.408   4.573   6.073 -0.7128 -0.7466 -1.1223
  915MOL0     H23513   3.363   4.624   6.498  1.5164 -0.8427  1.6577
  915MOL0     H23514   3.432   4.775   6.450  2.0207  0.1012 -0.3321
  915MOL0     H23515   3.651   4.706   6.466  1.9525  0.2309  1.1281
  915MOL0     H23516   3.609   4.536   6.467  2.4847  0.7457 -1.4585
  915MOL0     H23517   3.676   4.629   6.683 -0.8699 -4.2411 -1.0860
  915MOL0     H23518   3.521   4.558   6.701 -1.7616 -1.1699 -2.8935
  915MOL0     H23519   3.559   4.860   6.650  1.7951 -2.4888 -1.3717
  915MOL0     H23520   3.403   4.785   6.693 -0.3307  1.5443 -0.1320
  915MOL0     H23521   3.568   4.867   7.068  2.8484 -2.8913  1.0433
  915MOL0     H23522   3.394   4.412   6.460  0.1475  0.7533  0.0508
  915MOL0     H23523   3.186   4.191   6.457  0.3832  3.3105  1.2821
  915MOL0     H23524   3.296   4.074   6.375  1.1727  1.4567 -0.0894
  915MOL0     H23525   3.352   4.189   6.497  1.5584  1.7190 -0.2195
  916MOL0     O23526   8.962   4.966  10.737 -0.3846  0.4111 -0.5828
  916MOL0     C23527   8.916   4.875  10.804 -0.1055 -0.1179 -1.0947
  916MOL0     O23528   8.914   4.863  10.941 -0.5559 -0.7724  0.0347
  916MOL0     C23529   8.960   4.966  11.023 -0.8124 -0.2334  0.2661
  916MOL0     C23530   9.094   4.968  11.058 -1.1368  0.5022 -0.0385
  916MOL0     C23531   9.131   5.069  11.156  1.3074  0.1332  0.0530
  916MOL0     C23532   9.038   5.162  11.203 -0.3072  0.4906  0.6925
  916MOL0     O23533   9.077   5.267  11.289  0.1565  0.9242  0.3866
  916MOL0     C23534   9.176   5.360  11.235 -0.6187  0.5343 -1.1165
  916MOL0     C23535   9.128   5.455  11.138 -0.0579 -0.4976  0.7030
  916MOL0     C23536   9.236   5.565  11.115 -0.3367 -0.2699 -0.9050
  916MOL0     C23537   9.183   5.691  11.064 -0.0797  0.6740  0.1583
  916MOL0     C23538   9.139   5.692  10.909  0.2801  0.6446  0.0656
  916MOL0     C23539   9.070   5.823  10.866  0.3200 -0.4437  0.1207
  916MOL0     C23540   9.163   5.936  10.856 -1.0065 -0.5507  0.1863
  916MOL0     C23541   9.235   5.923  10.721  0.2784 -0.8865  0.3673
  916MOL0     N23542   9.376   5.956  10.732 -0.4101  0.0223 -0.4802
  916MOL0     C23543   9.472   5.865  10.760 -0.7523 -0.5966  1.7392
  916MOL0     C23544   9.587   5.941  10.772 -0.5680  0.7619  0.6729
  916MOL0     C23545   9.714   5.896  10.816 -0.0874  0.6528  0.1770
  916MOL0     C23546   9.726   5.902  10.973 -0.3574 -1.2518  0.3372
  916MOL0     C23547   9.769   6.039  11.029 -0.4528 -0.0496  0.8499
  916MOL0     C23548   9.916   6.076  11.008 -0.0899  0.4393 -0.7645
  916MOL0     O23549  10.015   6.014  11.092  0.3272 -0.7030 -1.2117
  916MOL0     C23550  10.140   5.988  11.046  0.2057  0.4412 -0.3384
  916MOL0     C23551  10.208   5.886  11.119 -0.4109  0.2699  0.7726
  916MOL0     C23552  10.345   5.865  11.093 -1.4171 -0.2823 -0.6317
  916MOL0     C23553  10.416   5.948  10.998 -0.5380 -0.2136 -0.2397
  916MOL0     C23554  10.552   5.911  10.964  0.0093  0.2291  1.1040
  916MOL0     O23555  10.617   5.997  10.875  0.0951  0.0718 -0.7539
  916MOL0     C23556  10.751   5.967  10.851  0.8075 -0.2400  0.6917
  916MOL0     C23557  10.791   5.869  10.760  0.6910 -0.5606 -0.0910
  916MOL0     C23558  10.924   5.844  10.736 -0.3483 -0.5313 -0.1526
  916MOL0     C23559  11.028   5.898  10.806 -0.2397 -1.0266 -0.4977
  916MOL0     O23560  11.162   5.885  10.781 -0.1016 -0.3003  0.1064
  916MOL0     C23561  11.207   5.776  10.696 -0.2111  0.8320 -0.6222
  916MOL0     C23562  11.353   5.785  10.675 -1.0804  0.3025 -0.0224
  916MOL0     C23563  11.388   5.909  10.584  0.5261 -0.0949 -0.3229
  916MOL0     C23564  11.534   5.945  10.558  0.7081 -0.3972 -0.3880
  916MOL0     C23565  11.641   5.867  10.643 -0.1153  0.1375 -0.2423
  916MOL0     C23566  11.787   5.897  10.589  0.3421 -0.2289  0.0169
  916MOL0     C23567  11.888   5.909  10.699 -0.0443  0.0993 -0.8969
  916MOL0     C23568  11.908   6.046  10.761  0.2289 -0.0641 -0.2607
  916MOL0    Cl23569  12.031   6.009  10.892 -0.2503 -0.4415 -0.1679
  916MOL0     C23570  10.988   5.990  10.906  0.8463 -0.6184 -0.4647
  916MOL0     C23571  10.848   6.021  10.931  0.5483  0.2786  0.2827
  916MOL0     O23572  10.605   5.815  11.015  0.2054  0.2682  0.9067
  916MOL0     C23573  10.348   6.043  10.931 -0.2176 -0.0094  0.2953
  916MOL0     C23574  10.212   6.068  10.955  0.2072 -0.4784  0.2177
  916MOL0     N23575   9.547   6.074  10.743 -0.5738 -0.4508 -0.5442
  916MOL0     N23576   9.430   6.080  10.724 -0.0010  0.0260 -0.8114
  916MOL0     C23577   8.908   5.155  11.160 -0.0966 -0.6041 -1.0098
  916MOL0     C23578   8.869   5.054  11.069 -0.5435 -0.5543 -0.5506
  916MOL0     C23579   8.863   4.757  10.734  0.5505  0.0755  0.0668
  916MOL0     C23580   8.867   4.639  10.806  1.1034  0.1122  0.8870
  916MOL0     C23581   8.819   4.515  10.745  0.0526  0.4078 -0.2658
  916MOL0     C23582   8.761   4.520  10.619  0.2746  0.1818  0.1250
  916MOL0     O23583   8.701   4.415  10.552  0.4015  0.5794  0.4373
  916MOL0     C23584   8.709   4.279  10.590 -0.2996  0.3733  0.6596
  916MOL0     C23585   8.833   4.212  10.540 -0.3469 -0.0176 -1.0261
  916MOL0     C23586   8.861   4.094  10.634 -0.4175 -0.9904 -0.6116
  916MOL0     C23587   8.757   3.978  10.627  0.5252 -0.3182 -0.2082
  916MOL0     C23588   8.739   3.925  10.492  0.3508  0.8883  0.6529
  916MOL0     C23589   8.754   3.882  10.377 -0.2403  0.5602 -0.4359
  916MOL0     C23590   8.748   4.640  10.549 -0.8766 -0.7443 -0.6363
  916MOL0     C23591   8.808   4.757  10.603 -0.2885 -0.0729  0.7335
  916MOL0     C23592   8.819   4.879  10.512 -0.1020  0.2156  0.4600
  916MOL0     H23593   9.168   4.900  11.016  0.9190  1.1232  2.3302
  916MOL0     H23594   9.233   5.055  11.189  1.0818 -2.5654 -0.1117
  916MOL0     H23595   9.227   5.413  11.316  2.6977 -2.6065 -0.8875
  916MOL0     H23596   9.256   5.311  11.179  0.2095  1.6175 -0.9202
  916MOL0     H23597   9.031   5.495  11.171  0.3233  0.3531  0.8233
  916MOL0     H23598   9.110   5.405  11.043  4.5303 -1.4597  0.1032
  916MOL0     H23599   9.298   5.526  11.033  0.3510  0.6473 -0.8295
  916MOL0     H23600   9.307   5.581  11.196 -0.1928 -0.0468 -1.0728
  916MOL0     H23601   9.095   5.705  11.127 -1.2888 -0.9811 -1.0914
  916MOL0     H23602   9.232   5.789  11.072  2.0175 -0.4079  1.3841
  916MOL0     H23603   9.235   5.691  10.857  0.2771  1.8913 -0.0103
  916MOL0     H23604   9.073   5.610  10.879  2.3400 -1.0768  0.0153
  916MOL0     H23605   9.022   5.811  10.768  0.0914 -2.1775  0.4138
  916MOL0     H23606   8.988   5.846  10.934  0.5154  2.8353 -0.5894
  916MOL0     H23607   9.228   5.947  10.943 -0.3681  2.1802 -0.5509
  916MOL0     H23608   9.099   6.024  10.850  0.7396  0.6662 -1.6583
  916MOL0     H23609   9.215   5.827  10.671  0.4437 -0.6899 -0.0818
  916MOL0     H23610   9.188   5.997  10.655  1.5728  2.4881  2.9685
  916MOL0     H23611   9.463   5.758  10.773  0.7186 -0.8022  1.2160
  916MOL0     H23612   9.726   5.790  10.793 -0.7025  0.9486 -1.6793
  916MOL0     H23613   9.794   5.950  10.764 -0.2402 -0.0662 -0.8346
  916MOL0     H23614   9.626   5.881  11.012  0.5543 -0.6737  3.1953
  916MOL0     H23615   9.787   5.824  11.018 -2.0687 -0.9154  3.5192
  916MOL0     H23616   9.733   6.039  11.133  0.5775  2.3079  1.2723
  916MOL0     H23617   9.711   6.118  10.980  2.6080  1.1502 -1.1783
  916MOL0     H23618   9.924   6.185  11.018  0.6343  0.4470 -1.3467
  916MOL0     H23619   9.939   6.059  10.903  2.4155  2.1800 -0.5795
  916MOL0     H23620  10.168   5.823  11.199  1.0727  0.0333  1.3740
  916MOL0     H23621  10.376   5.780  11.154 -1.8573  0.8553  1.2633
  916MOL0     H23622  10.714   5.812  10.707  1.3248  0.6276 -2.4127
  916MOL0     H23623  10.949   5.777  10.654 -0.6795  0.3100 -0.9545
  916MOL0     H23624  11.183   5.680  10.743  1.2985  0.2789 -0.9400
  916MOL0     H23625  11.156   5.782  10.599  1.1828  0.4495 -1.3992
  916MOL0     H23626  11.406   5.779  10.770 -2.2789 -1.7173  0.5815
  916MOL0     H23627  11.385   5.691  10.630  3.2542  0.7141  1.7651
  916MOL0     H23628  11.334   5.891  10.490  0.2245  1.1667 -0.4136
  916MOL0     H23629  11.346   5.996  10.636  1.8122  2.3421 -3.1025
  916MOL0     H23630  11.542   6.052  10.580 -0.1150 -0.4285  0.1249
  916MOL0     H23631  11.550   5.920  10.453  1.9125 -2.4267  0.2097
  916MOL0     H23632  11.623   5.760  10.652  0.6953 -0.0216 -0.4568
  916MOL0     H23633  11.620   5.900  10.746 -2.3611  0.0273 -0.6220
  916MOL0     H23634  11.809   5.819  10.516  0.0053 -2.5595  2.2652
  916MOL0     H23635  11.793   5.990  10.533  2.7768  0.1496  0.8265
  916MOL0     H23636  11.986   5.882  10.660  0.6502  1.1626  0.0246
  916MOL0     H23637  11.850   5.842  10.777  0.4875 -1.7287 -2.1520
  916MOL0     H23638  11.947   6.124  10.695 -0.7846  0.4353 -0.2945
  916MOL0     H23639  11.819   6.082  10.813  0.1884  0.6648 -0.8106
  916MOL0     H23640  11.068   6.033  10.965  1.2311  1.6266 -2.4521
  916MOL0     H23641  10.821   6.084  11.015 -0.4961  2.3694 -1.5179
  916MOL0     H23642  10.399   6.101  10.855  0.6977 -2.7133 -1.3171
  916MOL0     H23643  10.163   6.149  10.903 -0.1499  0.0210  1.2922
  916MOL0     H23644   8.837   5.225  11.201 -0.9650 -3.2978  2.6628
  916MOL0     H23645   8.769   5.041  11.030 -1.2727  1.5944  0.4100
  916MOL0     H23646   8.919   4.643  10.901  0.1786  2.6836  1.3622
  916MOL0     H23647   8.833   4.425  10.803  0.2739  0.0782 -0.8270
  916MOL0     H23648   8.622   4.225  10.551  2.5128 -4.0321 -0.2830
  916MOL0     H23649   8.702   4.275  10.699  3.2005 -1.9330  0.9419
  916MOL0     H23650   8.919   4.278  10.551 -1.4698  1.4372 -0.6880
  916MOL0     H23651   8.841   4.189  10.433  4.3819  0.8666 -1.0893
  916MOL0     H23652   8.863   4.116  10.741 -2.4470 -2.2010 -0.2713
  916MOL0     H23653   8.961   4.056  10.613  0.0643 -2.9523  4.0126
  916MOL0     H23654   8.771   3.902  10.704  0.7121 -1.5241 -1.3968
  916MOL0     H23655   8.670   4.035  10.663  1.7264  1.0876  0.5766
  916MOL0     H23656   8.784   3.849  10.279 -2.6298  0.1679 -1.1032
  916MOL0     H23657   8.691   4.645  10.457 -0.3041  0.1298 -0.9555
  916MOL0     H23658   8.916   4.865  10.462 -0.8873  4.2967 -2.8255
  916MOL0     H23659   8.734   4.885  10.443 -0.7372 -1.1442  1.1087
  916MOL0     H23660   8.814   4.978  10.558  1.6153 -0.2638  1.7894
  917MOL0     O23661   6.554   9.574   4.873 -0.5421  0.4886 -0.2322
  917MOL0     C23662   6.471   9.490   4.836 -1.1152  0.4483  0.5455
  917MOL0     O23663   6.358   9.450   4.897  0.2014  0.8190  0.8094
  917MOL0     C23664   6.319   9.512   5.012  0.5094  0.3680  0.4901
  917MOL0     C23665   6.314   9.442   5.128 -0.1702 -0.5997 -1.0114
  917MOL0     C23666   6.268   9.498   5.248  0.7911  1.4877 -0.8951
  917MOL0     C23667   6.220   9.621   5.244  0.7785  0.5944  0.9079
  917MOL0     O23668   6.164   9.677   5.357 -0.7200 -0.0580 -0.2800
  917MOL0     C23669   6.026   9.728   5.348  0.4402  0.0765 -0.2099
  917MOL0     C23670   6.006   9.878   5.388 -0.2554 -0.3800 -0.2615
  917MOL0     C23671   5.856   9.901   5.410 -0.8630  0.1270 -0.5101
  917MOL0     C23672   5.841  10.015   5.514  0.7964 -0.3004  0.8597
  917MOL0     C23673   5.705  10.084   5.518 -0.8231  0.2262  0.9867
  917MOL0     C23674   5.711  10.198   5.621  0.5198  0.1713 -0.0560
  917MOL0     C23675   5.590  10.289   5.625 -0.0956  0.1780 -0.1965
  917MOL0     C23676   5.462  10.213   5.637  0.6061  0.5139 -0.4770
  917MOL0     N23677   5.340  10.288   5.680 -0.3839  0.2315 -0.3772
  917MOL0     C23678   5.211  10.281   5.627 -0.6173 -0.1749 -0.5938
  917MOL0     C23679   5.142  10.358   5.713  0.4776  0.2274  0.3495
  917MOL0     C23680   4.999  10.369   5.725 -0.2387 -0.9470 -0.7341
  917MOL0     C23681   4.945  10.300   5.854  0.4307 -0.1523  0.1172
  917MOL0     C23682   4.918  10.147   5.833  0.0462  0.1922 -0.2375
  917MOL0     C23683   4.944  10.060   5.960  0.4651  0.0865  0.9853
  917MOL0     O23684   4.946   9.917   5.942  0.1720  0.2427 -0.3780
  917MOL0     C23685   5.064   9.856   5.896 -0.8778 -0.3191  1.4039
  917MOL0     C23686   5.061   9.714   5.885  0.1321  0.5262  0.6368
  917MOL0     C23687   5.174   9.636   5.847 -0.1759 -1.0171  0.3623
  917MOL0     C23688   5.289   9.703   5.797  0.1227 -0.0808 -0.4195
  917MOL0     C23689   5.391   9.622   5.731 -0.9529  0.0810  0.7709
  917MOL0     O23690   5.487   9.701   5.669 -0.8663  0.0102  0.2464
  917MOL0     C23691   5.571   9.637   5.586  0.1961 -0.0727 -0.1002
  917MOL0     C23692   5.707   9.638   5.624 -0.7365  0.1823  1.4407
  917MOL0     C23693   5.798   9.542   5.573  0.3551 -0.6822  0.0042
  917MOL0     C23694   5.750   9.457   5.468 -0.3646  0.6524 -0.0710
  917MOL0     O23695   5.827   9.364   5.396  0.5449 -0.0379  0.2195
  917MOL0     C23696   5.966   9.358   5.405  0.7498 -0.9989 -1.0520
  917MOL0     C23697   6.020   9.226   5.456  0.0460 -0.9037 -0.5066
  917MOL0     C23698   5.983   9.111   5.358 -0.4786 -0.5119  1.1530
  917MOL0     C23699   6.088   9.104   5.246 -0.4031 -0.1457 -0.2175
  917MOL0     C23700   6.017   9.072   5.128 -0.5608 -0.1421  0.0040
  917MOL0     C23701   6.113   9.005   5.033 -0.2568  0.0166 -0.0338
  917MOL0     C23702   6.081   9.029   4.887  0.0484  0.1771  0.4766
  917MOL0     C23703   6.190   8.952   4.805  0.3221 -0.4759  0.7471
  917MOL0    Cl23704   6.171   8.778   4.822  0.3842 -0.1662 -0.5345
  917MOL0     C23705   5.617   9.461   5.418 -0.2698  0.9642 -0.6808
  917MOL0     C23706   5.534   9.559   5.482 -0.0321 -0.3710 -0.5388
  917MOL0     O23707   5.383   9.500   5.721 -0.3710 -0.4489  0.4634
  917MOL0     C23708   5.292   9.840   5.805  0.3169 -1.3657 -0.9163
  917MOL0     C23709   5.184   9.923   5.856 -0.2409  0.5709 -0.3352
  917MOL0     N23710   5.227  10.425   5.796 -0.8934  0.0119  0.0607
  917MOL0     N23711   5.344  10.375   5.782  0.6581  0.0725  0.0108
  917MOL0     C23712   6.230   9.701   5.123 -0.5517 -0.7363  0.1817
  917MOL0     C23713   6.267   9.645   5.002  0.9653 -0.4138 -0.7118
  917MOL0     C23714   6.498   9.414   4.705 -0.7345  0.7099 -0.9452
  917MOL0     C23715   6.437   9.287   4.690 -0.1190  0.3795  0.1401
  917MOL0     C23716   6.461   9.203   4.578 -0.1405  0.4229  0.0778
  917MOL0     C23717   6.574   9.230   4.487  0.2000  0.2864 -0.5153
  917MOL0     O23718   6.596   9.150   4.377 -0.0711 -0.3737  0.5598
  917MOL0     C23719   6.484   9.100   4.309 -0.8984 -0.5888  0.4304
  917MOL0     C23720   6.535   9.041   4.172 -0.0440 -0.3859  0.0739
  917MOL0     C23721   6.655   8.953   4.185 -0.3649 -0.0299  0.2706
  917MOL0     C23722   6.679   8.886   4.051  0.0911 -0.0999 -0.0030
  917MOL0     C23723   6.710   8.976   3.935 -1.3194 -0.8149 -1.2628
  917MOL0     C23724   6.735   9.046   3.840 -0.3239  0.6485 -0.1480
  917MOL0     C23725   6.629   9.359   4.502 -0.1672  0.0095 -0.5951
  917MOL0     C23726   6.590   9.456   4.611 -0.0570  0.3260 -0.2810
  917MOL0     C23727   6.661   9.595   4.606  0.7050  0.1394 -0.2213
  917MOL0     H23728   6.355   9.342   5.116  3.3505  0.8662 -2.3994
  917MOL0     H23729   6.259   9.444   5.341  0.8929  1.0102 -1.1585
  917MOL0     H23730   5.993   9.715   5.245  2.4234  2.7326 -1.3213
  917MOL0     H23731   5.957   9.669   5.409  3.3856 -0.1248  3.2723
  917MOL0     H23732   6.051   9.954   5.324  1.2567 -1.1081 -0.0981
  917MOL0     H23733   6.063   9.887   5.481 -2.1762 -0.5943  0.9985
  917MOL0     H23734   5.812   9.812   5.456 -1.0241  0.3381 -0.2519
  917MOL0     H23735   5.807   9.916   5.314 -0.8248 -0.1467 -0.5740
  917MOL0     H23736   5.868   9.969   5.610 -1.0040 -2.1018  0.5864
  917MOL0     H23737   5.904  10.096   5.478 -4.7996  3.0004 -3.2958
  917MOL0     H23738   5.682  10.127   5.420  0.0845 -3.2977 -0.9714
  917MOL0     H23739   5.635  10.004   5.546  1.4160 -1.7813  1.2022
  917MOL0     H23740   5.714  10.159   5.723 -1.2717  0.5657  0.1898
  917MOL0     H23741   5.799  10.261   5.601 -0.0793 -0.0698 -4.3611
  917MOL0     H23742   5.581  10.350   5.535  0.0482  0.6518  0.1062
  917MOL0     H23743   5.606  10.350   5.714  0.3871 -0.4391  0.1498
  917MOL0     H23744   5.433  10.169   5.541  1.8664  0.4749 -0.8566
  917MOL0     H23745   5.477  10.130   5.706  0.8013  1.4288  0.6164
  917MOL0     H23746   5.173  10.236   5.536  0.0222 -0.0593 -0.9281
  917MOL0     H23747   4.960  10.471   5.728 -1.9939 -1.6122  0.1412
  917MOL0     H23748   4.946  10.326   5.639 -2.6732  1.4640 -0.5809
  917MOL0     H23749   5.026  10.299   5.928  0.4408  0.7871  0.1305
  917MOL0     H23750   4.859  10.356   5.891  1.7595  1.2395  1.2622
  917MOL0     H23751   4.971  10.106   5.747 -0.7172 -3.1872  0.7697
  917MOL0     H23752   4.811  10.139   5.809 -0.4027  0.5273  1.4665
  917MOL0     H23753   4.852  10.071   6.019 -2.5822 -0.5253 -3.1776
  917MOL0     H23754   5.030  10.087   6.021  2.4347  1.1923 -2.0642
  917MOL0     H23755   4.976   9.654   5.918  0.9114 -0.5496  0.7392
  917MOL0     H23756   5.163   9.529   5.859 -1.5606 -0.8561  0.7049
  917MOL0     H23757   5.736   9.676   5.721  0.6182 -1.3318  1.6672
  917MOL0     H23758   5.898   9.547   5.614 -0.9153  2.6937  3.2456
  917MOL0     H23759   6.000   9.377   5.303 -0.3449  1.2261 -1.0656
  917MOL0     H23760   6.008   9.447   5.454 -1.3181  0.7621 -2.3485
  917MOL0     H23761   6.127   9.225   5.478  0.0818  1.4771 -0.3127
  917MOL0     H23762   5.973   9.223   5.555 -2.9770 -2.0946 -1.8572
  917MOL0     H23763   5.992   9.016   5.411 -1.1288  0.3031  2.7860
  917MOL0     H23764   5.881   9.115   5.318  0.4608  3.1140 -1.4574
  917MOL0     H23765   6.162   9.025   5.263 -0.8378 -0.6702 -0.7444
  917MOL0     H23766   6.150   9.194   5.237 -1.0702  0.8895  3.6222
  917MOL0     H23767   5.982   9.164   5.080 -2.0587 -1.1720 -0.9751
  917MOL0     H23768   5.926   9.013   5.143  0.3563 -1.3068  1.2739
  917MOL0     H23769   6.211   9.045   5.058 -1.2427  1.5964  1.5800
  917MOL0     H23770   6.122   8.899   5.061  0.9483 -0.2666 -1.3463
  917MOL0     H23771   6.072   9.135   4.862  1.1085 -0.1685 -1.6211
  917MOL0     H23772   5.990   8.972   4.866 -0.2446  0.0239  2.0869
  917MOL0     H23773   6.175   8.979   4.700 -2.2938 -0.9495  0.9451
  917MOL0     H23774   6.291   8.990   4.824 -0.1058  1.1885 -0.0901
  917MOL0     H23775   5.578   9.399   5.339 -0.4931 -1.5463  1.2809
  917MOL0     H23776   5.427   9.566   5.466 -0.0495 -1.3188 -0.9142
  917MOL0     H23777   5.377   9.905   5.788  1.3860 -1.4944  3.0358
  917MOL0     H23778   5.199  10.030   5.864 -3.5142  1.4813 -3.5596
  917MOL0     H23779   6.202   9.806   5.128  1.1855 -0.2850  1.0434
  917MOL0     H23780   6.269   9.697   4.907  2.5053 -2.3729 -1.8322
  917MOL0     H23781   6.366   9.244   4.760 -0.9024  3.2671  1.2729
  917MOL0     H23782   6.411   9.107   4.572  2.3592 -0.9374  0.1346
  917MOL0     H23783   6.408   9.173   4.283  1.1462  0.3316 -3.9092
  917MOL0     H23784   6.430   9.020   4.361  0.5454  0.2445  3.4614
  917MOL0     H23785   6.564   9.124   4.107 -0.3090 -0.9721 -0.8308
  917MOL0     H23786   6.456   8.987   4.118 -1.4774 -0.9532  2.5899
  917MOL0     H23787   6.638   8.883   4.267 -0.8500  0.5713  0.6950
  917MOL0     H23788   6.742   9.013   4.213 -1.0860  0.2937  1.9629
  917MOL0     H23789   6.770   8.824   4.059  0.1107  0.1268  1.7154
  917MOL0     H23790   6.595   8.819   4.030 -1.4182  1.7099  0.0280
  917MOL0     H23791   6.774   9.114   3.767  0.6605  1.1283  0.7938
  917MOL0     H23792   6.703   9.393   4.430 -1.1307 -2.2801 -2.7925
  917MOL0     H23793   6.744   9.600   4.677 -0.5307 -3.2428  1.6725
  917MOL0     H23794   6.697   9.620   4.505  1.7399  1.8117  0.5226
  917MOL0     H23795   6.589   9.674   4.631  0.6108  0.2305 -0.7560
  918MOL0     O23796   4.580   2.035   4.974  0.4161  0.4552 -0.5463
  918MOL0     C23797   4.673   1.950   4.951 -0.3235 -0.7242  0.3515
  918MOL0     O23798   4.802   1.971   4.969 -0.3820  0.5247 -0.2295
  918MOL0     C23799   4.853   2.091   5.021 -0.2764  0.6311  0.9720
  918MOL0     C23800   4.982   2.132   4.976 -0.3951  0.7926  0.7499
  918MOL0     C23801   5.046   2.229   5.036 -0.1756 -0.5723 -0.0532
  918MOL0     C23802   4.984   2.296   5.143 -0.1839  0.1496 -0.8474
  918MOL0     O23803   5.060   2.395   5.211  1.4073  0.3168  0.9755
  918MOL0     C23804   5.010   2.529   5.194 -0.0470  0.0071  0.1782
  918MOL0     C23805   5.117   2.610   5.112 -0.6064 -0.7361 -1.5143
  918MOL0     C23806   5.231   2.657   5.211 -0.0126 -0.3526 -0.8006
  918MOL0     C23807   5.335   2.740   5.144 -0.1763 -1.0885 -0.3949
  918MOL0     C23808   5.391   2.709   5.007  0.4541 -0.5009 -0.3056
  918MOL0     C23809   5.447   2.573   4.995 -0.1766  1.2328 -0.0499
  918MOL0     C23810   5.446   2.532   4.852 -0.0784  0.8510 -0.1209
  918MOL0     C23811   5.305   2.499   4.810  0.0604 -0.1989 -0.2184
  918MOL0     N23812   5.297   2.432   4.681  0.2944  0.5373  0.5126
  918MOL0     C23813   5.338   2.486   4.564  1.0723  0.3165 -0.1209
  918MOL0     C23814   5.332   2.388   4.465 -0.1511  0.1505 -0.6112
  918MOL0     C23815   5.354   2.394   4.318  0.8279  0.2153 -0.4250
  918MOL0     C23816   5.237   2.381   4.219  0.5753 -0.4102  0.0399
  918MOL0     C23817   5.151   2.257   4.260  0.5459  0.1167 -0.5550
  918MOL0     C23818   5.064   2.194   4.150  0.4475  1.0556  0.1687
  918MOL0     O23819   4.973   2.292   4.090  0.5442  0.4568  0.4790
  918MOL0     C23820   4.862   2.332   4.170 -0.3674 -0.3490 -0.4218
  918MOL0     C23821   4.853   2.463   4.225 -0.2879  0.5395  0.5509
  918MOL0     C23822   4.741   2.507   4.289 -0.6655  0.0103  0.1256
  918MOL0     C23823   4.640   2.417   4.316  0.6265  0.0617 -0.6615
  918MOL0     C23824   4.528   2.468   4.404 -0.4173  0.2916  0.3105
  918MOL0     O23825   4.505   2.601   4.419 -0.0848  0.2874 -0.9330
  918MOL0     C23826   4.390   2.651   4.484 -0.4684 -0.8227  0.7402
  918MOL0     C23827   4.270   2.585   4.508 -0.2782 -0.5873  0.0246
  918MOL0     C23828   4.176   2.642   4.588 -1.4343  1.1939  0.5515
  918MOL0     C23829   4.191   2.767   4.644  0.1731 -0.1318  0.2687
  918MOL0     O23830   4.098   2.839   4.718 -1.5588 -0.0122 -0.4944
  918MOL0     C23831   3.972   2.780   4.740  0.3146  0.2683 -0.1311
  918MOL0     C23832   3.872   2.872   4.808 -0.1796  0.1131 -0.5070
  918MOL0     C23833   3.738   2.802   4.862 -0.0955 -0.5261  0.2169
  918MOL0     C23834   3.681   2.881   4.981  0.7573  0.3438  0.7040
  918MOL0     C23835   3.637   3.031   4.940  0.7647  0.9722 -0.7234
  918MOL0     C23836   3.570   3.091   5.065 -0.8431 -0.6181  0.4102
  918MOL0     C23837   3.665   3.117   5.187  1.3678  1.4174  0.4299
  918MOL0     C23838   3.756   3.223   5.154 -0.1885 -0.3474 -0.2623
  918MOL0    Cl23839   3.826   3.286   5.293  0.1140  0.6489  0.4787
  918MOL0     C23840   4.303   2.846   4.612 -0.1200  0.7640  0.2867
  918MOL0     C23841   4.410   2.778   4.543 -0.3020 -0.1156  0.3172
  918MOL0     O23842   4.457   2.376   4.457  0.8433 -0.1021  0.5429
  918MOL0     C23843   4.655   2.278   4.282  0.4687 -0.5756 -0.3417
  918MOL0     C23844   4.765   2.239   4.209 -0.2342 -0.5530 -0.1422
  918MOL0     N23845   5.297   2.266   4.530 -0.6437  0.0997  0.1358
  918MOL0     N23846   5.280   2.296   4.658 -1.1905  0.2692  0.1660
  918MOL0     C23847   4.856   2.256   5.191 -0.1683  0.5098 -0.0127
  918MOL0     C23848   4.793   2.149   5.137 -0.7995  0.5420  0.9648
  918MOL0     C23849   4.621   1.835   4.883 -1.2380 -0.3421 -0.3507
  918MOL0     C23850   4.481   1.818   4.864  0.9983 -0.0205  0.0782
  918MOL0     C23851   4.433   1.711   4.789  0.4224  0.5815  0.1274
  918MOL0     C23852   4.518   1.622   4.728 -0.1643 -0.3933 -0.8680
  918MOL0     O23853   4.470   1.512   4.669 -0.5106 -0.6896 -0.4750
  918MOL0     C23854   4.537   1.466   4.562 -0.7313  0.9132 -0.0817
  918MOL0     C23855   4.591   1.331   4.604 -0.5464  0.2514  0.3420
  918MOL0     C23856   4.482   1.221   4.609 -0.1408  0.8651  0.3156
  918MOL0     C23857   4.531   1.093   4.535  0.7238  0.8300 -0.1536
  918MOL0     C23858   4.606   1.009   4.625 -0.3155  0.4911 -0.0376
  918MOL0     C23859   4.674   0.945   4.697 -0.9626  0.2672 -0.3174
  918MOL0     C23860   4.656   1.640   4.743  0.0853  0.6372  0.0575
  918MOL0     C23861   4.713   1.739   4.831 -0.8322  1.4983  0.4013
  918MOL0     C23862   4.853   1.726   4.865 -0.5416  0.1094 -1.2691
  918MOL0     H23863   5.015   2.091   4.880 -1.9901  1.5952 -0.1846
  918MOL0     H23864   5.139   2.270   4.996  1.2858 -2.4360  1.2405
  918MOL0     H23865   4.924   2.527   5.126 -1.6126  2.7252  1.8925
  918MOL0     H23866   4.987   2.576   5.290  1.2412  1.6121 -0.2375
  918MOL0     H23867   5.081   2.703   5.067 -1.7642 -0.7541 -0.6630
  918MOL0     H23868   5.166   2.549   5.035  0.0274 -4.5783  1.6207
  918MOL0     H23869   5.277   2.571   5.260  1.4664  1.2790  0.8182
  918MOL0     H23870   5.188   2.723   5.288 -3.1867 -2.9054 -0.1168
  918MOL0     H23871   5.285   2.837   5.129  0.5920  0.0381  3.2048
  918MOL0     H23872   5.415   2.753   5.218 -1.4508 -1.5121  1.1248
  918MOL0     H23873   5.305   2.732   4.944 -0.2778 -2.0375  0.0990
  918MOL0     H23874   5.474   2.774   4.976 -1.4761  3.2749  1.8040
  918MOL0     H23875   5.551   2.568   5.029 -0.3704 -1.9316  0.4309
  918MOL0     H23876   5.390   2.501   5.055 -1.8569  2.4813 -0.0640
  918MOL0     H23877   5.499   2.439   4.830  0.2000  1.0128 -0.1267
  918MOL0     H23878   5.485   2.609   4.785  2.1122  0.2416  0.3734
  918MOL0     H23879   5.266   2.426   4.882 -0.8021  0.1707 -0.3077
  918MOL0     H23880   5.248   2.592   4.807  2.6383  1.4558 -1.7427
  918MOL0     H23881   5.342   2.592   4.543  1.7941  0.0562 -1.4081
  918MOL0     H23882   5.412   2.486   4.313  0.9885  0.2295  1.1282
  918MOL0     H23883   5.433   2.324   4.288  1.1398 -0.0024  0.8164
  918MOL0     H23884   5.177   2.472   4.231  0.6606 -0.2983 -0.3767
  918MOL0     H23885   5.272   2.366   4.117  4.0675  1.8733  0.7216
  918MOL0     H23886   5.084   2.290   4.341  0.5797  1.4086 -1.0260
  918MOL0     H23887   5.220   2.182   4.299  3.2259  3.4204  1.6314
  918MOL0     H23888   4.999   2.115   4.187 -0.9881  1.5487 -1.1895
  918MOL0     H23889   5.136   2.165   4.073  1.3560  3.2366  0.1250
  918MOL0     H23890   4.926   2.539   4.197  0.8441 -0.2684  1.2462
  918MOL0     H23891   4.730   2.607   4.331 -1.5687  1.0835 -2.4348
  918MOL0     H23892   4.258   2.488   4.461 -1.4392 -2.6012  4.0363
  918MOL0     H23893   4.097   2.572   4.615  3.4932 -4.8729  1.7118
  918MOL0     H23894   3.931   2.756   4.641 -1.1400 -2.0890  0.9365
  918MOL0     H23895   3.990   2.684   4.789 -0.5099  0.9950  1.6649
  918MOL0     H23896   3.921   2.926   4.889  0.9576 -2.8611  0.9500
  918MOL0     H23897   3.852   2.937   4.723  3.9550 -1.9034 -3.3393
  918MOL0     H23898   3.669   2.791   4.778  0.0201  0.0898  0.0385
  918MOL0     H23899   3.771   2.705   4.902 -2.7310 -0.6122  2.4482
  918MOL0     H23900   3.764   2.876   5.051  2.6744  2.9698 -1.1838
  918MOL0     H23901   3.584   2.840   5.011 -1.4312  2.7697 -2.3188
  918MOL0     H23902   3.562   3.023   4.860  2.3000  4.6927 -2.7942
  918MOL0     H23903   3.724   3.091   4.912  1.7206 -0.4897 -0.9454
  918MOL0     H23904   3.528   3.189   5.040  0.5904 -0.1265 -0.2284
  918MOL0     H23905   3.488   3.024   5.093  0.1053 -1.7795  0.4838
  918MOL0     H23906   3.720   3.026   5.212 -0.6208 -0.0663 -0.3644
  918MOL0     H23907   3.609   3.147   5.276 -2.8147 -1.5915 -0.8530
  918MOL0     H23908   3.825   3.183   5.079 -0.6222 -0.4687 -0.5985
  918MOL0     H23909   3.711   3.310   5.106  0.2809 -0.7161 -1.4102
  918MOL0     H23910   4.316   2.950   4.639  2.5227  2.1615 -5.0442
  918MOL0     H23911   4.508   2.822   4.531  1.2086 -3.5134 -1.1264
  918MOL0     H23912   4.584   2.198   4.304  0.3056 -0.4976 -0.5825
  918MOL0     H23913   4.773   2.136   4.175 -2.2500 -0.9909  0.5977
  918MOL0     H23914   4.830   2.295   5.289  0.8168  1.8103 -0.2419
  918MOL0     H23915   4.695   2.117   5.172 -1.0111  0.8520  0.6640
  918MOL0     H23916   4.415   1.892   4.908  3.0192  0.9567  1.6411
  918MOL0     H23917   4.326   1.696   4.776 -0.1762  4.2040 -0.0943
  918MOL0     H23918   4.614   1.534   4.525  0.3934 -0.7155 -0.8472
  918MOL0     H23919   4.461   1.452   4.484 -0.3673  0.3123 -0.3324
  918MOL0     H23920   4.639   1.346   4.701  0.5510  1.2617 -0.3440
  918MOL0     H23921   4.670   1.295   4.537  0.1585 -0.7491  1.6590
  918MOL0     H23922   4.395   1.265   4.558 -0.9116 -0.8413  0.0870
  918MOL0     H23923   4.454   1.193   4.711 -1.9121 -0.1942 -0.4168
  918MOL0     H23924   4.440   1.045   4.500  1.5916 -0.8084 -0.2378
  918MOL0     H23925   4.599   1.108   4.450  0.9350 -3.8027 -1.0263
  918MOL0     H23926   4.744   0.892   4.759 -2.2077 -1.3606 -0.2302
  918MOL0     H23927   4.720   1.560   4.706 -1.9337 -2.3377  2.5084
  918MOL0     H23928   4.908   1.811   4.824  1.1124  1.0007  2.4031
  918MOL0     H23929   4.855   1.713   4.974 -3.0852 -2.6477 -1.4026
  918MOL0     H23930   4.887   1.639   4.809  1.3147 -0.2962  0.3838
  919MOL0     O23931   9.528   8.442  11.058  0.2282 -1.2391  0.9904
  919MOL0     C23932   9.500   8.554  11.108  0.1176  0.4962 -1.0953
  919MOL0     O23933   9.474   8.671  11.032  0.3123  0.2455 -0.1299
  919MOL0     C23934   9.422   8.667  10.900 -0.4111 -0.1230  0.0593
  919MOL0     C23935   9.304   8.593  10.875 -0.5604  0.2985 -0.2689
  919MOL0     C23936   9.231   8.612  10.759 -0.3658 -0.5312  0.4825
  919MOL0     C23937   9.266   8.703  10.659 -0.4425 -0.3848  0.0802
  919MOL0     O23938   9.171   8.728  10.568 -0.0101  0.0280  0.0735
  919MOL0     C23939   9.138   8.863  10.533 -0.0277 -0.1098 -0.7425
  919MOL0     C23940   9.049   8.914  10.646  1.2663  0.3473 -0.2921
  919MOL0     C23941   8.957   9.032  10.598 -0.7176  0.7720 -0.5844
  919MOL0     C23942   9.021   9.163  10.541 -0.4134  0.6643 -0.1804
  919MOL0     C23943   9.047   9.157  10.392  0.5025  0.2811  0.3274
  919MOL0     C23944   9.095   9.286  10.336 -0.5969 -0.2598  1.2195
  919MOL0     C23945   9.148   9.261  10.197 -0.2957  0.4932 -0.6129
  919MOL0     C23946   9.037   9.240  10.087 -1.4644 -1.1652  0.4824
  919MOL0     N23947   9.104   9.257   9.959 -0.3923 -0.3168 -0.1971
  919MOL0     C23948   9.104   9.162   9.857  0.4721 -0.5302  1.0186
  919MOL0     C23949   9.156   9.231   9.750  0.5034  0.4551 -0.7351
  919MOL0     C23950   9.219   9.174   9.619 -0.3654 -1.4525 -0.4357
  919MOL0     C23951   9.368   9.167   9.625  0.2919 -0.6532  0.1728
  919MOL0     C23952   9.430   9.068   9.520  0.0260 -0.3104 -1.1364
  919MOL0     C23953   9.583   9.064   9.544 -0.3047  0.6596 -0.0542
  919MOL0     O23954   9.621   8.933   9.485 -0.4845 -0.1322 -0.3096
  919MOL0     C23955   9.750   8.897   9.526 -0.1925 -0.4584 -0.0434
  919MOL0     C23956   9.790   8.763   9.491  0.1547  0.7304  0.0775
  919MOL0     C23957   9.907   8.709   9.532 -0.3700 -0.2298  0.1569
  919MOL0     C23958  10.004   8.785   9.598  0.1726  0.4401  0.1364
  919MOL0     C23959  10.131   8.724   9.646  0.2702 -0.8686 -0.1976
  919MOL0     O23960  10.186   8.612   9.591  0.1462  0.2869 -0.5622
  919MOL0     C23961  10.196   8.590   9.453  0.5504 -0.0715 -0.9561
  919MOL0     C23962  10.239   8.464   9.411  0.0886 -1.2932  0.3310
  919MOL0     C23963  10.249   8.434   9.277  0.3068  0.1345 -0.4850
  919MOL0     C23964  10.192   8.522   9.181 -0.2810  0.3504 -1.2145
  919MOL0     O23965  10.198   8.493   9.048  0.7728  0.5617  0.9829
  919MOL0     C23966  10.096   8.554   8.969  0.2754  0.0359  0.1111
  919MOL0     C23967  10.095   8.457   8.858 -0.2154  0.5868 -0.6818
  919MOL0     C23968  10.042   8.507   8.729  0.3625 -0.2598  0.0744
  919MOL0     C23969  10.028   8.393   8.620  0.6134  0.6892 -0.6153
  919MOL0     C23970  10.154   8.321   8.580 -0.7956 -0.1653 -0.0579
  919MOL0     C23971  10.147   8.251   8.444  0.2649 -0.2267  0.1942
  919MOL0     C23972  10.042   8.143   8.428  0.2041  0.3698 -0.8627
  919MOL0     C23973  10.030   8.097   8.279  0.1998  0.2122 -0.9741
  919MOL0    Cl23974   9.865   8.055   8.225  0.0009 -0.6613  0.5836
  919MOL0     C23975  10.167   8.651   9.222  0.3745 -0.5576  0.4531
  919MOL0     C23976  10.172   8.692   9.357  0.9221  0.2331  0.0095
  919MOL0     O23977  10.180   8.805   9.721 -1.2617  1.2126 -0.1981
  919MOL0     C23978   9.972   8.920   9.616  0.3240 -0.0200 -1.2243
  919MOL0     C23979   9.841   8.977   9.597 -0.6147 -0.4385  0.8744
  919MOL0     N23980   9.172   9.359   9.783  0.1585  0.2142  0.7147
  919MOL0     N23981   9.141   9.375   9.907 -0.6991  0.6474  1.1096
  919MOL0     C23982   9.386   8.779  10.680  0.7854 -0.3800  0.4831
  919MOL0     C23983   9.460   8.756  10.801 -0.4013 -0.5768 -0.5470
  919MOL0     C23984   9.482   8.562  11.260  0.7505  1.1071 -0.1450
  919MOL0     C23985   9.500   8.683  11.325  0.8092  0.4593 -0.9512
  919MOL0     C23986   9.469   8.702  11.467  0.0476  0.0134 -0.8296
  919MOL0     C23987   9.434   8.586  11.547 -0.4099  0.3075  0.9006
  919MOL0     O23988   9.410   8.575  11.679 -0.0327  0.5958  0.3282
  919MOL0     C23989   9.476   8.662  11.765  0.2644 -0.3123 -0.1156
  919MOL0     C23990   9.443   8.640  11.908 -0.0811 -0.8046 -0.7401
  919MOL0     C23991   9.541   8.727  11.998  0.6571  0.0275 -0.1918
  919MOL0     C23992   9.471   8.740  12.143 -0.1934 -0.5153  0.9409
  919MOL0     C23993   9.463   8.611  12.208 -0.9089 -0.3781  0.2447
  919MOL0     C23994   9.457   8.504  12.278 -0.3224 -0.0404  0.1227
  919MOL0     C23995   9.420   8.461  11.478  0.2820 -0.6233  0.2745
  919MOL0     C23996   9.443   8.447  11.337 -0.7481  0.3803  0.4638
  919MOL0     C23997   9.406   8.309  11.279 -0.4449 -0.4834 -0.0006
  919MOL0     H23998   9.264   8.508  10.929  0.6214 -1.4374 -1.9912
  919MOL0     H23999   9.145   8.547  10.745  0.8357 -1.8339 -1.3520
  919MOL0     H24000   9.229   8.922  10.525  1.4628 -2.2444 -0.3243
  919MOL0     H24001   9.095   8.867  10.432 -2.8099 -0.9710  0.3152
  919MOL0     H24002   9.110   8.947  10.731  0.4375  1.3164 -0.0535
  919MOL0     H24003   8.984   8.838  10.688 -1.7145  2.8688  0.0039
  919MOL0     H24004   8.926   9.062  10.698  1.9031 -3.8501  1.9392
  919MOL0     H24005   8.876   8.998  10.533 -0.4195 -0.3965 -0.3757
  919MOL0     H24006   8.973   9.254  10.578  0.0354  1.6138 -1.8108
  919MOL0     H24007   9.118   9.176  10.590 -1.2824  0.2618  1.7184
  919MOL0     H24008   9.117   9.078  10.363  0.2679  0.6289 -1.2648
  919MOL0     H24009   8.953   9.138  10.339  1.9374 -1.6057 -1.6966
  919MOL0     H24010   9.021   9.366  10.333 -0.8236 -0.4607 -2.1073
  919MOL0     H24011   9.180   9.316  10.399  0.5847  1.5803 -1.1006
  919MOL0     H24012   9.226   9.185  10.186 -1.0881 -0.1038 -2.4183
  919MOL0     H24013   9.198   9.359  10.190  1.2386 -0.1274  0.9639
  919MOL0     H24014   9.005   9.136  10.074 -2.6730 -0.5611 -2.1224
  919MOL0     H24015   8.948   9.302  10.100 -1.0065 -0.1029 -1.1688
  919MOL0     H24016   9.067   9.061   9.867  2.4002 -1.3126  0.6017
  919MOL0     H24017   9.172   9.080   9.589  0.0856 -1.2618 -1.8016
  919MOL0     H24018   9.198   9.248   9.541 -0.8066 -1.2970 -0.1770
  919MOL0     H24019   9.410   9.268   9.620 -1.7550  0.1914 -1.3093
  919MOL0     H24020   9.386   9.122   9.723  1.7091  2.8903  1.7316
  919MOL0     H24021   9.428   9.103   9.417 -5.0674  2.4053 -0.4177
  919MOL0     H24022   9.373   8.975   9.533  0.8944 -0.6440  0.6779
  919MOL0     H24023   9.602   9.059   9.652  0.2860  1.5272 -0.0998
  919MOL0     H24024   9.640   9.149   9.504 -1.5799  2.3529  1.5237
  919MOL0     H24025   9.715   8.699   9.445  1.1942 -0.5418  0.0992
  919MOL0     H24026   9.921   8.603   9.519  1.3311  0.0851 -0.8920
  919MOL0     H24027  10.270   8.386   9.479  0.6839 -0.4536  1.0473
  919MOL0     H24028  10.291   8.337   9.252  2.0545 -0.1948  3.1132
  919MOL0     H24029  10.000   8.561   9.021  1.4690 -0.9948  2.5702
  919MOL0     H24030  10.120   8.655   8.935 -4.3173  0.8857 -1.3209
  919MOL0     H24031  10.198   8.426   8.841 -0.1768  0.6041 -0.4696
  919MOL0     H24032  10.022   8.383   8.894  2.1592 -1.1211  0.8942
  919MOL0     H24033   9.942   8.550   8.740  0.6556  0.5613 -0.4032
  919MOL0     H24034  10.096   8.584   8.673 -2.6207  0.5313 -1.9326
  919MOL0     H24035   9.984   8.437   8.530  0.0034 -2.0238 -1.7375
  919MOL0     H24036   9.955   8.321   8.659  1.0759  0.8887  0.6660
  919MOL0     H24037  10.175   8.253   8.663 -1.7236  0.2441  0.5294
  919MOL0     H24038  10.239   8.388   8.581 -0.4754 -0.4353 -2.7282
  919MOL0     H24039  10.141   8.330   8.368 -2.9823  0.0062  0.5530
  919MOL0     H24040  10.245   8.202   8.433  0.5401  0.6728 -1.8599
  919MOL0     H24041   9.941   8.168   8.464  1.1871 -2.5330  5.0034
  919MOL0     H24042  10.070   8.053   8.483  0.5580  1.7251  1.3104
  919MOL0     H24043  10.064   8.187   8.227  0.8677  1.0918  0.9039
  919MOL0     H24044  10.106   8.020   8.263 -0.2650 -0.4318 -0.1866
  919MOL0     H24045  10.117   8.721   9.155 -0.2490  0.3895  1.8695
  919MOL0     H24046  10.140   8.789   9.392  1.9756  0.6860 -0.2504
  919MOL0     H24047  10.044   8.988   9.659 -1.3782 -1.1288  4.1224
  919MOL0     H24048   9.828   9.083   9.620 -0.9951 -0.6166  1.5087
  919MOL0     H24049   9.413   8.860  10.613  2.0344 -1.4326 -0.3326
  919MOL0     H24050   9.546   8.815  10.830 -0.6417 -1.5287  2.4338
  919MOL0     H24051   9.522   8.767  11.260 -2.6837  3.2486  1.1135
  919MOL0     H24052   9.476   8.797  11.519 -0.1017 -1.9164  3.1118
  919MOL0     H24053   9.471   8.770  11.749 -2.3639  0.4529  4.2758
  919MOL0     H24054   9.584   8.646  11.749 -0.2190 -0.1324 -4.9351
  919MOL0     H24055   9.439   8.535  11.939  1.8361 -1.0800 -1.3246
  919MOL0     H24056   9.345   8.683  11.931  0.2544  1.6369 -3.3900
  919MOL0     H24057   9.552   8.827  11.956 -1.8961  0.4070 -0.0747
  919MOL0     H24058   9.636   8.674  12.009 -0.9762 -2.6050  3.5754
  919MOL0     H24059   9.529   8.813  12.200  0.3758  1.3445 -1.8054
  919MOL0     H24060   9.376   8.793  12.135  2.5146  4.9066 -0.8558
  919MOL0     H24061   9.471   8.427  12.351  0.8178 -0.1526 -0.1880
  919MOL0     H24062   9.406   8.376  11.544 -0.4516  0.2908  1.3333
  919MOL0     H24063   9.373   8.241  11.358 -0.2664 -2.3100 -1.4321
  919MOL0     H24064   9.329   8.328  11.204  2.4546  4.6878 -2.1907
  919MOL0     H24065   9.498   8.270  11.233  1.4342  0.4000  2.7416
  920MOL0     O24066   0.922   2.276   2.320  0.2972 -0.3070 -0.1151
  920MOL0     C24067   0.912   2.342   2.422 -0.2927 -0.3710  0.1729
  920MOL0     O24068   0.810   2.432   2.447 -0.2533  0.1539 -0.6240
  920MOL0     C24069   0.712   2.429   2.352  0.1413  0.7286 -1.4445
  920MOL0     C24070   0.694   2.527   2.256  0.7619  0.3476 -0.4127
  920MOL0     C24071   0.586   2.522   2.167 -0.8151 -0.9700 -1.3635
  920MOL0     C24072   0.484   2.429   2.187 -0.0484 -0.1236  0.8302
  920MOL0     O24073   0.362   2.463   2.115 -0.4080  0.3041 -0.1636
  920MOL0     C24074   0.254   2.373   2.111  0.7019 -1.1581  0.4737
  920MOL0     C24075   0.175   2.401   1.977  0.2787 -0.7803  0.3597
  920MOL0     C24076   0.040   2.340   1.952 -0.3115  0.6436 -0.4673
  920MOL0     C24077  -0.026   2.313   2.091 -0.2555  0.2908  0.7018
  920MOL0     C24078  -0.174   2.279   2.094  0.1437 -0.2024  0.1840
  920MOL0     C24079  -0.252   2.407   2.071  0.1801  0.3351 -0.3546
  920MOL0     C24080  -0.404   2.391   2.067 -0.5828  0.2391 -0.0826
  920MOL0     C24081  -0.471   2.513   2.127  0.0277 -1.0839  0.1067
  920MOL0     N24082  -0.617   2.505   2.113 -0.0273  0.4513 -0.2253
  920MOL0     C24083  -0.688   2.392   2.149 -0.8142  0.3739  0.0165
  920MOL0     C24084  -0.813   2.422   2.107 -0.5225 -0.7709 -0.6204
  920MOL0     C24085  -0.937   2.343   2.132 -0.4107 -0.0333 -0.0868
  920MOL0     C24086  -0.982   2.238   2.022 -0.1392 -0.1576  0.1351
  920MOL0     C24087  -0.856   2.166   1.957  0.2828  0.3763 -0.5177
  920MOL0     C24088  -0.906   2.046   1.879 -0.4483 -0.6889 -0.3727
  920MOL0     O24089  -0.946   1.964   1.988 -0.4461  0.6749  0.3348
  920MOL0     C24090  -0.987   1.835   1.965 -0.0314  0.2606  0.6773
  920MOL0     C24091  -1.046   1.792   1.843 -0.6257 -0.9753  0.8193
  920MOL0     C24092  -1.068   1.659   1.826  0.8803  0.0774 -0.6133
  920MOL0     C24093  -1.042   1.562   1.926  0.1861 -0.1102  1.0022
  920MOL0     C24094  -1.096   1.423   1.919  0.1071  0.1665 -0.4135
  920MOL0     O24095  -1.199   1.400   1.829 -0.6328  0.1723 -0.9562
  920MOL0     C24096  -1.243   1.268   1.813 -0.1647  0.1181 -0.0470
  920MOL0     C24097  -1.385   1.242   1.799 -0.5252 -0.6764  0.0461
  920MOL0     C24098  -1.434   1.116   1.802 -0.0105  0.4512 -1.8650
  920MOL0     C24099  -1.344   1.003   1.814  0.2271 -0.1295 -0.1781
  920MOL0     O24100  -1.378   0.872   1.808 -0.5622 -0.3806  0.8990
  920MOL0     C24101  -1.519   0.840   1.816  0.2445 -0.0248 -1.0423
  920MOL0     C24102  -1.517   0.700   1.879 -0.6200  0.3715  0.8351
  920MOL0     C24103  -1.540   0.591   1.779  0.6468  0.8352  0.3068
  920MOL0     C24104  -1.421   0.573   1.692  0.8538  0.2645  0.0273
  920MOL0     C24105  -1.446   0.471   1.576 -0.1514  0.0104 -0.0208
  920MOL0     C24106  -1.443   0.327   1.615  0.5961  0.7955 -0.1050
  920MOL0     C24107  -1.411   0.234   1.493  0.6375  0.5923 -0.1999
  920MOL0     C24108  -1.449   0.086   1.519  0.0360  0.0861 -0.9462
  920MOL0    Cl24109  -1.356   0.036   1.670  0.1443 -0.1134  0.1879
  920MOL0     C24110  -1.208   1.028   1.801 -0.1515  0.1542  0.2205
  920MOL0     C24111  -1.162   1.160   1.804 -0.5000 -0.3928 -0.8428
  920MOL0     O24112  -1.045   1.345   1.998 -0.1647 -0.2655  0.3935
  920MOL0     C24113  -0.974   1.609   2.047  1.2246  0.5557 -0.3228
  920MOL0     C24114  -0.956   1.741   2.056  0.3521  0.1809 -0.2694
  920MOL0     N24115  -0.808   2.545   2.047 -0.9306  0.3014  0.2979
  920MOL0     N24116  -0.692   2.590   2.047 -0.0119  0.3245 -0.0418
  920MOL0     C24117   0.507   2.329   2.286  0.1870  0.1114 -0.4057
  920MOL0     C24118   0.625   2.319   2.358  0.0936 -0.2538 -0.6030
  920MOL0     C24119   1.025   2.334   2.528  0.6861  0.0438  0.2477
  920MOL0     C24120   0.991   2.377   2.661 -0.3805  0.4792  0.1818
  920MOL0     C24121   1.083   2.376   2.768 -0.3576 -0.1392  0.3955
  920MOL0     C24122   1.211   2.329   2.742  0.1826  0.3294 -1.5396
  920MOL0     O24123   1.295   2.313   2.856 -0.4457  1.0099  0.5468
  920MOL0     C24124   1.418   2.238   2.840  0.7679 -0.4192  0.4561
  920MOL0     C24125   1.542   2.323   2.837 -0.6806  0.1025  0.3408
  920MOL0     C24126   1.633   2.326   2.962  0.6628 -1.0182  0.6483
  920MOL0     C24127   1.595   2.435   3.057 -0.0402 -0.0542 -0.9383
  920MOL0     C24128   1.669   2.414   3.186 -0.2676  0.2955 -1.1394
  920MOL0     C24129   1.735   2.394   3.285 -0.8668 -0.3698  0.4091
  920MOL0     C24130   1.249   2.306   2.610  0.4288 -0.6369  0.2957
  920MOL0     C24131   1.159   2.313   2.499 -0.6364  0.0477 -0.2396
  920MOL0     C24132   1.215   2.270   2.359  0.3325 -0.4149  0.0108
  920MOL0     H24133   0.759   2.613   2.263  2.3191 -0.8696  4.6454
  920MOL0     H24134   0.565   2.602   2.096 -1.9523 -2.0282 -2.2638
  920MOL0     H24135   0.291   2.270   2.112 -0.5535 -1.6315  0.5379
  920MOL0     H24136   0.188   2.386   2.198 -2.1730  0.6364 -1.7712
  920MOL0     H24137   0.234   2.355   1.898 -1.4402 -0.0986 -1.3818
  920MOL0     H24138   0.178   2.509   1.957  0.2777 -0.7100  0.7277
  920MOL0     H24139   0.047   2.244   1.900 -1.0910 -1.2232  2.6212
  920MOL0     H24140  -0.020   2.412   1.896  0.1898  2.1989  0.9207
  920MOL0     H24141   0.020   2.230   2.146 -2.7871 -1.3092  0.5178
  920MOL0     H24142  -0.004   2.402   2.151 -2.0568  1.3190 -0.0986
  920MOL0     H24143  -0.192   2.216   2.006  0.8655  3.2543 -2.6664
  920MOL0     H24144  -0.198   2.230   2.189 -1.1874 -1.1798 -0.6210
  920MOL0     H24145  -0.232   2.469   2.159 -0.8227 -2.0596  1.6688
  920MOL0     H24146  -0.206   2.463   1.988 -3.0337  1.2116 -1.6879
  920MOL0     H24147  -0.429   2.297   2.118 -3.1121 -1.3743 -3.8743
  920MOL0     H24148  -0.442   2.368   1.967 -3.8538 -1.6172  1.4189
  920MOL0     H24149  -0.457   2.521   2.235 -2.6211  0.7393  0.3999
  920MOL0     H24150  -0.436   2.600   2.070 -1.8546 -0.1164  0.3613
  920MOL0     H24151  -0.653   2.308   2.208 -0.9192  0.1144 -0.2904
  920MOL0     H24152  -0.915   2.289   2.224  0.5004  0.6558  0.1134
  920MOL0     H24153  -1.017   2.418   2.140 -0.9100 -0.5196 -0.5072
  920MOL0     H24154  -1.046   2.167   2.075  3.1952 -1.9579  2.0871
  920MOL0     H24155  -1.027   2.300   1.944  3.1249  1.7488 -0.4618
  920MOL0     H24156  -0.801   2.126   2.042 -2.4083 -0.6569  0.8553
  920MOL0     H24157  -0.797   2.233   1.894 -0.1303 -0.6619 -2.0809
  920MOL0     H24158  -0.825   2.005   1.818  1.1572  0.8159  0.6361
  920MOL0     H24159  -0.996   2.076   1.824  1.1595  1.3206 -2.0990
  920MOL0     H24160  -1.088   1.860   1.769 -1.4727 -0.6828  1.5411
  920MOL0     H24161  -1.117   1.622   1.737  1.3368 -1.0619 -0.4074
  920MOL0     H24162  -1.449   1.330   1.793  2.3827  1.5697 -0.4225
  920MOL0     H24163  -1.541   1.096   1.801 -0.1465  1.1126 -3.2882
  920MOL0     H24164  -1.578   0.897   1.887  0.9360  0.9255 -1.2050
  920MOL0     H24165  -1.573   0.856   1.722  0.1558 -0.6260 -1.1007
  920MOL0     H24166  -1.431   0.676   1.942 -0.7669 -0.4865  0.7218
  920MOL0     H24167  -1.594   0.682   1.955  0.3828  2.0054  2.2983
  920MOL0     H24168  -1.562   0.505   1.842 -4.1935  1.7125  0.2287
  920MOL0     H24169  -1.631   0.605   1.719  1.0302  2.0074 -0.0383
  920MOL0     H24170  -1.345   0.538   1.763 -1.6704  1.0281  3.3991
  920MOL0     H24171  -1.395   0.660   1.632 -3.3190  1.6840 -0.0312
  920MOL0     H24172  -1.365   0.496   1.506  3.1449  0.4722  3.5976
  920MOL0     H24173  -1.539   0.491   1.522  1.0140  3.8561 -0.9545
  920MOL0     H24174  -1.368   0.305   1.692 -0.1004  2.9659  1.2780
  920MOL0     H24175  -1.543   0.297   1.649  0.8250  0.4650  0.3066
  920MOL0     H24176  -1.309   0.252   1.458  0.8696  1.9394  1.0944
  920MOL0     H24177  -1.470   0.259   1.404  2.4798 -2.0862 -2.3335
  920MOL0     H24178  -1.557   0.089   1.536  0.4964 -0.1962  3.1174
  920MOL0     H24179  -1.439   0.024   1.430 -4.6629  1.4087 -2.6731
  920MOL0     H24180  -1.139   0.945   1.808  0.9490  1.1568  2.4773
  920MOL0     H24181  -1.055   1.179   1.798 -0.7393  1.0029 -1.0533
  920MOL0     H24182  -0.937   1.550   2.130  0.8311 -0.2442 -0.6998
  920MOL0     H24183  -0.886   1.766   2.137 -0.6156  0.4309  0.5106
  920MOL0     H24184   0.441   2.243   2.291  0.9741 -0.6838 -2.4768
  920MOL0     H24185   0.651   2.236   2.424  1.9655  2.6508  2.6376
  920MOL0     H24186   0.892   2.407   2.693 -1.2372 -1.5902 -0.3582
  920MOL0     H24187   1.055   2.411   2.866  1.1844  0.4075  0.6806
  920MOL0     H24188   1.417   2.175   2.750  1.4783  1.3060 -0.8204
  920MOL0     H24189   1.429   2.179   2.931  0.1157 -2.2557 -0.6037
  920MOL0     H24190   1.535   2.430   2.813  0.7422 -0.2455 -1.9184
  920MOL0     H24191   1.598   2.273   2.758 -4.7089 -3.3481 -0.7030
  920MOL0     H24192   1.736   2.356   2.939 -0.6654  4.9085  0.7685
  920MOL0     H24193   1.634   2.229   3.013 -5.1414 -1.5806  0.2888
  920MOL0     H24194   1.614   2.537   3.021  1.4804  0.2047  0.4792
  920MOL0     H24195   1.489   2.429   3.082  0.4328  1.8713  1.8981
  920MOL0     H24196   1.782   2.364   3.377 -1.5172 -0.3245  0.7654
  920MOL0     H24197   1.353   2.282   2.589  0.3918 -1.1040  0.6295
  920MOL0     H24198   1.163   2.317   2.274 -2.2361 -4.4902 -0.9211
  920MOL0     H24199   1.319   2.303   2.350  0.0750 -0.1421 -3.2224
  920MOL0     H24200   1.213   2.161   2.353  2.6076 -0.4327 -2.2209
  921MOL0     O24201   4.850   1.733   2.210  0.1826  0.5732 -0.0807
  921MOL0     C24202   4.933   1.805   2.149  0.2869 -0.2618 -0.5060
  921MOL0     O24203   4.909   1.901   2.062 -0.4004  0.2296  0.0601
  921MOL0     C24204   4.788   1.906   1.999 -0.1674  0.6817 -0.3159
  921MOL0     C24205   4.716   2.033   1.977 -0.4369  0.7975 -0.5778
  921MOL0     C24206   4.591   2.036   1.920 -0.1140  0.2207  0.8807
  921MOL0     C24207   4.527   1.912   1.875 -0.9300 -0.1127 -0.3897
  921MOL0     O24208   4.407   1.913   1.817 -0.4704 -0.0453 -0.1282
  921MOL0     C24209   4.312   2.013   1.827 -0.0500  0.1177  0.0993
  921MOL0     C24210   4.169   1.948   1.823 -0.5412 -0.5754 -0.2930
  921MOL0     C24211   4.136   1.856   1.942  0.0970 -0.3747 -0.9790
  921MOL0     C24212   4.150   1.710   1.901 -0.1983  0.2233 -0.3930
  921MOL0     C24213   4.097   1.621   2.010  0.1684 -0.4626 -0.1957
  921MOL0     C24214   4.086   1.473   1.975  0.1296  0.3029  0.6224
  921MOL0     C24215   4.035   1.395   2.091 -0.0092 -1.1216 -0.9038
  921MOL0     C24216   4.011   1.245   2.054  0.0475 -1.2723 -0.6238
  921MOL0     N24217   3.949   1.172   2.169  1.1873 -0.0235 -0.3677
  921MOL0     C24218   4.007   1.171   2.298  0.6741 -0.3718 -0.1918
  921MOL0     C24219   3.913   1.108   2.374 -0.2735 -0.1375 -0.7201
  921MOL0     C24220   3.926   1.054   2.514  0.7563 -0.0903  0.3459
  921MOL0     C24221   4.054   0.977   2.515 -0.7593 -0.4510 -0.6382
  921MOL0     C24222   4.073   0.895   2.647 -0.0121 -0.4862  0.1441
  921MOL0     C24223   4.198   0.829   2.633 -0.7121  0.3050 -0.2925
  921MOL0     O24224   4.239   0.776   2.764  0.5530 -0.2305  0.1122
  921MOL0     C24225   4.367   0.714   2.763  0.7592 -0.3609  0.2520
  921MOL0     C24226   4.454   0.694   2.654  0.8542  0.5564 -0.5292
  921MOL0     C24227   4.584   0.640   2.667  0.4693 -0.7183  0.3742
  921MOL0     C24228   4.636   0.602   2.787  0.7792 -0.5302 -0.2608
  921MOL0     C24229   4.767   0.540   2.791 -0.3667 -0.1340  0.0002
  921MOL0     O24230   4.814   0.513   2.913  0.5472  0.3115 -0.7859
  921MOL0     C24231   4.944   0.503   2.932 -0.1184  0.6250  0.4226
  921MOL0     C24232   5.001   0.382   2.967  0.1844  0.1556  0.1172
  921MOL0     C24233   5.134   0.368   3.007  0.8852  0.5355 -0.1952
  921MOL0     C24234   5.224   0.486   3.008  0.1044 -0.7371 -0.0405
  921MOL0     O24235   5.353   0.470   3.059 -0.2534  0.1724 -0.3199
  921MOL0     C24236   5.456   0.561   3.007  0.6479 -0.5227  0.3033
  921MOL0     C24237   5.596   0.540   3.064  0.0070  0.8442 -0.2462
  921MOL0     C24238   5.626   0.617   3.189  0.2518  0.1894 -0.0550
  921MOL0     C24239   5.775   0.615   3.207  0.2538 -1.4599 -0.2317
  921MOL0     C24240   5.829   0.717   3.317  0.4336 -0.5600 -0.2765
  921MOL0     C24241   5.979   0.743   3.291 -1.1611  0.7853 -0.5568
  921MOL0     C24242   6.033   0.800   3.421 -0.8106  0.4701  0.1284
  921MOL0     C24243   6.165   0.878   3.411  0.9057  0.8609 -0.9989
  921MOL0    Cl24244   6.130   1.025   3.319  0.2238 -0.7316  0.2795
  921MOL0     C24245   5.165   0.611   2.962 -0.5719  0.9941  0.8146
  921MOL0     C24246   5.028   0.613   2.932 -0.0437 -1.0582 -0.4120
  921MOL0     O24247   4.836   0.526   2.693 -0.1130  0.1123  0.0297
  921MOL0     C24248   4.556   0.630   2.902 -0.0605 -1.0253 -0.4663
  921MOL0     C24249   4.420   0.673   2.889  0.0750 -0.1971  0.0234
  921MOL0     N24250   3.809   1.070   2.285  0.4206 -0.2294 -0.1217
  921MOL0     N24251   3.836   1.098   2.160 -0.5142 -0.3363  0.2949
  921MOL0     C24252   4.593   1.797   1.907  0.5305  0.4944  0.1620
  921MOL0     C24253   4.722   1.787   1.966 -0.7567  0.3477 -0.7183
  921MOL0     C24254   5.078   1.795   2.187 -0.3628 -0.3693  0.4416
  921MOL0     C24255   5.165   1.891   2.125  0.2467  0.0520 -0.3086
  921MOL0     C24256   5.300   1.898   2.147 -0.6753 -1.0511 -0.5959
  921MOL0     C24257   5.356   1.809   2.237  0.3937  0.4988  0.4087
  921MOL0     O24258   5.492   1.817   2.254  0.7464  0.3207  0.6259
  921MOL0     C24259   5.571   1.747   2.347  1.1879 -0.5584  0.5765
  921MOL0     C24260   5.608   1.606   2.291  0.1259  0.8347 -0.1901
  921MOL0     C24261   5.681   1.531   2.406  0.6229  0.0710  0.8983
  921MOL0     C24262   5.610   1.408   2.463  0.1625 -0.0974 -0.1149
  921MOL0     C24263   5.481   1.440   2.509  0.7192  0.0891 -0.1767
  921MOL0     C24264   5.363   1.450   2.545 -0.5909  0.3778  0.3729
  921MOL0     C24265   5.269   1.715   2.306  0.1971  0.4450 -0.6092
  921MOL0     C24266   5.132   1.706   2.280  0.2305  0.0239 -1.0202
  921MOL0     C24267   5.058   1.595   2.349  0.2108 -0.5114  0.0462
  921MOL0     H24268   4.763   2.123   2.017  0.4390  0.2986 -0.4457
  921MOL0     H24269   4.538   2.131   1.916 -1.9364 -0.7760 -1.3865
  921MOL0     H24270   4.330   2.064   1.922 -1.5940 -2.1135  1.7116
  921MOL0     H24271   4.308   2.075   1.738 -0.6445 -0.7594 -0.4987
  921MOL0     H24272   4.163   1.900   1.725 -1.8618 -0.3695 -0.3359
  921MOL0     H24273   4.097   2.029   1.835 -1.2002 -1.1012 -0.6058
  921MOL0     H24274   4.032   1.877   1.969  1.3765  2.6926  2.2477
  921MOL0     H24275   4.198   1.882   2.028 -0.8914  1.3115 -0.7380
  921MOL0     H24276   4.088   1.693   1.812 -6.0358 -2.0351  3.4939
  921MOL0     H24277   4.255   1.694   1.874 -0.2220  2.6952 -2.2799
  921MOL0     H24278   4.164   1.623   2.096  0.1515 -4.0365  0.0654
  921MOL0     H24279   4.005   1.664   2.052  0.4306  0.9814 -1.0369
  921MOL0     H24280   4.005   1.458   1.903  1.6744 -1.8429 -0.7921
  921MOL0     H24281   4.172   1.424   1.929  0.9136 -0.9508  3.2239
  921MOL0     H24282   3.932   1.433   2.095  0.1561 -0.2724 -3.1539
  921MOL0     H24283   4.097   1.397   2.181 -0.3992  1.4010 -0.6421
  921MOL0     H24284   3.935   1.248   1.975  0.9223 -1.1003 -1.4718
  921MOL0     H24285   4.106   1.196   2.030  0.7563  0.5433 -1.8080
  921MOL0     H24286   4.108   1.196   2.328  0.5102 -0.9768  0.9039
  921MOL0     H24287   3.923   1.132   2.590 -1.9325  1.5029 -1.2475
  921MOL0     H24288   3.838   0.990   2.528  0.5496  0.4015  1.3951
  921MOL0     H24289   4.053   0.905   2.432 -3.9188 -0.3796 -0.7924
  921MOL0     H24290   4.138   1.041   2.488 -1.0564 -0.7853 -2.5055
  921MOL0     H24291   3.989   0.826   2.656 -0.7981  0.3987 -0.2756
  921MOL0     H24292   4.083   0.963   2.732 -1.0956 -2.2784  1.7790
  921MOL0     H24293   4.271   0.904   2.599  0.3022 -0.7318 -0.4652
  921MOL0     H24294   4.194   0.752   2.555 -1.3074  0.5573 -0.5133
  921MOL0     H24295   4.421   0.719   2.553 -2.9765 -0.6681  0.2544
  921MOL0     H24296   4.632   0.621   2.572 -0.3015  1.1825 -0.4664
  921MOL0     H24297   4.944   0.289   2.969  0.8448 -0.2840 -0.6269
  921MOL0     H24298   5.163   0.265   3.027  0.1540  0.0404 -1.5345
  921MOL0     H24299   5.458   0.547   2.898 -2.6895  3.7063 -0.5915
  921MOL0     H24300   5.433   0.668   3.019  3.5894  0.5200 -1.9413
  921MOL0     H24301   5.631   0.439   3.088 -0.8339  0.9461  1.5996
  921MOL0     H24302   5.662   0.587   2.991 -0.2498 -1.1411 -1.8522
  921MOL0     H24303   5.584   0.718   3.190  0.8326  0.5404 -2.9007
  921MOL0     H24304   5.573   0.570   3.273 -3.3879  4.6870  0.6267
  921MOL0     H24305   5.825   0.666   3.124  3.0116  0.4432  2.3467
  921MOL0     H24306   5.819   0.515   3.210  2.6996 -0.4864 -0.8228
  921MOL0     H24307   5.810   0.671   3.414 -0.7042  2.8569  1.3047
  921MOL0     H24308   5.772   0.810   3.321  2.5429  0.7715  2.0810
  921MOL0     H24309   6.029   0.648   3.268 -2.0211  0.2357 -0.1746
  921MOL0     H24310   6.005   0.815   3.213 -0.6404 -1.5377 -2.6718
  921MOL0     H24311   6.057   0.714   3.483 -0.2881  0.7539  0.3265
  921MOL0     H24312   5.964   0.858   3.482  0.0765 -1.4835  3.1741
  921MOL0     H24313   6.192   0.903   3.514 -0.7199 -1.8298  0.1841
  921MOL0     H24314   6.235   0.808   3.364 -0.0235 -2.1176  1.7034
  921MOL0     H24315   5.230   0.698   2.961  1.9025 -0.6919 -1.2470
  921MOL0     H24316   4.994   0.708   2.891  0.8187 -0.8828 -0.7471
  921MOL0     H24317   4.605   0.606   2.995  2.1652  2.2541 -0.6261
  921MOL0     H24318   4.365   0.674   2.982  2.3530 -0.6835  1.4393
  921MOL0     H24319   4.535   1.707   1.887 -4.4106  2.8334  2.1657
  921MOL0     H24320   4.759   1.686   1.979 -2.3820 -0.2604 -0.5454
  921MOL0     H24321   5.133   1.970   2.058 -2.1547  1.1627  1.9570
  921MOL0     H24322   5.363   1.975   2.104 -0.9155 -0.6633 -0.2606
  921MOL0     H24323   5.523   1.738   2.445  0.1533 -2.7653 -0.0763
  921MOL0     H24324   5.670   1.791   2.361  0.6332  0.5737  1.0969
  921MOL0     H24325   5.682   1.618   2.211 -2.6127 -0.4550 -3.1215
  921MOL0     H24326   5.520   1.554   2.253  1.2247  0.9642 -3.1640
  921MOL0     H24327   5.686   1.603   2.487  1.1701  0.6458  0.3650
  921MOL0     H24328   5.779   1.504   2.365  1.1441  4.7307 -1.5104
  921MOL0     H24329   5.602   1.326   2.391 -2.4541 -1.0455  1.1395
  921MOL0     H24330   5.668   1.378   2.550 -1.3768 -0.9514  0.6572
  921MOL0     H24331   5.257   1.455   2.562 -0.7212  0.8785 -0.5194
  921MOL0     H24332   5.311   1.648   2.381 -1.5821  1.1040  1.0513
  921MOL0     H24333   5.027   1.525   2.271 -0.9317  1.6060 -1.4869
  921MOL0     H24334   5.124   1.536   2.413 -1.8695 -2.3653  0.5904
  921MOL0     H24335   4.979   1.644   2.406  1.6002  2.4743 -0.3775
  922MOL0     O24336   7.589   3.212   0.607 -0.0912  0.2718  0.5891
  922MOL0     C24337   7.552   3.282   0.512 -0.9420 -0.2379 -0.3385
  922MOL0     O24338   7.600   3.282   0.383  0.1283 -0.5638  0.3992
  922MOL0     C24339   7.675   3.186   0.328 -0.5801  1.2432  0.2118
  922MOL0     C24340   7.694   3.189   0.184  0.4174  0.1007 -0.0696
  922MOL0     C24341   7.762   3.084   0.115 -0.3242 -0.1532  0.0995
  922MOL0     C24342   7.830   2.977   0.187  0.5116  0.8041 -0.0935
  922MOL0     O24343   7.878   2.870   0.123 -0.5938  0.4142 -0.1255
  922MOL0     C24344   8.016   2.840   0.143 -0.5877 -0.1103 -0.5418
  922MOL0     C24345   8.039   2.695   0.197  0.0512 -0.8840 -0.2580
  922MOL0     C24346   8.181   2.674   0.260  0.3816  0.8707 -0.0173
  922MOL0     C24347   8.268   2.643   0.149 -0.2458 -1.5468  0.7154
  922MOL0     C24348   8.402   2.616   0.206 -0.2000  0.2514 -0.0212
  922MOL0     C24349   8.476   2.716   0.305 -0.6384  0.0670 -0.2327
  922MOL0     C24350   8.463   2.867   0.278  0.0057 -0.3105  0.6809
  922MOL0     C24351   8.540   2.951   0.378  0.3327  0.3765  0.2595
  922MOL0     N24352   8.533   3.095   0.358  0.0002  0.4446  0.2116
  922MOL0     C24353   8.595   3.150   0.251  0.0564  0.4460 -0.1173
  922MOL0     C24354   8.596   3.282   0.280  0.4310 -0.2651 -0.3258
  922MOL0     C24355   8.648   3.395   0.202  0.4280  0.0563 -0.4609
  922MOL0     C24356   8.552   3.443   0.096 -0.7825  0.3861  1.1772
  922MOL0     C24357   8.405   3.464   0.146  0.7981  0.1107 -0.0370
  922MOL0     C24358   8.308   3.523   0.048 -0.9561 -0.5129  0.2534
  922MOL0     O24359   8.367   3.631  -0.010 -1.2139 -0.1984  0.0448
  922MOL0     C24360   8.289   3.740  -0.037 -0.1920 -0.1064 -0.4058
  922MOL0     C24361   8.157   3.720  -0.079  1.1841  0.1375  0.4133
  922MOL0     C24362   8.065   3.829  -0.099 -0.6820 -0.5676  0.3978
  922MOL0     C24363   8.104   3.966  -0.069 -0.8441  1.1488  0.2831
  922MOL0     C24364   8.024   4.080  -0.091 -0.2605 -0.0939 -0.8525
  922MOL0     O24365   8.086   4.197  -0.048  0.6261 -0.0667 -0.0825
  922MOL0     C24366   7.996   4.299  -0.029  0.2591 -0.7724  0.0497
  922MOL0     C24367   7.904   4.345  -0.126 -0.2259  0.1520  0.6964
  922MOL0     C24368   7.815   4.457  -0.107 -0.1334  0.5453 -0.5997
  922MOL0     C24369   7.818   4.513   0.023  0.6370 -0.2855 -0.6278
  922MOL0     O24370   7.720   4.607   0.053 -0.3728 -0.0763  0.1734
  922MOL0     C24371   7.748   4.698   0.156  0.0532  0.2212  1.1170
  922MOL0     C24372   7.692   4.836   0.110  0.0293 -0.5324 -0.2424
  922MOL0     C24373   7.656   4.929   0.226 -0.8187 -0.3569 -0.1249
  922MOL0     C24374   7.595   5.060   0.169  0.1558  0.0345  0.4256
  922MOL0     C24375   7.517   5.135   0.285  0.3823  0.2084  0.6301
  922MOL0     C24376   7.402   5.224   0.231 -0.1201 -1.4635  0.5673
  922MOL0     C24377   7.299   5.262   0.337  0.4855 -0.2097 -0.2882
  922MOL0     C24378   7.358   5.345   0.452  0.1259  0.5552 -1.2096
  922MOL0    Cl24379   7.280   5.282   0.613 -0.0957  0.3112 -0.1432
  922MOL0     C24380   7.912   4.471   0.123  0.0262 -0.0844 -0.1045
  922MOL0     C24381   8.000   4.368   0.098 -0.8032 -0.6947 -0.1720
  922MOL0     O24382   7.902   4.063  -0.121  0.5146 -0.3631  0.0174
  922MOL0     C24383   8.246   3.985  -0.034 -1.0069  0.1320 -0.6750
  922MOL0     C24384   8.337   3.871  -0.017  0.6812 -0.7784 -0.3797
  922MOL0     N24385   8.531   3.302   0.403 -0.4237 -0.6381  0.3633
  922MOL0     N24386   8.489   3.187   0.445  0.4521  0.2041  1.3448
  922MOL0     C24387   7.826   2.988   0.328 -0.5165 -0.1256  0.7657
  922MOL0     C24388   7.751   3.084   0.401 -0.8354 -0.1053  0.1485
  922MOL0     C24389   7.439   3.377   0.545  0.3251 -0.2114 -0.4569
  922MOL0     C24390   7.420   3.417   0.678 -0.6191 -1.2382 -0.3238
  922MOL0     C24391   7.306   3.495   0.716  0.7722  1.0179  0.0495
  922MOL0     C24392   7.208   3.543   0.626 -0.6775 -0.5843 -0.5375
  922MOL0     O24393   7.101   3.611   0.679  0.0111  0.1942 -0.1096
  922MOL0     C24394   6.996   3.639   0.586  0.3013 -0.1792 -0.0958
  922MOL0     C24395   6.893   3.680   0.687 -1.0418  0.5539  0.7610
  922MOL0     C24396   6.911   3.833   0.736  0.5211 -0.0266 -0.3568
  922MOL0     C24397   6.792   3.872   0.817 -0.2351  0.0526  0.6693
  922MOL0     C24398   6.780   3.787   0.940 -1.1947  0.3918 -0.0211
  922MOL0     C24399   6.756   3.735   1.046 -0.4621  0.1170 -0.4150
  922MOL0     C24400   7.247   3.528   0.491  0.0115  0.1034 -0.3078
  922MOL0     C24401   7.349   3.438   0.446  0.4067  0.0799  0.6454
  922MOL0     C24402   7.352   3.426   0.288  0.1779  0.4675 -0.1758
  922MOL0     H24403   7.648   3.270   0.127 -0.2580 -0.7872 -0.8158
  922MOL0     H24404   7.748   3.084   0.007  1.2207 -0.9742 -0.1204
  922MOL0     H24405   8.070   2.853   0.049 -0.2773 -0.5077 -0.4194
  922MOL0     H24406   8.054   2.908   0.220 -0.8177 -1.0526  0.4181
  922MOL0     H24407   8.027   2.619   0.119  0.4595 -0.4489 -0.7446
  922MOL0     H24408   7.978   2.667   0.284  0.4292  2.7884  1.3765
  922MOL0     H24409   8.183   2.579   0.314  0.6653  0.3630 -0.9015
  922MOL0     H24410   8.203   2.752   0.333  0.1760 -0.1629  1.1788
  922MOL0     H24411   8.230   2.562   0.086 -5.1872 -1.1616  2.7879
  922MOL0     H24412   8.285   2.722   0.075 -0.6165 -0.2278  2.0018
  922MOL0     H24413   8.388   2.526   0.267 -0.6031  1.4676  1.7283
  922MOL0     H24414   8.470   2.591   0.124  0.1004  2.6079 -0.5395
  922MOL0     H24415   8.440   2.700   0.407 -0.1728  2.0722  0.2802
  922MOL0     H24416   8.580   2.684   0.309 -0.7652 -0.1718  2.0955
  922MOL0     H24417   8.355   2.884   0.274  0.0355 -0.2158  0.1416
  922MOL0     H24418   8.492   2.873   0.172 -0.5767  1.6364  0.5856
  922MOL0     H24419   8.507   2.919   0.477  2.0381 -2.0470  0.1253
  922MOL0     H24420   8.641   2.912   0.364 -0.0539 -0.1276 -1.3767
  922MOL0     H24421   8.642   3.109   0.162 -3.3175 -0.2719 -1.7058
  922MOL0     H24422   8.673   3.467   0.280  3.5369 -1.7123  0.3260
  922MOL0     H24423   8.744   3.363   0.160  0.7276  0.1054  0.1722
  922MOL0     H24424   8.597   3.533   0.054  2.0686 -2.1362 -1.7744
  922MOL0     H24425   8.542   3.365   0.020  0.7083 -1.8408  3.1158
  922MOL0     H24426   8.409   3.526   0.236 -1.7493 -0.1334  0.3197
  922MOL0     H24427   8.343   3.379   0.177 -1.9899  1.4604 -1.5968
  922MOL0     H24428   8.213   3.540   0.098 -0.3905  2.3544  0.5025
  922MOL0     H24429   8.285   3.453  -0.033 -3.6002 -1.0929  1.4084
  922MOL0     H24430   8.121   3.621  -0.105  1.1449  0.4221 -0.6502
  922MOL0     H24431   7.964   3.800  -0.123  0.3050 -4.0150 -0.1825
  922MOL0     H24432   7.895   4.299  -0.223 -0.4224 -2.6854  1.9476
  922MOL0     H24433   7.732   4.485  -0.170 -4.6958 -4.3872  2.4192
  922MOL0     H24434   7.711   4.659   0.252 -0.9249 -2.4052 -0.2459
  922MOL0     H24435   7.856   4.712   0.165 -0.0430  3.3591 -0.8931
  922MOL0     H24436   7.755   4.897   0.044 -3.8478  0.8853 -3.0565
  922MOL0     H24437   7.594   4.823   0.063 -1.1819 -1.5830  2.3878
  922MOL0     H24438   7.580   4.886   0.292 -1.0100  1.1499  0.6763
  922MOL0     H24439   7.746   4.965   0.276  0.2134 -0.5695 -1.7550
  922MOL0     H24440   7.522   5.032   0.092 -0.7212 -3.8359  2.3961
  922MOL0     H24441   7.669   5.120   0.115  1.1838  0.3219  2.0936
  922MOL0     H24442   7.584   5.198   0.344  1.5177  0.8728 -1.2865
  922MOL0     H24443   7.468   5.057   0.345 -0.2662 -0.5931 -0.8808
  922MOL0     H24444   7.451   5.315   0.195 -1.0429 -0.3177  2.0888
  922MOL0     H24445   7.343   5.184   0.147 -1.2504 -0.4446  0.8432
  922MOL0     H24446   7.247   5.174   0.376 -1.6272  0.7394 -0.8193
  922MOL0     H24447   7.221   5.317   0.283  1.0215 -0.8002 -1.7250
  922MOL0     H24448   7.464   5.329   0.473 -0.1439  1.2535  0.9375
  922MOL0     H24449   7.342   5.452   0.442  1.5848  0.7257 -1.9177
  922MOL0     H24450   7.916   4.500   0.227 -4.0409 -0.9148  0.4368
  922MOL0     H24451   8.077   4.342   0.170  0.8930  2.7559 -0.5282
  922MOL0     H24452   8.287   4.085  -0.021  0.2052 -0.1712 -1.9359
  922MOL0     H24453   8.443   3.889   0.001  1.7491 -3.3130 -3.2931
  922MOL0     H24454   7.885   2.917   0.386 -0.4109  0.3983  1.3020
  922MOL0     H24455   7.765   3.081   0.509  3.0193 -1.5299 -0.2497
  922MOL0     H24456   7.485   3.382   0.758  2.4539  3.7794 -0.1600
  922MOL0     H24457   7.287   3.505   0.823 -3.9546 -1.5519 -0.2844
  922MOL0     H24458   6.978   3.553   0.520  1.5922  1.4543 -2.7571
  922MOL0     H24459   7.036   3.720   0.525 -1.8413  0.9600 -0.0746
  922MOL0     H24460   6.894   3.617   0.776  2.8959  1.5721  1.6247
  922MOL0     H24461   6.793   3.678   0.642 -0.6092 -1.2272 -0.1979
  922MOL0     H24462   6.924   3.896   0.648  4.7575 -0.5613 -0.3091
  922MOL0     H24463   7.002   3.846   0.795 -0.3532  4.5117  0.3576
  922MOL0     H24464   6.807   3.978   0.838 -0.7278  0.2337  0.1339
  922MOL0     H24465   6.700   3.868   0.757  0.1402  2.1292 -0.1565
  922MOL0     H24466   6.734   3.696   1.144  0.8960  2.7468  1.0563
  922MOL0     H24467   7.171   3.564   0.423 -2.2439  0.7174  2.3410
  922MOL0     H24468   7.439   3.484   0.255 -1.5459  2.9899 -0.5597
  922MOL0     H24469   7.352   3.320   0.263  0.4875  0.2648  0.6425
  922MOL0     H24470   7.263   3.458   0.233  1.7415  2.2151 -1.8563
  923MOL0     O24471  10.592   0.153   7.384  0.2138  0.4746  0.3641
  923MOL0     C24472  10.695   0.089   7.401  0.2014 -0.5062 -0.2434
  923MOL0     O24473  10.709  -0.022   7.482 -0.3635 -0.8548  0.3049
  923MOL0     C24474  10.626  -0.038   7.594  0.0812  0.5200 -0.5387
  923MOL0     C24475  10.647   0.019   7.730  0.3592  1.2974  0.0824
  923MOL0     C24476  10.577  -0.031   7.839 -0.4916 -0.5469  0.5678
  923MOL0     C24477  10.492  -0.139   7.824 -0.1258  0.0983  0.2751
  923MOL0     O24478  10.409  -0.201   7.921 -0.0283  0.4240  0.7915
  923MOL0     C24479  10.419  -0.147   8.056 -0.4823  0.3968 -0.4329
  923MOL0     C24480  10.535  -0.205   8.140  0.4303 -0.4515  1.0660
  923MOL0     C24481  10.536  -0.129   8.268  0.0179 -0.1791  0.5360
  923MOL0     C24482  10.648  -0.185   8.355 -0.2847  0.5091  0.7528
  923MOL0     C24483  10.626  -0.130   8.497  0.3826  0.8619 -0.3163
  923MOL0     C24484  10.695  -0.214   8.597 -0.9310  0.0396  0.2737
  923MOL0     C24485  10.646  -0.204   8.746 -0.6898 -0.0531 -0.6971
  923MOL0     C24486  10.495  -0.233   8.781  0.6640 -0.8173  0.2791
  923MOL0     N24487  10.449  -0.371   8.737 -0.1704  0.5016 -0.9033
  923MOL0     C24488  10.509  -0.488   8.770 -0.7235 -0.3065 -0.6319
  923MOL0     C24489  10.472  -0.581   8.679 -1.0257 -1.2132 -0.4929
  923MOL0     C24490  10.512  -0.723   8.675  0.0013  0.5989  0.4285
  923MOL0     C24491  10.602  -0.757   8.548 -0.1683 -0.4478  0.7060
  923MOL0     C24492  10.756  -0.731   8.565 -0.8655  1.2805  0.0851
  923MOL0     C24493  10.809  -0.596   8.514  0.7354  0.1077  0.2349
  923MOL0     O24494  10.789  -0.620   8.377  0.5822  0.0621 -0.3578
  923MOL0     C24495  10.843  -0.531   8.290 -0.6273 -0.6126  0.1690
  923MOL0     C24496  10.775  -0.492   8.177  0.2220  1.5201 -0.9998
  923MOL0     C24497  10.839  -0.421   8.072 -0.3485  0.4833 -0.8602
  923MOL0     C24498  10.964  -0.359   8.092 -0.7671 -0.5321  0.2137
  923MOL0     C24499  11.027  -0.263   7.992 -0.3219  0.8753  0.1538
  923MOL0     O24500  11.145  -0.212   8.043 -0.5710  0.9200 -0.4905
  923MOL0     C24501  11.246  -0.155   7.969  0.0967 -0.1811  0.9394
  923MOL0     C24502  11.323  -0.075   8.054 -0.5168  0.5703 -0.9232
  923MOL0     C24503  11.432  -0.006   7.997  0.4586 -0.3289  0.6615
  923MOL0     C24504  11.468  -0.008   7.860  0.1805 -1.0783 -0.2748
  923MOL0     O24505  11.586   0.052   7.829 -0.3185  0.0632 -0.2994
  923MOL0     C24506  11.673   0.013   7.716 -0.1829  0.0095 -0.6702
  923MOL0     C24507  11.794   0.111   7.740 -0.5581  0.2109 -0.1623
  923MOL0     C24508  11.759   0.246   7.678 -0.4472  0.2763  0.1425
  923MOL0     C24509  11.862   0.351   7.721 -0.1666  0.0538  0.6151
  923MOL0     C24510  11.828   0.479   7.644 -0.0954 -0.3320  0.1625
  923MOL0     C24511  11.940   0.596   7.637  0.4248  0.5840 -0.4857
  923MOL0     C24512  12.019   0.610   7.774  0.0773 -0.2348  0.0210
  923MOL0     C24513  12.169   0.666   7.749  0.2015  0.1570  1.0834
  923MOL0    Cl24514  12.177   0.810   7.650  0.2692  0.6578  0.0829
  923MOL0     C24515  11.389  -0.087   7.771 -0.2590 -1.1689 -0.6188
  923MOL0     C24516  11.272  -0.164   7.828 -0.1541  0.5820  0.7801
  923MOL0     O24517  10.976  -0.239   7.882 -0.6606  0.0630 -0.3997
  923MOL0     C24518  11.027  -0.386   8.214 -0.4492  0.1593 -0.3536
  923MOL0     C24519  10.972  -0.475   8.304 -0.2491  0.3010 -0.7684
  923MOL0     N24520  10.390  -0.519   8.587  0.1366 -0.0340  0.8766
  923MOL0     N24521  10.377  -0.396   8.623 -0.2510  0.2103 -0.2430
  923MOL0     C24522  10.476  -0.202   7.701  0.0712  0.1931  0.3974
  923MOL0     C24523  10.534  -0.147   7.590 -1.2504  0.9033 -0.0595
  923MOL0     C24524  10.811   0.123   7.319 -0.2173  0.0243  0.3300
  923MOL0     C24525  10.890   0.020   7.256 -0.8243  0.8781 -0.0298
  923MOL0     C24526  11.000   0.052   7.174 -0.0007  0.3942  0.6774
  923MOL0     C24527  11.038   0.183   7.154  0.0916  0.2743  0.9813
  923MOL0     O24528  11.137   0.214   7.063  0.0280  0.2575  0.0373
  923MOL0     C24529  11.095   0.284   6.947  0.1420  0.3171 -0.2233
  923MOL0     C24530  11.087   0.191   6.830  0.0994  0.3611  0.2901
  923MOL0     C24531  11.229   0.144   6.792  0.4137  0.1789  0.2432
  923MOL0     C24532  11.224   0.047   6.669 -0.5459  0.0039  0.2620
  923MOL0     C24533  11.159   0.121   6.557  0.5079  0.1123 -0.6984
  923MOL0     C24534  11.135   0.174   6.454  0.4200  0.3373 -1.0629
  923MOL0     C24535  10.963   0.289   7.214 -0.4791 -0.3599 -0.6042
  923MOL0     C24536  10.857   0.262   7.299 -0.0948  0.7423 -0.6881
  923MOL0     C24537  10.796   0.382   7.370  0.1201 -0.1975  1.0919
  923MOL0     H24538  10.729   0.087   7.752  1.0179  0.3048  0.7571
  923MOL0     H24539  10.607   0.023   7.928  2.0995 -0.0839 -0.5121
  923MOL0     H24540  10.409  -0.038   8.053 -0.7296  0.3835 -0.1082
  923MOL0     H24541  10.328  -0.173   8.111 -0.7913  1.4284 -0.4489
  923MOL0     H24542  10.632  -0.187   8.092 -0.0618  3.1256  1.1863
  923MOL0     H24543  10.509  -0.311   8.149  0.8254 -0.9655 -2.4772
  923MOL0     H24544  10.436  -0.133   8.312  0.1549  0.2652  0.8907
  923MOL0     H24545  10.555  -0.022   8.255 -0.6517 -0.1078  0.0954
  923MOL0     H24546  10.644  -0.294   8.358 -0.3269  0.5296  3.4622
  923MOL0     H24547  10.746  -0.158   8.313  0.3628 -2.1994  0.3498
  923MOL0     H24548  10.653  -0.024   8.504 -0.7955  1.0834  1.7127
  923MOL0     H24549  10.521  -0.130   8.530  0.8574  0.4711  1.2900
  923MOL0     H24550  10.688  -0.321   8.572 -0.4998  0.0639  0.0457
  923MOL0     H24551  10.803  -0.196   8.603 -0.8192 -0.6699  0.6199
  923MOL0     H24552  10.657  -0.099   8.773  1.1526 -0.3946  0.0343
  923MOL0     H24553  10.700  -0.269   8.815 -2.8529 -2.2453 -0.9139
  923MOL0     H24554  10.488  -0.226   8.890 -0.1456 -0.8526  0.2376
  923MOL0     H24555  10.430  -0.155   8.739 -0.4040 -2.8249 -2.0337
  923MOL0     H24556  10.567  -0.498   8.861 -2.5144 -0.1618  0.5986
  923MOL0     H24557  10.575  -0.756   8.758  0.7608 -3.1690 -1.4005
  923MOL0     H24558  10.434  -0.800   8.675  0.6112 -0.0301  0.4715
  923MOL0     H24559  10.587  -0.863   8.523 -0.4758  0.3117 -2.7280
  923MOL0     H24560  10.565  -0.701   8.462  0.6090 -1.1458 -0.1006
  923MOL0     H24561  10.801  -0.815   8.512 -2.1061 -0.1804  1.2465
  923MOL0     H24562  10.767  -0.737   8.673 -1.8784  1.5731  0.2216
  923MOL0     H24563  10.914  -0.573   8.533  0.9818 -0.1492 -0.7425
  923MOL0     H24564  10.742  -0.514   8.542  0.1992  0.5074 -1.9849
  923MOL0     H24565  10.670  -0.521   8.174  0.2153  1.1503  1.1195
  923MOL0     H24566  10.786  -0.399   7.979  0.9624  2.4006 -1.1965
  923MOL0     H24567  11.304  -0.061   8.160 -2.2795 -0.5212 -1.0523
  923MOL0     H24568  11.491   0.057   8.063  0.8138  1.0145 -0.8658
  923MOL0     H24569  11.701  -0.093   7.724  0.8281  0.2024 -1.5196
  923MOL0     H24570  11.627   0.018   7.617 -0.3202 -4.2288 -1.0287
  923MOL0     H24571  11.811   0.111   7.848 -3.3735  1.6317  0.3627
  923MOL0     H24572  11.885   0.080   7.689 -0.0714  3.3082 -1.3872
  923MOL0     H24573  11.742   0.234   7.571  0.3690  2.6379 -0.3089
  923MOL0     H24574  11.659   0.271   7.716 -0.7202 -2.1350  1.1412
  923MOL0     H24575  11.962   0.316   7.697  0.4601  0.8397  1.9157
  923MOL0     H24576  11.863   0.374   7.828  5.2228 -1.8896  1.2632
  923MOL0     H24577  11.732   0.517   7.678  0.2026  1.7173 -1.1168
  923MOL0     H24578  11.815   0.456   7.538  0.6935  3.5832 -0.9188
  923MOL0     H24579  12.004   0.559   7.556  0.1361 -1.2537  0.0649
  923MOL0     H24580  11.895   0.694   7.618  0.4427  0.2955 -2.1903
  923MOL0     H24581  12.051   0.518   7.823 -1.9820  0.1249  2.2119
  923MOL0     H24582  11.970   0.678   7.844 -1.5502 -2.5179  1.1950
  923MOL0     H24583  12.217   0.677   7.846  1.2103 -2.3677  0.9470
  923MOL0     H24584  12.228   0.592   7.694 -0.4358  0.3993  0.0503
  923MOL0     H24585  11.408  -0.079   7.665  0.5205 -1.0159 -0.4777
  923MOL0     H24586  11.210  -0.216   7.756  0.4296 -0.0771  0.7446
  923MOL0     H24587  11.121  -0.341   8.245 -0.7560  0.5704 -0.0256
  923MOL0     H24588  11.035  -0.503   8.388 -2.0373  0.2123  0.6279
  923MOL0     H24589  10.419  -0.293   7.687 -0.2928  0.4836 -0.0387
  923MOL0     H24590  10.528  -0.190   7.491 -0.9048  0.2532  0.1953
  923MOL0     H24591  10.856  -0.083   7.255  1.2026  0.1571 -0.7087
  923MOL0     H24592  11.052  -0.027   7.119 -0.6166 -0.2341  0.9798
  923MOL0     H24593  11.163   0.369   6.936  0.3941  0.5100  2.2847
  923MOL0     H24594  10.997   0.331   6.959  0.3277  0.8511 -0.7457
  923MOL0     H24595  11.041   0.250   6.751 -2.4486  0.9581  2.0924
  923MOL0     H24596  11.025   0.105   6.857 -0.6390  1.4099  2.1233
  923MOL0     H24597  11.257   0.080   6.877 -1.2415 -1.8428 -0.6530
  923MOL0     H24598  11.290   0.234   6.780  1.7905 -0.7350  0.1954
  923MOL0     H24599  11.322   0.030   6.625 -0.3726  1.7476 -0.0919
  923MOL0     H24600  11.171  -0.048   6.681  0.2026 -0.6107 -1.0344
  923MOL0     H24601  11.109   0.239   6.373  1.1878  1.8902 -0.1024
  923MOL0     H24602  11.003   0.388   7.194 -1.6356  0.0198 -1.1584
  923MOL0     H24603  10.690   0.396   7.345  0.6646  2.4447 -0.0981
  923MOL0     H24604  10.804   0.361   7.477 -0.9803 -4.2259  0.5403
  923MOL0     H24605  10.846   0.474   7.339 -1.4149 -0.5807 -3.3820
  924MOL0     O24606   1.682   6.940   9.292 -0.0951  0.5186  0.2188
  924MOL0     C24607   1.739   6.879   9.386 -0.2338 -0.7210 -0.2195
  924MOL0     O24608   1.678   6.793   9.475 -1.0650 -0.3857  0.0928
  924MOL0     C24609   1.543   6.767   9.458  0.4968  0.5546 -0.2010
  924MOL0     C24610   1.497   6.630   9.445 -0.2311 -0.3941  0.5297
  924MOL0     C24611   1.360   6.604   9.437 -0.5190  0.4208 -0.2554
  924MOL0     C24612   1.265   6.702   9.423 -0.7552  0.5111  0.1026
  924MOL0     O24613   1.128   6.676   9.407  1.0530  0.0514 -0.3823
  924MOL0     C24614   1.077   6.557   9.344 -0.3774  0.6479 -0.4962
  924MOL0     C24615   1.020   6.454   9.455  0.1381 -0.2655 -0.5805
  924MOL0     C24616   0.908   6.504   9.540  0.9959  0.4107  0.2175
  924MOL0     C24617   0.794   6.562   9.454 -0.0300 -0.2527 -0.1180
  924MOL0     C24618   0.655   6.554   9.530  0.6685  0.1242 -0.8908
  924MOL0     C24619   0.607   6.695   9.565 -0.7464 -0.8237  0.1228
  924MOL0     C24620   0.613   6.712   9.726 -0.0513 -0.1193  0.8676
  924MOL0     C24621   0.554   6.847   9.760  0.0827 -0.6559 -0.7040
  924MOL0     N24622   0.579   6.866   9.907  0.4757 -0.4780  0.2658
  924MOL0     C24623   0.703   6.878   9.964  0.3237 -0.6811  0.7546
  924MOL0     C24624   0.678   6.888  10.098 -0.9122 -0.6419  0.8537
  924MOL0     C24625   0.779   6.925  10.203  0.3587 -0.2656 -0.1945
  924MOL0     C24626   0.833   6.793  10.265  1.2752 -0.1365  0.0969
  924MOL0     C24627   0.960   6.830  10.339  0.5949 -0.8141 -0.3202
  924MOL0     C24628   1.005   6.730  10.446 -0.0443 -0.0764  0.4675
  924MOL0     O24629   0.889   6.696  10.542  0.1432 -0.6318 -0.1841
  924MOL0     C24630   0.918   6.707  10.679 -0.1415 -0.1769  0.6976
  924MOL0     C24631   0.871   6.607  10.761 -0.1851  0.0690  0.1267
  924MOL0     C24632   0.880   6.610  10.904  0.9202  0.4415  0.8305
  924MOL0     C24633   0.953   6.717  10.968 -0.5282  0.6445  0.1444
  924MOL0     C24634   0.992   6.720  11.113 -0.0183 -0.3947  0.6236
  924MOL0     O24635   1.045   6.834  11.165  0.6822 -0.0251  0.5171
  924MOL0     C24636   1.085   6.832  11.293 -0.6763  0.2761  0.7298
  924MOL0     C24637   1.018   6.905  11.392  0.3467 -0.1283  0.3738
  924MOL0     C24638   1.055   6.891  11.526 -0.6964 -1.0215  0.4252
  924MOL0     C24639   1.152   6.803  11.571 -0.2226 -0.2810  0.0993
  924MOL0     O24640   1.201   6.775  11.699 -0.2455  0.9346  0.1686
  924MOL0     C24641   1.153   6.853  11.815  0.5594  0.3928  0.4387
  924MOL0     C24642   1.238   6.801  11.933  0.5245 -0.1124 -0.2061
  924MOL0     C24643   1.200   6.854  12.077  0.1125 -0.2097 -0.1892
  924MOL0     C24644   1.288   6.803  12.189 -1.1172  0.0565 -0.3281
  924MOL0     C24645   1.283   6.894  12.316  0.5158 -0.5868 -0.0181
  924MOL0     C24646   1.375   7.022  12.327 -0.7382 -0.2317 -0.0395
  924MOL0     C24647   1.297   7.147  12.359 -0.2106  0.4674 -0.4680
  924MOL0     C24648   1.380   7.268  12.398 -0.0694  0.6698 -0.1094
  924MOL0    Cl24649   1.254   7.394  12.398 -0.1055  0.0642  0.1286
  924MOL0     C24650   1.208   6.727  11.468 -0.2034  0.5660 -0.4787
  924MOL0     C24651   1.183   6.741  11.333  0.1561  0.5074  0.0949
  924MOL0     O24652   0.983   6.614  11.173 -0.3309  0.3089 -0.1357
  924MOL0     C24653   1.013   6.811  10.881 -1.3154  0.4095  0.6673
  924MOL0     C24654   1.001   6.803  10.743  0.1920  0.1825  0.0683
  924MOL0     N24655   0.554   6.846  10.118  0.3981  0.5960  0.3917
  924MOL0     N24656   0.498   6.834  10.008  0.2113 -0.3743 -0.1564
  924MOL0     C24657   1.304   6.830   9.422  0.2355 -0.6267  0.2386
  924MOL0     C24658   1.442   6.864   9.436  0.3761 -0.6894 -0.2850
  924MOL0     C24659   1.888   6.891   9.393 -0.3226  0.4938 -0.8500
  924MOL0     C24660   1.951   6.799   9.484  0.1441 -0.3104  0.5013
  924MOL0     C24661   2.089   6.807   9.501  0.6068 -0.9201 -0.0787
  924MOL0     C24662   2.165   6.907   9.438  0.0246  0.3822 -0.1504
  924MOL0     O24663   2.304   6.910   9.462  0.9948 -1.0937  0.5196
  924MOL0     C24664   2.372   6.796   9.501  0.3117  0.7558 -0.5904
  924MOL0     C24665   2.397   6.808   9.655 -0.7580 -0.3915 -0.3728
  924MOL0     C24666   2.397   6.685   9.749 -0.7192  0.0805  0.5559
  924MOL0     C24667   2.496   6.579   9.707 -0.5127  0.8633 -0.4594
  924MOL0     C24668   2.634   6.624   9.721 -0.4631  0.6037  0.8937
  924MOL0     C24669   2.753   6.655   9.746  1.0114 -0.3778  0.7756
  924MOL0     C24670   2.106   7.001   9.357 -0.9517  0.0554  0.2784
  924MOL0     C24671   1.970   6.999   9.327  0.4461 -0.2020  0.3475
  924MOL0     C24672   1.905   7.118   9.249 -1.2288 -0.3968 -0.5003
  924MOL0     H24673   1.576   6.558   9.458 -0.0084 -0.8398 -2.5914
  924MOL0     H24674   1.329   6.507   9.474 -0.8830  0.7590  0.3663
  924MOL0     H24675   0.991   6.577   9.278 -1.0011 -1.6368 -0.4460
  924MOL0     H24676   1.151   6.504   9.284  0.2696  0.6245  0.3222
  924MOL0     H24677   1.110   6.433   9.513 -0.0094  2.3046  0.7371
  924MOL0     H24678   1.002   6.364   9.395  0.3016 -0.5132 -0.2552
  924MOL0     H24679   0.950   6.575   9.613  3.2690  0.2910 -0.9192
  924MOL0     H24680   0.869   6.428   9.608  1.0063 -1.0267 -1.3432
  924MOL0     H24681   0.814   6.656   9.402 -2.6522 -0.3155 -1.3732
  924MOL0     H24682   0.784   6.489   9.374  0.2437 -1.0677  0.5758
  924MOL0     H24683   0.585   6.506   9.461 -0.6270 -2.2835  1.8731
  924MOL0     H24684   0.657   6.495   9.622  1.0222  0.6209 -0.5685
  924MOL0     H24685   0.664   6.775   9.517 -2.0564 -2.0451 -3.8073
  924MOL0     H24686   0.502   6.701   9.534 -0.5555  1.0382 -0.2971
  924MOL0     H24687   0.717   6.701   9.760  0.0467  0.3221  0.7175
  924MOL0     H24688   0.557   6.628   9.768 -1.3081 -0.6182 -1.6446
  924MOL0     H24689   0.605   6.930   9.710 -1.0351  2.1179  2.4186
  924MOL0     H24690   0.450   6.850   9.728 -0.6204 -1.3074  1.3913
  924MOL0     H24691   0.793   6.893   9.904 -0.5640 -1.2448 -0.7696
  924MOL0     H24692   0.868   6.964  10.153  1.2522  1.3102  2.4426
  924MOL0     H24693   0.716   6.992  10.261 -0.8688  0.4272 -2.2096
  924MOL0     H24694   0.772   6.752  10.347  1.2820  1.9468  1.2105
  924MOL0     H24695   0.835   6.718  10.185  0.1263  2.5344 -2.6234
  924MOL0     H24696   0.955   6.923  10.397  0.0817 -0.4482 -0.9295
  924MOL0     H24697   1.046   6.836  10.272  1.8885  0.1931  1.3453
  924MOL0     H24698   1.086   6.766  10.509 -1.7114  1.7883  1.6998
  924MOL0     H24699   1.047   6.647  10.390 -1.1583 -0.8095  0.6690
  924MOL0     H24700   0.800   6.537  10.717 -1.3055  0.3379  1.4290
  924MOL0     H24701   0.824   6.548  10.973 -0.6929  2.5607  1.5468
  924MOL0     H24702   0.932   6.970  11.379 -0.5311 -0.9971  1.5950
  924MOL0     H24703   1.010   6.939  11.612 -2.0370 -0.7745 -0.3915
  924MOL0     H24704   1.167   6.961  11.822 -0.4187  0.6519 -1.2413
  924MOL0     H24705   1.052   6.822  11.844 -0.0228 -0.3168 -2.1343
  924MOL0     H24706   1.219   6.694  11.929 -2.4093  0.3406 -0.2896
  924MOL0     H24707   1.336   6.833  11.896  0.4934 -1.3838 -1.4670
  924MOL0     H24708   1.209   6.963  12.075 -2.6363  0.0852 -0.6016
  924MOL0     H24709   1.097   6.822  12.095  0.1362 -2.4443 -3.1168
  924MOL0     H24710   1.393   6.812  12.160 -1.2048  0.8578 -0.4331
  924MOL0     H24711   1.261   6.698  12.203 -1.8839  0.2532 -0.2706
  924MOL0     H24712   1.306   6.820  12.394  0.1145 -0.7783 -0.0782
  924MOL0     H24713   1.178   6.918  12.331  0.6256 -0.8501  1.3551
  924MOL0     H24714   1.444   7.004  12.409  0.7520 -0.5107 -1.3217
  924MOL0     H24715   1.432   7.046  12.238 -0.9938  2.4442  0.4466
  924MOL0     H24716   1.228   7.119  12.439  0.8180 -1.2823 -0.1445
  924MOL0     H24717   1.256   7.186  12.265  0.5544  4.3590  0.6408
  924MOL0     H24718   1.411   7.254  12.503 -2.2982  1.7738  0.7492
  924MOL0     H24719   1.468   7.291  12.338  0.0862 -0.6343 -0.4237
  924MOL0     H24720   1.280   6.652  11.497 -1.1328 -0.2106 -0.1277
  924MOL0     H24721   1.219   6.678  11.252  2.0876  0.3769  1.0020
  924MOL0     H24722   1.068   6.896  10.920 -1.1843  0.4360  0.4311
  924MOL0     H24723   1.069   6.872  10.693  0.5025 -0.0231  0.2040
  924MOL0     H24724   1.229   6.901   9.389  2.0616  1.2578 -0.0130
  924MOL0     H24725   1.451   6.972   9.432 -1.7210 -0.4367  0.6300
  924MOL0     H24726   1.886   6.734   9.542 -0.3606 -0.1389  0.1358
  924MOL0     H24727   2.132   6.749   9.581  1.8151 -0.9629 -0.7352
  924MOL0     H24728   2.474   6.790   9.461  0.7788  1.1748  0.4807
  924MOL0     H24729   2.318   6.704   9.481  1.1836  0.1758 -0.3241
  924MOL0     H24730   2.324   6.880   9.693  2.1519  1.5054  2.0351
  924MOL0     H24731   2.499   6.841   9.675  1.5977 -4.3094 -4.1988
  924MOL0     H24732   2.299   6.637   9.737  0.8520 -2.9042 -1.8015
  924MOL0     H24733   2.420   6.716   9.851 -1.1834 -2.3064  1.4473
  924MOL0     H24734   2.484   6.488   9.766  0.8942  0.6592 -0.4713
  924MOL0     H24735   2.499   6.565   9.599  2.0432  0.2652 -0.3728
  924MOL0     H24736   2.851   6.698   9.746  1.2152 -0.8374 -0.2521
  924MOL0     H24737   2.168   7.075   9.306  1.4051 -0.6931  1.8626
  924MOL0     H24738   1.981   7.194   9.232  0.2741 -1.3240  1.5573
  924MOL0     H24739   1.884   7.076   9.151 -0.2644 -1.1876 -0.3834
  924MOL0     H24740   1.825   7.170   9.303 -1.8580 -0.3964 -1.4139
  925MOL0     O24741   2.496   0.291   5.187 -0.3790 -0.2952 -0.3152
  925MOL0     C24742   2.378   0.335   5.174  0.4464 -1.0939  0.4941
  925MOL0     O24743   2.319   0.363   5.057 -0.7514  0.0842 -0.8738
  925MOL0     C24744   2.395   0.357   4.939  0.4137 -0.5984 -1.0561
  925MOL0     C24745   2.324   0.327   4.827 -0.5350  0.3668 -0.3534
  925MOL0     C24746   2.372   0.345   4.698  0.1037  0.1740 -0.7770
  925MOL0     C24747   2.490   0.404   4.683  0.5008  1.0544  0.7572
  925MOL0     O24748   2.540   0.414   4.552 -0.2123  0.4906 -0.6799
  925MOL0     C24749   2.623   0.532   4.533 -0.4555  0.7563  0.1155
  925MOL0     C24750   2.636   0.564   4.378 -0.9646  0.1056  0.6366
  925MOL0     C24751   2.725   0.694   4.346 -0.1745 -0.6053  0.3601
  925MOL0     C24752   2.630   0.809   4.384  0.7666  0.2949  1.4123
  925MOL0     C24753   2.530   0.857   4.274 -0.1605  0.8299  0.5133
  925MOL0     C24754   2.459   0.991   4.299 -0.1078 -0.9844 -0.9958
  925MOL0     C24755   2.349   1.033   4.195 -1.5883 -0.1267  0.9382
  925MOL0     C24756   2.282   1.165   4.228 -0.0724  0.5846 -0.1623
  925MOL0     N24757   2.161   1.140   4.312  0.4812 -0.2209  0.7710
  925MOL0     C24758   2.141   1.172   4.448  0.2130 -0.1748 -0.1816
  925MOL0     C24759   2.019   1.129   4.482 -0.0518  0.4008 -0.0176
  925MOL0     C24760   1.952   1.141   4.619  0.2447 -0.0536 -0.5340
  925MOL0     C24761   1.818   1.222   4.637 -1.0485  0.1623  0.1109
  925MOL0     C24762   1.832   1.375   4.650  0.3256  0.0686  0.2926
  925MOL0     C24763   1.708   1.432   4.720 -0.5216 -0.1200 -0.0104
  925MOL0     O24764   1.599   1.414   4.629 -0.3208  1.0676  0.2351
  925MOL0     C24765   1.490   1.495   4.653 -0.1185 -0.0665  0.4724
  925MOL0     C24766   1.444   1.541   4.766  0.1137 -0.2390 -0.8967
  925MOL0     C24767   1.334   1.634   4.769  0.0222 -0.0897 -0.1453
  925MOL0     C24768   1.265   1.670   4.651  1.3368  0.2258 -1.1432
  925MOL0     C24769   1.143   1.767   4.657  0.2283  0.6366  0.4965
  925MOL0     O24770   1.096   1.792   4.777 -1.1207 -0.7002 -0.3241
  925MOL0     C24771   1.003   1.898   4.813 -0.8965 -0.5394  0.4883
  925MOL0     C24772   1.018   1.959   4.935 -0.5839 -0.4011 -0.2694
  925MOL0     C24773   0.935   2.062   4.982  1.0983 -0.3937 -0.0303
  925MOL0     C24774   0.832   2.117   4.887 -0.3979 -0.8454 -0.5450
  925MOL0     O24775   0.756   2.229   4.920 -0.4677  0.6202  0.2156
  925MOL0     C24776   0.694   2.243   5.054  0.2868  0.0693  0.1086
  925MOL0     C24777   0.553   2.177   5.077  0.6958 -0.3539 -0.0157
  925MOL0     C24778   0.555   2.035   5.125 -0.6356 -0.1995 -0.7101
  925MOL0     C24779   0.419   1.983   5.151 -0.1911 -0.3883 -0.4266
  925MOL0     C24780   0.410   1.843   5.228  0.2557 -0.1339  0.3995
  925MOL0     C24781   0.480   1.720   5.162 -0.6220 -0.2347 -0.0878
  925MOL0     C24782   0.431   1.695   5.021 -0.0830  0.3005 -1.0017
  925MOL0     C24783   0.287   1.666   5.013  0.0762 -0.5693 -0.5309
  925MOL0    Cl24784   0.244   1.495   5.062  0.3970  0.3071  0.0605
  925MOL0     C24785   0.823   2.065   4.759  0.2399  0.8450  0.6811
  925MOL0     C24786   0.903   1.954   4.721  0.7190  0.3963 -0.8689
  925MOL0     O24787   1.091   1.803   4.548 -0.1056 -0.2616 -0.4053
  925MOL0     C24788   1.319   1.617   4.530 -0.0792 -0.0624  0.3649
  925MOL0     C24789   1.428   1.541   4.539 -0.7858 -0.0056 -0.4981
  925MOL0     N24790   1.960   1.072   4.368  1.3894 -1.0816 -0.2547
  925MOL0     N24791   2.044   1.084   4.271 -0.2864  0.7142 -0.2964
  925MOL0     C24792   2.570   0.434   4.791  0.0738  0.9029 -0.8740
  925MOL0     C24793   2.524   0.403   4.918  0.0197 -0.5132  0.1847
  925MOL0     C24794   2.310   0.383   5.303 -1.1613 -0.0468 -0.6582
  925MOL0     C24795   2.392   0.410   5.414 -0.2810 -0.0093  1.2932
  925MOL0     C24796   2.334   0.470   5.527 -0.5907 -0.5960 -0.5042
  925MOL0     C24797   2.196   0.499   5.537  0.3969  0.3071 -0.0650
  925MOL0     O24798   2.133   0.570   5.640  0.5545  0.1091 -0.0220
  925MOL0     C24799   2.194   0.576   5.768  0.0235  0.6702  0.6783
  925MOL0     C24800   2.242   0.720   5.792 -0.1421  0.0523 -0.3578
  925MOL0     C24801   2.136   0.823   5.750  0.5089  0.2568 -0.4870
  925MOL0     C24802   1.988   0.793   5.771  0.2694 -0.7853  0.7484
  925MOL0     C24803   1.905   0.910   5.802  0.5335  0.8709  1.0877
  925MOL0     C24804   1.835   1.002   5.837 -0.2200  0.1959 -0.3587
  925MOL0     C24805   2.121   0.465   5.420  0.2833 -0.3692 -0.1914
  925MOL0     C24806   2.174   0.407   5.303  0.7685  0.5859  0.1561
  925MOL0     C24807   2.078   0.362   5.195 -0.6290 -0.0776 -0.5664
  925MOL0     H24808   2.229   0.274   4.830 -0.9658  1.1077  2.5949
  925MOL0     H24809   2.309   0.328   4.611 -1.6159 -1.2199  0.6656
  925MOL0     H24810   2.575   0.611   4.592 -1.2337 -1.2248  2.3000
  925MOL0     H24811   2.726   0.506   4.560 -1.4827 -2.9143  1.0159
  925MOL0     H24812   2.548   0.563   4.313  1.8044 -1.4351 -3.5231
  925MOL0     H24813   2.693   0.480   4.338  0.9131  1.3978  0.4483
  925MOL0     H24814   2.754   0.708   4.242 -1.5302 -3.2996 -0.4743
  925MOL0     H24815   2.806   0.701   4.419 -1.6891 -3.0326  2.4494
  925MOL0     H24816   2.567   0.785   4.470 -0.8369 -4.5703 -0.8164
  925MOL0     H24817   2.697   0.894   4.400 -0.8357  1.9823 -0.3585
  925MOL0     H24818   2.579   0.866   4.176 -1.9269 -1.2222 -0.6671
  925MOL0     H24819   2.456   0.776   4.273 -0.2834  0.8336  3.1492
  925MOL0     H24820   2.400   0.967   4.388 -1.6859  1.2809 -1.3291
  925MOL0     H24821   2.520   1.075   4.333 -1.5568 -1.3587  3.0949
  925MOL0     H24822   2.277   0.953   4.179 -0.1412 -0.6921 -6.4894
  925MOL0     H24823   2.404   1.045   4.101 -1.5810  2.0695  1.1643
  925MOL0     H24824   2.355   1.219   4.289 -1.8333  0.2528  2.4160
  925MOL0     H24825   2.251   1.212   4.134 -1.5361 -2.5807 -1.4377
  925MOL0     H24826   2.200   1.232   4.516 -0.8694 -0.3650  0.9562
  925MOL0     H24827   1.933   1.040   4.655 -1.3345  0.0389 -1.0256
  925MOL0     H24828   2.024   1.192   4.684 -0.6159 -0.1814  0.5548
  925MOL0     H24829   1.746   1.200   4.558  1.0286  1.1615 -2.1912
  925MOL0     H24830   1.770   1.202   4.733 -0.4155  0.8239  0.5725
  925MOL0     H24831   1.855   1.420   4.552  0.2734  1.4087  0.8729
  925MOL0     H24832   1.917   1.399   4.715  0.2083  0.1263  0.4256
  925MOL0     H24833   1.727   1.539   4.737  4.1326 -0.6970 -0.4322
  925MOL0     H24834   1.692   1.384   4.817  0.9899  0.4284  0.5448
  925MOL0     H24835   1.495   1.504   4.854 -0.3627 -1.7982 -1.2407
  925MOL0     H24836   1.301   1.673   4.865 -2.4463  0.2676 -1.0812
  925MOL0     H24837   1.084   1.916   5.010  2.4343  3.8431 -0.1070
  925MOL0     H24838   0.940   2.084   5.088  0.8113 -0.2426 -0.0466
  925MOL0     H24839   0.761   2.192   5.123  0.9284 -0.4114 -0.8527
  925MOL0     H24840   0.681   2.349   5.079 -0.0499  0.0063  0.2062
  925MOL0     H24841   0.495   2.240   5.145 -1.9820 -1.4512 -1.1245
  925MOL0     H24842   0.504   2.168   4.980  0.9491 -0.4431 -0.1368
  925MOL0     H24843   0.615   1.965   5.067  0.3365 -0.5846  0.7151
  925MOL0     H24844   0.614   2.039   5.217  0.9489 -0.7937 -1.6599
  925MOL0     H24845   0.357   1.996   5.062  0.4670  4.9415 -0.4205
  925MOL0     H24846   0.376   2.061   5.214  2.0276  0.9165 -0.4421
  925MOL0     H24847   0.306   1.831   5.258  0.2850 -1.2987  0.1081
  925MOL0     H24848   0.466   1.863   5.319  0.6154  2.9759 -0.3851
  925MOL0     H24849   0.588   1.734   5.160 -0.3410 -2.1788 -0.0785
  925MOL0     H24850   0.468   1.631   5.223  1.8071  0.2646  1.2137
  925MOL0     H24851   0.488   1.607   4.988  0.8285 -0.2951  1.9066
  925MOL0     H24852   0.439   1.776   4.948 -3.9443 -0.8447 -3.0150
  925MOL0     H24853   0.241   1.744   5.074  0.9682 -1.1203  0.8823
  925MOL0     H24854   0.247   1.680   4.912  1.4540  0.4592 -0.9554
  925MOL0     H24855   0.754   2.112   4.689  3.3943  0.5262 -2.9270
  925MOL0     H24856   0.892   1.907   4.624 -4.1512  0.7315 -0.7343
  925MOL0     H24857   1.276   1.646   4.435  1.0877 -1.1083 -0.5120
  925MOL0     H24858   1.470   1.505   4.446 -0.2333  1.5908 -0.8901
  925MOL0     H24859   2.671   0.473   4.784  0.9265 -0.6119  1.6930
  925MOL0     H24860   2.593   0.422   5.000  1.1566 -2.6633 -0.2055
  925MOL0     H24861   2.498   0.390   5.415 -0.7340 -3.7416 -1.2920
  925MOL0     H24862   2.408   0.503   5.599  0.1604 -1.0504 -1.0493
  925MOL0     H24863   2.275   0.503   5.782 -4.1957 -5.3310 -1.6356
  925MOL0     H24864   2.122   0.541   5.842 -0.3729  0.0864  0.0380
  925MOL0     H24865   2.333   0.737   5.733 -0.4847  0.5111 -0.7605
  925MOL0     H24866   2.269   0.734   5.898  0.2264  1.3412 -0.6132
  925MOL0     H24867   2.151   0.833   5.642 -1.3386 -0.7953 -0.8850
  925MOL0     H24868   2.162   0.913   5.807 -1.7252 -0.0802  1.1633
  925MOL0     H24869   1.949   0.756   5.676 -2.2228  3.4558 -0.1098
  925MOL0     H24870   1.992   0.721   5.854 -1.0361 -0.8010  0.8086
  925MOL0     H24871   1.795   1.093   5.876 -0.2337  1.5121 -3.2279
  925MOL0     H24872   2.013   0.478   5.423  0.2443 -0.5315 -0.8071
  925MOL0     H24873   2.100   0.272   5.139 -0.0932 -1.1698  1.3154
  925MOL0     H24874   1.976   0.344   5.231 -1.9108  0.9542 -3.3787
  925MOL0     H24875   2.067   0.438   5.117  0.2984  2.1317  1.3402
  926MOL0     O24876   4.652   3.095   8.723  0.5706 -0.2646  0.1337
  926MOL0     C24877   4.651   2.989   8.785 -0.0964  0.1097  0.2841
  926MOL0     O24878   4.539   2.903   8.805 -0.2268 -0.3914  0.1647
  926MOL0     C24879   4.415   2.939   8.761  0.0156  0.4264 -0.1554
  926MOL0     C24880   4.359   3.064   8.788  0.4568 -0.3549  0.3804
  926MOL0     C24881   4.233   3.103   8.735 -0.9108  0.6124  0.0926
  926MOL0     C24882   4.164   3.007   8.667 -0.1628 -0.0868  0.5874
  926MOL0     O24883   4.031   3.019   8.642 -0.1379  0.2106 -0.0605
  926MOL0     C24884   3.944   3.083   8.737  0.1051  0.4032  0.4536
  926MOL0     C24885   3.805   3.037   8.721 -0.6930  0.1190 -0.0341
  926MOL0     C24886   3.766   2.883   8.754  0.0200 -0.1549  0.3213
  926MOL0     C24887   3.646   2.841   8.669  0.6648  0.1675 -0.9813
  926MOL0     C24888   3.598   2.699   8.680 -0.8870 -0.3679  0.1191
  926MOL0     C24889   3.520   2.671   8.805  0.3150  0.1114  0.1867
  926MOL0     C24890   3.430   2.543   8.795  0.3173  1.0851  0.5528
  926MOL0     C24891   3.490   2.404   8.738 -0.3569  0.7507  0.7989
  926MOL0     N24892   3.380   2.312   8.762 -0.4741  0.6522 -0.7704
  926MOL0     C24893   3.306   2.245   8.664 -0.8158 -0.7353 -1.2336
  926MOL0     C24894   3.204   2.181   8.734  0.8585 -0.2245 -0.0976
  926MOL0     C24895   3.096   2.098   8.676 -0.3552 -0.0793  0.6396
  926MOL0     C24896   2.969   2.187   8.634 -0.7701  0.3508  0.1000
  926MOL0     C24897   2.865   2.209   8.750  0.6887  0.5036  0.4624
  926MOL0     C24898   2.757   2.297   8.688 -0.3648 -0.0042 -0.7236
  926MOL0     O24899   2.686   2.225   8.588 -0.5734  0.8327 -0.4691
  926MOL0     C24900   2.651   2.292   8.474 -0.3851  0.0524 -0.3375
  926MOL0     C24901   2.650   2.212   8.351  1.3900 -0.4215 -0.6105
  926MOL0     C24902   2.618   2.268   8.231  0.6411  0.1228  0.1337
  926MOL0     C24903   2.589   2.406   8.223  0.0054  0.3938 -0.1794
  926MOL0     C24904   2.553   2.457   8.088 -0.3939  0.2300 -0.5158
  926MOL0     O24905   2.556   2.364   7.986 -0.3002 -0.7026 -0.1256
  926MOL0     C24906   2.493   2.404   7.869 -0.2495  1.0220  0.3886
  926MOL0     C24907   2.374   2.337   7.833 -0.4232 -0.2429 -0.5704
  926MOL0     C24908   2.287   2.384   7.734 -1.5655  0.1427  0.2642
  926MOL0     C24909   2.340   2.480   7.650 -0.5720  0.2618 -0.6061
  926MOL0     O24910   2.265   2.515   7.547  0.5241 -0.1647 -0.3215
  926MOL0     C24911   2.235   2.657   7.525 -0.3113 -0.1759  0.7453
  926MOL0     C24912   2.136   2.718   7.620  0.0427  0.2594  0.3651
  926MOL0     C24913   2.157   2.857   7.670 -0.7390  0.9151  0.3995
  926MOL0     C24914   2.052   2.952   7.627 -0.0525  0.5017 -0.5160
  926MOL0     C24915   2.055   3.077   7.709  0.9646 -0.2724 -0.5384
  926MOL0     C24916   1.980   3.050   7.842  0.0669 -0.4527 -0.9381
  926MOL0     C24917   1.971   3.172   7.933 -0.3334 -0.2018 -0.2003
  926MOL0     C24918   1.911   3.153   8.075 -0.1192 -1.0036 -0.3807
  926MOL0    Cl24919   2.040   3.068   8.167 -0.7734 -0.1249  0.4851
  926MOL0     C24920   2.466   2.540   7.671 -0.3338 -1.1835  0.1294
  926MOL0     C24921   2.546   2.508   7.778 -0.5679 -0.4085 -0.6857
  926MOL0     O24922   2.527   2.575   8.070  0.7927  0.0484  0.1589
  926MOL0     C24923   2.582   2.478   8.338  0.0479  0.4471 -0.4354
  926MOL0     C24924   2.618   2.428   8.466 -0.0638  1.0376  0.6587
  926MOL0     N24925   3.223   2.197   8.869  0.3229  0.2013 -0.1433
  926MOL0     N24926   3.322   2.279   8.880 -1.3255  0.7076 -1.3280
  926MOL0     C24927   4.215   2.879   8.637  0.3519 -1.9012  0.2658
  926MOL0     C24928   4.344   2.845   8.684  0.2211  0.9286  0.4991
  926MOL0     C24929   4.781   2.935   8.822 -1.6249 -0.7617  0.1277
  926MOL0     C24930   4.878   2.924   8.720  0.1135  0.5730  0.1262
  926MOL0     C24931   4.997   2.865   8.755 -0.5013 -0.6904 -0.5495
  926MOL0     C24932   5.028   2.810   8.882 -0.4361 -0.0255  0.6461
  926MOL0     O24933   5.143   2.745   8.905 -0.8937 -0.0921  0.5475
  926MOL0     C24934   5.135   2.608   8.946  0.9981  0.3464  0.7703
  926MOL0     C24935   5.110   2.513   8.821  0.2132 -1.0331 -0.3686
  926MOL0     C24936   5.106   2.365   8.862  0.5045  0.5373  0.7065
  926MOL0     C24937   5.032   2.286   8.756  0.4358  0.5529 -0.3155
  926MOL0     C24938   5.117   2.232   8.652 -0.2200  0.4784  0.3729
  926MOL0     C24939   5.194   2.181   8.570 -0.2771  0.2210  0.3437
  926MOL0     C24940   4.939   2.823   8.985 -1.2124  0.2799 -0.7768
  926MOL0     C24941   4.816   2.887   8.953  0.9838 -0.1483  0.6547
  926MOL0     C24942   4.714   2.907   9.065 -0.1649  1.1765  0.3588
  926MOL0     H24943   4.414   3.134   8.850 -1.0940 -0.7331  2.2988
  926MOL0     H24944   4.191   3.203   8.744 -2.4549  0.0385 -0.5295
  926MOL0     H24945   3.977   3.062   8.839 -0.6035 -0.4370  0.5231
  926MOL0     H24946   3.939   3.190   8.715 -0.3710  0.3445  0.2683
  926MOL0     H24947   3.777   3.058   8.618  0.9684 -1.0238 -0.7470
  926MOL0     H24948   3.763   3.102   8.799  0.8691 -2.1368  2.9352
  926MOL0     H24949   3.754   2.868   8.861  1.7315  4.8333  1.4715
  926MOL0     H24950   3.842   2.810   8.728 -0.3761 -0.4297 -0.0926
  926MOL0     H24951   3.570   2.912   8.701  0.6798 -0.2590  0.0176
  926MOL0     H24952   3.673   2.876   8.569  1.0873  0.4728 -0.7616
  926MOL0     H24953   3.517   2.695   8.607 -1.9917 -0.0756  1.2996
  926MOL0     H24954   3.674   2.621   8.663 -2.8644 -2.5628  0.7637
  926MOL0     H24955   3.595   2.664   8.884  0.2990  3.9473  0.7336
  926MOL0     H24956   3.453   2.752   8.837 -0.3303 -1.4372  3.0750
  926MOL0     H24957   3.338   2.569   8.743  0.1131  0.5903  0.6565
  926MOL0     H24958   3.410   2.525   8.901 -1.4157  1.9871  0.4105
  926MOL0     H24959   3.504   2.409   8.629 -0.0531 -1.4859  0.6818
  926MOL0     H24960   3.589   2.385   8.780 -0.7423  1.8022  2.2465
  926MOL0     H24961   3.318   2.264   8.558 -2.8819  0.8471 -1.2457
  926MOL0     H24962   3.151   2.044   8.598  2.2752  1.6048  1.1859
  926MOL0     H24963   3.058   2.021   8.745 -1.6006  0.5931  0.7246
  926MOL0     H24964   3.009   2.280   8.594  1.9724 -0.2470  1.2466
  926MOL0     H24965   2.923   2.133   8.550 -1.9990  0.6576  0.5469
  926MOL0     H24966   2.910   2.247   8.842 -2.5049 -1.7326  3.1390
  926MOL0     H24967   2.806   2.121   8.777 -0.6340  1.5406  1.0460
  926MOL0     H24968   2.803   2.387   8.645 -0.4338 -0.3540 -1.5308
  926MOL0     H24969   2.684   2.332   8.762  0.3058 -0.5708  0.2290
  926MOL0     H24970   2.670   2.105   8.353  1.1759 -0.4656 -0.7888
  926MOL0     H24971   2.611   2.197   8.150  2.2993  0.6914 -0.5587
  926MOL0     H24972   2.330   2.256   7.890  2.2160 -1.8869 -0.6932
  926MOL0     H24973   2.181   2.365   7.729 -1.4993 -0.0116 -0.8482
  926MOL0     H24974   2.329   2.714   7.531 -1.4084  1.7967  0.1461
  926MOL0     H24975   2.203   2.667   7.421 -0.0149 -0.7605  0.5922
  926MOL0     H24976   2.038   2.694   7.576 -0.6527 -0.2579  2.0966
  926MOL0     H24977   2.140   2.657   7.710 -0.4429  0.8217  0.7839
  926MOL0     H24978   2.148   2.848   7.778 -0.1977  2.2852  0.5730
  926MOL0     H24979   2.260   2.887   7.650 -1.3497  2.8811 -0.0759
  926MOL0     H24980   1.954   2.903   7.620  0.0165  0.5728 -3.3764
  926MOL0     H24981   2.078   2.985   7.526 -0.5401  0.6629 -0.5939
  926MOL0     H24982   1.995   3.161   7.672  1.7931  1.1165  1.0847
  926MOL0     H24983   2.161   3.102   7.722  2.3476 -5.0165 -0.8451
  926MOL0     H24984   1.876   3.020   7.827 -0.4758  1.6944 -1.7906
  926MOL0     H24985   2.037   2.975   7.897  1.3010 -0.8181 -2.6171
  926MOL0     H24986   1.910   3.237   7.870 -0.8168 -1.6318 -1.2629
  926MOL0     H24987   2.066   3.226   7.943  0.4383 -1.8336  2.1408
  926MOL0     H24988   1.890   3.249   8.124  1.6097 -1.0636  0.5350
  926MOL0     H24989   1.815   3.101   8.073 -0.1000 -1.0306 -0.5511
  926MOL0     H24990   2.506   2.614   7.601 -1.7805 -2.7959 -2.5534
  926MOL0     H24991   2.642   2.556   7.797 -0.5872 -0.1444 -1.2479
  926MOL0     H24992   2.552   2.582   8.333 -2.7162 -0.1517  1.1655
  926MOL0     H24993   2.616   2.481   8.561 -1.6414  1.0201  0.6556
  926MOL0     H24994   4.159   2.806   8.581  1.6847 -3.5923  1.0481
  926MOL0     H24995   4.384   2.748   8.659 -0.2890  0.1189  2.6606
  926MOL0     H24996   4.843   2.970   8.629 -3.6434 -2.6850 -0.3203
  926MOL0     H24997   5.078   2.844   8.685  2.9505 -4.7371  3.9053
  926MOL0     H24998   5.052   2.591   9.015  1.2073 -1.2066  0.6703
  926MOL0     H24999   5.220   2.577   9.007  1.5134 -1.8864 -0.9885
  926MOL0     H25000   5.190   2.528   8.748  2.0685  1.0325  1.8842
  926MOL0     H25001   5.018   2.544   8.771  1.0344  3.8003  0.5966
  926MOL0     H25002   5.060   2.339   8.957  1.9083  0.0640  1.2865
  926MOL0     H25003   5.210   2.331   8.860  0.2386 -0.2803 -0.3821
  926MOL0     H25004   4.990   2.205   8.815  1.5980 -0.0088 -0.2354
  926MOL0     H25005   4.959   2.347   8.701  1.7923  0.3114 -2.4948
  926MOL0     H25006   5.268   2.138   8.506  0.8601 -0.1895  1.8844
  926MOL0     H25007   4.959   2.773   9.080  2.0799 -2.0964 -2.5237
  926MOL0     H25008   4.667   2.813   9.093 -1.1294  2.5038  3.6177
  926MOL0     H25009   4.761   2.934   9.160  1.0225 -0.4676  0.2882
  926MOL0     H25010   4.639   2.984   9.042 -1.8956 -0.8172 -1.0251
  927MOL0     O25011   4.358  10.333   7.348  0.6169 -0.2397 -0.2855
  927MOL0     C25012   4.380  10.440   7.297  0.0450 -0.3932 -0.1543
  927MOL0     O25013   4.363  10.477   7.166  0.3210  0.5495 -0.1011
  927MOL0     C25014   4.327  10.381   7.073  0.0446  0.5323 -0.8435
  927MOL0     C25015   4.368  10.243   7.072 -0.1856 -0.3845 -0.6964
  927MOL0     C25016   4.318  10.153   6.979  0.0272  0.0728 -0.6844
  927MOL0     C25017   4.232  10.196   6.879 -0.3332  0.1214  0.1039
  927MOL0     O25018   4.183  10.123   6.777  0.3798 -0.4463  0.2606
  927MOL0     C25019   4.143   9.989   6.806  0.4168 -0.2941  0.7552
  927MOL0     C25020   4.080   9.937   6.679 -0.3910 -0.3016 -0.1212
  927MOL0     C25021   4.175   9.918   6.561 -0.4744 -0.0606  0.0418
  927MOL0     C25022   4.126   9.815   6.455 -0.4563 -0.0142  0.8204
  927MOL0     C25023   4.201   9.845   6.322  0.1714  0.3755  0.3670
  927MOL0     C25024   4.162   9.739   6.219 -0.1680  0.0873  1.4148
  927MOL0     C25025   4.160   9.786   6.079 -0.2542 -0.4751 -0.5529
  927MOL0     C25026   4.295   9.793   6.009  0.0191  0.6488  0.4212
  927MOL0     N25027   4.395   9.894   6.054  0.8042  0.3262 -0.1249
  927MOL0     C25028   4.374  10.021   6.089  0.9217 -0.1687 -0.1001
  927MOL0     C25029   4.498  10.069   6.112  0.3023  0.1242 -0.4511
  927MOL0     C25030   4.546  10.206   6.162 -0.0545 -0.4770  0.1632
  927MOL0     C25031   4.683  10.202   6.237 -0.1181 -0.2407 -0.7292
  927MOL0     C25032   4.750  10.334   6.222  0.1511 -0.3364  0.2091
  927MOL0     C25033   4.858  10.373   6.315 -0.4503  1.3031  0.1666
  927MOL0     O25034   4.948  10.261   6.332  0.4041  0.1476  0.0528
  927MOL0     C25035   5.070  10.266   6.279  0.0560  0.1058 -0.4542
  927MOL0     C25036   5.143  10.160   6.333  1.4284 -0.1783  0.4873
  927MOL0     C25037   5.272  10.133   6.287 -0.0268 -0.2882 -0.0717
  927MOL0     C25038   5.324  10.198   6.171 -0.1317 -0.0071 -0.4914
  927MOL0     C25039   5.459  10.161   6.120  0.3437  0.1311 -0.0892
  927MOL0     O25040   5.522  10.061   6.179 -0.8142  0.5368  0.3454
  927MOL0     C25041   5.620   9.984   6.104 -0.6158  0.0822  0.3197
  927MOL0     C25042   5.608   9.964   5.964 -0.1873  0.4263 -0.3118
  927MOL0     C25043   5.699   9.883   5.910  0.0499  0.2415  1.3964
  927MOL0     C25044   5.804   9.821   5.981  0.5848 -1.2207 -0.4613
  927MOL0     O25045   5.904   9.755   5.917 -0.6133  0.0630  0.3365
  927MOL0     C25046   6.007   9.689   5.979 -0.3935  0.3115  0.1077
  927MOL0     C25047   6.123   9.648   5.885 -0.5249 -0.3684 -0.1229
  927MOL0     C25048   6.185   9.774   5.818 -0.6783  0.2714  0.1973
  927MOL0     C25049   6.300   9.732   5.725  1.1534  0.7058  0.4608
  927MOL0     C25050   6.350   9.843   5.642 -0.9580 -1.6545 -0.7153
  927MOL0     C25051   6.484   9.789   5.576  0.3799 -0.0835 -0.0262
  927MOL0     C25052   6.522   9.875   5.457 -0.4043 -0.1827  0.7272
  927MOL0     C25053   6.558  10.025   5.495  0.1379  0.1325 -1.0375
  927MOL0    Cl25054   6.639  10.021   5.659  0.4892 -0.5902 -0.4429
  927MOL0     C25055   5.810   9.842   6.118 -1.0457  0.2315 -0.0997
  927MOL0     C25056   5.723   9.928   6.179  0.0422 -0.5117 -0.1287
  927MOL0     O25057   5.499  10.211   6.020 -0.2866 -0.6640  0.5946
  927MOL0     C25058   5.254  10.311   6.120  0.6848 -1.4437 -0.0541
  927MOL0     C25059   5.127  10.344   6.169  0.5170  0.2665 -1.6281
  927MOL0     N25060   4.589   9.970   6.099  0.1755  0.3797 -0.0537
  927MOL0     N25061   4.529   9.863   6.071 -0.8321 -0.0152 -0.2248
  927MOL0     C25062   4.191  10.329   6.884  0.7092  0.6885  0.4900
  927MOL0     C25063   4.247  10.431   6.971  0.6370  0.3684  0.0864
  927MOL0     C25064   4.418  10.552   7.392 -0.0912 -0.1647 -0.3361
  927MOL0     C25065   4.506  10.650   7.333  0.3119 -0.2395  0.5222
  927MOL0     C25066   4.553  10.762   7.402  0.7664 -0.2747  0.1893
  927MOL0     C25067   4.516  10.782   7.534  0.3732  0.2972  0.1370
  927MOL0     O25068   4.554  10.895   7.606 -0.1793 -0.0805 -0.1798
  927MOL0     C25069   4.467  10.930   7.715 -0.8528 -0.6326 -0.7976
  927MOL0     C25070   4.512  11.082   7.745  0.2607  0.1289 -0.2534
  927MOL0     C25071   4.439  11.138   7.866  0.0310 -0.0924 -0.0942
  927MOL0     C25072   4.280  11.144   7.853 -0.7352  0.4780  0.0177
  927MOL0     C25073   4.210  11.220   7.949 -0.3203 -0.8146 -0.8045
  927MOL0     C25074   4.165  11.291   8.038  0.2197  0.0480 -0.2541
  927MOL0     C25075   4.436  10.680   7.598 -0.3249  0.2701 -0.2305
  927MOL0     C25076   4.391  10.566   7.529  0.1011 -0.1206 -1.0232
  927MOL0     C25077   4.284  10.473   7.594  0.9171 -0.0097 -0.1013
  927MOL0     H25078   4.438  10.202   7.144  0.6245 -2.1994 -2.4465
  927MOL0     H25079   4.354  10.050   6.984  1.3134  0.4657 -1.5691
  927MOL0     H25080   4.225   9.923   6.837 -0.5644 -3.4591 -2.6800
  927MOL0     H25081   4.064   9.974   6.881 -0.5641  2.9528  0.5421
  927MOL0     H25082   4.004  10.012   6.654  0.9662  1.7416  1.5421
  927MOL0     H25083   4.044   9.837   6.705  0.5655 -1.2357 -2.2005
  927MOL0     H25084   4.267   9.882   6.607 -0.4562  2.6943  2.4827
  927MOL0     H25085   4.179  10.014   6.509 -0.1473  1.1677  2.2353
  927MOL0     H25086   4.158   9.718   6.495  1.1595 -0.0898 -0.5588
  927MOL0     H25087   4.017   9.815   6.447 -0.4341  0.0548  0.4965
  927MOL0     H25088   4.176   9.945   6.286  0.2752  0.2924  0.0576
  927MOL0     H25089   4.308   9.842   6.344  0.2011  3.2866  1.0140
  927MOL0     H25090   4.230   9.655   6.233 -2.1983 -2.3313 -1.8887
  927MOL0     H25091   4.058   9.704   6.228 -0.7374  1.5036  0.6790
  927MOL0     H25092   4.118   9.883   6.054  3.0214  0.4921 -3.0073
  927MOL0     H25093   4.090   9.716   6.032 -1.0817  1.2287 -1.9643
  927MOL0     H25094   4.333   9.694   6.037  1.3236  2.1001  4.4577
  927MOL0     H25095   4.277   9.819   5.904 -2.0068 -0.1962  0.5219
  927MOL0     H25096   4.288  10.086   6.105  0.2273 -0.9887 -0.4706
  927MOL0     H25097   4.541  10.286   6.087  1.3514  0.1534  0.7241
  927MOL0     H25098   4.462  10.224   6.230  0.3987 -0.6389  0.7682
  927MOL0     H25099   4.659  10.183   6.342  1.2522 -0.7207 -0.4827
  927MOL0     H25100   4.760  10.135   6.197  0.5834  0.5593 -0.7323
  927MOL0     H25101   4.668  10.406   6.218 -0.2563 -0.4748  3.4140
  927MOL0     H25102   4.806  10.338   6.129  0.6559  2.2654  0.5667
  927MOL0     H25103   4.818  10.392   6.415 -0.2486  0.8015  0.3460
  927MOL0     H25104   4.912  10.462   6.279  1.8302 -0.2911 -0.5511
  927MOL0     H25105   5.094  10.113   6.418 -0.7888  2.6038  0.9177
  927MOL0     H25106   5.328  10.052   6.332  1.0454  0.9829  0.9687
  927MOL0     H25107   5.533  10.001   5.896 -1.6527 -0.8730  0.5297
  927MOL0     H25108   5.695   9.875   5.802  0.8472 -2.9302  1.4866
  927MOL0     H25109   6.056   9.761   6.045 -0.8697  0.8345 -0.0995
  927MOL0     H25110   5.971   9.604   6.038  1.2226  0.2521  1.0575
  927MOL0     H25111   6.198   9.590   5.939  0.5103  0.5510 -0.5188
  927MOL0     H25112   6.081   9.588   5.804  0.3697 -1.4913  0.2253
  927MOL0     H25113   6.111   9.816   5.749 -1.2088  0.9090  1.1498
  927MOL0     H25114   6.216   9.863   5.873  1.2325 -1.3462  1.9038
  927MOL0     H25115   6.260   9.642   5.678 -0.5130  1.0965  1.0751
  927MOL0     H25116   6.381   9.705   5.794  1.0267 -1.9639 -0.3233
  927MOL0     H25117   6.363   9.934   5.701  0.0134 -1.5435 -1.0842
  927MOL0     H25118   6.283   9.878   5.563 -0.6358 -3.1452 -1.6769
  927MOL0     H25119   6.565   9.764   5.644 -0.2451  0.2785  0.8707
  927MOL0     H25120   6.456   9.693   5.532 -0.3888  1.2489 -2.6543
  927MOL0     H25121   6.439   9.871   5.386  2.6537  1.2512 -3.3006
  927MOL0     H25122   6.605   9.833   5.399 -0.7912 -1.2675  0.9437
  927MOL0     H25123   6.618  10.077   5.419  1.1837 -0.1966 -0.4583
  927MOL0     H25124   6.469  10.087   5.506 -1.0681 -1.6272 -0.3681
  927MOL0     H25125   5.890   9.803   6.180  0.9726  3.0729 -0.7172
  927MOL0     H25126   5.736   9.941   6.286  3.8818  0.1448 -0.5231
  927MOL0     H25127   5.289  10.366   6.034 -1.4448 -0.6849 -0.5020
  927MOL0     H25128   5.060  10.413   6.119  0.2359 -1.6810 -4.1508
  927MOL0     H25129   4.118  10.357   6.810 -0.2472 -2.7689 -0.0618
  927MOL0     H25130   4.208  10.532   6.975  0.5736  0.4756 -2.1438
  927MOL0     H25131   4.556  10.633   7.238  1.0382 -1.6728  1.1148
  927MOL0     H25132   4.610  10.838   7.349 -0.5919  0.3965 -0.3719
  927MOL0     H25133   4.489  10.872   7.805  0.5350 -0.5059 -1.0368
  927MOL0     H25134   4.363  10.917   7.682 -0.6270 -1.8930 -1.0503
  927MOL0     H25135   4.497  11.142   7.654 -1.7732  0.6172  0.3442
  927MOL0     H25136   4.621  11.078   7.755  0.2122 -2.6443 -0.1250
  927MOL0     H25137   4.470  11.242   7.882  1.9780 -0.7829  0.9001
  927MOL0     H25138   4.457  11.086   7.961  0.0821 -0.9606 -0.5716
  927MOL0     H25139   4.254  11.174   7.751  1.2486 -2.2948 -1.4365
  927MOL0     H25140   4.252  11.040   7.871 -1.4698  0.9980  2.1834
  927MOL0     H25141   4.129  11.347   8.121  3.6892 -0.2749  1.6464
  927MOL0     H25142   4.421  10.691   7.705  2.0066  2.2630 -0.0389
  927MOL0     H25143   4.188  10.481   7.542  0.1030 -3.9470  0.4695
  927MOL0     H25144   4.295  10.364   7.598 -0.7021 -0.1630  1.9472
  927MOL0     H25145   4.270  10.516   7.693  3.6989  2.0564 -0.4986
  928MOL0     O25146   4.721   4.780   2.207 -0.3347 -0.6594 -0.0037
  928MOL0     C25147   4.669   4.742   2.322 -0.4430 -0.6897  1.2035
  928MOL0     O25148   4.743   4.687   2.423  0.4810 -0.0683  0.3784
  928MOL0     C25149   4.869   4.637   2.421 -1.1439  0.6072 -0.5300
  928MOL0     C25150   4.986   4.704   2.373  0.5140  0.1963  0.9573
  928MOL0     C25151   5.109   4.645   2.390  0.0722  0.0631 -0.3371
  928MOL0     C25152   5.124   4.529   2.469 -0.4810  0.3294  0.1090
  928MOL0     O25153   5.256   4.488   2.478  0.7769 -0.8779  0.0344
  928MOL0     C25154   5.284   4.344   2.463  1.2082  0.6828 -0.2688
  928MOL0     C25155   5.305   4.300   2.320 -0.0781  0.4098  0.0180
  928MOL0     C25156   5.437   4.321   2.259 -0.3514 -1.0535  0.2704
  928MOL0     C25157   5.453   4.231   2.145 -0.6498  0.5527  0.0899
  928MOL0     C25158   5.577   4.271   2.059  0.7091 -0.2566 -0.5663
  928MOL0     C25159   5.562   4.222   1.910 -0.2048 -0.4353 -0.2960
  928MOL0     C25160   5.694   4.237   1.828  0.3487  0.0199 -0.3966
  928MOL0     C25161   5.773   4.371   1.805 -1.2579  0.2591 -0.2088
  928MOL0     N25162   5.832   4.417   1.935  0.2586  0.4217 -0.1389
  928MOL0     C25163   5.814   4.549   1.975  0.1070  0.4992  0.1070
  928MOL0     C25164   5.869   4.553   2.098  0.2839  0.3306 -0.1353
  928MOL0     C25165   5.858   4.677   2.184 -0.1981  0.9561  0.1894
  928MOL0     C25166   5.772   4.665   2.306  0.2519 -0.1780  0.1176
  928MOL0     C25167   5.628   4.677   2.255  0.7092 -0.9786  0.6960
  928MOL0     C25168   5.538   4.690   2.385 -0.4376 -0.4666  0.4444
  928MOL0     O25169   5.539   4.561   2.456 -0.5151  0.4135 -0.8554
  928MOL0     C25170   5.556   4.575   2.591  0.4004  0.5449 -0.1715
  928MOL0     C25171   5.485   4.658   2.670  0.1916  1.3790  0.3933
  928MOL0     C25172   5.526   4.671   2.800 -0.3866  0.2532 -0.7014
  928MOL0     C25173   5.627   4.598   2.865  0.2012  0.8180  0.1205
  928MOL0     C25174   5.676   4.620   3.009  0.2775  0.4960  0.1827
  928MOL0     O25175   5.619   4.717   3.084 -0.1695 -0.8446  0.3190
  928MOL0     C25176   5.692   4.744   3.196  0.8390  0.1937 -0.0791
  928MOL0     C25177   5.665   4.679   3.316 -0.6238 -0.2437 -0.2515
  928MOL0     C25178   5.734   4.719   3.430  0.0602 -0.1417  0.4761
  928MOL0     C25179   5.827   4.834   3.421 -0.2660  0.3962  0.4340
  928MOL0     O25180   5.915   4.855   3.524  0.1159  0.3063 -0.8778
  928MOL0     C25181   5.907   4.991   3.577 -0.6494  0.1710 -0.9241
  928MOL0     C25182   6.047   5.051   3.587  0.2838  0.2670  1.0418
  928MOL0     C25183   6.038   5.192   3.658  1.0614  0.5595  0.0281
  928MOL0     C25184   6.151   5.282   3.620 -1.4087 -0.2623  0.5945
  928MOL0     C25185   6.124   5.340   3.478  0.0797 -0.4050 -0.1826
  928MOL0     C25186   6.178   5.469   3.436 -0.4674  1.1069 -0.7763
  928MOL0     C25187   6.101   5.579   3.523  0.4328  0.5083  0.1683
  928MOL0     C25188   6.202   5.696   3.524  0.3488  0.4995  1.3598
  928MOL0    Cl25189   6.206   5.776   3.362  0.4882  0.2902  0.2633
  928MOL0     C25190   5.844   4.897   3.295  0.2001 -0.4586  0.1496
  928MOL0     C25191   5.772   4.857   3.185 -0.5491 -0.4072  0.4437
  928MOL0     O25192   5.770   4.553   3.044 -0.0056  0.2538 -0.0806
  928MOL0     C25193   5.691   4.508   2.785  0.1053 -0.1532 -0.1245
  928MOL0     C25194   5.655   4.497   2.648  0.0696  0.0273  0.2383
  928MOL0     N25195   5.924   4.432   2.132  0.0243  0.7626  0.2244
  928MOL0     N25196   5.912   4.356   2.021 -0.1274  0.4195 -0.1625
  928MOL0     C25197   5.013   4.466   2.524  0.5381  0.0997  0.7155
  928MOL0     C25198   4.892   4.531   2.512 -0.7230  0.3689  0.2348
  928MOL0     C25199   4.533   4.789   2.339 -0.3673 -0.2759 -0.5483
  928MOL0     C25200   4.483   4.778   2.478 -0.7975 -0.2434 -0.5009
  928MOL0     C25201   4.352   4.821   2.519 -0.0628  0.5147  0.4067
  928MOL0     C25202   4.263   4.861   2.413 -0.4910 -0.3077  0.0444
  928MOL0     O25203   4.137   4.903   2.450 -0.2614 -0.1424  0.8433
  928MOL0     C25204   4.053   4.798   2.488  0.7586 -0.3391 -0.0524
  928MOL0     C25205   4.057   4.668   2.392  0.6060  0.0625 -0.4680
  928MOL0     C25206   3.934   4.587   2.440  0.0771 -0.6548 -0.7852
  928MOL0     C25207   3.924   4.473   2.346  0.4017  0.5797  0.5807
  928MOL0     C25208   3.840   4.518   2.229  0.6493  0.1801  0.3086
  928MOL0     C25209   3.770   4.550   2.139  0.0400  0.3626  0.0194
  928MOL0     C25210   4.314   4.873   2.283 -0.5651 -0.1204 -0.5346
  928MOL0     C25211   4.441   4.830   2.246 -0.1306  0.0060  0.0752
  928MOL0     C25212   4.462   4.829   2.091  0.1885 -0.4377 -0.1021
  928MOL0     H25213   4.976   4.801   2.325 -0.9307 -0.8706 -1.0883
  928MOL0     H25214   5.186   4.704   2.343 -0.7400  0.6442 -0.9632
  928MOL0     H25215   5.378   4.333   2.518  1.9648 -0.8398 -1.7949
  928MOL0     H25216   5.221   4.270   2.514  2.3384 -0.8032 -0.9248
  928MOL0     H25217   5.233   4.339   2.247  0.0122 -1.3098 -1.0480
  928MOL0     H25218   5.294   4.191   2.315  0.3145  0.4073 -1.4026
  928MOL0     H25219   5.523   4.297   2.323 -0.1546 -1.3652 -0.1015
  928MOL0     H25220   5.452   4.427   2.238  0.2988 -1.2847 -0.4924
  928MOL0     H25221   5.470   4.126   2.173  0.9172  0.6193 -0.5361
  928MOL0     H25222   5.368   4.239   2.078  1.0688 -4.7298 -3.3855
  928MOL0     H25223   5.584   4.379   2.075  3.5147 -0.0015 -2.7341
  928MOL0     H25224   5.678   4.239   2.086  0.8920 -0.3303 -1.3350
  928MOL0     H25225   5.535   4.119   1.932  1.2012 -0.2216  3.1618
  928MOL0     H25226   5.487   4.278   1.854 -1.3800 -1.1078  0.5727
  928MOL0     H25227   5.665   4.208   1.726 -4.6797  2.1230  0.1464
  928MOL0     H25228   5.769   4.171   1.873 -0.8543  0.7741  3.0315
  928MOL0     H25229   5.861   4.347   1.744 -1.5843  1.1201 -1.0312
  928MOL0     H25230   5.715   4.452   1.761  1.2062  0.4966 -3.3558
  928MOL0     H25231   5.749   4.624   1.931  1.0352  0.6313 -1.0742
  928MOL0     H25232   5.958   4.688   2.226 -0.5244 -2.2099  2.1108
  928MOL0     H25233   5.835   4.762   2.118  1.1264  1.8298  0.8151
  928MOL0     H25234   5.789   4.567   2.350 -1.3348 -0.1974  0.7579
  928MOL0     H25235   5.810   4.745   2.371  3.2368  1.0775 -2.9062
  928MOL0     H25236   5.600   4.593   2.191 -0.3896  1.3660 -2.1338
  928MOL0     H25237   5.616   4.768   2.195 -0.1813 -1.0760  0.7223
  928MOL0     H25238   5.433   4.710   2.359 -0.8191  0.9385  2.7944
  928MOL0     H25239   5.574   4.775   2.444  0.6058 -0.9226  0.4892
  928MOL0     H25240   5.411   4.722   2.622 -1.4298  0.1034  1.0978
  928MOL0     H25241   5.486   4.752   2.859  0.2107  0.4056 -0.5042
  928MOL0     H25242   5.595   4.596   3.309  2.7088 -3.5806  1.7491
  928MOL0     H25243   5.707   4.671   3.523 -0.8520 -2.6148 -0.9915
  928MOL0     H25244   5.845   5.069   3.533 -0.4445  0.7277 -0.2543
  928MOL0     H25245   5.894   4.974   3.685  3.1696  2.0012  0.0032
  928MOL0     H25246   6.108   4.976   3.639  0.4909 -1.6752 -1.7764
  928MOL0     H25247   6.091   5.061   3.487  0.1492 -2.4928  0.6412
  928MOL0     H25248   5.942   5.233   3.625 -0.6703 -1.6127  2.0113
  928MOL0     H25249   6.027   5.156   3.761 -2.0680 -1.0368 -0.7361
  928MOL0     H25250   6.241   5.220   3.617 -1.0942  0.2085 -1.9097
  928MOL0     H25251   6.157   5.367   3.688 -0.6938 -0.2705  0.5467
  928MOL0     H25252   6.016   5.358   3.476 -0.1405 -1.7118 -0.9956
  928MOL0     H25253   6.142   5.269   3.397  2.1491  1.8120 -1.7962
  928MOL0     H25254   6.286   5.465   3.453 -0.4015 -2.1004 -1.3220
  928MOL0     H25255   6.163   5.476   3.327 -1.3221 -1.3968 -0.9014
  928MOL0     H25256   6.078   5.542   3.623 -0.0707  0.5559  0.0695
  928MOL0     H25257   6.008   5.591   3.467  0.2520 -1.5663 -0.0346
  928MOL0     H25258   6.170   5.769   3.599 -4.5553  1.7210 -1.5128
  928MOL0     H25259   6.303   5.665   3.552  0.3417 -0.1294  0.7030
  928MOL0     H25260   5.901   4.989   3.297 -2.4658  1.3131  2.1497
  928MOL0     H25261   5.780   4.909   3.090 -1.4849  0.7315  0.9570
  928MOL0     H25262   5.782   4.467   2.829 -0.9461  0.1011  2.4964
  928MOL0     H25263   5.704   4.426   2.582 -1.0146  0.2967 -0.8823
  928MOL0     H25264   5.008   4.382   2.593 -0.6515 -0.2762  0.2080
  928MOL0     H25265   4.805   4.483   2.556 -2.0326  0.1976 -2.3056
  928MOL0     H25266   4.542   4.732   2.556 -2.7903  2.3909  2.7858
  928MOL0     H25267   4.311   4.818   2.620  0.5068  1.0767  0.6601
  928MOL0     H25268   3.949   4.833   2.484  1.3222  1.4954 -4.2735
  928MOL0     H25269   4.088   4.777   2.589 -2.9534  1.6501  1.8696
  928MOL0     H25270   4.147   4.610   2.411 -0.5300 -1.2352  1.3287
  928MOL0     H25271   4.051   4.687   2.285 -1.0999 -1.6684 -0.7336
  928MOL0     H25272   3.837   4.638   2.449 -0.4270 -1.9658  3.4882
  928MOL0     H25273   3.957   4.547   2.539 -0.4184 -0.3051 -0.5221
  928MOL0     H25274   4.023   4.453   2.306  0.3334  0.8754  0.2665
  928MOL0     H25275   3.878   4.381   2.384  0.4196  0.0602 -0.6221
  928MOL0     H25276   3.719   4.564   2.046 -0.3321  1.7162  0.4024
  928MOL0     H25277   4.246   4.901   2.203  0.2012  0.9404 -0.8441
  928MOL0     H25278   4.513   4.917   2.050  1.5862 -0.7303  0.9523
  928MOL0     H25279   4.520   4.740   2.062 -0.6419 -0.4615 -1.8124
  928MOL0     H25280   4.375   4.817   2.025  1.4201 -1.3165 -1.6452
  929MOL0     O25281   0.093   5.592   1.256 -0.0098 -0.1184 -0.6201
  929MOL0     C25282   0.187   5.520   1.256 -0.2138 -0.3836 -0.4061
  929MOL0     O25283   0.178   5.396   1.300 -0.7148 -0.1468 -0.0512
  929MOL0     C25284   0.085   5.363   1.391 -0.2482  0.2656 -0.5316
  929MOL0     C25285  -0.051   5.346   1.360  0.6749 -0.0385 -0.8556
  929MOL0     C25286  -0.145   5.315   1.455  0.6781 -0.0493 -0.6034
  929MOL0     C25287  -0.113   5.322   1.596  0.0272 -0.0882  0.4783
  929MOL0     O25288  -0.208   5.322   1.692  0.6090  0.0670  0.3258
  929MOL0     C25289  -0.331   5.375   1.668  0.6290 -0.3845 -0.3715
  929MOL0     C25290  -0.411   5.382   1.792 -0.6734  0.0144 -0.5492
  929MOL0     C25291  -0.560   5.406   1.789 -0.3505 -0.3220 -0.7419
  929MOL0     C25292  -0.601   5.527   1.703 -0.0355  0.3194 -1.2979
  929MOL0     C25293  -0.746   5.571   1.713 -0.1799  0.0293  1.1144
  929MOL0     C25294  -0.851   5.468   1.672  0.5245  0.1271 -0.1043
  929MOL0     C25295  -0.872   5.439   1.521  0.6930 -0.0604 -0.3859
  929MOL0     C25296  -0.982   5.521   1.465 -0.1082  0.2627  0.3308
  929MOL0     N25297  -0.985   5.479   1.327 -0.2179  0.0978 -0.1518
  929MOL0     C25298  -1.090   5.417   1.262 -0.5796 -0.2364  0.0037
  929MOL0     C25299  -1.065   5.447   1.133  1.0285  0.1194  0.7325
  929MOL0     C25300  -1.169   5.412   1.030 -1.3736  0.0339  0.6214
  929MOL0     C25301  -1.169   5.256   1.003  0.1422  0.9084  0.0436
  929MOL0     C25302  -1.277   5.212   0.900  0.7328  0.2090  0.1288
  929MOL0     C25303  -1.239   5.081   0.823 -0.8070  0.1974  0.8536
  929MOL0     O25304  -1.343   5.059   0.739  1.1223  0.1146  0.2800
  929MOL0     C25305  -1.349   4.955   0.651 -0.4997 -0.3927  0.3196
  929MOL0     C25306  -1.449   4.947   0.557  0.4154  0.0791  0.0624
  929MOL0     C25307  -1.473   4.844   0.473 -0.3595 -0.2074  0.3905
  929MOL0     C25308  -1.383   4.734   0.482 -0.2083 -0.1379 -0.3628
  929MOL0     C25309  -1.393   4.626   0.385 -0.3029  0.6454  0.0518
  929MOL0     O25310  -1.276   4.559   0.351  0.4924 -0.3951  0.0543
  929MOL0     C25311  -1.280   4.438   0.295  0.0805 -0.5883  0.8607
  929MOL0     C25312  -1.209   4.328   0.357 -0.0496  0.2298  0.2282
  929MOL0     C25313  -1.224   4.203   0.291  1.0366  0.7567 -0.5601
  929MOL0     C25314  -1.315   4.181   0.180  0.2276 -0.9489  0.2242
  929MOL0     O25315  -1.348   4.059   0.128 -0.2540  0.1226 -0.1910
  929MOL0     C25316  -1.243   3.956   0.139 -0.3866 -0.2562  0.6451
  929MOL0     C25317  -1.278   3.837   0.053  0.4669 -0.0824  0.4319
  929MOL0     C25318  -1.209   3.715   0.108  0.0504  0.1384 -0.6463
  929MOL0     C25319  -1.228   3.606   0.006  0.0142  1.1287 -0.0490
  929MOL0     C25320  -1.118   3.511   0.007 -0.0482 -0.0128  0.4657
  929MOL0     C25321  -1.135   3.408  -0.102  0.9688  0.9427  0.6602
  929MOL0     C25322  -1.245   3.307  -0.076 -0.3965 -0.0037  0.2053
  929MOL0     C25323  -1.239   3.203  -0.187  0.1378 -0.2910  1.0891
  929MOL0    Cl25324  -1.326   3.057  -0.143  0.0779  0.2678 -0.0366
  929MOL0     C25325  -1.365   4.296   0.116  0.0197 -0.8895  0.2483
  929MOL0     C25326  -1.346   4.422   0.172 -0.0573  0.8993 -0.1922
  929MOL0     O25327  -1.507   4.600   0.340 -0.0705 -0.1865 -0.4470
  929MOL0     C25328  -1.274   4.747   0.573  0.2156  0.1103 -0.0938
  929MOL0     C25329  -1.260   4.850   0.653 -0.3621  0.0635  0.0475
  929MOL0     N25330  -0.953   5.524   1.111  0.3963 -0.0379 -1.1010
  929MOL0     N25331  -0.903   5.531   1.231 -0.4637 -0.1731  0.2216
  929MOL0     C25332   0.024   5.335   1.633 -0.4451 -0.9898 -0.3086
  929MOL0     C25333   0.120   5.362   1.527 -0.2931 -0.7963  0.1432
  929MOL0     C25334   0.312   5.578   1.213 -0.3375  0.5807 -0.7208
  929MOL0     C25335   0.401   5.495   1.154 -0.1563 -0.3620 -0.1844
  929MOL0     C25336   0.523   5.539   1.102 -0.2918  0.0909 -0.4427
  929MOL0     C25337   0.549   5.678   1.120  0.2029 -1.2863  0.1741
  929MOL0     O25338   0.651   5.734   1.056  0.3069  0.1645 -0.2410
  929MOL0     C25339   0.762   5.734   1.144  1.1737 -0.0131 -0.2981
  929MOL0     C25340   0.893   5.739   1.070  0.1483 -1.2019 -0.0614
  929MOL0     C25341   1.008   5.701   1.163 -0.0968 -0.0654  0.3750
  929MOL0     C25342   1.144   5.691   1.086 -0.1560 -0.1601  0.0878
  929MOL0     C25343   1.150   5.560   1.026  0.2884  0.3869  0.2396
  929MOL0     C25344   1.156   5.449   0.981 -0.7962  0.1864  0.0113
  929MOL0     C25345   0.459   5.763   1.185  0.2348 -0.3023  1.1174
  929MOL0     C25346   0.345   5.711   1.241  0.5799 -0.6261  1.0825
  929MOL0     C25347   0.264   5.815   1.320  0.1542  1.3042 -0.1798
  929MOL0     H25348  -0.079   5.353   1.256  0.3468  1.6345 -0.6746
  929MOL0     H25349  -0.249   5.311   1.424  0.4889 -0.3605  0.0509
  929MOL0     H25350  -0.335   5.472   1.618 -4.7366  0.4295  1.0650
  929MOL0     H25351  -0.390   5.310   1.603  1.3577 -2.0987  0.5978
  929MOL0     H25352  -0.372   5.464   1.853  2.3292 -0.1361 -2.0604
  929MOL0     H25353  -0.394   5.286   1.842  2.0464  1.1930  1.0072
  929MOL0     H25354  -0.593   5.440   1.887 -0.1751  1.7201 -1.3416
  929MOL0     H25355  -0.618   5.319   1.758  0.4828 -0.5482 -1.7293
  929MOL0     H25356  -0.529   5.607   1.726 -2.3933  1.6677  2.3883
  929MOL0     H25357  -0.583   5.491   1.602  3.7421 -1.7181 -0.0625
  929MOL0     H25358  -0.766   5.602   1.816 -1.3151  1.8939  0.3840
  929MOL0     H25359  -0.746   5.656   1.645  2.5818  0.0271  0.9924
  929MOL0     H25360  -0.833   5.377   1.730  3.2778  1.9470  2.1616
  929MOL0     H25361  -0.946   5.500   1.718  1.1313  1.2595  0.4115
  929MOL0     H25362  -0.888   5.331   1.511  2.5558 -0.3810 -0.2490
  929MOL0     H25363  -0.784   5.476   1.467 -0.3357  0.7429 -1.5756
  929MOL0     H25364  -1.079   5.495   1.508 -0.7803  1.0995 -0.6679
  929MOL0     H25365  -0.969   5.629   1.474 -0.1667  0.3328 -0.4383
  929MOL0     H25366  -1.178   5.373   1.307 -0.7617  1.8072  1.8400
  929MOL0     H25367  -1.269   5.437   1.068 -1.1396  2.8604 -0.3496
  929MOL0     H25368  -1.152   5.478   0.944 -2.5274 -2.0578 -1.3515
  929MOL0     H25369  -1.069   5.229   0.970 -0.0787 -2.1099  1.6001
  929MOL0     H25370  -1.181   5.192   1.090  1.8330 -0.3248 -0.5873
  929MOL0     H25371  -1.290   5.300   0.836  2.6169  0.8191  0.5286
  929MOL0     H25372  -1.373   5.188   0.946 -1.4048  1.4596 -3.3204
  929MOL0     H25373  -1.239   4.994   0.890 -1.3523 -1.8293 -1.6368
  929MOL0     H25374  -1.145   5.081   0.767 -0.1613 -0.6292  1.8863
  929MOL0     H25375  -1.514   5.034   0.568  1.4992  0.9730 -0.3784
  929MOL0     H25376  -1.540   4.855   0.388  1.2120  0.1596 -0.8396
  929MOL0     H25377  -1.154   4.321   0.450 -1.4431 -0.1123  1.0650
  929MOL0     H25378  -1.173   4.119   0.336 -0.5627  1.0171  1.9031
  929MOL0     H25379  -1.146   3.995   0.107 -0.0367  0.0352  1.9949
  929MOL0     H25380  -1.240   3.921   0.243  1.5641  3.5920  2.0807
  929MOL0     H25381  -1.387   3.841   0.043  0.4961  3.0017  0.3467
  929MOL0     H25382  -1.229   3.864  -0.040  0.2588  2.2359  0.9335
  929MOL0     H25383  -1.106   3.739   0.134 -0.6089 -0.6679  3.3520
  929MOL0     H25384  -1.252   3.684   0.204  0.8741  2.1943  0.4435
  929MOL0     H25385  -1.250   3.648  -0.092 -1.1791 -1.3046 -0.8994
  929MOL0     H25386  -1.308   3.542   0.044 -0.3243  2.9484  2.5811
  929MOL0     H25387  -1.120   3.468   0.107  0.6581  1.5715  1.1989
  929MOL0     H25388  -1.034   3.576  -0.018 -0.7227  1.6196  2.2063
  929MOL0     H25389  -1.160   3.454  -0.198  1.7927 -0.7247 -0.3870
  929MOL0     H25390  -1.040   3.358  -0.123  0.1123  0.5504 -2.9737
  929MOL0     H25391  -1.345   3.350  -0.075 -0.6075 -0.4784 -0.0416
  929MOL0     H25392  -1.234   3.251   0.018  0.9947 -4.7267 -2.4161
  929MOL0     H25393  -1.275   3.255  -0.277 -0.5733 -2.1782  0.2255
  929MOL0     H25394  -1.137   3.175  -0.213  0.8737  0.8962  2.5507
  929MOL0     H25395  -1.428   4.285   0.028 -0.0144  1.4063 -0.0534
  929MOL0     H25396  -1.381   4.515   0.130  1.5229  2.4429  1.7028
  929MOL0     H25397  -1.201   4.671   0.546 -1.2718 -2.4522  2.5264
  929MOL0     H25398  -1.168   4.852   0.712 -1.2144 -1.3638  1.5137
  929MOL0     H25399   0.056   5.344   1.736 -0.9616  0.9731 -0.2759
  929MOL0     H25400   0.222   5.391   1.548  0.0692 -0.5933 -1.7093
  929MOL0     H25401   0.361   5.396   1.135  1.7398 -1.2715  0.3024
  929MOL0     H25402   0.577   5.468   1.040  1.8403 -2.8387  4.1942
  929MOL0     H25403   0.770   5.648   1.212  2.4344 -0.1819 -0.6465
  929MOL0     H25404   0.769   5.822   1.208  1.4468  0.9830 -1.6739
  929MOL0     H25405   0.930   5.840   1.050  2.6195 -1.5810  2.1350
  929MOL0     H25406   0.891   5.670   0.985 -0.6292 -3.4907  1.6881
  929MOL0     H25407   1.005   5.610   1.223  1.8767 -0.9261 -0.7527
  929MOL0     H25408   1.021   5.780   1.238  1.0184  0.1170  0.0103
  929MOL0     H25409   1.170   5.766   1.012 -2.0787 -1.8305 -2.4530
  929MOL0     H25410   1.226   5.691   1.159 -1.1236  1.2270  1.2444
  929MOL0     H25411   1.170   5.347   0.951  1.3826  0.7307 -1.0641
  929MOL0     H25412   0.464   5.871   1.189 -1.2599 -0.1627 -0.0636
  929MOL0     H25413   0.159   5.823   1.293  0.2428  0.3564 -0.8756
  929MOL0     H25414   0.265   5.797   1.428  0.3207  4.0626  0.3453
  929MOL0     H25415   0.316   5.911   1.327  3.8008 -0.5038  0.2383
  930MOL0     O25416   2.329   5.989   9.771  0.9185  0.5768 -0.6957
  930MOL0     C25417   2.259   5.966   9.673  0.4718  0.2670  0.5243
  930MOL0     O25418   2.265   5.853   9.601  0.2098 -1.1849  1.2840
  930MOL0     C25419   2.384   5.787   9.593 -0.8456  0.5111 -0.5705
  930MOL0     C25420   2.457   5.781   9.466 -0.5349  0.3614 -0.0411
  930MOL0     C25421   2.567   5.695   9.445  0.3787 -0.1118  0.6368
  930MOL0     C25422   2.627   5.636   9.557  0.0524 -0.3812  0.5934
  930MOL0     O25423   2.747   5.562   9.548 -0.1936  0.0363 -0.9307
  930MOL0     C25424   2.798   5.528   9.422  1.0964 -0.1823  1.0504
  930MOL0     C25425   2.719   5.402   9.384  0.1505 -0.1541 -1.3235
  930MOL0     C25426   2.783   5.321   9.280 -0.1201 -0.4811  0.4124
  930MOL0     C25427   2.891   5.223   9.326  0.0660 -0.0658  0.2646
  930MOL0     C25428   2.923   5.118   9.231  0.3450  0.3817 -0.4048
  930MOL0     C25429   2.993   5.172   9.102  0.0790 -0.7339  0.2209
  930MOL0     C25430   3.002   5.042   9.010  0.3466 -0.2310 -0.2582
  930MOL0     C25431   3.095   5.066   8.881 -0.1812 -0.2891 -0.1868
  930MOL0     N25432   3.226   5.134   8.917 -0.2787 -0.4222  0.7282
  930MOL0     C25433   3.340   5.075   8.971 -0.5923  0.4833 -0.5967
  930MOL0     C25434   3.424   5.174   8.977  0.5415 -0.7034 -0.0863
  930MOL0     C25435   3.563   5.152   9.003 -0.1125 -0.3017  0.4170
  930MOL0     C25436   3.625   5.057   8.896  0.4323 -0.0080  0.4077
  930MOL0     C25437   3.776   5.042   8.897  0.4111  0.2471 -0.1591
  930MOL0     C25438   3.826   5.001   9.035 -0.5063  0.7176 -0.0488
  930MOL0     O25439   3.786   4.864   9.056  0.8635  0.0693  0.0322
  930MOL0     C25440   3.676   4.838   9.131 -0.6269  0.3471 -0.9170
  930MOL0     C25441   3.638   4.908   9.247 -0.1804  0.7728  0.1634
  930MOL0     C25442   3.523   4.874   9.314  0.8388 -0.6981  0.0568
  930MOL0     C25443   3.440   4.769   9.268 -0.5191  0.5667 -0.7790
  930MOL0     C25444   3.319   4.720   9.348  0.0933 -0.0613 -0.6148
  930MOL0     O25445   3.305   4.776   9.473  0.6241  0.0372  0.1003
  930MOL0     C25446   3.199   4.735   9.545  0.6805 -0.9219 -0.5472
  930MOL0     C25447   3.085   4.821   9.556 -0.4275  0.3882  0.1753
  930MOL0     C25448   2.969   4.782   9.627 -0.7200 -1.0098 -0.2237
  930MOL0     C25449   2.968   4.663   9.690  0.3074  0.3684  0.5423
  930MOL0     O25450   2.867   4.612   9.774  0.7342 -0.5301 -0.0980
  930MOL0     C25451   2.753   4.697   9.793 -0.3982  0.8119  0.4718
  930MOL0     C25452   2.657   4.652   9.913  0.0239  1.9853 -0.0468
  930MOL0     C25453   2.542   4.544   9.873  0.1538 -0.2594 -0.2805
  930MOL0     C25454   2.424   4.621   9.800  0.7147  1.2351 -0.4572
  930MOL0     C25455   2.304   4.533   9.779 -0.5827  0.4659 -0.1486
  930MOL0     C25456   2.194   4.598   9.693 -0.2893  0.5476  0.0859
  930MOL0     C25457   2.056   4.557   9.725 -0.7559  0.0857 -0.3321
  930MOL0     C25458   2.001   4.609   9.861 -0.2290 -0.3534 -0.5083
  930MOL0    Cl25459   1.980   4.788   9.875 -0.1594 -0.3692  0.1633
  930MOL0     C25460   3.081   4.579   9.681  0.3608 -0.2297 -0.4111
  930MOL0     C25461   3.195   4.611   9.615  0.1388  0.2861  0.6423
  930MOL0     O25462   3.257   4.621   9.308  0.3212 -0.0533 -0.8309
  930MOL0     C25463   3.478   4.697   9.153  0.3113 -0.2641  0.3134
  930MOL0     C25464   3.600   4.726   9.089  0.7285 -0.7138 -0.6765
  930MOL0     N25465   3.368   5.291   8.933 -0.3282  0.2267 -0.3756
  930MOL0     N25466   3.244   5.274   8.897  0.9547  0.4784 -0.1622
  930MOL0     C25467   2.578   5.662   9.687  0.4703  0.2607 -0.1848
  930MOL0     C25468   2.450   5.726   9.696  0.4599  0.3083  0.7856
  930MOL0     C25469   2.165   6.066   9.630  0.7173 -0.5318  0.0488
  930MOL0     C25470   2.160   6.102   9.495  0.1995 -1.1331 -0.2241
  930MOL0     C25471   2.085   6.215   9.452 -0.0963 -0.2320  0.0600
  930MOL0     C25472   2.022   6.297   9.550 -0.4656  0.5948  0.3898
  930MOL0     O25473   1.946   6.409   9.526  0.6648  0.1164  0.3438
  930MOL0     C25474   1.929   6.462   9.391 -0.0463  0.2110  0.1132
  930MOL0     C25475   1.818   6.396   9.306  0.6141 -0.8322 -0.3258
  930MOL0     C25476   1.738   6.284   9.371  0.5191  0.2445 -0.2887
  930MOL0     C25477   1.655   6.218   9.258 -1.1557 -0.2339 -0.1288
  930MOL0     C25478   1.537   6.286   9.223  0.9887 -0.5290 -0.0986
  930MOL0     C25479   1.428   6.339   9.198  0.4049 -0.7587 -0.1068
  930MOL0     C25480   2.011   6.250   9.682 -1.0862 -0.2850  0.3204
  930MOL0     C25481   2.090   6.142   9.724  1.0277  0.7210  0.5061
  930MOL0     C25482   2.087   6.124   9.878  0.0258  0.3495 -0.3983
  930MOL0     H25483   2.407   5.828   9.381 -1.4777  0.3216  0.4870
  930MOL0     H25484   2.600   5.691   9.341 -3.5880  0.6741 -0.8307
  930MOL0     H25485   2.796   5.608   9.347  1.0468  0.0722  1.3204
  930MOL0     H25486   2.903   5.500   9.439  0.8772 -0.2620  2.4149
  930MOL0     H25487   2.616   5.420   9.350  0.3691 -1.2993 -2.6854
  930MOL0     H25488   2.713   5.346   9.477 -0.0563 -0.5431 -1.5711
  930MOL0     H25489   2.819   5.396   9.209 -1.5480  0.5484  0.7227
  930MOL0     H25490   2.712   5.262   9.221  2.2713 -1.5546 -1.5825
  930MOL0     H25491   2.977   5.289   9.336 -0.2899  0.3334  0.8041
  930MOL0     H25492   2.870   5.182   9.426  5.8302 -1.4862  1.2574
  930MOL0     H25493   2.991   5.056   9.290 -0.2813 -0.7221 -0.8143
  930MOL0     H25494   2.841   5.051   9.203  1.2754 -0.7977 -0.3980
  930MOL0     H25495   2.928   5.248   9.058 -0.5022 -3.2593 -3.7549
  930MOL0     H25496   3.093   5.212   9.122 -0.8263  1.7787  0.0804
  930MOL0     H25497   2.901   5.018   8.973  0.6548 -0.8203 -0.7405
  930MOL0     H25498   3.044   4.964   9.074  3.9014 -0.0016 -2.0617
  930MOL0     H25499   3.112   4.969   8.832  2.7386  0.0262  0.0183
  930MOL0     H25500   3.039   5.130   8.812  2.1260 -1.4973 -3.4503
  930MOL0     H25501   3.332   4.973   9.007  0.5341  1.0855  1.5247
  930MOL0     H25502   3.619   5.246   8.995  4.9503 -3.1324 -1.9126
  930MOL0     H25503   3.583   5.116   9.104 -2.2360  1.7614  1.6872
  930MOL0     H25504   3.586   4.955   8.901 -3.9904  0.6919 -6.3032
  930MOL0     H25505   3.584   5.094   8.801 -3.5158  0.9359  2.2897
  930MOL0     H25506   3.840   5.129   8.875  4.4126 -2.4173 -0.0269
  930MOL0     H25507   3.796   4.961   8.826 -0.3725 -0.3376  0.2717
  930MOL0     H25508   3.799   5.067   9.118 -1.3019 -0.5090  0.6961
  930MOL0     H25509   3.935   5.003   9.027 -0.4613  0.8994  0.5776
  930MOL0     H25510   3.707   4.990   9.262 -0.0476  1.4463 -3.2922
  930MOL0     H25511   3.504   4.936   9.401 -0.2630 -2.6615  1.2871
  930MOL0     H25512   3.090   4.914   9.500 -1.5185 -0.3699 -1.2329
  930MOL0     H25513   2.883   4.848   9.618  0.0197  0.1378  0.7260
  930MOL0     H25514   2.806   4.787   9.826  2.3089 -0.6913  0.5514
  930MOL0     H25515   2.682   4.703   9.711  0.8176 -0.2938 -0.7147
  930MOL0     H25516   2.721   4.617   9.994  0.5022  1.5852 -0.5942
  930MOL0     H25517   2.599   4.736   9.952 -3.2200  0.0150 -0.2716
  930MOL0     H25518   2.598   4.486   9.799  0.2781 -0.3717 -0.0980
  930MOL0     H25519   2.509   4.474   9.950 -1.3718  1.4232  0.6695
  930MOL0     H25520   2.468   4.669   9.712  3.1971 -1.1470 -0.6618
  930MOL0     H25521   2.392   4.695   9.873 -2.5496 -1.5558  1.2122
  930MOL0     H25522   2.267   4.524   9.882 -2.0139  3.6219 -0.2603
  930MOL0     H25523   2.341   4.434   9.751  1.8359  0.6840  1.8664
  930MOL0     H25524   2.211   4.705   9.704  1.9808  0.2256  0.1622
  930MOL0     H25525   2.204   4.569   9.588 -0.3371 -1.1918  0.5197
  930MOL0     H25526   2.047   4.449   9.715  1.0006  0.0237 -1.6291
  930MOL0     H25527   1.984   4.601   9.655 -1.9920 -0.4767  0.5379
  930MOL0     H25528   1.908   4.559   9.888 -0.0980  0.3739  1.4206
  930MOL0     H25529   2.062   4.591   9.950  1.3705  2.0759 -1.0238
  930MOL0     H25530   3.061   4.483   9.726 -3.9279  1.8276  2.8995
  930MOL0     H25531   3.280   4.543   9.606 -2.1194 -2.4371 -1.8500
  930MOL0     H25532   3.420   4.613   9.115  0.6291  0.1457 -1.1556
  930MOL0     H25533   3.635   4.665   9.007  1.9698 -1.1177  0.1173
  930MOL0     H25534   2.615   5.619   9.779  1.1455  4.8404  1.9964
  930MOL0     H25535   2.392   5.731   9.788 -0.0110  1.6627  0.4354
  930MOL0     H25536   2.210   6.040   9.422  0.1708 -3.2954  1.5089
  930MOL0     H25537   2.070   6.235   9.346  0.0898  0.8255  0.2164
  930MOL0     H25538   2.014   6.469   9.323  0.1296 -1.0031  0.1843
  930MOL0     H25539   1.909   6.568   9.412 -0.8488 -0.4122  2.9397
  930MOL0     H25540   1.863   6.362   9.212  0.6040  0.8424 -0.9771
  930MOL0     H25541   1.755   6.479   9.271  0.1477 -1.7492 -1.7473
  930MOL0     H25542   1.666   6.332   9.438  1.3644 -2.4102  2.7225
  930MOL0     H25543   1.796   6.215   9.432  1.4600  1.9816  0.8520
  930MOL0     H25544   1.700   6.207   9.159 -0.2980 -0.2180  0.2466
  930MOL0     H25545   1.624   6.121   9.296 -0.2674 -1.0551 -1.4111
  930MOL0     H25546   1.327   6.371   9.183  0.6354 -0.7411 -1.8032
  930MOL0     H25547   1.953   6.298   9.760 -1.5590  1.0632 -0.8247
  930MOL0     H25548   2.037   6.030   9.905  1.3582 -0.3144 -0.1721
  930MOL0     H25549   2.188   6.129   9.919 -0.0131 -0.4035 -0.2038
  930MOL0     H25550   2.032   6.206   9.925 -2.5814 -2.4942  1.9628
  931MOL0     O25551   6.857   4.177   3.807 -0.0488  0.4224  1.1188
  931MOL0     C25552   6.876   4.291   3.853  0.5841  0.1244  0.0192
  931MOL0     O25553   6.807   4.396   3.808 -0.4258 -0.2529  0.9783
  931MOL0     C25554   6.710   4.400   3.717 -0.5483 -0.2292 -0.3750
  931MOL0     C25555   6.691   4.523   3.649 -1.2288 -1.0526 -0.4162
  931MOL0     C25556   6.595   4.524   3.552  0.4986 -0.2774  0.5503
  931MOL0     C25557   6.511   4.419   3.533  0.3937 -0.8815  0.3097
  931MOL0     O25558   6.411   4.414   3.438  0.0338  0.2608  0.3484
  931MOL0     C25559   6.416   4.484   3.312 -0.2990  1.0173 -0.8701
  931MOL0     C25560   6.287   4.475   3.242  0.0660  0.3582 -0.7204
  931MOL0     C25561   6.277   4.562   3.117 -0.5991  0.0150  0.0568
  931MOL0     C25562   6.159   4.539   3.025 -0.3833  0.5534 -0.8549
  931MOL0     C25563   6.170   4.630   2.907  0.0957  0.4800  0.0231
  931MOL0     C25564   6.074   4.594   2.801 -0.3403 -0.4719 -0.1001
  931MOL0     C25565   6.121   4.643   2.656 -0.6945  0.5382  0.1225
  931MOL0     C25566   6.051   4.557   2.547 -0.2377 -0.3662 -0.4450
  931MOL0     N25567   6.106   4.422   2.540  0.4119  0.6105  0.4694
  931MOL0     C25568   6.054   4.309   2.468 -0.6520  0.2499 -0.1343
  931MOL0     C25569   6.134   4.207   2.519 -0.0076  0.2148  0.5010
  931MOL0     C25570   6.131   4.060   2.471 -0.5236  0.0875  0.4291
  931MOL0     C25571   5.992   3.995   2.513  1.0652 -0.2993  0.7368
  931MOL0     C25572   5.984   3.854   2.447  0.0115 -0.5232  0.8274
  931MOL0     C25573   5.846   3.788   2.464 -0.0108  0.7639  0.0779
  931MOL0     O25574   5.740   3.883   2.428 -0.6102  1.2061  0.1089
  931MOL0     C25575   5.608   3.857   2.473  0.9101 -0.4426 -0.1701
  931MOL0     C25576   5.546   3.733   2.494 -0.0402 -0.1240  0.2615
  931MOL0     C25577   5.415   3.728   2.522 -0.3440  0.3363  0.4052
  931MOL0     C25578   5.333   3.843   2.540 -0.3753  0.9930 -0.4726
  931MOL0     C25579   5.186   3.836   2.589 -0.1637 -0.1676 -0.6994
  931MOL0     O25580   5.124   3.956   2.613  0.0281 -0.4369  0.6918
  931MOL0     C25581   5.005   3.945   2.668 -0.2753  0.0116 -0.2026
  931MOL0     C25582   4.888   3.982   2.602  0.7138 -0.0525  0.1432
  931MOL0     C25583   4.777   4.012   2.673 -0.0898  0.0899 -0.9025
  931MOL0     C25584   4.774   3.996   2.817 -0.6658 -0.2429  0.5187
  931MOL0     O25585   4.667   4.032   2.881  0.4436 -0.1686 -0.0839
  931MOL0     C25586   4.582   3.933   2.937 -0.2023 -0.0676 -0.6356
  931MOL0     C25587   4.469   3.892   2.840  0.4362 -1.3440 -0.7604
  931MOL0     C25588   4.401   4.025   2.798 -0.0698  0.2436 -0.6455
  931MOL0     C25589   4.300   3.997   2.690  0.3748 -0.2023 -0.2183
  931MOL0     C25590   4.165   4.015   2.753 -1.2950  0.5418 -0.9783
  931MOL0     C25591   4.050   4.044   2.661  0.2986 -0.0122  0.2794
  931MOL0     C25592   3.992   3.916   2.593  0.0908 -0.2728 -0.6454
  931MOL0     C25593   3.896   3.832   2.674  0.5757  0.2896  0.3847
  931MOL0    Cl25594   3.795   3.724   2.569  0.1361 -0.1359  0.6124
  931MOL0     C25595   4.887   3.946   2.878  0.7156  0.6977 -0.2897
  931MOL0     C25596   5.005   3.918   2.807 -0.1490 -0.4688  0.7021
  931MOL0     O25597   5.139   3.724   2.605  0.0711 -0.0122 -0.1166
  931MOL0     C25598   5.397   3.964   2.517  0.0954  0.5970  0.1762
  931MOL0     C25599   5.528   3.975   2.483 -0.2545  0.5582  0.5321
  931MOL0     N25600   6.231   4.259   2.595  0.1745 -0.0222  0.2632
  931MOL0     N25601   6.211   4.382   2.607 -0.5522 -0.5198  0.4329
  931MOL0     C25602   6.513   4.309   3.617  1.5715 -0.3378  0.2841
  931MOL0     C25603   6.612   4.292   3.707  0.0711 -0.6501  0.5398
  931MOL0     C25604   6.970   4.316   3.963  0.6218 -0.6470 -0.1344
  931MOL0     C25605   6.924   4.416   4.054 -0.4507  0.8831 -0.0521
  931MOL0     C25606   6.985   4.435   4.178  0.0128 -0.7866  0.4507
  931MOL0     C25607   7.096   4.354   4.208 -0.2629 -0.4833 -0.8015
  931MOL0     O25608   7.168   4.366   4.328 -0.4236  0.3183  0.3373
  931MOL0     C25609   7.114   4.426   4.446  0.1427 -1.3322  0.3114
  931MOL0     C25610   7.184   4.565   4.463  0.9605 -1.1127  0.0889
  931MOL0     C25611   7.198   4.617   4.604 -0.9692  0.2300 -0.0926
  931MOL0     C25612   7.094   4.587   4.708  1.5893 -0.2297 -0.7925
  931MOL0     C25613   7.113   4.462   4.785 -0.6713 -0.6750  0.1717
  931MOL0     C25614   7.115   4.371   4.867 -0.7308  0.0602  0.9892
  931MOL0     C25615   7.141   4.265   4.107 -0.9314 -0.2129 -0.5470
  931MOL0     C25616   7.076   4.230   3.995  0.5192 -0.9497 -0.2711
  931MOL0     C25617   7.129   4.129   3.902 -0.0790 -0.1929 -0.4048
  931MOL0     H25618   6.768   4.596   3.668  0.5750 -3.6585  3.8682
  931MOL0     H25619   6.578   4.607   3.484 -1.4458 -1.2583 -0.2486
  931MOL0     H25620   6.430   4.589   3.339 -0.7246  0.9759 -0.4691
  931MOL0     H25621   6.498   4.443   3.251 -1.0472  0.0114 -1.2322
  931MOL0     H25622   6.208   4.504   3.312  0.6395 -1.6920  0.8583
  931MOL0     H25623   6.275   4.369   3.218 -0.0097 -0.4193  2.3101
  931MOL0     H25624   6.363   4.538   3.054 -1.9859 -2.5218 -1.0056
  931MOL0     H25625   6.278   4.668   3.146  3.6628  0.0870  0.2480
  931MOL0     H25626   6.159   4.431   3.006  3.6876  0.4921 -1.3327
  931MOL0     H25627   6.072   4.561   3.088  0.4749 -1.3571  1.1288
  931MOL0     H25628   6.134   4.722   2.955  0.1168 -0.5597  2.1720
  931MOL0     H25629   6.274   4.642   2.877  1.2159  0.5849  3.4795
  931MOL0     H25630   6.054   4.487   2.795  2.9499 -1.1320 -4.2678
  931MOL0     H25631   5.980   4.645   2.823 -0.5977 -0.6944 -0.6812
  931MOL0     H25632   6.226   4.614   2.649 -0.7822 -0.0194  0.9478
  931MOL0     H25633   6.103   4.750   2.642  2.9451  1.4960  1.7600
  931MOL0     H25634   5.942   4.559   2.553 -0.2221  0.3514 -0.2921
  931MOL0     H25635   6.072   4.612   2.455  1.8232  1.3354  0.9302
  931MOL0     H25636   5.989   4.295   2.382  1.0284 -1.4318 -1.2015
  931MOL0     H25637   6.171   4.043   2.370  2.0603 -0.7625  1.5151
  931MOL0     H25638   6.200   4.010   2.539 -0.1769  1.7028  1.3075
  931MOL0     H25639   5.984   3.980   2.621 -0.8108  1.0394  0.8386
  931MOL0     H25640   5.901   4.053   2.493 -0.0669 -2.0502  0.5789
  931MOL0     H25641   6.058   3.781   2.483  1.9769  1.6733  1.5067
  931MOL0     H25642   6.003   3.876   2.342 -1.6197  3.0815  1.1490
  931MOL0     H25643   5.835   3.760   2.569 -1.8127 -0.7610 -0.4534
  931MOL0     H25644   5.830   3.703   2.397  0.1268  3.5513 -3.7840
  931MOL0     H25645   5.609   3.647   2.478  1.1296  0.1243  2.9912
  931MOL0     H25646   5.376   3.628   2.539  0.8113 -0.4614 -1.3722
  931MOL0     H25647   4.892   3.991   2.494 -1.8250 -0.4096 -0.0407
  931MOL0     H25648   4.687   4.054   2.629 -0.6392  0.3068  0.3744
  931MOL0     H25649   4.641   3.842   2.955  1.1303  0.5921 -1.4982
  931MOL0     H25650   4.555   3.972   3.036 -2.6372 -2.3886 -0.2666
  931MOL0     H25651   4.501   3.847   2.746  2.0003 -2.4723  0.2559
  931MOL0     H25652   4.391   3.833   2.889  0.4698 -0.7123  0.0845
  931MOL0     H25653   4.362   4.065   2.892 -0.3343  1.7450 -1.3682
  931MOL0     H25654   4.471   4.098   2.759  1.3871  1.1329  3.1696
  931MOL0     H25655   4.297   3.898   2.645 -1.7273 -0.6435  0.7766
  931MOL0     H25656   4.314   4.068   2.608  1.9304 -1.4094 -1.0433
  931MOL0     H25657   4.174   4.100   2.821  0.4706 -0.7946  0.5600
  931MOL0     H25658   4.140   3.929   2.816  3.3365 -0.6265 -0.3982
  931MOL0     H25659   3.978   4.100   2.721  0.2298 -0.9958  1.1412
  931MOL0     H25660   4.094   4.117   2.591 -4.2401  1.2387 -1.6424
  931MOL0     H25661   4.068   3.848   2.553 -0.6553 -1.0491 -0.7774
  931MOL0     H25662   3.938   3.945   2.502 -1.8059  1.9057  1.0704
  931MOL0     H25663   3.941   3.768   2.750  1.7673 -0.1331 -0.6280
  931MOL0     H25664   3.829   3.900   2.726  1.3893  2.8345 -1.6651
  931MOL0     H25665   4.865   3.914   2.979 -0.3156 -1.6700 -1.1722
  931MOL0     H25666   5.097   3.888   2.856  1.7646  0.9880 -1.7283
  931MOL0     H25667   5.329   4.049   2.519 -3.7675 -2.2534  0.5137
  931MOL0     H25668   5.567   4.074   2.461  1.7277 -0.4678 -0.8971
  931MOL0     H25669   6.456   4.221   3.590  3.2269 -1.2284 -0.5209
  931MOL0     H25670   6.618   4.197   3.761 -3.4457  0.4364  3.2016
  931MOL0     H25671   6.840   4.481   4.031 -2.3748 -0.9337  1.4085
  931MOL0     H25672   6.950   4.513   4.245 -1.2522 -0.8828 -0.0726
  931MOL0     H25673   7.144   4.364   4.532  1.0338 -2.5822 -0.8520
  931MOL0     H25674   7.005   4.421   4.440 -0.2267  3.2393  0.0520
  931MOL0     H25675   7.122   4.636   4.407  0.6944 -1.0072  0.5107
  931MOL0     H25676   7.277   4.573   4.406  1.5032 -2.0115  0.8217
  931MOL0     H25677   7.211   4.725   4.591  3.9699 -0.2785 -1.1684
  931MOL0     H25678   7.291   4.584   4.651 -2.0194  0.7328  2.5382
  931MOL0     H25679   7.099   4.669   4.779  2.4121 -1.1655  0.2508
  931MOL0     H25680   6.997   4.576   4.659  2.4295 -0.4400 -2.5070
  931MOL0     H25681   7.085   4.299   4.941 -2.9268 -0.7404 -0.5689
  931MOL0     H25682   7.226   4.209   4.143  0.7420  2.7535  0.4516
  931MOL0     H25683   7.052   4.059   3.868 -0.7570 -0.1879  1.0385
  931MOL0     H25684   7.181   4.177   3.818 -0.0710  1.0230  0.2698
  931MOL0     H25685   7.199   4.062   3.953 -0.6180 -0.4774 -0.0194
  932MOL0     O25686   2.549   8.730   9.861 -0.0282 -0.5732  0.5206
  932MOL0     C25687   2.627   8.646   9.901 -0.6144  1.0232  0.4685
  932MOL0     O25688   2.707   8.660  10.012 -0.8220  1.0048  0.5974
  932MOL0     C25689   2.789   8.772  10.034 -0.2538  0.3230  0.6838
  932MOL0     C25690   2.882   8.771  10.138 -0.4995 -0.4590 -0.2008
  932MOL0     C25691   2.957   8.877  10.179  0.1181 -0.0574  0.3489
  932MOL0     C25692   2.941   8.996  10.104 -0.4410  0.2555  0.5439
  932MOL0     O25693   3.011   9.107  10.146  0.2151  0.0163 -0.1946
  932MOL0     C25694   2.957   9.203  10.235  0.4276  0.0881 -0.9511
  932MOL0     C25695   3.064   9.297  10.298 -0.5088  0.3478 -0.7485
  932MOL0     C25696   3.144   9.203  10.398 -0.1168 -0.6820  0.1000
  932MOL0     C25697   3.270   9.257  10.466  0.1777 -0.2470 -0.1460
  932MOL0     C25698   3.360   9.325  10.371 -0.0582 -0.4779  0.3986
  932MOL0     C25699   3.510   9.289  10.386 -0.1685 -0.6551 -0.7692
  932MOL0     C25700   3.563   9.374  10.507 -0.2861  0.1448 -0.9153
  932MOL0     C25701   3.691   9.308  10.561 -0.5510 -0.0923  0.1412
  932MOL0     N25702   3.801   9.317  10.468 -0.7065  0.0577  0.1237
  932MOL0     C25703   3.845   9.424  10.405 -0.1291 -0.8627  0.2274
  932MOL0     C25704   3.961   9.392  10.340  0.5168  0.1804 -1.3517
  932MOL0     C25705   4.045   9.468  10.248 -0.9940  0.1735  0.9432
  932MOL0     C25706   3.996   9.603  10.188  0.6533 -0.3445  0.0017
  932MOL0     C25707   4.104   9.694  10.123 -0.9077  0.9287  0.3762
  932MOL0     C25708   4.130   9.675   9.973  0.2051 -0.4121 -0.2592
  932MOL0     O25709   4.197   9.551   9.952  0.5310 -0.0866  0.4027
  932MOL0     C25710   4.275   9.535   9.835 -0.0943 -0.4499 -0.3670
  932MOL0     C25711   4.275   9.619   9.716 -0.3272  1.2429  0.0044
  932MOL0     C25712   4.380   9.604   9.629  0.2343 -0.3193  0.8299
  932MOL0     C25713   4.484   9.516   9.635  0.6559 -0.4723  0.0899
  932MOL0     C25714   4.584   9.497   9.529  1.3018  0.5491  1.1361
  932MOL0     O25715   4.572   9.563   9.405  0.3757  0.2228  0.3556
  932MOL0     C25716   4.626   9.516   9.287 -0.2922  0.5155 -0.3142
  932MOL0     C25717   4.636   9.372   9.252 -0.1590 -0.2335  0.6541
  932MOL0     C25718   4.710   9.331   9.142 -0.1149 -0.5664  0.5983
  932MOL0     C25719   4.758   9.428   9.057 -1.3697 -0.1463  0.7580
  932MOL0     O25720   4.827   9.380   8.941  0.2541  0.2181 -0.3540
  932MOL0     C25721   4.748   9.387   8.824 -0.1932  0.1110  1.0279
  932MOL0     C25722   4.842   9.394   8.705  0.5895 -0.2363  0.2077
  932MOL0     C25723   4.770   9.448   8.579  0.1558  0.4923 -0.4420
  932MOL0     C25724   4.776   9.591   8.538  0.5174  0.0643 -0.7323
  932MOL0     C25725   4.911   9.631   8.475  0.0991  1.0638 -0.0359
  932MOL0     C25726   4.905   9.775   8.427 -0.1492  0.0792 -0.7449
  932MOL0     C25727   4.878   9.858   8.555 -0.6346 -0.4399 -0.6719
  932MOL0     C25728   4.923  10.005   8.525  0.3422  0.1592 -0.0945
  932MOL0    Cl25729   4.891  10.095   8.669  0.3796  0.3500  0.6054
  932MOL0     C25730   4.729   9.559   9.071 -0.8584 -0.8426  0.1508
  932MOL0     C25731   4.673   9.610   9.191 -0.7855  0.7304 -0.5232
  932MOL0     O25732   4.670   9.413   9.546  0.3419 -0.4570  0.4693
  932MOL0     C25733   4.467   9.428   9.740 -0.3528  0.2049 -0.6501
  932MOL0     C25734   4.366   9.436   9.836 -0.3667  0.0382 -0.7919
  932MOL0     N25735   3.992   9.267  10.385  0.3280  0.5060  0.0847
  932MOL0     N25736   3.897   9.228  10.465 -1.0569 -0.0590  0.0409
  932MOL0     C25737   2.857   9.006   9.996 -0.2856  0.2749 -0.1282
  932MOL0     C25738   2.787   8.895   9.956  0.5588  0.1902 -0.2386
  932MOL0     C25739   2.636   8.520   9.821 -0.3894 -0.4792  0.0658
  932MOL0     C25740   2.540   8.488   9.725  0.2891 -0.2677  0.7159
  932MOL0     C25741   2.547   8.379   9.632  0.5432 -0.1766 -0.6751
  932MOL0     C25742   2.661   8.303   9.633  0.5430 -0.1220  0.2731
  932MOL0     O25743   2.678   8.190   9.562 -0.5280  0.7348  0.3121
  932MOL0     C25744   2.579   8.141   9.464 -0.4811 -0.3866 -0.4931
  932MOL0     C25745   2.587   7.983   9.461 -0.1381  0.6331 -0.3088
  932MOL0     C25746   2.698   7.942   9.364  0.4314  0.1512  0.8562
  932MOL0     C25747   2.842   7.947   9.425 -0.6820  0.1446  0.1146
  932MOL0     C25748   2.941   7.871   9.351  0.3366  0.0747 -0.3195
  932MOL0     C25749   3.036   7.799   9.309  1.7325  0.0805  0.8464
  932MOL0     C25750   2.768   8.330   9.715 -0.5483  1.1099 -0.2299
  932MOL0     C25751   2.748   8.434   9.808 -0.6712  0.5633  0.8025
  932MOL0     C25752   2.868   8.470   9.889 -0.1788 -0.1298  0.2140
  932MOL0     H25753   2.884   8.681  10.199  0.5986 -0.5228 -0.3057
  932MOL0     H25754   3.017   8.881  10.269  0.1591 -0.7277  0.3546
  932MOL0     H25755   2.891   9.273  10.182  2.3672  4.4162  1.7419
  932MOL0     H25756   2.910   9.157  10.322  3.8153 -1.0015  0.4623
  932MOL0     H25757   3.019   9.374  10.361  0.8363 -0.9554  1.9724
  932MOL0     H25758   3.119   9.348  10.218  0.3878  5.0560  2.4779
  932MOL0     H25759   3.174   9.116  10.338 -0.5201 -1.1875  0.6156
  932MOL0     H25760   3.080   9.154  10.472 -1.1326 -0.5082 -0.6407
  932MOL0     H25761   3.261   9.322  10.553  2.0414  1.9297 -1.4545
  932MOL0     H25762   3.313   9.164  10.504  1.6263  0.1670 -0.7046
  932MOL0     H25763   3.343   9.294  10.268  1.9788 -0.9997  0.1769
  932MOL0     H25764   3.348   9.429  10.403  0.0592 -0.4719  0.4221
  932MOL0     H25765   3.529   9.183  10.400  4.3911 -0.1759 -1.7909
  932MOL0     H25766   3.557   9.311  10.290 -1.9486  2.3175 -1.1105
  932MOL0     H25767   3.487   9.358  10.584 -1.3659 -1.9762 -2.3252
  932MOL0     H25768   3.569   9.482  10.489 -0.7897 -0.1249 -2.9562
  932MOL0     H25769   3.724   9.351  10.656  1.9850  0.7257 -1.0033
  932MOL0     H25770   3.664   9.207  10.593  1.8718 -1.2496 -1.1767
  932MOL0     H25771   3.797   9.517  10.380  3.1047 -0.2249 -5.0199
  932MOL0     H25772   4.148   9.478  10.283 -0.4959  0.2112 -0.4684
  932MOL0     H25773   4.054   9.394  10.168  1.5450 -0.0108  1.3193
  932MOL0     H25774   3.923   9.579  10.111  1.1161  1.8942 -1.2086
  932MOL0     H25775   3.943   9.654  10.269 -1.4788 -0.6858 -1.1129
  932MOL0     H25776   4.198   9.674  10.175 -0.1056  1.9371 -0.6390
  932MOL0     H25777   4.084   9.802  10.122 -0.5585  1.0442 -2.3473
  932MOL0     H25778   4.196   9.754   9.935 -0.1187  0.1638  0.3706
  932MOL0     H25779   4.038   9.675   9.913 -0.2998 -1.9523  0.4552
  932MOL0     H25780   4.199   9.693   9.692 -0.7156 -0.1330 -3.4754
  932MOL0     H25781   4.368   9.669   9.542 -0.9942 -0.6706  0.7120
  932MOL0     H25782   4.599   9.306   9.330 -1.1776  1.6152  1.7816
  932MOL0     H25783   4.730   9.231   9.106 -1.6159 -1.0162  0.9558
  932MOL0     H25784   4.698   9.290   8.821 -2.3283  1.1365  1.5929
  932MOL0     H25785   4.677   9.469   8.831 -1.7191 -0.9884 -0.5421
  932MOL0     H25786   4.934   9.450   8.722  0.8297 -0.4439 -0.3680
  932MOL0     H25787   4.872   9.291   8.681 -2.6376 -0.9049 -1.5785
  932MOL0     H25788   4.807   9.391   8.493  0.2010  1.6588 -1.2127
  932MOL0     H25789   4.663   9.431   8.595 -0.0510  1.4304 -0.7793
  932MOL0     H25790   4.750   9.648   8.628 -2.8975 -1.1043 -0.7996
  932MOL0     H25791   4.694   9.605   8.467  1.2362  3.1637 -1.0813
  932MOL0     H25792   4.939   9.573   8.387 -2.5567 -0.9631  0.3331
  932MOL0     H25793   4.997   9.616   8.541  1.7710 -0.3633 -2.4336
  932MOL0     H25794   5.010   9.788   8.399  0.5494  1.6948  2.1416
  932MOL0     H25795   4.834   9.794   8.347 -2.3673 -3.6817  0.0740
  932MOL0     H25796   4.925   9.820   8.646 -2.1218 -0.4839  0.1094
  932MOL0     H25797   4.772   9.856   8.580 -0.3529  0.7384  0.7454
  932MOL0     H25798   5.031  10.009   8.505  0.3563  0.6143  0.0728
  932MOL0     H25799   4.880  10.048   8.434  1.2606 -0.4525 -0.8340
  932MOL0     H25800   4.764   9.620   8.988 -1.3505  2.1818  1.9846
  932MOL0     H25801   4.664   9.715   9.217  0.0316  0.8440 -0.6774
  932MOL0     H25802   4.540   9.347   9.745  2.8368  2.5014 -4.4325
  932MOL0     H25803   4.384   9.372   9.922 -3.1686  2.6459  1.9822
  932MOL0     H25804   2.837   9.103   9.952 -4.4716  1.7043  4.1289
  932MOL0     H25805   2.730   8.900   9.864  1.9399  0.1232 -1.1115
  932MOL0     H25806   2.449   8.546   9.711 -0.9980 -2.5116 -1.1956
  932MOL0     H25807   2.465   8.360   9.563  0.4438  0.1214 -0.6425
  932MOL0     H25808   2.581   8.191   9.367 -1.2670 -0.8980 -0.7849
  932MOL0     H25809   2.480   8.158   9.507 -0.8414 -1.7536 -0.7622
  932MOL0     H25810   2.490   7.947   9.426 -2.2949  0.5203  4.9721
  932MOL0     H25811   2.595   7.951   9.565 -0.4717  0.1175 -0.4345
  932MOL0     H25812   2.698   8.012   9.279 -2.2182  2.9247  2.8835
  932MOL0     H25813   2.668   7.844   9.326 -2.1563  0.4279  1.9179
  932MOL0     H25814   2.866   8.054   9.425 -2.7618  0.7091  2.0182
  932MOL0     H25815   2.835   7.925   9.532  1.0428  0.6543  0.3584
  932MOL0     H25816   3.117   7.743   9.267 -0.6056 -0.3588 -3.6622
  932MOL0     H25817   2.846   8.257   9.732 -1.6813 -0.7055 -2.2605
  932MOL0     H25818   2.850   8.462   9.997  0.5766 -0.3766  0.3206
  932MOL0     H25819   2.946   8.396   9.871  0.7241  0.6886  0.6853
  932MOL0     H25820   2.901   8.569   9.855  1.9505 -1.6544 -2.5639
  933MOL0     O25821   4.451   9.136  10.408 -0.0676  0.0479  0.1205
  933MOL0     C25822   4.558   9.092  10.354 -0.3197  0.0916 -0.1601
  933MOL0     O25823   4.670   9.050  10.419  0.6411 -0.0299 -0.4461
  933MOL0     C25824   4.667   9.016  10.556 -1.5923 -0.9909  0.3935
  933MOL0     C25825   4.554   8.984  10.632 -0.6680  0.3127  0.2198
  933MOL0     C25826   4.566   8.971  10.776 -0.7430  0.7550 -0.2511
  933MOL0     C25827   4.698   8.987  10.834 -0.1530  0.2934  0.4325
  933MOL0     O25828   4.735   8.963  10.964  0.4683 -0.2202  0.0834
  933MOL0     C25829   4.628   8.940  11.049  0.1894  0.8309 -0.5572
  933MOL0     C25830   4.671   8.938  11.199  0.0868  0.3891 -0.0091
  933MOL0     C25831   4.757   8.811  11.220 -0.2653  0.4472 -0.6724
  933MOL0     C25832   4.807   8.789  11.365  0.0975  0.2785 -0.7105
  933MOL0     C25833   4.930   8.878  11.387 -0.6044 -0.3434  0.6531
  933MOL0     C25834   4.987   8.879  11.534  0.5461  0.3919  1.2816
  933MOL0     C25835   5.117   8.967  11.548  0.4223 -0.5011 -0.1926
  933MOL0     C25836   5.095   9.125  11.559 -0.0158  0.1753  0.2687
  933MOL0     N25837   5.209   9.188  11.605  0.1105 -0.1269  0.0071
  933MOL0     C25838   5.343   9.156  11.575 -0.4092 -0.0716 -0.3612
  933MOL0     C25839   5.406   9.216  11.679  0.2769 -0.1499  0.0876
  933MOL0     C25840   5.560   9.227  11.699  0.0142  0.9129 -0.7153
  933MOL0     C25841   5.614   9.125  11.795  0.0954  0.1925  0.2724
  933MOL0     C25842   5.588   8.978  11.761  0.4682  0.3844  0.0526
  933MOL0     C25843   5.694   8.917  11.664 -0.2245  0.2757  0.5020
  933MOL0     O25844   5.700   8.972  11.529 -0.3114  0.2654 -1.0635
  933MOL0     C25845   5.615   8.935  11.432  0.7320  0.5409  0.3186
  933MOL0     C25846   5.498   8.857  11.430 -0.7890  0.4856 -0.1708
  933MOL0     C25847   5.428   8.824  11.313  1.6307 -0.6299 -0.2026
  933MOL0     C25848   5.457   8.888  11.193 -0.6700  0.2007  0.3226
  933MOL0     C25849   5.370   8.870  11.073 -0.0052  0.6509  0.1352
  933MOL0     O25850   5.430   8.879  10.953  0.1454  0.5175  0.1309
  933MOL0     C25851   5.348   8.882  10.848  0.7535 -0.2156  0.6093
  933MOL0     C25852   5.261   8.987  10.827  0.5210  0.3257 -0.0122
  933MOL0     C25853   5.184   9.005  10.707 -0.2015 -0.5871  0.0112
  933MOL0     C25854   5.188   8.901  10.620  0.5056 -0.2125 -0.0429
  933MOL0     O25855   5.120   8.914  10.495  0.0849  0.0422 -0.4941
  933MOL0     C25856   5.031   8.799  10.478 -0.3950 -0.4976 -0.1695
  933MOL0     C25857   5.041   8.748  10.331 -0.0871  0.0819  0.0138
  933MOL0     C25858   4.976   8.834  10.223  0.3856  0.3863  0.0410
  933MOL0     C25859   4.993   8.767  10.090  0.1222  0.4134  0.3492
  933MOL0     C25860   4.943   8.853   9.984 -0.3472  0.3469  0.2775
  933MOL0     C25861   4.949   8.779   9.854  0.3771 -1.1773 -0.2398
  933MOL0     C25862   5.079   8.751   9.798  0.0353 -0.1987  0.3349
  933MOL0     C25863   5.072   8.726   9.643 -0.3831 -0.2642 -0.4393
  933MOL0    Cl25864   4.999   8.573   9.629 -0.6915 -0.2579  0.0499
  933MOL0     C25865   5.269   8.795  10.650  0.4903  0.6128  0.7184
  933MOL0     C25866   5.359   8.781  10.750  0.7115  0.4343  0.3189
  933MOL0     O25867   5.256   8.848  11.096  0.2246 -0.0401 -0.3763
  933MOL0     C25868   5.578   8.963  11.183  0.2993 -0.0683  0.6123
  933MOL0     C25869   5.652   8.988  11.302 -0.0767  0.4669 -1.1779
  933MOL0     N25870   5.323   9.291  11.750 -0.6544 -0.0678  0.7192
  933MOL0     N25871   5.198   9.277  11.704 -0.4669 -0.8645  0.2754
  933MOL0     C25872   4.805   9.007  10.749  0.2928  0.1844 -1.5236
  933MOL0     C25873   4.792   9.029  10.613 -0.8014  0.1115  0.0506
  933MOL0     C25874   4.556   9.092  10.204 -0.3104 -0.6912  0.0842
  933MOL0     C25875   4.685   9.107  10.146  0.4288 -0.5400  0.7789
  933MOL0     C25876   4.705   9.111  10.007 -0.5868 -0.2828  0.4341
  933MOL0     C25877   4.592   9.103   9.925  0.3265 -0.5812  0.1540
  933MOL0     O25878   4.608   9.103   9.783 -0.1043  0.2180 -0.5615
  933MOL0     C25879   4.563   9.000   9.697 -0.3283  0.9247 -0.7391
  933MOL0     C25880   4.635   9.014   9.565 -0.4678 -0.6729 -0.9314
  933MOL0     C25881   4.606   8.918   9.460  0.4172  0.2466  0.0577
  933MOL0     C25882   4.649   8.773   9.517  0.4068 -0.6502  1.0939
  933MOL0     C25883   4.654   8.694   9.391  0.7176 -0.7032  0.4907
  933MOL0     C25884   4.651   8.635   9.282 -0.3051  0.5578  0.3085
  933MOL0     C25885   4.459   9.090   9.978  0.4356  0.1278 -0.4903
  933MOL0     C25886   4.440   9.079  10.119  0.0923 -0.3335  0.0607
  933MOL0     C25887   4.302   9.037  10.157  0.1192  0.4221 -0.2862
  933MOL0     H25888   4.468   8.949  10.576  0.6128  0.0551 -1.6506
  933MOL0     H25889   4.475   8.943  10.828  0.1997  0.3900  1.2692
  933MOL0     H25890   4.549   9.014  11.032  2.9079  4.4106  0.9594
  933MOL0     H25891   4.590   8.841  11.023  0.0691 -0.1894  2.9787
  933MOL0     H25892   4.587   8.916  11.266  0.2462 -1.6042 -0.3865
  933MOL0     H25893   4.711   9.035  11.230 -0.5212  0.9407 -0.9171
  933MOL0     H25894   4.849   8.819  11.162 -0.1661  0.6459 -0.4925
  933MOL0     H25895   4.708   8.722  11.180  2.5777 -0.8163 -1.5574
  933MOL0     H25896   4.726   8.821  11.432  0.9354  2.8845 -0.8215
  933MOL0     H25897   4.837   8.686  11.386  1.5122  0.5425 -1.3641
  933MOL0     H25898   5.019   8.843  11.334  0.5749  1.0634  1.6320
  933MOL0     H25899   4.921   8.979  11.345 -1.1341 -1.0116 -0.9081
  933MOL0     H25900   4.912   8.907  11.609 -0.6321 -0.0591  0.3010
  933MOL0     H25901   5.019   8.776  11.551  0.8029  0.4470  1.1362
  933MOL0     H25902   5.180   8.948  11.461 -0.6395  0.3584 -1.1868
  933MOL0     H25903   5.172   8.935  11.637 -0.9757 -1.1160  0.4702
  933MOL0     H25904   5.074   9.150  11.455 -0.5066  1.2073  0.5970
  933MOL0     H25905   5.011   9.153  11.623  0.9081 -0.4944  1.8478
  933MOL0     H25906   5.377   9.090  11.496  0.3342  0.6033 -0.6114
  933MOL0     H25907   5.615   9.226  11.604 -1.4781 -0.2591 -1.6275
  933MOL0     H25908   5.588   9.325  11.739 -1.4048  0.7931  0.6668
  933MOL0     H25909   5.720   9.151  11.792 -0.7416  4.3289 -0.4070
  933MOL0     H25910   5.576   9.145  11.896 -0.8999 -0.2397 -0.0010
  933MOL0     H25911   5.488   8.961  11.721  1.2637 -0.0751 -1.8644
  933MOL0     H25912   5.585   8.911  11.848 -0.6672 -0.6340 -0.7509
  933MOL0     H25913   5.663   8.813  11.651  1.3995 -0.2136  0.4295
  933MOL0     H25914   5.786   8.919  11.723 -0.1782  1.9600  0.4046
  933MOL0     H25915   5.461   8.807  11.518 -0.5220  0.6451  0.0339
  933MOL0     H25916   5.344   8.756  11.321  0.8948  0.3167  0.2539
  933MOL0     H25917   5.252   9.073  10.894 -0.2752  1.3982 -1.4389
  933MOL0     H25918   5.123   9.093  10.692  0.3718  0.2140  2.0053
  933MOL0     H25919   5.057   8.713  10.540  1.1576  1.0131  1.3848
  933MOL0     H25920   4.929   8.835  10.495 -0.7094 -0.5819 -1.6951
  933MOL0     H25921   5.149   8.735  10.322  0.2671  1.6408  1.4463
  933MOL0     H25922   4.991   8.651  10.334 -1.0299  0.3860 -3.0275
  933MOL0     H25923   4.869   8.844  10.241  0.9409  4.4202  2.7431
  933MOL0     H25924   5.019   8.935  10.228  1.5564 -0.1126  0.3344
  933MOL0     H25925   4.952   8.666  10.092  2.9745 -0.8403  1.5040
  933MOL0     H25926   5.101   8.751  10.081  1.1167  4.8064  1.6074
  933MOL0     H25927   4.999   8.946   9.974  1.3697 -0.6455  0.3267
  933MOL0     H25928   4.840   8.882  10.008 -0.3604  2.7089 -2.2340
  933MOL0     H25929   4.916   8.675   9.868 -0.4290 -1.3698 -2.9732
  933MOL0     H25930   4.880   8.816   9.778 -0.5068 -2.2625  0.0079
  933MOL0     H25931   5.132   8.665   9.839  0.9905  0.7119  1.0890
  933MOL0     H25932   5.149   8.830   9.828  0.8680  0.7011 -3.4802
  933MOL0     H25933   5.010   8.800   9.593 -1.3017 -1.1072 -0.5880
  933MOL0     H25934   5.171   8.720   9.596  1.1024 -1.6094  2.5027
  933MOL0     H25935   5.265   8.713  10.579 -0.0104  0.5729  0.7937
  933MOL0     H25936   5.420   8.692  10.764 -1.7511 -1.2838  0.7747
  933MOL0     H25937   5.621   9.008  11.094  1.3732 -4.4755 -1.3570
  933MOL0     H25938   5.733   9.058  11.291  1.6849 -1.1494  0.7392
  933MOL0     H25939   4.904   8.995  10.792  0.2969  0.3048 -1.5004
  933MOL0     H25940   4.870   9.046  10.539  0.1089  0.0274  0.9728
  933MOL0     H25941   4.768   9.116  10.216 -0.7053  2.1308  1.8979
  933MOL0     H25942   4.807   9.106   9.971 -1.3029 -0.5531 -1.7336
  933MOL0     H25943   4.458   9.014   9.672  0.5559  1.6922 -4.6391
  933MOL0     H25944   4.585   8.904   9.747  0.6714  0.5147 -1.9306
  933MOL0     H25945   4.741   9.003   9.587 -0.7882  0.2767  1.4323
  933MOL0     H25946   4.626   9.119   9.533 -0.2577  0.2297  1.7290
  933MOL0     H25947   4.667   8.930   9.370 -0.8225 -0.6783 -0.9369
  933MOL0     H25948   4.501   8.906   9.434  0.1791  0.9068  0.6874
  933MOL0     H25949   4.746   8.774   9.567 -0.8246 -1.6351  3.6962
  933MOL0     H25950   4.564   8.745   9.580 -0.1137  1.6974  1.5427
  933MOL0     H25951   4.656   8.586   9.187 -3.9275 -1.9954  1.2269
  933MOL0     H25952   4.369   9.074   9.919  2.6286 -0.6394 -3.8689
  933MOL0     H25953   4.232   9.119  10.179 -1.2233 -0.4284 -1.2098
  933MOL0     H25954   4.253   8.968  10.088  1.0444  1.3649 -1.9719
  933MOL0     H25955   4.296   8.990  10.255 -2.2035  3.3534  1.1535
  934MOL0     O25956   6.087   5.404   5.055 -0.5317 -0.0674  0.5170
  934MOL0     C25957   6.082   5.281   5.094 -0.0675  0.2348 -0.2215
  934MOL0     O25958   6.150   5.177   5.042  0.1806 -1.5535 -0.1808
  934MOL0     C25959   6.250   5.205   4.945  1.9286 -0.3243 -0.3973
  934MOL0     C25960   6.361   5.291   4.968 -0.4689 -0.1539  0.2589
  934MOL0     C25961   6.467   5.320   4.874  0.5115  0.4387  0.4001
  934MOL0     C25962   6.460   5.248   4.752  0.5265 -0.9164  0.1298
  934MOL0     O25963   6.558   5.252   4.658  0.3564 -0.0095  0.1549
  934MOL0     C25964   6.504   5.264   4.528 -0.7134  0.3398  0.3107
  934MOL0     C25965   6.609   5.312   4.434 -0.0141  0.3557 -0.8825
  934MOL0     C25966   6.729   5.216   4.395 -0.6747  0.4559  0.9864
  934MOL0     C25967   6.799   5.247   4.256 -0.1955  0.1201 -0.7307
  934MOL0     C25968   6.900   5.139   4.216  0.3492 -0.5265  0.1826
  934MOL0     C25969   6.933   5.154   4.068  0.7852  0.0275  0.6712
  934MOL0     C25970   7.048   5.075   4.016 -0.2233 -1.0264 -0.1097
  934MOL0     C25971   7.183   5.147   4.064  1.3842  0.7761  0.6542
  934MOL0     N25972   7.287   5.046   4.051 -0.2143  0.0708 -0.0285
  934MOL0     C25973   7.300   4.966   3.942 -0.0093 -0.1342  0.5747
  934MOL0     C25974   7.406   4.880   3.966 -1.1373 -1.0786 -0.4792
  934MOL0     C25975   7.493   4.783   3.885 -0.4566 -0.4004 -0.2625
  934MOL0     C25976   7.615   4.847   3.822  1.6139 -0.2651 -0.5822
  934MOL0     C25977   7.711   4.887   3.928  0.4477  0.9589  0.6651
  934MOL0     C25978   7.846   4.932   3.868 -0.0148  0.4735 -1.0247
  934MOL0     O25979   7.916   4.993   3.981 -0.1277  0.6350 -0.3326
  934MOL0     C25980   7.953   4.915   4.079  0.4436  0.1698  0.2769
  934MOL0     C25981   7.992   4.778   4.071  0.0484  0.2480  0.0921
  934MOL0     C25982   8.050   4.723   4.189  0.6293  0.1414  0.6029
  934MOL0     C25983   8.057   4.785   4.316 -0.6614 -0.5299  0.1910
  934MOL0     C25984   8.118   4.714   4.431 -0.8165  0.3746 -0.6829
  934MOL0     O25985   8.205   4.617   4.383  0.0509 -0.0909 -0.2935
  934MOL0     C25986   8.205   4.502   4.468 -0.4196 -0.3361 -0.8872
  934MOL0     C25987   8.276   4.509   4.590  0.3235  0.1168  0.9340
  934MOL0     C25988   8.271   4.399   4.674  0.3987  0.4714 -1.2567
  934MOL0     C25989   8.192   4.286   4.655  0.9162  0.6768  0.5220
  934MOL0     O25990   8.175   4.186   4.751  0.8907  0.2022 -0.3092
  934MOL0     C25991   8.124   4.244   4.879  0.6836  0.3911  0.1909
  934MOL0     C25992   8.022   4.147   4.937  0.1039 -0.2585  0.0113
  934MOL0     C25993   7.995   4.176   5.091 -0.3342  0.2782  0.6380
  934MOL0     C25994   7.870   4.092   5.135 -1.2572 -0.3912  0.7016
  934MOL0     C25995   7.882   4.066   5.283 -0.3910 -0.5813 -0.0297
  934MOL0     C25996   7.776   3.974   5.335  0.3623 -0.5042  0.4663
  934MOL0     C25997   7.667   4.041   5.404 -0.2844  0.1873 -0.2269
  934MOL0     C25998   7.559   3.939   5.428  1.4928  0.4374 -0.2505
  934MOL0    Cl25999   7.425   4.012   5.518 -0.2075 -0.0063 -0.5002
  934MOL0     C26000   8.137   4.278   4.524 -0.2864 -0.5586  0.5740
  934MOL0     C26001   8.131   4.387   4.436 -0.1264 -0.8384  0.4928
  934MOL0     O26002   8.122   4.767   4.548 -0.1102 -0.1972  0.7906
  934MOL0     C26003   8.008   4.916   4.326 -0.7134  0.1714  0.2222
  934MOL0     C26004   7.954   4.978   4.207 -0.3173 -0.6626 -0.2064
  934MOL0     N26005   7.437   4.910   4.105  1.0097 -0.7957 -0.1219
  934MOL0     N26006   7.384   5.016   4.142  0.3850  0.0985 -0.2424
  934MOL0     C26007   6.351   5.155   4.738 -0.5669  0.7722  0.9721
  934MOL0     C26008   6.252   5.124   4.834 -0.2965 -0.9226 -0.4995
  934MOL0     C26009   5.994   5.246   5.211 -0.2800  0.6088  0.1178
  934MOL0     C26010   6.002   5.124   5.273 -0.3272 -0.0587 -0.3601
  934MOL0     C26011   5.924   5.083   5.386  0.3564 -0.5078  0.1496
  934MOL0     C26012   5.829   5.183   5.427 -0.1635  0.8062 -0.6910
  934MOL0     O26013   5.755   5.152   5.530  0.2123  0.0473  0.0606
  934MOL0     C26014   5.620   5.109   5.501  1.0013 -0.4122 -0.8588
  934MOL0     C26015   5.517   5.172   5.596 -0.7718 -0.1218  0.0560
  934MOL0     C26016   5.516   5.096   5.731  0.7614  0.3407  0.1557
  934MOL0     C26017   5.390   5.135   5.804 -0.1415  0.5214 -1.2029
  934MOL0     C26018   5.399   5.061   5.930  0.4195 -0.0854 -0.9172
  934MOL0     C26019   5.425   4.990   6.032  0.0555  0.2319  0.1071
  934MOL0     C26020   5.805   5.304   5.354  0.4313 -0.8616 -0.0585
  934MOL0     C26021   5.890   5.331   5.249 -0.8859 -0.6390  0.5803
  934MOL0     C26022   5.860   5.468   5.194  0.0638 -0.4715  0.2399
  934MOL0     H26023   6.373   5.351   5.058 -0.6364 -0.3111  0.3849
  934MOL0     H26024   6.546   5.391   4.898 -0.2780  1.4509  0.1043
  934MOL0     H26025   6.462   5.174   4.482 -2.4519  1.7349 -0.9713
  934MOL0     H26026   6.430   5.345   4.523  0.7506  1.7456  0.5423
  934MOL0     H26027   6.629   5.412   4.474  2.6411 -0.4729  0.1392
  934MOL0     H26028   6.557   5.331   4.341 -1.4675  3.6425  0.4608
  934MOL0     H26029   6.688   5.115   4.399 -0.5022  0.2371 -1.4199
  934MOL0     H26030   6.804   5.217   4.476 -1.0995 -0.2010  1.3934
  934MOL0     H26031   6.716   5.252   4.186 -0.9718 -1.4471  0.0480
  934MOL0     H26032   6.850   5.344   4.261 -0.9835  0.5307 -0.5456
  934MOL0     H26033   6.993   5.155   4.271  1.3495 -2.5271 -0.8065
  934MOL0     H26034   6.853   5.040   4.221 -1.8648  0.2466 -2.4522
  934MOL0     H26035   6.851   5.108   4.011  0.4722  1.2445  0.0855
  934MOL0     H26036   6.948   5.256   4.030 -1.1483  0.6654  1.4648
  934MOL0     H26037   7.031   5.079   3.908 -0.4213  0.3993 -0.0413
  934MOL0     H26038   7.058   4.974   4.057 -0.2216  0.0239  2.6707
  934MOL0     H26039   7.208   5.234   4.002  0.5683 -1.4671 -3.1810
  934MOL0     H26040   7.163   5.174   4.168  3.6098 -2.7404  2.1676
  934MOL0     H26041   7.263   4.996   3.845  1.8638 -1.1494 -0.5081
  934MOL0     H26042   7.516   4.697   3.948 -0.2136 -1.7486 -2.0918
  934MOL0     H26043   7.440   4.751   3.794  0.6330 -3.3856  0.0567
  934MOL0     H26044   7.664   4.775   3.757  0.7324 -4.3814  2.8590
  934MOL0     H26045   7.591   4.942   3.773 -0.2319  1.6839  3.5198
  934MOL0     H26046   7.717   4.807   4.002 -0.3916 -0.0729 -0.3497
  934MOL0     H26047   7.667   4.977   3.971 -0.1037  0.3311  1.4324
  934MOL0     H26048   7.836   4.999   3.782 -1.2482 -3.0148 -3.8711
  934MOL0     H26049   7.892   4.841   3.830  0.3343  0.2549 -0.0984
  934MOL0     H26050   7.991   4.713   3.985 -0.1550 -0.6787  0.7755
  934MOL0     H26051   8.066   4.619   4.163  0.2781 -0.2953  2.0457
  934MOL0     H26052   8.338   4.594   4.617 -0.3364 -0.0834  3.3833
  934MOL0     H26053   8.333   4.406   4.763  0.3755 -2.4081 -0.9104
  934MOL0     H26054   8.210   4.248   4.947  1.1578 -2.5870 -0.1019
  934MOL0     H26055   8.079   4.342   4.862  0.4901 -0.3054 -4.6716
  934MOL0     H26056   7.930   4.167   4.881  0.6552 -0.3862 -0.9795
  934MOL0     H26057   8.039   4.041   4.915  0.0173 -0.3153  0.2194
  934MOL0     H26058   8.089   4.158   5.145  1.5779  3.7997 -1.1388
  934MOL0     H26059   7.968   4.282   5.093 -1.2285  0.1167 -1.1190
  934MOL0     H26060   7.866   4.003   5.071  2.5834  0.0939 -0.4764
  934MOL0     H26061   7.780   4.153   5.120 -0.1013  0.9739 -1.2448
  934MOL0     H26062   7.873   4.162   5.335  0.6176 -0.9616  0.8860
  934MOL0     H26063   7.979   4.036   5.325 -0.3507  0.4948  0.7015
  934MOL0     H26064   7.737   3.913   5.254 -1.0081 -1.2487  1.6277
  934MOL0     H26065   7.819   3.899   5.403 -1.7744 -0.9523  1.4301
  934MOL0     H26066   7.619   4.124   5.352  3.1593  1.8294 -1.0293
  934MOL0     H26067   7.697   4.092   5.495 -2.4349 -0.3880  0.8833
  934MOL0     H26068   7.509   3.926   5.332 -1.1046  0.3840  1.0138
  934MOL0     H26069   7.591   3.845   5.473  2.0915  1.4592  1.5988
  934MOL0     H26070   8.086   4.190   4.486 -0.1822 -0.0813 -0.7313
  934MOL0     H26071   8.079   4.381   4.341  1.0470 -1.6260 -0.1234
  934MOL0     H26072   8.018   4.975   4.416  0.8880  0.2050  0.0472
  934MOL0     H26073   7.912   5.078   4.209  2.1024  0.4059  0.3842
  934MOL0     H26074   6.347   5.095   4.648 -3.9804  1.7919  0.3026
  934MOL0     H26075   6.174   5.049   4.827 -0.9633 -0.3441  0.5152
  934MOL0     H26076   6.079   5.058   5.235 -0.8660 -2.1196  1.8535
  934MOL0     H26077   5.944   4.983   5.422 -0.2099 -0.4697  0.5851
  934MOL0     H26078   5.610   5.000   5.498  1.6920 -0.5015 -0.2076
  934MOL0     H26079   5.587   5.147   5.404 -0.0711  1.0603  0.0473
  934MOL0     H26080   5.418   5.163   5.550  0.0737 -4.1832 -1.3602
  934MOL0     H26081   5.541   5.278   5.609 -1.9266  0.0742  0.6650
  934MOL0     H26082   5.606   5.120   5.789 -0.5528  1.3582  1.8854
  934MOL0     H26083   5.502   4.987   5.723 -0.4078  0.5304 -0.4613
  934MOL0     H26084   5.385   5.242   5.828  0.6034 -0.0277  1.8767
  934MOL0     H26085   5.298   5.108   5.752 -0.5478  0.1740 -0.3249
  934MOL0     H26086   5.432   4.925   6.117 -0.7588  0.2603  0.2023
  934MOL0     H26087   5.737   5.375   5.399  1.8769  1.1826 -0.9107
  934MOL0     H26088   5.772   5.517   5.235  0.5455 -1.2823  2.4198
  934MOL0     H26089   5.944   5.538   5.197  0.8211 -1.3681  0.3595
  934MOL0     H26090   5.827   5.437   5.094 -0.5407 -3.4809  1.2789
  935MOL0     O26091   7.580   1.047   4.284  0.1336  0.0258 -0.2279
  935MOL0     C26092   7.526   1.152   4.250  1.8343 -0.3218 -0.3071
  935MOL0     O26093   7.387   1.174   4.236  0.2881  0.0366 -0.6247
  935MOL0     C26094   7.302   1.095   4.311  0.6156  0.1035  0.2446
  935MOL0     C26095   7.220   1.164   4.407 -0.4751  0.2639 -0.4821
  935MOL0     C26096   7.127   1.091   4.480  0.1326  0.3923  0.3567
  935MOL0     C26097   7.113   0.950   4.472 -0.2444  0.6731  0.5622
  935MOL0     O26098   7.004   0.887   4.526 -0.0767  0.5010 -0.4058
  935MOL0     C26099   6.934   0.943   4.630  0.7976 -0.1647 -1.1863
  935MOL0     C26100   6.862   0.820   4.683  0.3712 -0.0661 -0.3504
  935MOL0     C26101   6.774   0.842   4.811 -0.1255 -0.4102 -0.1082
  935MOL0     C26102   6.684   0.718   4.815  0.1254 -0.2633 -0.2387
  935MOL0     C26103   6.582   0.722   4.931 -0.6088  0.5359 -0.7258
  935MOL0     C26104   6.485   0.853   4.929 -1.1730  0.4293  0.4503
  935MOL0     C26105   6.372   0.823   5.036  0.5048  0.9457 -0.3092
  935MOL0     C26106   6.419   0.819   5.176 -0.2234 -0.7720 -0.2254
  935MOL0     N26107   6.307   0.774   5.263 -0.5581 -0.8087  1.3861
  935MOL0     C26108   6.280   0.647   5.307  0.1687  0.4792 -0.2985
  935MOL0     C26109   6.153   0.650   5.366 -0.0496  0.3507  0.3774
  935MOL0     C26110   6.089   0.548   5.444  0.8853  0.4301 -0.0366
  935MOL0     C26111   6.133   0.524   5.595 -0.0484  0.8558 -0.7875
  935MOL0     C26112   6.124   0.378   5.640  0.2629 -0.5242 -0.6760
  935MOL0     C26113   6.164   0.383   5.788 -0.3429 -0.6009  0.2760
  935MOL0     O26114   6.301   0.417   5.795 -0.1567  0.2927 -0.0821
  935MOL0     C26115   6.373   0.358   5.893  0.3872  0.5753 -0.3388
  935MOL0     C26116   6.328   0.311   6.016  0.0819  0.4930  0.5129
  935MOL0     C26117   6.411   0.245   6.113  0.1833 -0.0691 -0.4445
  935MOL0     C26118   6.550   0.229   6.081  0.2741 -1.1887 -0.4548
  935MOL0     C26119   6.640   0.164   6.174  0.7946 -0.2601 -0.1375
  935MOL0     O26120   6.590   0.156   6.311  0.0447  0.3258 -0.8613
  935MOL0     C26121   6.657   0.070   6.397 -0.0976 -0.4722  0.3944
  935MOL0     C26122   6.596  -0.054   6.422  0.4744  0.1202  0.9358
  935MOL0     C26123   6.655  -0.148   6.497  0.4067 -0.2210  1.7720
  935MOL0     C26124   6.785  -0.131   6.551  0.2842 -0.3971 -0.0296
  935MOL0     O26125   6.828  -0.243   6.623 -0.6157  0.1009  0.4386
  935MOL0     C26126   6.831  -0.244   6.771 -0.3971  0.5371  0.4528
  935MOL0     C26127   6.971  -0.197   6.819  0.0725  0.7457 -0.2205
  935MOL0     C26128   7.073  -0.324   6.829  0.4055 -0.7506 -0.1131
  935MOL0     C26129   7.217  -0.282   6.860  0.3273 -0.4911  0.1931
  935MOL0     C26130   7.329  -0.386   6.889 -0.0452  0.3365 -0.2208
  935MOL0     C26131   7.327  -0.499   6.796  1.0248  0.4390  0.5047
  935MOL0     C26132   7.469  -0.555   6.779 -0.0461  1.0362 -0.0349
  935MOL0     C26133   7.549  -0.585   6.896  0.1760  0.7606  0.3811
  935MOL0    Cl26134   7.701  -0.677   6.854 -0.1291  0.0977  0.2445
  935MOL0     C26135   6.855  -0.007   6.540  0.4702 -0.0245 -0.4901
  935MOL0     C26136   6.781   0.090   6.464  0.2956  0.8722  0.4737
  935MOL0     O26137   6.744   0.113   6.131 -0.2900 -0.8099  0.6306
  935MOL0     C26138   6.597   0.264   5.950  0.0771 -0.0758  0.3382
  935MOL0     C26139   6.511   0.337   5.862 -0.2133 -0.2996  0.0116
  935MOL0     N26140   6.113   0.782   5.356 -0.2293  1.0615 -0.2063
  935MOL0     N26141   6.203   0.853   5.296 -0.3451 -0.2896  0.5603
  935MOL0     C26142   7.188   0.881   4.379 -1.0551 -0.3781  0.2295
  935MOL0     C26143   7.277   0.956   4.293  0.1759  0.2230  0.3803
  935MOL0     C26144   7.608   1.261   4.209  0.5507 -1.4998 -0.0761
  935MOL0     C26145   7.573   1.341   4.098  0.0892  0.4359 -0.4777
  935MOL0     C26146   7.643   1.456   4.056 -0.4863  0.6118 -0.3889
  935MOL0     C26147   7.770   1.483   4.110  1.0941 -0.3821 -0.0819
  935MOL0     O26148   7.848   1.579   4.063 -1.0879 -0.1480  0.1093
  935MOL0     C26149   7.807   1.667   3.965  0.0021  0.8369  0.6794
  935MOL0     C26150   7.924   1.752   3.924  0.4276  0.1483 -0.0547
  935MOL0     C26151   7.909   1.888   3.994  0.3597 -0.3833  0.1110
  935MOL0     C26152   8.014   1.976   3.929  0.7564 -0.0442  0.1650
  935MOL0     C26153   8.047   2.097   4.019 -1.0282  0.2786  0.6944
  935MOL0     C26154   8.052   2.196   4.089 -0.4270 -0.1993  0.2312
  935MOL0     C26155   7.818   1.392   4.207  0.1042 -0.5149  0.2593
  935MOL0     C26156   7.746   1.282   4.264  0.6925  0.3693 -0.0599
  935MOL0     C26157   7.807   1.206   4.382 -0.5058 -0.2095  0.2739
  935MOL0     H26158   7.230   1.271   4.421 -1.9644  0.8743 -3.3032
  935MOL0     H26159   7.067   1.144   4.552 -0.4813 -1.0557  0.9486
  935MOL0     H26160   6.996   0.973   4.716  0.0739 -1.1956 -0.2733
  935MOL0     H26161   6.866   1.024   4.604  1.3825  0.9745  0.6339
  935MOL0     H26162   6.932   0.738   4.698 -2.3747 -2.6111 -0.4106
  935MOL0     H26163   6.791   0.782   4.608 -0.3237 -1.6876  1.0591
  935MOL0     H26164   6.713   0.932   4.805  0.2704 -0.2005 -1.1799
  935MOL0     H26165   6.842   0.863   4.894 -0.5814  2.1827 -0.3090
  935MOL0     H26166   6.616   0.704   4.731  0.8841  0.2801 -0.9513
  935MOL0     H26167   6.745   0.628   4.826  1.3088  0.7473  2.6562
  935MOL0     H26168   6.535   0.624   4.919  0.7694 -0.0801 -1.2030
  935MOL0     H26169   6.640   0.715   5.024  3.5365  2.3883 -2.9034
  935MOL0     H26170   6.537   0.949   4.940  2.5639 -1.2591 -0.7231
  935MOL0     H26171   6.448   0.863   4.826  2.0592 -0.6257 -0.9716
  935MOL0     H26172   6.322   0.729   5.008  1.3853  0.6913 -1.0738
  935MOL0     H26173   6.293   0.897   5.021  1.2938  2.4397  2.3111
  935MOL0     H26174   6.509   0.761   5.201  0.3218  0.4779  0.8606
  935MOL0     H26175   6.443   0.922   5.203 -2.1582  0.0551 -1.4519
  935MOL0     H26176   6.364   0.582   5.327 -0.3956  0.6098  3.2401
  935MOL0     H26177   5.982   0.563   5.434  0.5132 -1.8231  0.1139
  935MOL0     H26178   6.104   0.453   5.391 -2.3043 -1.3062  1.8955
  935MOL0     H26179   6.229   0.575   5.610 -1.0954  2.7837 -0.1666
  935MOL0     H26180   6.064   0.579   5.660  1.2493  1.1417  0.4274
  935MOL0     H26181   6.194   0.313   5.589 -1.6831 -3.4565  0.1511
  935MOL0     H26182   6.024   0.337   5.620 -1.1451  2.4581 -0.3620
  935MOL0     H26183   6.151   0.284   5.832 -1.8071 -0.1065  1.0109
  935MOL0     H26184   6.094   0.456   5.830 -0.5997  1.2102 -2.9589
  935MOL0     H26185   6.229   0.346   6.045  1.0673  2.4945  1.6936
  935MOL0     H26186   6.375   0.196   6.203 -0.0618 -1.5196 -1.2850
  935MOL0     H26187   6.500  -0.088   6.383  1.9269 -2.3241 -0.8476
  935MOL0     H26188   6.608  -0.245   6.496  4.8158 -2.6927 -0.8301
  935MOL0     H26189   6.760  -0.169   6.806  0.6707  2.4168 -1.1801
  935MOL0     H26190   6.807  -0.342   6.813  1.3302 -1.7229 -3.3033
  935MOL0     H26191   7.006  -0.112   6.759  0.2989  0.8992  0.1287
  935MOL0     H26192   6.966  -0.168   6.924 -1.0185 -0.8957  0.2316
  935MOL0     H26193   7.025  -0.390   6.902 -0.6418  0.5327  0.4103
  935MOL0     H26194   7.082  -0.382   6.736  0.6755 -2.6772  1.0452
  935MOL0     H26195   7.203  -0.216   6.946 -3.0505 -2.1826  1.1134
  935MOL0     H26196   7.245  -0.207   6.786  0.2668 -0.2915  0.3717
  935MOL0     H26197   7.330  -0.429   6.989  0.6540  0.7436 -0.0474
  935MOL0     H26198   7.425  -0.333   6.881  1.0813 -1.4487  0.8455
  935MOL0     H26199   7.255  -0.574   6.830 -0.5133  2.7202  2.7142
  935MOL0     H26200   7.294  -0.470   6.696  2.6750 -1.8772 -0.8052
  935MOL0     H26201   7.527  -0.481   6.723  2.4119 -0.2313  0.7101
  935MOL0     H26202   7.471  -0.653   6.730  0.8745  0.5018  1.0380
  935MOL0     H26203   7.575  -0.493   6.950 -0.6509  0.4579  1.3360
  935MOL0     H26204   7.494  -0.646   6.969  2.1085 -0.5032  0.8546
  935MOL0     H26205   6.953   0.011   6.582  1.0545  1.3836 -2.3271
  935MOL0     H26206   6.837   0.180   6.439  1.7519 -0.0635  0.2393
  935MOL0     H26207   6.688   0.225   5.906  0.1573 -0.1553  0.5735
  935MOL0     H26208   6.554   0.351   5.763 -0.1120 -1.2955 -0.0917
  935MOL0     H26209   7.179   0.774   4.365 -0.8511 -0.4421  0.5597
  935MOL0     H26210   7.328   0.906   4.212 -0.2927  0.1123  0.1509
  935MOL0     H26211   7.472   1.329   4.060 -2.1356  1.1680  4.3745
  935MOL0     H26212   7.618   1.508   3.964  4.2570  1.1395 -1.6358
  935MOL0     H26213   7.713   1.720   3.986 -1.7779 -0.4589 -3.1455
  935MOL0     H26214   7.786   1.603   3.879 -2.1109  0.6416  1.2783
  935MOL0     H26215   7.913   1.776   3.818 -1.3209 -1.2436 -0.2403
  935MOL0     H26216   8.020   1.700   3.934  1.0299  1.3254  0.4455
  935MOL0     H26217   7.919   1.878   4.103 -1.3013 -0.7126  0.2590
  935MOL0     H26218   7.811   1.935   3.984  0.4952 -0.5682 -2.9028
  935MOL0     H26219   8.106   1.919   3.917  0.1833 -2.1431  4.0133
  935MOL0     H26220   7.974   2.018   3.836 -1.8323 -1.9870  0.2834
  935MOL0     H26221   8.071   2.290   4.137  1.0805  1.1370 -2.7670
  935MOL0     H26222   7.916   1.415   4.246  0.0411 -1.4566  1.0041
  935MOL0     H26223   7.890   1.266   4.422 -0.1589  0.1270 -0.9056
  935MOL0     H26224   7.735   1.181   4.460  0.0207  1.3160  1.3121
  935MOL0     H26225   7.849   1.111   4.349  1.6856  0.0917  1.9223
  936MOL0     O26226   5.185  10.041   3.617  0.0667  0.7657  0.8771
  936MOL0     C26227   5.193   9.921   3.620  0.5647 -0.1126 -0.7762
  936MOL0     O26228   5.218   9.854   3.744 -0.1114  0.6758 -0.6365
  936MOL0     C26229   5.185   9.914   3.860 -0.4914  0.8304 -0.3092
  936MOL0     C26230   5.281   9.898   3.967 -0.0075 -0.0857 -0.4207
  936MOL0     C26231   5.238   9.933   4.099 -0.7678  0.2104  0.6698
  936MOL0     C26232   5.119   9.999   4.112  0.0805 -1.3749  0.1943
  936MOL0     O26233   5.075  10.041   4.229 -0.3518 -1.0484  0.4873
  936MOL0     C26234   5.087   9.954   4.344  0.6973 -0.6367 -0.1519
  936MOL0     C26235   5.017  10.027   4.448  0.6532 -0.7007 -0.7278
  936MOL0     C26236   5.112  10.124   4.512 -0.6567  0.5712  0.4313
  936MOL0     C26237   5.049  10.225   4.609 -0.6747  0.6264  0.1887
  936MOL0     C26238   5.158  10.302   4.687  0.5500  0.4257 -1.0307
  936MOL0     C26239   5.098  10.399   4.783  0.9160 -1.0285  0.0217
  936MOL0     C26240   5.059  10.338   4.925  0.3722  0.4451 -0.4509
  936MOL0     C26241   5.035  10.453   5.034  0.5717  0.5834 -1.1903
  936MOL0     N26242   4.984  10.391   5.165 -0.4916 -0.0840  0.4648
  936MOL0     C26243   4.860  10.335   5.197  0.6538 -0.3760  1.2456
  936MOL0     C26244   4.849  10.343   5.333 -0.4454  1.2355 -1.1926
  936MOL0     C26245   4.728  10.303   5.413 -0.1676  0.0422 -0.3306
  936MOL0     C26246   4.604  10.381   5.376 -0.6306  0.2123  0.1298
  936MOL0     C26247   4.619  10.521   5.439 -0.6685 -0.0399 -0.6953
  936MOL0     C26248   4.509  10.601   5.390  0.3380  0.1713  0.3043
  936MOL0     O26249   4.381  10.546   5.445 -0.1774 -0.7859  0.5727
  936MOL0     C26250   4.363  10.597   5.574  0.0956  0.9348 -0.5030
  936MOL0     C26251   4.293  10.716   5.605 -0.0235  0.8870  0.3854
  936MOL0     C26252   4.263  10.741   5.740 -0.9730 -0.9070 -0.0256
  936MOL0     C26253   4.302  10.656   5.844  0.4308 -0.5523  0.7008
  936MOL0     C26254   4.283  10.703   5.981 -0.6689 -0.0454 -0.5597
  936MOL0     O26255   4.177  10.783   6.008  0.0672  0.2530 -0.4280
  936MOL0     C26256   4.152  10.809   6.139 -0.0535 -0.4132 -0.2293
  936MOL0     C26257   4.064  10.726   6.210  1.6345  0.4769 -1.3499
  936MOL0     C26258   4.012  10.762   6.340 -0.1961 -0.1843  0.5398
  936MOL0     C26259   4.046  10.889   6.387 -0.9838  0.6343  0.5227
  936MOL0     O26260   3.996  10.944   6.507 -0.3974  0.1862 -1.0028
  936MOL0     C26261   3.863  10.935   6.545 -0.3205  0.1737  0.1678
  936MOL0     C26262   3.866  10.867   6.684  0.3601 -0.5332  0.0132
  936MOL0     C26263   3.925  10.730   6.682  0.3986 -0.0683  0.2316
  936MOL0     C26264   3.940  10.657   6.815 -0.1903 -0.4720  0.3626
  936MOL0     C26265   4.036  10.730   6.916 -0.1265  0.5901 -0.2863
  936MOL0     C26266   4.176  10.758   6.862  0.0551 -0.1660  0.7724
  936MOL0     C26267   4.272  10.781   6.990 -1.1142 -0.6860 -0.6325
  936MOL0     C26268   4.418  10.808   6.928 -0.3006  0.1805 -0.1076
  936MOL0    Cl26269   4.514  10.869   7.062 -0.0584 -0.2211  0.0079
  936MOL0     C26270   4.149  10.967   6.322  0.8806  0.9078 -0.1969
  936MOL0     C26271   4.201  10.926   6.197  0.7545  0.3090 -0.0129
  936MOL0     O26272   4.357  10.649   6.068 -0.2828  0.3139 -0.7738
  936MOL0     C26273   4.351  10.529   5.812  0.6583 -0.1004 -0.0176
  936MOL0     C26274   4.379  10.500   5.678 -0.6460  0.0930 -0.7720
  936MOL0     N26275   4.970  10.401   5.386  0.4834 -0.3793  0.6316
  936MOL0     N26276   5.042  10.434   5.276  0.1628  0.2980 -0.1306
  936MOL0     C26277   5.032  10.020   4.007  0.3357  0.6787  0.3544
  936MOL0     C26278   5.059   9.962   3.883 -0.1318  0.4186  0.1095
  936MOL0     C26279   5.183   9.840   3.497 -0.2077  0.3795 -0.5729
  936MOL0     C26280   5.162   9.698   3.509 -1.0065  0.1349  0.0853
  936MOL0     C26281   5.134   9.626   3.394 -0.1476  1.0406 -0.8485
  936MOL0     C26282   5.125   9.684   3.258 -0.2661  0.2455  0.6089
  936MOL0     O26283   5.087   9.625   3.143 -0.2434  0.3642 -0.2367
  936MOL0     C26284   5.072   9.488   3.139  0.3245 -0.1665 -0.5082
  936MOL0     C26285   5.217   9.436   3.147  0.1749 -0.0224  0.1535
  936MOL0     C26286   5.294   9.467   3.032 -0.0828 -0.0623 -1.1028
  936MOL0     C26287   5.434   9.401   3.044 -0.4028  0.1068  0.4567
  936MOL0     C26288   5.432   9.255   3.012 -1.2779 -0.0645 -0.0020
  936MOL0     C26289   5.411   9.132   3.005  1.3197  0.3563 -0.2761
  936MOL0     C26290   5.156   9.817   3.249 -0.2208  0.1328  1.1702
  936MOL0     C26291   5.187   9.893   3.362 -0.2224  1.4928 -0.7512
  936MOL0     C26292   5.241  10.032   3.342  0.6128 -0.5221 -0.4365
  936MOL0     H26293   5.378   9.852   3.951 -0.6330 -0.3541 -4.7478
  936MOL0     H26294   5.310   9.920   4.180  1.9635 -0.2740 -1.6621
  936MOL0     H26295   5.040   9.857   4.326  1.7246 -1.0501 -0.6426
  936MOL0     H26296   5.192   9.942   4.369  0.2485 -2.1856  1.1172
  936MOL0     H26297   4.988   9.954   4.525  1.3138 -4.1513 -3.5206
  936MOL0     H26298   4.930  10.084   4.416  0.5838 -1.9771 -3.0041
  936MOL0     H26299   5.160  10.178   4.430  0.1993  0.2603  0.7126
  936MOL0     H26300   5.187  10.068   4.569  1.6415  2.7095 -0.2680
  936MOL0     H26301   4.995  10.295   4.544 -4.2941 -3.1192 -1.2677
  936MOL0     H26302   4.986  10.169   4.678 -0.6314 -1.0614 -1.0921
  936MOL0     H26303   5.228  10.237   4.740  0.6176  1.2502 -0.0752
  936MOL0     H26304   5.225  10.360   4.624  0.9397  1.3989  0.2266
  936MOL0     H26305   5.175  10.471   4.812  0.3487 -0.4631  0.1448
  936MOL0     H26306   5.010  10.455   4.752  0.3241 -0.3986  2.5908
  936MOL0     H26307   5.141  10.272   4.955  3.2665  4.5017  1.4579
  936MOL0     H26308   4.970  10.274   4.918 -2.6092  4.2201 -0.6977
  936MOL0     H26309   5.126  10.510   5.056  1.3291 -0.3254 -1.9274
  936MOL0     H26310   4.948  10.515   5.008 -1.0842 -1.2278 -0.1720
  936MOL0     H26311   4.791  10.300   5.121  2.0239 -2.2671  0.7925
  936MOL0     H26312   4.710  10.203   5.373  0.1060 -0.6977  1.3094
  936MOL0     H26313   4.744  10.302   5.521 -1.8569  2.4706  0.0202
  936MOL0     H26314   4.592  10.373   5.268  1.5640  0.3368 -0.1792
  936MOL0     H26315   4.524  10.344   5.440  1.3026  1.5594  3.6356
  936MOL0     H26316   4.708  10.585   5.426 -1.6866  1.1088 -2.4781
  936MOL0     H26317   4.612  10.498   5.546  0.6082 -1.2713 -0.8417
  936MOL0     H26318   4.500  10.608   5.281 -0.4085 -0.9331  0.2832
  936MOL0     H26319   4.533  10.701   5.428  0.6835 -0.3095  1.3832
  936MOL0     H26320   4.269  10.794   5.534 -0.7233 -1.7974 -2.5126
  936MOL0     H26321   4.207  10.832   5.761  1.2226  0.3555  0.6665
  936MOL0     H26322   4.032  10.632   6.167  2.0572  0.3639 -1.4147
  936MOL0     H26323   3.939  10.708   6.398 -0.3584 -0.2722  0.2599
  936MOL0     H26324   3.822  11.036   6.552 -1.5124 -0.3938  2.2556
  936MOL0     H26325   3.809  10.882   6.466  2.2436 -3.3490  0.5207
  936MOL0     H26326   3.926  10.936   6.743 -0.2146 -0.8189  0.9552
  936MOL0     H26327   3.759  10.865   6.710 -0.4743 -0.3990 -3.0161
  936MOL0     H26328   3.847  10.673   6.630 -2.6231  0.0781  4.2144
  936MOL0     H26329   4.021  10.732   6.630  1.5410  2.6825  2.2342
  936MOL0     H26330   3.978  10.559   6.782 -0.4160 -0.8954  1.3115
  936MOL0     H26331   3.841  10.649   6.859 -1.5467 -3.5477 -2.7256
  936MOL0     H26332   4.030  10.658   6.998 -2.5688  0.9524 -0.0752
  936MOL0     H26333   3.990  10.823   6.951 -1.9271 -0.5865  0.5952
  936MOL0     H26334   4.215  10.671   6.808  0.7808  0.5809  0.0640
  936MOL0     H26335   4.174  10.851   6.804 -0.8636 -0.5698  0.1427
  936MOL0     H26336   4.267  10.709   7.071  6.1346  1.3850  2.4602
  936MOL0     H26337   4.255  10.884   7.024  0.5484 -0.3670 -0.6808
  936MOL0     H26338   4.464  10.715   6.894 -1.5588 -0.3160 -0.5202
  936MOL0     H26339   4.416  10.876   6.843 -2.1614  0.8975  0.4529
  936MOL0     H26340   4.183  11.060   6.367 -1.1284  1.7995 -0.3946
  936MOL0     H26341   4.277  10.985   6.147  0.4249  1.8512  1.2453
  936MOL0     H26342   4.353  10.451   5.887 -2.7550  2.2687  2.8671
  936MOL0     H26343   4.406  10.400   5.643 -2.0728 -0.4549 -0.3847
  936MOL0     H26344   4.943  10.082   4.018 -0.0087  0.4308 -0.9054
  936MOL0     H26345   4.976   9.956   3.812 -2.0720  0.0030  2.2980
  936MOL0     H26346   5.165   9.640   3.600  0.7370 -4.0358 -2.3118
  936MOL0     H26347   5.115   9.519   3.390 -1.3283  1.2622 -2.7855
  936MOL0     H26348   5.016   9.464   3.048 -0.5465 -0.5842  0.1140
  936MOL0     H26349   5.007   9.459   3.222 -1.4216  1.8015 -1.0986
  936MOL0     H26350   5.206   9.327   3.149  0.5068 -0.1126 -1.8340
  936MOL0     H26351   5.259   9.471   3.242 -0.8267 -0.4338  0.7665
  936MOL0     H26352   5.302   9.575   3.023  0.1738  0.4899  3.3716
  936MOL0     H26353   5.250   9.439   2.936 -0.2301  0.5223 -1.2063
  936MOL0     H26354   5.507   9.455   2.983  1.0379 -0.7063  1.4151
  936MOL0     H26355   5.478   9.419   3.142 -0.9722  0.2423  0.6895
  936MOL0     H26356   5.396   9.026   3.007  1.6341  0.3242  1.0311
  936MOL0     H26357   5.171   9.862   3.152 -3.3068 -0.7483  0.1595
  936MOL0     H26358   5.335  10.051   3.395 -0.3744  0.9047  0.8782
  936MOL0     H26359   5.253  10.044   3.234 -1.8768 -1.9704 -0.9391
  936MOL0     H26360   5.164  10.104   3.371 -1.2184 -1.8424 -1.7238
  937MOL0     O26361   3.864   8.417   2.980 -0.8707 -0.9341  0.2718
  937MOL0     C26362   3.906   8.450   2.866  0.4589 -0.3143 -0.1776
  937MOL0     O26363   3.837   8.537   2.784 -0.7561 -0.3302  0.4469
  937MOL0     C26364   3.764   8.639   2.843  0.8636  1.0166 -0.6797
  937MOL0     C26365   3.618   8.621   2.840  0.2635  0.3171  0.2851
  937MOL0     C26366   3.536   8.723   2.891  0.1624  1.1834 -0.8504
  937MOL0     C26367   3.594   8.848   2.945 -0.0607  0.4783  0.3536
  937MOL0     O26368   3.509   8.948   2.988  0.2525  0.1625 -0.1618
  937MOL0     C26369   3.446   9.008   2.877  0.1877  0.2261  0.5012
  937MOL0     C26370   3.367   9.130   2.925 -0.1581  0.6024 -0.2932
  937MOL0     C26371   3.457   9.239   2.990 -0.2478 -0.6146 -0.3313
  937MOL0     C26372   3.499   9.196   3.139 -0.3251 -0.0880 -0.1326
  937MOL0     C26373   3.527   9.318   3.227 -0.0820 -0.5965 -0.5010
  937MOL0     C26374   3.547   9.268   3.368  0.0894 -0.4010  0.0510
  937MOL0     C26375   3.585   9.385   3.468  1.6546 -0.3077  0.3723
  937MOL0     C26376   3.655   9.333   3.591  1.4563  0.2455  0.2047
  937MOL0     N26377   3.550   9.257   3.669 -0.0057  0.8866 -0.2630
  937MOL0     C26378   3.498   9.306   3.787 -0.4585  0.1878 -0.5068
  937MOL0     C26379   3.456   9.196   3.847  0.7673  0.1966 -0.6595
  937MOL0     C26380   3.396   9.193   3.980 -0.3608 -0.2024  0.0107
  937MOL0     C26381   3.238   9.196   3.972 -1.3985  0.0826 -0.2997
  937MOL0     C26382   3.171   9.244   4.098  0.0096  1.1147 -0.3572
  937MOL0     C26383   3.152   9.149   4.216 -0.0503 -0.4752  0.2416
  937MOL0     O26384   3.107   9.226   4.327  0.5893  0.0495  0.0856
  937MOL0     C26385   3.148   9.215   4.459  0.1759  0.5496  0.4227
  937MOL0     C26386   3.188   9.101   4.537 -0.9656  0.5488  0.6164
  937MOL0     C26387   3.206   9.109   4.678 -0.4072  0.2031  0.1800
  937MOL0     C26388   3.167   9.227   4.743 -0.2371 -0.5385  0.3182
  937MOL0     C26389   3.180   9.240   4.890  0.4688 -0.8407  0.7378
  937MOL0     O26390   3.254   9.143   4.942  0.2202  0.8007  0.0469
  937MOL0     C26391   3.272   9.126   5.078 -0.0020  0.3297  1.1072
  937MOL0     C26392   3.388   9.168   5.141  1.0813  0.2253 -0.5989
  937MOL0     C26393   3.385   9.160   5.278 -0.4425  0.2338 -0.5034
  937MOL0     C26394   3.287   9.075   5.338 -0.1332 -0.0557 -0.3698
  937MOL0     O26395   3.308   9.043   5.466 -0.2085 -0.1331 -0.3466
  937MOL0     C26396   3.193   9.056   5.558 -0.0104 -0.4757  0.2467
  937MOL0     C26397   3.240   9.138   5.684 -0.1441 -0.1958  0.6553
  937MOL0     C26398   3.294   9.282   5.675  0.0936 -0.2985 -0.3935
  937MOL0     C26399   3.331   9.328   5.819  0.2250  0.2072  0.7087
  937MOL0     C26400   3.385   9.478   5.817  0.0251  0.0281 -0.4572
  937MOL0     C26401   3.417   9.527   5.962 -0.8830 -0.2159  0.4130
  937MOL0     C26402   3.502   9.423   6.040 -0.0383 -0.0307  0.4173
  937MOL0     C26403   3.539   9.490   6.172  0.1854  0.5089  0.4743
  937MOL0    Cl26404   3.666   9.615   6.131  0.4543 -0.0656 -0.2061
  937MOL0     C26405   3.178   9.022   5.268 -0.4834 -0.0609 -0.5426
  937MOL0     C26406   3.173   9.051   5.134 -0.1467 -0.6076  0.5077
  937MOL0     O26407   3.122   9.332   4.944  0.2587  0.7452  0.4039
  937MOL0     C26408   3.117   9.338   4.670 -0.1983  0.0093 -0.7131
  937MOL0     C26409   3.118   9.337   4.535  1.3145  0.6555  0.7391
  937MOL0     N26410   3.479   9.085   3.771 -0.2807 -0.6940  1.4294
  937MOL0     N26411   3.551   9.119   3.676 -0.9331  0.2892 -0.5530
  937MOL0     C26412   3.730   8.857   2.953  0.0854 -1.1026  1.4837
  937MOL0     C26413   3.811   8.756   2.904 -0.1364  0.9869 -0.2329
  937MOL0     C26414   4.035   8.397   2.822 -0.3110 -0.8452  0.2174
  937MOL0     C26415   4.137   8.388   2.912 -0.4206 -1.7874  0.0412
  937MOL0     C26416   4.261   8.337   2.878  0.4454 -0.1955 -0.5592
  937MOL0     C26417   4.290   8.294   2.748  0.2972 -0.2151 -0.0591
  937MOL0     O26418   4.428   8.274   2.721 -0.3295 -0.5445  0.7233
  937MOL0     C26419   4.463   8.261   2.581 -0.1301  0.2454  0.1002
  937MOL0     C26420   4.468   8.395   2.504  0.1141  0.7026  0.2948
  937MOL0     C26421   4.529   8.518   2.589  0.1396  0.1380  0.2358
  937MOL0     C26422   4.577   8.627   2.501  0.5469  0.6412 -0.2607
  937MOL0     C26423   4.493   8.658   2.389 -0.0517 -0.3084 -0.0870
  937MOL0     C26424   4.438   8.687   2.284  0.7063 -0.4570  0.1566
  937MOL0     C26425   4.184   8.300   2.658 -0.3843 -0.4212 -0.6029
  937MOL0     C26426   4.060   8.344   2.689 -0.1175  0.2667 -0.5872
  937MOL0     C26427   3.939   8.319   2.594  0.2253  0.1876 -0.7678
  937MOL0     H26428   3.572   8.547   2.776 -0.9694  0.2696  1.1743
  937MOL0     H26429   3.428   8.723   2.882  0.1222 -0.9654 -0.9593
  937MOL0     H26430   3.517   9.056   2.809  0.3192 -1.8816 -0.9480
  937MOL0     H26431   3.377   8.947   2.818 -1.5328  1.6613  0.9670
  937MOL0     H26432   3.293   9.077   2.985 -0.0004 -1.2064 -1.6281
  937MOL0     H26433   3.320   9.179   2.839  0.0549  1.8132  0.2543
  937MOL0     H26434   3.395   9.329   2.993 -2.2179 -1.9186 -0.1893
  937MOL0     H26435   3.550   9.264   2.938  0.8685 -2.2490  0.7963
  937MOL0     H26436   3.420   9.138   3.188 -1.3603  0.4365 -1.1458
  937MOL0     H26437   3.583   9.126   3.146 -0.5910 -0.2774  3.2649
  937MOL0     H26438   3.613   9.378   3.196  1.6563 -1.3827  2.4118
  937MOL0     H26439   3.442   9.385   3.215  0.7351  0.6425  0.4282
  937MOL0     H26440   3.453   9.221   3.399  0.6562 -1.2557  0.5246
  937MOL0     H26441   3.611   9.179   3.361 -1.3264 -1.3639 -1.3588
  937MOL0     H26442   3.498   9.442   3.499  1.0849 -0.4114 -0.9660
  937MOL0     H26443   3.650   9.451   3.410  2.7200 -0.6907  1.0918
  937MOL0     H26444   3.728   9.264   3.548  0.4948 -0.1555 -0.8477
  937MOL0     H26445   3.708   9.413   3.643  2.0243 -1.1318  1.8470
  937MOL0     H26446   3.472   9.408   3.814  0.7884 -0.0798  2.0278
  937MOL0     H26447   3.436   9.102   4.025 -0.3061  0.9915  2.5811
  937MOL0     H26448   3.424   9.283   4.037  0.1684  0.5142 -1.3259
  937MOL0     H26449   3.215   9.266   3.891  1.9439 -1.4291 -2.8375
  937MOL0     H26450   3.204   9.097   3.938 -4.0034  0.9468 -0.3766
  937MOL0     H26451   3.068   9.258   4.065 -0.8298 -2.0130  0.5538
  937MOL0     H26452   3.203   9.344   4.128 -0.4973  1.4926 -1.0769
  937MOL0     H26453   3.251   9.106   4.236  1.1107  1.4538 -1.0174
  937MOL0     H26454   3.083   9.066   4.201  1.5535 -2.1185  1.4492
  937MOL0     H26455   3.206   9.006   4.488 -0.8510  1.3702 -0.9743
  937MOL0     H26456   3.227   9.023   4.741  1.0538  1.5122  1.5785
  937MOL0     H26457   3.461   9.217   5.078 -1.0333 -1.6468 -4.9268
  937MOL0     H26458   3.470   9.199   5.333 -0.4191 -1.5306  0.7883
  937MOL0     H26459   3.107   9.109   5.515  1.9518  0.4547 -2.9042
  937MOL0     H26460   3.161   8.958   5.594  2.6339 -0.4307  3.1276
  937MOL0     H26461   3.155   9.129   5.752  0.2980 -0.2678  1.1989
  937MOL0     H26462   3.319   9.078   5.731 -2.9869 -2.4907  2.9225
  937MOL0     H26463   3.382   9.284   5.609  0.4614  2.0130  0.0942
  937MOL0     H26464   3.218   9.350   5.637  0.3714  0.3821  0.2395
  937MOL0     H26465   3.404   9.263   5.867 -0.4351  1.0357  2.9803
  937MOL0     H26466   3.236   9.321   5.873 -0.0527 -0.9583  0.1001
  937MOL0     H26467   3.320   9.556   5.775 -1.0306 -0.4527  0.2330
  937MOL0     H26468   3.476   9.477   5.756 -0.8499 -0.0092 -1.7906
  937MOL0     H26469   3.477   9.616   5.938  2.1512 -1.9567  0.9576
  937MOL0     H26470   3.329   9.557   6.019 -0.6526  1.8730 -0.2523
  937MOL0     H26471   3.601   9.409   5.997  0.0908  1.4720  0.1797
  937MOL0     H26472   3.451   9.329   6.063  0.7843 -0.3946  0.7967
  937MOL0     H26473   3.453   9.531   6.227 -1.3388 -0.2234 -1.2580
  937MOL0     H26474   3.576   9.411   6.238 -1.8918 -1.7502 -0.8823
  937MOL0     H26475   3.114   8.948   5.315  1.0737 -0.8571  0.4108
  937MOL0     H26476   3.095   9.011   5.071  0.9969 -0.6099 -0.9565
  937MOL0     H26477   3.093   9.428   4.726 -2.3740 -0.3827 -0.9079
  937MOL0     H26478   3.072   9.425   4.490  2.2234  0.6309 -0.3020
  937MOL0     H26479   3.780   8.947   2.988  0.0987 -1.0878  1.4281
  937MOL0     H26480   3.914   8.789   2.892 -0.9630  5.3024  2.2843
  937MOL0     H26481   4.118   8.420   3.014 -1.0259  1.2287 -0.9276
  937MOL0     H26482   4.333   8.340   2.959 -1.1509 -1.9134  0.9957
  937MOL0     H26483   4.392   8.193   2.533 -0.1132 -1.8888  2.8653
  937MOL0     H26484   4.561   8.215   2.566 -1.0167 -2.7840  2.7050
  937MOL0     H26485   4.368   8.412   2.465  1.1702 -1.3421 -3.9058
  937MOL0     H26486   4.522   8.372   2.411 -2.5852 -2.3879 -0.6809
  937MOL0     H26487   4.596   8.483   2.668 -1.1940 -1.8575  0.5504
  937MOL0     H26488   4.442   8.553   2.646  0.5440  1.7630 -0.0983
  937MOL0     H26489   4.610   8.706   2.570  2.9253 -0.7855  0.3522
  937MOL0     H26490   4.668   8.590   2.453 -1.0670 -0.5018 -2.6050
  937MOL0     H26491   4.369   8.719   2.209  1.7284  2.0040  0.1937
  937MOL0     H26492   4.190   8.257   2.558 -0.2601 -1.0936 -0.3126
  937MOL0     H26493   3.960   8.259   2.505  0.3622 -2.4227  0.9177
  937MOL0     H26494   3.862   8.270   2.654 -0.4635 -0.8415 -2.4197
  937MOL0     H26495   3.899   8.416   2.562  1.8963 -0.2212 -4.7323
  938MOL0     O26496   8.518   4.166   5.079  0.4113  0.6496 -0.5106
  938MOL0     C26497   8.506   4.169   5.202  0.3943  0.4156  0.7486
  938MOL0     O26498   8.607   4.204   5.285  0.0207 -0.4639 -0.2093
  938MOL0     C26499   8.719   4.282   5.227  0.6614  0.0049  0.6364
  938MOL0     C26500   8.735   4.413   5.276 -0.6586 -1.6401  0.1931
  938MOL0     C26501   8.840   4.493   5.230 -0.0166 -0.5016  0.3277
  938MOL0     C26502   8.932   4.443   5.135  0.3776 -0.6430 -0.0140
  938MOL0     O26503   9.040   4.522   5.090 -0.6925  0.3129  0.1372
  938MOL0     C26504   9.154   4.521   5.185  0.5058  0.3039 -0.5750
  938MOL0     C26505   9.232   4.646   5.168 -0.1179 -0.3358  0.3558
  938MOL0     C26506   9.297   4.640   5.027 -0.4603  0.0258 -0.0022
  938MOL0     C26507   9.348   4.778   4.990 -0.5394 -0.6205 -0.2557
  938MOL0     C26508   9.341   4.803   4.839 -0.2151 -0.5827  0.8833
  938MOL0     C26509   9.396   4.941   4.807  0.3392 -0.7845 -1.0290
  938MOL0     C26510   9.317   5.049   4.884  0.6826  0.5507 -0.4649
  938MOL0     C26511   9.338   5.183   4.818 -0.1604  0.9515  0.4946
  938MOL0     N26512   9.257   5.282   4.883  0.0610  0.2286 -0.3705
  938MOL0     C26513   9.147   5.331   4.837  0.4134  0.9888  0.3054
  938MOL0     C26514   9.107   5.416   4.932 -0.2638 -0.2581 -0.0016
  938MOL0     C26515   8.973   5.468   4.931 -0.3187 -0.9908 -0.3055
  938MOL0     C26516   8.987   5.618   4.889 -0.2408 -0.2728  0.0569
  938MOL0     C26517   8.864   5.691   4.924  0.4751  0.8874  0.4442
  938MOL0     C26518   8.873   5.837   4.904  1.2663  0.0537 -0.5098
  938MOL0     O26519   8.782   5.922   4.989  0.3369  0.0667  0.1431
  938MOL0     C26520   8.762   6.051   4.962 -0.2308 -0.4325 -0.9721
  938MOL0     C26521   8.816   6.128   4.864 -0.6928 -0.0279 -0.5134
  938MOL0     C26522   8.786   6.260   4.849  0.5978  0.2650  0.6151
  938MOL0     C26523   8.693   6.327   4.932 -0.3269  0.6763 -0.0022
  938MOL0     C26524   8.651   6.469   4.917 -0.4277 -0.7364  0.4369
  938MOL0     O26525   8.561   6.524   5.002  0.1092  0.3282 -0.1859
  938MOL0     C26526   8.539   6.661   4.991 -0.4259  0.3279  0.5445
  938MOL0     C26527   8.587   6.738   5.098 -0.7459  0.2725 -0.0662
  938MOL0     C26528   8.544   6.866   5.118  0.3281 -0.1130  0.2811
  938MOL0     C26529   8.464   6.920   5.018  0.0270 -0.6891 -0.0592
  938MOL0     O26530   8.432   7.053   5.041  0.1276  0.4529  0.5309
  938MOL0     C26531   8.387   7.137   4.934  0.2200 -0.2077 -0.1924
  938MOL0     C26532   8.347   7.264   5.002  0.8461  0.4034  0.2354
  938MOL0     C26533   8.305   7.370   4.895  0.3060 -0.0122  0.8016
  938MOL0     C26534   8.156   7.401   4.892 -0.1077 -0.6434 -0.9381
  938MOL0     C26535   8.110   7.528   4.821  0.9303  0.7835 -0.3029
  938MOL0     C26536   8.150   7.650   4.894  0.0342  0.6427 -0.1517
  938MOL0     C26537   8.059   7.774   4.864 -0.2217  0.2556 -0.1501
  938MOL0     C26538   8.096   7.904   4.926  0.7211 -0.0692 -0.2175
  938MOL0    Cl26539   8.109   7.885   5.097 -0.1664  0.1991 -0.4882
  938MOL0     C26540   8.422   6.845   4.908 -0.2165  0.0935 -0.0060
  938MOL0     C26541   8.456   6.718   4.890 -0.6967  1.4113 -0.3491
  938MOL0     O26542   8.694   6.522   4.815  0.5121 -0.5651  0.7231
  938MOL0     C26543   8.644   6.241   5.042 -0.0885 -0.7597  0.1620
  938MOL0     C26544   8.674   6.110   5.048 -0.3080  0.1867  0.8276
  938MOL0     N26545   9.201   5.421   5.030  0.7172  0.2834  0.2312
  938MOL0     N26546   9.299   5.346   4.998 -0.4423  0.4303 -0.5449
  938MOL0     C26547   8.911   4.318   5.089  0.9379 -0.4369  0.2995
  938MOL0     C26548   8.803   4.237   5.128  0.3294  0.2810 -0.0628
  938MOL0     C26549   8.398   4.075   5.262  0.3408  0.4198  0.7820
  938MOL0     C26550   8.313   4.011   5.163  0.4379  0.4776  0.3220
  938MOL0     C26551   8.214   3.928   5.200  1.0070 -0.2949  0.5735
  938MOL0     C26552   8.203   3.893   5.338  0.0590  1.1512 -0.1185
  938MOL0     O26553   8.121   3.799   5.389 -0.4170 -0.9836  0.1185
  938MOL0     C26554   8.075   3.699   5.291 -0.0494 -0.3404 -0.0213
  938MOL0     C26555   8.003   3.583   5.352 -0.2849  0.5309  0.0598
  938MOL0     C26556   7.852   3.621   5.364  0.3987  0.4037 -0.1546
  938MOL0     C26557   7.766   3.508   5.426 -0.1839 -0.1051 -0.2517
  938MOL0     C26558   7.776   3.387   5.344  1.0830 -0.4037 -0.0156
  938MOL0     C26559   7.785   3.270   5.306  1.1182 -1.0897 -0.8737
  938MOL0     C26560   8.282   3.957   5.432 -0.3559  1.2150  0.1008
  938MOL0     C26561   8.387   4.044   5.395 -0.1953  0.6096  0.0713
  938MOL0     C26562   8.485   4.082   5.504  0.9635 -0.8522 -0.4682
  938MOL0     H26563   8.672   4.446   5.359 -1.2754  1.0407 -1.2348
  938MOL0     H26564   8.851   4.592   5.272 -0.8242 -0.5776  0.7396
  938MOL0     H26565   9.133   4.523   5.292 -0.2893  1.8583 -0.7211
  938MOL0     H26566   9.226   4.441   5.169 -0.2137 -0.0602 -2.1628
  938MOL0     H26567   9.313   4.653   5.241  2.0690  1.7203 -2.0824
  938MOL0     H26568   9.167   4.733   5.175  1.1782  0.7398 -0.5248
  938MOL0     H26569   9.228   4.611   4.947 -0.7594  4.3050 -1.5240
  938MOL0     H26570   9.383   4.571   5.033 -0.9036 -1.0195 -3.3063
  938MOL0     H26571   9.278   4.852   5.029 -0.8114 -0.4505 -1.0681
  938MOL0     H26572   9.450   4.794   5.028 -1.8018  3.3273  2.0548
  938MOL0     H26573   9.393   4.724   4.784  2.8151 -0.0341  2.7122
  938MOL0     H26574   9.238   4.802   4.804 -0.3377 -3.2128  1.1170
  938MOL0     H26575   9.496   4.952   4.849  0.1457 -1.4993 -0.3598
  938MOL0     H26576   9.408   4.957   4.700 -1.3370  0.4793 -1.0674
  938MOL0     H26577   9.353   5.060   4.987  1.3598  0.3635 -0.6812
  938MOL0     H26578   9.215   5.008   4.883  1.2229 -1.0549  1.7797
  938MOL0     H26579   9.442   5.208   4.843  0.2308  0.2046 -0.3379
  938MOL0     H26580   9.323   5.184   4.710  3.2558  0.5980 -0.1242
  938MOL0     H26581   9.091   5.294   4.751  1.0250 -4.4289  1.8246
  938MOL0     H26582   8.902   5.412   4.869  3.1887 -3.5856 -2.3489
  938MOL0     H26583   8.936   5.462   5.034  2.0470  1.8589  0.8428
  938MOL0     H26584   9.069   5.664   4.945 -0.6606  1.1136 -0.4197
  938MOL0     H26585   9.006   5.611   4.782 -2.0495 -0.6162 -0.2734
  938MOL0     H26586   8.832   5.662   5.024 -1.2137 -0.0603 -0.3418
  938MOL0     H26587   8.783   5.652   4.862 -0.5142 -0.1858  2.3317
  938MOL0     H26588   8.840   5.839   4.800 -0.0845  2.3058 -0.1170
  938MOL0     H26589   8.977   5.863   4.927  0.1793  2.3393  2.5309
  938MOL0     H26590   8.898   6.077   4.813  0.1025 -0.5045  1.1765
  938MOL0     H26591   8.823   6.326   4.770 -2.8041  3.5626  1.4480
  938MOL0     H26592   8.639   6.687   5.178  0.0648  0.0931 -0.6959
  938MOL0     H26593   8.592   6.926   5.194 -1.2611  0.2691  1.0108
  938MOL0     H26594   8.474   7.161   4.872 -0.4004  0.8914 -0.6635
  938MOL0     H26595   8.309   7.101   4.867 -0.4567 -1.4165  1.1763
  938MOL0     H26596   8.263   7.255   5.071 -2.4056  0.2171 -3.3953
  938MOL0     H26597   8.431   7.309   5.055  1.0555 -0.1730  0.4020
  938MOL0     H26598   8.351   7.466   4.922 -0.4920  0.7376 -0.3920
  938MOL0     H26599   8.331   7.327   4.798 -3.1567 -1.9025  0.5510
  938MOL0     H26600   8.133   7.408   4.998  2.8199 -0.4020 -0.2291
  938MOL0     H26601   8.097   7.318   4.853 -2.9289  0.9214 -0.2231
  938MOL0     H26602   8.002   7.524   4.833  0.3043  2.3394 -4.0722
  938MOL0     H26603   8.128   7.531   4.714 -0.0749 -1.2135 -0.5737
  938MOL0     H26604   8.152   7.622   5.000  1.7894 -0.4457 -0.4235
  938MOL0     H26605   8.255   7.677   4.880  0.7095 -1.0400  1.3030
  938MOL0     H26606   7.958   7.754   4.901 -0.4503  0.0211 -0.8790
  938MOL0     H26607   8.045   7.777   4.755  0.5988 -2.9810 -0.4374
  938MOL0     H26608   8.187   7.946   4.883  1.2421 -1.8954 -1.0118
  938MOL0     H26609   8.014   7.973   4.902  0.6139  0.1876  0.8683
  938MOL0     H26610   8.348   6.892   4.845 -0.9022  0.4327  1.0211
  938MOL0     H26611   8.413   6.661   4.809 -1.3438 -1.4761  1.8692
  938MOL0     H26612   8.575   6.291   5.109 -0.3524  1.3550 -1.5752
  938MOL0     H26613   8.624   6.047   5.122  1.3234  0.9602  2.6977
  938MOL0     H26614   8.969   4.287   5.003 -1.0895 -0.1906 -1.2076
  938MOL0     H26615   8.770   4.142   5.088 -1.9507  0.4478  1.2502
  938MOL0     H26616   8.330   4.036   5.059  0.8037 -1.3458 -0.1060
  938MOL0     H26617   8.148   3.888   5.123  2.2533  0.6247 -1.0554
  938MOL0     H26618   8.171   3.667   5.251  1.5880  1.8692  1.7965
  938MOL0     H26619   8.005   3.745   5.221  0.2022  1.7719  1.0077
  938MOL0     H26620   8.034   3.570   5.456  1.0209 -0.3342 -0.4059
  938MOL0     H26621   8.020   3.492   5.294 -0.9922  1.1912 -1.2422
  938MOL0     H26622   7.799   3.653   5.273 -1.2630 -1.1958  0.2004
  938MOL0     H26623   7.845   3.702   5.437  1.2741  1.0837 -0.8042
  938MOL0     H26624   7.802   3.493   5.528  2.7231  2.9113 -0.6122
  938MOL0     H26625   7.663   3.544   5.435 -0.4839 -0.8738 -0.5766
  938MOL0     H26626   7.806   3.175   5.261 -0.2814 -2.2285  0.7259
  938MOL0     H26627   8.265   3.931   5.536 -1.5026  1.7309  0.0558
  938MOL0     H26628   8.531   4.181   5.501 -2.9557  1.1350 -2.7691
  938MOL0     H26629   8.424   4.093   5.595  2.0709  0.1335  0.1893
  938MOL0     H26630   8.568   4.013   5.520  1.4499 -0.5912 -1.7580
  939MOL0     O26631   3.307   4.409   6.767 -1.0282 -0.4039  0.4910
  939MOL0     C26632   3.258   4.460   6.867  0.5414  0.2277 -1.5774
  939MOL0     O26633   3.308   4.446   6.993  0.7766 -0.4152  0.3933
  939MOL0     C26634   3.381   4.337   7.028 -0.1992 -0.0182  0.0323
  939MOL0     C26635   3.516   4.327   7.001  0.1916 -1.2887  0.0772
  939MOL0     C26636   3.590   4.211   7.035  0.2493 -0.3216  0.5357
  939MOL0     C26637   3.528   4.104   7.105  0.0496  0.7694  0.4115
  939MOL0     O26638   3.601   3.991   7.122  0.4699  0.7263  0.0484
  939MOL0     C26639   3.563   3.904   7.234 -0.1079 -0.6156  0.1766
  939MOL0     C26640   3.664   3.788   7.234  0.0605 -0.0862  0.4053
  939MOL0     C26641   3.806   3.840   7.235 -0.0502  0.6440  0.6285
  939MOL0     C26642   3.920   3.730   7.246 -0.3589 -0.0449 -0.2808
  939MOL0     C26643   4.057   3.793   7.217 -0.1295 -0.4154  0.0821
  939MOL0     C26644   4.163   3.680   7.240  0.3607 -0.1964 -1.1441
  939MOL0     C26645   4.311   3.716   7.216 -0.9761 -0.3737 -0.6495
  939MOL0     C26646   4.387   3.600   7.147 -0.0187 -0.8756 -1.2806
  939MOL0     N26647   4.530   3.643   7.113  0.3748 -0.1537 -0.3209
  939MOL0     C26648   4.633   3.574   7.166 -0.2166  0.0785 -0.3067
  939MOL0     C26649   4.742   3.629   7.107  1.1457 -0.7846  0.1636
  939MOL0     C26650   4.887   3.586   7.131 -0.0088 -1.5137  0.4450
  939MOL0     C26651   4.906   3.433   7.144  1.2137 -0.2274  1.0179
  939MOL0     C26652   5.058   3.414   7.132  0.6560  0.1047 -0.8232
  939MOL0     C26653   5.108   3.413   7.275 -0.5260  0.2052 -0.3677
  939MOL0     O26654   5.076   3.285   7.326  0.2494 -0.2347 -0.4337
  939MOL0     C26655   5.171   3.198   7.362 -0.3638  0.6707 -0.6187
  939MOL0     C26656   5.297   3.189   7.295 -0.0616 -0.1608  0.9736
  939MOL0     C26657   5.392   3.088   7.334  0.6817  0.2084  0.8953
  939MOL0     C26658   5.363   3.010   7.452 -1.1922 -0.3719 -0.3970
  939MOL0     C26659   5.468   2.908   7.498  0.9339  0.3396 -0.7456
  939MOL0     O26660   5.465   2.840   7.620 -0.1801  0.2199  0.5506
  939MOL0     C26661   5.589   2.797   7.672 -0.6210  0.9898  0.6520
  939MOL0     C26662   5.698   2.882   7.697 -0.7996 -0.2991 -0.5070
  939MOL0     C26663   5.815   2.824   7.749  0.0774 -0.4808 -0.7439
  939MOL0     C26664   5.834   2.682   7.767  0.0757  0.0445 -1.4168
  939MOL0     O26665   5.966   2.632   7.799  0.3991  0.0019 -0.0535
  939MOL0     C26666   6.067   2.676   7.709 -0.1713  0.0554 -0.3858
  939MOL0     C26667   6.180   2.580   7.703 -0.1031 -0.1736 -0.6829
  939MOL0     C26668   6.134   2.441   7.648 -0.0775 -0.3020 -0.4013
  939MOL0     C26669   6.254   2.347   7.621 -0.1479 -0.3453 -0.2819
  939MOL0     C26670   6.199   2.214   7.565  0.4116  0.6730  0.0386
  939MOL0     C26671   6.276   2.168   7.449  0.1832 -0.0356  0.3239
  939MOL0     C26672   6.397   2.083   7.481  0.8185  0.7303  0.3779
  939MOL0     C26673   6.471   2.061   7.354  0.4855 -0.4470 -0.7458
  939MOL0    Cl26674   6.374   1.969   7.232  0.3053 -0.5489  0.1338
  939MOL0     C26675   5.726   2.598   7.734  0.8368 -0.4082 -0.4080
  939MOL0     C26676   5.606   2.655   7.689  0.0605  0.7410 -0.7697
  939MOL0     O26677   5.553   2.888   7.414 -0.0890  0.4592 -0.0122
  939MOL0     C26678   5.233   3.013   7.511 -0.0617 -1.0085  1.5113
  939MOL0     C26679   5.140   3.108   7.467 -0.5208  0.2088 -0.6854
  939MOL0     N26680   4.695   3.720   7.025 -0.8608 -0.4572 -0.2002
  939MOL0     N26681   4.565   3.734   7.025 -0.3800 -0.3545  1.0076
  939MOL0     C26682   3.394   4.125   7.156 -0.8055 -0.5630  0.3794
  939MOL0     C26683   3.319   4.235   7.105 -0.0621  0.0911 -0.1727
  939MOL0     C26684   3.139   4.551   6.864  0.2471 -0.1275 -0.2217
  939MOL0     C26685   3.096   4.621   6.979 -0.4829 -0.2727  0.1114
  939MOL0     C26686   2.981   4.704   6.985  0.4966 -0.0912  0.3760
  939MOL0     C26687   2.914   4.732   6.866  0.1947  0.3331 -0.1416
  939MOL0     O26688   2.803   4.820   6.869 -0.5737 -0.4146 -0.7394
  939MOL0     C26689   2.687   4.768   6.940 -0.1321  0.3696  0.8241
  939MOL0     C26690   2.627   4.883   7.018  0.3210  1.0343 -0.4929
  939MOL0     C26691   2.477   4.905   7.004  0.2587 -0.0973  0.1368
  939MOL0     C26692   2.394   4.787   7.021  0.0132  0.4465  0.9895
  939MOL0     C26693   2.412   4.731   7.155  0.1417  0.0098  0.1648
  939MOL0     C26694   2.420   4.697   7.274  0.5388  0.4519 -0.0361
  939MOL0     C26695   2.962   4.670   6.753  0.2673 -0.4144  0.8119
  939MOL0     C26696   3.070   4.573   6.745  0.4994 -0.7108 -0.0241
  939MOL0     C26697   3.075   4.486   6.627  0.3686  1.0885 -0.1538
  939MOL0     H26698   3.565   4.401   6.939 -0.8591 -1.5616 -1.1303
  939MOL0     H26699   3.694   4.186   7.021  0.8186  0.5984  2.7068
  939MOL0     H26700   3.579   3.950   7.331  1.9323  1.8191 -1.2011
  939MOL0     H26701   3.460   3.868   7.219  0.0251 -1.3970  1.0416
  939MOL0     H26702   3.642   3.728   7.146  0.2648 -0.3501  0.5319
  939MOL0     H26703   3.644   3.721   7.319 -2.7574 -0.6864 -0.6108
  939MOL0     H26704   3.823   3.905   7.322  1.7128  0.5692  0.3630
  939MOL0     H26705   3.816   3.885   7.136  1.9496 -2.2800 -0.6299
  939MOL0     H26706   3.918   3.688   7.347 -0.9862  1.0817  0.1890
  939MOL0     H26707   3.894   3.645   7.182  0.4773  0.8282 -1.8371
  939MOL0     H26708   4.057   3.818   7.110  0.4671  0.9931  0.3862
  939MOL0     H26709   4.081   3.889   7.264  3.7209 -1.2145  0.0804
  939MOL0     H26710   4.152   3.637   7.340 -5.6559 -2.0278 -2.1322
  939MOL0     H26711   4.131   3.608   7.164  0.3319  1.1667 -2.4540
  939MOL0     H26712   4.359   3.742   7.310  1.1238 -1.5559 -1.3404
  939MOL0     H26713   4.307   3.803   7.149 -1.2703 -1.4730 -2.1131
  939MOL0     H26714   4.380   3.521   7.222 -2.4272 -1.2120 -1.7739
  939MOL0     H26715   4.340   3.570   7.053 -0.4831  0.5209 -1.5146
  939MOL0     H26716   4.642   3.495   7.239  1.4477 -0.1360 -0.7070
  939MOL0     H26717   4.942   3.613   7.041 -2.0021  0.0222 -0.3839
  939MOL0     H26718   4.928   3.646   7.213  1.1993 -2.1584  0.3332
  939MOL0     H26719   4.852   3.411   7.237 -0.3029  1.4041  0.5768
  939MOL0     H26720   4.853   3.385   7.061 -0.2554  3.1510 -0.1596
  939MOL0     H26721   5.108   3.488   7.069 -4.7304  2.1089 -3.3717
  939MOL0     H26722   5.071   3.319   7.079 -0.2589  0.4842 -1.7527
  939MOL0     H26723   5.073   3.493   7.340  1.7796 -0.3745  1.7409
  939MOL0     H26724   5.213   3.445   7.269 -0.9119  1.3464 -2.1332
  939MOL0     H26725   5.303   3.242   7.201 -0.9814 -2.7934 -0.6684
  939MOL0     H26726   5.483   3.071   7.278 -0.3100 -0.5063 -0.5401
  939MOL0     H26727   5.697   2.989   7.678  3.2993 -0.0334 -0.0499
  939MOL0     H26728   5.887   2.894   7.788 -0.7144  0.4985 -1.0144
  939MOL0     H26729   6.031   2.691   7.607 -0.2848  3.6995  0.0680
  939MOL0     H26730   6.094   2.777   7.740 -2.2966  0.9435 -1.2094
  939MOL0     H26731   6.246   2.626   7.630  0.8671  0.5349  0.5998
  939MOL0     H26732   6.221   2.568   7.804  0.7582 -0.1606 -1.0255
  939MOL0     H26733   6.084   2.387   7.729 -1.8824 -1.9002 -2.4478
  939MOL0     H26734   6.073   2.450   7.557  1.0453  2.0980 -1.0054
  939MOL0     H26735   6.317   2.318   7.706 -0.1043 -0.6305 -0.4122
  939MOL0     H26736   6.313   2.401   7.546 -0.1809  3.1881  2.0083
  939MOL0     H26737   6.096   2.230   7.531  0.7356  1.8382 -0.4179
  939MOL0     H26738   6.181   2.132   7.636 -0.4354  1.3148  0.5900
  939MOL0     H26739   6.203   2.112   7.391  0.1683 -0.8064  1.0719
  939MOL0     H26740   6.302   2.250   7.381 -1.2700 -0.9653 -1.4455
  939MOL0     H26741   6.364   1.990   7.528 -0.2448  0.8656 -0.0853
  939MOL0     H26742   6.452   2.143   7.554  2.4120  0.0762 -0.2369
  939MOL0     H26743   6.496   2.153   7.300 -0.3960 -2.0132 -4.1366
  939MOL0     H26744   6.568   2.011   7.352  0.6305 -0.3442 -4.5333
  939MOL0     H26745   5.750   2.493   7.744  1.2847 -0.6023 -2.8283
  939MOL0     H26746   5.531   2.586   7.652  0.8475 -0.5421 -0.0337
  939MOL0     H26747   5.213   2.921   7.564 -1.2596 -2.0560 -0.5995
  939MOL0     H26748   5.039   3.107   7.507  0.0452  2.0776  0.9296
  939MOL0     H26749   3.340   4.064   7.228  1.0097 -1.4963  0.9904
  939MOL0     H26750   3.212   4.247   7.116 -0.2094  0.9019 -2.0780
  939MOL0     H26751   3.143   4.619   7.077 -1.0847  0.4735  0.4261
  939MOL0     H26752   2.949   4.756   7.075  1.1418 -3.1006  2.4728
  939MOL0     H26753   2.706   4.679   7.001 -2.5957 -0.6291  0.2552
  939MOL0     H26754   2.611   4.736   6.868  0.2185 -0.8881  0.9881
  939MOL0     H26755   2.678   4.971   6.979 -0.9113  1.1078 -2.0107
  939MOL0     H26756   2.652   4.866   7.123 -0.8120  1.8862 -0.0670
  939MOL0     H26757   2.455   4.951   6.908  1.4350  1.1490  0.4369
  939MOL0     H26758   2.438   4.975   7.079  0.6508  1.0395 -0.6990
  939MOL0     H26759   2.289   4.810   7.000  0.3413  0.9865 -0.1564
  939MOL0     H26760   2.416   4.708   6.949 -1.3252  1.5479 -0.7272
  939MOL0     H26761   2.414   4.668   7.377 -1.2336  0.0230 -0.2269
  939MOL0     H26762   2.896   4.681   6.667  1.2218 -3.3594 -0.4563
  939MOL0     H26763   2.992   4.492   6.556 -0.3042  2.0263  0.6968
  939MOL0     H26764   3.172   4.490   6.575  2.7513 -0.3108  3.7251
  939MOL0     H26765   3.073   4.386   6.671  1.6514  1.1460  0.0717
  940MOL0     O26766   4.842   6.492   2.146  0.1396  0.0220 -0.0018
  940MOL0     C26767   4.805   6.610   2.129  0.6020 -0.0371  0.8885
  940MOL0     O26768   4.744   6.644   2.011  0.9986 -0.9142  0.5555
  940MOL0     C26769   4.718   6.552   1.907 -0.0072 -0.2768  0.0473
  940MOL0     C26770   4.717   6.417   1.917  0.3167  0.8075 -0.7538
  940MOL0     C26771   4.716   6.335   1.805 -0.1360 -0.3941 -0.5547
  940MOL0     C26772   4.692   6.392   1.680  0.1591  0.0428 -0.5108
  940MOL0     O26773   4.684   6.305   1.577  0.0324 -0.0654  0.8643
  940MOL0     C26774   4.742   6.316   1.447  0.8773 -0.1032 -0.4418
  940MOL0     C26775   4.903   6.310   1.450  0.2101 -0.1788  0.5226
  940MOL0     C26776   4.973   6.314   1.317 -0.0940 -0.4394 -0.5009
  940MOL0     C26777   5.003   6.457   1.281 -0.9107 -0.3735 -0.3603
  940MOL0     C26778   5.069   6.447   1.140 -0.5264  0.4548 -0.4173
  940MOL0     C26779   5.191   6.360   1.109 -0.4410 -0.4773  0.0659
  940MOL0     C26780   5.311   6.402   1.198  0.1321 -0.3925 -0.4173
  940MOL0     C26781   5.415   6.469   1.113  0.0325 -0.2053  0.6810
  940MOL0     N26782   5.438   6.407   0.978 -0.1760 -0.4183 -0.0399
  940MOL0     C26783   5.476   6.276   0.961  0.2829 -0.4379  0.1921
  940MOL0     C26784   5.479   6.274   0.825  0.2438  0.5546  0.0829
  940MOL0     C26785   5.516   6.149   0.751  0.9374  0.2849  0.0713
  940MOL0     C26786   5.658   6.172   0.697  0.4406 -0.4767 -0.1070
  940MOL0     C26787   5.688   6.057   0.598 -0.5514  0.5701 -0.2725
  940MOL0     C26788   5.835   6.054   0.582  0.2370  0.0846  0.6307
  940MOL0     O26789   5.901   6.011   0.700 -0.1111  0.3213  0.0362
  940MOL0     C26790   6.040   5.999   0.691 -0.5534  0.8239 -0.6469
  940MOL0     C26791   6.123   5.981   0.580 -0.0187 -0.0249 -0.2927
  940MOL0     C26792   6.266   5.963   0.593  0.9425 -0.3196  0.7604
  940MOL0     C26793   6.322   5.984   0.723  0.7046  1.0195 -0.3389
  940MOL0     C26794   6.472   5.971   0.749  0.2985 -0.3617  0.3310
  940MOL0     O26795   6.544   5.911   0.654  0.1604 -0.9350 -0.2850
  940MOL0     C26796   6.674   5.876   0.679  0.4287  0.4477 -0.9086
  940MOL0     C26797   6.759   5.871   0.566 -1.8463 -0.6233  0.2898
  940MOL0     C26798   6.903   5.838   0.584  0.4571 -0.2464  0.9230
  940MOL0     C26799   6.948   5.826   0.715  0.2555  0.6192 -0.0773
  940MOL0     O26800   7.086   5.794   0.718  0.1852  0.0691 -0.2653
  940MOL0     C26801   7.117   5.696   0.809 -0.0297 -0.3031  0.1511
  940MOL0     C26802   7.243   5.636   0.750 -0.5343 -0.7558  0.9034
  940MOL0     C26803   7.368   5.695   0.807  0.8123 -0.0913 -0.0585
  940MOL0     C26804   7.392   5.838   0.759 -1.0605 -0.2600 -0.0109
  940MOL0     C26805   7.507   5.906   0.836  0.2361  0.3684  0.2449
  940MOL0     C26806   7.651   5.848   0.806  0.0548 -0.3488  0.3150
  940MOL0     C26807   7.759   5.958   0.833 -0.1946  0.4219  0.0248
  940MOL0     C26808   7.898   5.890   0.864 -0.9422  0.5487 -0.1025
  940MOL0    Cl26809   7.970   5.812   0.716  0.2407 -0.1275  0.5076
  940MOL0     C26810   6.863   5.830   0.826 -0.5454  1.1861 -1.1213
  940MOL0     C26811   6.728   5.840   0.807 -1.2948 -0.4957 -1.4535
  940MOL0     O26812   6.505   6.021   0.855  0.0650  0.4444 -0.0576
  940MOL0     C26813   6.243   6.013   0.824 -0.2962  0.0110 -0.2116
  940MOL0     C26814   6.107   6.007   0.816 -0.1294  0.5016 -0.8452
  940MOL0     N26815   5.442   6.390   0.766 -0.1807 -0.5204  0.0357
  940MOL0     N26816   5.428   6.475   0.855  0.2533  0.0593 -1.2893
  940MOL0     C26817   4.682   6.527   1.669 -0.1849  0.1496  0.0381
  940MOL0     C26818   4.697   6.613   1.779  0.2323 -0.3597  0.8752
  940MOL0     C26819   4.845   6.717   2.219 -0.5644 -0.9923  0.0037
  940MOL0     C26820   4.786   6.847   2.202 -0.4563  1.2557  0.1212
  940MOL0     C26821   4.822   6.949   2.285  0.3446 -0.8543  0.8062
  940MOL0     C26822   4.914   6.945   2.384 -0.3939  0.7799  0.5039
  940MOL0     O26823   4.962   7.048   2.459  0.1458  0.1334 -0.1511
  940MOL0     C26824   4.916   7.181   2.448  0.6585 -0.1984  0.8482
  940MOL0     C26825   4.812   7.200   2.564  0.1332  0.1362  0.4141
  940MOL0     C26826   4.870   7.275   2.684 -0.8613  0.0166  0.0661
  940MOL0     C26827   4.780   7.316   2.802  0.1323  0.4825  0.0112
  940MOL0     C26828   4.746   7.205   2.890 -0.3841 -0.4761  0.6804
  940MOL0     C26829   4.744   7.117   2.975  0.4718  0.3121  0.0542
  940MOL0     C26830   4.962   6.818   2.407 -0.3950 -0.3120 -0.4768
  940MOL0     C26831   4.931   6.707   2.334 -0.3149  0.5417 -0.8767
  940MOL0     C26832   5.011   6.581   2.370  0.4747  0.5484 -0.2001
  940MOL0     H26833   4.731   6.355   2.006  0.6369 -0.4531 -1.6581
  940MOL0     H26834   4.718   6.227   1.807 -0.6932 -0.4147  1.6922
  940MOL0     H26835   4.697   6.235   1.388  1.1466 -0.7690  0.2574
  940MOL0     H26836   4.711   6.418   1.420  0.4741  0.1296  0.8544
  940MOL0     H26837   4.927   6.219   1.504 -1.9547 -1.6921 -0.8865
  940MOL0     H26838   4.943   6.396   1.506 -0.2562  0.6098 -0.3201
  940MOL0     H26839   4.929   6.258   1.235  0.4284 -3.1949  0.9859
  940MOL0     H26840   5.070   6.268   1.341  0.5610  1.8713  1.8398
  940MOL0     H26841   4.923   6.531   1.295  3.1688  4.2492  1.1929
  940MOL0     H26842   5.078   6.498   1.348 -0.7913  0.7126 -1.1255
  940MOL0     H26843   4.992   6.411   1.071  0.0024 -3.4120  0.7984
  940MOL0     H26844   5.092   6.549   1.109 -0.8109 -0.6838 -5.0013
  940MOL0     H26845   5.187   6.253   1.135  1.0964 -0.5609  0.0538
  940MOL0     H26846   5.194   6.368   1.000  2.3625  0.2082  0.1115
  940MOL0     H26847   5.350   6.310   1.243 -0.9575 -1.8177 -2.2333
  940MOL0     H26848   5.282   6.471   1.277  1.2702  1.1071 -1.2653
  940MOL0     H26849   5.371   6.567   1.091 -3.3958 -1.5998  0.8036
  940MOL0     H26850   5.510   6.493   1.161  0.0628 -1.9881  1.5916
  940MOL0     H26851   5.491   6.200   1.037 -0.8097 -0.0966  0.7607
  940MOL0     H26852   5.513   6.058   0.812 -3.0992  1.8814  2.6914
  940MOL0     H26853   5.442   6.133   0.671  2.6359  1.5216 -1.8602
  940MOL0     H26854   5.671   6.269   0.648 -1.5940  0.5323  1.2018
  940MOL0     H26855   5.733   6.163   0.776  3.9115 -0.5585 -3.1494
  940MOL0     H26856   5.649   6.079   0.498  2.7225 -0.6128 -1.9365
  940MOL0     H26857   5.641   5.965   0.634 -1.3397  1.1475  0.2187
  940MOL0     H26858   5.874   6.152   0.555  2.9822 -1.0117  0.1922
  940MOL0     H26859   5.862   5.994   0.494  2.2053 -1.9546  2.4688
  940MOL0     H26860   6.073   5.983   0.484  1.4867  1.8598 -1.1154
  940MOL0     H26861   6.324   5.939   0.504  0.6340 -2.2049  1.0354
  940MOL0     H26862   6.710   5.865   0.469 -2.2289  1.8401  0.2685
  940MOL0     H26863   6.975   5.821   0.506  2.4701 -0.1519  2.6658
  940MOL0     H26864   7.141   5.746   0.903 -2.8062  0.9157  0.3057
  940MOL0     H26865   7.045   5.614   0.816  1.0563 -1.8574 -3.9789
  940MOL0     H26866   7.241   5.527   0.758 -2.3274 -0.9393 -1.0688
  940MOL0     H26867   7.253   5.656   0.643 -1.0643  1.8697  1.2838
  940MOL0     H26868   7.376   5.692   0.917 -1.8582 -1.0549  0.1716
  940MOL0     H26869   7.452   5.631   0.778  2.4732  1.8277  0.3497
  940MOL0     H26870   7.306   5.905   0.765  0.2191  1.4893 -0.2321
  940MOL0     H26871   7.416   5.835   0.652 -0.4531 -3.7582  0.1131
  940MOL0     H26872   7.500   5.888   0.943 -0.6689  0.7358  0.2461
  940MOL0     H26873   7.512   6.012   0.808  0.1747  0.9229  2.2400
  940MOL0     H26874   7.677   5.750   0.848 -1.4872 -0.0373  2.1646
  940MOL0     H26875   7.655   5.836   0.698 -1.0281 -3.4466  0.5147
  940MOL0     H26876   7.734   5.996   0.933 -0.0803 -0.7153  0.4986
  940MOL0     H26877   7.761   6.044   0.765  2.1082  1.7434  1.6176
  940MOL0     H26878   7.972   5.955   0.912  4.0493 -3.7285 -1.0675
  940MOL0     H26879   7.882   5.818   0.945 -0.3213  1.3768  0.7879
  940MOL0     H26880   6.894   5.826   0.930 -3.7975  0.5792 -0.0697
  940MOL0     H26881   6.663   5.830   0.893  0.9539 -1.2836  0.2731
  940MOL0     H26882   6.290   6.030   0.920  0.7873 -4.1221  0.2091
  940MOL0     H26883   6.046   6.026   0.904  1.7128  2.9826 -0.0133
  940MOL0     H26884   4.671   6.567   1.569 -0.9805  1.6085  0.6719
  940MOL0     H26885   4.706   6.718   1.751 -0.1779 -1.0493 -2.1925
  940MOL0     H26886   4.699   6.856   2.138 -1.3162 -1.6368  0.7258
  940MOL0     H26887   4.763   7.038   2.265  0.7934 -0.5486  0.8134
  940MOL0     H26888   4.867   7.208   2.354 -0.0041  1.5658  1.6518
  940MOL0     H26889   4.995   7.256   2.446 -2.5871  3.5114  0.4061
  940MOL0     H26890   4.783   7.101   2.599 -2.2888  0.8192  0.5282
  940MOL0     H26891   4.726   7.254   2.524  0.8826 -0.1924 -1.7605
  940MOL0     H26892   4.912   7.366   2.640 -1.4854  0.1021 -0.3656
  940MOL0     H26893   4.963   7.227   2.716 -0.2255  0.5334 -0.9539
  940MOL0     H26894   4.821   7.396   2.865 -0.3141  1.2361 -0.6312
  940MOL0     H26895   4.680   7.348   2.772 -0.8962  1.0672  3.5972
  940MOL0     H26896   4.726   7.035   3.043 -1.9006 -1.3711 -2.3770
  940MOL0     H26897   5.034   6.811   2.489  0.9380  0.8725 -1.5073
  940MOL0     H26898   5.073   6.548   2.286  0.3895 -1.6267  0.5524
  940MOL0     H26899   5.067   6.600   2.462  1.3567  2.4779 -1.0533
  940MOL0     H26900   4.934   6.505   2.383  0.8800 -0.3194 -2.4276
  941MOL0     O26901   2.860   5.610   8.237 -0.4363 -0.0009  0.4527
  941MOL0     C26902   2.837   5.723   8.210 -0.1574  0.1676  0.5872
  941MOL0     O26903   2.716   5.786   8.235  0.6759 -0.3452  1.0960
  941MOL0     C26904   2.596   5.713   8.258  0.4396 -0.5168  0.1277
  941MOL0     C26905   2.516   5.781   8.342  0.0120  0.2388  0.1682
  941MOL0     C26906   2.385   5.733   8.376 -1.0162 -0.1832  0.1618
  941MOL0     C26907   2.348   5.613   8.316  0.5445 -0.2410  0.0095
  941MOL0     O26908   2.234   5.541   8.323  0.2404 -0.4470 -0.4649
  941MOL0     C26909   2.122   5.611   8.370  0.5009  0.5798  0.1990
  941MOL0     C26910   2.002   5.538   8.350  0.9518 -0.3511 -0.2461
  941MOL0     C26911   1.865   5.614   8.369 -0.7348 -0.9207 -0.8178
  941MOL0     C26912   1.848   5.695   8.502 -0.7477  0.9351  0.2334
  941MOL0     C26913   1.894   5.847   8.491 -0.0917 -0.6897 -0.2467
  941MOL0     C26914   1.918   5.925   8.624  1.0973  0.0616  0.6833
  941MOL0     C26915   1.778   5.957   8.682  0.2474  0.2821 -0.2668
  941MOL0     C26916   1.774   6.010   8.831  0.6860  0.4384 -0.0543
  941MOL0     N26917   1.646   6.074   8.871  0.0907  0.2290 -0.2858
  941MOL0     C26918   1.538   6.007   8.933  0.3066  0.2219 -0.8056
  941MOL0     C26919   1.441   6.097   8.939  0.0417 -0.4600 -0.7087
  941MOL0     C26920   1.312   6.077   9.005  0.3553  0.8086 -0.3274
  941MOL0     C26921   1.206   6.187   8.967  0.0820  0.2674 -0.2496
  941MOL0     C26922   1.062   6.148   9.021  0.0541  0.9535 -0.0929
  941MOL0     C26923   0.960   6.245   8.976  0.2957 -0.4059  0.3265
  941MOL0     O26924   1.010   6.370   9.019 -0.8653  0.8180  0.3085
  941MOL0     C26925   0.927   6.478   9.024  1.1912 -1.0199 -0.7441
  941MOL0     C26926   0.793   6.472   9.068  0.7690  0.0831 -0.7764
  941MOL0     C26927   0.706   6.585   9.097 -0.6861 -0.0419 -0.6892
  941MOL0     C26928   0.758   6.718   9.069 -0.9319  0.5724  0.1289
  941MOL0     C26929   0.680   6.839   9.090 -0.3356  0.7055 -0.2364
  941MOL0     O26930   0.709   6.953   9.027  0.0122  0.2741 -0.4253
  941MOL0     C26931   0.609   7.049   9.001  0.6182 -0.3728 -0.0790
  941MOL0     C26932   0.469   7.030   8.960 -0.3286  1.0960 -0.6850
  941MOL0     C26933   0.387   7.135   8.941  1.0350 -0.3707 -0.5145
  941MOL0     C26934   0.439   7.270   8.952 -0.4987  0.8051 -0.4898
  941MOL0     O26935   0.353   7.377   8.956  0.2796 -0.1973 -0.3740
  941MOL0     C26936   0.208   7.370   8.975  0.0779  0.4444  0.4740
  941MOL0     C26937   0.152   7.506   8.990 -0.5607  0.1444  0.4635
  941MOL0     C26938  -0.004   7.476   9.009 -0.3916 -0.2315 -0.8716
  941MOL0     C26939  -0.096   7.567   8.927 -0.0655  0.0595  0.4265
  941MOL0     C26940  -0.229   7.597   9.003 -0.6925  0.6754 -0.1535
  941MOL0     C26941  -0.364   7.596   8.926 -1.8082  0.7000  0.3853
  941MOL0     C26942  -0.481   7.676   8.985  0.0224  1.2709 -1.0970
  941MOL0     C26943  -0.544   7.637   9.121  0.0540  0.3546  0.1526
  941MOL0    Cl26944  -0.572   7.453   9.117  0.1153  0.3238 -0.3543
  941MOL0     C26945   0.574   7.289   8.989  1.1609 -1.4986  0.2100
  941MOL0     C26946   0.652   7.184   9.029 -0.4748 -0.3469  0.1914
  941MOL0     O26947   0.580   6.818   9.153 -0.2106 -0.2519 -0.5364
  941MOL0     C26948   0.887   6.723   9.017  1.1663  0.2245  0.4595
  941MOL0     C26949   0.967   6.608   8.993  0.3902 -1.2715  0.5653
  941MOL0     N26950   1.484   6.213   8.876 -0.4861  0.4594  0.0675
  941MOL0     N26951   1.604   6.193   8.826  0.2187 -0.3124 -0.8108
  941MOL0     C26952   2.436   5.560   8.219  0.0403 -0.0261 -0.4101
  941MOL0     C26953   2.563   5.605   8.195 -0.4068  0.2842 -0.9122
  941MOL0     C26954   2.944   5.785   8.116 -0.3731  0.5462  0.2094
  941MOL0     C26955   2.937   5.927   8.122  0.2753 -0.4798 -1.0416
  941MOL0     C26956   3.017   6.003   8.036 -0.6204  0.0105 -0.0056
  941MOL0     C26957   3.095   5.939   7.935 -0.5964 -0.1023  0.5788
  941MOL0     O26958   3.157   6.018   7.831  0.5078  0.3001 -0.0928
  941MOL0     C26959   3.261   6.098   7.870  0.1784  0.2348  0.4475
  941MOL0     C26960   3.240   6.243   7.884  0.3308  0.7990 -0.0411
  941MOL0     C26961   3.357   6.308   7.961 -0.5980  0.9402 -0.5823
  941MOL0     C26962   3.337   6.448   7.943  0.9466 -0.6586  0.6827
  941MOL0     C26963   3.414   6.529   8.040  0.3540 -0.7651  0.2333
  941MOL0     C26964   3.475   6.607   8.111  0.7496  0.9297  0.7639
  941MOL0     C26965   3.105   5.802   7.937  0.0950  0.3307  0.3097
  941MOL0     C26966   3.031   5.718   8.027  0.0478  0.3288  0.2022
  941MOL0     C26967   3.022   5.567   7.999 -1.1078  0.0020  0.6399
  941MOL0     H26968   2.569   5.869   8.379 -1.7274  0.3957  2.4383
  941MOL0     H26969   2.308   5.785   8.432 -0.1568  1.0804  0.2105
  941MOL0     H26970   2.129   5.625   8.479 -0.3614 -0.7969  0.4457
  941MOL0     H26971   2.112   5.713   8.332  4.3649  0.9900 -0.1437
  941MOL0     H26972   1.997   5.457   8.423 -1.4075  1.5022  1.8172
  941MOL0     H26973   2.008   5.500   8.248  1.8499 -1.5695  0.2311
  941MOL0     H26974   1.785   5.540   8.364 -0.4815 -1.1732 -1.2124
  941MOL0     H26975   1.851   5.681   8.284 -3.4476  0.0216  0.2856
  941MOL0     H26976   1.745   5.694   8.539 -1.3254 -2.0703 -1.1210
  941MOL0     H26977   1.898   5.631   8.575 -1.8652  0.1619  0.3555
  941MOL0     H26978   1.991   5.837   8.443 -1.0786 -2.9025 -1.9689
  941MOL0     H26979   1.832   5.904   8.421  2.7467  0.3854 -2.0545
  941MOL0     H26980   1.972   5.854   8.687 -0.9347 -2.4594 -0.2356
  941MOL0     H26981   1.969   6.020   8.604  3.1543 -1.1851 -0.3586
  941MOL0     H26982   1.711   5.872   8.669  3.5512 -2.4633 -0.5319
  941MOL0     H26983   1.726   6.042   8.634 -0.7331 -1.9205 -3.4586
  941MOL0     H26984   1.792   5.924   8.896 -0.9076 -0.1949 -0.3987
  941MOL0     H26985   1.852   6.086   8.839  3.0887 -1.7565 -1.2339
  941MOL0     H26986   1.528   5.900   8.950 -2.6115  0.2207 -2.0002
  941MOL0     H26987   1.280   5.975   8.980 -0.9991  1.4602 -1.3999
  941MOL0     H26988   1.337   6.076   9.112 -1.3642  2.0374  0.1162
  941MOL0     H26989   1.231   6.280   9.020 -1.4652 -0.7282  2.4237
  941MOL0     H26990   1.200   6.217   8.862 -0.2750  1.4188  0.0870
  941MOL0     H26991   1.068   6.149   9.130 -1.2354 -1.0337  0.0522
  941MOL0     H26992   1.027   6.048   8.994  1.3036  0.4474  0.1419
  941MOL0     H26993   0.857   6.218   9.003 -0.8507 -0.0056 -3.1182
  941MOL0     H26994   0.965   6.252   8.867  1.0576  5.1708  0.4313
  941MOL0     H26995   0.749   6.374   9.081  1.7403 -0.1143  1.5995
  941MOL0     H26996   0.604   6.562   9.126 -0.0953 -1.3885  0.4316
  941MOL0     H26997   0.442   6.926   8.951  0.5249  0.5296  2.2499
  941MOL0     H26998   0.291   7.114   8.895  1.0696 -1.1010 -0.2599
  941MOL0     H26999   0.172   7.329   8.880 -4.9311  0.5563  2.0397
  941MOL0     H27000   0.180   7.305   9.058 -5.0328 -0.9762 -1.9478
  941MOL0     H27001   0.188   7.558   9.078  0.5229  1.2187 -0.5874
  941MOL0     H27002   0.164   7.569   8.901 -2.3604  0.9214  0.7265
  941MOL0     H27003  -0.025   7.369   8.996 -1.0798 -0.2520  0.2408
  941MOL0     H27004  -0.021   7.507   9.113  1.4815  0.0785 -0.6244
  941MOL0     H27005  -0.117   7.506   8.839 -3.0579 -0.6615  1.5010
  941MOL0     H27006  -0.040   7.658   8.907 -0.2099  0.9394  3.5487
  941MOL0     H27007  -0.204   7.701   9.024 -0.1474  0.1136  2.2568
  941MOL0     H27008  -0.219   7.527   9.087 -0.9091 -0.9882 -1.4416
  941MOL0     H27009  -0.345   7.654   8.835 -1.9254 -0.7425 -0.5863
  941MOL0     H27010  -0.387   7.493   8.898  0.8409 -0.4368  2.0258
  941MOL0     H27011  -0.563   7.666   8.914 -1.0256  3.2161 -0.2415
  941MOL0     H27012  -0.467   7.784   8.980 -5.8399  2.4203  0.3403
  941MOL0     H27013  -0.472   7.651   9.201 -1.1633 -0.4340  1.4319
  941MOL0     H27014  -0.633   7.697   9.143 -0.2324 -0.7248  2.0817
  941MOL0     H27015   0.599   7.393   9.004 -3.6584 -0.0082 -0.3188
  941MOL0     H27016   0.757   7.209   9.036 -0.6524  2.7748 -4.2456
  941MOL0     H27017   0.915   6.827   9.001 -1.4068  1.4892  3.2373
  941MOL0     H27018   1.068   6.636   8.964  0.0598  2.4633  2.3980
  941MOL0     H27019   2.412   5.486   8.143  0.9287  0.3862 -1.1165
  941MOL0     H27020   2.630   5.566   8.119  0.1897  0.9012 -0.7084
  941MOL0     H27021   2.871   5.981   8.188 -3.7091 -2.6659 -2.8775
  941MOL0     H27022   3.031   6.107   8.064 -0.3238  0.0507 -0.2859
  941MOL0     H27023   3.327   6.104   7.783  1.3530  1.9699  1.4084
  941MOL0     H27024   3.318   6.057   7.954 -1.3380 -0.5127  1.1382
  941MOL0     H27025   3.143   6.269   7.929  0.2471  1.0648 -0.3691
  941MOL0     H27026   3.230   6.289   7.786  1.5398  0.2925 -0.4164
  941MOL0     H27027   3.443   6.261   7.912 -3.1023 -0.3153 -4.1823
  941MOL0     H27028   3.341   6.285   8.066 -0.1341  2.8702 -0.0457
  941MOL0     H27029   3.362   6.473   7.840  3.0531 -1.3423  0.9800
  941MOL0     H27030   3.232   6.479   7.952  0.8932  0.2740 -2.2809
  941MOL0     H27031   3.522   6.676   8.178  0.2562  0.9569  1.0945
  941MOL0     H27032   3.170   5.758   7.862  1.0406 -1.6808  2.1734
  941MOL0     H27033   3.062   5.522   8.090  1.2361 -0.1020 -0.3805
  941MOL0     H27034   2.920   5.533   7.980 -1.1118 -0.6506  1.7117
  941MOL0     H27035   3.104   5.544   7.931 -2.5780  0.6251 -1.4218
  942MOL0     O27036  10.351   1.677   9.232 -0.4191  0.0757 -0.2365
  942MOL0     C27037  10.296   1.784   9.258 -0.0349  0.5849  0.3018
  942MOL0     O27038  10.171   1.804   9.299  0.9577 -0.1317  0.8832
  942MOL0     C27039  10.078   1.695   9.308  0.4379 -0.5487  0.0002
  942MOL0     C27040   9.951   1.721   9.239 -0.1878  0.1185 -0.3448
  942MOL0     C27041   9.857   1.623   9.233 -0.3028 -0.7546  0.1471
  942MOL0     C27042   9.876   1.508   9.299 -0.2161 -0.2781  0.2244
  942MOL0     O27043   9.773   1.412   9.306  0.3066  0.3104 -0.6406
  942MOL0     C27044   9.739   1.394   9.450  0.0238  0.3134 -0.0385
  942MOL0     C27045   9.632   1.501   9.489  0.3265 -0.5090 -0.0829
  942MOL0     C27046   9.652   1.557   9.634  0.6262 -0.5165 -0.0359
  942MOL0     C27047   9.553   1.681   9.665  0.5808  0.3550 -0.3856
  942MOL0     C27048   9.581   1.747   9.809 -0.4198 -0.0503 -0.7621
  942MOL0     C27049   9.693   1.843   9.807  0.3155  0.4943 -0.2639
  942MOL0     C27050   9.749   1.881   9.948  0.4460 -0.6674  0.1356
  942MOL0     C27051   9.854   1.996   9.929  0.3387  0.5995 -0.9338
  942MOL0     N27052   9.980   1.942   9.878 -0.6703  0.0719  0.2020
  942MOL0     C27053  10.016   1.938   9.751  0.4887 -0.9602  0.6103
  942MOL0     C27054  10.145   1.901   9.762  0.1430  0.0573  1.4993
  942MOL0     C27055  10.251   1.894   9.655  0.2999 -0.8310  0.3118
  942MOL0     C27056  10.320   2.029   9.612  0.9760 -0.0239  0.4400
  942MOL0     C27057  10.420   2.078   9.711 -0.7044  0.1686  1.0115
  942MOL0     C27058  10.493   2.201   9.658  0.2629  1.2996 -0.6087
  942MOL0     O27059  10.411   2.320   9.667  0.4851  0.4363 -0.1800
  942MOL0     C27060  10.441   2.410   9.567 -0.4599  0.0516  0.8753
  942MOL0     C27061  10.375   2.416   9.446  0.0860 -0.3715 -0.2072
  942MOL0     C27062  10.414   2.503   9.343 -0.8297 -0.0344  1.0886
  942MOL0     C27063  10.521   2.592   9.368 -0.7747 -0.2560 -0.0845
  942MOL0     C27064  10.561   2.678   9.253  0.3972 -0.6396 -0.1358
  942MOL0     O27065  10.490   2.671   9.133  0.0638  0.3070 -0.4086
  942MOL0     C27066  10.539   2.717   9.015 -0.1479 -0.2835  0.1624
  942MOL0     C27067  10.446   2.730   8.915  0.6075  1.0808  0.2837
  942MOL0     C27068  10.486   2.782   8.785 -0.0597 -0.1645  0.1688
  942MOL0     C27069  10.619   2.808   8.749 -0.2822 -0.4185 -0.4236
  942MOL0     O27070  10.657   2.861   8.635  0.2093 -0.3782 -0.0627
  942MOL0     C27071  10.576   2.818   8.527 -0.1826 -0.6009  0.5404
  942MOL0     C27072  10.619   2.878   8.388  0.1302 -0.9284 -0.7955
  942MOL0     C27073  10.711   2.788   8.298 -0.2213 -0.4154  0.9456
  942MOL0     C27074  10.618   2.689   8.230 -0.0839  0.5235  0.6717
  942MOL0     C27075  10.689   2.625   8.116 -0.3344 -0.5868 -0.3268
  942MOL0     C27076  10.594   2.522   8.055 -0.3719 -0.3518  0.3826
  942MOL0     C27077  10.465   2.574   7.989 -0.3957  1.3207  0.0640
  942MOL0     C27078  10.386   2.455   7.931  0.7239  0.6060  0.6396
  942MOL0    Cl27079  10.260   2.497   7.815  0.2734  0.1432  0.2254
  942MOL0     C27080  10.716   2.770   8.845 -0.2924 -0.0508  0.6077
  942MOL0     C27081  10.675   2.728   8.975  0.2952  0.0414  0.2166
  942MOL0     O27082  10.660   2.739   9.274  0.1383 -0.2938 -0.2073
  942MOL0     C27083  10.583   2.597   9.490 -0.1718  0.2842  0.1820
  942MOL0     C27084  10.534   2.507   9.591 -0.5249  0.0571 -1.0731
  942MOL0     N27085  10.176   1.868   9.893 -1.2311 -0.8602  0.2595
  942MOL0     N27086  10.079   1.901   9.970  0.0753 -0.4955  0.6471
  942MOL0     C27087  10.002   1.479   9.363 -0.7162 -0.5484 -0.0298
  942MOL0     C27088  10.103   1.574   9.360  0.1800 -0.3980 -0.8963
  942MOL0     C27089  10.392   1.891   9.264  0.1306 -0.1787 -0.0241
  942MOL0     C27090  10.518   1.863   9.324  0.1382  0.2823 -0.3411
  942MOL0     C27091  10.629   1.945   9.316  0.0922 -1.0097  1.0893
  942MOL0     C27092  10.604   2.073   9.259  0.2955  0.0014  0.5238
  942MOL0     O27093  10.699   2.166   9.219 -0.1062  0.0288  0.0883
  942MOL0     C27094  10.833   2.122   9.236  0.5693  0.1307  0.3701
  942MOL0     C27095  10.896   2.148   9.380  0.1989  0.2455  0.2644
  942MOL0     C27096  10.837   2.280   9.431  0.2122 -0.3667  0.3436
  942MOL0     C27097  10.936   2.333   9.540  0.4460 -0.1451  0.4489
  942MOL0     C27098  10.914   2.261   9.661  0.6860 -0.2205  0.1557
  942MOL0     C27099  10.909   2.189   9.762  1.1094  0.0567  0.2921
  942MOL0     C27100  10.472   2.118   9.236  0.0692  0.1301  0.0022
  942MOL0     C27101  10.374   2.026   9.232  0.2109 -0.6072  0.5014
  942MOL0     C27102  10.238   2.077   9.191 -0.3014 -0.4460 -0.5106
  942MOL0     H27103   9.928   1.813   9.186 -1.9727  1.6255  2.7186
  942MOL0     H27104   9.761   1.630   9.184 -0.5942 -0.4606  0.7533
  942MOL0     H27105   9.689   1.297   9.451  1.1729 -0.3304  2.1480
  942MOL0     H27106   9.826   1.388   9.517 -0.5841  1.6647  0.9233
  942MOL0     H27107   9.529   1.472   9.465 -0.0955 -0.1622  1.2773
  942MOL0     H27108   9.659   1.589   9.430  0.5291 -0.0661  0.6625
  942MOL0     H27109   9.760   1.576   9.640  0.6645 -0.3896 -1.0765
  942MOL0     H27110   9.615   1.482   9.704 -2.6894  1.0606  0.0807
  942MOL0     H27111   9.566   1.756   9.586 -1.2858 -0.2908 -1.3601
  942MOL0     H27112   9.451   1.641   9.660  0.3374  0.4969  2.0055
  942MOL0     H27113   9.488   1.797   9.839  0.4121 -0.2483  2.6315
  942MOL0     H27114   9.603   1.667   9.881 -1.3286  1.4621  1.3168
  942MOL0     H27115   9.775   1.805   9.745  0.0019  1.3284 -1.2248
  942MOL0     H27116   9.649   1.931   9.759 -1.2500  1.0009  1.9367
  942MOL0     H27117   9.791   1.798  10.006  2.0953 -0.2898 -0.4544
  942MOL0     H27118   9.670   1.923  10.011  2.0250 -1.4383  2.7876
  942MOL0     H27119   9.821   2.080   9.868  1.4368  0.2097 -2.0935
  942MOL0     H27120   9.876   2.034  10.030  0.8424 -1.7650 -0.0972
  942MOL0     H27121   9.968   1.971   9.659  0.8437 -2.7407 -0.2469
  942MOL0     H27122  10.326   1.822   9.687  1.8803  0.3423 -0.5937
  942MOL0     H27123  10.202   1.848   9.568  2.4151 -0.8580 -0.9485
  942MOL0     H27124  10.365   2.009   9.515  1.0309  1.4739  0.1309
  942MOL0     H27125  10.241   2.105   9.606 -0.2248 -1.2715 -0.2412
  942MOL0     H27126  10.483   1.997   9.748  0.6525 -0.2555 -1.9526
  942MOL0     H27127  10.361   2.107   9.798  1.5577 -1.1438  3.1010
  942MOL0     H27128  10.522   2.201   9.552 -0.0712  5.5089 -0.8474
  942MOL0     H27129  10.580   2.216   9.722 -0.8978  1.8736  0.8697
  942MOL0     H27130  10.293   2.348   9.426  2.1789 -2.7580 -1.3071
  942MOL0     H27131  10.376   2.509   9.242  3.8484 -0.3572 -0.9786
  942MOL0     H27132  10.340   2.709   8.924  0.8402 -0.4411 -0.2059
  942MOL0     H27133  10.405   2.811   8.720  1.0667 -0.7926 -1.5868
  942MOL0     H27134  10.568   2.709   8.530 -0.5117 -0.5870  0.3118
  942MOL0     H27135  10.479   2.867   8.539 -0.3292 -0.9019  0.5871
  942MOL0     H27136  10.535   2.932   8.342 -1.0667  2.3150  4.3304
  942MOL0     H27137  10.683   2.960   8.419 -2.2703  0.0316  2.1523
  942MOL0     H27138  10.770   2.837   8.220 -0.3628 -0.3290  0.8934
  942MOL0     H27139  10.790   2.745   8.361  0.6511  1.7929  1.4433
  942MOL0     H27140  10.529   2.741   8.193  2.3142  2.7211 -2.6027
  942MOL0     H27141  10.592   2.606   8.296 -2.6356 -0.2384 -1.1161
  942MOL0     H27142  10.772   2.571   8.162 -0.2389  0.7788  1.1895
  942MOL0     H27143  10.733   2.698   8.047  1.3400 -1.0040  0.2353
  942MOL0     H27144  10.649   2.468   7.978  0.5064  1.2105 -0.1311
  942MOL0     H27145  10.566   2.446   8.127  0.4181 -1.9104 -0.8968
  942MOL0     H27146  10.501   2.639   7.909  3.2356  0.1965  0.6271
  942MOL0     H27147  10.396   2.626   8.056  1.0160  0.6872  2.1087
  942MOL0     H27148  10.453   2.384   7.881 -0.6868  0.9834 -1.9442
  942MOL0     H27149  10.335   2.404   8.013 -0.6762  0.1194 -0.4855
  942MOL0     H27150  10.822   2.780   8.821 -0.5170 -0.1202 -0.4444
  942MOL0     H27151  10.760   2.722   9.042 -0.6432  0.3694  1.4730
  942MOL0     H27152  10.656   2.673   9.516 -0.2999 -0.2896  2.3899
  942MOL0     H27153  10.573   2.511   9.692 -3.5017  1.6138  0.1275
  942MOL0     H27154  10.023   1.388   9.418 -2.1593  0.4760  2.3612
  942MOL0     H27155  10.199   1.551   9.406 -0.0867  0.5908  0.1785
  942MOL0     H27156  10.534   1.771   9.378  2.0071 -0.2848 -1.7685
  942MOL0     H27157  10.720   1.908   9.364  0.4745 -3.6742 -1.4655
  942MOL0     H27158  10.888   2.190   9.170  1.7612  0.3692  1.5493
  942MOL0     H27159  10.855   2.025   9.190 -0.1392  0.4832 -0.7659
  942MOL0     H27160  11.005   2.146   9.377  0.1884  0.9638 -1.2509
  942MOL0     H27161  10.876   2.074   9.458  1.9085 -0.7662 -0.2180
  942MOL0     H27162  10.736   2.273   9.472  0.3566  2.1756  1.3581
  942MOL0     H27163  10.837   2.361   9.357  1.2787 -1.0915 -0.4721
  942MOL0     H27164  11.036   2.330   9.496 -0.8265 -1.4627 -2.7139
  942MOL0     H27165  10.908   2.437   9.558 -0.5833 -0.8733  3.5999
  942MOL0     H27166  10.890   2.130   9.850 -0.4491 -1.5853 -1.0505
  942MOL0     H27167  10.448   2.217   9.197 -0.7217  0.6780  1.7876
  942MOL0     H27168  10.236   2.186   9.202  2.0040 -0.4034 -0.0614
  942MOL0     H27169  10.214   2.046   9.088  2.1497  1.3256 -1.7287
  942MOL0     H27170  10.158   2.033   9.251 -0.7249  1.7350  0.6292
  943MOL0     O27171   7.868  10.586   4.819  0.5076 -0.2290 -0.0201
  943MOL0     C27172   7.989  10.600   4.824 -0.6293 -0.5596 -0.6060
  943MOL0     O27173   8.059  10.649   4.925  1.4766 -0.5680 -0.1005
  943MOL0     C27174   7.989  10.704   5.030 -0.3728  0.3920  0.6704
  943MOL0     C27175   7.910  10.816   5.006 -0.7005 -0.9453  0.3166
  943MOL0     C27176   7.836  10.860   5.108  0.4316  0.4253 -0.5611
  943MOL0     C27177   7.838  10.804   5.245 -0.7043  0.3166 -0.2402
  943MOL0     O27178   7.776  10.865   5.344 -0.4272 -0.9224  0.9041
  943MOL0     C27179   7.844  10.991   5.380  0.6696  1.1889 -0.3748
  943MOL0     C27180   7.905  10.969   5.528 -0.0023 -0.6950  0.4163
  943MOL0     C27181   7.932  11.102   5.597  0.2161  0.1778  0.8581
  943MOL0     C27182   8.046  11.100   5.704 -0.2042  0.1807  0.2073
  943MOL0     C27183   7.997  11.000   5.810 -0.3005 -0.3295  0.4564
  943MOL0     C27184   8.082  10.992   5.937 -0.8251  0.8426  0.3171
  943MOL0     C27185   8.209  10.918   5.905  0.0968  0.4413 -0.1199
  943MOL0     C27186   8.275  10.867   6.034 -0.2506 -0.7308 -0.0165
  943MOL0     N27187   8.338  10.971   6.117 -0.4608  0.0832 -0.0767
  943MOL0     C27188   8.286  11.050   6.226 -0.1763  1.0287 -0.0484
  943MOL0     C27189   8.389  11.141   6.249 -1.0845 -0.2498  0.5248
  943MOL0     C27190   8.390  11.265   6.330  0.8423 -0.6178 -0.3465
  943MOL0     C27191   8.385  11.393   6.231  0.5361  0.4871  0.0326
  943MOL0     C27192   8.379  11.531   6.304 -0.6615 -0.0902  0.1438
  943MOL0     C27193   8.381  11.652   6.206  0.9915  0.8689  0.4903
  943MOL0     O27194   8.482  11.641   6.101  0.0241  0.3594 -0.6609
  943MOL0     C27195   8.497  11.745   6.011  0.4430 -0.0092 -0.2249
  943MOL0     C27196   8.411  11.861   6.008 -0.5247  0.2150 -0.2403
  943MOL0     C27197   8.425  11.960   5.909 -0.4597  0.3157  0.3830
  943MOL0     C27198   8.517  11.940   5.806 -0.0469 -0.0110  0.9013
  943MOL0     C27199   8.534  12.039   5.696 -0.9977 -0.4544 -0.2161
  943MOL0     O27200   8.511  12.172   5.728  0.0277 -0.1566  0.0263
  943MOL0     C27201   8.483  12.251   5.621  0.5075 -0.2831 -0.7176
  943MOL0     C27202   8.384  12.214   5.525 -0.3722 -0.1199 -0.5538
  943MOL0     C27203   8.359  12.303   5.421 -0.6505  0.7779  0.4760
  943MOL0     C27204   8.422  12.434   5.418 -0.7224  0.7612  0.2720
  943MOL0     O27205   8.396  12.520   5.323 -0.2946 -0.3567  0.6539
  943MOL0     C27206   8.285  12.515   5.240  1.2106  0.8544 -0.2244
  943MOL0     C27207   8.263  12.635   5.150  0.1100  0.5185  0.0114
  943MOL0     C27208   8.374  12.681   5.063  1.2335 -0.7732  0.2784
  943MOL0     C27209   8.344  12.818   5.004 -0.0663  0.0430 -0.3571
  943MOL0     C27210   8.462  12.876   4.927 -0.0336  0.1260  0.0577
  943MOL0     C27211   8.441  13.024   4.924 -0.4906  0.4470 -0.9709
  943MOL0     C27212   8.535  13.089   4.826  0.9868  0.0455 -0.7972
  943MOL0     C27213   8.496  13.234   4.790 -0.5317  0.1193  0.0605
  943MOL0    Cl27214   8.336  13.244   4.715 -0.0606 -0.1688 -0.0939
  943MOL0     C27215   8.521  12.466   5.508  0.2108  0.4350  0.4105
  943MOL0     C27216   8.551  12.372   5.611 -0.1133  0.2791 -0.0912
  943MOL0     O27217   8.594  11.992   5.601  0.3108  0.6150  0.0999
  943MOL0     C27218   8.611  11.831   5.817  0.7245 -0.0874  0.0088
  943MOL0     C27219   8.605  11.742   5.927  0.9184 -0.3802 -0.1612
  943MOL0     N27220   8.496  11.099   6.173  0.8945  0.3163 -0.5157
  943MOL0     N27221   8.466  11.001   6.091 -0.0729  0.0853 -0.1108
  943MOL0     C27222   7.927  10.697   5.262  0.0328  0.4161  0.2664
  943MOL0     C27223   7.993  10.644   5.150 -0.2909 -0.5384  0.4182
  943MOL0     C27224   8.064  10.532   4.714  0.3227 -0.0375 -0.6829
  943MOL0     C27225   8.205  10.551   4.718  0.2058 -0.3422  0.5609
  943MOL0     C27226   8.279  10.521   4.612  0.6725 -0.1530  0.0241
  943MOL0     C27227   8.232  10.464   4.496 -0.2423  0.0258  0.3202
  943MOL0     O27228   8.313  10.428   4.383  0.8295 -0.4653 -0.1052
  943MOL0     C27229   8.453  10.432   4.386 -0.1931 -0.7964 -0.6196
  943MOL0     C27230   8.495  10.391   4.254  1.5547  0.1639 -0.3949
  943MOL0     C27231   8.477  10.246   4.204  0.0762  0.2131 -0.6448
  943MOL0     C27232   8.523  10.242   4.058  0.5380  0.3222  0.3213
  943MOL0     C27233   8.417  10.264   3.955 -0.7054 -0.2351  1.2453
  943MOL0     C27234   8.326  10.262   3.867  0.5255  0.0062 -0.0586
  943MOL0     C27235   8.093  10.438   4.486 -0.0115 -0.1246  0.2083
  943MOL0     C27236   8.008  10.472   4.592 -1.6233  0.2241  0.4559
  943MOL0     C27237   7.856  10.443   4.583 -0.0653 -0.7376 -0.0805
  943MOL0     H27238   7.895  10.865   4.910  0.7879  2.6298  1.7349
  943MOL0     H27239   7.769  10.944   5.095  0.4506  0.8241  1.5766
  943MOL0     H27240   7.916  11.018   5.303  0.0957 -0.4618 -1.5438
  943MOL0     H27241   7.770  11.071   5.371  0.2342  0.5474 -4.2832
  943MOL0     H27242   7.998  10.912   5.513  2.8042  3.3325  0.8372
  943MOL0     H27243   7.833  10.907   5.583  0.2953 -1.4975 -0.0681
  943MOL0     H27244   7.840  11.136   5.647  0.4577  0.8902  0.8326
  943MOL0     H27245   7.962  11.167   5.513 -1.1019 -2.7444 -2.1023
  943MOL0     H27246   8.132  11.076   5.641 -0.9576  1.8284 -1.5362
  943MOL0     H27247   8.063  11.200   5.744  2.1135  0.2766 -0.8984
  943MOL0     H27248   7.896  11.033   5.836  0.1121  1.8603 -0.5380
  943MOL0     H27249   7.989  10.898   5.772 -0.8617  0.6969 -2.3890
  943MOL0     H27250   8.114  11.091   5.970 -1.5315  0.0813  3.7096
  943MOL0     H27251   8.029  10.935   6.014  1.2812 -3.2703 -1.0027
  943MOL0     H27252   8.285  10.979   5.855  1.1305 -1.3203 -0.7629
  943MOL0     H27253   8.191  10.829   5.844 -0.9839 -1.2623  2.4912
  943MOL0     H27254   8.211  10.813   6.104 -0.3379 -1.2276 -0.4724
  943MOL0     H27255   8.348  10.795   5.996  1.9154  2.5081 -2.5824
  943MOL0     H27256   8.182  11.052   6.259 -0.5411  1.0335 -1.1551
  943MOL0     H27257   8.304  11.265   6.397  1.2431 -1.7187  0.1751
  943MOL0     H27258   8.472  11.271   6.401 -0.5877 -1.9524  1.5144
  943MOL0     H27259   8.482  11.402   6.181 -0.0151 -0.8078 -1.3472
  943MOL0     H27260   8.298  11.385   6.166 -0.0235  1.8412  0.5885
  943MOL0     H27261   8.467  11.536   6.369  0.2559 -3.9652 -0.5530
  943MOL0     H27262   8.293  11.542   6.371 -0.6593  3.1969 -0.2143
  943MOL0     H27263   8.403  11.737   6.271 -0.8350  0.2805  1.9785
  943MOL0     H27264   8.287  11.678   6.157  0.5908  0.4091  0.9941
  943MOL0     H27265   8.335  11.883   6.083  1.8292 -0.0915  2.3769
  943MOL0     H27266   8.345  12.033   5.913 -0.1632  0.6425  0.3275
  943MOL0     H27267   8.344  12.113   5.521  1.9622 -1.3394  2.2582
  943MOL0     H27268   8.300  12.266   5.338 -0.6706  4.2694 -1.2833
  943MOL0     H27269   8.281  12.420   5.186 -1.9298  0.1759  0.9773
  943MOL0     H27270   8.197  12.511   5.305  0.3420 -0.5779 -1.4291
  943MOL0     H27271   8.176  12.625   5.086 -0.1265  1.3158  0.1942
  943MOL0     H27272   8.240  12.717   5.219  0.4106  0.3911  0.2692
  943MOL0     H27273   8.466  12.690   5.122  1.2023  0.7159  0.1356
  943MOL0     H27274   8.387  12.603   4.988  0.7747 -0.6198  0.0374
  943MOL0     H27275   8.309  12.883   5.085 -1.0995 -1.8708  0.8047
  943MOL0     H27276   8.272  12.806   4.923  1.8866 -0.2011 -2.1320
  943MOL0     H27277   8.463  12.832   4.827 -2.0001 -1.2815  0.6063
  943MOL0     H27278   8.552  12.848   4.982 -2.1350 -1.5056  2.9522
  943MOL0     H27279   8.336  13.040   4.897 -0.8512  4.6915  1.9636
  943MOL0     H27280   8.451  13.074   5.021 -3.2592 -1.9167  0.6857
  943MOL0     H27281   8.524  13.030   4.734 -1.5783  3.0580 -2.6197
  943MOL0     H27282   8.633  13.089   4.876 -0.5872  0.1358  2.5425
  943MOL0     H27283   8.494  13.295   4.881 -2.3583  0.3498 -0.0858
  943MOL0     H27284   8.567  13.270   4.716  1.0484 -4.2427 -0.8476
  943MOL0     H27285   8.572  12.562   5.505 -0.5378  0.8711 -3.1963
  943MOL0     H27286   8.627  12.390   5.686  2.0959 -0.7390 -1.9571
  943MOL0     H27287   8.687  11.831   5.740  1.6522 -0.5170  0.8984
  943MOL0     H27288   8.688  11.674   5.942  3.0981  2.0555 -0.4647
  943MOL0     H27289   7.940  10.655   5.361  0.6964  2.3096  1.0253
  943MOL0     H27290   8.065  10.563   5.162  1.8174  1.2271  0.3013
  943MOL0     H27291   8.261  10.577   4.807  2.2548 -6.8022  1.6424
  943MOL0     H27292   8.385  10.546   4.611  1.1570 -2.0236  0.9820
  943MOL0     H27293   8.498  10.356   4.451 -0.9012 -3.1648 -2.7321
  943MOL0     H27294   8.485  10.536   4.394 -0.3458 -0.7694 -0.3102
  943MOL0     H27295   8.604  10.400   4.263  1.6468 -2.2381  3.1498
  943MOL0     H27296   8.459  10.477   4.197 -1.6343 -1.0650 -0.4240
  943MOL0     H27297   8.379  10.207   4.233  0.3478  0.4875  0.7343
  943MOL0     H27298   8.545  10.176   4.254 -0.6457 -2.1041 -2.7036
  943MOL0     H27299   8.595  10.319   4.027 -1.4931  1.8387 -0.9264
  943MOL0     H27300   8.563  10.144   4.030  0.0490  0.6269 -1.6357
  943MOL0     H27301   8.239  10.247   3.807  0.5829 -1.2194  0.1364
  943MOL0     H27302   8.068  10.382   4.396  1.8224 -1.2121  0.3090
  943MOL0     H27303   7.834  10.377   4.499  0.0773  1.7932 -2.2241
  943MOL0     H27304   7.839  10.384   4.674  0.6958  1.6569  1.7347
  943MOL0     H27305   7.803  10.539   4.585  0.6906 -0.3165  2.0149
  944MOL0     O27306   6.188   7.667   2.927  0.3721 -0.2495 -0.0527
  944MOL0     C27307   6.297   7.674   2.884 -0.3196 -0.6156 -0.4046
  944MOL0     O27308   6.372   7.786   2.876 -0.0518 -0.2246  0.6733
  944MOL0     C27309   6.319   7.906   2.932 -1.1700 -0.3684  0.4512
  944MOL0     C27310   6.262   7.910   3.054  0.5024  0.7169 -0.2314
  944MOL0     C27311   6.244   8.034   3.115 -0.6450 -0.4769  0.7003
  944MOL0     C27312   6.295   8.153   3.061  0.7597 -0.2008 -0.6660
  944MOL0     O27313   6.278   8.283   3.114 -0.5556 -0.6676 -0.2927
  944MOL0     C27314   6.248   8.286   3.258  0.0369  0.8639 -0.0644
  944MOL0     C27315   6.285   8.419   3.306 -0.8329  0.2857 -0.4755
  944MOL0     C27316   6.436   8.460   3.320  0.3957 -0.5003 -0.1250
  944MOL0     C27317   6.509   8.370   3.428  0.5518 -0.0462  0.9921
  944MOL0     C27318   6.657   8.399   3.484  0.7170 -0.4092  0.2831
  944MOL0     C27319   6.675   8.553   3.515  0.4638  0.0610 -0.3137
  944MOL0     C27320   6.810   8.569   3.592  0.2443 -0.1783 -0.1904
  944MOL0     C27321   6.801   8.518   3.737 -1.1473 -0.4086  0.3484
  944MOL0     N27322   6.914   8.583   3.814  0.2151  0.7342  0.0543
  944MOL0     C27323   6.922   8.717   3.834 -0.3125 -0.7119 -1.1397
  944MOL0     C27324   7.033   8.727   3.909 -0.6097  0.1267 -1.0648
  944MOL0     C27325   7.112   8.856   3.947 -0.7120 -0.4434  1.0386
  944MOL0     C27326   7.212   8.852   4.065 -1.1972 -0.9988  0.0504
  944MOL0     C27327   7.185   8.975   4.157 -0.1800 -0.4954 -0.1745
  944MOL0     C27328   7.240   9.111   4.114  1.1846  0.1771 -0.1847
  944MOL0     O27329   7.176   9.171   4.003  0.0319 -0.5591  0.7488
  944MOL0     C27330   7.056   9.244   4.019 -0.0324 -0.5871 -0.6375
  944MOL0     C27331   7.000   9.302   3.902 -0.5675 -0.3788  0.0734
  944MOL0     C27332   6.874   9.368   3.916 -0.5913 -0.7467  1.3204
  944MOL0     C27333   6.800   9.377   4.030  0.3092  0.0054 -0.2666
  944MOL0     C27334   6.662   9.446   4.049  0.6877 -0.0849  0.9243
  944MOL0     O27335   6.619   9.478   4.169 -0.3021  0.3963 -0.2538
  944MOL0     C27336   6.533   9.588   4.192  0.3494 -0.0533  0.3019
  944MOL0     C27337   6.546   9.708   4.125 -0.3676  0.1902 -0.0453
  944MOL0     C27338   6.440   9.808   4.125 -1.3357  0.4272 -0.7302
  944MOL0     C27339   6.340   9.798   4.220 -0.1638  0.2642 -0.0803
  944MOL0     O27340   6.252   9.896   4.228  0.1229 -0.3140 -0.0192
  944MOL0     C27341   6.140   9.883   4.315 -0.6316 -0.1084  1.0407
  944MOL0     C27342   6.046  10.002   4.339  0.8888  0.3583 -0.0305
  944MOL0     C27343   6.110  10.126   4.417  0.6060 -0.0688  0.4115
  944MOL0     C27344   6.221  10.200   4.339 -0.2425  0.3338 -0.1521
  944MOL0     C27345   6.251  10.332   4.417 -0.1906  0.1394  0.1804
  944MOL0     C27346   6.355  10.424   4.341 -0.8831 -0.5566 -0.1916
  944MOL0     C27347   6.435  10.531   4.439 -0.0009 -0.5665 -0.6975
  944MOL0     C27348   6.536  10.624   4.367 -0.4567  1.1767 -0.5703
  944MOL0    Cl27349   6.649  10.533   4.270 -0.1014 -0.0184  0.2541
  944MOL0     C27350   6.346   9.688   4.307 -0.1800  0.6679 -0.2297
  944MOL0     C27351   6.426   9.579   4.281  0.8160 -0.0059 -0.2080
  944MOL0     O27352   6.607   9.468   3.938  0.1655 -0.4727 -0.4281
  944MOL0     C27353   6.860   9.318   4.142  0.0695  0.2508 -0.6030
  944MOL0     C27354   6.988   9.269   4.147 -0.6488  1.0048  0.3158
  944MOL0     N27355   7.086   8.604   3.945  0.2145 -0.0810  0.8362
  944MOL0     N27356   7.011   8.508   3.882  0.7565 -0.2271  0.0434
  944MOL0     C27357   6.353   8.143   2.940  0.0772  1.2983  0.1735
  944MOL0     C27358   6.366   8.025   2.865  0.1417 -0.1413 -0.5325
  944MOL0     C27359   6.357   7.547   2.825  0.0084 -0.4402 -0.7941
  944MOL0     C27360   6.483   7.547   2.764 -0.3346  0.0002  0.0031
  944MOL0     C27361   6.549   7.433   2.738  0.7710  0.6531  0.1262
  944MOL0     C27362   6.490   7.307   2.761 -0.4761  0.3237 -1.0963
  944MOL0     O27363   6.544   7.182   2.728 -0.7951 -0.5636  0.1532
  944MOL0     C27364   6.694   7.186   2.713 -0.4454  0.2566 -0.3483
  944MOL0     C27365   6.737   7.050   2.661  0.4146  1.0193  0.2949
  944MOL0     C27366   6.872   7.037   2.587 -0.7268 -0.1136  0.9412
  944MOL0     C27367   6.996   7.111   2.654  0.7009 -0.2126 -0.1720
  944MOL0     C27368   7.042   7.039   2.772 -0.7711  0.6078 -0.2009
  944MOL0     C27369   7.076   6.985   2.878  0.6023  0.2886  0.8770
  944MOL0     C27370   6.367   7.301   2.819  0.0601  0.0684 -0.5938
  944MOL0     C27371   6.303   7.417   2.859  0.3149 -0.0139  0.1107
  944MOL0     C27372   6.168   7.393   2.914  0.0128  0.9602 -0.5668
  944MOL0     H27373   6.222   7.826   3.111 -0.2222 -0.5322 -2.4679
  944MOL0     H27374   6.188   8.036   3.208 -2.2016  3.6852 -0.0999
  944MOL0     H27375   6.145   8.252   3.269  0.1919  0.9850  2.2371
  944MOL0     H27376   6.295   8.217   3.328 -6.1897 -1.6494  2.3763
  944MOL0     H27377   6.245   8.429   3.407  0.0492  2.6057 -0.2928
  944MOL0     H27378   6.233   8.487   3.237 -1.0167  0.4270 -0.2035
  944MOL0     H27379   6.434   8.567   3.339 -2.8159 -0.5100  0.0862
  944MOL0     H27380   6.477   8.443   3.220 -1.5466 -3.2288 -0.5552
  944MOL0     H27381   6.439   8.373   3.512 -2.1381  0.7652 -1.1442
  944MOL0     H27382   6.515   8.273   3.377  2.7947  0.9711 -0.8735
  944MOL0     H27383   6.660   8.346   3.580 -3.6768  2.1336  2.1310
  944MOL0     H27384   6.735   8.370   3.413  1.5555 -1.7180  1.6795
  944MOL0     H27385   6.683   8.608   3.421 -2.4235 -0.7116 -1.1122
  944MOL0     H27386   6.597   8.599   3.576 -1.3537  1.0330 -3.1967
  944MOL0     H27387   6.832   8.676   3.594  0.8593 -0.2757  2.4574
  944MOL0     H27388   6.892   8.517   3.541  0.5709 -0.3445  0.4873
  944MOL0     H27389   6.711   8.567   3.775 -1.4235 -0.7006  0.0729
  944MOL0     H27390   6.803   8.410   3.750 -3.1759 -0.8937 -2.4728
  944MOL0     H27391   6.864   8.791   3.779 -2.1448 -2.3411 -1.4762
  944MOL0     H27392   7.171   8.898   3.865  0.5439 -3.3105  0.3709
  944MOL0     H27393   7.037   8.935   3.961 -2.4550 -1.3749 -2.0775
  944MOL0     H27394   7.192   8.766   4.130 -0.9083 -0.6288  0.6383
  944MOL0     H27395   7.315   8.851   4.028 -2.2907 -2.4079 -3.3270
  944MOL0     H27396   7.236   8.972   4.254  1.9318  0.6615 -1.1597
  944MOL0     H27397   7.077   8.977   4.175 -0.2914 -2.3657 -0.4495
  944MOL0     H27398   7.343   9.083   4.092  0.9284 -0.8576 -0.1447
  944MOL0     H27399   7.243   9.179   4.199  0.0031  0.4122 -0.3091
  944MOL0     H27400   7.063   9.289   3.814 -1.4585 -0.3320 -0.5878
  944MOL0     H27401   6.836   9.423   3.831 -0.1412  2.0680  2.8342
  944MOL0     H27402   6.634   9.724   4.063 -0.4581  0.3821 -0.1259
  944MOL0     H27403   6.460   9.899   4.069  1.8447  1.9529  2.4845
  944MOL0     H27404   6.091   9.792   4.279  1.9954 -1.2491  0.0729
  944MOL0     H27405   6.174   9.853   4.415  0.9058 -1.1567  0.2384
  944MOL0     H27406   6.015  10.035   4.240 -2.2121  0.0905  0.7563
  944MOL0     H27407   5.951   9.968   4.382 -0.0739 -0.2436 -2.4721
  944MOL0     H27408   6.026  10.192   4.438  0.1166 -1.3616  2.9097
  944MOL0     H27409   6.146  10.102   4.518  0.0225  2.0296  1.1568
  944MOL0     H27410   6.184  10.241   4.245  0.3063 -1.4199 -1.1830
  944MOL0     H27411   6.305  10.131   4.325  0.6956  0.5011  3.6462
  944MOL0     H27412   6.296  10.318   4.516 -0.3439  0.4800  0.3024
  944MOL0     H27413   6.153  10.381   4.423 -0.1350  0.2100  0.5904
  944MOL0     H27414   6.427  10.356   4.295  1.4659  0.4907  1.7321
  944MOL0     H27415   6.309  10.476   4.256  2.8549  1.9097 -0.9634
  944MOL0     H27416   6.497  10.477   4.512  1.2727  1.9199  0.1592
  944MOL0     H27417   6.367  10.591   4.500  0.7686 -0.9023  0.5431
  944MOL0     H27418   6.487  10.702   4.307  1.3838  2.5218 -0.3844
  944MOL0     H27419   6.589  10.675   4.448  1.9840 -1.9866  0.0144
  944MOL0     H27420   6.267   9.665   4.378 -1.3753 -1.3998 -2.1105
  944MOL0     H27421   6.406   9.489   4.339 -1.2260  1.9845  2.4621
  944MOL0     H27422   6.815   9.327   4.240 -1.0293 -3.2082 -0.6630
  944MOL0     H27423   7.036   9.238   4.239 -0.6595  0.9891  0.3163
  944MOL0     H27424   6.376   8.236   2.890 -1.0319  1.8375  0.6413
  944MOL0     H27425   6.415   8.026   2.768  4.5710 -0.2290  1.4535
  944MOL0     H27426   6.529   7.642   2.738 -0.3094  0.0599  0.2630
  944MOL0     H27427   6.639   7.441   2.678  0.9556  1.5624  0.5224
  944MOL0     H27428   6.751   7.199   2.805  1.4674 -3.7133 -0.7671
  944MOL0     H27429   6.714   7.261   2.635  1.4691 -2.3038 -2.4986
  944MOL0     H27430   6.651   7.011   2.605  1.4685 -1.1251  0.0515
  944MOL0     H27431   6.735   6.979   2.745 -3.2904 -0.9072 -1.1813
  944MOL0     H27432   6.869   7.089   2.491 -0.5368  3.3188  2.6518
  944MOL0     H27433   6.896   6.930   2.586 -0.5111 -0.1412  3.6795
  944MOL0     H27434   7.075   7.138   2.583  1.0009 -2.0377 -0.6004
  944MOL0     H27435   6.965   7.206   2.696  3.4153  1.3649 -1.4395
  944MOL0     H27436   7.103   6.950   2.975  0.3112  0.5659  1.0615
  944MOL0     H27437   6.338   7.205   2.861  3.0647 -0.8472 -0.4217
  944MOL0     H27438   6.163   7.429   3.017  0.0367 -2.1408  0.6084
  944MOL0     H27439   6.089   7.433   2.849 -0.4335 -0.5382 -0.9752
  944MOL0     H27440   6.138   7.288   2.917 -1.4738  1.2492 -2.6938
  945MOL0     O27441   6.984   5.344   7.550 -0.5228 -0.4249 -0.0365
  945MOL0     C27442   6.965   5.468   7.526 -0.9160  0.4253  0.1621
  945MOL0     O27443   6.840   5.520   7.498  0.3711  0.0217 -0.3448
  945MOL0     C27444   6.740   5.445   7.429 -0.6401  0.5085  0.3767
  945MOL0     C27445   6.769   5.328   7.357  0.3274  0.4731 -0.0762
  945MOL0     C27446   6.664   5.258   7.295  0.1609  0.2177 -0.5836
  945MOL0     C27447   6.536   5.297   7.287  0.3040 -0.7087 -0.9494
  945MOL0     O27448   6.444   5.223   7.213 -0.7328  0.1840 -0.6136
  945MOL0     C27449   6.306   5.264   7.188  0.5763 -0.8502 -0.1309
  945MOL0     C27450   6.278   5.203   7.056 -0.3004  0.5544  0.3137
  945MOL0     C27451   6.304   5.045   7.043 -0.8236 -0.8482 -0.1655
  945MOL0     C27452   6.445   5.007   7.008  0.0561 -0.4767  0.0931
  945MOL0     C27453   6.475   4.865   7.051  0.0848 -1.0490 -0.0890
  945MOL0     C27454   6.496   4.831   7.201 -0.7585  0.3924  0.0035
  945MOL0     C27455   6.573   4.696   7.235  0.3990  0.1282 -0.2099
  945MOL0     C27456   6.716   4.686   7.184 -0.4570 -0.2032  1.0574
  945MOL0     N27457   6.785   4.811   7.210  0.6000  0.0961  0.3317
  945MOL0     C27458   6.811   4.876   7.334  0.5732 -0.4744 -0.6647
  945MOL0     C27459   6.900   4.976   7.315  0.6451 -0.0522  0.0949
  945MOL0     C27460   6.990   5.032   7.428 -0.0375 -0.5092 -1.0738
  945MOL0     C27461   7.041   4.924   7.530 -1.3090  0.4007 -0.4985
  945MOL0     C27462   7.134   4.985   7.631  0.1393 -1.0438  0.1553
  945MOL0     C27463   7.228   4.878   7.686 -0.0404 -0.1618 -0.0824
  945MOL0     O27464   7.151   4.757   7.718  0.1388  0.0118  0.3125
  945MOL0     C27465   7.219   4.660   7.796  0.7016 -0.5364 -1.2889
  945MOL0     C27466   7.263   4.675   7.934  0.0353  0.2012 -0.0540
  945MOL0     C27467   7.321   4.564   7.996  0.6446  0.5682 -0.3788
  945MOL0     C27468   7.355   4.452   7.920  0.2147  0.1602  0.4096
  945MOL0     C27469   7.441   4.338   7.980  0.0406 -0.9499 -0.1040
  945MOL0     O27470   7.508   4.361   8.090  0.4373  0.2250 -0.6174
  945MOL0     C27471   7.568   4.267   8.172  0.3080  0.9471  0.2221
  945MOL0     C27472   7.687   4.295   8.243  0.2241  0.8004 -0.3746
  945MOL0     C27473   7.742   4.193   8.335  0.8888  0.3876  0.7984
  945MOL0     C27474   7.682   4.067   8.354 -0.3224  0.3717 -0.3847
  945MOL0     O27475   7.734   3.962   8.431 -0.3449  0.0759 -0.4440
  945MOL0     C27476   7.871   3.955   8.472 -0.0819  0.0707  1.1460
  945MOL0     C27477   7.905   3.827   8.533  0.5105 -0.4219  0.1403
  945MOL0     C27478   8.051   3.824   8.585 -0.2989 -0.3166  0.3997
  945MOL0     C27479   8.091   3.699   8.668  0.5680 -0.2140  0.0666
  945MOL0     C27480   8.229   3.720   8.729  0.8864  0.8077  0.0664
  945MOL0     C27481   8.287   3.604   8.817 -0.6270 -0.3059  0.0914
  945MOL0     C27482   8.367   3.516   8.719 -0.6658 -1.4760 -0.7688
  945MOL0     C27483   8.442   3.397   8.793  0.8614 -0.2845  0.7657
  945MOL0    Cl27484   8.480   3.426   8.965 -0.3369  0.2752  0.0411
  945MOL0     C27485   7.557   4.047   8.295 -0.1173 -1.0711  0.2312
  945MOL0     C27486   7.506   4.137   8.203 -0.4584 -0.3024  0.1034
  945MOL0     O27487   7.435   4.235   7.920  0.0728  0.7815 -0.1441
  945MOL0     C27488   7.329   4.449   7.789  0.3473 -0.4984  0.2605
  945MOL0     C27489   7.253   4.546   7.729 -0.7592 -0.4680 -0.2522
  945MOL0     N27490   6.926   4.979   7.176 -0.9370 -0.3841 -0.5090
  945MOL0     N27491   6.855   4.881   7.114 -0.6606 -0.3231 -0.5385
  945MOL0     C27492   6.506   5.418   7.363  0.7985  0.7900  0.2362
  945MOL0     C27493   6.602   5.486   7.436 -0.7431 -0.1134 -0.0821
  945MOL0     C27494   7.081   5.562   7.505 -0.1448  1.9721 -0.5317
  945MOL0     C27495   7.071   5.681   7.580  0.2248  0.3891  0.4210
  945MOL0     C27496   7.179   5.774   7.582 -0.3416  0.0308 -0.5940
  945MOL0     C27497   7.300   5.735   7.531  0.1363  0.3406  0.0978
  945MOL0     O27498   7.396   5.826   7.565 -0.1506 -0.2489 -0.3910
  945MOL0     C27499   7.519   5.810   7.491  0.5114 -0.1440 -0.1064
  945MOL0     C27500   7.633   5.811   7.589 -0.2575 -0.3298 -0.8270
  945MOL0     C27501   7.655   5.901   7.706 -0.4844 -0.0088  0.5155
  945MOL0     C27502   7.781   5.861   7.787  0.1630  0.5030 -0.7984
  945MOL0     C27503   7.805   5.961   7.888 -0.1493 -0.1444  0.4808
  945MOL0     C27504   7.799   6.051   7.966 -0.3033 -0.5036  0.0592
  945MOL0     C27505   7.315   5.608   7.474 -0.2727 -0.3031 -0.0881
  945MOL0     C27506   7.205   5.522   7.447  0.6816  0.9466  0.4713
  945MOL0     C27507   7.228   5.390   7.384 -0.8789  0.7584  0.0335
  945MOL0     H27508   6.870   5.289   7.350 -0.8105 -2.5728 -1.4587
  945MOL0     H27509   6.685   5.170   7.235  1.8986  0.4276 -0.3406
  945MOL0     H27510   6.230   5.227   7.257  3.1587 -0.2497  3.2998
  945MOL0     H27511   6.306   5.372   7.166 -0.2408 -1.2842 -2.5766
  945MOL0     H27512   6.337   5.250   6.978 -2.6780 -0.0255 -1.9940
  945MOL0     H27513   6.170   5.205   7.036 -0.0826  1.6907 -0.8628
  945MOL0     H27514   6.235   5.001   6.970 -2.4572 -3.8011  2.8981
  945MOL0     H27515   6.283   5.003   7.142  2.2590 -0.5515  0.7040
  945MOL0     H27516   6.473   5.003   6.902 -0.2230 -0.0531 -0.0012
  945MOL0     H27517   6.521   5.065   7.061  0.5341  1.7611 -2.8004
  945MOL0     H27518   6.407   4.795   7.003  1.7989 -2.2716 -0.8202
  945MOL0     H27519   6.570   4.856   6.998 -1.3631  0.0622 -3.1660
  945MOL0     H27520   6.544   4.916   7.251 -3.0832  2.0011 -0.3665
  945MOL0     H27521   6.395   4.827   7.243  0.3225 -1.9869  2.7717
  945MOL0     H27522   6.516   4.607   7.207  2.0134 -0.4059 -2.0379
  945MOL0     H27523   6.579   4.705   7.344 -4.1842 -0.1779  0.2646
  945MOL0     H27524   6.765   4.609   7.246  0.6733  2.4300  3.7268
  945MOL0     H27525   6.722   4.655   7.080  1.5780  0.3064  0.9801
  945MOL0     H27526   6.757   4.850   7.425  0.2428 -0.2966 -0.8070
  945MOL0     H27527   7.078   5.084   7.389  0.9882 -1.9927 -0.8381
  945MOL0     H27528   6.936   5.110   7.481 -2.5455 -1.9286 -1.3907
  945MOL0     H27529   6.968   4.858   7.578  2.8605 -1.9857  3.2578
  945MOL0     H27530   7.091   4.849   7.469 -0.9207  1.8944 -2.1089
  945MOL0     H27531   7.065   5.026   7.705 -0.6413 -1.7886 -0.1387
  945MOL0     H27532   7.194   5.068   7.592 -3.7797  0.4604 -3.4720
  945MOL0     H27533   7.300   4.905   7.764 -0.1510  1.1678 -0.4174
  945MOL0     H27534   7.295   4.864   7.601 -2.1836  0.7167 -2.0373
  945MOL0     H27535   7.241   4.766   7.990 -0.3147  2.3925 -3.4474
  945MOL0     H27536   7.347   4.570   8.101  0.6945  1.8949 -0.4546
  945MOL0     H27537   7.749   4.379   8.213 -0.4727  0.8759 -1.6423
  945MOL0     H27538   7.844   4.202   8.370  1.5721 -3.6862  0.3090
  945MOL0     H27539   7.934   3.955   8.383 -0.7037  2.3463  0.6426
  945MOL0     H27540   7.897   4.042   8.534  0.9296  1.2321 -0.7853
  945MOL0     H27541   7.844   3.814   8.622  1.7567  0.3280  1.1362
  945MOL0     H27542   7.885   3.746   8.462 -1.6833 -0.5484  0.8564
  945MOL0     H27543   8.117   3.850   8.502 -2.2569  2.9037 -0.3364
  945MOL0     H27544   8.050   3.907   8.656 -0.1559 -0.0040  0.0408
  945MOL0     H27545   8.099   3.611   8.603  0.5930  2.7071 -4.3003
  945MOL0     H27546   8.019   3.672   8.746 -0.8155  3.0960  0.1004
  945MOL0     H27547   8.236   3.809   8.791 -1.7958  1.9798 -1.1431
  945MOL0     H27548   8.288   3.740   8.639 -0.8663  1.1359 -1.0666
  945MOL0     H27549   8.364   3.640   8.887 -1.1612  0.3231  0.3664
  945MOL0     H27550   8.208   3.552   8.873 -1.9252  2.1742  0.7263
  945MOL0     H27551   8.445   3.582   8.678 -1.4668  0.8950  1.2741
  945MOL0     H27552   8.304   3.477   8.639 -3.2713  2.6015 -1.0025
  945MOL0     H27553   8.360   3.324   8.798  2.7595 -2.4615  2.6333
  945MOL0     H27554   8.525   3.362   8.730  0.5300 -2.0631  1.2672
  945MOL0     H27555   7.510   3.954   8.326 -3.4600  0.1208 -0.8644
  945MOL0     H27556   7.416   4.119   8.145  0.0160  2.2661 -1.6064
  945MOL0     H27557   7.332   4.362   7.725  0.9857 -0.1045 -0.2507
  945MOL0     H27558   7.237   4.526   7.623 -0.3004 -1.3367 -0.1694
  945MOL0     H27559   6.400   5.441   7.369  0.2295 -1.8811  2.4295
  945MOL0     H27560   6.568   5.571   7.495 -0.7619  3.6609 -4.8976
  945MOL0     H27561   6.978   5.692   7.635  0.7616  3.0099  0.9369
  945MOL0     H27562   7.169   5.860   7.647 -1.2678 -0.7579  0.3455
  945MOL0     H27563   7.530   5.896   7.424  4.6183 -0.0173  0.4755
  945MOL0     H27564   7.524   5.726   7.422  0.6586 -0.6653  0.5265
  945MOL0     H27565   7.724   5.814   7.528  1.5258 -0.6718  1.6741
  945MOL0     H27566   7.626   5.714   7.639 -2.3178 -0.2922 -0.9520
  945MOL0     H27567   7.558   5.901   7.755 -1.3836  1.4022 -1.1329
  945MOL0     H27568   7.671   6.004   7.673  1.0162  0.4238  2.4351
  945MOL0     H27569   7.760   5.771   7.846  2.5352 -0.8047 -1.7856
  945MOL0     H27570   7.872   5.845   7.728  0.4293  0.5781 -0.4117
  945MOL0     H27571   7.800   6.131   8.038  1.1842 -1.7031  1.4426
  945MOL0     H27572   7.404   5.561   7.432  1.1505 -0.6987  3.1244
  945MOL0     H27573   7.324   5.393   7.331 -1.3335 -0.4950 -0.9228
  945MOL0     H27574   7.234   5.315   7.464 -2.2895  2.7493  2.1230
  945MOL0     H27575   7.156   5.371   7.304 -0.8802  1.2167 -0.0756
  946MOL0     O27576   7.309   4.260   2.004  0.0299  0.1826 -1.2793
  946MOL0     C27577   7.336   4.161   1.938 -0.0714  0.6687  0.6893
  946MOL0     O27578   7.441   4.083   1.965 -0.9252 -0.5097 -0.0118
  946MOL0     C27579   7.494   4.088   2.088 -0.3266 -0.5693 -0.1137
  946MOL0     C27580   7.616   4.151   2.113 -0.5493 -0.2834 -0.7342
  946MOL0     C27581   7.677   4.157   2.244  0.1596  0.5530  0.8054
  946MOL0     C27582   7.609   4.094   2.354  0.8766 -0.5506 -0.0002
  946MOL0     O27583   7.647   4.098   2.483  0.6838  0.5774 -0.6835
  946MOL0     C27584   7.758   4.183   2.508 -0.4072 -0.6686 -0.7413
  946MOL0     C27585   7.791   4.173   2.658 -0.1605 -0.6682  0.9050
  946MOL0     C27586   7.688   4.265   2.726 -0.5340 -0.0029  0.7425
  946MOL0     C27587   7.733   4.275   2.878 -0.1956  0.2496  0.4694
  946MOL0     C27588   7.614   4.228   2.970  0.6809 -0.4315  0.3819
  946MOL0     C27589   7.652   4.228   3.115 -0.7978 -0.6241  0.0183
  946MOL0     C27590   7.546   4.172   3.212 -0.4903  0.4655  0.4823
  946MOL0     C27591   7.577   4.026   3.232 -0.0573 -0.3366  0.2709
  946MOL0     N27592   7.460   3.955   3.272  0.2955  0.2207 -0.5606
  946MOL0     C27593   7.378   3.907   3.183 -0.6828  0.2771  0.3085
  946MOL0     C27594   7.301   3.817   3.235 -0.3456 -0.5952  0.0614
  946MOL0     C27595   7.209   3.745   3.147 -0.1972 -0.7371 -0.2048
  946MOL0     C27596   7.085   3.830   3.121 -0.1116  0.5695 -0.3593
  946MOL0     C27597   6.964   3.741   3.135  0.7108 -0.4082  0.5470
  946MOL0     C27598   6.949   3.644   3.022 -0.2179  0.4392  0.2275
  946MOL0     O27599   6.866   3.705   2.923  0.8489  0.8818  0.0815
  946MOL0     C27600   6.858   3.645   2.800  1.1181 -0.9145  0.0219
  946MOL0     C27601   6.819   3.723   2.695  0.0454 -0.2216 -0.1169
  946MOL0     C27602   6.780   3.663   2.570 -0.0498  0.6340 -0.1554
  946MOL0     C27603   6.788   3.520   2.557 -0.2478 -0.3632  1.8267
  946MOL0     C27604   6.766   3.450   2.428  0.6320 -0.1143  0.2901
  946MOL0     O27605   6.681   3.520   2.356  0.4206 -0.4886 -0.0812
  946MOL0     C27606   6.623   3.479   2.239 -0.8793  1.0940 -0.7356
  946MOL0     C27607   6.592   3.585   2.157 -0.4850  0.0729 -0.3971
  946MOL0     C27608   6.531   3.562   2.029 -0.6203 -0.6253 -1.1440
  946MOL0     C27609   6.485   3.437   1.995 -0.2807 -0.2618  0.0142
  946MOL0     O27610   6.413   3.431   1.882 -0.6513 -0.0146  0.4590
  946MOL0     C27611   6.401   3.303   1.809 -0.9822 -0.2412 -0.6953
  946MOL0     C27612   6.290   3.322   1.703  0.7394 -0.4094 -0.1879
  946MOL0     C27613   6.291   3.202   1.609  0.1792 -0.7407 -0.4299
  946MOL0     C27614   6.185   3.215   1.512 -0.3305 -0.1645  0.6231
  946MOL0     C27615   6.246   3.259   1.379 -0.3418  0.4613 -0.3764
  946MOL0     C27616   6.296   3.404   1.382 -0.8778 -0.2686 -0.2285
  946MOL0     C27617   6.334   3.463   1.245  0.7405 -0.8685  0.2110
  946MOL0     C27618   6.425   3.584   1.253  0.0180  0.2983 -0.1721
  946MOL0    Cl27619   6.600   3.540   1.309  0.1585  0.1439 -1.1508
  946MOL0     C27620   6.521   3.332   2.079 -0.7890  0.4172  0.1876
  946MOL0     C27621   6.579   3.354   2.205  0.1969 -0.8038 -0.7145
  946MOL0     O27622   6.820   3.351   2.391 -0.4822  0.3116  0.3447
  946MOL0     C27623   6.838   3.450   2.659  0.1452  0.1020 -0.1937
  946MOL0     C27624   6.874   3.509   2.782  0.1987 -0.5409  0.7370
  946MOL0     N27625   7.332   3.825   3.374 -0.5317 -0.6499  0.7971
  946MOL0     N27626   7.436   3.897   3.396 -1.1125 -0.4904  0.7170
  946MOL0     C27627   7.485   4.025   2.325 -0.5460 -0.9054  0.2436
  946MOL0     C27628   7.431   4.015   2.191 -0.5266  0.1319 -0.0219
  946MOL0     C27629   7.255   4.132   1.815  0.1007 -0.6329 -0.3226
  946MOL0     C27630   7.177   4.238   1.765  1.0822  0.5636  0.4575
  946MOL0     C27631   7.117   4.227   1.640  0.3177  0.0353  0.9780
  946MOL0     C27632   7.120   4.109   1.554  0.0738 -1.0821  0.8504
  946MOL0     O27633   7.069   4.080   1.434  1.1203  0.6898  0.4722
  946MOL0     C27634   6.950   4.163   1.410  0.3442  0.4743  0.1982
  946MOL0     C27635   6.917   4.128   1.277 -0.6007  1.4116 -0.2359
  946MOL0     C27636   6.795   4.209   1.234  0.3032  0.0372 -0.1440
  946MOL0     C27637   6.743   4.194   1.090 -0.9336  0.1683 -1.0654
  946MOL0     C27638   6.678   4.311   1.042 -0.4643 -1.1025 -0.3080
  946MOL0     C27639   6.643   4.417   0.999  0.8920  0.0581 -0.5685
  946MOL0     C27640   7.176   4.000   1.615  0.2554 -0.2541  0.0710
  946MOL0     C27641   7.253   4.013   1.734 -0.3194 -0.0579 -0.2032
  946MOL0     C27642   7.341   3.898   1.774  0.8867 -0.0423 -0.6137
  946MOL0     H27643   7.667   4.208   2.036  1.5511 -1.4851 -0.3048
  946MOL0     H27644   7.765   4.220   2.244 -1.8171  3.6965 -2.0827
  946MOL0     H27645   7.852   4.156   2.459  1.1007  1.5353  0.7434
  946MOL0     H27646   7.739   4.284   2.472 -0.5061 -1.3158 -2.5971
  946MOL0     H27647   7.886   4.222   2.679  1.3972 -2.0487 -2.2731
  946MOL0     H27648   7.785   4.069   2.689 -0.9878 -0.1214  2.7258
  946MOL0     H27649   7.586   4.228   2.709 -0.0119 -1.1955  0.0069
  946MOL0     H27650   7.681   4.362   2.676 -0.9203 -1.0982 -1.4467
  946MOL0     H27651   7.821   4.213   2.899 -1.4120 -1.9132 -0.5678
  946MOL0     H27652   7.762   4.378   2.900 -3.3911  1.2759  0.3667
  946MOL0     H27653   7.532   4.301   2.969  0.3065 -0.6959  3.5235
  946MOL0     H27654   7.571   4.132   2.939 -0.4775 -0.1594  1.0765
  946MOL0     H27655   7.746   4.177   3.140  0.5611  2.1159  0.9513
  946MOL0     H27656   7.663   4.331   3.151 -0.0425 -0.7530  0.1880
  946MOL0     H27657   7.453   4.186   3.157  1.1739 -0.7055 -2.9243
  946MOL0     H27658   7.546   4.223   3.309  2.5117  1.0763  0.2749
  946MOL0     H27659   7.620   3.982   3.141 -0.6451  1.9054 -1.1890
  946MOL0     H27660   7.654   4.013   3.308  0.4026 -0.6640 -0.2383
  946MOL0     H27661   7.365   3.931   3.078 -3.6668  1.5041  0.8605
  946MOL0     H27662   7.257   3.711   3.054 -0.6122 -0.6683 -0.4469
  946MOL0     H27663   7.201   3.652   3.204 -0.5456  1.0253  2.8635
  946MOL0     H27664   7.083   3.905   3.201  1.6447  1.4412 -1.0736
  946MOL0     H27665   7.083   3.873   3.021 -1.9023  2.8241  0.5691
  946MOL0     H27666   6.873   3.803   3.134  0.6559 -0.4133  2.3275
  946MOL0     H27667   6.955   3.690   3.231 -0.1674  0.4156  0.9205
  946MOL0     H27668   6.893   3.561   3.065 -1.5377  0.2532 -1.7045
  946MOL0     H27669   7.046   3.609   2.985 -0.3253  0.2126  0.1562
  946MOL0     H27670   6.812   3.827   2.727  3.0605 -0.0116  0.1456
  946MOL0     H27671   6.755   3.716   2.479  1.5502 -1.7797 -2.1782
  946MOL0     H27672   6.631   3.682   2.187  0.2471 -0.4043  0.2191
  946MOL0     H27673   6.529   3.639   1.952  0.2922  2.7239  1.9179
  946MOL0     H27674   6.490   3.263   1.759 -0.4202 -1.9610  1.5050
  946MOL0     H27675   6.365   3.228   1.881  0.7832 -1.1230 -0.6603
  946MOL0     H27676   6.192   3.332   1.751 -0.5062  1.0817 -2.8631
  946MOL0     H27677   6.315   3.412   1.647  1.0482 -0.5931 -0.3478
  946MOL0     H27678   6.389   3.205   1.562  0.7667  3.8927  0.6663
  946MOL0     H27679   6.281   3.114   1.674  0.5312 -1.1577 -0.9386
  946MOL0     H27680   6.105   3.287   1.531 -0.3477  1.0468 -3.2478
  946MOL0     H27681   6.144   3.114   1.507 -1.8842  0.4941 -0.8573
  946MOL0     H27682   6.171   3.250   1.300 -3.6249  1.6165  2.3462
  946MOL0     H27683   6.332   3.195   1.360 -0.6180 -0.5963  1.6043
  946MOL0     H27684   6.215   3.466   1.420 -2.5632 -3.1141  1.2245
  946MOL0     H27685   6.382   3.405   1.450  0.0091  0.2531 -1.3284
  946MOL0     H27686   6.244   3.498   1.195  2.6734  2.3750 -1.3478
  946MOL0     H27687   6.382   3.386   1.182  1.4838 -0.1588 -0.1006
  946MOL0     H27688   6.444   3.611   1.148  4.1045 -1.6534 -0.1144
  946MOL0     H27689   6.379   3.664   1.311 -1.3856 -0.7277  0.1999
  946MOL0     H27690   6.504   3.228   2.053  0.3272 -0.2977  2.1244
  946MOL0     H27691   6.598   3.268   2.269  0.4552 -1.9451 -2.2841
  946MOL0     H27692   6.859   3.346   2.632 -1.2026  0.0961 -1.3526
  946MOL0     H27693   6.926   3.448   2.855 -1.5755 -6.5359 -2.3514
  946MOL0     H27694   7.435   3.980   2.410  0.0912 -1.4300  0.3525
  946MOL0     H27695   7.334   3.968   2.182  0.7313 -2.6861  0.0605
  946MOL0     H27696   7.176   4.339   1.807 -0.8069  0.5341  0.6102
  946MOL0     H27697   7.055   4.310   1.607 -0.3226 -2.0669 -3.9506
  946MOL0     H27698   6.970   4.271   1.413 -0.3960  0.6022  0.8383
  946MOL0     H27699   6.867   4.143   1.479  1.2205 -0.2225  1.0802
  946MOL0     H27700   6.890   4.022   1.268 -0.1097  1.1098  1.4858
  946MOL0     H27701   6.998   4.153   1.208 -0.5997  0.2464 -0.6773
  946MOL0     H27702   6.813   4.314   1.257 -1.4037  0.5540 -0.9738
  946MOL0     H27703   6.706   4.175   1.288 -0.4965 -0.0000 -1.4471
  946MOL0     H27704   6.838   4.189   1.035  0.1815 -2.8561  0.8312
  946MOL0     H27705   6.694   4.101   1.062  0.7442 -0.3925 -2.3003
  946MOL0     H27706   6.618   4.500   0.936 -0.8160 -1.0099 -1.3773
  946MOL0     H27707   7.165   3.907   1.560  0.8112  0.6151 -1.5679
  946MOL0     H27708   7.441   3.920   1.735  1.3422 -0.4034  0.3221
  946MOL0     H27709   7.347   3.887   1.883 -0.1618 -1.2760 -0.6588
  946MOL0     H27710   7.316   3.799   1.734 -0.4275  0.0592 -0.1001
  947MOL0     O27711   2.432   9.926  11.020  0.2913  0.4836 -0.6762
  947MOL0     C27712   2.458   9.816  11.076 -0.1413  0.8897 -0.3601
  947MOL0     O27713   2.584   9.764  11.107 -0.5307  0.5010 -0.5763
  947MOL0     C27714   2.702   9.834  11.078  0.2386  0.4895  0.8479
  947MOL0     C27715   2.815   9.818  11.163  0.7001  0.1237 -0.2942
  947MOL0     C27716   2.938   9.866  11.122  0.2080  0.7300  0.0892
  947MOL0     C27717   2.956   9.923  11.000  0.1449 -0.3262 -0.2522
  947MOL0     O27718   3.063   9.990  10.950 -0.2713 -0.4884  0.6865
  947MOL0     C27719   3.157  10.038  11.045 -0.5188 -0.5470 -0.0195
  947MOL0     C27720   3.304  10.025  10.989  0.4383 -0.6028 -0.3133
  947MOL0     C27721   3.344  10.137  10.896 -0.5144 -1.0394 -0.5960
  947MOL0     C27722   3.501  10.136  10.861  0.1547 -0.3769 -0.4732
  947MOL0     C27723   3.528  10.244  10.760 -0.8217  0.1341 -0.4288
  947MOL0     C27724   3.446  10.235  10.627  0.5783 -0.3999  0.4571
  947MOL0     C27725   3.448  10.361  10.541 -0.8067  0.1763 -0.5487
  947MOL0     C27726   3.598  10.393  10.503 -0.1093 -0.3448  0.1220
  947MOL0     N27727   3.667  10.284  10.420 -0.3393 -1.0270 -0.0179
  947MOL0     C27728   3.631  10.240  10.299  0.2131  0.0877 -0.0276
  947MOL0     C27729   3.720  10.148  10.268 -0.5191  0.3987 -0.5388
  947MOL0     C27730   3.739  10.072  10.139  0.4543 -1.0592 -0.4878
  947MOL0     C27731   3.666   9.946  10.157 -0.2909  1.1101 -0.1063
  947MOL0     C27732   3.658   9.886  10.011 -0.4436  0.2445  0.2321
  947MOL0     C27733   3.590   9.748  10.002  0.8032  0.8296  0.1005
  947MOL0     O27734   3.541   9.722   9.868  0.4671  0.1474  0.5309
  947MOL0     C27735   3.459   9.622   9.848 -0.1124  0.5548  0.6818
  947MOL0     C27736   3.347   9.616   9.926 -0.3622  1.3615 -0.3262
  947MOL0     C27737   3.270   9.499   9.912  0.2013 -0.6456  0.5943
  947MOL0     C27738   3.316   9.381   9.848  0.0343  0.3504 -0.4996
  947MOL0     C27739   3.222   9.271   9.831  0.1847 -0.2136 -0.0831
  947MOL0     O27740   3.261   9.174   9.750  0.4970  0.1485  0.1958
  947MOL0     C27741   3.170   9.070   9.729 -0.0500  0.3617 -0.5556
  947MOL0     C27742   3.164   8.967   9.832  0.4099 -0.6676 -0.8439
  947MOL0     C27743   3.077   8.859   9.817  0.0387  0.0663 -0.4885
  947MOL0     C27744   2.996   8.848   9.706 -0.1679 -0.8843  0.4076
  947MOL0     O27745   2.913   8.743   9.693 -0.5569 -0.0890 -1.0771
  947MOL0     C27746   2.903   8.676   9.564 -0.5550  0.1876 -0.5497
  947MOL0     C27747   3.023   8.569   9.558  0.6882 -0.0982 -0.0848
  947MOL0     C27748   2.980   8.464   9.455  0.0260 -0.0425  0.0177
  947MOL0     C27749   2.984   8.502   9.302 -0.3438 -1.3492 -0.5443
  947MOL0     C27750   2.938   8.389   9.207 -0.0183 -0.8373 -0.7925
  947MOL0     C27751   3.050   8.283   9.199  0.4967 -0.1572  0.6152
  947MOL0     C27752   3.174   8.333   9.114  0.7379 -0.2934  0.4322
  947MOL0     C27753   3.228   8.233   9.013 -0.3448 -0.2509 -0.1972
  947MOL0    Cl27754   3.218   8.068   9.090 -0.1596  0.1628 -0.2565
  947MOL0     C27755   3.005   8.947   9.602 -0.5011  0.3370 -0.2945
  947MOL0     C27756   3.098   9.053   9.614  0.1706 -0.7614 -0.0354
  947MOL0     O27757   3.107   9.284   9.880 -0.3313 -0.4103 -0.2011
  947MOL0     C27758   3.434   9.387   9.776 -0.5497  0.3808  0.5439
  947MOL0     C27759   3.496   9.512   9.773  0.8813  0.0065 -0.5558
  947MOL0     N27760   3.813  10.139  10.382 -0.0140  0.3368  0.2629
  947MOL0     N27761   3.777  10.226  10.467  0.6877 -0.1149  0.8671
  947MOL0     C27762   2.847   9.922  10.912  0.0243  0.7146 -1.1897
  947MOL0     C27763   2.728   9.875  10.949  0.2826  1.1503  0.2726
  947MOL0     C27764   2.336   9.722  11.086 -0.4081  0.2455 -0.3429
  947MOL0     C27765   2.356   9.611  11.174 -0.8907 -1.2366  0.1772
  947MOL0     C27766   2.255   9.530  11.215  0.9684 -1.8616 -0.3444
  947MOL0     C27767   2.126   9.557  11.158  0.5084  0.0645 -0.3183
  947MOL0     O27768   2.011   9.492  11.188 -0.4530  0.1491  0.2035
  947MOL0     C27769   1.974   9.452  11.322  0.5325  0.9237  0.4569
  947MOL0     C27770   2.010   9.526  11.441  0.1968  0.2032 -0.6113
  947MOL0     C27771   1.959   9.673  11.433  0.8078  0.6773 -0.1668
  947MOL0     C27772   1.984   9.755  11.563 -0.8098 -0.5129 -0.1927
  947MOL0     C27773   1.878   9.779  11.657 -0.0168 -1.0855 -1.1349
  947MOL0     C27774   1.783   9.784  11.734 -0.3711  1.2337  0.6931
  947MOL0     C27775   2.112   9.644  11.054 -0.3669  0.1693 -0.5723
  947MOL0     C27776   2.213   9.736  11.029 -0.0775 -0.2770  0.0219
  947MOL0     C27777   2.174   9.837  10.916 -0.4941 -0.3558 -0.0287
  947MOL0     H27778   2.802   9.775  11.262  3.4087  2.9790  1.4576
  947MOL0     H27779   3.022   9.847  11.188  0.7270  1.7087 -0.2716
  947MOL0     H27780   3.137  10.145  11.058 -1.0352 -0.7720  1.2026
  947MOL0     H27781   3.150   9.994  11.145 -3.7920 -2.6288 -1.0085
  947MOL0     H27782   3.328   9.928  10.945  0.6380 -1.5059  1.6662
  947MOL0     H27783   3.371  10.025  11.075 -0.5566 -1.0976  0.4879
  947MOL0     H27784   3.335  10.238  10.939 -0.5080 -1.7800  1.2335
  947MOL0     H27785   3.289  10.130  10.802  0.1293  3.9182 -1.6114
  947MOL0     H27786   3.551  10.171  10.952  0.7344 -0.1693 -0.8689
  947MOL0     H27787   3.526  10.033  10.834 -1.6284 -0.8715 -0.3628
  947MOL0     H27788   3.512  10.344  10.800  0.9134  0.7629 -1.2196
  947MOL0     H27789   3.636  10.234  10.743 -0.4065  1.0751  1.4432
  947MOL0     H27790   3.479  10.146  10.574  0.0556 -0.9672  1.0670
  947MOL0     H27791   3.341  10.219  10.650  1.2070 -4.9429  0.9963
  947MOL0     H27792   3.403  10.447  10.591  0.9420 -0.0815  1.6179
  947MOL0     H27793   3.384  10.348  10.453 -0.8182  1.5486 -0.7646
  947MOL0     H27794   3.624  10.480  10.442  0.4226 -0.7713 -0.2706
  947MOL0     H27795   3.648  10.414  10.599  0.0726  3.2539 -0.6020
  947MOL0     H27796   3.544  10.276  10.246  0.0730 -0.5085 -0.2200
  947MOL0     H27797   3.686  10.131  10.064 -0.6643  0.4434  1.3872
  947MOL0     H27798   3.845  10.048  10.125  0.7320 -0.3381  0.3037
  947MOL0     H27799   3.725   9.873  10.212  0.8095 -0.1226 -2.7252
  947MOL0     H27800   3.572   9.969  10.208  0.2031  0.3040  1.2021
  947MOL0     H27801   3.759   9.854   9.984  0.0438 -0.4511  2.6468
  947MOL0     H27802   3.607   9.947   9.936  1.4409 -0.2009 -1.4722
  947MOL0     H27803   3.506   9.745  10.072  2.8620 -1.1989  2.6878
  947MOL0     H27804   3.655   9.662  10.024 -3.0381 -2.3656  0.0773
  947MOL0     H27805   3.315   9.695   9.993 -0.8345 -0.5774  1.8653
  947MOL0     H27806   3.173   9.488   9.960 -0.7302  0.8908 -0.8244
  947MOL0     H27807   3.225   8.991   9.918  2.0238  1.2420 -2.4280
  947MOL0     H27808   3.066   8.790   9.900  2.9695 -1.9229 -1.5868
  947MOL0     H27809   2.808   8.623   9.565  0.5127 -1.8757 -1.5394
  947MOL0     H27810   2.903   8.753   9.486  0.8858 -0.2685 -1.0310
  947MOL0     H27811   3.122   8.607   9.533  2.6657 -2.7989  2.8409
  947MOL0     H27812   3.038   8.532   9.660  0.7351  3.5294  1.3577
  947MOL0     H27813   3.059   8.391   9.480  2.9295  3.1245  0.9075
  947MOL0     H27814   2.878   8.427   9.465  0.1376 -0.2048  0.6277
  947MOL0     H27815   3.083   8.534   9.269 -0.3917 -0.6131  0.0017
  947MOL0     H27816   2.914   8.586   9.298  1.3879  0.2116  0.4508
  947MOL0     H27817   2.910   8.438   9.113 -2.6222 -0.4294  0.1181
  947MOL0     H27818   2.849   8.341   9.248  0.3449 -1.5541 -0.8278
  947MOL0     H27819   3.083   8.241   9.295  2.4002  1.6847  0.8230
  947MOL0     H27820   3.002   8.206   9.138  0.9628  1.2407 -1.5920
  947MOL0     H27821   3.259   8.353   9.180  1.1959  1.1905 -0.5356
  947MOL0     H27822   3.162   8.430   9.064 -0.1068  0.6725  2.3891
  947MOL0     H27823   3.166   8.226   8.923  0.0118 -0.5331 -0.4231
  947MOL0     H27824   3.326   8.266   8.978 -0.8128 -1.0479 -2.3799
  947MOL0     H27825   2.950   8.946   9.508 -1.7905  6.2384 -0.0006
  947MOL0     H27826   3.111   9.126   9.534 -0.9724 -0.4045  0.0948
  947MOL0     H27827   3.460   9.304   9.711  0.2609  0.0691  1.2572
  947MOL0     H27828   3.570   9.523   9.694 -1.5605 -1.9748 -3.3449
  947MOL0     H27829   2.852   9.962  10.812  0.1974 -2.4479 -2.5757
  947MOL0     H27830   2.649   9.874  10.875 -0.1496  0.7483  0.7257
  947MOL0     H27831   2.452   9.592  11.221 -0.4215 -1.5325 -0.8490
  947MOL0     H27832   2.262   9.461  11.298 -3.8338  0.0957  2.0919
  947MOL0     H27833   2.024   9.355  11.327 -1.4308 -0.3895 -2.6934
  947MOL0     H27834   1.866   9.436  11.317  0.0635  3.6252  0.2551
  947MOL0     H27835   2.119   9.524  11.439  0.3678 -1.6277  2.8002
  947MOL0     H27836   1.971   9.487  11.536 -1.0301  1.4614 -0.5626
  947MOL0     H27837   1.851   9.678  11.422  0.7136 -0.9387 -0.1125
  947MOL0     H27838   2.002   9.737  11.356  0.2745  1.7833  0.4268
  947MOL0     H27839   2.062   9.704  11.621 -1.3443 -2.1694 -0.8584
  947MOL0     H27840   2.026   9.851  11.533 -0.5610  0.8256  3.7770
  947MOL0     H27841   1.707   9.796  11.808 -2.3819  0.7458 -1.1783
  947MOL0     H27842   2.017   9.658  11.004 -0.4038  3.3156  0.1478
  947MOL0     H27843   2.064   9.843  10.916 -0.5416 -0.0594  2.5901
  947MOL0     H27844   2.202   9.939  10.942  1.0039 -0.5158 -0.9040
  947MOL0     H27845   2.219   9.819  10.818  2.4852  1.7909  0.8079
  948MOL0     O27846   9.532   2.114   3.951  0.5392 -0.1808 -0.3955
  948MOL0     C27847   9.579   2.004   3.953  0.4658  0.1838 -0.9235
  948MOL0     O27848   9.668   1.968   4.047 -0.4387  0.1393  0.7962
  948MOL0     C27849   9.671   1.831   4.086 -0.5259 -0.6480  0.4373
  948MOL0     C27850   9.801   1.774   4.101 -0.3547 -0.5565 -0.2841
  948MOL0     C27851   9.821   1.643   4.138 -0.0441  0.0584  0.1707
  948MOL0     C27852   9.704   1.569   4.165  0.2135 -0.0040 -0.7671
  948MOL0     O27853   9.703   1.442   4.199 -0.3107 -0.7189  0.6235
  948MOL0     C27854   9.822   1.352   4.211  0.0800  0.2583  0.3441
  948MOL0     C27855   9.932   1.396   4.315  0.0110  0.6004  0.1815
  948MOL0     C27856  10.010   1.282   4.393  1.0957 -1.0630  0.8873
  948MOL0     C27857  10.082   1.186   4.294 -0.4413 -0.8813 -0.6397
  948MOL0     C27858  10.196   1.120   4.368  0.8144 -0.5148 -0.1815
  948MOL0     C27859  10.295   1.038   4.270 -0.2908  0.9136 -0.5275
  948MOL0     C27860  10.223   0.962   4.156 -0.9071  0.5570  0.1248
  948MOL0     C27861  10.306   0.843   4.105 -0.1846  2.1693 -0.5611
  948MOL0     N27862  10.423   0.878   4.020  0.2580  0.6782  0.4196
  948MOL0     C27863  10.547   0.833   4.040  0.5296  0.1316 -0.5260
  948MOL0     C27864  10.610   0.883   3.934 -0.6148 -0.7922  0.6211
  948MOL0     C27865  10.761   0.884   3.900  0.9077 -0.6019 -0.0937
  948MOL0     C27866  10.807   0.855   3.762  0.4499 -0.3219 -0.2292
  948MOL0     C27867  10.731   0.744   3.675 -0.5756 -0.1910  1.0018
  948MOL0     C27868  10.788   0.714   3.541  0.7088  0.2895  0.3776
  948MOL0     O27869  10.907   0.640   3.560  0.0698  1.1147  1.1760
  948MOL0     C27870  10.901   0.499   3.576 -0.1492  0.6829  0.8084
  948MOL0     C27871  10.781   0.421   3.585 -0.5041 -0.3364 -0.8796
  948MOL0     C27872  10.785   0.287   3.610 -0.0432 -0.2679 -0.1479
  948MOL0     C27873  10.900   0.209   3.616 -0.4117  0.0654 -0.3252
  948MOL0     C27874  10.900   0.063   3.647  0.4304 -0.6982  0.1690
  948MOL0     O27875  10.779   0.001   3.639  0.0465 -0.8737 -0.4128
  948MOL0     C27876  10.775  -0.139   3.667 -0.5009 -0.8132 -0.7960
  948MOL0     C27877  10.815  -0.223   3.562 -0.2507 -0.6245 -0.3191
  948MOL0     C27878  10.832  -0.360   3.595 -0.1958  0.7126  0.0271
  948MOL0     C27879  10.817  -0.409   3.732  0.3634 -0.3830  0.8007
  948MOL0     O27880  10.851  -0.536   3.761 -0.2500 -0.3731  0.0448
  948MOL0     C27881  10.807  -0.639   3.685  1.0947  0.4395  0.7526
  948MOL0     C27882  10.906  -0.751   3.668  0.2433 -0.3000  0.5613
  948MOL0     C27883  10.954  -0.835   3.783 -0.2899 -0.1144 -0.4333
  948MOL0     C27884  11.000  -0.970   3.727 -0.2422 -0.0188  0.2226
  948MOL0     C27885  11.045  -1.071   3.838  0.5136  0.8497 -0.6839
  948MOL0     C27886  11.057  -1.214   3.793  0.3001  0.0436 -0.1439
  948MOL0     C27887  11.150  -1.236   3.675  0.4012 -0.2570 -0.0300
  948MOL0     C27888  11.171  -1.391   3.650  0.8118 -0.7620 -0.3419
  948MOL0    Cl27889  11.251  -1.410   3.489  0.0441 -0.3967 -0.0969
  948MOL0     C27890  10.781  -0.320   3.833 -0.6527 -0.9551 -0.1949
  948MOL0     C27891  10.764  -0.184   3.797  0.7884 -0.9973  0.2305
  948MOL0     O27892  11.010   0.014   3.676  0.0502  0.7790 -0.2295
  948MOL0     C27893  11.021   0.289   3.613 -0.8780 -0.1149  0.8570
  948MOL0     C27894  11.019   0.428   3.592  0.4469 -0.3896  0.2515
  948MOL0     N27895  10.517   0.942   3.846  0.1136  0.3136 -1.1023
  948MOL0     N27896  10.405   0.946   3.902 -1.0580 -0.7835  0.2148
  948MOL0     C27897   9.573   1.620   4.138  0.4321  0.1989 -1.1869
  948MOL0     C27898   9.554   1.753   4.093 -0.5680  0.4054  0.0150
  948MOL0     C27899   9.536   1.923   3.832  0.0178 -0.5294  0.3502
  948MOL0     C27900   9.628   1.833   3.778 -0.1583 -0.3168  0.0382
  948MOL0     C27901   9.619   1.767   3.656 -0.3925 -0.4633  0.3442
  948MOL0     C27902   9.497   1.777   3.591  0.4407 -0.1917  0.6100
  948MOL0     O27903   9.495   1.710   3.472 -0.3085 -0.1256 -0.6709
  948MOL0     C27904   9.376   1.678   3.401  0.7065 -1.1718  0.5101
  948MOL0     C27905   9.419   1.633   3.262  0.0932  0.4395 -0.3296
  948MOL0     C27906   9.443   1.742   3.159  0.5386 -0.4357  1.5848
  948MOL0     C27907   9.555   1.835   3.201  0.1679 -0.1764  0.1815
  948MOL0     C27908   9.581   1.917   3.087 -1.4080 -0.5021  0.7954
  948MOL0     C27909   9.604   1.984   2.989 -0.4065 -0.1997  0.1141
  948MOL0     C27910   9.403   1.859   3.633  0.1120 -0.3089 -0.0152
  948MOL0     C27911   9.411   1.932   3.757 -0.4158 -0.2396 -0.0957
  948MOL0     C27912   9.295   2.013   3.801  0.4900  0.4227  0.9016
  948MOL0     H27913   9.890   1.831   4.075  0.4646 -0.0304  3.2279
  948MOL0     H27914   9.921   1.602   4.143  0.6631  1.4126 -1.6463
  948MOL0     H27915   9.774   1.255   4.224 -1.5575  0.1585 -4.4556
  948MOL0     H27916   9.883   1.337   4.121  1.0866 -0.2194  1.0797
  948MOL0     H27917   9.889   1.467   4.386 -0.5643  0.8334 -0.3823
  948MOL0     H27918  10.005   1.455   4.259 -1.1335 -0.7213 -2.9684
  948MOL0     H27919   9.934   1.223   4.443 -1.1907 -0.9946 -2.1946
  948MOL0     H27920  10.080   1.337   4.457  1.3018  0.9052 -0.8918
  948MOL0     H27921  10.008   1.121   4.248 -1.6256 -0.4380  0.5918
  948MOL0     H27922  10.121   1.248   4.212 -0.9563  0.5707  0.1813
  948MOL0     H27923  10.256   1.194   4.421  1.7797 -0.1302 -1.7431
  948MOL0     H27924  10.151   1.047   4.436 -0.7498  0.6411  0.0840
  948MOL0     H27925  10.369   1.102   4.221 -0.0210  1.5956  0.7085
  948MOL0     H27926  10.348   0.955   4.320 -3.1145 -3.6096 -4.2375
  948MOL0     H27927  10.203   1.040   4.082  4.6403  1.5290 -0.7560
  948MOL0     H27928  10.130   0.927   4.202 -1.5414  0.3047 -1.2907
  948MOL0     H27929  10.336   0.774   4.184 -4.0850  1.0033  0.1040
  948MOL0     H27930  10.242   0.791   4.033  0.6760 -0.2654  0.3364
  948MOL0     H27931  10.595   0.784   4.124  2.6318 -0.0613 -1.7487
  948MOL0     H27932  10.800   0.986   3.914 -0.5407 -0.1610  0.9498
  948MOL0     H27933  10.818   0.818   3.966 -0.3969  0.4179  2.1797
  948MOL0     H27934  10.792   0.953   3.717 -1.2494 -1.3312 -2.0394
  948MOL0     H27935  10.914   0.832   3.760  0.6757  0.0084  2.7120
  948MOL0     H27936  10.632   0.788   3.663  0.4860  1.4558 -4.3838
  948MOL0     H27937  10.724   0.656   3.740 -0.3956  0.5495  2.0557
  948MOL0     H27938  10.816   0.801   3.481  2.8403 -1.0743 -0.7283
  948MOL0     H27939  10.709   0.667   3.482  1.4182  0.6096 -0.8602
  948MOL0     H27940  10.679   0.458   3.587 -1.9005 -3.6787  2.8560
  948MOL0     H27941  10.686   0.246   3.623  0.0660 -0.1121  1.3845
  948MOL0     H27942  10.851  -0.180   3.470  2.7983 -2.7538 -0.2832
  948MOL0     H27943  10.866  -0.419   3.511  0.6901  0.0675  0.8155
  948MOL0     H27944  10.714  -0.678   3.727  0.4847 -0.8786 -1.6140
  948MOL0     H27945  10.776  -0.609   3.584  0.0417 -2.4485  0.1258
  948MOL0     H27946  10.854  -0.817   3.598 -0.7497  0.3059  0.7052
  948MOL0     H27947  10.998  -0.713   3.624 -0.5953  1.3689  0.1433
  948MOL0     H27948  11.028  -0.774   3.836 -1.0755  0.6348 -0.1715
  948MOL0     H27949  10.876  -0.851   3.858  0.4766 -2.3459 -0.0575
  948MOL0     H27950  11.085  -0.953   3.660  0.8953  1.2559  1.9066
  948MOL0     H27951  10.914  -1.010   3.672 -1.8505  2.1450  1.0339
  948MOL0     H27952  10.959  -1.073   3.906  1.5330 -0.7816  0.6414
  948MOL0     H27953  11.134  -1.030   3.889  0.7674 -0.8445  0.3079
  948MOL0     H27954  11.088  -1.268   3.882  2.5304  1.3904 -0.0460
  948MOL0     H27955  10.955  -1.245   3.768  0.9033 -2.7118  0.4775
  948MOL0     H27956  11.246  -1.186   3.687 -0.1409  0.4580  1.7135
  948MOL0     H27957  11.111  -1.189   3.584  0.0616  1.2284  0.8474
  948MOL0     H27958  11.239  -1.434   3.724  0.8446  0.8904  0.6343
  948MOL0     H27959  11.080  -1.451   3.659  1.6471 -2.0465 -0.3135
  948MOL0     H27960  10.789  -0.346   3.938 -0.7628  3.4455  1.0810
  948MOL0     H27961  10.749  -0.110   3.874  2.6892 -1.4392  1.0904
  948MOL0     H27962  11.113   0.233   3.621  0.5354  1.9020 -0.3801
  948MOL0     H27963  11.111   0.486   3.588 -0.5226  1.1402 -1.2290
  948MOL0     H27964   9.482   1.560   4.146  1.2244 -0.8006  1.3953
  948MOL0     H27965   9.456   1.794   4.068 -1.1017 -1.1147 -0.5117
  948MOL0     H27966   9.733   1.834   3.808  0.5415 -1.4832 -2.1307
  948MOL0     H27967   9.704   1.727   3.603 -1.0117 -1.7950  0.3157
  948MOL0     H27968   9.316   1.768   3.386 -1.9237 -2.3935  2.7512
  948MOL0     H27969   9.325   1.601   3.459  0.5239  0.3164  2.4267
  948MOL0     H27970   9.341   1.567   3.223  1.4398 -0.1322 -2.2174
  948MOL0     H27971   9.513   1.577   3.267  1.2698  1.8924 -3.3014
  948MOL0     H27972   9.350   1.795   3.136 -1.1914 -3.3048  1.5148
  948MOL0     H27973   9.474   1.702   3.062 -1.4372  1.1415  0.2217
  948MOL0     H27974   9.520   1.898   3.283 -1.0041 -2.7484  1.7986
  948MOL0     H27975   9.645   1.778   3.227 -0.7644 -1.5567  0.4556
  948MOL0     H27976   9.616   2.044   2.900 -1.5832  0.7997  0.5898
  948MOL0     H27977   9.302   1.869   3.593 -1.3653  1.3327  3.6676
  948MOL0     H27978   9.320   2.102   3.861 -0.0819  1.2806 -0.0911
  948MOL0     H27979   9.251   2.065   3.715 -3.2702 -0.9165  1.8297
  948MOL0     H27980   9.217   1.949   3.843  1.6099 -2.4642 -1.1638
  949MOL0     O27981   8.125   2.018   1.469 -0.2436 -0.0078 -0.5267
  949MOL0     C27982   8.203   2.084   1.411 -0.2960 -0.3825 -0.1251
  949MOL0     O27983   8.166   2.173   1.309 -0.8445  0.5397 -0.9258
  949MOL0     C27984   8.037   2.176   1.251 -0.2818 -0.0852  0.6829
  949MOL0     C27985   8.043   2.249   1.136  0.2324  0.1198  0.5700
  949MOL0     C27986   7.931   2.278   1.058 -0.7081 -0.2461 -1.0652
  949MOL0     C27987   7.803   2.248   1.106  0.6321  0.3183 -0.1682
  949MOL0     O27988   7.705   2.305   1.032  0.1767  0.4073 -0.4846
  949MOL0     C27989   7.560   2.277   1.049  0.5097  0.9617 -1.0318
  949MOL0     C27990   7.525   2.127   1.072  0.3711 -0.3078 -0.3906
  949MOL0     C27991   7.389   2.078   1.029 -0.1270  0.3137 -0.2799
  949MOL0     C27992   7.363   2.103   0.885 -0.4034  0.3680 -0.1866
  949MOL0     C27993   7.254   2.013   0.844  0.1593  1.4926 -0.0086
  949MOL0     C27994   7.191   2.066   0.717  0.8435  0.4096 -0.1292
  949MOL0     C27995   7.066   1.986   0.681 -0.2561 -0.7588 -0.5411
  949MOL0     C27996   6.993   2.026   0.554  0.4217 -0.8674  1.1596
  949MOL0     N27997   6.937   2.164   0.560 -0.3652  0.6065 -0.5041
  949MOL0     C27998   6.823   2.187   0.619 -0.0902 -0.3936  0.0643
  949MOL0     C27999   6.806   2.324   0.604 -0.5759  0.6301  0.3885
  949MOL0     C28000   6.691   2.403   0.651  0.7268 -0.4982 -0.6626
  949MOL0     C28001   6.583   2.446   0.552 -0.1637  0.7301 -0.4977
  949MOL0     C28002   6.440   2.442   0.617 -0.0971 -0.2489  1.2171
  949MOL0     C28003   6.428   2.521   0.749 -0.3670 -0.5142  0.4037
  949MOL0     O28004   6.446   2.427   0.860  0.0795 -0.3427  0.0752
  949MOL0     C28005   6.513   2.466   0.978 -1.3936  0.7703  0.4455
  949MOL0     C28006   6.536   2.593   1.015  0.8606  0.2508  0.3901
  949MOL0     C28007   6.597   2.624   1.145  0.3724 -0.4565  0.0659
  949MOL0     C28008   6.649   2.521   1.226 -0.6199  0.4373  0.0707
  949MOL0     C28009   6.741   2.548   1.337 -0.5195 -0.5963 -0.3888
  949MOL0     O28010   6.756   2.683   1.373 -0.4507  0.1602  0.1612
  949MOL0     C28011   6.868   2.724   1.438 -0.3084  0.0649  0.7613
  949MOL0     C28012   6.958   2.808   1.364 -0.9376 -0.8943  1.0133
  949MOL0     C28013   7.081   2.862   1.417  0.9841 -0.3637  0.3034
  949MOL0     C28014   7.108   2.829   1.555 -0.8704  0.3439 -0.4023
  949MOL0     O28015   7.222   2.883   1.606  0.1930  1.2634  0.0871
  949MOL0     C28016   7.339   2.843   1.536 -0.8716 -0.4747  0.5580
  949MOL0     C28017   7.414   2.971   1.503 -0.3930  0.2617 -0.1314
  949MOL0     C28018   7.549   2.948   1.435 -0.9970  1.2361 -0.6100
  949MOL0     C28019   7.665   2.954   1.535 -0.4961  0.5454 -0.2420
  949MOL0     C28020   7.807   2.979   1.484  1.3193 -0.8421 -0.3811
  949MOL0     C28021   7.910   2.953   1.596 -0.2615  0.7042 -0.1082
  949MOL0     C28022   8.054   2.975   1.549  0.2424 -0.3653  0.7142
  949MOL0     C28023   8.159   2.911   1.648  0.0760  0.9236  0.8129
  949MOL0    Cl28024   8.316   2.883   1.559 -0.3153  0.1885  0.4355
  949MOL0     C28025   7.025   2.752   1.627 -0.1945 -0.3631  1.0459
  949MOL0     C28026   6.906   2.700   1.573 -1.0907  0.1343  1.0002
  949MOL0     O28027   6.800   2.453   1.385 -0.3557  0.5467  0.2678
  949MOL0     C28028   6.629   2.385   1.186  0.7753  0.3224  0.5300
  949MOL0     C28029   6.566   2.365   1.063  0.4322 -0.2504  0.9437
  949MOL0     N28030   6.908   2.372   0.523 -0.2829  0.0352 -0.0764
  949MOL0     N28031   6.981   2.274   0.505  0.4025  0.1350  0.9695
  949MOL0     C28032   7.792   2.180   1.235 -0.0045 -0.4668  0.6703
  949MOL0     C28033   7.912   2.134   1.302  0.0884  0.0305 -0.6811
  949MOL0     C28034   8.358   2.056   1.433  0.9251 -0.1288  0.4481
  949MOL0     C28035   8.446   2.119   1.337 -0.0659  0.1192  0.0947
  949MOL0     C28036   8.591   2.085   1.330  1.3705 -0.1672 -0.1447
  949MOL0     C28037   8.640   1.995   1.422  0.3617 -0.7784 -0.1827
  949MOL0     O28038   8.770   1.954   1.429  0.7645  0.3469 -0.2196
  949MOL0     C28039   8.873   1.996   1.334  0.5827  0.5133 -1.0469
  949MOL0     C28040   8.985   1.900   1.343 -0.2544  0.9737  0.2038
  949MOL0     C28041   8.942   1.770   1.265 -0.0864  0.0412 -0.0622
  949MOL0     C28042   9.055   1.658   1.285 -0.2806 -0.5912  0.1328
  949MOL0     C28043   9.188   1.705   1.250 -0.9561 -0.1456 -0.5349
  949MOL0     C28044   9.288   1.771   1.238  0.3185 -0.0269  0.5147
  949MOL0     C28045   8.555   1.946   1.521 -0.9586  0.0950  0.5808
  949MOL0     C28046   8.412   1.970   1.535 -1.2013  0.1019 -0.0639
  949MOL0     C28047   8.326   1.897   1.628  0.2308 -0.3430 -0.4532
  949MOL0     H28048   8.142   2.278   1.102  2.0550 -3.1757  2.4627
  949MOL0     H28049   7.938   2.341   0.970 -0.8575  1.7697  0.2990
  949MOL0     H28050   7.530   2.335   1.136  0.7890 -1.2695  0.6450
  949MOL0     H28051   7.497   2.313   0.967 -3.0951  1.3759  1.6907
  949MOL0     H28052   7.542   2.104   1.178  0.6581  1.8366  0.0961
  949MOL0     H28053   7.607   2.062   1.039  0.7412 -1.2211  2.1169
  949MOL0     H28054   7.309   2.115   1.093  1.6571  2.2552  0.9408
  949MOL0     H28055   7.397   1.970   1.046  0.6393 -0.1334 -3.0292
  949MOL0     H28056   7.331   2.208   0.882  4.3507  2.0670  0.7074
  949MOL0     H28057   7.448   2.087   0.819  0.1671 -0.6712  0.7746
  949MOL0     H28058   7.297   1.917   0.812 -2.4848  0.2115  0.0267
  949MOL0     H28059   7.182   1.991   0.923 -1.7548  2.6191 -1.3510
  949MOL0     H28060   7.160   2.166   0.749 -0.1240  0.0411  0.1276
  949MOL0     H28061   7.263   2.074   0.636 -1.0527  1.5808 -1.7840
  949MOL0     H28062   6.991   1.998   0.759 -0.2786  0.4715 -0.7267
  949MOL0     H28063   7.085   1.880   0.666  4.3655  0.2539 -4.8891
  949MOL0     H28064   7.073   2.024   0.479  0.5694  2.1667  1.0867
  949MOL0     H28065   6.919   1.953   0.521 -1.2914  1.1507  0.2453
  949MOL0     H28066   6.762   2.121   0.680  0.0931  0.1021  0.8022
  949MOL0     H28067   6.632   2.340   0.718  0.9687 -0.8406 -0.7720
  949MOL0     H28068   6.733   2.494   0.695  0.5135 -1.1149  0.8451
  949MOL0     H28069   6.604   2.544   0.508 -1.6965  0.1997 -2.5596
  949MOL0     H28070   6.578   2.380   0.464 -0.6534  0.3626 -0.2010
  949MOL0     H28071   6.402   2.340   0.623 -2.4808  0.6511  3.8467
  949MOL0     H28072   6.378   2.501   0.548 -0.0396 -0.3363  1.0896
  949MOL0     H28073   6.330   2.568   0.763 -0.0633 -0.2804  1.8750
  949MOL0     H28074   6.509   2.594   0.758  2.1666 -2.9886 -0.6405
  949MOL0     H28075   6.495   2.675   0.956 -1.7894 -0.6073  0.9198
  949MOL0     H28076   6.618   2.727   1.170  2.0234  0.0062 -2.8436
  949MOL0     H28077   6.935   2.846   1.265  2.9720 -0.5194  0.0884
  949MOL0     H28078   7.159   2.903   1.354  1.2271 -0.9487  0.2177
  949MOL0     H28079   7.407   2.794   1.606  0.0482 -0.8166 -0.5406
  949MOL0     H28080   7.323   2.779   1.449  0.3025  0.3511 -0.3066
  949MOL0     H28081   7.356   3.028   1.430 -0.0896  2.2085  1.0572
  949MOL0     H28082   7.418   3.041   1.587 -0.8105  1.0585 -0.7593
  949MOL0     H28083   7.559   2.856   1.377  1.7605  0.7473  0.4792
  949MOL0     H28084   7.564   3.031   1.365 -3.4298 -0.1350 -2.9452
  949MOL0     H28085   7.656   2.865   1.599 -1.2186 -0.2697 -1.4323
  949MOL0     H28086   7.648   3.031   1.610 -0.5965  0.1188  0.1799
  949MOL0     H28087   7.824   3.081   1.448 -1.2813 -0.0790  0.3304
  949MOL0     H28088   7.844   2.909   1.409  2.8039 -2.5429  1.8060
  949MOL0     H28089   7.887   3.011   1.685  2.4603 -1.7382  2.4345
  949MOL0     H28090   7.885   2.853   1.634 -3.4633  1.7945  0.9100
  949MOL0     H28091   8.068   3.080   1.524  0.1719 -0.6614 -0.6532
  949MOL0     H28092   8.073   2.917   1.458 -0.6165 -2.1227  1.5988
  949MOL0     H28093   8.163   2.971   1.740 -2.3391 -0.1952  1.7274
  949MOL0     H28094   8.132   2.810   1.682 -1.1206  0.5901 -0.9877
  949MOL0     H28095   7.061   2.726   1.726 -0.1103  1.2727  1.4591
  949MOL0     H28096   6.835   2.644   1.633 -1.6961  1.7351  1.8243
  949MOL0     H28097   6.661   2.302   1.248  0.5170  0.8534  1.3956
  949MOL0     H28098   6.545   2.268   1.019  2.1343  0.1114 -0.7756
  949MOL0     H28099   7.695   2.158   1.278 -1.1570  1.1167 -0.9553
  949MOL0     H28100   7.901   2.079   1.394 -1.7391  4.4819  2.0921
  949MOL0     H28101   8.417   2.190   1.260 -0.9873 -2.4454 -2.0505
  949MOL0     H28102   8.655   2.127   1.253  1.4823  0.2366  0.1642
  949MOL0     H28103   8.915   2.097   1.346  0.1659  0.5575  0.1679
  949MOL0     H28104   8.839   1.983   1.231  5.0290  2.2152 -3.0369
  949MOL0     H28105   9.000   1.870   1.448 -3.8848  1.3808  0.9615
  949MOL0     H28106   9.076   1.935   1.294  0.1326 -2.7454 -2.1004
  949MOL0     H28107   8.932   1.781   1.157  1.1987  0.4439 -0.1644
  949MOL0     H28108   8.845   1.738   1.305  1.0111 -0.3969  2.4699
  949MOL0     H28109   9.058   1.626   1.389  1.4005 -1.5352 -0.1632
  949MOL0     H28110   9.037   1.567   1.228 -1.6225  0.2861 -0.9090
  949MOL0     H28111   9.375   1.833   1.239  0.7135 -0.3796 -2.5618
  949MOL0     H28112   8.588   1.870   1.590  0.2857  0.3173  0.2433
  949MOL0     H28113   8.261   1.955   1.695 -4.1963 -6.5716  1.4831
  949MOL0     H28114   8.253   1.828   1.586 -1.4070 -1.1528  3.3284
  949MOL0     H28115   8.385   1.834   1.695 -1.3914 -1.7287 -0.2659
  950MOL0     O28116   7.720   7.494   5.002  0.6969 -0.2000  0.8773
  950MOL0     C28117   7.666   7.582   5.066 -0.6131 -0.3385  0.2953
  950MOL0     O28118   7.671   7.597   5.194 -0.0932  0.1522 -0.6195
  950MOL0     C28119   7.746   7.506   5.256  0.9231 -0.0024  0.2402
  950MOL0     C28120   7.882   7.515   5.269  0.3251  0.3171  0.0969
  950MOL0     C28121   7.955   7.407   5.327  0.6089 -0.2647 -0.3051
  950MOL0     C28122   7.883   7.303   5.389  0.5717 -0.4929  0.7584
  950MOL0     O28123   7.971   7.216   5.447 -0.0917  0.3331 -0.2422
  950MOL0     C28124   7.926   7.136   5.559 -0.2571 -0.0643  0.3666
  950MOL0     C28125   8.056   7.077   5.613  0.0374  0.5272  0.4840
  950MOL0     C28126   8.114   6.969   5.523 -0.0165 -1.5217 -0.1805
  950MOL0     C28127   8.211   7.005   5.418  0.5099  0.0036  0.0977
  950MOL0     C28128   8.330   6.912   5.415  0.8143  1.4153 -0.2059
  950MOL0     C28129   8.285   6.778   5.346  0.3510  0.1872  0.5613
  950MOL0     C28130   8.390   6.662   5.380  1.2410 -0.3903  0.6052
  950MOL0     C28131   8.331   6.571   5.485 -0.2113 -0.4645  0.1379
  950MOL0     N28132   8.407   6.449   5.463  0.3623 -0.1873 -0.0222
  950MOL0     C28133   8.342   6.327   5.450 -0.6642  0.1365 -0.6259
  950MOL0     C28134   8.441   6.233   5.441  0.6353  1.0825 -0.5074
  950MOL0     C28135   8.406   6.084   5.409  0.3077  0.2817  0.5515
  950MOL0     C28136   8.489   5.991   5.504 -0.4147 -0.2299 -0.4011
  950MOL0     C28137   8.462   6.017   5.663 -0.7455  0.0152  0.1148
  950MOL0     C28138   8.323   5.987   5.718 -0.7774 -0.4925  0.3180
  950MOL0     O28139   8.231   6.061   5.644 -0.8102 -0.1074 -0.1601
  950MOL0     C28140   8.101   6.026   5.665  0.3877 -1.2635 -0.0760
  950MOL0     C28141   8.010   6.105   5.590 -0.9325 -0.7714  0.6048
  950MOL0     C28142   7.871   6.099   5.606  0.3276  0.9314 -0.0563
  950MOL0     C28143   7.813   5.996   5.686 -0.2300  0.4662 -1.0377
  950MOL0     C28144   7.666   5.970   5.688  0.6036 -0.0952 -1.0584
  950MOL0     O28145   7.599   6.018   5.586 -0.5101 -0.5551 -0.0683
  950MOL0     C28146   7.467   6.011   5.594 -0.0551  0.3754  0.6775
  950MOL0     C28147   7.385   6.081   5.687  0.2696  0.3558  0.0843
  950MOL0     C28148   7.244   6.068   5.686 -0.0160 -0.4889 -0.2610
  950MOL0     C28149   7.184   5.983   5.595  0.0139 -0.9623 -0.0113
  950MOL0     O28150   7.044   5.977   5.595  0.9104 -0.5057  0.2220
  950MOL0     C28151   6.980   5.843   5.559  0.3231  0.0446 -1.0461
  950MOL0     C28152   6.825   5.835   5.581 -0.7850  0.0938 -0.6149
  950MOL0     C28153   6.766   5.913   5.456 -0.1996  0.4150  0.2462
  950MOL0     C28154   6.611   5.918   5.486 -0.3410 -0.1962  0.1141
  950MOL0     C28155   6.551   6.022   5.387  0.3995  0.1209  0.2140
  950MOL0     C28156   6.563   6.165   5.429 -0.3363  0.3079 -0.5993
  950MOL0     C28157   6.516   6.249   5.314  0.1523  0.1160  0.1878
  950MOL0     C28158   6.544   6.395   5.328 -0.2244 -0.1568  0.7558
  950MOL0    Cl28159   6.523   6.475   5.169  0.1572 -0.4677  0.5514
  950MOL0     C28160   7.264   5.913   5.514  0.5923 -0.2448 -0.1029
  950MOL0     C28161   7.398   5.923   5.508 -0.4813 -0.5664 -0.3883
  950MOL0     O28162   7.623   5.886   5.772 -0.1842 -0.2073 -0.0490
  950MOL0     C28163   7.905   5.920   5.761  0.2935  0.7150 -0.4855
  950MOL0     C28164   8.044   5.938   5.759 -0.0797 -0.2971  0.4094
  950MOL0     N28165   8.563   6.301   5.444 -0.1722 -0.1621  0.2479
  950MOL0     N28166   8.540   6.431   5.464 -0.6127 -0.1492  0.9438
  950MOL0     C28167   7.743   7.298   5.375  0.3048  0.2060 -0.8579
  950MOL0     C28168   7.669   7.403   5.312  0.0177  0.0849 -0.7073
  950MOL0     C28169   7.581   7.678   4.989  0.4369 -0.4259 -0.2059
  950MOL0     C28170   7.477   7.743   5.054  0.5230  0.6246  0.5812
  950MOL0     C28171   7.415   7.855   4.989  0.2758  0.7057 -0.0860
  950MOL0     C28172   7.457   7.887   4.862  0.4348  0.5185 -0.0004
  950MOL0     O28173   7.403   8.005   4.806 -0.9121 -0.2695  0.0710
  950MOL0     C28174   7.267   8.023   4.804  0.1275 -0.5796 -0.3207
  950MOL0     C28175   7.183   7.909   4.744  0.5785 -0.2282 -0.0314
  950MOL0     C28176   7.236   7.883   4.614 -1.2289  0.3188  0.6952
  950MOL0     C28177   7.141   7.816   4.515  0.1214 -0.3456 -0.6151
  950MOL0     C28178   7.212   7.810   4.393  0.3979 -0.6671 -0.2650
  950MOL0     C28179   7.275   7.801   4.295  0.3762 -0.4354  0.6614
  950MOL0     C28180   7.543   7.812   4.786  0.3937  0.6928 -1.1019
  950MOL0     C28181   7.602   7.693   4.849  0.2022  0.1553  0.5074
  950MOL0     C28182   7.688   7.610   4.758  0.3292 -0.4679 -0.2218
  950MOL0     H28183   7.930   7.599   5.218  2.1946 -1.3453 -1.0170
  950MOL0     H28184   8.063   7.398   5.333  0.7090  0.3942 -0.9221
  950MOL0     H28185   7.881   7.196   5.639  2.3233  0.5202  1.4933
  950MOL0     H28186   7.857   7.056   5.531 -3.2710  3.4138 -3.4435
  950MOL0     H28187   8.037   7.029   5.709  0.5112 -0.3907  0.1333
  950MOL0     H28188   8.124   7.161   5.630  0.6125  0.1183  0.2231
  950MOL0     H28189   8.041   6.896   5.487 -0.5771 -0.0975 -2.1636
  950MOL0     H28190   8.182   6.916   5.589  1.9472  0.4349 -0.5018
  950MOL0     H28191   8.155   7.015   5.325  0.2075  2.2948  0.4572
  950MOL0     H28192   8.249   7.107   5.431  2.5064 -0.7969  0.9443
  950MOL0     H28193   8.418   6.959   5.369  3.1605  0.4877  2.9878
  950MOL0     H28194   8.363   6.877   5.513  1.9512 -0.0724 -1.0694
  950MOL0     H28195   8.188   6.740   5.378  0.6888 -0.0495  1.3131
  950MOL0     H28196   8.277   6.800   5.239  4.5593 -0.0697  0.0033
  950MOL0     H28197   8.478   6.713   5.421  0.9058  2.7093 -2.1392
  950MOL0     H28198   8.414   6.606   5.289  1.7621 -1.7269  1.5190
  950MOL0     H28199   8.348   6.611   5.585  0.6886 -0.4739 -0.0007
  950MOL0     H28200   8.222   6.565   5.480 -0.2766 -0.0867  0.9595
  950MOL0     H28201   8.235   6.308   5.456 -0.7851 -0.3269 -3.3575
  950MOL0     H28202   8.298   6.068   5.408  0.3277  0.1395  0.0119
  950MOL0     H28203   8.433   6.058   5.306 -1.2106 -2.8788  0.8226
  950MOL0     H28204   8.457   5.886   5.500  2.1930 -1.8141  6.3922
  950MOL0     H28205   8.595   6.010   5.489  0.0754  0.0411  2.7378
  950MOL0     H28206   8.493   6.117   5.693  4.2073 -1.4181  0.5944
  950MOL0     H28207   8.528   5.947   5.714 -1.2856  0.1439  1.0144
  950MOL0     H28208   8.334   6.008   5.825  2.7828 -0.8410  0.1541
  950MOL0     H28209   8.312   5.878   5.711 -1.5114 -0.4407  0.5691
  950MOL0     H28210   8.057   6.175   5.521  0.1321 -1.5894  0.4715
  950MOL0     H28211   7.801   6.162   5.552  1.4352 -0.2114 -3.0037
  950MOL0     H28212   7.439   6.149   5.753  1.3652 -1.9468  1.6813
  950MOL0     H28213   7.172   6.115   5.752  0.0318 -1.8954  0.8441
  950MOL0     H28214   7.008   5.819   5.456 -3.3054 -0.7204 -1.9867
  950MOL0     H28215   7.015   5.756   5.617 -2.5960 -0.4843  0.0621
  950MOL0     H28216   6.790   5.732   5.596  2.9868 -0.9403  3.0913
  950MOL0     H28217   6.798   5.888   5.673  1.8735 -1.6833  1.3627
  950MOL0     H28218   6.808   6.014   5.449 -0.0573  0.2212 -3.0788
  950MOL0     H28219   6.773   5.869   5.357  2.1786  1.3573 -0.0868
  950MOL0     H28220   6.607   5.969   5.583 -2.2347  0.0056 -0.0460
  950MOL0     H28221   6.575   5.815   5.482  2.9925 -1.4747 -1.5685
  950MOL0     H28222   6.449   5.992   5.363 -0.3370  0.1759  2.8847
  950MOL0     H28223   6.603   6.000   5.294 -1.2663 -0.3414 -0.6467
  950MOL0     H28224   6.491   6.183   5.509 -2.2384 -3.5035 -1.2124
  950MOL0     H28225   6.668   6.195   5.440 -0.1237 -0.3292 -0.8380
  950MOL0     H28226   6.409   6.233   5.297 -0.1714  1.4368  0.8797
  950MOL0     H28227   6.567   6.219   5.222  2.0459  0.7920  0.9546
  950MOL0     H28228   6.470   6.433   5.400 -0.6847 -1.0244  0.7600
  950MOL0     H28229   6.642   6.406   5.375 -0.8802  0.9815  1.9443
  950MOL0     H28230   7.226   5.848   5.435  0.0353 -1.1319  0.8690
  950MOL0     H28231   7.450   5.870   5.429  1.8085 -1.1797  1.4328
  950MOL0     H28232   7.866   5.852   5.837  0.4102 -1.8466 -2.5803
  950MOL0     H28233   8.114   5.873   5.810 -0.6213 -1.1509  0.0897
  950MOL0     H28234   7.698   7.211   5.422  0.1421  0.0359 -1.3237
  950MOL0     H28235   7.561   7.404   5.312  0.0057  0.5997  0.8090
  950MOL0     H28236   7.450   7.729   5.158  0.9035 -0.8601  0.5064
  950MOL0     H28237   7.340   7.906   5.048  0.2572  1.2553 -0.5749
  950MOL0     H28238   7.259   8.111   4.740  1.2653 -1.9059 -2.3721
  950MOL0     H28239   7.232   8.059   4.901  2.4607  4.9671 -1.1948
  950MOL0     H28240   7.078   7.941   4.741  0.0968 -1.6630 -3.5374
  950MOL0     H28241   7.188   7.819   4.806 -0.2147  0.3098  0.8436
  950MOL0     H28242   7.319   7.812   4.625 -1.0736  0.0550 -1.7473
  950MOL0     H28243   7.272   7.978   4.573  0.2110 -0.5062 -0.0510
  950MOL0     H28244   7.108   7.713   4.534 -3.0884  0.6137 -0.4676
  950MOL0     H28245   7.059   7.888   4.510 -0.7850 -0.9925  2.7888
  950MOL0     H28246   7.355   7.804   4.223  0.4543  0.3643  0.7734
  950MOL0     H28247   7.562   7.852   4.686 -0.5660  2.1672 -0.7265
  950MOL0     H28248   7.693   7.657   4.659 -1.3709 -1.3176 -0.7475
  950MOL0     H28249   7.786   7.623   4.804 -0.7081  1.5605  1.5676
  950MOL0     H28250   7.673   7.501   4.753  0.3302 -0.4386 -1.0425
  951MOL0     O28251   0.664   4.737   2.826  0.4952 -0.1114  0.1780
  951MOL0     C28252   0.774   4.708   2.794 -0.3733  0.2442 -0.9853
  951MOL0     O28253   0.863   4.792   2.724 -0.4473  0.4548 -0.8200
  951MOL0     C28254   0.814   4.910   2.684 -1.2009  0.1538  0.3425
  951MOL0     C28255   0.825   5.017   2.762 -0.1316  0.1785  0.8693
  951MOL0     C28256   0.786   5.145   2.724  0.0087  1.4915 -1.1225
  951MOL0     C28257   0.715   5.152   2.596  0.8314 -0.2934  0.4072
  951MOL0     O28258   0.645   5.269   2.558 -0.1102 -0.5471 -0.4004
  951MOL0     C28259   0.626   5.366   2.663 -0.8739 -0.5672  0.4579
  951MOL0     C28260   0.501   5.324   2.743  0.1374  0.7780 -0.5287
  951MOL0     C28261   0.438   5.430   2.824  0.2642 -0.2739 -0.1365
  951MOL0     C28262   0.324   5.377   2.902 -1.1813  0.2293 -0.2215
  951MOL0     C28263   0.325   5.368   3.048 -1.3693 -0.1794  0.4124
  951MOL0     C28264   0.184   5.331   3.098 -1.0257 -0.3132 -0.1856
  951MOL0     C28265   0.186   5.327   3.248  0.2522  0.5677 -0.4265
  951MOL0     C28266   0.041   5.350   3.304  0.0999  0.1915 -0.0360
  951MOL0     N28267  -0.043   5.245   3.259 -0.3830  0.8157  0.8490
  951MOL0     C28268  -0.112   5.239   3.141 -0.0637 -0.0686 -0.1947
  951MOL0     C28269  -0.184   5.124   3.146  0.3485 -0.1709 -0.4204
  951MOL0     C28270  -0.267   5.068   3.036  1.6265 -1.0411  0.3672
  951MOL0     C28271  -0.184   4.965   2.958 -0.5516  0.7415 -0.4842
  951MOL0     C28272  -0.064   5.023   2.885  0.5484  0.2670  1.1749
  951MOL0     C28273   0.009   4.919   2.805  0.1400  0.3146 -0.1786
  951MOL0     O28274   0.142   4.961   2.786 -0.3766 -0.4472  0.8205
  951MOL0     C28275   0.236   4.958   2.890  0.8585  0.2094 -0.0911
  951MOL0     C28276   0.358   4.995   2.840  0.1276 -0.8452  1.0378
  951MOL0     C28277   0.476   4.985   2.914 -0.1343  0.8771 -0.4857
  951MOL0     C28278   0.471   4.938   3.048 -0.3528  0.3895  0.3715
  951MOL0     C28279   0.592   4.915   3.124 -1.1549 -0.5587 -0.2835
  951MOL0     O28280   0.706   4.915   3.047  0.6162  0.7601 -0.4727
  951MOL0     C28281   0.826   4.900   3.110 -1.1777  0.4145  0.4279
  951MOL0     C28282   0.913   4.789   3.114 -1.3711 -0.3442 -0.0679
  951MOL0     C28283   1.039   4.787   3.170 -0.2307  0.0019 -0.6267
  951MOL0     C28284   1.094   4.901   3.225 -0.2053  0.2093 -1.0455
  951MOL0     O28285   1.208   4.903   3.300  0.3728 -0.0458  0.0783
  951MOL0     C28286   1.316   4.828   3.240  0.4426  0.1325 -0.3531
  951MOL0     C28287   1.443   4.904   3.272  0.5793  0.3035  0.6404
  951MOL0     C28288   1.563   4.821   3.226  0.0624  1.1727 -0.3716
  951MOL0     C28289   1.578   4.693   3.299 -0.0314 -0.4786  0.3520
  951MOL0     C28290   1.728   4.645   3.336  0.0285  0.7706 -1.5798
  951MOL0     C28291   1.760   4.729   3.456  0.7931  1.3950 -0.3364
  951MOL0     C28292   1.907   4.701   3.482 -0.1691 -0.6456 -0.2948
  951MOL0     C28293   1.991   4.779   3.380 -0.0538  0.2176 -0.7432
  951MOL0    Cl28294   1.973   4.957   3.386 -0.5257  0.5527  0.6297
  951MOL0     C28295   1.006   5.007   3.229  0.4414  0.4267 -0.5575
  951MOL0     C28296   0.875   5.012   3.168  0.2919  1.0936  0.4027
  951MOL0     O28297   0.586   4.873   3.238  0.5657  0.2522  0.1576
  951MOL0     C28298   0.336   4.921   3.097  0.3042  0.9141 -0.0486
  951MOL0     C28299   0.223   4.928   3.019  0.6907  0.3640 -0.1905
  951MOL0     N28300  -0.172   5.075   3.275  0.1476  0.3100  0.5736
  951MOL0     N28301  -0.066   5.128   3.328 -0.1079 -0.2856  0.3212
  951MOL0     C28302   0.704   5.038   2.522  0.2202  0.2692  0.0116
  951MOL0     C28303   0.769   4.919   2.554 -0.4759  0.5555 -0.3703
  951MOL0     C28304   0.826   4.571   2.825 -1.1392  0.0456 -0.0314
  951MOL0     C28305   0.960   4.554   2.851  0.3600  0.2025 -0.5338
  951MOL0     C28306   1.000   4.443   2.910 -0.3093  0.7467 -0.2199
  951MOL0     C28307   0.922   4.330   2.924  1.2101 -0.2843  0.7028
  951MOL0     O28308   0.980   4.218   2.983  0.4101 -0.3596  0.2335
  951MOL0     C28309   0.911   4.093   2.957  0.1794 -0.5638 -0.5843
  951MOL0     C28310   0.992   3.981   3.015 -0.0629  0.8011  0.1287
  951MOL0     C28311   0.960   3.966   3.161 -0.0299 -0.7058  0.7969
  951MOL0     C28312   1.011   4.070   3.266 -0.4235  0.1369  0.4930
  951MOL0     C28313   1.161   4.078   3.286  0.7847  0.5765 -1.0553
  951MOL0     C28314   1.272   4.070   3.331 -0.1813 -0.2786 -0.6844
  951MOL0     C28315   0.799   4.330   2.860 -0.0725 -0.5367 -0.4387
  951MOL0     C28316   0.748   4.453   2.816  0.4253 -0.6521 -0.2740
  951MOL0     C28317   0.604   4.457   2.762 -0.1375 -0.3073  0.4757
  951MOL0     H28318   0.869   4.999   2.859  0.7792 -0.8690  0.2780
  951MOL0     H28319   0.776   5.226   2.796 -2.1768 -0.5597  1.0328
  951MOL0     H28320   0.716   5.396   2.717  1.8779 -2.3565 -2.7191
  951MOL0     H28321   0.606   5.456   2.604 -0.2606 -0.3882  0.5173
  951MOL0     H28322   0.524   5.238   2.807 -0.0422  1.1761  0.0838
  951MOL0     H28323   0.426   5.293   2.670 -1.7860  5.5906 -0.9382
  951MOL0     H28324   0.389   5.493   2.750 -1.7490  1.6334  2.6455
  951MOL0     H28325   0.502   5.491   2.888 -2.6276  2.5911  0.2829
  951MOL0     H28326   0.240   5.443   2.879 -0.4308  0.1226 -3.7404
  951MOL0     H28327   0.287   5.281   2.863 -1.5041  0.6890 -1.0732
  951MOL0     H28328   0.393   5.289   3.082 -1.9017  0.1370  2.2994
  951MOL0     H28329   0.362   5.464   3.084 -0.5779  0.4364 -1.8377
  951MOL0     H28330   0.110   5.399   3.054 -0.0798  0.4183 -0.6687
  951MOL0     H28331   0.159   5.232   3.059 -1.0068 -0.8403  1.0768
  951MOL0     H28332   0.250   5.402   3.298 -1.9836  2.3166 -0.0230
  951MOL0     H28333   0.227   5.232   3.283  2.2018  1.4662 -0.1069
  951MOL0     H28334   0.053   5.343   3.413  4.5462  4.4444  0.0899
  951MOL0     H28335  -0.003   5.445   3.273 -0.0134 -0.5730 -2.4416
  951MOL0     H28336  -0.096   5.313   3.063 -1.6245 -0.0129 -0.5002
  951MOL0     H28337  -0.358   5.027   3.080  0.6899  2.0599  1.6420
  951MOL0     H28338  -0.295   5.150   2.969  2.3768 -2.1226 -1.3342
  951MOL0     H28339  -0.143   4.898   3.035  1.7610  3.1900  0.5639
  951MOL0     H28340  -0.256   4.908   2.899 -0.4553 -1.1603  1.1347
  951MOL0     H28341  -0.004   5.062   2.967  0.7291  0.8363  0.7773
  951MOL0     H28342  -0.085   5.108   2.820  2.5489  0.0339  0.1568
  951MOL0     H28343  -0.045   4.893   2.713 -0.2826  0.1155  0.1186
  951MOL0     H28344  -0.005   4.823   2.856 -1.9077  0.5517 -0.1738
  951MOL0     H28345   0.356   5.008   2.732  0.7934  1.5962  1.2482
  951MOL0     H28346   0.571   5.006   2.866  0.5625 -2.6294 -0.8846
  951MOL0     H28347   0.879   4.691   3.081 -1.3450 -0.5844  0.6131
  951MOL0     H28348   1.086   4.691   3.183 -0.3017  0.1255  0.6826
  951MOL0     H28349   1.320   4.729   3.287 -2.8812  0.7501  1.5831
  951MOL0     H28350   1.295   4.818   3.133 -3.1895 -2.0435  0.3785
  951MOL0     H28351   1.430   4.995   3.214 -3.9236  0.2027  1.1140
  951MOL0     H28352   1.449   4.925   3.379 -1.9812 -2.9427  1.6142
  951MOL0     H28353   1.555   4.794   3.120  2.8919 -1.2759 -0.0941
  951MOL0     H28354   1.654   4.879   3.241  0.6525 -0.3464  2.8181
  951MOL0     H28355   1.546   4.616   3.229  0.2501  0.5283 -0.9368
  951MOL0     H28356   1.513   4.703   3.386 -0.0042  2.7968  0.1528
  951MOL0     H28357   1.781   4.661   3.241 -1.2315 -0.6168 -2.5570
  951MOL0     H28358   1.738   4.539   3.361 -0.6081  0.8676 -0.8764
  951MOL0     H28359   1.733   4.834   3.453 -1.3985  0.9076  0.3071
  951MOL0     H28360   1.693   4.689   3.534  0.2660  1.0244 -0.9641
  951MOL0     H28361   1.930   4.595   3.465 -0.2282 -0.2491 -3.5798
  951MOL0     H28362   1.947   4.736   3.577  1.2097 -1.1097 -0.6847
  951MOL0     H28363   2.097   4.762   3.400  0.5466  1.7140 -2.3844
  951MOL0     H28364   1.980   4.734   3.281  0.3924 -1.6389  0.0086
  951MOL0     H28365   1.046   5.092   3.283 -0.2010  2.2151 -2.7425
  951MOL0     H28366   0.803   5.092   3.162 -1.0756 -0.1293 -0.2671
  951MOL0     H28367   0.318   4.890   3.199 -1.0097  1.8035  0.0133
  951MOL0     H28368   0.122   4.898   3.049  0.8543  1.1949  1.3006
  951MOL0     H28369   0.647   5.045   2.430 -0.4117 -1.1365  0.2666
  951MOL0     H28370   0.758   4.826   2.498  0.4721 -1.4233  2.4822
  951MOL0     H28371   1.027   4.640   2.851  1.2512 -0.2233  4.2552
  951MOL0     H28372   1.098   4.430   2.955 -1.0610 -4.0631  0.6684
  951MOL0     H28373   0.910   4.072   2.849  2.7161  0.1902 -0.8287
  951MOL0     H28374   0.813   4.083   3.003  2.2672  1.3341  5.1912
  951MOL0     H28375   1.099   3.993   2.998 -0.1834  0.9511 -0.5685
  951MOL0     H28376   0.966   3.885   2.971  1.2744  1.0126 -1.1828
  951MOL0     H28377   1.007   3.869   3.182  0.2517 -0.3769  1.7321
  951MOL0     H28378   0.852   3.955   3.157  0.2112 -3.7421 -0.2147
  951MOL0     H28379   0.977   4.171   3.240  1.1356  0.7947  0.9040
  951MOL0     H28380   0.982   4.045   3.369  1.1004  1.0586  1.1823
  951MOL0     H28381   1.355   4.084   3.398 -0.1833  0.4304 -0.8172
  951MOL0     H28382   0.739   4.241   2.845  1.1078 -1.3714 -0.3262
  951MOL0     H28383   0.597   4.395   2.672  1.0489 -1.8829  1.4033
  951MOL0     H28384   0.539   4.420   2.841 -4.5423 -0.5219 -2.8709
  951MOL0     H28385   0.567   4.555   2.730  0.7930  1.0023  3.1894
  952MOL0     O28386   8.623   6.289   3.158 -0.8222 -0.4250  0.2073
  952MOL0     C28387   8.695   6.186   3.147  0.0406 -0.9060 -0.3302
  952MOL0     O28388   8.806   6.178   3.062 -0.2444  0.9181 -0.3749
  952MOL0     C28389   8.847   6.284   2.981 -0.2021  0.6393  0.6948
  952MOL0     C28390   8.980   6.289   2.942  0.0198  0.0488  0.9398
  952MOL0     C28391   9.035   6.391   2.852  0.4277  0.0505 -0.6137
  952MOL0     C28392   8.943   6.474   2.779 -0.5063  0.3966  0.5604
  952MOL0     O28393   8.970   6.563   2.688 -0.7189 -0.3254  0.9313
  952MOL0     C28394   9.106   6.580   2.633 -0.9913 -0.3236 -0.4303
  952MOL0     C28395   9.168   6.718   2.677 -0.0093  0.1427  0.0155
  952MOL0     C28396   9.084   6.837   2.650 -0.4100  0.6092  0.0348
  952MOL0     C28397   9.045   6.855   2.505 -0.1669  0.5861 -0.5221
  952MOL0     C28398   8.984   6.989   2.478 -0.4462 -0.2504 -0.2516
  952MOL0     C28399   8.982   7.019   2.329  0.3506  0.6113  0.1552
  952MOL0     C28400   8.927   7.152   2.289 -0.4271 -0.0108 -0.5089
  952MOL0     C28401   8.915   7.160   2.134  0.9778  0.6939  1.5298
  952MOL0     N28402   8.793   7.089   2.079 -0.0754 -1.0669  0.1849
  952MOL0     C28403   8.767   7.059   1.946 -0.6060  0.1381 -1.8360
  952MOL0     C28404   8.648   6.997   1.940 -0.0030  0.2244 -0.1212
  952MOL0     C28405   8.590   6.945   1.819  0.2489 -0.0360  0.1380
  952MOL0     C28406   8.610   6.788   1.807  0.9519 -0.5611  1.5058
  952MOL0     C28407   8.741   6.765   1.754 -0.2202  0.2927 -0.3016
  952MOL0     C28408   8.782   6.618   1.721  0.5577 -0.0796 -0.4206
  952MOL0     O28409   8.913   6.620   1.657  0.0905 -0.3626  0.3568
  952MOL0     C28410   8.960   6.510   1.585 -0.6137 -0.1096 -0.3093
  952MOL0     C28411   8.895   6.389   1.579  0.3147  0.3829 -0.2759
  952MOL0     C28412   8.950   6.276   1.517 -0.7335  0.6561 -1.5328
  952MOL0     C28413   9.085   6.283   1.466  0.2416  0.1282 -0.3628
  952MOL0     C28414   9.162   6.163   1.412 -0.1959 -0.5863 -0.1221
  952MOL0     O28415   9.293   6.180   1.393 -0.5931  0.2710 -0.2552
  952MOL0     C28416   9.362   6.083   1.339 -0.0407  0.6414  0.6978
  952MOL0     C28417   9.405   6.104   1.205  0.0036 -0.2874  0.0587
  952MOL0     C28418   9.472   6.008   1.133  0.9345  0.2476  0.0577
  952MOL0     C28419   9.517   5.886   1.191  0.2252 -0.5566  0.0873
  952MOL0     O28420   9.599   5.802   1.125  0.4050 -0.6063 -0.5862
  952MOL0     C28421   9.572   5.802   0.981  0.2044  0.1134  0.8118
  952MOL0     C28422   9.634   5.676   0.932 -0.5007 -0.0596  0.0401
  952MOL0     C28423   9.570   5.626   0.807  0.1198 -0.9096  0.6531
  952MOL0     C28424   9.659   5.519   0.736 -0.4444 -0.2810  0.3156
  952MOL0     C28425   9.611   5.502   0.593  0.4697  1.1062 -0.7909
  952MOL0     C28426   9.698   5.399   0.527  0.2446 -0.5893  1.0497
  952MOL0     C28427   9.656   5.381   0.377 -0.7144 -0.7098  0.6643
  952MOL0     C28428   9.762   5.307   0.294  0.1083 -0.3453 -0.2340
  952MOL0    Cl28429   9.771   5.152   0.384  0.4369  0.1605 -0.5098
  952MOL0     C28430   9.493   5.870   1.328  0.2455 -0.1824  0.0165
  952MOL0     C28431   9.418   5.968   1.399 -0.0837  1.0375 -0.2022
  952MOL0     O28432   9.096   6.060   1.396  0.1758  0.3274  0.2198
  952MOL0     C28433   9.143   6.407   1.477 -0.1517  0.5982 -0.0499
  952MOL0     C28434   9.085   6.531   1.528  0.1368  0.6325  0.5885
  952MOL0     N28435   8.593   7.012   2.069 -0.2314  0.5301  0.0005
  952MOL0     N28436   8.678   7.071   2.150  0.5879  0.0815  0.0164
  952MOL0     C28437   8.812   6.461   2.819  0.7535 -1.1413 -0.1418
  952MOL0     C28438   8.763   6.360   2.902 -0.0439  0.5485 -0.0788
  952MOL0     C28439   8.661   6.074   3.238 -0.2684 -0.2236 -0.6512
  952MOL0     C28440   8.538   6.078   3.302  0.4288 -0.7307 -0.0149
  952MOL0     C28441   8.505   5.978   3.392 -0.9111 -0.9264 -0.4669
  952MOL0     C28442   8.585   5.866   3.421 -0.1605  0.5608 -1.0356
  952MOL0     O28443   8.526   5.775   3.504 -0.1460  1.0444 -0.4569
  952MOL0     C28444   8.601   5.667   3.557  0.2966  0.0725  0.0056
  952MOL0     C28445   8.515   5.575   3.644  0.8356  0.1396  0.2295
  952MOL0     C28446   8.562   5.567   3.792  0.6903  0.7661  0.5519
  952MOL0     C28447   8.488   5.445   3.852 -0.2535 -0.7970 -0.2484
  952MOL0     C28448   8.514   5.416   3.986 -0.6330  0.5697  0.5045
  952MOL0     C28449   8.517   5.401   4.107  0.2164  0.4049 -0.5306
  952MOL0     C28450   8.710   5.856   3.362 -0.5200 -0.3749 -0.0244
  952MOL0     C28451   8.746   5.959   3.269  0.0330 -0.4988 -0.1394
  952MOL0     C28452   8.876   5.924   3.199  0.7980 -0.0255 -0.5780
  952MOL0     H28453   9.051   6.211   2.970  0.6697  0.5217  0.6413
  952MOL0     H28454   9.139   6.405   2.826  0.6544  2.0497  1.1013
  952MOL0     H28455   9.164   6.490   2.652 -0.8288 -0.9830 -3.5088
  952MOL0     H28456   9.095   6.568   2.525 -1.5003 -2.0024 -0.2240
  952MOL0     H28457   9.259   6.734   2.619 -1.3044 -2.9475 -3.2721
  952MOL0     H28458   9.179   6.716   2.786 -0.6577 -3.9033  0.1519
  952MOL0     H28459   9.158   6.910   2.683  1.0380 -0.3736 -0.8873
  952MOL0     H28460   8.996   6.832   2.714 -0.4278 -2.8429 -0.0794
  952MOL0     H28461   9.139   6.847   2.449  0.8489 -0.0131  1.2136
  952MOL0     H28462   8.972   6.783   2.467  0.5967 -0.2652 -0.3987
  952MOL0     H28463   8.890   6.996   2.533 -0.0764 -1.2562  0.5280
  952MOL0     H28464   9.042   7.067   2.529 -0.2778 -0.8781  0.5266
  952MOL0     H28465   9.081   6.998   2.289  0.3916 -1.2163  1.1166
  952MOL0     H28466   8.914   6.948   2.282 -1.8180  2.7262 -0.0989
  952MOL0     H28467   8.980   7.236   2.335  0.2055 -1.3244  1.2516
  952MOL0     H28468   8.826   7.152   2.330 -0.1641 -1.1198  0.1744
  952MOL0     H28469   8.898   7.266   2.117 -3.5705 -0.0208  0.2538
  952MOL0     H28470   8.998   7.127   2.071 -2.1175  0.5515 -2.8896
  952MOL0     H28471   8.840   7.080   1.868  0.4780  0.9064 -0.6739
  952MOL0     H28472   8.487   6.983   1.826  0.4310  0.3145  1.0275
  952MOL0     H28473   8.635   6.998   1.735 -0.6055  0.0181 -0.3053
  952MOL0     H28474   8.591   6.741   1.904 -0.6876  1.6504  2.3343
  952MOL0     H28475   8.542   6.749   1.730 -0.0247  2.6759  0.5979
  952MOL0     H28476   8.824   6.809   1.811  0.3312 -0.9512 -0.0943
  952MOL0     H28477   8.753   6.814   1.657  2.1209 -0.4571 -0.4660
  952MOL0     H28478   8.703   6.575   1.659 -1.6465  2.4993  0.3768
  952MOL0     H28479   8.791   6.567   1.817  0.9670  0.5977 -0.0844
  952MOL0     H28480   8.796   6.382   1.623 -0.4504  2.7185 -1.4762
  952MOL0     H28481   8.895   6.183   1.523 -1.0914  0.9559  2.1049
  952MOL0     H28482   9.370   6.198   1.163  1.6918  1.9410  3.2159
  952MOL0     H28483   9.479   6.037   1.029 -1.7966  0.2725 -0.1846
  952MOL0     H28484   9.471   5.819   0.944  1.7473 -0.3937 -4.5814
  952MOL0     H28485   9.627   5.883   0.932 -2.0041  0.1713 -1.7952
  952MOL0     H28486   9.742   5.695   0.926  0.0478 -0.6188  4.7854
  952MOL0     H28487   9.615   5.591   0.999 -1.1162 -0.3842 -0.5299
  952MOL0     H28488   9.475   5.578   0.832 -0.2547  0.9076  3.0403
  952MOL0     H28489   9.547   5.699   0.728 -1.7008 -3.5794 -1.4663
  952MOL0     H28490   9.653   5.421   0.783 -1.9978 -1.0185 -1.3034
  952MOL0     H28491   9.765   5.548   0.731  0.1638 -2.5093 -1.4844
  952MOL0     H28492   9.600   5.593   0.532 -1.3922  0.8119 -0.9299
  952MOL0     H28493   9.511   5.459   0.597  0.3701  1.4629  2.1816
  952MOL0     H28494   9.805   5.419   0.535  0.6900 -1.9840 -0.6796
  952MOL0     H28495   9.685   5.301   0.573  1.1781 -0.2450  2.0839
  952MOL0     H28496   9.632   5.474   0.326  0.7091  0.4552  2.0116
  952MOL0     H28497   9.561   5.327   0.376 -1.7300  1.0230 -0.2218
  952MOL0     H28498   9.737   5.294   0.188  0.8829 -0.7742 -0.3726
  952MOL0     H28499   9.856   5.361   0.288  1.1082 -2.1478 -2.8880
  952MOL0     H28500   9.527   5.790   1.392  0.0058 -0.2953  0.0034
  952MOL0     H28501   9.385   5.951   1.502  0.5240  0.4827 -0.0963
  952MOL0     H28502   9.249   6.417   1.452 -0.4691  2.2624 -0.9148
  952MOL0     H28503   9.134   6.628   1.532  1.6305 -0.0105 -0.8155
  952MOL0     H28504   8.726   6.521   2.790  0.6639  0.0756  2.4003
  952MOL0     H28505   8.658   6.340   2.924  0.4728 -0.9493  1.2956
  952MOL0     H28506   8.466   6.151   3.267  0.1007 -2.2965 -2.9649
  952MOL0     H28507   8.409   6.002   3.437 -2.7733 -0.8852 -4.0751
  952MOL0     H28508   8.687   5.687   3.620  0.5487 -0.2454 -0.2289
  952MOL0     H28509   8.624   5.607   3.468 -0.6104 -0.1820 -0.0645
  952MOL0     H28510   8.517   5.476   3.598 -1.2943  0.0924  0.1297
  952MOL0     H28511   8.408   5.602   3.647  0.7946  0.0107 -0.0827
  952MOL0     H28512   8.519   5.655   3.842 -2.7321 -1.4309  1.8245
  952MOL0     H28513   8.668   5.556   3.814  0.2708 -2.9398  1.4032
  952MOL0     H28514   8.383   5.474   3.844  0.2974  1.3706 -0.1868
  952MOL0     H28515   8.511   5.356   3.793  2.6755 -1.5457  1.7744
  952MOL0     H28516   8.529   5.385   4.213 -0.7774  2.2135 -0.1034
  952MOL0     H28517   8.771   5.770   3.389  1.7987  1.3302  0.4913
  952MOL0     H28518   8.845   5.914   3.095 -1.3879  2.6940 -0.2990
  952MOL0     H28519   8.944   6.008   3.214  0.0372  0.2494  1.7549
  952MOL0     H28520   8.926   5.836   3.241  2.1106 -0.2818 -2.5783
  953MOL0     O28521   2.367   0.095   0.464  0.1877  0.0106 -0.2718
  953MOL0     C28522   2.445   0.149   0.547 -1.3583  0.3438 -0.3408
  953MOL0     O28523   2.458   0.112   0.672 -0.2596 -0.1985  0.6211
  953MOL0     C28524   2.344   0.067   0.722 -0.1613  0.5018 -0.0970
  953MOL0     C28525   2.219   0.129   0.725  0.3308 -0.2843 -0.3945
  953MOL0     C28526   2.098   0.081   0.753  0.9964  0.2760 -0.5619
  953MOL0     C28527   2.098  -0.059   0.790  0.0324  1.4645 -0.5419
  953MOL0     O28528   1.997  -0.144   0.804 -0.0151 -0.5058 -0.0933
  953MOL0     C28529   1.858  -0.080   0.804  0.1252  0.7787  0.0322
  953MOL0     C28530   1.737  -0.179   0.791  0.3395 -0.7167  0.2077
  953MOL0     C28531   1.726  -0.287   0.901 -0.8906 -0.9039  0.0890
  953MOL0     C28532   1.611  -0.385   0.872  0.1250  0.0794  0.0189
  953MOL0     C28533   1.627  -0.516   0.921  0.1594  0.5904 -0.3477
  953MOL0     C28534   1.742  -0.598   0.868 -0.4560  0.5646  0.5304
  953MOL0     C28535   1.765  -0.728   0.949 -0.1022 -0.4103 -0.4337
  953MOL0     C28536   1.907  -0.787   0.919  0.3201  0.2601 -0.3680
  953MOL0     N28537   1.926  -0.910   0.987 -0.3478 -0.3091  0.6161
  953MOL0     C28538   1.916  -0.936   1.113  0.0725  1.4809  0.0200
  953MOL0     C28539   1.968  -1.065   1.119 -0.2439  0.4560 -0.0308
  953MOL0     C28540   2.025  -1.140   1.244  0.7046 -0.7966 -0.9590
  953MOL0     C28541   2.144  -1.061   1.305  0.5813 -0.2469  0.1573
  953MOL0     C28542   2.284  -1.085   1.254 -0.1920 -0.3000  0.3452
  953MOL0     C28543   2.386  -0.965   1.292 -0.2196 -0.1845  1.2543
  953MOL0     O28544   2.524  -1.010   1.261  0.4941  0.3231  0.6697
  953MOL0     C28545   2.635  -0.929   1.293 -0.1216  0.3994 -0.0501
  953MOL0     C28546   2.631  -0.798   1.343  0.8012  0.0770  0.2222
  953MOL0     C28547   2.741  -0.730   1.384 -0.1936 -0.2659 -0.8010
  953MOL0     C28548   2.868  -0.789   1.388  0.1266 -0.2881  0.9444
  953MOL0     C28549   2.982  -0.713   1.426  0.2411 -0.1335  0.7447
  953MOL0     O28550   3.096  -0.778   1.414  0.1155 -0.2907 -0.8061
  953MOL0     C28551   3.224  -0.715   1.409 -1.1075  0.4072  0.1746
  953MOL0     C28552   3.248  -0.598   1.326  1.3094 -0.7077  0.1838
  953MOL0     C28553   3.363  -0.535   1.301  0.1872 -0.7058 -0.3459
  953MOL0     C28554   3.476  -0.578   1.366  0.0785 -0.4388 -0.0387
  953MOL0     O28555   3.597  -0.512   1.363  0.0751 -0.1078  0.5522
  953MOL0     C28556   3.643  -0.481   1.227  0.2015  1.1104 -0.4878
  953MOL0     C28557   3.743  -0.365   1.242  0.3592 -0.2568  0.6727
  953MOL0     C28558   3.850  -0.383   1.340 -0.4584  0.0617 -0.1927
  953MOL0     C28559   3.899  -0.260   1.399  0.3556 -0.0272 -0.0387
  953MOL0     C28560   4.035  -0.285   1.476 -0.3763 -0.0111  0.2775
  953MOL0     C28561   4.109  -0.156   1.503  0.1300  0.0638 -0.3844
  953MOL0     C28562   4.170  -0.098   1.375  0.6438 -0.1302 -0.2450
  953MOL0     C28563   4.253   0.033   1.390 -0.0458  0.4441  0.6957
  953MOL0    Cl28564   4.145   0.156   1.471  0.0420 -0.4476 -0.2824
  953MOL0     C28565   3.457  -0.679   1.463 -0.2888  0.4810  0.8972
  953MOL0     C28566   3.341  -0.753   1.485  0.1269  0.4907 -0.2986
  953MOL0     O28567   2.968  -0.594   1.448 -0.9353 -0.3770 -0.5895
  953MOL0     C28568   2.880  -0.919   1.332 -0.1968  0.3111 -0.0470
  953MOL0     C28569   2.764  -0.984   1.287  0.0266 -0.2305 -1.5067
  953MOL0     N28570   1.989  -1.115   0.987  0.4246 -0.1667  0.0176
  953MOL0     N28571   1.967  -1.015   0.907  0.8181  0.2381 -0.3453
  953MOL0     C28572   2.226  -0.129   0.788  0.4097  0.8554  0.5022
  953MOL0     C28573   2.341  -0.062   0.763  0.0653  0.5771  0.1557
  953MOL0     C28574   2.545   0.262   0.515  0.8889 -0.6351 -0.0835
  953MOL0     C28575   2.610   0.335   0.623  0.1105 -0.7629  0.3578
  953MOL0     C28576   2.693   0.440   0.611 -0.3202  0.3980  0.5180
  953MOL0     C28577   2.722   0.488   0.483 -0.8522 -0.5051 -0.0723
  953MOL0     O28578   2.820   0.588   0.450  0.3841 -0.2618 -0.9647
  953MOL0     C28579   2.828   0.690   0.544 -0.5707 -1.2335 -0.0709
  953MOL0     C28580   2.832   0.826   0.469 -0.6597 -0.7986  0.8429
  953MOL0     C28581   2.709   0.850   0.385  0.0624  0.8323 -0.4449
  953MOL0     C28582   2.597   0.887   0.482 -0.1472 -0.0281  1.2461
  953MOL0     C28583   2.589   1.029   0.504  0.2685 -0.7282 -0.0226
  953MOL0     C28584   2.605   1.142   0.532 -0.5852  0.2384  0.3397
  953MOL0     C28585   2.661   0.423   0.372  0.2809  0.7682 -0.2434
  953MOL0     C28586   2.574   0.312   0.386 -0.6975  0.7000  0.5632
  953MOL0     C28587   2.521   0.253   0.260 -0.0950 -0.0063  0.9176
  953MOL0     H28588   2.220   0.237   0.717 -2.1619 -0.2191 -0.7770
  953MOL0     H28589   2.018   0.153   0.765  1.2184  1.0101 -3.0279
  953MOL0     H28590   1.833  -0.026   0.895 -2.1493  3.7892 -2.1743
  953MOL0     H28591   1.846  -0.006   0.725 -2.0002  5.0250  3.9251
  953MOL0     H28592   1.753  -0.222   0.692  1.0275  0.7381 -0.3394
  953MOL0     H28593   1.646  -0.118   0.799  0.4595 -0.6225  1.0385
  953MOL0     H28594   1.708  -0.246   1.000 -0.8721  0.9682 -0.6477
  953MOL0     H28595   1.830  -0.321   0.898  1.0401  4.2687 -1.4700
  953MOL0     H28596   1.526  -0.334   0.918  0.0772  1.3915 -1.4123
  953MOL0     H28597   1.589  -0.393   0.765 -0.4892 -0.1616  0.1587
  953MOL0     H28598   1.636  -0.506   1.029 -0.3665  2.1663 -0.4216
  953MOL0     H28599   1.529  -0.562   0.900 -0.1524  1.6135 -1.2363
  953MOL0     H28600   1.723  -0.622   0.762  1.3991  4.1302 -0.7681
  953MOL0     H28601   1.833  -0.538   0.864 -2.1551  3.2955  0.6898
  953MOL0     H28602   1.683  -0.798   0.929  0.1141 -0.8177  0.0958
  953MOL0     H28603   1.768  -0.701   1.054 -1.8873 -3.1061  0.4211
  953MOL0     H28604   1.933  -0.807   0.815  4.5145 -1.3106  0.7847
  953MOL0     H28605   1.985  -0.718   0.954  0.9151 -0.3303 -0.5036
  953MOL0     H28606   1.906  -0.864   1.194  0.2441 -0.7692  2.1534
  953MOL0     H28607   1.944  -1.147   1.317 -1.7966  0.1467 -3.4595
  953MOL0     H28608   2.072  -1.235   1.220 -0.6975 -1.8443  0.2454
  953MOL0     H28609   2.121  -0.955   1.316 -3.8436 -1.0688  0.8068
  953MOL0     H28610   2.140  -1.086   1.412  0.4454 -1.4103 -0.1018
  953MOL0     H28611   2.300  -1.109   1.149  3.2772 -0.3348  0.7664
  953MOL0     H28612   2.321  -1.170   1.312 -2.0199  0.5688  2.9811
  953MOL0     H28613   2.382  -0.945   1.400  0.5768 -2.3504  1.7260
  953MOL0     H28614   2.365  -0.875   1.234 -3.8768 -1.4559  0.3099
  953MOL0     H28615   2.536  -0.745   1.350  2.0646  2.5772 -0.4030
  953MOL0     H28616   2.721  -0.628   1.417  3.3430  0.0249  0.8749
  953MOL0     H28617   3.164  -0.555   1.273 -0.2117 -3.1259  0.5115
  953MOL0     H28618   3.363  -0.440   1.248 -0.8109 -0.6220 -0.2142
  953MOL0     H28619   3.699  -0.557   1.173 -1.2811 -0.1699 -0.2976
  953MOL0     H28620   3.567  -0.438   1.160 -0.6266  1.6105  0.7346
  953MOL0     H28621   3.796  -0.350   1.147  0.9897 -2.0648  0.6959
  953MOL0     H28622   3.674  -0.283   1.268  0.6691 -0.4027  2.0294
  953MOL0     H28623   3.817  -0.447   1.422 -2.5735  0.3899 -0.7151
  953MOL0     H28624   3.928  -0.443   1.292  0.0545  1.1382 -0.7365
  953MOL0     H28625   3.821  -0.224   1.466 -0.1329 -2.8686  1.0434
  953MOL0     H28626   3.900  -0.196   1.310 -3.3107  1.2393  0.6760
  953MOL0     H28627   4.102  -0.345   1.414 -2.4645  0.0332 -2.1638
  953MOL0     H28628   4.006  -0.332   1.571 -3.9782 -0.5408 -0.9442
  953MOL0     H28629   4.035  -0.087   1.544 -2.3687 -1.9784 -1.2082
  953MOL0     H28630   4.186  -0.171   1.579 -0.9892 -1.9547  0.4437
  953MOL0     H28631   4.089  -0.085   1.303 -0.9647 -2.1011  1.1060
  953MOL0     H28632   4.242  -0.173   1.340  0.3286 -2.0163  2.8112
  953MOL0     H28633   4.340   0.019   1.455  2.2952  1.0294 -2.1013
  953MOL0     H28634   4.293   0.071   1.296  1.2003 -0.7487  0.7059
  953MOL0     H28635   3.542  -0.730   1.506 -1.7517 -4.3184 -1.2344
  953MOL0     H28636   3.338  -0.849   1.535 -3.1530  0.4521 -0.3587
  953MOL0     H28637   2.973  -0.974   1.323 -0.5418 -0.2654 -0.1441
  953MOL0     H28638   2.786  -1.089   1.272 -2.1254 -1.4608  2.4996
  953MOL0     H28639   2.230  -0.238   0.794 -1.6926  0.5134 -2.3993
  953MOL0     H28640   2.432  -0.122   0.762 -0.4599 -0.5608  3.7886
  953MOL0     H28641   2.573   0.318   0.723 -0.9239  0.8843  0.2894
  953MOL0     H28642   2.754   0.471   0.694  0.2780  1.2797 -0.2322
  953MOL0     H28643   2.922   0.693   0.600  0.1475  1.2845 -1.2422
  953MOL0     H28644   2.742   0.694   0.613 -1.2249  2.9839 -0.8793
  953MOL0     H28645   2.927   0.834   0.416 -0.7656  0.9874  0.8378
  953MOL0     H28646   2.844   0.915   0.533  0.7910 -0.8299  0.6434
  953MOL0     H28647   2.684   0.770   0.315 -0.6635  0.0529  0.6782
  953MOL0     H28648   2.728   0.931   0.313  1.8275 -1.9180 -3.3094
  953MOL0     H28649   2.510   0.840   0.436  2.3010 -2.8542 -0.8852
  953MOL0     H28650   2.620   0.835   0.575  1.8849 -1.2250  0.1600
  953MOL0     H28651   2.617   1.247   0.548 -0.2124  0.4503 -1.1287
  953MOL0     H28652   2.673   0.467   0.273  0.1467 -0.0388 -0.6243
  953MOL0     H28653   2.455   0.319   0.203  4.1010  3.0015 -1.0143
  953MOL0     H28654   2.607   0.242   0.192  0.0981 -3.8338  1.5676
  953MOL0     H28655   2.488   0.150   0.273  0.4315 -0.6406 -1.9304
  954MOL0     O28656   9.067  10.280  10.151  0.2411 -0.0910 -0.6861
  954MOL0     C28657   9.168  10.247  10.206 -0.2007 -0.1556  0.6440
  954MOL0     O28658   9.195  10.298  10.332  0.3797  0.0579 -0.6827
  954MOL0     C28659   9.133  10.415  10.378  0.5168 -0.2037 -0.6192
  954MOL0     C28660   8.995  10.423  10.423  0.5935 -0.5936 -0.2915
  954MOL0     C28661   8.942  10.547  10.441  0.2833  0.4187 -0.5816
  954MOL0     C28662   9.009  10.668  10.431  0.3953 -0.8153 -0.3788
  954MOL0     O28663   8.957  10.788  10.466  0.0191  0.2847 -0.2972
  954MOL0     C28664   8.840  10.825  10.398 -0.2830  0.7226  0.4257
  954MOL0     C28665   8.782  10.954  10.445 -0.7974  0.3026 -0.7502
  954MOL0     C28666   8.889  11.064  10.469  0.4199 -0.0072 -0.7908
  954MOL0     C28667   8.833  11.209  10.465  0.3483  0.0752 -0.0826
  954MOL0     C28668   8.931  11.321  10.529  0.5791 -0.1815  0.9074
  954MOL0     C28669   9.082  11.311  10.495 -0.0157 -0.2087 -0.0840
  954MOL0     C28670   9.105  11.375  10.366  0.2575  0.4371 -0.5231
  954MOL0     C28671   9.219  11.309  10.290  0.8652 -0.3317  0.2650
  954MOL0     N28672   9.195  11.170  10.252 -0.7171 -1.6307  0.0176
  954MOL0     C28673   9.141  11.140  10.137 -0.8546 -0.7678  0.0952
  954MOL0     C28674   9.161  11.006  10.123 -0.6383 -1.3154 -1.6138
  954MOL0     C28675   9.143  10.915  10.002  0.2042  0.8583 -0.4684
  954MOL0     C28676   9.017  10.831  10.048  0.8307 -0.4234 -1.1190
  954MOL0     C28677   9.001  10.707   9.959  0.1413 -0.7596 -0.4352
  954MOL0     C28678   8.898  10.607  10.005  0.3220  0.8044 -1.0809
  954MOL0     O28679   8.777  10.668  10.019  0.2093 -0.9098  0.7075
  954MOL0     C28680   8.673  10.605  10.077  0.8980  0.5813 -0.2276
  954MOL0     C28681   8.675  10.467  10.108  0.4327 -0.4930  0.0968
  954MOL0     C28682   8.569  10.401  10.164 -0.2197  0.3843  0.3998
  954MOL0     C28683   8.458  10.474  10.193  0.4391  0.1820  0.6029
  954MOL0     C28684   8.343  10.404  10.247  0.0427  0.1078  0.4609
  954MOL0     O28685   8.221  10.470  10.234 -0.3470 -0.4984  0.1132
  954MOL0     C28686   8.108  10.421  10.299 -0.4618 -0.2032  0.2889
  954MOL0     C28687   8.078  10.473  10.422 -0.6546 -0.4790  0.1379
  954MOL0     C28688   7.955  10.435  10.476  0.0229  0.1455  1.0943
  954MOL0     C28689   7.868  10.343  10.416  0.2516 -0.1685 -0.2423
  954MOL0     O28690   7.750  10.318  10.474  0.8301  0.0439 -0.6485
  954MOL0     C28691   7.715  10.183  10.487 -0.0444  0.2355 -0.3704
  954MOL0     C28692   7.577  10.171  10.556  0.6768  0.4068  0.5144
  954MOL0     C28693   7.455  10.217  10.472 -0.6200 -0.6023  0.0477
  954MOL0     C28694   7.433  10.144  10.339  0.1639  0.4074  0.5767
  954MOL0     C28695   7.400   9.986  10.345 -0.9575 -0.1747  0.2069
  954MOL0     C28696   7.456   9.903  10.220  0.2638 -0.5464 -0.2538
  954MOL0     C28697   7.388   9.767  10.207 -1.0678  0.2024 -1.0401
  954MOL0     C28698   7.470   9.675  10.102  0.4977 -0.1987  0.1085
  954MOL0    Cl28699   7.382   9.523  10.075 -0.1955  0.0672 -0.1467
  954MOL0     C28700   7.899  10.294  10.287 -0.2652 -0.3860 -0.2747
  954MOL0     C28701   8.019  10.331  10.237 -0.7110  0.0424 -0.6634
  954MOL0     O28702   8.358  10.305  10.311 -0.4778  0.1669  0.1472
  954MOL0     C28703   8.449  10.617  10.164  1.5978  0.4287 -0.1305
  954MOL0     C28704   8.553  10.678  10.106  0.3158 -0.0131  0.4523
  954MOL0     N28705   9.223  10.955  10.235  0.4803 -0.0307  0.0211
  954MOL0     N28706   9.237  11.052  10.314 -0.0696  0.3047  0.7724
  954MOL0     C28707   9.145  10.657  10.412 -0.4956 -0.0522 -0.0087
  954MOL0     C28708   9.212  10.532  10.381 -0.0379 -0.4382 -0.0953
  954MOL0     C28709   9.248  10.145  10.142 -0.6289  0.5096 -0.7185
  954MOL0     C28710   9.190  10.054  10.045 -0.1218 -0.6486 -0.1241
  954MOL0     C28711   9.252   9.947   9.990 -0.3841  0.2406 -0.2852
  954MOL0     C28712   9.389   9.918  10.014 -0.1002 -0.2742  0.9196
  954MOL0     O28713   9.462   9.816   9.946  0.1925 -1.3907 -0.2950
  954MOL0     C28714   9.397   9.735   9.851 -0.3754  0.3108 -0.7105
  954MOL0     C28715   9.500   9.621   9.803  0.5863 -0.1778  0.0610
  954MOL0     C28716   9.573   9.546   9.919 -0.3652 -0.1814  0.3031
  954MOL0     C28717   9.480   9.451   9.998 -0.5653  0.1630  0.3267
  954MOL0     C28718   9.561   9.352  10.081  1.1450 -0.9688  0.0452
  954MOL0     C28719   9.633   9.278  10.142  0.0270 -0.0301 -0.1357
  954MOL0     C28720   9.456  10.002  10.105  0.4108  0.2324 -0.2844
  954MOL0     C28721   9.392  10.111  10.166  0.4052 -0.4879 -0.8790
  954MOL0     C28722   9.461  10.187  10.275 -0.2969  1.1530 -0.3590
  954MOL0     H28723   8.943  10.329  10.409  0.8608 -1.0086  1.2855
  954MOL0     H28724   8.837  10.539  10.467  0.9128 -1.7461  1.7993
  954MOL0     H28725   8.858  10.843  10.291  3.3745 -3.2589  0.1059
  954MOL0     H28726   8.760  10.751  10.409 -0.8227  1.1342 -0.5444
  954MOL0     H28727   8.720  10.942  10.535 -1.9140 -3.8380 -1.8535
  954MOL0     H28728   8.708  10.985  10.371 -0.3328 -1.0963 -1.8467
  954MOL0     H28729   8.967  11.058  10.393 -0.5979 -1.9919 -1.7438
  954MOL0     H28730   8.927  11.051  10.571  2.0704  0.0201 -1.3652
  954MOL0     H28731   8.806  11.233  10.362 -0.3167  1.2802  0.3514
  954MOL0     H28732   8.740  11.206  10.524  0.2129  0.3927 -0.2769
  954MOL0     H28733   8.886  11.412  10.488  0.0833 -0.8996 -0.2053
  954MOL0     H28734   8.913  11.313  10.637  0.8009 -0.7409  0.9045
  954MOL0     H28735   9.138  11.368  10.570  2.2739 -3.7687  1.1272
  954MOL0     H28736   9.117  11.208  10.499 -1.5862 -0.7625  4.5253
  954MOL0     H28737   9.141  11.478  10.375 -0.3979  0.6050  0.3656
  954MOL0     H28738   9.012  11.379  10.308  0.5705  0.1171 -1.0492
  954MOL0     H28739   9.245  11.360  10.197 -0.4058 -2.0126 -1.0791
  954MOL0     H28740   9.309  11.331  10.348 -0.8974 -0.3714  3.2515
  954MOL0     H28741   9.091  11.189  10.054  0.8260 -1.5262 -1.4332
  954MOL0     H28742   9.117  10.965   9.909 -3.8296  1.8064  0.9590
  954MOL0     H28743   9.228  10.848   9.987 -0.4680 -0.3174  0.7381
  954MOL0     H28744   9.018  10.800  10.153  0.4033  1.4394 -0.5257
  954MOL0     H28745   8.932  10.898  10.032  2.1828  2.0306  1.2307
  954MOL0     H28746   9.096  10.653   9.952 -1.2104 -3.5342  1.0501
  954MOL0     H28747   8.953  10.740   9.866 -2.7174 -1.4817  0.6954
  954MOL0     H28748   8.939  10.565  10.098  0.7757  0.1310 -1.5702
  954MOL0     H28749   8.891  10.521   9.938  1.9272 -2.1658  2.1799
  954MOL0     H28750   8.755  10.394  10.099  0.3273 -0.4111 -1.7017
  954MOL0     H28751   8.581  10.296  10.189  0.8699  1.2198  4.0433
  954MOL0     H28752   8.142  10.550  10.464  1.1439 -0.8769 -1.7391
  954MOL0     H28753   7.939  10.470  10.577  1.4056  0.3182  1.2771
  954MOL0     H28754   7.710  10.130  10.391  0.2182 -3.1921  1.3247
  954MOL0     H28755   7.781  10.117  10.543 -1.5980 -2.0041 -0.9986
  954MOL0     H28756   7.569  10.068  10.592  1.7929  0.5064  1.1072
  954MOL0     H28757   7.568  10.242  10.639 -3.7783  0.4016  0.2645
  954MOL0     H28758   7.369  10.196  10.537  1.7996 -0.7562  3.4872
  954MOL0     H28759   7.473  10.322  10.448 -3.1769  0.4923  2.4047
  954MOL0     H28760   7.517  10.148  10.269  0.0955  0.4592  0.4962
  954MOL0     H28761   7.358  10.192  10.274  1.5418 -1.9541 -3.0868
  954MOL0     H28762   7.291   9.983  10.341 -1.0130  1.5427 -1.6591
  954MOL0     H28763   7.443   9.941  10.435  2.4474 -0.0895 -1.2115
  954MOL0     H28764   7.425   9.957  10.131  1.2641  1.0238  0.2953
  954MOL0     H28765   7.565   9.913  10.219  0.4720 -1.4439 -4.6731
  954MOL0     H28766   7.281   9.770  10.184 -1.8268  0.3532  2.1411
  954MOL0     H28767   7.408   9.729  10.307 -1.9929  3.3540  0.4649
  954MOL0     H28768   7.485   9.734  10.011  4.3265 -0.9744  0.0661
  954MOL0     H28769   7.569   9.650  10.142 -0.2840 -3.2953  0.3129
  954MOL0     H28770   7.825  10.232  10.239 -0.1600 -2.6004  2.2353
  954MOL0     H28771   8.036  10.292  10.137 -1.3609  1.9931 -1.5895
  954MOL0     H28772   8.361  10.677  10.188  1.2036  0.8091 -2.2539
  954MOL0     H28773   8.531  10.782  10.085  1.8619  0.4106  0.7782
  954MOL0     H28774   9.204  10.748  10.417 -0.6539  0.0255  0.4756
  954MOL0     H28775   9.320  10.534  10.364  0.5398 -2.6916  2.5664
  954MOL0     H28776   9.084  10.054  10.020  0.1050 -2.7050 -1.2842
  954MOL0     H28777   9.183   9.891   9.928  0.8457  0.6114 -2.0609
  954MOL0     H28778   9.373   9.792   9.761  2.4204 -1.0144 -2.4052
  954MOL0     H28779   9.308   9.692   9.898  0.9490 -0.5994  1.1023
  954MOL0     H28780   9.563   9.679   9.735 -2.0435  1.8632 -0.8148
  954MOL0     H28781   9.456   9.552   9.730  1.5534 -1.4882  0.6581
  954MOL0     H28782   9.620   9.625   9.978  0.9958  0.3294 -1.3670
  954MOL0     H28783   9.657   9.481   9.895  0.4343  0.4127  1.4128
  954MOL0     H28784   9.409   9.510  10.057 -0.9049  2.7598 -2.4743
  954MOL0     H28785   9.413   9.402   9.927  0.2163  0.5903 -0.7324
  954MOL0     H28786   9.706   9.215  10.187 -0.2839 -0.0934  0.2881
  954MOL0     H28787   9.562   9.988  10.122  0.1382 -0.4656  1.0156
  954MOL0     H28788   9.471  10.288  10.234  0.3226  1.1395 -0.2494
  954MOL0     H28789   9.414  10.197  10.373 -2.3252  1.0483 -1.2759
  954MOL0     H28790   9.557  10.139  10.296 -1.6934 -0.7825  2.0919
  955MOL0     O28791   6.593   8.836   0.637  0.0093  0.0347  0.8114
  955MOL0     C28792   6.707   8.795   0.621 -1.6426  0.0461 -0.4158
  955MOL0     O28793   6.808   8.796   0.724 -0.1253 -0.1069 -0.0736
  955MOL0     C28794   6.791   8.869   0.828  0.5924 -0.4318 -0.6851
  955MOL0     C28795   6.678   8.853   0.905  0.2050  0.4130 -0.3161
  955MOL0     C28796   6.657   8.932   1.024  0.6017 -0.4101  0.0325
  955MOL0     C28797   6.757   9.023   1.067 -0.5506  0.3174 -0.6024
  955MOL0     O28798   6.735   9.106   1.178 -0.1481  0.5109  0.2791
  955MOL0     C28799   6.769   9.249   1.149  0.1943 -0.4102  0.9601
  955MOL0     C28800   6.697   9.335   1.259  0.4061 -0.2492  0.2647
  955MOL0     C28801   6.576   9.421   1.223  0.5028 -0.8392 -0.2624
  955MOL0     C28802   6.444   9.341   1.203  0.0759  0.0574 -0.6610
  955MOL0     C28803   6.379   9.281   1.329  0.1531  0.7700  0.3352
  955MOL0     C28804   6.326   9.375   1.435 -1.1121  0.4484 -0.4381
  955MOL0     C28805   6.259   9.290   1.536  0.1349 -0.4640 -0.1676
  955MOL0     C28806   6.250   9.358   1.666 -0.7526 -0.6148 -0.4250
  955MOL0     N28807   6.212   9.499   1.675  0.2568 -0.6440  0.0254
  955MOL0     C28808   6.087   9.550   1.658 -0.0795 -0.1426 -0.3175
  955MOL0     C28809   6.104   9.681   1.683 -1.0231 -0.2423  0.3184
  955MOL0     C28810   6.015   9.800   1.652  0.5109  0.1433  0.1268
  955MOL0     C28811   5.935   9.839   1.772 -0.6392  0.4360 -0.3760
  955MOL0     C28812   5.865   9.977   1.753 -0.4864 -0.1604  0.4176
  955MOL0     C28813   5.760   9.996   1.867  0.1672  1.1285 -0.9958
  955MOL0     O28814   5.710  10.133   1.871  0.2908 -0.7631  0.4806
  955MOL0     C28815   5.646  10.194   1.760  0.5795  0.7537  0.0748
  955MOL0     C28816   5.622  10.329   1.774 -0.0430  1.0779  1.0332
  955MOL0     C28817   5.561  10.410   1.682  0.2345 -0.2041  0.5335
  955MOL0     C28818   5.497  10.350   1.568 -0.5690 -0.0258 -0.3409
  955MOL0     C28819   5.429  10.438   1.464 -0.2859 -0.7419  0.2495
  955MOL0     O28820   5.470  10.571   1.459  0.1582  0.5751 -0.0870
  955MOL0     C28821   5.411  10.669   1.371 -0.8085  1.0854 -0.0473
  955MOL0     C28822   5.489  10.778   1.310  0.6811  0.0239 -0.1879
  955MOL0     C28823   5.409  10.881   1.245 -0.0784  1.0191 -0.4191
  955MOL0     C28824   5.268  10.883   1.237  0.1835 -0.1791 -0.9067
  955MOL0     O28825   5.187  10.973   1.167 -0.1568 -0.1397  0.3104
  955MOL0     C28826   5.251  11.096   1.128 -0.2861  1.2904 -0.3783
  955MOL0     C28827   5.141  11.194   1.063  0.4219 -0.1984  0.2562
  955MOL0     C28828   5.082  11.291   1.170  0.5484 -0.0138  0.9357
  955MOL0     C28829   4.941  11.345   1.149  0.2092 -0.2410 -0.5531
  955MOL0     C28830   4.950  11.470   1.068  0.2646 -0.2363  0.2885
  955MOL0     C28831   4.808  11.546   1.049 -0.0166 -0.3872  0.1436
  955MOL0     C28832   4.685  11.453   1.054  0.2148  0.1976 -0.6727
  955MOL0     C28833   4.561  11.540   1.068  0.6002 -0.4711  0.4151
  955MOL0    Cl28834   4.529  11.629   0.916  0.0212  0.3811  0.1152
  955MOL0     C28835   5.209  10.773   1.290 -0.3419  0.8591 -0.5583
  955MOL0     C28836   5.271  10.667   1.350 -0.3092  0.0663 -1.1853
  955MOL0     O28837   5.347  10.380   1.391  0.4295 -0.3345 -0.7653
  955MOL0     C28838   5.525  10.213   1.546 -0.1839 -0.1243  0.7418
  955MOL0     C28839   5.585  10.129   1.645  0.2126  0.6040  0.0459
  955MOL0     N28840   6.237   9.703   1.713  0.1255 -0.8702 -0.9787
  955MOL0     N28841   6.300   9.592   1.708  0.7149 -0.3475  1.0997
  955MOL0     C28842   6.880   9.038   0.989  0.4843  0.5640  0.0759
  955MOL0     C28843   6.895   8.954   0.879  0.3612 -0.3932  0.2879
  955MOL0     C28844   6.741   8.744   0.490  0.2987  1.0417 -0.1613
  955MOL0     C28845   6.878   8.703   0.464 -0.4931  0.0973  0.4379
  955MOL0     C28846   6.919   8.660   0.331 -0.8529  0.5121  0.8864
  955MOL0     C28847   6.825   8.640   0.225 -0.0020  0.0998 -1.3035
  955MOL0     O28848   6.846   8.581   0.102  0.6421  0.0246 -0.2798
  955MOL0     C28849   6.982   8.531   0.084 -0.3703  0.1570 -1.2036
  955MOL0     C28850   6.981   8.457  -0.046 -0.4418 -0.3892 -0.0735
  955MOL0     C28851   6.980   8.534  -0.176  0.4276  0.3454  0.8665
  955MOL0     C28852   6.968   8.443  -0.299  0.4920  0.4541  0.1135
  955MOL0     C28853   6.944   8.515  -0.425  0.6774 -0.3596  0.3116
  955MOL0     C28854   6.911   8.575  -0.529 -0.5332 -1.0349 -1.1605
  955MOL0     C28855   6.694   8.683   0.256  0.1889 -1.1277  0.6597
  955MOL0     C28856   6.647   8.738   0.378  0.0299  0.1630  0.4464
  955MOL0     C28857   6.494   8.755   0.389 -0.8022 -0.2436 -0.4525
  955MOL0     H28858   6.605   8.777   0.878  0.4270 -0.1953  0.7494
  955MOL0     H28859   6.569   8.912   1.084  0.8422 -4.4772 -0.6604
  955MOL0     H28860   6.878   9.263   1.148  0.3499 -1.3433  1.9844
  955MOL0     H28861   6.721   9.268   1.053 -0.4622 -2.9295  0.7252
  955MOL0     H28862   6.775   9.401   1.296 -0.3020  2.7811 -3.0708
  955MOL0     H28863   6.650   9.270   1.334  0.0950  0.0641  0.3440
  955MOL0     H28864   6.606   9.462   1.126 -3.4246  3.0693 -0.1262
  955MOL0     H28865   6.558   9.496   1.300  4.1501  0.3057 -0.3588
  955MOL0     H28866   6.367   9.409   1.165  1.9138  2.0600 -0.9955
  955MOL0     H28867   6.455   9.271   1.119  0.8479 -2.7068  1.6048
  955MOL0     H28868   6.295   9.222   1.290 -0.5028  2.0828 -0.3119
  955MOL0     H28869   6.457   9.214   1.367 -1.5909 -1.3383  0.4086
  955MOL0     H28870   6.409   9.432   1.477 -1.2152  0.2812  0.0002
  955MOL0     H28871   6.246   9.437   1.394 -1.4378 -0.6844 -1.5908
  955MOL0     H28872   6.315   9.197   1.552 -1.8915 -1.9010 -0.9820
  955MOL0     H28873   6.160   9.265   1.500  0.9589  2.0046 -4.9367
  955MOL0     H28874   6.178   9.314   1.736 -0.3251  2.8218  2.5160
  955MOL0     H28875   6.351   9.350   1.706 -0.9623 -0.5553  0.1318
  955MOL0     H28876   5.998   9.491   1.637 -1.5904  0.9749  2.4410
  955MOL0     H28877   6.078   9.883   1.619 -1.1108  1.3675  0.0003
  955MOL0     H28878   5.949   9.770   1.570 -1.8114  2.9449  0.8309
  955MOL0     H28879   5.863   9.758   1.787 -0.4206  0.7836  3.2640
  955MOL0     H28880   5.993   9.839   1.864  1.0300  0.9838 -1.3882
  955MOL0     H28881   5.827  10.007   1.655 -0.1440  1.0070  0.6312
  955MOL0     H28882   5.946  10.049   1.766 -1.2803  0.8050  0.1494
  955MOL0     H28883   5.797   9.960   1.963 -1.0724  0.5793 -0.7039
  955MOL0     H28884   5.671   9.935   1.848 -0.0030  0.9253  0.4019
  955MOL0     H28885   5.676  10.376   1.856 -0.2809  0.1064  1.7636
  955MOL0     H28886   5.557  10.516   1.706  0.4137  0.1357 -0.8935
  955MOL0     H28887   5.598  10.781   1.308  0.7095 -0.4604  0.3848
  955MOL0     H28888   5.457  10.961   1.189 -1.3219 -0.5479 -3.9857
  955MOL0     H28889   5.310  11.151   1.202  0.3495 -0.2715  0.2979
  955MOL0     H28890   5.321  11.078   1.046 -2.9680 -1.7202 -2.2571
  955MOL0     H28891   5.199  11.259   0.997 -0.4419  1.0388  0.6776
  955MOL0     H28892   5.069  11.132   1.009  0.4121  0.4220 -0.4566
  955MOL0     H28893   5.076  11.248   1.271 -0.3295  1.9540  1.7779
  955MOL0     H28894   5.152  11.372   1.189  2.3069 -1.0039 -0.9670
  955MOL0     H28895   4.908  11.386   1.244 -0.7680  0.2699 -1.1005
  955MOL0     H28896   4.877  11.268   1.104  2.0625 -0.5431 -2.9039
  955MOL0     H28897   4.997  11.435   0.975  0.9744 -0.9977  0.9268
  955MOL0     H28898   5.022  11.546   1.100  3.5392 -2.5071 -1.1050
  955MOL0     H28899   4.797  11.601   1.143 -0.5240 -0.0900 -0.0854
  955MOL0     H28900   4.813  11.613   0.963 -1.0803  0.5162  0.7701
  955MOL0     H28901   4.682  11.402   1.150 -1.7111  1.4461 -0.0204
  955MOL0     H28902   4.664  11.383   0.973 -2.4112 -1.2706  1.1332
  955MOL0     H28903   4.471  11.479   1.079  0.2019 -0.0759 -0.5580
  955MOL0     H28904   4.568  11.610   1.151  1.4533 -1.0244  0.8262
  955MOL0     H28905   5.104  10.757   1.269 -0.1052 -0.0464 -1.1373
  955MOL0     H28906   5.212  10.582   1.383 -0.1022 -0.2192 -1.5432
  955MOL0     H28907   5.486  10.163   1.458  1.0421 -0.1960  0.2134
  955MOL0     H28908   5.597  10.027   1.609  1.5835  1.2919 -1.5786
  955MOL0     H28909   6.959   9.104   1.023  1.0484 -1.0905  2.2139
  955MOL0     H28910   6.983   8.957   0.816 -0.3334  2.2682 -0.7123
  955MOL0     H28911   6.962   8.710   0.533  2.3425 -0.3614 -2.7457
  955MOL0     H28912   7.024   8.634   0.317 -0.7303  1.2029  0.4600
  955MOL0     H28913   7.004   8.464   0.167 -0.7624  1.2568 -0.1851
  955MOL0     H28914   7.059   8.608   0.086  0.7687 -0.9717 -0.4226
  955MOL0     H28915   6.893   8.392  -0.052 -0.8944 -0.0540  2.1465
  955MOL0     H28916   7.060   8.382  -0.041 -1.9648 -2.0760 -0.3324
  955MOL0     H28917   7.070   8.594  -0.192  1.5435 -1.3948  0.2632
  955MOL0     H28918   6.900   8.608  -0.171  0.3909  0.2146  2.9238
  955MOL0     H28919   7.063   8.389  -0.304  1.4466  1.3253  4.5956
  955MOL0     H28920   6.885   8.374  -0.289  0.3590  0.4773 -0.7765
  955MOL0     H28921   6.873   8.620  -0.618 -2.0555 -0.6884 -0.3692
  955MOL0     H28922   6.614   8.668   0.183 -1.5511 -0.7992  2.4074
  955MOL0     H28923   6.448   8.705   0.475  2.0919 -0.8011  0.8806
  955MOL0     H28924   6.459   8.859   0.395  1.7142  0.6182  0.9599
  955MOL0     H28925   6.440   8.708   0.306 -3.7736  4.7693 -1.8125
  956MOL0     O28926  11.438   1.364   4.365 -0.1558  0.0236 -0.6839
  956MOL0     C28927  11.399   1.402   4.263 -0.6805  0.8595  1.1232
  956MOL0     O28928  11.445   1.349   4.143  0.1653  0.5941  0.1899
  956MOL0     C28929  11.565   1.286   4.137 -0.2997 -0.3947  0.2492
  956MOL0     C28930  11.687   1.352   4.159 -1.0420  0.2561 -1.2324
  956MOL0     C28931  11.810   1.280   4.156  0.1067 -0.0288  1.0548
  956MOL0     C28932  11.807   1.138   4.122  0.8692  0.9414 -0.5261
  956MOL0     O28933  11.917   1.060   4.120  0.2187  0.4968 -0.6171
  956MOL0     C28934  12.038   1.094   4.186 -0.9598  0.6156 -0.0816
  956MOL0     C28935  12.143   1.017   4.120 -0.0500  0.0522  0.2814
  956MOL0     C28936  12.153   1.039   3.973  0.2321  0.5379  0.0842
  956MOL0     C28937  12.284   0.989   3.909 -0.2848  0.6641  0.2911
  956MOL0     C28938  12.301   0.842   3.904  0.8817 -0.2673  0.5794
  956MOL0     C28939  12.430   0.781   3.825 -0.0294  0.5565  0.0658
  956MOL0     C28940  12.562   0.806   3.888  0.3632  0.2528 -0.2602
  956MOL0     C28941  12.680   0.811   3.783  0.9878  0.1880  0.7204
  956MOL0     N28942  12.702   0.685   3.694  0.2598  0.0185  1.2447
  956MOL0     C28943  12.699   0.678   3.555  0.1850 -0.8408  0.4048
  956MOL0     C28944  12.731   0.547   3.518 -0.3872  0.8689  0.5023
  956MOL0     C28945  12.746   0.475   3.389 -0.3442 -1.1700 -0.3437
  956MOL0     C28946  12.846   0.358   3.394  0.8776  0.1038  0.2308
  956MOL0     C28947  12.885   0.314   3.256 -0.2910 -0.0327 -1.3903
  956MOL0     C28948  12.997   0.201   3.245  0.0986  0.1062 -0.2265
  956MOL0     O28949  12.998   0.138   3.120 -0.0975  0.9357 -0.0504
  956MOL0     C28950  12.919   0.025   3.112 -0.2715  0.7480  0.2034
  956MOL0     C28951  12.832  -0.029   3.204  0.3224 -0.2663 -0.6788
  956MOL0     C28952  12.774  -0.158   3.182  0.8810 -0.1470  0.4911
  956MOL0     C28953  12.793  -0.225   3.059  0.3284  0.1495 -0.2549
  956MOL0     C28954  12.721  -0.351   3.032  0.0453  1.1069  0.2497
  956MOL0     O28955  12.631  -0.399   3.127 -0.6139 -0.1314 -0.3184
  956MOL0     C28956  12.578  -0.529   3.122  1.3196 -1.0010 -0.4066
  956MOL0     C28957  12.645  -0.643   3.159  0.4092 -0.7841 -0.0825
  956MOL0     C28958  12.581  -0.761   3.138  0.0637 -0.0547  0.3465
  956MOL0     C28959  12.446  -0.765   3.083 -0.9847  0.1834 -0.1024
  956MOL0     O28960  12.418  -0.892   3.047  0.3035 -0.4295  0.0027
  956MOL0     C28961  12.285  -0.914   3.012 -0.2289 -0.5489 -0.4032
  956MOL0     C28962  12.274  -1.058   2.989  0.2772  0.3742  0.1522
  956MOL0     C28963  12.242  -1.146   3.117 -0.0438  0.1144  0.6184
  956MOL0     C28964  12.202  -1.287   3.090  0.6462 -0.1532  0.3830
  956MOL0     C28965  12.055  -1.310   3.079 -0.5668  0.2019 -0.2490
  956MOL0     C28966  11.983  -1.281   3.212  0.1669  0.6917 -0.4279
  956MOL0     C28967  11.838  -1.308   3.170 -0.7574  0.3516 -1.1993
  956MOL0     C28968  11.740  -1.258   3.279  0.0296  0.3222 -0.2316
  956MOL0    Cl28969  11.593  -1.366   3.269 -0.0173  0.0919 -0.1678
  956MOL0     C28970  12.384  -0.653   3.052 -0.1724 -0.1006 -0.9189
  956MOL0     C28971  12.450  -0.533   3.074  0.0563  0.6397 -0.1170
  956MOL0     O28972  12.757  -0.420   2.930 -0.5102  0.0531 -0.4908
  956MOL0     C28973  12.871  -0.163   2.956  1.2546 -0.0303 -0.7639
  956MOL0     C28974  12.937  -0.046   2.992  0.6117 -0.2086  0.0627
  956MOL0     N28975  12.733   0.477   3.640  0.7334  0.5561  0.6486
  956MOL0     N28976  12.723   0.560   3.738  0.1882 -0.2666 -0.5099
  956MOL0     C28977  11.686   1.082   4.096  0.7893 -0.7751  1.4563
  956MOL0     C28978  11.569   1.150   4.102  0.0328 -0.4728 -0.4466
  956MOL0     C28979  11.275   1.486   4.267  0.1131 -0.6071  0.4180
  956MOL0     C28980  11.160   1.434   4.214 -0.8574 -0.7913  0.3783
  956MOL0     C28981  11.051   1.515   4.190  0.2816 -0.5623 -0.1534
  956MOL0     C28982  11.045   1.647   4.236 -0.9873 -1.5717  0.3509
  956MOL0     O28983  10.932   1.723   4.219 -0.0253 -0.2435  0.0276
  956MOL0     C28984  10.919   1.775   4.090  0.9971 -0.6236 -0.0591
  956MOL0     C28985  10.983   1.913   4.102 -0.0914 -1.0390 -0.3765
  956MOL0     C28986  10.931   2.014   3.995  0.6724  0.0738 -0.1512
  956MOL0     C28987  10.781   2.055   4.026  0.9252 -0.4253  0.4942
  956MOL0     C28988  10.732   2.109   3.903 -1.0128 -0.0584  0.3720
  956MOL0     C28989  10.704   2.163   3.799 -0.1722 -0.3277 -0.1217
  956MOL0     C28990  11.159   1.703   4.295 -0.3340 -0.3391 -0.0992
  956MOL0     C28991  11.275   1.626   4.299  0.6879  0.7027 -0.0878
  956MOL0     C28992  11.396   1.704   4.348  0.0393  0.6310 -0.2557
  956MOL0     H28993  11.676   1.460   4.168 -3.8568  0.2800 -3.4525
  956MOL0     H28994  11.900   1.338   4.173 -0.6428  1.5657 -0.1704
  956MOL0     H28995  12.063   1.200   4.184  0.4450  0.3027 -0.5874
  956MOL0     H28996  12.041   1.073   4.293  4.3040  3.1188  0.6084
  956MOL0     H28997  12.123   0.911   4.130  1.4396 -0.2341  0.4547
  956MOL0     H28998  12.237   1.034   4.174  0.2980  1.8390 -0.7827
  956MOL0     H28999  12.127   1.142   3.946 -0.7552  0.1372 -0.6002
  956MOL0     H29000  12.071   0.979   3.932 -0.6320 -0.5034  3.0620
  956MOL0     H29001  12.285   1.029   3.807  0.9699  0.4397  0.2067
  956MOL0     H29002  12.374   1.023   3.961 -0.8984  2.3312  0.3368
  956MOL0     H29003  12.295   0.807   4.007 -1.1103 -1.6614  0.0448
  956MOL0     H29004  12.213   0.797   3.858  1.6485  0.3923 -1.6574
  956MOL0     H29005  12.404   0.678   3.797  0.2185  0.6860 -0.6736
  956MOL0     H29006  12.430   0.830   3.727 -2.3824  2.5879  0.9697
  956MOL0     H29007  12.581   0.718   3.950  0.4552  0.0624 -0.5560
  956MOL0     H29008  12.554   0.888   3.960 -0.4440 -1.4354  1.6886
  956MOL0     H29009  12.657   0.891   3.712 -0.9280 -0.4330  0.5922
  956MOL0     H29010  12.773   0.836   3.835 -0.0018  0.8441  2.2456
  956MOL0     H29011  12.686   0.765   3.493  0.8021  2.1730  4.1072
  956MOL0     H29012  12.648   0.447   3.350 -0.9453  2.0723 -1.4570
  956MOL0     H29013  12.777   0.549   3.315 -0.3684  0.2059  0.9635
  956MOL0     H29014  12.937   0.392   3.444  0.7813  0.4812  0.1469
  956MOL0     H29015  12.808   0.283   3.465 -1.9617  0.5751 -0.6541
  956MOL0     H29016  12.915   0.399   3.194  0.5923 -1.6279 -3.2693
  956MOL0     H29017  12.798   0.268   3.209 -0.5883 -1.1828  0.1925
  956MOL0     H29018  12.991   0.126   3.325  1.1275 -0.3076 -0.5161
  956MOL0     H29019  13.095   0.250   3.251  1.7298 -3.0016  1.3034
  956MOL0     H29020  12.813   0.023   3.297  0.4530 -1.4537  0.0293
  956MOL0     H29021  12.711  -0.194   3.262 -0.1924  1.2329  0.2993
  956MOL0     H29022  12.743  -0.630   3.204  0.3681  1.7757 -0.6084
  956MOL0     H29023  12.621  -0.860   3.155  2.8413  1.3641  2.7847
  956MOL0     H29024  12.205  -0.877   3.078  0.9383 -0.3615  0.9507
  956MOL0     H29025  12.277  -0.861   2.917  1.9956  0.5309 -0.0410
  956MOL0     H29026  12.187  -1.075   2.925  0.3330  1.3798 -0.2127
  956MOL0     H29027  12.362  -1.099   2.937 -1.5569 -1.5116 -1.6911
  956MOL0     H29028  12.324  -1.143   3.189  0.5792  1.3628 -0.1329
  956MOL0     H29029  12.170  -1.089   3.177  0.8839  0.7228  1.1653
  956MOL0     H29030  12.243  -1.352   3.168 -0.9537 -1.6239  0.0501
  956MOL0     H29031  12.252  -1.321   2.999 -0.0592  1.8143 -0.7913
  956MOL0     H29032  12.049  -1.417   3.056  1.3396  0.0331 -0.0789
  956MOL0     H29033  12.010  -1.251   2.998 -0.2405 -0.8921 -1.2593
  956MOL0     H29034  12.013  -1.350   3.291  1.9394  3.2848  1.3043
  956MOL0     H29035  11.999  -1.175   3.234 -0.8582  1.3902 -2.6676
  956MOL0     H29036  11.817  -1.414   3.155 -0.9201  0.1396  0.3224
  956MOL0     H29037  11.808  -1.259   3.077  2.7720  1.8403 -1.7005
  956MOL0     H29038  11.780  -1.256   3.381  0.2956  2.6015 -0.3299
  956MOL0     H29039  11.701  -1.156   3.273 -4.0645 -0.9735  1.0425
  956MOL0     H29040  12.282  -0.661   3.016  0.2582 -3.7772 -1.6795
  956MOL0     H29041  12.394  -0.444   3.050 -2.3305 -0.7219  0.1006
  956MOL0     H29042  12.883  -0.199   2.855 -4.6511 -0.7923 -1.5617
  956MOL0     H29043  12.989   0.003   2.911  0.5950  3.2292  1.9160
  956MOL0     H29044  11.691   0.979   4.062  1.0664  0.4768 -2.9023
  956MOL0     H29045  11.473   1.112   4.071  0.1755 -2.2744  1.1180
  956MOL0     H29046  11.146   1.332   4.179 -2.9575 -0.4910  0.2350
  956MOL0     H29047  10.967   1.467   4.141 -0.9020  0.9366  0.3030
  956MOL0     H29048  10.813   1.776   4.064  1.2138 -1.1645 -1.0266
  956MOL0     H29049  10.975   1.715   4.018  0.7986 -1.2277  0.2935
  956MOL0     H29050  11.091   1.900   4.101 -0.0652 -0.8234 -0.2564
  956MOL0     H29051  10.956   1.952   4.201  4.0480  1.8799 -0.1859
  956MOL0     H29052  10.956   1.973   3.897  0.3743 -4.8037  1.5760
  956MOL0     H29053  10.988   2.106   4.010 -1.1147  1.4658 -1.4651
  956MOL0     H29054  10.724   1.974   4.071 -2.6664  1.5419 -0.1735
  956MOL0     H29055  10.773   2.129   4.106  1.0985 -0.9264  0.9837
  956MOL0     H29056  10.678   2.217   3.710  2.1741 -0.7857 -1.1806
  956MOL0     H29057  11.156   1.808   4.324 -0.2666 -0.2661 -0.3594
  956MOL0     H29058  11.429   1.772   4.269  1.6554  1.6697  1.2593
  956MOL0     H29059  11.375   1.774   4.429  1.2924  1.8566 -0.9694
  956MOL0     H29060  11.479   1.639   4.377 -0.9122 -0.2228  0.6341
  957MOL0     O29061   3.315   4.001   8.413 -0.0394  0.0169  0.1975
  957MOL0     C29062   3.393   3.956   8.496  0.0716 -1.2652 -0.4576
  957MOL0     O29063   3.358   3.924   8.625 -0.5444 -0.0041 -0.6750
  957MOL0     C29064   3.229   3.958   8.658 -0.2080 -0.1095  0.0518
  957MOL0     C29065   3.203   4.066   8.743 -0.7074 -0.1032  0.2925
  957MOL0     C29066   3.076   4.114   8.781  0.5630  0.6138 -0.0407
  957MOL0     C29067   2.958   4.042   8.736  0.8194 -0.1522  1.2663
  957MOL0     O29068   2.843   4.097   8.775 -0.3057 -0.8197  0.4657
  957MOL0     C29069   2.728   4.017   8.737  0.4587  0.1574  0.3550
  957MOL0     C29070   2.602   4.069   8.804  0.2489 -0.7276  1.6533
  957MOL0     C29071   2.574   4.219   8.766  0.6047 -1.1721  0.4672
  957MOL0     C29072   2.439   4.273   8.811 -0.3111  0.0631 -0.0740
  957MOL0     C29073   2.439   4.285   8.972 -0.0390  0.5530  0.7769
  957MOL0     C29074   2.524   4.405   9.016  0.4849 -0.0610  0.9809
  957MOL0     C29075   2.604   4.397   9.145  0.0067 -0.2512 -0.5806
  957MOL0     C29076   2.729   4.306   9.137  1.0103  0.2018 -1.1052
  957MOL0     N29077   2.850   4.384   9.119  0.3145  0.0115  0.6752
  957MOL0     C29078   2.877   4.501   9.048  0.8199  0.0009 -0.7224
  957MOL0     C29079   3.010   4.511   9.048 -0.3447  0.1953 -0.5887
  957MOL0     C29080   3.070   4.622   8.969  0.0600 -0.3147 -0.5643
  957MOL0     C29081   3.101   4.593   8.824  0.2255  0.8127  0.1935
  957MOL0     C29082   2.990   4.642   8.715 -0.3033  0.6794 -0.0541
  957MOL0     C29083   3.058   4.647   8.583  0.2092 -0.3846 -0.3788
  957MOL0     O29084   3.107   4.521   8.529  0.2544 -0.7429 -0.3620
  957MOL0     C29085   3.033   4.454   8.439 -0.2996 -0.6507  0.8435
  957MOL0     C29086   2.979   4.510   8.320 -0.0512  0.2472  0.0953
  957MOL0     C29087   2.910   4.430   8.233  1.1052 -0.6288 -0.3338
  957MOL0     C29088   2.893   4.297   8.246 -0.3012 -0.0721  0.1113
  957MOL0     C29089   2.827   4.206   8.145 -1.0576 -0.7294 -0.2148
  957MOL0     O29090   2.843   4.078   8.175 -0.9681  0.4965  0.5457
  957MOL0     C29091   2.768   3.970   8.134 -0.6520 -0.1928  0.6337
  957MOL0     C29092   2.642   3.965   8.073 -0.2590 -0.0338 -0.0646
  957MOL0     C29093   2.594   3.842   8.032 -0.1540  0.4563 -0.3435
  957MOL0     C29094   2.655   3.715   8.063  0.6160  0.7776 -0.6124
  957MOL0     O29095   2.595   3.595   8.027  0.0128 -0.1444 -0.0781
  957MOL0     C29096   2.660   3.466   8.056  0.1171  0.5221 -0.3023
  957MOL0     C29097   2.613   3.432   8.193 -0.1313 -0.2216  0.2491
  957MOL0     C29098   2.467   3.412   8.202  0.3833  0.5591 -0.3950
  957MOL0     C29099   2.412   3.355   8.340  0.5067 -0.0642 -0.0830
  957MOL0     C29100   2.261   3.359   8.352  0.0131  0.7885 -0.5113
  957MOL0     C29101   2.213   3.256   8.448  0.3392 -0.8269 -0.6312
  957MOL0     C29102   2.068   3.289   8.496 -0.6072 -0.3437  0.7953
  957MOL0     C29103   2.036   3.357   8.633 -0.3387  0.1599  0.2096
  957MOL0    Cl29104   2.139   3.318   8.781  0.1210  0.2837  0.0022
  957MOL0     C29105   2.775   3.719   8.130 -0.3782 -0.3418  0.1069
  957MOL0     C29106   2.826   3.842   8.161  0.1255  0.1051  0.1395
  957MOL0     O29107   2.765   4.254   8.049  0.1946  0.1117 -0.0892
  957MOL0     C29108   2.937   4.243   8.369  0.0570 -0.1071 -0.7502
  957MOL0     C29109   2.993   4.319   8.475 -0.3227 -0.7595  0.2965
  957MOL0     N29110   3.068   4.385   9.084 -0.2947 -0.0874 -0.0090
  957MOL0     N29111   2.976   4.317   9.135 -0.0838  0.2480 -0.5994
  957MOL0     C29112   2.978   3.918   8.658  0.9928  0.0904  0.3240
  957MOL0     C29113   3.114   3.887   8.618  0.1924  0.3238 -0.0502
  957MOL0     C29114   3.522   3.927   8.446 -0.5023 -1.1319 -1.0141
  957MOL0     C29115   3.539   3.866   8.322  0.0279  1.1828 -0.7428
  957MOL0     C29116   3.657   3.828   8.277 -0.3626  0.5357 -0.2735
  957MOL0     C29117   3.767   3.851   8.350 -0.5075 -0.1878 -0.3856
  957MOL0     O29118   3.895   3.816   8.302 -0.1315 -0.1477  0.0547
  957MOL0     C29119   4.018   3.883   8.339  0.6591 -0.6965 -0.0017
  957MOL0     C29120   4.120   3.878   8.229  0.4350 -0.0302  1.5306
  957MOL0     C29121   4.089   3.920   8.088  0.6739 -0.7109  0.8933
  957MOL0     C29122   4.123   4.064   8.076 -0.1645 -1.1005 -1.0745
  957MOL0     C29123   4.058   4.113   7.951 -1.0958 -0.0436  0.1277
  957MOL0     C29124   3.979   4.139   7.858  0.0965 -0.9108 -0.3661
  957MOL0     C29125   3.759   3.926   8.466  0.3472 -0.1052 -0.3731
  957MOL0     C29126   3.640   3.959   8.521  0.1964  0.1997  0.6258
  957MOL0     C29127   3.637   4.036   8.647  0.5557  0.4127 -0.2832
  957MOL0     H29128   3.294   4.104   8.789 -1.3523  1.4309  0.3573
  957MOL0     H29129   3.059   4.198   8.848 -1.4404 -1.6115  2.4425
  957MOL0     H29130   2.717   4.017   8.628 -0.3055 -0.9603  0.4165
  957MOL0     H29131   2.741   3.916   8.776  1.4511  0.2806  0.3566
  957MOL0     H29132   2.635   4.065   8.908 -1.4631  0.5985  2.2822
  957MOL0     H29133   2.511   4.009   8.805 -1.0488  1.0543 -0.2133
  957MOL0     H29134   2.576   4.227   8.657  1.3784 -0.5559  0.5132
  957MOL0     H29135   2.653   4.293   8.784  2.7951 -2.9332 -1.2407
  957MOL0     H29136   2.404   4.362   8.758 -2.1265 -0.6968 -0.2270
  957MOL0     H29137   2.369   4.190   8.793  0.6608 -0.8012  0.0052
  957MOL0     H29138   2.338   4.302   9.012 -0.1445  0.4622  0.5493
  957MOL0     H29139   2.470   4.194   9.023 -1.8996  1.2737  3.4560
  957MOL0     H29140   2.585   4.437   8.931 -1.3544 -0.5519 -0.6149
  957MOL0     H29141   2.453   4.486   9.033  0.8444  0.5069 -0.1127
  957MOL0     H29142   2.539   4.367   9.228  0.8811  2.7847  1.3665
  957MOL0     H29143   2.630   4.500   9.168 -1.9815  0.1788 -0.0924
  957MOL0     H29144   2.742   4.237   9.221  0.7278 -0.2699 -1.4449
  957MOL0     H29145   2.733   4.253   9.041  2.2878  0.2773 -1.1188
  957MOL0     H29146   2.803   4.572   9.015 -0.8156 -1.3625 -0.1172
  957MOL0     H29147   2.997   4.703   8.973  0.7054  0.2703 -0.5936
  957MOL0     H29148   3.160   4.654   9.023 -0.5167 -1.3441  1.0895
  957MOL0     H29149   3.200   4.628   8.792  0.2923 -1.7359 -2.9931
  957MOL0     H29150   3.103   4.484   8.821 -0.7293  0.7901  0.2169
  957MOL0     H29151   2.940   4.735   8.742 -3.6999 -0.1375 -2.7783
  957MOL0     H29152   2.911   4.567   8.724  0.2774  0.3023  2.6416
  957MOL0     H29153   3.151   4.704   8.589 -0.7736  1.7577 -3.2831
  957MOL0     H29154   2.988   4.702   8.519  1.9395 -0.2009 -2.2072
  957MOL0     H29155   3.007   4.614   8.302 -1.2771  0.3222 -1.5507
  957MOL0     H29156   2.871   4.476   8.143 -1.0537  0.9229  1.2828
  957MOL0     H29157   2.583   4.055   8.057 -0.0908  0.3787  1.4702
  957MOL0     H29158   2.499   3.842   7.980 -0.7299 -1.5135  0.5897
  957MOL0     H29159   2.634   3.392   7.979  4.1494 -1.1468 -0.3332
  957MOL0     H29160   2.769   3.467   8.044  0.5254  2.0918  2.6828
  957MOL0     H29161   2.664   3.343   8.232  1.9049  0.2768 -1.1241
  957MOL0     H29162   2.653   3.510   8.260  0.3521 -0.1696 -0.0924
  957MOL0     H29163   2.420   3.506   8.173  1.3701  0.7746 -1.3555
  957MOL0     H29164   2.450   3.334   8.127 -2.7843  1.8909 -1.2162
  957MOL0     H29165   2.457   3.407   8.425 -2.5522  0.4859  1.3381
  957MOL0     H29166   2.441   3.251   8.356 -3.8439 -1.6450 -1.0886
  957MOL0     H29167   2.220   3.337   8.253  0.0804 -3.1895  0.2018
  957MOL0     H29168   2.241   3.464   8.374  1.5442  0.7715  1.1728
  957MOL0     H29169   2.212   3.155   8.408  2.6291  0.0630 -3.2668
  957MOL0     H29170   2.283   3.250   8.531  2.3688 -0.1322 -2.2065
  957MOL0     H29171   2.010   3.200   8.523 -0.6731 -0.4004  0.4738
  957MOL0     H29172   2.016   3.335   8.410 -0.4691 -1.8553 -0.1271
  957MOL0     H29173   2.037   3.465   8.614  0.7246  0.6053  2.3763
  957MOL0     H29174   1.934   3.337   8.666  0.0565 -2.7694 -0.0490
  957MOL0     H29175   2.845   3.637   8.142 -1.4004 -1.1999  0.3244
  957MOL0     H29176   2.932   3.846   8.183  0.5184  0.1841 -1.5956
  957MOL0     H29177   2.902   4.147   8.406 -0.9533  1.4933  3.0330
  957MOL0     H29178   3.022   4.285   8.574  3.5867 -3.0065 -1.3835
  957MOL0     H29179   2.903   3.853   8.613  0.4525  1.5768 -1.0080
  957MOL0     H29180   3.129   3.798   8.559 -0.4886 -2.3718  3.5126
  957MOL0     H29181   3.455   3.842   8.257 -1.5966  0.0718  1.6245
  957MOL0     H29182   3.681   3.761   8.195  3.8145 -0.8445  1.7355
  957MOL0     H29183   4.062   3.829   8.424  2.7129 -0.6449 -0.9586
  957MOL0     H29184   3.998   3.985   8.370 -2.5105  0.0017 -3.5086
  957MOL0     H29185   4.144   3.772   8.226 -1.5017 -0.4887  0.5262
  957MOL0     H29186   4.208   3.930   8.268 -0.3342  0.5009  2.6021
  957MOL0     H29187   3.982   3.908   8.069  1.0455  0.5758 -2.8162
  957MOL0     H29188   4.149   3.868   8.013 -0.9693 -1.5586  0.1118
  957MOL0     H29189   4.104   4.120   8.169 -0.0542  0.0477 -1.7194
  957MOL0     H29190   4.232   4.075   8.068 -0.3826  2.5739 -0.8809
  957MOL0     H29191   3.895   4.182   7.809  1.0049  0.4375 -0.8079
  957MOL0     H29192   3.846   3.952   8.526 -0.7741  0.8152  0.9359
  957MOL0     H29193   3.602   4.137   8.621  2.1466  1.4821  1.4428
  957MOL0     H29194   3.567   4.001   8.723 -1.3835  0.8944 -1.7644
  957MOL0     H29195   3.740   4.050   8.683  0.8750  0.3966 -1.1569
  958MOL0     O29196   6.988   1.445   6.486  1.0206 -0.5128  0.8102
  958MOL0     C29197   7.036   1.555   6.507 -0.2255 -0.0689 -0.1684
  958MOL0     O29198   7.025   1.621   6.623  0.0394 -0.2215 -0.0695
  958MOL0     C29199   6.977   1.566   6.732 -0.4035  0.6807 -0.6896
  958MOL0     C29200   7.020   1.445   6.792  0.0641  0.2949  1.1698
  958MOL0     C29201   6.975   1.389   6.906  0.3162  0.5014 -0.0047
  958MOL0     C29202   6.865   1.443   6.963  0.2400 -0.4649  1.0288
  958MOL0     O29203   6.793   1.364   7.056 -0.4447 -1.3424 -0.2057
  958MOL0     C29204   6.708   1.438   7.141  0.1994  0.3997  0.0568
  958MOL0     C29205   6.649   1.360   7.262  1.2400  0.8513  0.5143
  958MOL0     C29206   6.524   1.272   7.208 -0.4046  0.1278 -0.7623
  958MOL0     C29207   6.437   1.223   7.324 -1.1646  1.6236  1.2401
  958MOL0     C29208   6.331   1.119   7.271  0.5827 -0.4067 -0.9947
  958MOL0     C29209   6.235   1.090   7.393 -0.3154 -0.4238  0.7415
  958MOL0     C29210   6.119   0.994   7.346  0.3725  0.2155  0.0521
  958MOL0     C29211   6.113   0.908   7.466  0.9535  0.8792 -0.2618
  958MOL0     N29212   6.008   0.808   7.442 -0.7883 -0.8190  0.1132
  958MOL0     C29213   5.944   0.759   7.552 -0.0768 -0.1160 -0.8786
  958MOL0     C29214   5.842   0.690   7.494 -0.1810 -0.0689 -0.3839
  958MOL0     C29215   5.761   0.603   7.584  0.5632 -0.2484  0.0387
  958MOL0     C29216   5.739   0.464   7.526 -0.1022 -0.0627  0.8886
  958MOL0     C29217   5.649   0.377   7.625  0.2461 -0.0166  0.3063
  958MOL0     C29218   5.517   0.448   7.642  0.2011  0.4056 -0.1405
  958MOL0     O29219   5.421   0.355   7.701 -0.4358 -0.1006  0.1838
  958MOL0     C29220   5.344   0.279   7.610 -0.2568  0.4579 -0.5903
  958MOL0     C29221   5.331   0.145   7.654 -0.5620  0.5537 -0.3250
  958MOL0     C29222   5.254   0.058   7.575 -0.1793  0.0823 -0.5682
  958MOL0     C29223   5.217   0.092   7.442 -0.2727 -0.4770  0.1730
  958MOL0     C29224   5.131  -0.007   7.371 -1.4993 -0.3512  0.3093
  958MOL0     O29225   5.050   0.028   7.267 -0.2929  0.6461 -0.5514
  958MOL0     C29226   5.003  -0.064   7.187 -0.4421  1.1076 -0.2295
  958MOL0     C29227   5.071  -0.180   7.143 -0.3458  0.4246  0.7041
  958MOL0     C29228   5.006  -0.266   7.046 -0.2013  0.2751  0.1933
  958MOL0     C29229   4.878  -0.240   6.999  0.6039  0.1154 -0.6972
  958MOL0     O29230   4.819  -0.318   6.900  0.9274 -0.6798 -0.3240
  958MOL0     C29231   4.717  -0.269   6.809  0.3188 -0.2803 -0.1628
  958MOL0     C29232   4.787  -0.263   6.671 -0.5133  0.2985 -0.0885
  958MOL0     C29233   4.897  -0.160   6.668  1.2192 -0.3143 -0.0817
  958MOL0     C29234   4.849  -0.014   6.639 -0.3375 -0.0744  0.7355
  958MOL0     C29235   4.927   0.090   6.702  0.5375  1.5415 -0.2216
  958MOL0     C29236   4.875   0.229   6.672 -0.5603  0.8497  0.6792
  958MOL0     C29237   4.952   0.330   6.759  0.8467 -0.0415 -0.3008
  958MOL0     C29238   4.885   0.374   6.895  0.6623 -0.6834  0.2389
  958MOL0    Cl29239   4.867   0.245   7.013  0.5533  0.2954 -0.5076
  958MOL0     C29240   4.823  -0.119   7.045  0.2671  0.3205  0.6899
  958MOL0     C29241   4.871  -0.046   7.145 -0.0357  0.0239 -0.0731
  958MOL0     O29242   5.161  -0.124   7.404 -0.5243 -0.6539 -0.5673
  958MOL0     C29243   5.242   0.227   7.400  0.1340  0.3836  0.4662
  958MOL0     C29244   5.297   0.322   7.482  0.4985  0.3673 -0.3479
  958MOL0     N29245   5.834   0.708   7.360 -0.3739 -0.2591 -0.4165
  958MOL0     N29246   5.947   0.766   7.321 -0.1214 -0.3273 -0.9098
  958MOL0     C29247   6.808   1.559   6.910 -0.2967 -0.8289  0.6184
  958MOL0     C29248   6.865   1.620   6.802 -0.3814  0.8284  0.1430
  958MOL0     C29249   7.093   1.629   6.388  0.6060 -0.9941  0.2284
  958MOL0     C29250   7.136   1.758   6.424 -0.0914 -0.5421  0.3047
  958MOL0     C29251   7.192   1.835   6.320 -1.6431 -0.6914 -0.6139
  958MOL0     C29252   7.201   1.784   6.188  0.3550 -0.2847 -0.5964
  958MOL0     O29253   7.263   1.845   6.086 -0.0796 -0.0718 -0.3239
  958MOL0     C29254   7.269   1.995   6.082 -0.1067  0.1566 -0.9572
  958MOL0     C29255   7.401   2.047   6.147  0.4439  0.5176  0.3694
  958MOL0     C29256   7.413   2.203   6.150  0.3127  0.7143 -0.2188
  958MOL0     C29257   7.556   2.265   6.179 -0.4767 -0.0236  0.3050
  958MOL0     C29258   7.578   2.286   6.319  0.1240 -0.4010 -1.2089
  958MOL0     C29259   7.595   2.291   6.444 -0.1309  0.2226  1.0298
  958MOL0     C29260   7.161   1.647   6.163  0.3676  0.5913  0.6280
  958MOL0     C29261   7.113   1.568   6.262  0.2121  1.1377  0.8709
  958MOL0     C29262   7.099   1.421   6.231  0.2244 -0.9093 -0.3665
  958MOL0     H29263   7.108   1.403   6.743 -0.0742  0.0986  1.0904
  958MOL0     H29264   7.003   1.290   6.940  0.3686  0.3702 -0.4255
  958MOL0     H29265   6.754   1.533   7.169 -0.6517  0.6045  0.7811
  958MOL0     H29266   6.624   1.468   7.078 -0.1956  0.0608  0.4201
  958MOL0     H29267   6.600   1.423   7.337 -2.1777 -0.7734 -0.1621
  958MOL0     H29268   6.724   1.290   7.301  0.8361  1.2527  2.1076
  958MOL0     H29269   6.565   1.188   7.151 -3.2494 -0.4754 -2.1396
  958MOL0     H29270   6.453   1.325   7.143 -0.0608  0.2432 -1.0487
  958MOL0     H29271   6.501   1.168   7.394 -0.8058  0.0432 -0.2389
  958MOL0     H29272   6.384   1.308   7.368  2.4202  2.7451  3.8780
  958MOL0     H29273   6.276   1.168   7.190  1.8734  0.7323 -1.2203
  958MOL0     H29274   6.381   1.027   7.239  0.7190 -1.1707  1.2522
  958MOL0     H29275   6.301   1.059   7.474  0.9058  2.4018  0.9459
  958MOL0     H29276   6.186   1.181   7.431 -0.3365  0.7666 -1.8972
  958MOL0     H29277   6.144   0.929   7.261 -0.8963 -2.5700  1.6653
  958MOL0     H29278   6.023   1.044   7.330  0.7745  1.2011  0.6517
  958MOL0     H29279   6.206   0.857   7.492  0.1533  0.6730  2.5773
  958MOL0     H29280   6.085   0.973   7.549 -0.3602  1.9844 -1.5195
  958MOL0     H29281   5.967   0.781   7.656 -2.5655 -0.0877 -0.2658
  958MOL0     H29282   5.818   0.583   7.675  0.7634 -1.5803 -0.3539
  958MOL0     H29283   5.666   0.653   7.604  0.5262 -0.6592  0.9216
  958MOL0     H29284   5.678   0.466   7.436 -1.0753 -0.4561  1.5200
  958MOL0     H29285   5.828   0.401   7.517 -2.5158 -4.0734  2.3817
  958MOL0     H29286   5.687   0.387   7.727 -1.1185 -1.1587  0.9615
  958MOL0     H29287   5.632   0.276   7.587  1.0048 -0.4060  0.9685
  958MOL0     H29288   5.488   0.494   7.546  0.1743 -1.2285 -0.9475
  958MOL0     H29289   5.525   0.536   7.707  3.9776  0.4765 -0.4837
  958MOL0     H29290   5.366   0.121   7.754 -2.4516  1.2291  0.5561
  958MOL0     H29291   5.229  -0.041   7.611 -1.2342  0.2877 -0.7014
  958MOL0     H29292   5.172  -0.204   7.175  0.9895  1.1703 -2.5726
  958MOL0     H29293   5.054  -0.351   6.999 -1.1484  1.0408 -2.3377
  958MOL0     H29294   4.645  -0.351   6.810  0.0505 -0.1355 -2.4252
  958MOL0     H29295   4.670  -0.171   6.826 -0.3993 -0.4043 -1.2966
  958MOL0     H29296   4.831  -0.357   6.637  0.8429  0.0470  2.1370
  958MOL0     H29297   4.709  -0.229   6.602 -1.3111  1.2625  1.2399
  958MOL0     H29298   4.954  -0.154   6.761 -1.6123  2.9724  1.6854
  958MOL0     H29299   4.969  -0.184   6.589  0.4571 -1.3524 -0.4878
  958MOL0     H29300   4.750  -0.012   6.686 -1.3921  0.7487 -1.3843
  958MOL0     H29301   4.835   0.011   6.534 -2.0309 -1.6295  0.5314
  958MOL0     H29302   5.033   0.078   6.681  0.9767  2.9062  1.0351
  958MOL0     H29303   4.908   0.081   6.809 -0.2402  0.7902 -0.4037
  958MOL0     H29304   4.901   0.248   6.567  1.5543 -2.1083  0.5512
  958MOL0     H29305   4.768   0.229   6.692 -0.8985  0.7836 -0.9747
  958MOL0     H29306   4.976   0.427   6.714  1.8111  0.9064  2.0835
  958MOL0     H29307   5.042   0.273   6.783  0.0475 -1.1783  0.0797
  958MOL0     H29308   4.943   0.455   6.940 -0.8783  0.4254  0.2905
  958MOL0     H29309   4.785   0.413   6.872 -0.5294 -2.0667  2.6414
  958MOL0     H29310   4.726  -0.083   7.013  0.8462  1.2607 -0.0465
  958MOL0     H29311   4.821   0.042   7.184 -3.2520 -2.1026  1.0296
  958MOL0     H29312   5.220   0.265   7.301  2.4204 -1.4087 -0.8219
  958MOL0     H29313   5.318   0.424   7.451  0.0068  0.3545 -0.7411
  958MOL0     H29314   6.730   1.607   6.969  0.4648  1.3823 -0.0729
  958MOL0     H29315   6.839   1.720   6.771  3.3118  1.4152 -1.6128
  958MOL0     H29316   7.120   1.797   6.524 -3.8940 -0.9571  0.0065
  958MOL0     H29317   7.225   1.938   6.330 -2.2869 -0.6601  1.9080
  958MOL0     H29318   7.195   2.046   6.144  2.7229  1.9902  1.1404
  958MOL0     H29319   7.262   2.029   5.978  0.7653 -0.0937 -1.1076
  958MOL0     H29320   7.488   2.015   6.088 -1.7215 -1.0975 -2.1875
  958MOL0     H29321   7.404   2.004   6.247  3.7727 -3.6833 -1.1860
  958MOL0     H29322   7.341   2.235   6.225 -0.5801  2.5027 -1.7341
  958MOL0     H29323   7.385   2.251   6.055 -2.7082 -0.2885  0.0691
  958MOL0     H29324   7.630   2.197   6.135 -0.4552 -0.4024  0.9253
  958MOL0     H29325   7.556   2.357   6.120  1.8612  0.0085  0.2757
  958MOL0     H29326   7.604   2.269   6.549  0.0775 -1.6664  0.6654
  958MOL0     H29327   7.176   1.608   6.063 -0.8898 -0.7349  0.9329
  958MOL0     H29328   7.162   1.409   6.143  0.3338  0.6859 -0.5349
  958MOL0     H29329   7.149   1.355   6.303 -2.1087 -4.8608 -2.0154
  958MOL0     H29330   6.998   1.386   6.205 -0.3110  1.1739 -1.3367
  959MOL0     O29331   5.011   9.385   4.247 -0.6222  0.4840  0.4334
  959MOL0     C29332   5.045   9.495   4.203 -0.9059 -0.4125 -0.1433
  959MOL0     O29333   5.049   9.530   4.072  0.4084  0.5752  0.0753
  959MOL0     C29334   4.987   9.461   3.966 -0.4487  0.1724 -1.5630
  959MOL0     C29335   4.957   9.540   3.849 -0.3571  0.2876 -0.6893
  959MOL0     C29336   4.908   9.479   3.738  0.0178  0.6286 -0.5041
  959MOL0     C29337   4.867   9.349   3.739 -0.1811  1.1978  0.3033
  959MOL0     O29338   4.806   9.295   3.628 -0.3068  0.1889 -0.0600
  959MOL0     C29339   4.887   9.198   3.556 -0.2080 -0.0817 -0.9010
  959MOL0     C29340   4.847   9.203   3.409 -0.5478 -0.6319  0.0803
  959MOL0     C29341   4.917   9.104   3.323  0.0408  0.2842 -0.2120
  959MOL0     C29342   5.068   9.105   3.318 -0.5128 -0.5087 -0.0013
  959MOL0     C29343   5.117   9.035   3.194  0.4861  0.8811  0.4965
  959MOL0     C29344   5.058   8.890   3.177 -0.5908  0.4296 -0.4781
  959MOL0     C29345   5.107   8.800   3.062  0.4520  0.7482 -0.5416
  959MOL0     C29346   4.995   8.773   2.954  0.0186 -0.0532  0.1671
  959MOL0     N29347   4.887   8.680   3.000 -0.0514  0.3132  0.7645
  959MOL0     C29348   4.863   8.568   2.925  0.3350 -0.0908 -0.3187
  959MOL0     C29349   4.744   8.525   2.972  0.6893 -0.0936  0.2098
  959MOL0     C29350   4.690   8.398   2.918 -0.7764  1.1301  0.9458
  959MOL0     C29351   4.719   8.278   2.999  0.4000 -0.2766  0.1320
  959MOL0     C29352   4.863   8.241   3.020  1.9444 -1.4589  0.4367
  959MOL0     C29353   4.948   8.222   2.900 -0.5146 -0.3191 -0.3965
  959MOL0     O29354   4.887   8.133   2.809 -0.4446  0.0363  0.0950
  959MOL0     C29355   4.885   8.166   2.675  0.7605  0.3645 -0.0399
  959MOL0     C29356   4.794   8.094   2.598  0.0074 -0.2501  0.2121
  959MOL0     C29357   4.769   8.115   2.466  0.9536  0.2390  0.3272
  959MOL0     C29358   4.864   8.201   2.399 -0.2383  0.0820 -0.6453
  959MOL0     C29359   4.849   8.224   2.260  1.2802 -0.0748  0.6272
  959MOL0     O29360   4.952   8.267   2.192  0.3460  0.3231  0.7621
  959MOL0     C29361   4.941   8.302   2.062  0.0900 -0.1122 -0.6729
  959MOL0     C29362   4.896   8.425   2.026  0.1131  0.1340 -0.0501
  959MOL0     C29363   4.868   8.456   1.892  0.4901 -0.0289  0.4889
  959MOL0     C29364   4.894   8.358   1.788 -0.5427 -0.9380  0.2931
  959MOL0     O29365   4.859   8.361   1.649  0.2710 -0.2596  0.4079
  959MOL0     C29366   4.771   8.463   1.604  0.1868 -0.0444 -0.3191
  959MOL0     C29367   4.690   8.408   1.488 -0.6665 -0.3610 -0.0576
  959MOL0     C29368   4.605   8.293   1.515  0.4297 -0.2434  0.6520
  959MOL0     C29369   4.485   8.339   1.599  0.6867 -0.0457 -0.2447
  959MOL0     C29370   4.378   8.222   1.596 -0.0786 -0.0548 -0.1546
  959MOL0     C29371   4.436   8.078   1.627  0.1366 -0.5008  0.0223
  959MOL0     C29372   4.330   7.969   1.659  0.2025  0.9437  0.5937
  959MOL0     C29373   4.251   7.932   1.536  0.1290 -0.0441 -0.9089
  959MOL0    Cl29374   4.327   7.813   1.435 -0.5003  0.3058  0.0010
  959MOL0     C29375   4.957   8.240   1.823  0.3564 -0.0048  0.0351
  959MOL0     C29376   4.972   8.214   1.955 -0.5074  0.4774  0.1628
  959MOL0     O29377   4.735   8.210   2.205  0.9930 -0.3175  0.7951
  959MOL0     C29378   4.965   8.259   2.470 -0.4165 -0.2129 -0.3182
  959MOL0     C29379   4.976   8.244   2.608  0.8531 -0.4800 -0.2216
  959MOL0     N29380   4.695   8.612   3.072  0.5601  0.1996  0.3141
  959MOL0     N29381   4.777   8.708   3.084 -0.7762  0.2545  0.0536
  959MOL0     C29382   4.898   9.268   3.857 -0.9840 -0.1196 -0.0224
  959MOL0     C29383   4.952   9.325   3.974  0.2018 -0.3467 -0.6000
  959MOL0     C29384   5.133   9.570   4.304  0.1305  0.7401 -0.5430
  959MOL0     C29385   5.251   9.618   4.244  0.0001  0.1132 -0.0914
  959MOL0     C29386   5.339   9.691   4.322 -0.3172  0.1041  0.2408
  959MOL0     C29387   5.316   9.705   4.463 -0.2215  0.5993 -1.0758
  959MOL0     O29388   5.403   9.780   4.535 -0.4151 -0.2386  0.4369
  959MOL0     C29389   5.440   9.748   4.677 -1.1471 -0.9166 -0.7152
  959MOL0     C29390   5.515   9.875   4.742 -0.1521  0.9848 -0.0511
  959MOL0     C29391   5.431   9.999   4.767  0.4980 -0.3455  0.4926
  959MOL0     C29392   5.334   9.970   4.882 -0.6569 -0.6057  0.0285
  959MOL0     C29393   5.201   9.941   4.834  0.1921 -0.8939 -0.7771
  959MOL0     C29394   5.090   9.917   4.812  0.2973  0.0949  0.2195
  959MOL0     C29395   5.197   9.649   4.519 -0.2734  0.4170  0.3277
  959MOL0     C29396   5.108   9.588   4.444 -0.5417  0.2228 -0.1018
  959MOL0     C29397   4.980   9.541   4.508  0.0409 -0.4571 -0.0932
  959MOL0     H29398   4.974   9.648   3.848  0.1117  0.2331 -2.3782
  959MOL0     H29399   4.896   9.539   3.649  0.7314 -0.0944 -1.0991
  959MOL0     H29400   4.989   9.235   3.567 -0.4066 -0.1664  2.0501
  959MOL0     H29401   4.886   9.097   3.597 -0.9238  0.4124  0.3492
  959MOL0     H29402   4.869   9.304   3.373 -5.2033  0.7126  0.3819
  959MOL0     H29403   4.738   9.197   3.402 -0.6405  0.7091  0.1084
  959MOL0     H29404   4.883   9.118   3.220  1.1119 -1.0313 -0.7801
  959MOL0     H29405   4.882   9.004   3.352  1.0419 -0.4200 -1.3244
  959MOL0     H29406   5.115   9.204   3.317 -1.2224 -0.1527  0.4758
  959MOL0     H29407   5.112   9.055   3.404 -2.5209 -4.4510 -1.0391
  959MOL0     H29408   5.085   9.095   3.108 -2.7737 -0.2364  0.8168
  959MOL0     H29409   5.227   9.029   3.191  0.5068  0.2275  1.7861
  959MOL0     H29410   5.080   8.845   3.274 -1.1406 -0.7580 -0.8828
  959MOL0     H29411   4.950   8.890   3.158 -0.6031  1.1106 -0.4211
  959MOL0     H29412   5.131   8.706   3.113  2.2122  1.0113 -0.8321
  959MOL0     H29413   5.201   8.832   3.015 -0.9701  0.3043 -4.0040
  959MOL0     H29414   4.956   8.866   2.910  2.1184  0.0322 -1.7012
  959MOL0     H29415   5.053   8.735   2.869 -0.2608 -1.1928  0.4723
  959MOL0     H29416   4.927   8.520   2.852 -2.1766 -1.3642 -1.8079
  959MOL0     H29417   4.583   8.417   2.905 -0.8968 -0.1648 -0.1499
  959MOL0     H29418   4.732   8.383   2.818  1.4605 -5.7534  2.3755
  959MOL0     H29419   4.668   8.293   3.094 -0.1581 -0.9814 -0.0494
  959MOL0     H29420   4.669   8.198   2.944  1.4117 -1.4988  0.9404
  959MOL0     H29421   4.855   8.146   3.075  1.0934 -1.7321 -0.1385
  959MOL0     H29422   4.899   8.306   3.100 -1.4455 -0.8302  1.6099
  959MOL0     H29423   5.032   8.168   2.944  0.7990  1.8865 -0.0114
  959MOL0     H29424   4.981   8.320   2.862 -0.4921 -0.7257 -1.4598
  959MOL0     H29425   4.720   8.042   2.658 -1.0169  3.8455  2.8763
  959MOL0     H29426   4.693   8.061   2.412  1.4134 -0.5097  0.4181
  959MOL0     H29427   4.874   8.490   2.110  1.0687  0.6213 -0.1626
  959MOL0     H29428   4.818   8.552   1.880  2.9041  1.3601  0.8313
  959MOL0     H29429   4.696   8.491   1.679 -2.2792  2.0744 -3.3126
  959MOL0     H29430   4.826   8.554   1.579  0.3261 -0.8859 -3.5911
  959MOL0     H29431   4.634   8.493   1.447 -1.2850 -0.8022 -0.1401
  959MOL0     H29432   4.759   8.382   1.408  0.9255  1.2596  0.7162
  959MOL0     H29433   4.560   8.255   1.422 -0.4137  1.6817  0.2167
  959MOL0     H29434   4.647   8.205   1.563 -1.6815 -1.3289  0.6307
  959MOL0     H29435   4.435   8.428   1.558  2.3869  0.9065 -0.3295
  959MOL0     H29436   4.520   8.368   1.698 -1.1598  0.7779  0.2152
  959MOL0     H29437   4.342   8.206   1.494  2.2086 -1.3315 -0.8352
  959MOL0     H29438   4.298   8.250   1.664  1.0332  1.0263  0.7559
  959MOL0     H29439   4.493   8.028   1.548  1.4206 -1.6702  1.6236
  959MOL0     H29440   4.493   8.081   1.721  0.2820 -1.4355 -0.0239
  959MOL0     H29441   4.268   8.002   1.742  2.2214 -1.4260  3.2576
  959MOL0     H29442   4.368   7.872   1.692 -1.9713 -0.0745  0.3090
  959MOL0     H29443   4.153   7.895   1.567 -0.6551  1.3607 -1.6552
  959MOL0     H29444   4.229   8.019   1.473 -1.2231 -0.2357 -0.7171
  959MOL0     H29445   4.997   8.178   1.743  1.3803  0.7880 -0.0886
  959MOL0     H29446   4.989   8.118   2.002 -0.5308  0.1188 -0.5591
  959MOL0     H29447   5.048   8.310   2.423 -2.7713  3.7016 -0.6536
  959MOL0     H29448   5.062   8.292   2.653 -0.5727  1.6586  0.4075
  959MOL0     H29449   4.884   9.160   3.858  2.2382 -0.6301  0.6060
  959MOL0     H29450   4.982   9.261   4.057 -0.6004 -0.3006 -0.2706
  959MOL0     H29451   5.266   9.606   4.137 -2.6105 -1.2210 -0.3847
  959MOL0     H29452   5.431   9.727   4.277  0.6675 -0.1171  1.9908
  959MOL0     H29453   5.505   9.660   4.669  2.0807  1.4292 -1.8996
  959MOL0     H29454   5.347   9.744   4.736 -0.1279  0.2282  1.0395
  959MOL0     H29455   5.602   9.905   4.683  1.9788 -2.5381  0.9576
  959MOL0     H29456   5.551   9.852   4.843 -2.0297  1.1045  0.6904
  959MOL0     H29457   5.376  10.022   4.675 -1.6562 -0.8760  1.5781
  959MOL0     H29458   5.488  10.090   4.784 -1.2317  1.3024 -1.8777
  959MOL0     H29459   5.372   9.884   4.939 -2.1415 -2.8499 -2.1551
  959MOL0     H29460   5.334  10.055   4.950  3.2170 -0.2457 -0.2225
  959MOL0     H29461   4.997   9.916   4.760 -0.0920  0.8063  0.8807
  959MOL0     H29462   5.169   9.662   4.623  1.4441  1.3485  0.7134
  959MOL0     H29463   4.969   9.588   4.606  0.0486 -2.0975  0.7280
  959MOL0     H29464   4.896   9.573   4.445  0.0683 -0.3376 -0.0667
  959MOL0     H29465   4.966   9.434   4.525 -0.7902 -0.8869 -2.8565
  960MOL0     O29466  10.171   8.008   1.659  0.0711 -0.3307 -0.1494
  960MOL0     C29467  10.148   8.129   1.646  0.4476 -0.8644  0.2986
  960MOL0     O29468  10.154   8.222   1.741 -0.2276  0.1679 -0.0230
  960MOL0     C29469  10.258   8.214   1.831  0.0977 -0.6174 -0.1262
  960MOL0     C29470  10.243   8.291   1.947 -0.6334  0.4863 -0.3461
  960MOL0     C29471  10.343   8.276   2.047  0.2567  0.5557  0.9696
  960MOL0     C29472  10.463   8.208   2.033 -1.0473  1.0515  0.7367
  960MOL0     O29473  10.543   8.207   2.137 -0.1967  0.2053 -0.0871
  960MOL0     C29474  10.687   8.207   2.132  0.7904  0.0254  0.2022
  960MOL0     C29475  10.747   8.349   2.112 -0.1555 -0.0328 -0.1168
  960MOL0     C29476  10.898   8.357   2.157 -0.2514  0.1433  1.0210
  960MOL0     C29477  10.930   8.446   2.285 -1.4862 -0.3379  0.0088
  960MOL0     C29478  11.075   8.423   2.334  0.0001 -0.4287  0.9760
  960MOL0     C29479  11.124   8.515   2.445 -0.6852 -0.4069 -0.8262
  960MOL0     C29480  11.248   8.468   2.513  0.2322  0.9246  0.1460
  960MOL0     C29481  11.292   8.556   2.622  0.1612 -0.3860 -0.7145
  960MOL0     N29482  11.444   8.540   2.635 -0.5503 -0.2065  0.1932
  960MOL0     C29483  11.549   8.595   2.561 -0.2731 -0.9156 -0.9475
  960MOL0     C29484  11.657   8.527   2.595  0.4536 -0.3114 -0.4072
  960MOL0     C29485  11.798   8.557   2.544 -0.4007  1.1010  0.2412
  960MOL0     C29486  11.862   8.637   2.657  0.0731 -0.0107  0.0156
  960MOL0     C29487  12.018   8.665   2.641  0.2890 -0.1432 -0.1738
  960MOL0     C29488  12.098   8.636   2.775 -0.3680  0.6376  0.0541
  960MOL0     O29489  12.219   8.714   2.761  0.2245 -0.4778 -0.4107
  960MOL0     C29490  12.320   8.670   2.838  0.3184  0.0124 -0.0499
  960MOL0     C29491  12.439   8.626   2.775  1.3396 -0.5427 -0.2901
  960MOL0     C29492  12.540   8.565   2.841 -0.4759 -0.4573 -0.9634
  960MOL0     C29493  12.534   8.557   2.985 -0.0615  0.5558 -0.3498
  960MOL0     C29494  12.646   8.499   3.068 -0.2764  0.6450  0.2353
  960MOL0     O29495  12.635   8.514   3.201 -0.5023  0.1336  0.0737
  960MOL0     C29496  12.707   8.461   3.306 -0.4217 -0.5100 -0.1579
  960MOL0     C29497  12.783   8.346   3.299  0.1003 -0.8478  0.4551
  960MOL0     C29498  12.876   8.319   3.395  0.0424 -0.3399 -0.4757
  960MOL0     C29499  12.854   8.383   3.523 -0.0460 -0.9160 -0.1442
  960MOL0     O29500  12.922   8.324   3.629 -0.1161  0.3732  0.5759
  960MOL0     C29501  13.067   8.329   3.621  1.2328  0.1168 -0.8516
  960MOL0     C29502  13.102   8.330   3.775  0.0479  0.1140  0.5229
  960MOL0     C29503  13.250   8.310   3.800 -0.4161 -0.1940 -0.2886
  960MOL0     C29504  13.299   8.369   3.939  0.5830 -0.3680  0.2009
  960MOL0     C29505  13.448   8.340   3.964  0.9950  0.2192 -0.0889
  960MOL0     C29506  13.540   8.455   3.929  0.2999  0.7074  0.0541
  960MOL0     C29507  13.684   8.408   3.932 -0.3099  0.5397 -0.6173
  960MOL0     C29508  13.773   8.524   3.905  0.2429 -0.5784  0.6125
  960MOL0    Cl29509  13.785   8.613   4.061 -0.1682  0.2774  0.2666
  960MOL0     C29510  12.765   8.490   3.539  0.2688  1.0413 -0.4753
  960MOL0     C29511  12.705   8.531   3.424 -0.1782  0.5037 -1.2911
  960MOL0     O29512  12.750   8.469   3.014  0.4075  0.2335 -0.2794
  960MOL0     C29513  12.416   8.609   3.053 -0.5575  0.2017 -0.1240
  960MOL0     C29514  12.315   8.654   2.974  1.0216 -0.8596 -0.0753
  960MOL0     N29515  11.625   8.447   2.705  0.1382  0.2990  0.8130
  960MOL0     N29516  11.502   8.447   2.725  0.3835 -0.0888 -0.2217
  960MOL0     C29517  10.484   8.154   1.902 -0.6370  0.0303 -0.0981
  960MOL0     C29518  10.389   8.157   1.804 -0.0335  0.1231 -0.4552
  960MOL0     C29519  10.063   8.152   1.538  1.0564  0.3244 -0.2321
  960MOL0     C29520   9.936   8.201   1.555 -0.0792 -0.0261 -0.6733
  960MOL0     C29521   9.850   8.232   1.451 -0.1191  0.8056  0.4619
  960MOL0     C29522   9.884   8.191   1.320  1.0124 -0.1515 -0.0604
  960MOL0     O29523   9.800   8.210   1.221 -0.2630 -0.6040  1.0870
  960MOL0     C29524   9.708   8.326   1.206  0.5953 -0.0729  0.2620
  960MOL0     C29525   9.775   8.457   1.160 -0.8076 -0.3428  0.3637
  960MOL0     C29526   9.701   8.543   1.064 -0.3432  0.3147  0.4465
  960MOL0     C29527   9.775   8.668   1.032 -0.2797  0.9266  0.0356
  960MOL0     C29528   9.730   8.786   1.109  0.5385 -0.3697 -0.5692
  960MOL0     C29529   9.673   8.875   1.164  0.4015  1.1214 -0.0343
  960MOL0     C29530  10.010   8.141   1.296  0.8110  0.5739  0.8041
  960MOL0     C29531  10.098   8.120   1.404 -0.1971 -0.0081  0.3901
  960MOL0     C29532  10.242   8.073   1.371 -0.1721 -0.2611 -0.2633
  960MOL0     H29533  10.145   8.325   1.979 -0.9407 -1.1033  0.5276
  960MOL0     H29534  10.322   8.296   2.152 -0.0004 -1.2515  1.3009
  960MOL0     H29535  10.722   8.184   2.233  0.7247 -1.9144 -0.1687
  960MOL0     H29536  10.708   8.129   2.058  1.9423  2.8092 -2.6198
  960MOL0     H29537  10.691   8.429   2.161  0.0639  0.5551 -0.8042
  960MOL0     H29538  10.742   8.371   2.005  1.4802 -1.4026 -0.5146
  960MOL0     H29539  10.960   8.363   2.068 -0.9600 -5.2351 -0.1628
  960MOL0     H29540  10.908   8.256   2.196  1.6864  0.3444  1.1183
  960MOL0     H29541  10.923   8.546   2.241 -2.8939 -0.7469 -0.7321
  960MOL0     H29542  10.854   8.432   2.362  0.0930  0.6934  1.8334
  960MOL0     H29543  11.082   8.321   2.371 -0.1090 -0.4202  1.0228
  960MOL0     H29544  11.141   8.435   2.248 -1.3505  0.8976  0.0647
  960MOL0     H29545  11.146   8.613   2.402 -1.0099 -0.3356 -0.8300
  960MOL0     H29546  11.037   8.520   2.510 -0.0774 -0.3282  0.0043
  960MOL0     H29547  11.324   8.453   2.436 -0.1501 -3.9540  0.4238
  960MOL0     H29548  11.214   8.373   2.555 -3.6064  1.9569 -0.2045
  960MOL0     H29549  11.236   8.649   2.612 -4.2391 -2.6254  0.5274
  960MOL0     H29550  11.250   8.514   2.714  4.1277  0.8028  1.9629
  960MOL0     H29551  11.537   8.671   2.485 -1.0441  0.7433  0.7496
  960MOL0     H29552  11.852   8.462   2.549 -1.7417  0.2177 -1.3903
  960MOL0     H29553  11.801   8.607   2.447 -3.2526  1.3597  0.2038
  960MOL0     H29554  11.812   8.734   2.662 -1.0820 -0.4577 -1.7418
  960MOL0     H29555  11.840   8.581   2.748 -1.9024 -0.9953 -1.0087
  960MOL0     H29556  12.039   8.767   2.608 -3.5128  0.9701  0.3265
  960MOL0     H29557  12.076   8.602   2.572  4.5217  1.1678  1.8520
  960MOL0     H29558  12.108   8.530   2.800 -0.0027 -0.2424 -3.3812
  960MOL0     H29559  12.056   8.678   2.867  0.2244 -0.5771  0.8992
  960MOL0     H29560  12.449   8.633   2.667  1.0071 -0.7939 -0.3408
  960MOL0     H29561  12.635   8.530   2.802  1.4628  1.1272  1.9899
  960MOL0     H29562  12.783   8.297   3.202 -0.1734  1.1811 -0.6158
  960MOL0     H29563  12.944   8.239   3.369  1.1945  0.8448 -1.2239
  960MOL0     H29564  13.089   8.240   3.563 -2.0765 -0.3366 -1.6321
  960MOL0     H29565  13.109   8.415   3.567 -0.2273  0.8819 -0.8356
  960MOL0     H29566  13.067   8.427   3.811  1.9201  0.2192  2.2304
  960MOL0     H29567  13.043   8.258   3.832  1.0597 -1.1339  0.0519
  960MOL0     H29568  13.283   8.207   3.785  0.2736  0.1939 -1.6364
  960MOL0     H29569  13.313   8.367   3.731 -0.7214  0.3160 -0.1499
  960MOL0     H29570  13.249   8.315   4.020 -3.8770  0.7433 -1.5068
  960MOL0     H29571  13.267   8.474   3.944 -2.1829 -1.1780  2.3269
  960MOL0     H29572  13.485   8.255   3.906 -1.2010 -1.2598  0.5253
  960MOL0     H29573  13.457   8.315   4.071 -2.4805  2.1769  0.8342
  960MOL0     H29574  13.526   8.492   3.827  0.5633  1.8968  0.4265
  960MOL0     H29575  13.511   8.539   3.993  0.1588  1.9239 -1.5582
  960MOL0     H29576  13.692   8.329   3.856  0.0224 -3.1616  2.9162
  960MOL0     H29577  13.717   8.351   4.019 -1.1942 -1.1674 -1.3480
  960MOL0     H29578  13.877   8.491   3.895  0.0983 -1.2200  1.1558
  960MOL0     H29579  13.752   8.590   3.820  0.7564  0.9866  1.6398
  960MOL0     H29580  12.763   8.543   3.633  0.2668  1.7142 -0.8468
  960MOL0     H29581  12.655   8.626   3.418 -1.3818 -0.1858 -2.9614
  960MOL0     H29582  12.405   8.609   3.161 -3.7022 -0.3067 -0.3582
  960MOL0     H29583  12.222   8.679   3.024  1.1129  0.4669 -0.5207
  960MOL0     H29584  10.577   8.103   1.880 -2.9849 -2.8783 -4.7743
  960MOL0     H29585  10.394   8.113   1.704 -2.0754  1.4529 -1.2125
  960MOL0     H29586   9.906   8.230   1.655  1.0052 -2.8164  0.5499
  960MOL0     H29587   9.758   8.280   1.483 -1.0706 -1.2253  0.9000
  960MOL0     H29588   9.632   8.341   1.283 -0.7381 -0.7912 -0.8707
  960MOL0     H29589   9.641   8.305   1.123 -0.4879 -2.3642  1.6154
  960MOL0     H29590   9.879   8.441   1.130 -0.8616 -0.1644  0.0693
  960MOL0     H29591   9.785   8.516   1.252  2.8277  0.7713 -0.5757
  960MOL0     H29592   9.603   8.570   1.105 -1.2820 -3.8133  1.4669
  960MOL0     H29593   9.679   8.482   0.975  1.4015 -2.3841  1.7349
  960MOL0     H29594   9.879   8.650   1.062 -0.7697  0.3718  1.4720
  960MOL0     H29595   9.745   8.687   0.928 -0.2970 -0.0564 -0.1532
  960MOL0     H29596   9.604   8.951   1.197 -3.2099 -1.4285 -1.1279
  960MOL0     H29597  10.020   8.095   1.198 -1.8162  0.9959  0.2607
  960MOL0     H29598  10.305   8.160   1.391  1.3668 -1.1477 -1.0642
  960MOL0     H29599  10.270   7.987   1.431  1.3218  1.8452  2.2721
  960MOL0     H29600  10.252   8.045   1.266  1.1160 -2.9380  0.5051
  961MOL0     O29601   0.166   8.318   2.372 -0.3239  0.8112  0.4062
  961MOL0     C29602   0.076   8.246   2.394  0.8083  0.4940  0.7980
  961MOL0     O29603  -0.041   8.233   2.315 -0.5940  0.5150  0.2418
  961MOL0     C29604  -0.057   8.287   2.188 -0.3761 -0.2503  0.2959
  961MOL0     C29605  -0.178   8.267   2.136  0.5557 -0.0004 -0.2944
  961MOL0     C29606  -0.221   8.310   2.011 -0.0810 -0.5150 -0.2978
  961MOL0     C29607  -0.127   8.388   1.937  0.2721  0.1668 -0.8016
  961MOL0     O29608  -0.150   8.430   1.811 -0.4952  0.2796 -0.4568
  961MOL0     C29609  -0.285   8.482   1.787 -0.0951  0.3914 -0.2613
  961MOL0     C29610  -0.311   8.517   1.646 -0.1089 -0.6826 -0.5743
  961MOL0     C29611  -0.434   8.613   1.630  0.2434  0.5241  0.6352
  961MOL0     C29612  -0.478   8.638   1.489  0.5095  0.6040 -0.6116
  961MOL0     C29613  -0.535   8.768   1.465 -0.0072  0.9366 -0.0777
  961MOL0     C29614  -0.555   8.799   1.312 -1.2675  0.1748  0.0091
  961MOL0     C29615  -0.710   8.809   1.288 -0.3983  0.3583 -0.4736
  961MOL0     C29616  -0.735   8.808   1.133  0.8097  0.0059 -0.6906
  961MOL0     N29617  -0.872   8.817   1.101 -0.9512  0.7105 -0.2825
  961MOL0     C29618  -0.959   8.894   1.175 -0.4693  1.9803 -0.3099
  961MOL0     C29619  -1.079   8.846   1.138 -0.2030 -0.1909  0.1901
  961MOL0     C29620  -1.204   8.934   1.153  0.0571 -0.7421 -0.4254
  961MOL0     C29621  -1.245   8.975   1.019 -0.8711  0.6654 -0.1262
  961MOL0     C29622  -1.386   9.033   1.012  0.4458 -0.3069  0.3772
  961MOL0     C29623  -1.393   9.126   0.881  0.2618  0.3566 -0.4861
  961MOL0     O29624  -1.502   9.094   0.789  0.3358 -0.2697 -0.0856
  961MOL0     C29625  -1.633   9.092   0.832  0.7552 -0.6522 -0.0026
  961MOL0     C29626  -1.672   9.164   0.943  0.4182 -0.6329 -0.7467
  961MOL0     C29627  -1.813   9.176   0.970 -0.1554 -0.5413 -0.3135
  961MOL0     C29628  -1.908   9.127   0.877 -0.1789  0.4274 -0.1604
  961MOL0     C29629  -2.058   9.148   0.899  0.2452  0.0396 -0.6334
  961MOL0     O29630  -2.139   9.106   0.800  0.0892  0.5321 -0.5202
  961MOL0     C29631  -2.276   9.120   0.797 -0.0776  0.1263 -0.6896
  961MOL0     C29632  -2.337   9.068   0.680  0.0988 -0.8460  0.4973
  961MOL0     C29633  -2.482   9.072   0.658 -1.9697 -1.1131  0.6700
  961MOL0     C29634  -2.557   9.112   0.767  0.6330 -0.2044 -0.5131
  961MOL0     O29635  -2.697   9.096   0.751 -0.2239 -0.1360 -0.1822
  961MOL0     C29636  -2.764   9.075   0.876 -0.3281  0.3492  0.1989
  961MOL0     C29637  -2.712   8.964   0.962  0.7984  0.4486  1.0255
  961MOL0     C29638  -2.772   8.961   1.099 -0.4748 -0.1380 -0.0459
  961MOL0     C29639  -2.913   8.895   1.104 -0.0621 -0.4342 -0.0315
  961MOL0     C29640  -2.896   8.739   1.112  0.2045  1.0699  0.6434
  961MOL0     C29641  -3.025   8.662   1.142 -0.0675  0.8929  0.8860
  961MOL0     C29642  -3.125   8.657   1.021  0.1205  0.4088 -0.0885
  961MOL0     C29643  -3.076   8.578   0.899  0.0089 -0.0329  0.7453
  961MOL0    Cl29644  -3.065   8.416   0.937  0.2649  0.3253  0.3557
  961MOL0     C29645  -2.493   9.171   0.877  0.5144 -0.4137 -0.4740
  961MOL0     C29646  -2.358   9.176   0.894  0.4486  0.5703 -0.0882
  961MOL0     O29647  -2.096   9.193   1.007  0.2143 -0.0405  0.2698
  961MOL0     C29648  -1.863   9.056   0.768  0.3845 -0.7067  0.2468
  961MOL0     C29649  -1.727   9.029   0.756 -0.1752 -0.4335  1.1509
  961MOL0     N29650  -1.058   8.732   1.059  0.9187  0.3575  0.4431
  961MOL0     N29651  -0.934   8.718   1.044  0.2697 -0.1684  0.0496
  961MOL0     C29652   0.009   8.383   1.987  0.4068  0.1633  1.0079
  961MOL0     C29653   0.048   8.339   2.112  0.6890  0.4296 -0.2336
  961MOL0     C29654   0.066   8.161   2.521  0.3226 -0.0675  0.1294
  961MOL0     C29655  -0.067   8.136   2.569 -0.3931 -0.2082  0.2061
  961MOL0     C29656  -0.089   8.071   2.683  0.2118  0.4490  0.0950
  961MOL0     C29657   0.010   8.024   2.764 -1.0710  0.7460 -0.8568
  961MOL0     O29658  -0.016   7.953   2.878  0.3403 -0.0309  0.2062
  961MOL0     C29659   0.007   8.042   2.981 -0.0817 -0.3067 -0.8644
  961MOL0     C29660   0.136   7.997   3.046  0.3639  0.1362  0.1858
  961MOL0     C29661   0.165   8.068   3.182  0.1937 -0.1274  0.0425
  961MOL0     C29662   0.106   7.982   3.294 -0.0528 -0.5976  0.4252
  961MOL0     C29663   0.106   8.066   3.412  0.1725  0.2172 -0.0849
  961MOL0     C29664   0.103   8.141   3.507  0.3820 -0.2798  1.0000
  961MOL0     C29665   0.136   8.025   2.706  0.1216  0.6844  1.6592
  961MOL0     C29666   0.169   8.105   2.590  0.2141 -0.4046  0.2342
  961MOL0     C29667   0.318   8.128   2.547  0.0439  0.5159  0.2125
  961MOL0     H29668  -0.259   8.219   2.191 -0.0964  1.8131  0.4179
  961MOL0     H29669  -0.327   8.300   1.989 -0.4211 -1.5769  1.5982
  961MOL0     H29670  -0.356   8.401   1.807  0.0349  0.9882  3.2308
  961MOL0     H29671  -0.307   8.563   1.857  0.6449  0.1130  0.3028
  961MOL0     H29672  -0.339   8.422   1.600  0.6691 -0.9500 -0.5200
  961MOL0     H29673  -0.225   8.570   1.604 -1.6305 -0.1466 -3.1838
  961MOL0     H29674  -0.408   8.710   1.673  0.0713  0.2832  1.3117
  961MOL0     H29675  -0.511   8.571   1.696 -0.5017  2.6864  1.1994
  961MOL0     H29676  -0.389   8.625   1.427  2.3468 -3.1590  2.4303
  961MOL0     H29677  -0.552   8.567   1.450  1.8462  0.6492 -3.4576
  961MOL0     H29678  -0.620   8.777   1.533  1.4536 -0.4461  2.0669
  961MOL0     H29679  -0.465   8.848   1.489  0.1421  1.1218 -1.0729
  961MOL0     H29680  -0.498   8.887   1.281 -0.2331  0.1287  1.6636
  961MOL0     H29681  -0.508   8.724   1.248 -0.3430  0.6186  0.1460
  961MOL0     H29682  -0.753   8.904   1.322  0.6565  0.4032  0.8152
  961MOL0     H29683  -0.744   8.720   1.343  1.6428  0.0448  0.3778
  961MOL0     H29684  -0.673   8.895   1.110 -0.5268  1.8069  2.0099
  961MOL0     H29685  -0.698   8.710   1.100  0.1035 -0.5951  0.2421
  961MOL0     H29686  -0.921   8.977   1.234  3.1305 -0.8766  1.8384
  961MOL0     H29687  -1.282   8.868   1.193 -0.5851  1.1810  1.7640
  961MOL0     H29688  -1.210   9.018   1.224  1.0879 -1.4113  0.4776
  961MOL0     H29689  -1.178   9.052   0.978  0.3514  0.3148  1.1354
  961MOL0     H29690  -1.232   8.890   0.950  1.0023  2.7441 -2.5339
  961MOL0     H29691  -1.418   9.098   1.094 -2.9231  0.8747 -1.6484
  961MOL0     H29692  -1.461   8.954   1.014 -1.2833  1.2604  2.5413
  961MOL0     H29693  -1.303   9.121   0.820 -0.7159 -1.2117 -1.8725
  961MOL0     H29694  -1.405   9.233   0.903 -0.5871 -0.0122  0.9756
  961MOL0     H29695  -1.608   9.209   1.018  0.4054 -0.1201 -1.0381
  961MOL0     H29696  -1.847   9.216   1.065  0.2692 -4.3422  1.6270
  961MOL0     H29697  -2.277   9.045   0.592 -1.4829  1.1186 -1.2139
  961MOL0     H29698  -2.527   9.049   0.562 -1.7274 -0.5073  0.4087
  961MOL0     H29699  -2.775   9.162   0.940  0.6809 -0.6578  1.8295
  961MOL0     H29700  -2.868   9.051   0.851 -1.2471  2.9693  1.1889
  961MOL0     H29701  -2.741   8.867   0.922  4.4090 -1.3065  2.2863
  961MOL0     H29702  -2.603   8.961   0.964  0.7690 -0.7678  2.8101
  961MOL0     H29703  -2.704   8.893   1.152  1.9091  0.2648 -2.3809
  961MOL0     H29704  -2.749   9.051   1.157 -0.2261 -0.6708  0.7002
  961MOL0     H29705  -2.982   8.922   1.023 -1.1005 -0.2040  0.9084
  961MOL0     H29706  -2.963   8.941   1.190  0.6948  1.4855 -0.5663
  961MOL0     H29707  -2.826   8.710   1.191  1.7728 -1.2957 -1.4392
  961MOL0     H29708  -2.846   8.698   1.024 -1.2377 -1.1863  0.8010
  961MOL0     H29709  -3.001   8.563   1.182 -2.1650  0.4806  1.2326
  961MOL0     H29710  -3.079   8.710   1.224 -0.3891  1.6664  0.2346
  961MOL0     H29711  -3.161   8.758   0.997  1.7341  1.5954  2.0967
  961MOL0     H29712  -3.221   8.607   1.039  0.6782  0.4309  3.7967
  961MOL0     H29713  -3.147   8.594   0.817  0.9303  1.6426  0.2435
  961MOL0     H29714  -2.981   8.612   0.857 -1.0441  0.8425 -1.0218
  961MOL0     H29715  -2.551   9.219   0.955  2.7927  1.3917  0.2243
  961MOL0     H29716  -2.331   9.213   0.993 -0.9068 -2.5721  1.5774
  961MOL0     H29717  -1.931   9.018   0.692 -0.0194  0.4932 -0.0079
  961MOL0     H29718  -1.687   8.962   0.682 -0.4349  1.0682 -0.4133
  961MOL0     H29719   0.082   8.439   1.929  0.2701 -0.3265  0.3465
  961MOL0     H29720   0.153   8.332   2.137  1.3850 -3.1539 -3.3065
  961MOL0     H29721  -0.154   8.177   2.519  1.1069 -0.1437 -2.5682
  961MOL0     H29722  -0.187   8.042   2.720  0.7736 -1.2328  0.3604
  961MOL0     H29723  -0.078   8.031   3.049  2.4241 -1.2267  2.3353
  961MOL0     H29724   0.015   8.142   2.938  0.2449 -0.7896 -1.9823
  961MOL0     H29725   0.224   8.031   2.989 -0.3259 -2.6241 -2.8210
  961MOL0     H29726   0.138   7.888   3.053  0.7639 -0.0630 -2.0905
  961MOL0     H29727   0.133   8.172   3.189  1.4841  0.4178 -1.5328
  961MOL0     H29728   0.274   8.071   3.194 -0.0422 -0.6861  2.9240
  961MOL0     H29729   0.005   7.942   3.282  0.3125 -1.3877 -0.1528
  961MOL0     H29730   0.175   7.897   3.304  0.5102  0.0303  2.1585
  961MOL0     H29731   0.090   8.198   3.597 -4.0730  1.4969 -0.5160
  961MOL0     H29732   0.214   7.985   2.769  0.6818  0.4782  0.8523
  961MOL0     H29733   0.318   8.105   2.440  0.3540 -1.1760  0.5316
  961MOL0     H29734   0.354   8.230   2.558 -0.4154  0.5632  1.4959
  961MOL0     H29735   0.383   8.067   2.611 -0.2223  0.9136  0.8749
  962MOL0     O29736   8.186   0.476   5.685 -0.5171  0.1936 -0.1081
  962MOL0     C29737   8.075   0.420   5.696 -0.7499  0.2558 -0.1334
  962MOL0     O29738   7.964   0.465   5.632 -0.3480  1.2893  0.0702
  962MOL0     C29739   7.965   0.534   5.508 -1.0151 -0.6072 -0.4951
  962MOL0     C29740   7.874   0.493   5.413  0.4221  0.4042 -0.3721
  962MOL0     C29741   7.854   0.554   5.289  0.8028 -1.2367 -0.5284
  962MOL0     C29742   7.942   0.662   5.266  0.0564 -0.6594  0.5840
  962MOL0     O29743   7.933   0.725   5.142  0.4030  0.3356  0.1088
  962MOL0     C29744   7.818   0.802   5.141 -0.4412  0.2166  0.6144
  962MOL0     C29745   7.785   0.835   4.989  0.9450  0.9821 -0.0754
  962MOL0     C29746   7.889   0.914   4.918 -0.0724 -0.0230 -0.2981
  962MOL0     C29747   7.839   0.942   4.768  0.9383 -0.2352 -0.5459
  962MOL0     C29748   7.943   1.007   4.681  0.0444  0.1502  1.0146
  962MOL0     C29749   7.995   1.143   4.724 -0.1195  0.3715 -0.5417
  962MOL0     C29750   7.884   1.238   4.746  0.1011  0.8376  0.5197
  962MOL0     C29751   7.929   1.384   4.768  0.2729  0.9959  0.3953
  962MOL0     N29752   7.934   1.466   4.645  0.0947 -0.4188  0.3561
  962MOL0     C29753   8.039   1.547   4.596 -0.5438  0.0046 -0.4706
  962MOL0     C29754   7.980   1.617   4.498 -0.7259  0.5028 -0.2420
  962MOL0     C29755   8.038   1.728   4.424  0.7884 -0.7688  0.7352
  962MOL0     C29756   7.947   1.851   4.412  0.2792  0.1653 -0.4851
  962MOL0     C29757   8.022   1.981   4.426  0.3056  0.2948  0.7873
  962MOL0     C29758   7.937   2.103   4.432  0.0813  0.7699  0.2075
  962MOL0     O29759   7.890   2.113   4.563 -0.2859 -0.1594 -0.0259
  962MOL0     C29760   7.775   2.176   4.570  0.3235 -0.0016  0.4268
  962MOL0     C29761   7.754   2.314   4.537 -0.0530  0.9342  0.0347
  962MOL0     C29762   7.632   2.378   4.567 -0.2149  0.0518  0.3756
  962MOL0     C29763   7.513   2.300   4.587  0.4112 -1.1624 -0.2654
  962MOL0     C29764   7.385   2.369   4.593 -0.1395 -1.1370  0.7248
  962MOL0     O29765   7.386   2.501   4.551 -0.4663  0.1520 -0.2346
  962MOL0     C29766   7.297   2.588   4.611  0.1000  0.0858 -0.1174
  962MOL0     C29767   7.257   2.701   4.546 -0.2359 -0.3334 -0.2732
  962MOL0     C29768   7.166   2.798   4.598  0.2941 -0.1889 -0.4276
  962MOL0     C29769   7.099   2.757   4.721 -0.3415  0.2367  0.0003
  962MOL0     O29770   7.011   2.824   4.794 -0.3485 -1.1299 -0.3063
  962MOL0     C29771   6.957   2.949   4.752 -0.3378 -0.3448  0.4105
  962MOL0     C29772   7.021   3.071   4.821 -0.4911  1.4511 -1.1345
  962MOL0     C29773   7.142   3.135   4.759  0.3140  0.4564  0.1963
  962MOL0     C29774   7.147   3.273   4.821 -0.0757  0.0710  0.3801
  962MOL0     C29775   7.255   3.370   4.767 -0.0510  0.0671  0.0557
  962MOL0     C29776   7.240   3.517   4.790 -0.5933 -0.1669 -1.0657
  962MOL0     C29777   7.097   3.578   4.786  0.0396  0.0793  0.0805
  962MOL0     C29778   7.085   3.729   4.776 -0.9391 -0.1489 -1.4373
  962MOL0    Cl29779   6.932   3.755   4.685  0.0486  0.0475 -0.1164
  962MOL0     C29780   7.146   2.646   4.791  0.1902  0.8724  0.1056
  962MOL0     C29781   7.247   2.566   4.740  0.9266 -0.5333  0.0063
  962MOL0     O29782   7.287   2.308   4.642 -0.4012  0.0770  0.4704
  962MOL0     C29783   7.527   2.161   4.596  0.0475 -1.5193 -1.6542
  962MOL0     C29784   7.658   2.102   4.602 -0.4910 -0.3824 -0.6405
  962MOL0     N29785   7.853   1.575   4.472 -0.2172 -0.3258 -0.2096
  962MOL0     N29786   7.826   1.486   4.556 -0.3058  0.4400 -0.0751
  962MOL0     C29787   8.042   0.701   5.355 -0.1461 -0.1504  0.2498
  962MOL0     C29788   8.052   0.636   5.476  0.5443  0.6061 -0.8737
  962MOL0     C29789   8.067   0.308   5.788  0.7542  0.0498 -0.7579
  962MOL0     C29790   7.957   0.312   5.875  0.0764  0.3414 -0.2108
  962MOL0     C29791   7.950   0.224   5.987 -0.2173 -0.1973  0.5968
  962MOL0     C29792   8.037   0.120   6.000  0.5996 -0.6352 -0.6716
  962MOL0     O29793   8.047   0.034   6.103  0.4810  0.7816 -0.4074
  962MOL0     C29794   7.984   0.057   6.237  0.1473 -0.6034  1.1917
  962MOL0     C29795   7.913  -0.065   6.285 -0.0884  0.0464  0.7256
  962MOL0     C29796   8.021  -0.175   6.292 -0.0259  0.6158 -0.7539
  962MOL0     C29797   7.945  -0.291   6.353 -0.2700  0.0835  0.1328
  962MOL0     C29798   7.873  -0.386   6.263  1.0019 -0.1047  0.6384
  962MOL0     C29799   7.808  -0.461   6.192 -0.0868 -0.9933 -0.1772
  962MOL0     C29800   8.144   0.108   5.910 -0.9706 -0.0702  0.4207
  962MOL0     C29801   8.155   0.201   5.802  0.0431 -0.1553 -1.4962
  962MOL0     C29802   8.258   0.185   5.702 -0.6855  0.8498 -0.0812
  962MOL0     H29803   7.803   0.412   5.430 -0.5212  0.9257 -1.6750
  962MOL0     H29804   7.779   0.528   5.215 -0.9662 -1.6806  1.3305
  962MOL0     H29805   7.734   0.757   5.194  1.3279  1.3845  4.8388
  962MOL0     H29806   7.831   0.896   5.194  1.0416  1.7988 -2.3061
  962MOL0     H29807   7.689   0.887   4.998  0.9277  0.9384 -0.0077
  962MOL0     H29808   7.762   0.742   4.937  0.4885  1.8412 -1.4526
  962MOL0     H29809   7.977   0.849   4.911 -1.4020 -1.8255 -0.8233
  962MOL0     H29810   7.914   0.999   4.983  1.1445  1.0190 -2.0039
  962MOL0     H29811   7.814   0.849   4.717 -1.2487  0.3343 -0.6001
  962MOL0     H29812   7.743   0.993   4.776 -0.2588 -1.4974 -4.5839
  962MOL0     H29813   8.020   0.930   4.674  1.1461  1.2695  0.3367
  962MOL0     H29814   7.898   1.015   4.581 -0.5761  0.6976  1.3331
  962MOL0     H29815   8.038   1.143   4.825 -0.9481 -1.0014 -0.1656
  962MOL0     H29816   8.074   1.163   4.651  0.6261 -2.3279 -0.5805
  962MOL0     H29817   7.845   1.212   4.844 -0.2222 -2.5165 -0.3987
  962MOL0     H29818   7.806   1.232   4.670  1.0394  2.5739 -0.6792
  962MOL0     H29819   7.851   1.437   4.824  0.1626  1.8871 -0.5596
  962MOL0     H29820   8.027   1.384   4.817  2.1795 -5.6358 -2.3226
  962MOL0     H29821   8.139   1.543   4.638 -1.4089 -1.0940  1.6682
  962MOL0     H29822   8.138   1.747   4.463  0.3338  1.0281  1.0950
  962MOL0     H29823   8.056   1.698   4.321 -1.1389 -0.9193  0.4122
  962MOL0     H29824   7.903   1.836   4.312  0.9023 -0.0493 -0.7326
  962MOL0     H29825   7.874   1.853   4.493  1.4879 -0.4300  0.6465
  962MOL0     H29826   8.083   2.000   4.337  1.3518  0.3004  1.4926
  962MOL0     H29827   8.082   1.980   4.517  3.2002  0.8088 -1.0031
  962MOL0     H29828   7.862   2.115   4.354  0.7272 -2.5393 -1.0878
  962MOL0     H29829   8.003   2.190   4.421 -1.8077  2.5358  2.0494
  962MOL0     H29830   7.838   2.372   4.502 -0.8080  1.2176 -1.3597
  962MOL0     H29831   7.620   2.485   4.555  1.1962  0.1179 -0.8114
  962MOL0     H29832   7.296   2.713   4.446  0.8302 -1.0952  0.0331
  962MOL0     H29833   7.125   2.884   4.546 -2.6769 -1.7569 -0.9172
  962MOL0     H29834   6.954   2.965   4.644 -1.8636  2.9881  0.8255
  962MOL0     H29835   6.851   2.951   4.777 -0.6998  3.7191 -0.7075
  962MOL0     H29836   6.946   3.150   4.836  0.0794  2.2240 -2.2810
  962MOL0     H29837   7.049   3.047   4.924  0.9464  0.9575 -1.6179
  962MOL0     H29838   7.223   3.064   4.775 -1.5327 -1.1868  3.1526
  962MOL0     H29839   7.137   3.158   4.652 -1.7333  0.0902  0.1833
  962MOL0     H29840   7.163   3.246   4.926  1.4170 -0.4870  0.0316
  962MOL0     H29841   7.051   3.324   4.811  0.9222  2.6012  2.7172
  962MOL0     H29842   7.243   3.373   4.658 -0.6712  2.9570  0.1175
  962MOL0     H29843   7.354   3.338   4.798 -0.0090  0.5466  0.4193
  962MOL0     H29844   7.289   3.546   4.884  0.3373  0.2875 -1.6663
  962MOL0     H29845   7.292   3.581   4.718 -0.5285  1.1056  0.0626
  962MOL0     H29846   7.042   3.528   4.866 -0.4023 -2.3316 -1.6227
  962MOL0     H29847   7.056   3.553   4.687  0.4279  2.4682 -0.7425
  962MOL0     H29848   7.096   3.763   4.879  1.4005  0.0814 -1.6971
  962MOL0     H29849   7.161   3.776   4.712 -2.1733 -1.4367 -3.9894
  962MOL0     H29850   7.120   2.618   4.893  2.2615 -1.8359  0.0021
  962MOL0     H29851   7.273   2.485   4.807 -0.8939 -0.3732  0.9932
  962MOL0     H29852   7.438   2.101   4.609 -0.5872 -0.7550 -2.3343
  962MOL0     H29853   7.660   1.998   4.631 -2.8548 -0.5907 -1.0358
  962MOL0     H29854   8.098   0.787   5.321  3.0288 -2.1064  0.1870
  962MOL0     H29855   8.124   0.677   5.547 -0.8249  0.3311  0.7110
  962MOL0     H29856   7.887   0.394   5.860 -1.2444 -0.7429 -0.1341
  962MOL0     H29857   7.861   0.234   6.049 -1.8828  0.3122 -1.7363
  962MOL0     H29858   7.910   0.137   6.240 -1.2301 -1.7683 -0.2347
  962MOL0     H29859   8.067   0.094   6.298  1.2549 -1.3848  0.1930
  962MOL0     H29860   7.838  -0.102   6.215 -0.8734 -0.4951  1.8306
  962MOL0     H29861   7.871  -0.045   6.384 -0.0489 -5.5688  2.1867
  962MOL0     H29862   8.099  -0.135   6.357  1.3088 -0.7759 -1.4536
  962MOL0     H29863   8.060  -0.187   6.191  6.0641  0.2227  1.2800
  962MOL0     H29864   8.015  -0.362   6.398 -1.6207 -1.2476  0.2215
  962MOL0     H29865   7.881  -0.261   6.437 -1.2084  0.4013 -0.6767
  962MOL0     H29866   7.757  -0.526   6.125  0.3673  0.3611 -1.9284
  962MOL0     H29867   8.215   0.028   5.927 -0.8349  0.0734  0.5346
  962MOL0     H29868   8.270   0.259   5.622 -0.7047 -0.5694 -1.4429
  962MOL0     H29869   8.351   0.193   5.760  0.1510  0.4886 -1.3272
  962MOL0     H29870   8.253   0.090   5.649  1.0673  0.3409  0.5682
  963MOL0     O29871   3.835   4.313   0.977 -0.0484  0.0109 -0.7245
  963MOL0     C29872   3.907   4.384   0.906  0.4094 -0.4823  0.4884
  963MOL0     O29873   4.014   4.341   0.832 -0.6249 -0.1936 -0.5928
  963MOL0     C29874   4.061   4.219   0.877  0.6183 -0.5587 -0.1386
  963MOL0     C29875   4.022   4.097   0.818 -0.0306 -0.0793  1.0439
  963MOL0     C29876   4.064   3.972   0.874 -0.3301 -0.4930  0.5855
  963MOL0     C29877   4.159   3.979   0.971 -0.6534  0.0491  0.2530
  963MOL0     O29878   4.228   3.878   1.023  0.1270  0.1122 -0.1648
  963MOL0     C29879   4.184   3.737   1.016  0.3423  0.5891  0.0479
  963MOL0     C29880   4.299   3.637   1.040 -0.0380  0.2854 -0.5570
  963MOL0     C29881   4.375   3.623   0.909 -0.3787 -0.2938  0.2592
  963MOL0     C29882   4.480   3.523   0.938 -0.3124  1.0096 -1.1479
  963MOL0     C29883   4.539   3.470   0.801 -0.3781 -1.0815 -1.2182
  963MOL0     C29884   4.445   3.386   0.717  0.0357  0.0368 -1.7539
  963MOL0     C29885   4.514   3.341   0.590  0.5154 -0.0023  0.6255
  963MOL0     C29886   4.420   3.244   0.514 -0.5692  1.0203  0.0759
  963MOL0     N29887   4.500   3.172   0.409  0.0200  0.5366 -0.6620
  963MOL0     C29888   4.512   3.228   0.287  0.3759 -0.1415  0.9235
  963MOL0     C29889   4.548   3.119   0.208 -0.9109  0.6342  0.3406
  963MOL0     C29890   4.571   3.121   0.059  0.7961 -0.4250  1.0508
  963MOL0     C29891   4.687   3.203  -0.001  1.0198  0.1701  0.0033
  963MOL0     C29892   4.816   3.183   0.074 -0.3088 -0.0459 -0.3462
  963MOL0     C29893   4.873   3.055   0.035 -0.3648 -0.0151 -0.1025
  963MOL0     O29894   4.924   3.057  -0.099  0.2234 -0.7986 -0.1635
  963MOL0     C29895   5.008   2.956  -0.138 -0.6047 -0.8490 -0.0174
  963MOL0     C29896   5.046   2.954  -0.274 -0.2673 -0.1820 -0.5915
  963MOL0     C29897   5.126   2.851  -0.321  0.1526  0.2672  0.1991
  963MOL0     C29898   5.146   2.734  -0.245 -0.2016  1.1968  1.0497
  963MOL0     C29899   5.217   2.613  -0.310 -0.2392  0.2861  0.4394
  963MOL0     O29900   5.288   2.635  -0.422  0.4463  0.1929 -0.1643
  963MOL0     C29901   5.342   2.519  -0.475  0.1849 -0.9511  1.0696
  963MOL0     C29902   5.263   2.442  -0.565  0.4170  0.0524  0.0057
  963MOL0     C29903   5.300   2.320  -0.616 -0.3781  0.1548 -0.1423
  963MOL0     C29904   5.429   2.274  -0.575 -0.0676 -0.3020 -0.9754
  963MOL0     O29905   5.467   2.156  -0.647  0.1736 -0.4408 -0.5190
  963MOL0     C29906   5.606   2.128  -0.639  0.3910  0.0633 -0.3032
  963MOL0     C29907   5.670   2.028  -0.734 -0.3820  0.2698 -0.2000
  963MOL0     C29908   5.645   2.062  -0.894  0.2987 -0.1162 -0.4982
  963MOL0     C29909   5.760   2.005  -0.979  0.0766 -0.2229 -0.4092
  963MOL0     C29910   5.705   1.995  -1.128  0.0574 -0.7449 -0.3015
  963MOL0     C29911   5.813   1.948  -1.226  0.0697 -0.0988  0.5969
  963MOL0     C29912   5.768   1.959  -1.374 -0.2319 -0.2838 -0.1864
  963MOL0     C29913   5.875   1.956  -1.475 -0.0538  0.0210  0.5657
  963MOL0    Cl29914   5.984   2.088  -1.493 -0.0532 -0.2511 -0.4528
  963MOL0     C29915   5.512   2.344  -0.482  1.5485 -0.5311 -0.1779
  963MOL0     C29916   5.468   2.473  -0.444  0.4576  0.3393 -0.2866
  963MOL0     O29917   5.203   2.499  -0.254  0.9968 -0.2137  1.0145
  963MOL0     C29918   5.086   2.719  -0.121  0.0969 -0.8106 -0.3245
  963MOL0     C29919   5.037   2.838  -0.063  0.0721  0.4101 -0.3154
  963MOL0     N29920   4.558   3.006   0.287 -1.1427 -0.0059 -0.6890
  963MOL0     N29921   4.528   3.039   0.401 -0.1755  0.0226 -0.4258
  963MOL0     C29922   4.194   4.107   1.036  0.2066 -0.3788 -0.4332
  963MOL0     C29923   4.142   4.226   0.989 -0.2173 -0.2052  0.1054
  963MOL0     C29924   3.885   4.530   0.921 -0.1187 -0.5705 -0.0343
  963MOL0     C29925   3.777   4.568   1.004  0.1864 -0.7796  2.0844
  963MOL0     C29926   3.738   4.702   0.999  0.1499  0.6035 -0.1861
  963MOL0     C29927   3.807   4.796   0.928 -0.3821 -0.0754 -0.2383
  963MOL0     O29928   3.782   4.931   0.919  0.1068  1.0393  0.4619
  963MOL0     C29929   3.651   4.978   0.914  0.0867 -0.4001 -0.1276
  963MOL0     C29930   3.606   5.024   1.056 -0.7756 -0.0785  0.4550
  963MOL0     C29931   3.497   5.125   1.050  0.0551 -0.6575 -0.6960
  963MOL0     C29932   3.474   5.193   1.181 -0.4626 -0.1694 -0.3240
  963MOL0     C29933   3.596   5.273   1.228  0.6615  0.2635  0.3620
  963MOL0     C29934   3.707   5.326   1.259  0.3222 -0.1657  0.2954
  963MOL0     C29935   3.916   4.754   0.858 -0.0208 -0.7194  0.5368
  963MOL0     C29936   3.957   4.626   0.849  0.7212 -0.3960 -0.2807
  963MOL0     C29937   4.074   4.595   0.757 -1.3616 -0.1796  0.5222
  963MOL0     H29938   3.962   4.098   0.727  1.9392 -1.2534 -0.3618
  963MOL0     H29939   4.018   3.881   0.837 -0.4467 -2.3304  4.7506
  963MOL0     H29940   4.120   3.727   1.104  1.1628 -2.9718  0.4224
  963MOL0     H29941   4.126   3.715   0.926  0.4829  1.6153 -0.3020
  963MOL0     H29942   4.264   3.538   1.071 -1.1898  0.5641 -0.9104
  963MOL0     H29943   4.361   3.681   1.118 -2.1769  4.1803 -0.7944
  963MOL0     H29944   4.414   3.721   0.877 -3.0429  1.1935  1.2164
  963MOL0     H29945   4.313   3.576   0.832  0.1294 -1.5171  0.5846
  963MOL0     H29946   4.553   3.583   0.994 -2.4580  2.0887  0.6543
  963MOL0     H29947   4.443   3.431   0.984 -1.1351  1.1120 -1.5960
  963MOL0     H29948   4.557   3.573   0.767  1.2369 -0.1425  2.1004
  963MOL0     H29949   4.626   3.411   0.828 -1.2671 -1.0535  2.0349
  963MOL0     H29950   4.417   3.296   0.773  0.4484  2.5908  3.1285
  963MOL0     H29951   4.353   3.439   0.688  0.9048  2.2584 -0.6679
  963MOL0     H29952   4.608   3.287   0.607  0.5376 -0.1063  0.1880
  963MOL0     H29953   4.530   3.428   0.526 -0.8003  1.2113  1.8833
  963MOL0     H29954   4.381   3.175   0.589  0.3574  2.6612  2.1783
  963MOL0     H29955   4.341   3.298   0.460 -2.1089 -3.1920 -2.3608
  963MOL0     H29956   4.476   3.326   0.259 -2.1251 -1.8957 -2.9438
  963MOL0     H29957   4.568   3.022   0.012  0.6247  0.0094  0.1277
  963MOL0     H29958   4.477   3.165   0.025  0.6699 -1.3386  0.1784
  963MOL0     H29959   4.699   3.195  -0.109  0.2846 -0.3008 -0.0514
  963MOL0     H29960   4.660   3.305   0.029 -1.0033 -0.4835  0.5347
  963MOL0     H29961   4.806   3.183   0.183 -1.3346  2.8216 -0.3606
  963MOL0     H29962   4.891   3.255   0.041 -0.2015 -0.9346 -2.1896
  963MOL0     H29963   4.795   2.978   0.040  1.1366 -1.6532 -0.9666
  963MOL0     H29964   4.939   3.033   0.120  0.2994  1.9845 -0.0424
  963MOL0     H29965   5.005   3.030  -0.340  0.7996  0.2847 -0.7314
  963MOL0     H29966   5.167   2.866  -0.421  1.2855  3.1555  1.0292
  963MOL0     H29967   5.166   2.480  -0.596 -0.0948 -1.4611 -0.2973
  963MOL0     H29968   5.222   2.269  -0.672 -2.2044  1.5043  1.0271
  963MOL0     H29969   5.655   2.222  -0.665 -0.9501  0.8939  0.0589
  963MOL0     H29970   5.622   2.093  -0.536 -3.8571 -0.9699  0.2185
  963MOL0     H29971   5.773   2.009  -0.701 -1.7044 -1.8079  3.2293
  963MOL0     H29972   5.629   1.928  -0.724 -2.3402  1.1295  0.8672
  963MOL0     H29973   5.560   1.999  -0.923  0.1196 -0.3170  0.4349
  963MOL0     H29974   5.628   2.170  -0.908 -1.8974  0.0531  2.3608
  963MOL0     H29975   5.792   1.905  -0.948 -1.4548 -1.1394 -1.6634
  963MOL0     H29976   5.840   2.080  -0.971  2.1926 -2.4030  0.0894
  963MOL0     H29977   5.671   2.098  -1.148 -1.3646 -0.8885  1.1115
  963MOL0     H29978   5.610   1.941  -1.135 -0.0674 -0.4871 -0.6056
  963MOL0     H29979   5.905   2.006  -1.213 -0.8283  1.4423  0.2657
  963MOL0     H29980   5.839   1.842  -1.214 -0.1336 -0.1702  0.3944
  963MOL0     H29981   5.715   2.055  -1.382 -0.0171 -0.0799  0.8263
  963MOL0     H29982   5.697   1.878  -1.393 -0.0942  0.0931 -2.7308
  963MOL0     H29983   5.943   1.874  -1.451  1.8251  1.5569  0.7476
  963MOL0     H29984   5.830   1.947  -1.575  0.1349 -0.9554  0.5601
  963MOL0     H29985   5.613   2.319  -0.450  2.6562  0.9273 -2.3028
  963MOL0     H29986   5.524   2.535  -0.374 -0.5478  0.4832  0.4138
  963MOL0     H29987   5.085   2.620  -0.078  1.5504 -3.1875 -5.0445
  963MOL0     H29988   4.998   2.837   0.038 -2.8394  2.4636 -1.2885
  963MOL0     H29989   4.255   4.117   1.125 -0.2892  2.2928 -0.3131
  963MOL0     H29990   4.162   4.318   1.044  0.5055  0.7542 -1.6813
  963MOL0     H29991   3.725   4.497   1.066 -2.8594  0.2993  0.9513
  963MOL0     H29992   3.650   4.734   1.053 -0.2932  2.2704 -1.8027
  963MOL0     H29993   3.590   4.903   0.863  3.3044 -2.4555 -1.2999
  963MOL0     H29994   3.653   5.064   0.846 -0.1205  0.1336  0.5305
  963MOL0     H29995   3.688   5.070   1.112 -0.6708  1.4600 -0.8624
  963MOL0     H29996   3.578   4.936   1.113  0.1350  0.2494  1.4335
  963MOL0     H29997   3.402   5.083   1.016 -0.3338 -0.8511  0.6007
  963MOL0     H29998   3.536   5.194   0.974 -1.6551 -0.4201 -1.4231
  963MOL0     H29999   3.383   5.254   1.183  0.6869  1.6509 -1.1567
  963MOL0     H30000   3.464   5.115   1.258  0.2825  1.9626  2.0651
  963MOL0     H30001   3.795   5.360   1.308  0.9452 -0.3012 -0.6866
  963MOL0     H30002   3.962   4.838   0.807 -0.3523  0.0599  1.5011
  963MOL0     H30003   4.143   4.529   0.809 -2.0431 -0.2184  1.3911
  963MOL0     H30004   4.043   4.544   0.664  1.1695  0.4647 -0.7531
  963MOL0     H30005   4.125   4.683   0.718  0.5077 -2.1340 -1.8186
  964MOL0     O30006   4.041   3.485   0.380  0.7843 -0.5384  0.3389
  964MOL0     C30007   3.958   3.496   0.294  0.0186 -0.5841  0.2917
  964MOL0     O30008   3.914   3.404   0.207  0.0569 -0.4725 -0.0262
  964MOL0     C30009   3.989   3.289   0.176 -0.4274  0.0953 -0.8667
  964MOL0     C30010   4.000   3.247   0.047 -0.6706 -0.1098 -0.7155
  964MOL0     C30011   4.085   3.142   0.009  0.6698  1.4866 -0.6878
  964MOL0     C30012   4.158   3.069   0.105 -0.3051  0.5750  0.1668
  964MOL0     O30013   4.245   2.966   0.086 -0.3733  0.5187 -0.4175
  964MOL0     C30014   4.240   2.904  -0.043  0.0530  0.0697  0.3925
  964MOL0     C30015   4.339   2.791  -0.047 -0.9945  0.1452  0.5625
  964MOL0     C30016   4.352   2.735  -0.193 -0.0432 -0.0809 -0.4179
  964MOL0     C30017   4.222   2.670  -0.238  0.7383 -0.2691 -0.1797
  964MOL0     C30018   4.234   2.592  -0.366 -0.0514  0.8092 -0.1487
  964MOL0     C30019   4.113   2.582  -0.454  0.9022  0.0468  0.3987
  964MOL0     C30020   4.035   2.450  -0.441 -0.3647  0.5573  0.9359
  964MOL0     C30021   3.889   2.468  -0.459  0.2446  0.2665 -0.2922
  964MOL0     N30022   3.818   2.348  -0.415  0.9565  0.1610  0.6563
  964MOL0     C30023   3.786   2.245  -0.505  0.5603 -0.3065  0.0521
  964MOL0     C30024   3.758   2.137  -0.422  0.3045  2.0801 -0.0989
  964MOL0     C30025   3.723   1.998  -0.467  0.5300  0.4593 -0.5875
  964MOL0     C30026   3.570   1.981  -0.476 -0.1455  0.0779 -0.1923
  964MOL0     C30027   3.515   1.834  -0.463  0.0356 -0.2087 -0.0413
  964MOL0     C30028   3.369   1.835  -0.422 -0.3329 -0.8196  0.3902
  964MOL0     O30029   3.338   1.693  -0.420 -0.0603  0.4918 -0.1719
  964MOL0     C30030   3.225   1.655  -0.350  0.0338 -0.2695  0.1352
  964MOL0     C30031   3.131   1.740  -0.287  1.1002 -0.1063 -0.6508
  964MOL0     C30032   3.018   1.689  -0.222  1.1982 -0.3316 -0.9630
  964MOL0     C30033   3.003   1.559  -0.205  0.2283  0.1300 -0.7521
  964MOL0     C30034   2.891   1.513  -0.110 -0.6026 -0.6519  0.5073
  964MOL0     O30035   2.824   1.611  -0.037 -0.6853 -0.0192 -0.3097
  964MOL0     C30036   2.712   1.592   0.050 -1.1446  0.0262 -0.1582
  964MOL0     C30037   2.676   1.702   0.135 -0.1165  1.1949  0.1065
  964MOL0     C30038   2.557   1.700   0.203 -0.5086 -0.0019  0.5421
  964MOL0     C30039   2.470   1.594   0.193  0.5463  0.4167  0.0749
  964MOL0     O30040   2.353   1.596   0.262 -0.7373 -0.8788  0.6001
  964MOL0     C30041   2.282   1.727   0.263 -0.0895  0.1700  0.5471
  964MOL0     C30042   2.140   1.698   0.301 -0.4850  0.1968  0.2277
  964MOL0     C30043   2.068   1.601   0.209  0.4346 -0.1822  1.1642
  964MOL0     C30044   1.913   1.587   0.239  0.7613  0.0320 -0.3578
  964MOL0     C30045   1.888   1.517   0.373 -0.2483 -0.2101  0.3087
  964MOL0     C30046   1.760   1.540   0.442  0.5174  0.0207 -0.7999
  964MOL0     C30047   1.660   1.424   0.401 -0.1179 -0.3169  0.6715
  964MOL0     C30048   1.517   1.469   0.438  0.4917  1.2554 -0.3293
  964MOL0    Cl30049   1.425   1.320   0.386  0.0588 -0.0175 -0.1920
  964MOL0     C30050   2.501   1.489   0.116  0.2462 -0.3367  0.2348
  964MOL0     C30051   2.623   1.491   0.046  0.8991  0.0999  0.2612
  964MOL0     O30052   2.857   1.394  -0.114 -0.1580 -0.0044 -0.0489
  964MOL0     C30053   3.082   1.466  -0.277 -0.1841 -0.3988 -1.0012
  964MOL0     C30054   3.192   1.516  -0.347 -0.2432  0.3113  0.0758
  964MOL0     N30055   3.769   2.174  -0.293  0.0496  0.8105  0.3869
  964MOL0     N30056   3.789   2.300  -0.291  0.5339 -0.3639  0.3044
  964MOL0     C30057   4.157   3.115   0.238  0.2446  0.3611  0.8461
  964MOL0     C30058   4.073   3.220   0.268 -0.4928 -0.1013  0.0426
  964MOL0     C30059   3.900   3.639   0.280 -0.6339  1.2464 -0.1693
  964MOL0     C30060   3.922   3.729   0.390  0.4317  0.5457 -0.5769
  964MOL0     C30061   3.881   3.864   0.390  0.4970  0.0702  0.4013
  964MOL0     C30062   3.819   3.909   0.279 -0.2963 -0.3883  0.1697
  964MOL0     O30063   3.784   4.043   0.277 -0.4933  0.0840  0.5299
  964MOL0     C30064   3.729   4.102   0.167 -0.2435 -0.2511  0.0944
  964MOL0     C30065   3.672   4.238   0.223 -0.3559 -0.4948 -0.4652
  964MOL0     C30066   3.594   4.312   0.120 -1.3599 -0.2858  0.6672
  964MOL0     C30067   3.672   4.401   0.018  0.2758 -0.6728  0.0116
  964MOL0     C30068   3.603   4.422  -0.108  0.2258  0.3315 -0.5577
  964MOL0     C30069   3.553   4.435  -0.217 -0.3017  0.7046  0.0401
  964MOL0     C30070   3.802   3.827   0.166  0.4840  0.1450  0.5192
  964MOL0     C30071   3.851   3.693   0.158 -1.4099 -0.1241  0.3505
  964MOL0     C30072   3.840   3.620   0.032  0.5831 -0.8599 -0.4033
  964MOL0     H30073   3.932   3.298  -0.020 -2.2145  0.0188  0.8876
  964MOL0     H30074   4.085   3.106  -0.093  1.9586 -2.6204  0.5689
  964MOL0     H30075   4.139   2.867  -0.064  0.6928 -2.5078  1.5063
  964MOL0     H30076   4.265   2.976  -0.122  1.9816 -1.7891 -0.7915
  964MOL0     H30077   4.309   2.709   0.019  2.1532  0.4147  2.5878
  964MOL0     H30078   4.439   2.826  -0.017 -1.1532 -1.0879  2.7451
  964MOL0     H30079   4.438   2.670  -0.209  0.5947  1.0495 -1.7534
  964MOL0     H30080   4.372   2.822  -0.256  0.5651 -0.7858 -1.2119
  964MOL0     H30081   4.172   2.607  -0.164  3.7801 -2.3233  0.2991
  964MOL0     H30082   4.158   2.756  -0.260  1.0353 -0.1635 -0.6442
  964MOL0     H30083   4.313   2.626  -0.434  0.7380  0.7908  0.7425
  964MOL0     H30084   4.262   2.490  -0.339  1.4013  1.5803  1.4617
  964MOL0     H30085   4.053   2.668  -0.423  2.0408  1.5818 -1.4866
  964MOL0     H30086   4.139   2.603  -0.558  0.0371  0.6382  0.2848
  964MOL0     H30087   4.052   2.403  -0.344 -2.2928  2.8186  2.4683
  964MOL0     H30088   4.072   2.382  -0.518 -2.2898  0.3172  0.1690
  964MOL0     H30089   3.849   2.550  -0.398 -0.7708 -0.5254  0.1437
  964MOL0     H30090   3.855   2.489  -0.560 -0.2844 -3.4746 -1.0265
  964MOL0     H30091   3.774   2.250  -0.613 -3.3152  1.1854  0.3976
  964MOL0     H30092   3.765   1.984  -0.568  2.1404  3.0710 -0.3719
  964MOL0     H30093   3.772   1.927  -0.400  0.7031  2.4966  1.5611
  964MOL0     H30094   3.529   2.041  -0.394  2.6173 -0.3407  1.6104
  964MOL0     H30095   3.540   2.036  -0.566 -2.1535  0.4065  0.6081
  964MOL0     H30096   3.573   1.778  -0.389 -1.4097 -3.0836 -0.9328
  964MOL0     H30097   3.531   1.783  -0.559 -0.7482 -2.5905  1.0174
  964MOL0     H30098   3.309   1.907  -0.478  1.2582  0.1983 -0.0519
  964MOL0     H30099   3.386   1.879  -0.324 -0.4155  1.1343 -0.4404
  964MOL0     H30100   3.143   1.844  -0.314  0.1722 -0.6172 -3.3312
  964MOL0     H30101   2.944   1.762  -0.190  1.9836 -0.0972  0.4029
  964MOL0     H30102   2.726   1.796   0.153 -0.4641  1.5230 -0.6063
  964MOL0     H30103   2.531   1.792   0.255 -1.3087 -0.0712  0.2866
  964MOL0     H30104   2.329   1.793   0.336 -1.7276  0.2982  1.5408
  964MOL0     H30105   2.287   1.777   0.166  1.5933  3.7021  2.3033
  964MOL0     H30106   2.145   1.668   0.406 -0.5259  1.7752  0.7099
  964MOL0     H30107   2.093   1.797   0.300 -2.9753 -0.9114 -0.2433
  964MOL0     H30108   2.070   1.631   0.104 -0.2661  0.1580  1.2443
  964MOL0     H30109   2.109   1.500   0.222 -3.5643 -2.0363  0.9295
  964MOL0     H30110   1.870   1.522   0.162  2.6042 -1.9029  0.1878
  964MOL0     H30111   1.866   1.686   0.231 -0.9096 -0.8472 -2.9290
  964MOL0     H30112   1.964   1.551   0.444  2.5092 -1.7225 -1.7518
  964MOL0     H30113   1.902   1.410   0.356 -1.4717 -0.0415 -2.1663
  964MOL0     H30114   1.772   1.520   0.549 -1.7175  1.8498 -0.1524
  964MOL0     H30115   1.729   1.643   0.427 -0.9324 -0.0451  1.2299
  964MOL0     H30116   1.690   1.323   0.432 -2.7773 -2.7281 -3.5748
  964MOL0     H30117   1.663   1.414   0.292 -0.5696 -0.7879  0.6974
  964MOL0     H30118   1.507   1.492   0.544  0.7817 -0.7280  0.1832
  964MOL0     H30119   1.502   1.550   0.367  1.7572 -0.6767 -3.0176
  964MOL0     H30120   2.429   1.409   0.107 -0.4704  0.3956 -0.6790
  964MOL0     H30121   2.643   1.407  -0.020  1.3926  0.0497  0.4723
  964MOL0     H30122   3.083   1.358  -0.267  2.8586 -0.3142  1.1301
  964MOL0     H30123   3.262   1.439  -0.380 -1.5314 -0.3589 -1.1896
  964MOL0     H30124   4.228   3.074   0.310  1.0918  0.4527  0.0951
  964MOL0     H30125   4.083   3.238   0.374  0.8720  0.3980 -0.1537
  964MOL0     H30126   3.963   3.682   0.479  3.0142  3.0912 -0.2635
  964MOL0     H30127   3.903   3.936   0.468 -1.3466  1.7618 -0.5446
  964MOL0     H30128   3.655   4.039   0.116  0.3984 -1.2325  0.3576
  964MOL0     H30129   3.810   4.109   0.094 -0.4302 -0.1049 -0.1021
  964MOL0     H30130   3.745   4.313   0.256  0.5393 -0.7962 -1.6701
  964MOL0     H30131   3.625   4.213   0.318  1.2293 -0.7133  0.3004
  964MOL0     H30132   3.529   4.382   0.173  0.4777  1.0761  1.2299
  964MOL0     H30133   3.533   4.244   0.060 -0.4349  0.3640 -1.0798
  964MOL0     H30134   3.686   4.504   0.053  1.1311 -0.1359 -1.7696
  964MOL0     H30135   3.773   4.367  -0.004  1.0794  0.2046  2.1171
  964MOL0     H30136   3.508   4.460  -0.311 -0.9129 -2.6824 -0.7091
  964MOL0     H30137   3.756   3.868   0.077  2.8946  0.9019 -0.4505
  964MOL0     H30138   3.758   3.548   0.029 -0.1404 -0.0116 -1.2907
  964MOL0     H30139   3.833   3.695  -0.047  1.9425 -0.8059 -0.5042
  964MOL0     H30140   3.941   3.581   0.016  0.4603 -2.5688  2.2693
  965MOL0     O30141   3.421   3.205   1.156 -1.0472 -1.1573 -0.3502
  965MOL0     C30142   3.361   3.122   1.216  0.3993  0.3508 -0.0783
  965MOL0     O30143   3.314   3.152   1.340 -0.0282  0.3013 -0.4297
  965MOL0     C30144   3.346   3.069   1.449 -0.9250 -0.4712  0.3244
  965MOL0     C30145   3.462   2.993   1.462  1.8256  1.0507 -0.5750
  965MOL0     C30146   3.486   2.915   1.577 -0.0730  0.1768  0.1611
  965MOL0     C30147   3.403   2.917   1.689 -0.0496  0.5684  0.1155
  965MOL0     O30148   3.427   2.827   1.793  0.0351 -0.2931 -0.2771
  965MOL0     C30149   3.315   2.746   1.836 -0.9047  0.2841 -0.0654
  965MOL0     C30150   3.358   2.654   1.955 -0.8197  0.5434 -0.5514
  965MOL0     C30151   3.392   2.729   2.074  0.0594 -0.2011  0.2923
  965MOL0     C30152   3.539   2.758   2.074  0.1668 -0.3716  0.1178
  965MOL0     C30153   3.579   2.852   2.181  0.9564  0.6276  0.1550
  965MOL0     C30154   3.720   2.912   2.165 -0.2535 -0.0628 -1.2213
  965MOL0     C30155   3.742   2.990   2.288 -0.6809  0.1602 -0.4542
  965MOL0     C30156   3.863   3.081   2.287  0.7429 -0.2072 -0.6038
  965MOL0     N30157   3.929   3.099   2.417 -0.5342  0.1039 -0.7904
  965MOL0     C30158   4.060   3.065   2.445  0.1927  0.1108 -0.2197
  965MOL0     C30159   4.078   3.119   2.573  0.4604 -0.6501 -0.4118
  965MOL0     C30160   4.208   3.106   2.653  0.6988 -0.0109  0.1061
  965MOL0     C30161   4.241   3.231   2.728 -0.4391 -0.1156  0.8651
  965MOL0     C30162   4.361   3.211   2.821 -0.4780  0.1912  1.0931
  965MOL0     C30163   4.405   3.337   2.901  0.1090  0.0776  1.2458
  965MOL0     O30164   4.478   3.420   2.807  0.3019 -0.0329 -0.6271
  965MOL0     C30165   4.581   3.488   2.869  0.1035 -0.4242  0.1205
  965MOL0     C30166   4.698   3.517   2.794  0.4865 -0.6402 -0.9695
  965MOL0     C30167   4.812   3.570   2.873  0.5913  0.9307  0.8181
  965MOL0     C30168   4.803   3.614   3.002 -0.3120  0.3663  0.1820
  965MOL0     C30169   4.923   3.670   3.070  0.3724  0.5111 -0.5955
  965MOL0     O30170   5.044   3.650   3.006  0.1299  0.1119 -0.1255
  965MOL0     C30171   5.153   3.717   3.058  0.8930 -0.6056 -0.1341
  965MOL0     C30172   5.279   3.675   3.027  0.7840 -0.5205 -0.4178
  965MOL0     C30173   5.398   3.746   3.075 -0.7388  0.1747  0.1826
  965MOL0     C30174   5.396   3.858   3.161  0.3171  0.3982 -0.5778
  965MOL0     O30175   5.520   3.917   3.203 -0.4471 -0.1442 -0.2000
  965MOL0     C30176   5.519   4.053   3.238  0.7464 -1.5508 -0.8860
  965MOL0     C30177   5.658   4.071   3.302  0.0795  0.3756 -0.6555
  965MOL0     C30178   5.674   4.220   3.356  0.3227  0.6475  0.5354
  965MOL0     C30179   5.786   4.241   3.455  0.3192  0.1685 -0.3213
  965MOL0     C30180   5.797   4.395   3.485 -0.2793  0.2531  0.2950
  965MOL0     C30181   5.899   4.401   3.590 -0.3171  0.7658  0.3523
  965MOL0     C30182   5.967   4.530   3.603  0.2302  0.1641 -0.2821
  965MOL0     C30183   6.051   4.531   3.725 -0.0872 -0.1890  0.3629
  965MOL0    Cl30184   6.131   4.700   3.749 -0.6126 -0.1695 -0.5864
  965MOL0     C30185   5.267   3.907   3.196  0.1291  0.6954 -0.3278
  965MOL0     C30186   5.149   3.840   3.140  0.3400 -0.6208 -0.1469
  965MOL0     O30187   4.909   3.720   3.184  0.4501 -0.6610  0.6663
  965MOL0     C30188   4.684   3.607   3.071 -0.2026 -0.0491 -0.1443
  965MOL0     C30189   4.571   3.538   3.004 -1.1501 -0.1392 -0.6147
  965MOL0     N30190   3.956   3.169   2.617 -0.1897 -0.0942  0.3470
  965MOL0     N30191   3.870   3.146   2.534  0.2931 -0.1905  0.1604
  965MOL0     C30192   3.305   3.014   1.692  0.0278 -0.5910  0.0096
  965MOL0     C30193   3.263   3.074   1.563  0.2456  0.1227 -0.3145
  965MOL0     C30194   3.329   2.998   1.155 -0.1517  0.4224  0.8871
  965MOL0     C30195   3.210   2.930   1.193 -0.1122 -0.6416  0.6346
  965MOL0     C30196   3.185   2.804   1.142  0.2476  1.3066 -0.2053
  965MOL0     C30197   3.273   2.737   1.052 -1.0431 -0.4264 -0.4236
  965MOL0     O30198   3.271   2.614   1.013 -0.7005 -0.9097  0.6230
  965MOL0     C30199   3.165   2.534   1.071 -0.3129 -0.0704  0.2824
  965MOL0     C30200   3.209   2.400   1.036 -0.3351 -0.0565  0.6492
  965MOL0     C30201   3.321   2.351   1.124  0.3978  1.7902 -0.5506
  965MOL0     C30202   3.360   2.196   1.094 -0.4910 -0.8541  0.4667
  965MOL0     C30203   3.421   2.133   1.214 -0.5544 -0.3236  0.5077
  965MOL0     C30204   3.448   2.086   1.323 -0.5297  0.1411 -0.7713
  965MOL0     C30205   3.385   2.814   1.007  0.2160 -0.4386 -0.1315
  965MOL0     C30206   3.418   2.945   1.054  0.5969  0.3011 -0.3156
  965MOL0     C30207   3.537   3.019   1.007  0.3583 -0.3372  1.0732
  965MOL0     H30208   3.523   2.995   1.372 -0.5350  0.8746 -2.2604
  965MOL0     H30209   3.574   2.851   1.585 -0.0734  0.2920  1.1901
  965MOL0     H30210   3.234   2.810   1.871  0.5166  1.7289  0.6993
  965MOL0     H30211   3.273   2.682   1.758 -3.0574 -0.9432  1.9744
  965MOL0     H30212   3.437   2.580   1.939 -0.2206  0.9754  0.3044
  965MOL0     H30213   3.274   2.588   1.976 -0.4238  0.4452  0.8089
  965MOL0     H30214   3.356   2.662   2.152 -0.4424 -0.7028 -0.3500
  965MOL0     H30215   3.332   2.820   2.082 -0.1645 -0.3031 -0.1874
  965MOL0     H30216   3.576   2.657   2.095 -1.6972 -0.7346  1.9471
  965MOL0     H30217   3.584   2.791   1.980  1.4471  0.7148  1.0707
  965MOL0     H30218   3.501   2.928   2.190 -0.4927 -0.8627  0.5346
  965MOL0     H30219   3.569   2.799   2.276 -0.3267 -1.2052 -0.9492
  965MOL0     H30220   3.800   2.838   2.160 -0.3947 -0.6925  2.6685
  965MOL0     H30221   3.724   2.969   2.072  1.7984  0.4763 -0.8431
  965MOL0     H30222   3.750   2.912   2.364  0.2104 -1.4906 -2.1694
  965MOL0     H30223   3.657   3.054   2.315 -0.2552 -0.5003  2.9403
  965MOL0     H30224   3.932   3.054   2.206  3.3667  2.2126  0.6405
  965MOL0     H30225   3.828   3.181   2.262  1.8530  0.7768  1.5321
  965MOL0     H30226   4.127   2.995   2.396  3.0530  1.9592  0.8208
  965MOL0     H30227   4.199   3.016   2.715  3.1828  0.6626  1.5654
  965MOL0     H30228   4.295   3.094   2.586 -0.1387 -1.8932 -0.7180
  965MOL0     H30229   4.239   3.318   2.663 -1.9990 -0.9201 -0.2191
  965MOL0     H30230   4.152   3.255   2.788 -0.4113  0.8598  0.5268
  965MOL0     H30231   4.444   3.167   2.763 -1.8182 -1.4060  0.2798
  965MOL0     H30232   4.328   3.123   2.877  0.5390 -1.2526 -0.4594
  965MOL0     H30233   4.456   3.295   2.988 -0.4131 -1.1790  0.9661
  965MOL0     H30234   4.312   3.389   2.928 -0.3597  0.5041 -0.9720
  965MOL0     H30235   4.714   3.478   2.694 -0.8336 -2.2664 -0.5876
  965MOL0     H30236   4.903   3.581   2.815  1.1625  2.8936  2.0044
  965MOL0     H30237   5.292   3.586   2.967  1.4274 -0.5914 -0.1878
  965MOL0     H30238   5.495   3.699   3.066 -0.5957  0.0637  1.9879
  965MOL0     H30239   5.509   4.120   3.152 -0.6623  0.5706  0.8380
  965MOL0     H30240   5.434   4.066   3.305  0.6602 -0.1984 -1.2343
  965MOL0     H30241   5.665   4.006   3.390 -0.2697  0.7447 -0.3479
  965MOL0     H30242   5.742   4.058   3.234  3.4362  0.9667  3.0468
  965MOL0     H30243   5.685   4.294   3.275  1.2294  4.2919  3.6954
  965MOL0     H30244   5.580   4.246   3.406 -0.6880 -1.1783 -0.3298
  965MOL0     H30245   5.873   4.181   3.427 -1.5223 -2.0456 -1.6721
  965MOL0     H30246   5.762   4.190   3.548 -0.7821  2.4319  0.7211
  965MOL0     H30247   5.702   4.439   3.517 -1.1241 -2.4250  1.8110
  965MOL0     H30248   5.838   4.431   3.390 -1.4156 -2.9773 -1.5870
  965MOL0     H30249   5.854   4.363   3.683 -1.6245  2.9245  0.6770
  965MOL0     H30250   5.972   4.325   3.562 -1.2114 -0.2430  0.6571
  965MOL0     H30251   5.893   4.609   3.620 -2.8387 -2.6681  0.5513
  965MOL0     H30252   6.026   4.552   3.514  1.8266 -2.9503 -0.1053
  965MOL0     H30253   5.978   4.513   3.805 -0.0349  1.8966  0.9461
  965MOL0     H30254   6.133   4.460   3.720  0.0705  0.0076  0.0914
  965MOL0     H30255   5.236   3.993   3.254  0.0041  0.5908 -0.2374
  965MOL0     H30256   5.052   3.884   3.160  0.2327 -0.5197 -0.8397
  965MOL0     H30257   4.667   3.641   3.173  2.9820  0.3537  0.3597
  965MOL0     H30258   4.482   3.528   3.065 -0.8376 -2.4881 -0.4831
  965MOL0     H30259   3.248   3.038   1.781 -4.9942 -1.8235 -2.4491
  965MOL0     H30260   3.178   3.140   1.560 -0.3351 -0.5585  0.4479
  965MOL0     H30261   3.137   2.976   1.259  1.2375 -0.8142  2.3378
  965MOL0     H30262   3.100   2.753   1.186 -1.0275  2.1701 -1.5512
  965MOL0     H30263   3.064   2.550   1.034 -1.0808 -0.5128  2.0703
  965MOL0     H30264   3.155   2.539   1.180 -3.4534  1.2210  0.0538
  965MOL0     H30265   3.237   2.401   0.930 -0.1737  1.5622  0.6839
  965MOL0     H30266   3.128   2.326   1.034 -1.9397  1.5871 -2.0318
  965MOL0     H30267   3.301   2.353   1.231 -0.3251 -1.6015 -0.4947
  965MOL0     H30268   3.415   2.399   1.095  1.5396 -0.0134 -0.0164
  965MOL0     H30269   3.270   2.138   1.068 -1.7718  1.1905  0.0814
  965MOL0     H30270   3.435   2.195   1.015 -0.1162 -1.3496  0.8263
  965MOL0     H30271   3.463   2.052   1.424 -1.6876  1.3343 -0.1690
  965MOL0     H30272   3.442   2.751   0.939  0.5116 -2.6405  2.0174
  965MOL0     H30273   3.600   3.062   1.086  1.3280  3.5238 -1.5181
  965MOL0     H30274   3.597   2.954   0.942  1.3616  1.7251 -0.1876
  965MOL0     H30275   3.509   3.106   0.946 -3.0181 -2.0675 -0.0994
  966MOL0     O30276   4.519   6.600   9.829 -0.3513 -0.2824 -0.0564
  966MOL0     C30277   4.447   6.693   9.864  0.5131  0.5149  0.4857
  966MOL0     O30278   4.472   6.828   9.842 -0.8270  0.6592  0.5345
  966MOL0     C30279   4.598   6.865   9.810  0.6747 -0.4435  0.4080
  966MOL0     C30280   4.710   6.818   9.890 -0.2167  0.1925  0.4222
  966MOL0     C30281   4.839   6.863   9.866  0.8118 -0.3938 -0.3145
  966MOL0     C30282   4.854   6.943   9.753 -1.0874 -0.2025 -0.0310
  966MOL0     O30283   4.980   6.997   9.740  0.6941  0.4120  0.1699
  966MOL0     C30284   5.061   6.954   9.629 -0.1436  0.6601 -0.1993
  966MOL0     C30285   5.111   6.811   9.640 -0.4125  0.8052  0.3393
  966MOL0     C30286   5.226   6.776   9.543  0.0446 -1.0488 -0.0821
  966MOL0     C30287   5.206   6.664   9.456  0.8078 -0.8755  0.5486
  966MOL0     C30288   5.311   6.650   9.349 -0.7347 -0.2512  0.4016
  966MOL0     C30289   5.282   6.533   9.251  0.4674 -1.3833 -0.0175
  966MOL0     C30290   5.394   6.513   9.149 -0.5145 -0.9951 -0.5157
  966MOL0     C30291   5.422   6.368   9.123  1.0158  0.3338  0.9935
  966MOL0     N30292   5.512   6.337   9.005 -0.5950  0.3491 -0.5326
  966MOL0     C30293   5.647   6.345   9.009 -0.7969 -0.3772  0.0822
  966MOL0     C30294   5.680   6.331   8.874  0.5188  1.0958  0.2400
  966MOL0     C30295   5.825   6.334   8.835 -0.6107 -0.5530 -1.0270
  966MOL0     C30296   5.866   6.247   8.720  0.5332 -0.3679  0.6805
  966MOL0     C30297   5.876   6.304   8.576 -0.5947 -0.6987 -0.2539
  966MOL0     C30298   5.749   6.326   8.500 -0.4956  0.5195 -0.4984
  966MOL0     O30299   5.724   6.462   8.469 -0.1849 -0.0556  0.5517
  966MOL0     C30300   5.659   6.531   8.565  0.6252 -0.7927  0.2134
  966MOL0     C30301   5.527   6.532   8.598 -0.7768 -0.1797  0.4026
  966MOL0     C30302   5.468   6.600   8.699 -0.7654 -0.1317 -1.1468
  966MOL0     C30303   5.547   6.685   8.784  0.7405 -0.3765 -0.1856
  966MOL0     C30304   5.492   6.757   8.903 -0.4851 -0.0453  0.1650
  966MOL0     O30305   5.580   6.758   9.001 -0.5974  0.1024 -0.0539
  966MOL0     C30306   5.584   6.847   9.109  0.4744 -0.4810  0.0688
  966MOL0     C30307   5.648   6.808   9.226 -0.5691  0.7038  0.8696
  966MOL0     C30308   5.659   6.878   9.342  0.0116 -0.7547  0.7241
  966MOL0     C30309   5.579   7.004   9.343  0.6948 -0.3926 -0.9526
  966MOL0     O30310   5.558   7.087   9.461 -0.2088 -0.1957  0.4072
  966MOL0     C30311   5.578   7.026   9.589  0.4017  1.5588 -0.3611
  966MOL0     C30312   5.468   7.076   9.682  0.7388  0.0152  0.8253
  966MOL0     C30313   5.483   7.038   9.832 -0.3878 -0.0261  0.2753
  966MOL0     C30314   5.346   7.033   9.892 -0.4216 -0.0718  0.8645
  966MOL0     C30315   5.344   7.019  10.037  0.1784  0.5175 -1.1688
  966MOL0     C30316   5.201   6.978  10.097  1.3689 -0.0688  0.2331
  966MOL0     C30317   5.110   7.099  10.119  0.9050  1.6934  0.7326
  966MOL0     C30318   4.994   7.061  10.208  0.7999 -0.3091  0.1038
  966MOL0    Cl30319   5.042   7.001  10.368 -0.2327  0.3422  0.2109
  966MOL0     C30320   5.508   7.043   9.234 -0.4770  0.1474  0.7746
  966MOL0     C30321   5.513   6.975   9.110 -0.6314 -0.6285 -0.0960
  966MOL0     O30322   5.386   6.813   8.902 -0.2703 -0.0691  0.7100
  966MOL0     C30323   5.685   6.695   8.753  1.3945  0.6098  0.0270
  966MOL0     C30324   5.732   6.619   8.648  0.1611 -0.3809  0.5811
  966MOL0     N30325   5.560   6.314   8.802  0.9222  0.1514  0.3900
  966MOL0     N30326   5.458   6.320   8.876 -1.1042  1.3851 -0.3401
  966MOL0     C30327   4.751   6.969   9.669  1.0762 -0.0503  0.3436
  966MOL0     C30328   4.618   6.944   9.694 -0.2015  1.3574 -0.3021
  966MOL0     C30329   4.318   6.670   9.930  0.2109  1.2411 -0.7044
  966MOL0     C30330   4.225   6.770   9.928  0.7223 -0.0767  0.1958
  966MOL0     C30331   4.092   6.759   9.985 -0.4804 -0.7156  0.4082
  966MOL0     C30332   4.062   6.634  10.051  0.3454  0.0206 -0.0695
  966MOL0     O30333   3.943   6.627  10.124 -0.1163 -0.1981 -0.0991
  966MOL0     C30334   3.823   6.624  10.048 -0.1674 -1.6340  0.4402
  966MOL0     C30335   3.705   6.567  10.124 -0.1101  1.0199 -0.0766
  966MOL0     C30336   3.725   6.419  10.167 -0.2606 -0.1682 -0.3637
  966MOL0     C30337   3.604   6.348  10.236  0.0171 -0.9713  0.3556
  966MOL0     C30338   3.555   6.417  10.357  0.4315  0.1666  0.9550
  966MOL0     C30339   3.502   6.441  10.464  0.0202  0.0584 -0.0523
  966MOL0     C30340   4.153   6.534  10.057  1.1455  0.2331 -0.0152
  966MOL0     C30341   4.284   6.546   9.998  0.0692  0.0458  0.1705
  966MOL0     C30342   4.377   6.427  10.016 -0.4771  1.2765  0.1536
  966MOL0     H30343   4.680   6.750   9.968 -0.3029 -2.9920 -2.1838
  966MOL0     H30344   4.926   6.842   9.927  1.2301  0.9188 -0.4200
  966MOL0     H30345   5.010   6.972   9.534  1.0685  0.7333 -0.8492
  966MOL0     H30346   5.140   7.029   9.626 -0.3447  0.8639 -0.5144
  966MOL0     H30347   5.028   6.740   9.646 -0.0574  0.4277  0.8391
  966MOL0     H30348   5.158   6.794   9.737  0.7256 -3.8503 -0.7896
  966MOL0     H30349   5.321   6.763   9.594  1.3825 -0.7761 -2.3704
  966MOL0     H30350   5.232   6.863   9.476  3.1056  0.6095  2.1422
  966MOL0     H30351   5.204   6.567   9.505 -0.3826 -0.0933  2.1055
  966MOL0     H30352   5.109   6.683   9.409  1.5723  0.0650 -0.7303
  966MOL0     H30353   5.317   6.738   9.284 -1.1661  0.2388  1.0058
  966MOL0     H30354   5.412   6.648   9.391  2.5168  2.3168 -5.9295
  966MOL0     H30355   5.273   6.440   9.307  6.4536 -1.9363  0.6008
  966MOL0     H30356   5.189   6.554   9.197 -0.0839 -4.3457 -0.4072
  966MOL0     H30357   5.483   6.564   9.186 -2.2907  1.4683  0.6272
  966MOL0     H30358   5.367   6.572   9.061 -1.6910  1.4503  1.3984
  966MOL0     H30359   5.466   6.323   9.213 -0.1015 -2.3064  0.3361
  966MOL0     H30360   5.329   6.314   9.101  1.0750  0.4007  0.5789
  966MOL0     H30361   5.711   6.344   9.096 -1.8517 -1.1708  0.8749
  966MOL0     H30362   5.843   6.439   8.813 -0.7163  0.0877  1.5973
  966MOL0     H30363   5.891   6.307   8.918  1.2157  1.4319 -1.7587
  966MOL0     H30364   5.954   6.185   8.740 -1.1798 -2.6179  1.6306
  966MOL0     H30365   5.799   6.163   8.703  1.2028 -0.6343 -0.7599
  966MOL0     H30366   5.932   6.226   8.524  1.0155 -2.4105  3.6493
  966MOL0     H30367   5.935   6.395   8.589 -0.9883 -0.6865  1.8549
  966MOL0     H30368   5.660   6.274   8.537 -0.1033 -1.4966 -2.1478
  966MOL0     H30369   5.765   6.270   8.407 -2.9891 -3.1946  1.0665
  966MOL0     H30370   5.463   6.462   8.544  1.0866 -1.6867  0.0411
  966MOL0     H30371   5.362   6.588   8.719 -0.3500 -2.0628  0.1840
  966MOL0     H30372   5.696   6.711   9.218 -0.0474  0.9442  1.0294
  966MOL0     H30373   5.708   6.849   9.434 -1.3343 -0.9082  1.4160
  966MOL0     H30374   5.578   6.916   9.593 -2.6798  1.4986  3.1724
  966MOL0     H30375   5.676   7.055   9.628  0.7743  0.2453 -0.2549
  966MOL0     H30376   5.448   7.183   9.669  1.7981  0.1915  0.5472
  966MOL0     H30377   5.375   7.033   9.642  1.6058 -0.5670 -0.6460
  966MOL0     H30378   5.521   6.935   9.830 -2.0036 -0.6644 -1.7421
  966MOL0     H30379   5.566   7.095   9.874  2.6989 -5.0451  1.9519
  966MOL0     H30380   5.300   6.946   9.843  0.9359 -1.1033  1.3671
  966MOL0     H30381   5.296   7.126   9.862  1.8854  1.1731  0.6633
  966MOL0     H30382   5.391   7.108  10.079  0.7948  0.7237 -2.2650
  966MOL0     H30383   5.407   6.930  10.052  0.2626  0.3482 -2.4401
  966MOL0     H30384   5.152   6.907  10.029 -2.2259  2.8103 -0.4468
  966MOL0     H30385   5.223   6.934  10.195  1.0156  0.0813  0.3826
  966MOL0     H30386   5.071   7.115  10.018  0.4983 -0.0628  0.5678
  966MOL0     H30387   5.171   7.173  10.172  0.9742 -0.7699  4.4498
  966MOL0     H30388   4.925   7.145  10.222 -1.3125 -1.4413 -2.7067
  966MOL0     H30389   4.932   6.981  10.168  4.7400 -2.6011 -2.0448
  966MOL0     H30390   5.441   7.128   9.240 -0.1469  0.3148  2.6379
  966MOL0     H30391   5.460   7.018   9.025 -0.6431  2.1009  1.2006
  966MOL0     H30392   5.746   6.755   8.820 -0.2812  3.1926 -0.6127
  966MOL0     H30393   5.838   6.608   8.624 -0.0863  0.5895 -1.0293
  966MOL0     H30394   4.773   7.021   9.576  3.6434  2.0714  1.9740
  966MOL0     H30395   4.540   6.990   9.635 -2.0936  3.1534  3.3068
  966MOL0     H30396   4.237   6.865   9.876 -0.1641  0.0959  0.2878
  966MOL0     H30397   4.023   6.843   9.978  0.8148  0.2333 -2.9904
  966MOL0     H30398   3.836   6.565   9.957 -0.0194 -0.6266 -0.2117
  966MOL0     H30399   3.795   6.721  10.005 -0.0855 -1.9927 -0.4355
  966MOL0     H30400   3.611   6.572  10.067  0.4383  2.5820 -0.9083
  966MOL0     H30401   3.699   6.633  10.211 -0.5815 -0.4163  1.0165
  966MOL0     H30402   3.811   6.413  10.235 -1.2445 -1.0618  0.8677
  966MOL0     H30403   3.750   6.350  10.086  1.4960  2.1585 -1.9310
  966MOL0     H30404   3.519   6.350  10.166  1.8816  0.4834 -2.0385
  966MOL0     H30405   3.618   6.244  10.266 -2.1971 -1.9120 -1.4757
  966MOL0     H30406   3.452   6.443  10.559  2.7218  2.9740  1.5011
  966MOL0     H30407   4.116   6.449  10.114 -0.8695 -0.8386 -2.7060
  966MOL0     H30408   4.394   6.393   9.914 -2.8600  0.4066 -0.0141
  966MOL0     H30409   4.480   6.447  10.048 -0.1966  1.1306 -0.6325
  966MOL0     H30410   4.340   6.337  10.066  0.8596  0.2159 -0.6997
  967MOL0     O30411  11.223  10.357  10.234  0.9502 -0.2429  0.0036
  967MOL0     C30412  11.286  10.449  10.193  0.8064 -1.1556 -0.9850
  967MOL0     O30413  11.403  10.437  10.134  0.8124 -0.5406 -0.1376
  967MOL0     C30414  11.468  10.320  10.105  1.0906  0.5866  0.0995
  967MOL0     C30415  11.588  10.333  10.030  0.1366 -0.1355 -0.4066
  967MOL0     C30416  11.655  10.227   9.974 -0.3273  0.1108 -0.1553
  967MOL0     C30417  11.611  10.094  10.004 -0.5151 -0.3586  0.2001
  967MOL0     O30418  11.671   9.980   9.964  0.4084  0.4259 -0.6672
  967MOL0     C30419  11.810   9.968   9.940  0.3727 -0.1400  0.1893
  967MOL0     C30420  11.825   9.917   9.799  0.4691  0.0850  0.8803
  967MOL0     C30421  11.794  10.021   9.684 -0.1742 -0.6116 -0.3335
  967MOL0     C30422  11.635  10.008   9.641 -0.6471 -0.4311  0.6517
  967MOL0     C30423  11.594  10.130   9.546 -0.6667 -0.2684  0.4077
  967MOL0     C30424  11.454  10.130   9.488  0.3868 -0.5096 -0.6273
  967MOL0     C30425  11.342  10.103   9.587 -0.2029 -0.0734 -0.2793
  967MOL0     C30426  11.349  10.197   9.705  0.0131  0.0734 -1.6242
  967MOL0     N30427  11.352  10.335   9.652 -0.9099  0.1976 -0.6259
  967MOL0     C30428  11.425  10.443   9.698 -1.0871 -0.5759 -1.0707
  967MOL0     C30429  11.389  10.548   9.619  0.4239  0.4353 -1.2138
  967MOL0     C30430  11.459  10.678   9.603 -0.7730 -1.1444 -0.9757
  967MOL0     C30431  11.581  10.673   9.510 -0.6291  0.5582 -0.2098
  967MOL0     C30432  11.573  10.582   9.385 -0.1438  0.0749  0.7800
  967MOL0     C30433  11.686  10.613   9.283  0.1050 -0.2572 -0.6003
  967MOL0     O30434  11.696  10.747   9.221  0.1405  0.2210 -0.8281
  967MOL0     C30435  11.811  10.763   9.145  1.4970 -0.3554 -0.6313
  967MOL0     C30436  11.800  10.874   9.055 -0.2975  0.5331 -0.3394
  967MOL0     C30437  11.904  10.916   8.970  0.2021  0.5119 -0.4280
  967MOL0     C30438  12.021  10.842   8.975 -0.3508  0.0089 -0.2798
  967MOL0     C30439  12.135  10.874   8.885 -0.0290  0.6408  0.0156
  967MOL0     O30440  12.249  10.801   8.879 -0.4870 -0.4440  0.3414
  967MOL0     C30441  12.339  10.826   8.781  0.3789  0.2240  0.0344
  967MOL0     C30442  12.475  10.862   8.808  0.2185  0.2278  0.7298
  967MOL0     C30443  12.574  10.855   8.710  0.5382  0.4063  0.3993
  967MOL0     C30444  12.551  10.791   8.584  0.7156  0.3313 -0.7572
  967MOL0     O30445  12.665  10.784   8.510 -0.1357  0.0517 -0.1149
  967MOL0     C30446  12.678  10.690   8.405 -0.4777  0.4605 -0.4111
  967MOL0     C30447  12.830  10.716   8.387  0.2400 -0.0225 -0.0655
  967MOL0     C30448  12.891  10.611   8.300 -0.1188  0.6507  1.1221
  967MOL0     C30449  13.023  10.659   8.230 -0.6196  0.1628 -0.6222
  967MOL0     C30450  13.064  10.560   8.117  1.2236 -0.3224 -0.1096
  967MOL0     C30451  13.081  10.629   7.982  0.1374  1.1108  0.0961
  967MOL0     C30452  13.218  10.698   7.980  0.3839 -0.0464 -0.5185
  967MOL0     C30453  13.273  10.728   7.844 -0.3484 -0.2658  0.0655
  967MOL0    Cl30454  13.429  10.798   7.862 -0.0289  0.1125  0.6713
  967MOL0     C30455  12.422  10.744   8.556 -0.3043 -0.3009  0.3835
  967MOL0     C30456  12.320  10.767   8.658 -0.8000  0.4624  0.1434
  967MOL0     O30457  12.115  10.968   8.809 -0.1406 -0.0128  0.5851
  967MOL0     C30458  12.036  10.735   9.067 -0.3077 -0.2081 -1.1841
  967MOL0     C30459  11.934  10.693   9.153  0.9200  0.2931 -0.7627
  967MOL0     N30460  11.292  10.498   9.537 -0.1868  0.7550 -0.1663
  967MOL0     N30461  11.257  10.377   9.559  0.4093  0.2747  0.1573
  967MOL0     C30462  11.504  10.076  10.087  0.0524  0.1719  0.1032
  967MOL0     C30463  11.423  10.184  10.133  0.6998 -0.0738  0.0728
  967MOL0     C30464  11.208  10.579  10.174  0.6528 -0.6693 -0.1556
  967MOL0     C30465  11.134  10.616  10.289  0.2285  0.2768 -0.1260
  967MOL0     C30466  11.039  10.717  10.286 -1.2265 -0.2627  0.5698
  967MOL0     C30467  11.043  10.810  10.183 -0.3104  0.0117 -0.0574
  967MOL0     O30468  10.945  10.911  10.170 -0.3893  0.2155 -0.1118
  967MOL0     C30469  10.841  10.935  10.263 -0.3275  0.4087  0.2246
  967MOL0     C30470  10.747  11.052  10.241  0.0011  0.1987  0.2130
  967MOL0     C30471  10.714  11.053  10.087  0.7736  0.1676  0.1464
  967MOL0     C30472  10.586  11.124  10.045  0.1935 -0.5500  0.5572
  967MOL0     C30473  10.472  11.065  10.110  0.3893 -0.8083 -0.3303
  967MOL0     C30474  10.367  11.020  10.143 -0.1184 -0.4348 -0.2654
  967MOL0     C30475  11.137  10.786  10.082  0.3759 -0.1736  0.4301
  967MOL0     C30476  11.215  10.665  10.067  0.3058 -0.7480 -0.5088
  967MOL0     C30477  11.291  10.630   9.944 -0.1816  0.2552 -0.9797
  967MOL0     H30478  11.616  10.435  10.007  0.9552 -0.4718 -0.9830
  967MOL0     H30479  11.725  10.242   9.893  0.7692 -4.5138 -0.3690
  967MOL0     H30480  11.872  10.057   9.953  0.2927  0.1956 -1.4421
  967MOL0     H30481  11.838   9.886  10.007  3.4335 -1.2542 -2.1990
  967MOL0     H30482  11.757   9.834   9.777 -0.1953  1.4098 -2.7992
  967MOL0     H30483  11.924   9.874   9.784  0.7270  1.2060 -1.0396
  967MOL0     H30484  11.854  10.017   9.593  2.1625  3.3154  0.8177
  967MOL0     H30485  11.813  10.120   9.725  0.9377  0.1981 -2.6616
  967MOL0     H30486  11.617   9.919   9.581 -2.8503  0.1063  0.4034
  967MOL0     H30487  11.571  10.003   9.730 -0.6273  1.4837  0.8170
  967MOL0     H30488  11.611  10.229   9.589 -1.9084 -0.6242  1.7835
  967MOL0     H30489  11.665  10.130   9.462 -0.9061 -0.8030  0.2051
  967MOL0     H30490  11.429  10.215   9.424  3.1263 -0.4701 -1.7867
  967MOL0     H30491  11.439  10.045   9.420 -0.1587 -0.4179 -0.6211
  967MOL0     H30492  11.355  10.002   9.628 -0.0551  0.2571  0.4986
  967MOL0     H30493  11.243  10.099   9.539  1.4554 -4.0198 -4.1504
  967MOL0     H30494  11.268  10.193   9.778 -0.1182 -1.8523 -1.8306
  967MOL0     H30495  11.438  10.181   9.768 -1.9853 -2.5069  0.8050
  967MOL0     H30496  11.501  10.444   9.776 -0.1969  0.2659 -1.9194
  967MOL0     H30497  11.389  10.750   9.560  3.0572  2.4998 -1.7911
  967MOL0     H30498  11.499  10.726   9.693  0.3782 -2.7410 -0.5802
  967MOL0     H30499  11.602  10.770   9.463 -0.4802  0.9763  0.7062
  967MOL0     H30500  11.658  10.637   9.579 -1.3250  1.5437  1.1336
  967MOL0     H30501  11.479  10.601   9.333  0.2457  0.0972  0.0817
  967MOL0     H30502  11.579  10.477   9.413  0.3242  0.0191  0.4835
  967MOL0     H30503  11.665  10.542   9.203  0.6303  1.0532 -1.9262
  967MOL0     H30504  11.771  10.585   9.347 -2.8354 -1.9325  2.9391
  967MOL0     H30505  11.711  10.937   9.050 -1.4020 -1.0093 -4.3584
  967MOL0     H30506  11.911  11.005   8.909  1.7164  0.5662 -0.2065
  967MOL0     H30507  12.513  10.905   8.900  2.8183  1.4442 -0.8028
  967MOL0     H30508  12.675  10.889   8.728  0.6477  0.8515 -0.9602
  967MOL0     H30509  12.662  10.586   8.435  0.7382  0.5383  0.6150
  967MOL0     H30510  12.625  10.719   8.315  1.5446  2.6294 -0.9986
  967MOL0     H30511  12.839  10.819   8.352 -0.9715  0.7570  1.7521
  967MOL0     H30512  12.888  10.713   8.480  2.0982  0.6481 -1.1486
  967MOL0     H30513  12.910  10.523   8.362  0.1738  0.5900  0.9473
  967MOL0     H30514  12.829  10.585   8.214  4.1036 -0.5717 -1.8645
  967MOL0     H30515  13.090  10.666   8.316 -3.4768  1.5690  1.6861
  967MOL0     H30516  13.012  10.762   8.195 -0.8771  0.9215  1.4924
  967MOL0     H30517  12.984  10.488   8.099  2.0585 -0.6967 -2.8154
  967MOL0     H30518  13.158  10.507   8.130  2.0261  0.4579 -2.2620
  967MOL0     H30519  13.074  10.552   7.905 -1.2498  3.4502 -2.2972
  967MOL0     H30520  12.997  10.696   7.965 -1.5659 -0.9992 -0.2537
  967MOL0     H30521  13.290  10.627   8.022  2.6188  2.2297 -0.2637
  967MOL0     H30522  13.228  10.789   8.039 -1.1550 -0.1038 -0.1178
  967MOL0     H30523  13.283  10.631   7.795 -1.3768 -0.1931 -0.3199
  967MOL0     H30524  13.210  10.794   7.783  1.3308  1.5091  0.1523
  967MOL0     H30525  12.408  10.697   8.460 -1.3339 -0.4359  0.5941
  967MOL0     H30526  12.216  10.745   8.637 -2.0700  2.6502  3.3823
  967MOL0     H30527  12.140  10.706   9.082  0.3370  1.8965 -1.2650
  967MOL0     H30528  11.948  10.634   9.243  2.9880  1.3558 -0.3479
  967MOL0     H30529  11.478   9.972  10.109  0.6438  0.0935  0.4583
  967MOL0     H30530  11.326  10.163  10.176  0.6925  1.3184  0.8026
  967MOL0     H30531  11.141  10.558  10.381 -0.5775  1.5262  0.7627
  967MOL0     H30532  10.965  10.726  10.365 -1.1134  3.8342  0.4041
  967MOL0     H30533  10.897  10.956  10.355  1.1214  1.2655 -0.8141
  967MOL0     H30534  10.780  10.845  10.275  1.9135 -1.1040  1.0279
  967MOL0     H30535  10.794  11.148  10.264  2.0087 -0.2163 -1.7621
  967MOL0     H30536  10.654  11.035  10.297 -1.7253  0.4560 -2.3781
  967MOL0     H30537  10.704  10.947  10.064  0.3050  0.1638  0.3615
  967MOL0     H30538  10.794  11.097  10.025 -0.9589 -0.1014 -2.4205
  967MOL0     H30539  10.591  11.231  10.068  2.0234 -0.5827  0.4571
  967MOL0     H30540  10.577  11.119   9.936  0.0963 -0.0870  0.5408
  967MOL0     H30541  10.265  11.000  10.167  0.1067 -0.3761  0.8057
  967MOL0     H30542  11.137  10.848   9.993  0.4262  3.1413  2.5696
  967MOL0     H30543  11.393  10.660   9.966  0.4113 -2.4823  0.5152
  967MOL0     H30544  11.295  10.522   9.925  2.1418 -0.1831  1.3345
  967MOL0     H30545  11.248  10.674   9.854  0.7691  2.7078 -0.3122
  968MOL0     O30546   0.007   9.029   5.884 -0.1356  0.2032 -0.3639
  968MOL0     C30547   0.089   9.081   5.806 -0.3008 -0.3123 -0.6623
  968MOL0     O30548   0.070   9.198   5.752  0.1625  0.0749  0.6023
  968MOL0     C30549  -0.051   9.260   5.773  0.1904  1.3204  1.0330
  968MOL0     C30550  -0.085   9.344   5.877 -1.4588  0.1179  0.1785
  968MOL0     C30551  -0.214   9.382   5.900  0.0608 -0.6554 -0.4397
  968MOL0     C30552  -0.309   9.333   5.814 -0.4621  0.0733  0.1055
  968MOL0     O30553  -0.433   9.388   5.840 -0.3072  0.6681 -0.9147
  968MOL0     C30554  -0.527   9.412   5.734  0.0585 -0.1734  0.4840
  968MOL0     C30555  -0.548   9.562   5.710  0.0036  0.0523  0.2306
  968MOL0     C30556  -0.419   9.643   5.677 -0.6320  0.0501 -1.1427
  968MOL0     C30557  -0.371   9.617   5.538 -0.8006  0.4823 -0.9603
  968MOL0     C30558  -0.238   9.681   5.502 -1.2330  0.5063  0.2813
  968MOL0     C30559  -0.204   9.692   5.351  0.7444 -0.2660  0.3135
  968MOL0     C30560  -0.061   9.768   5.334  0.1461  0.1125  0.1025
  968MOL0     C30561  -0.049   9.904   5.413  0.4409  0.6443  0.4625
  968MOL0     N30562   0.086   9.966   5.376 -0.0451 -0.3949  0.3210
  968MOL0     C30563   0.198   9.947   5.452  0.5000 -0.1908 -0.4512
  968MOL0     C30564   0.297  10.000   5.386 -0.7284  0.7696  0.0822
  968MOL0     C30565   0.450  10.000   5.423  0.1625 -0.9584 -0.7218
  968MOL0     C30566   0.509   9.857   5.450 -0.2506 -0.2156 -0.3361
  968MOL0     C30567   0.659   9.860   5.464  0.2390 -0.7548  0.8653
  968MOL0     C30568   0.714   9.739   5.532 -0.4076 -0.5208  0.0825
  968MOL0     O30569   0.683   9.740   5.677 -0.5062  0.3346  0.6016
  968MOL0     C30570   0.694   9.623   5.739 -0.0032 -0.6608  0.0750
  968MOL0     C30571   0.670   9.636   5.878 -0.5793  0.6336 -0.0778
  968MOL0     C30572   0.655   9.516   5.958 -1.1139  0.2498 -0.1047
  968MOL0     C30573   0.688   9.389   5.903  0.3245  0.6085  0.0187
  968MOL0     C30574   0.666   9.269   5.998 -0.0600  0.2380  0.3463
  968MOL0     O30575   0.714   9.148   5.947  0.6105 -0.1851 -0.0366
  968MOL0     C30576   0.668   9.034   6.012 -0.1754  0.2696 -0.1113
  968MOL0     C30577   0.767   8.964   6.084 -0.1003  0.1134  0.0228
  968MOL0     C30578   0.726   8.850   6.151  0.1780 -0.3631 -0.2186
  968MOL0     C30579   0.591   8.813   6.165  0.2182  1.2293  0.0551
  968MOL0     O30580   0.568   8.702   6.248  0.0072  0.0579  0.9674
  968MOL0     C30581   0.439   8.648   6.263  0.1535  1.1002 -0.1337
  968MOL0     C30582   0.452   8.509   6.318 -0.0498 -0.3903 -0.2904
  968MOL0     C30583   0.519   8.500   6.453  0.3238 -0.0219 -0.1754
  968MOL0     C30584   0.512   8.358   6.520  0.2587 -1.0314 -0.0146
  968MOL0     C30585   0.578   8.242   6.435  1.0982  0.1526 -0.1113
  968MOL0     C30586   0.580   8.119   6.525 -0.1665 -0.2231  0.3869
  968MOL0     C30587   0.647   7.993   6.452  0.9283  0.2827  0.2633
  968MOL0     C30588   0.732   7.924   6.564 -0.1058 -0.6505  0.6262
  968MOL0    Cl30589   0.840   7.813   6.472 -0.0497  0.3669  0.7549
  968MOL0     C30590   0.491   8.877   6.089 -0.2577 -0.0011  1.0940
  968MOL0     C30591   0.533   8.993   6.019  0.2753 -0.3144 -0.2871
  968MOL0     O30592   0.596   9.284   6.091  0.8535 -0.7707  0.6215
  968MOL0     C30593   0.732   9.385   5.767  0.3451  0.3493  0.0458
  968MOL0     C30594   0.727   9.500   5.687 -0.0995  0.2866  0.1795
  968MOL0     N30595   0.248  10.050   5.267 -0.1050  0.1128 -0.1306
  968MOL0     N30596   0.119  10.015   5.255 -0.3914 -0.5376 -0.6818
  968MOL0     C30597  -0.281   9.258   5.697 -0.0208 -0.0262  0.7125
  968MOL0     C30598  -0.143   9.230   5.674 -0.9299  0.2509 -0.1377
  968MOL0     C30599   0.214   9.013   5.765  0.5308 -0.3414  0.3555
  968MOL0     C30600   0.208   8.872   5.733 -0.8997  0.4296 -1.0552
  968MOL0     C30601   0.330   8.807   5.689 -0.1604  0.4838  0.3737
  968MOL0     C30602   0.452   8.872   5.680  0.9812  0.0072 -0.1243
  968MOL0     O30603   0.568   8.813   5.658 -0.0922  0.3917  0.2583
  968MOL0     C30604   0.582   8.672   5.675  0.5912 -0.9283 -0.4715
  968MOL0     C30605   0.578   8.653   5.832 -0.1970 -1.0106  0.6691
  968MOL0     C30606   0.660   8.537   5.882 -0.6755  0.0037 -0.3465
  968MOL0     C30607   0.577   8.421   5.934  0.5447  0.4644 -0.6713
  968MOL0     C30608   0.661   8.302   5.958 -0.5596  0.5593 -0.1319
  968MOL0     C30609   0.731   8.210   5.978  0.1326 -0.2368 -0.2872
  968MOL0     C30610   0.449   9.006   5.698  0.1957  0.4679 -0.0826
  968MOL0     C30611   0.335   9.078   5.742  0.1066  0.1916 -0.2469
  968MOL0     C30612   0.354   9.230   5.760  0.3317  0.4820  0.7850
  968MOL0     H30613  -0.007   9.368   5.948 -2.0169 -0.2373  0.9301
  968MOL0     H30614  -0.242   9.430   5.993  2.1002 -0.5392  0.1516
  968MOL0     H30615  -0.505   9.355   5.643 -2.8786  0.8546 -1.0100
  968MOL0     H30616  -0.622   9.366   5.760  0.1015 -2.5202 -2.8090
  968MOL0     H30617  -0.605   9.612   5.788 -0.6089 -1.1060  0.5564
  968MOL0     H30618  -0.601   9.550   5.615  1.9003  0.9491 -1.0095
  968MOL0     H30619  -0.341   9.610   5.747 -0.2723 -0.2958 -1.7033
  968MOL0     H30620  -0.454   9.741   5.709 -0.7839 -0.8522  1.8365
  968MOL0     H30621  -0.373   9.509   5.520 -2.7588  0.4898 -0.9700
  968MOL0     H30622  -0.442   9.650   5.461  1.9745  1.7608 -3.1778
  968MOL0     H30623  -0.225   9.776   5.556 -0.7831  0.0639  0.9687
  968MOL0     H30624  -0.174   9.609   5.554 -1.8908 -3.5606 -3.8872
  968MOL0     H30625  -0.206   9.596   5.299 -4.3903  0.9132 -2.3133
  968MOL0     H30626  -0.287   9.752   5.311  0.1426 -0.6836  0.9206
  968MOL0     H30627  -0.033   9.780   5.229  0.5623 -3.5279 -0.3229
  968MOL0     H30628   0.021   9.704   5.369 -0.2149 -0.2851  0.2190
  968MOL0     H30629  -0.131   9.963   5.372  0.4135  0.5261  0.3468
  968MOL0     H30630  -0.063   9.898   5.521 -0.3577  1.7311  0.4376
  968MOL0     H30631   0.188   9.905   5.552  0.5236  0.1347 -0.3099
  968MOL0     H30632   0.505  10.059   5.349 -1.1969  0.5273 -0.6061
  968MOL0     H30633   0.455  10.065   5.510  0.4825 -3.0829  0.9383
  968MOL0     H30634   0.474   9.826   5.549 -1.3005 -0.7241 -0.8418
  968MOL0     H30635   0.467   9.788   5.376 -0.6690  2.4007 -2.6636
  968MOL0     H30636   0.676   9.950   5.523 -1.0203 -0.3848  0.6972
  968MOL0     H30637   0.703   9.874   5.365  0.6694 -1.2327  0.9835
  968MOL0     H30638   0.823   9.736   5.522 -0.3353  0.1591  0.6012
  968MOL0     H30639   0.668   9.648   5.492 -2.5479  1.0107 -1.2014
  968MOL0     H30640   0.650   9.737   5.913  0.3187  1.0691 -0.7547
  968MOL0     H30641   0.629   9.517   6.063 -3.2269 -4.0075 -0.3694
  968MOL0     H30642   0.871   8.993   6.090  0.0075 -0.1889 -0.3321
  968MOL0     H30643   0.806   8.811   6.213  0.9199  0.6101 -0.5406
  968MOL0     H30644   0.374   8.715   6.322 -1.6225  0.5161 -1.3473
  968MOL0     H30645   0.403   8.627   6.162  2.7547 -0.7786 -0.7684
  968MOL0     H30646   0.350   8.469   6.326 -0.8286  1.7764  1.8604
  968MOL0     H30647   0.505   8.446   6.246  0.3648 -1.1053  0.6131
  968MOL0     H30648   0.624   8.530   6.443 -0.3098  1.6546 -2.4798
  968MOL0     H30649   0.458   8.570   6.511  0.6357 -1.2588  1.7639
  968MOL0     H30650   0.407   8.333   6.536 -1.1877  2.2397 -3.1425
  968MOL0     H30651   0.561   8.366   6.618 -2.3763  0.1503  1.3112
  968MOL0     H30652   0.678   8.270   6.400  0.8519  1.5146  0.2234
  968MOL0     H30653   0.507   8.226   6.353  1.2121  0.3343 -0.2465
  968MOL0     H30654   0.642   8.151   6.609 -0.1055 -2.6130  1.3196
  968MOL0     H30655   0.480   8.103   6.566  0.2723 -2.5027  0.6733
  968MOL0     H30656   0.718   8.022   6.373  0.0238  2.0805  0.0655
  968MOL0     H30657   0.569   7.925   6.418 -1.1480  2.3405  0.6919
  968MOL0     H30658   0.787   7.989   6.632 -0.4467 -0.3974  0.6627
  968MOL0     H30659   0.662   7.871   6.630 -2.0494  0.3187 -0.5612
  968MOL0     H30660   0.386   8.861   6.113  0.1119  1.7730  4.5765
  968MOL0     H30661   0.463   9.068   5.983  0.0542 -0.7166 -0.6935
  968MOL0     H30662   0.757   9.292   5.718  0.0120  0.0149  0.4984
  968MOL0     H30663   0.752   9.489   5.582 -0.5366  0.7098  0.0304
  968MOL0     H30664  -0.348   9.230   5.617  0.4243  0.4335  0.1769
  968MOL0     H30665  -0.120   9.171   5.587  0.0414  0.4834 -0.0550
  968MOL0     H30666   0.121   8.808   5.742 -1.4039  1.3086  0.9597
  968MOL0     H30667   0.323   8.705   5.652 -2.4575  1.0849 -1.0685
  968MOL0     H30668   0.678   8.641   5.632  1.3344  0.7218 -0.0994
  968MOL0     H30669   0.500   8.615   5.631 -0.4518  1.1749 -1.3899
  968MOL0     H30670   0.476   8.652   5.872 -0.1875 -2.0557  0.7144
  968MOL0     H30671   0.629   8.742   5.869 -0.0935 -0.4800 -0.7167
  968MOL0     H30672   0.724   8.573   5.963  0.7491 -0.3744 -1.2721
  968MOL0     H30673   0.737   8.497   5.816 -1.2571 -0.2850 -0.8614
  968MOL0     H30674   0.520   8.442   6.025 -2.2428 -0.2945 -2.1165
  968MOL0     H30675   0.502   8.397   5.858 -1.0068  3.0394 -0.0778
  968MOL0     H30676   0.779   8.114   5.973  1.1700  0.3208 -3.6308
  968MOL0     H30677   0.539   9.066   5.692 -0.7644  2.2339  1.8424
  968MOL0     H30678   0.452   9.259   5.722  0.9154  1.7703  3.0756
  968MOL0     H30679   0.283   9.287   5.699  3.7760  2.8835 -1.3396
  968MOL0     H30680   0.343   9.252   5.866 -0.6900 -1.8246  1.2079
  969MOL0     O30681   8.288   2.380  10.258 -0.2273  0.8713 -0.5234
  969MOL0     C30682   8.299   2.468  10.342  0.8170 -0.2445  0.2042
  969MOL0     O30683   8.322   2.598  10.314 -0.6121 -0.1368  0.1354
  969MOL0     C30684   8.362   2.617  10.185 -0.1167  0.3798 -0.8828
  969MOL0     C30685   8.267   2.650  10.090 -0.3056  0.7217  0.6356
  969MOL0     C30686   8.302   2.679   9.962 -0.7019  0.6439  0.2393
  969MOL0     C30687   8.433   2.652   9.914 -0.6696 -0.9899  0.2968
  969MOL0     O30688   8.476   2.675   9.783 -0.4334 -0.0589  0.0283
  969MOL0     C30689   8.385   2.725   9.688  0.4673  0.2644 -0.1365
  969MOL0     C30690   8.472   2.801   9.590 -0.2479 -0.5336 -1.1196
  969MOL0     C30691   8.397   2.861   9.477  1.0707  0.6689 -0.3217
  969MOL0     C30692   8.309   2.983   9.509  0.3526 -0.2306  0.3796
  969MOL0     C30693   8.256   3.053   9.389  0.2342 -0.0021 -0.4227
  969MOL0     C30694   8.148   2.977   9.315  0.1410  0.2784  1.4377
  969MOL0     C30695   8.097   3.049   9.192  0.0043 -0.3805 -0.2500
  969MOL0     C30696   8.059   3.194   9.201  0.2579  0.5394  1.2319
  969MOL0     N30697   8.005   3.241   9.070  0.0947 -0.0974  0.0486
  969MOL0     C30698   7.902   3.321   9.064  0.2613 -1.4426  0.1832
  969MOL0     C30699   7.891   3.375   8.941 -0.2530  0.1711  0.5375
  969MOL0     C30700   7.792   3.466   8.890  0.3720  0.5152  0.2037
  969MOL0     C30701   7.707   3.403   8.778 -0.4638 -0.4869  0.0477
  969MOL0     C30702   7.584   3.491   8.750 -0.1371 -0.1820  0.2981
  969MOL0     C30703   7.456   3.421   8.800  0.2738 -0.3565 -0.5660
  969MOL0     O30704   7.468   3.406   8.946  0.8862  0.5829  0.3963
  969MOL0     C30705   7.353   3.436   9.005  0.5101  0.4886 -0.3933
  969MOL0     C30706   7.315   3.564   9.057 -0.8330  0.6978 -0.5258
  969MOL0     C30707   7.189   3.575   9.126 -0.2790  0.4229 -0.5975
  969MOL0     C30708   7.110   3.460   9.144 -0.5327 -0.0716 -0.4107
  969MOL0     C30709   6.987   3.461   9.218 -0.3209 -0.9112  0.8326
  969MOL0     O30710   6.967   3.344   9.290 -0.4257 -1.4180 -0.3449
  969MOL0     C30711   6.844   3.310   9.337  0.6174  0.0718 -0.0927
  969MOL0     C30712   6.842   3.192   9.408  0.4784  0.5875 -0.2204
  969MOL0     C30713   6.722   3.124   9.436 -0.6135 -0.3555 -0.2123
  969MOL0     C30714   6.600   3.173   9.398 -0.2961 -0.7362  0.3719
  969MOL0     O30715   6.484   3.105   9.432 -0.2238  0.1853  0.2196
  969MOL0     C30716   6.385   3.070   9.323 -0.3243  0.0913 -0.6609
  969MOL0     C30717   6.259   2.970   9.349 -1.3728 -0.7831  0.5109
  969MOL0     C30718   6.142   3.047   9.408  0.5167 -0.7605 -1.2022
  969MOL0     C30719   6.038   2.944   9.454  0.9485  0.1537  0.6198
  969MOL0     C30720   5.907   3.016   9.482  1.0512  0.2116 -0.5212
  969MOL0     C30721   5.804   2.922   9.536  0.4326 -0.4516 -0.5286
  969MOL0     C30722   5.699   2.871   9.427 -0.8684 -0.0629  0.4514
  969MOL0     C30723   5.677   2.716   9.439 -0.1655  0.4234 -0.6775
  969MOL0    Cl30724   5.558   2.702   9.566 -0.1130 -0.3026  0.3780
  969MOL0     C30725   6.602   3.303   9.342 -0.5363  0.0216  0.9879
  969MOL0     C30726   6.726   3.360   9.304  0.2301 -0.2132  0.0295
  969MOL0     O30727   6.912   3.565   9.206 -0.1945 -0.3336  0.0706
  969MOL0     C30728   7.150   3.338   9.090  1.0848 -0.0882  0.2178
  969MOL0     C30729   7.261   3.328   9.016 -0.0929 -0.9259  0.5648
  969MOL0     N30730   8.001   3.311   8.875 -0.0596 -0.5554 -0.1817
  969MOL0     N30731   8.063   3.222   8.942  0.6570  0.7972 -0.4091
  969MOL0     C30732   8.530   2.611  10.004  0.4175 -0.2586  0.3628
  969MOL0     C30733   8.496   2.594  10.141  0.0550 -0.7460 -0.6338
  969MOL0     C30734   8.273   2.451  10.486 -0.9247  0.0664 -0.3253
  969MOL0     C30735   8.278   2.562  10.580 -0.3980  0.7379  0.4911
  969MOL0     C30736   8.265   2.551  10.724  0.0608 -1.2750  0.3300
  969MOL0     C30737   8.242   2.425  10.779 -0.0158 -1.3098  0.2174
  969MOL0     O30738   8.218   2.398  10.912  0.5674  1.3305  0.2027
  969MOL0     C30739   8.138   2.485  11.002  0.0248 -0.3260 -0.5134
  969MOL0     C30740   8.108   2.406  11.133  0.6303 -1.0052 -0.2704
  969MOL0     C30741   8.221   2.371  11.224 -0.7859  0.0929 -0.7997
  969MOL0     C30742   8.315   2.274  11.161 -0.4845  0.2812 -0.5660
  969MOL0     C30743   8.380   2.196  11.272  0.0798 -0.1580  0.5428
  969MOL0     C30744   8.423   2.139  11.372  0.6255 -0.3662 -0.7372
  969MOL0     C30745   8.246   2.317  10.694  0.6455 -0.3807 -0.0177
  969MOL0     C30746   8.247   2.324  10.548  0.4399  0.5511 -1.0191
  969MOL0     C30747   8.224   2.185  10.469  0.1055  0.7499 -0.6387
  969MOL0     H30748   8.164   2.670  10.116 -0.6770  1.5372 -1.2300
  969MOL0     H30749   8.234   2.729   9.894 -0.6891 -0.5348 -0.6828
  969MOL0     H30750   8.327   2.644   9.644  3.5141 -2.3335  0.2475
  969MOL0     H30751   8.320   2.804   9.726 -1.5154 -0.9042 -0.9354
  969MOL0     H30752   8.529   2.723   9.540  0.9179  0.5826 -1.6052
  969MOL0     H30753   8.544   2.869   9.636  1.6671 -3.6569  0.8369
  969MOL0     H30754   8.342   2.777   9.434  1.6222 -0.3212  0.8187
  969MOL0     H30755   8.472   2.893   9.405  3.5773 -2.5385  0.6074
  969MOL0     H30756   8.226   2.955   9.575 -0.1905 -2.7418 -1.2305
  969MOL0     H30757   8.365   3.058   9.565  1.3946 -0.7962  0.1253
  969MOL0     H30758   8.225   3.155   9.414  3.2445  1.4538 -1.9387
  969MOL0     H30759   8.339   3.073   9.320 -0.6374  5.2937 -0.3374
  969MOL0     H30760   8.182   2.876   9.294  0.4712  0.6717 -0.0212
  969MOL0     H30761   8.059   2.968   9.379 -1.7545 -3.3632 -1.3612
  969MOL0     H30762   8.006   3.002   9.155 -0.2505  1.4153 -2.0905
  969MOL0     H30763   8.168   3.037   9.110 -0.5847 -1.0392 -0.6761
  969MOL0     H30764   7.991   3.203   9.286 -1.8848 -2.0169 -0.1026
  969MOL0     H30765   8.146   3.256   9.227  1.4999 -1.9025  3.3564
  969MOL0     H30766   7.837   3.353   9.145  0.6084 -0.1449 -0.0424
  969MOL0     H30767   7.729   3.494   8.975  0.5739  4.3740 -0.7530
  969MOL0     H30768   7.841   3.553   8.846  0.9250  1.6016  2.7812
  969MOL0     H30769   7.774   3.412   8.691 -2.3419 -1.2188 -1.5429
  969MOL0     H30770   7.681   3.302   8.811  1.2453 -0.8426  0.4234
  969MOL0     H30771   7.577   3.506   8.641  1.2298 -0.0254  0.2169
  969MOL0     H30772   7.603   3.592   8.786  3.1994 -0.3468 -0.7125
  969MOL0     H30773   7.443   3.325   8.750  0.9089  0.2600 -1.9479
  969MOL0     H30774   7.366   3.478   8.774 -1.7138 -3.2705 -0.5007
  969MOL0     H30775   7.380   3.649   9.044  0.2728 -0.0005  0.3018
  969MOL0     H30776   7.149   3.669   9.162  2.1830  0.7586  1.6198
  969MOL0     H30777   6.938   3.142   9.420  0.1482 -0.0660 -0.2773
  969MOL0     H30778   6.716   3.030   9.489 -4.3313 -0.0491  0.2073
  969MOL0     H30779   6.353   3.165   9.280 -0.0549  1.2547  1.6247
  969MOL0     H30780   6.443   3.017   9.247  1.3834 -3.9382  2.9951
  969MOL0     H30781   6.244   2.917   9.254  2.7764 -2.2400  0.4467
  969MOL0     H30782   6.301   2.895   9.416  1.3674  0.2918  0.1192
  969MOL0     H30783   6.173   3.092   9.503 -1.3327 -3.3573  0.7645
  969MOL0     H30784   6.114   3.139   9.356  0.8016  1.5518  2.3463
  969MOL0     H30785   6.073   2.882   9.537  0.1149  1.6901  2.1896
  969MOL0     H30786   6.011   2.859   9.391  2.2503  0.1394  0.0508
  969MOL0     H30787   5.871   3.069   9.394  2.0176  1.2193 -0.3390
  969MOL0     H30788   5.925   3.092   9.559  1.9828 -1.4801  0.9954
  969MOL0     H30789   5.854   2.840   9.587 -0.0207 -1.2300 -1.3045
  969MOL0     H30790   5.742   2.974   9.609  2.8796 -0.4669  1.6860
  969MOL0     H30791   5.743   2.891   9.328  3.8768  0.7763  2.4603
  969MOL0     H30792   5.608   2.931   9.432  0.0099  1.2038  1.7901
  969MOL0     H30793   5.634   2.679   9.345 -0.5488 -0.6218 -0.1067
  969MOL0     H30794   5.763   2.651   9.459 -1.3905 -0.5801  1.8204
  969MOL0     H30795   6.516   3.363   9.315 -1.0436 -0.0322  2.3858
  969MOL0     H30796   6.725   3.450   9.244  0.2838 -0.7171 -0.7434
  969MOL0     H30797   7.086   3.252   9.109 -0.0498  0.7215  0.1379
  969MOL0     H30798   7.284   3.234   8.966 -1.3401 -0.1659 -1.5643
  969MOL0     H30799   8.626   2.584   9.961 -0.2668  3.3056 -4.0557
  969MOL0     H30800   8.561   2.555  10.219  0.0200  1.0965  0.3827
  969MOL0     H30801   8.274   2.663  10.540 -0.1401  0.6095  0.1439
  969MOL0     H30802   8.260   2.644  10.779  3.7472  1.0328 -2.7623
  969MOL0     H30803   8.051   2.515  10.944 -0.8078 -1.8259 -0.0839
  969MOL0     H30804   8.194   2.574  11.032  0.7151 -1.8146  3.1534
  969MOL0     H30805   8.051   2.315  11.111  2.4819 -1.8603 -1.7982
  969MOL0     H30806   8.050   2.477  11.193  0.9484 -1.6519  0.8221
  969MOL0     H30807   8.188   2.347  11.325  0.4413  2.1696  0.1710
  969MOL0     H30808   8.278   2.464  11.235 -1.4536  0.5301 -0.9803
  969MOL0     H30809   8.278   2.195  11.096  2.3299 -0.6489 -1.1995
  969MOL0     H30810   8.382   2.340  11.104 -0.3516 -1.2171 -2.2164
  969MOL0     H30811   8.461   2.101  11.464 -1.4492  3.5554  2.0321
  969MOL0     H30812   8.222   2.220  10.737 -2.4393  0.0653 -0.4868
  969MOL0     H30813   8.121   2.164  10.440 -0.6233  2.6609  0.3733
  969MOL0     H30814   8.303   2.155  10.399 -2.0134 -1.3904 -2.2873
  969MOL0     H30815   8.233   2.103  10.541 -1.1097  1.5667  0.4905
  970MOL0     O30816   2.999  11.238   1.515  0.6369 -0.0743 -0.1220
  970MOL0     C30817   3.117  11.275   1.512 -0.0770  0.2095  0.5276
  970MOL0     O30818   3.162  11.344   1.407  0.5697  0.1781 -0.3657
  970MOL0     C30819   3.065  11.393   1.320 -0.3580 -0.7108 -0.3200
  970MOL0     C30820   3.047  11.530   1.317 -0.0376 -0.2219  0.3864
  970MOL0     C30821   2.955  11.584   1.221  0.0696  0.4274 -0.1196
  970MOL0     C30822   2.883  11.502   1.134  0.2483 -0.0508  0.9091
  970MOL0     O30823   2.777  11.550   1.064 -0.1867 -0.1306  0.5887
  970MOL0     C30824   2.789  11.668   0.980 -0.5349 -1.1867  0.3775
  970MOL0     C30825   2.916  11.678   0.906 -0.5108 -0.2485 -0.4926
  970MOL0     C30826   2.960  11.551   0.823  0.2140 -0.9492  0.7817
  970MOL0     C30827   2.866  11.462   0.752  0.5978 -0.4024  0.3762
  970MOL0     C30828   2.952  11.362   0.677  0.8591  0.2757 -0.2631
  970MOL0     C30829   2.875  11.298   0.576 -0.0378  0.7380  0.6676
  970MOL0     C30830   2.951  11.212   0.473  0.5273  0.0988  0.6800
  970MOL0     C30831   2.947  11.067   0.524  0.4163 -1.2571  0.2841
  970MOL0     N30832   3.024  10.972   0.439  0.5959  0.5567 -0.1224
  970MOL0     C30833   3.125  10.887   0.468  0.2478  0.8353 -0.8236
  970MOL0     C30834   3.173  10.841   0.353 -0.6226 -0.3358 -0.1649
  970MOL0     C30835   3.273  10.741   0.328  0.2535 -0.2820 -0.4363
  970MOL0     C30836   3.220  10.610   0.267 -0.1617 -0.2577  0.2770
  970MOL0     C30837   3.311  10.493   0.299 -0.6856  0.1615 -0.7766
  970MOL0     C30838   3.449  10.496   0.231  0.1522  0.1765 -0.2229
  970MOL0     O30839   3.514  10.380   0.296  0.1245 -0.3608  0.1539
  970MOL0     C30840   3.605  10.378   0.404  0.2230 -0.0195 -0.0755
  970MOL0     C30841   3.684  10.483   0.427 -0.4355  0.4485 -0.1874
  970MOL0     C30842   3.782  10.475   0.530  0.1670  0.0359  0.0069
  970MOL0     C30843   3.800  10.357   0.609  0.1042  0.1886 -0.6731
  970MOL0     C30844   3.896  10.350   0.721  0.3529  0.7087 -1.0316
  970MOL0     O30845   3.957  10.230   0.741  0.3421 -0.0005 -0.0858
  970MOL0     C30846   4.064  10.213   0.822 -0.8037  0.5768 -0.4285
  970MOL0     C30847   4.102  10.296   0.925  0.2629 -0.2226 -0.4697
  970MOL0     C30848   4.214  10.267   1.005 -0.3559  0.2153 -0.9884
  970MOL0     C30849   4.273  10.137   1.004  0.4584  0.1267 -0.5680
  970MOL0     O30850   4.365  10.088   1.099  0.3980 -0.9701  0.0653
  970MOL0     C30851   4.486  10.171   1.111 -0.3521  0.1425 -1.1132
  970MOL0     C30852   4.585  10.105   1.203  1.0093  0.1032  0.2280
  970MOL0     C30853   4.571  10.149   1.355  0.2236  0.6100 -0.2705
  970MOL0     C30854   4.443  10.091   1.423 -0.5230 -0.0099  0.4385
  970MOL0     C30855   4.436  10.085   1.573 -0.0310 -0.5417 -0.5129
  970MOL0     C30856   4.474  10.225   1.634  0.3804  0.2091 -0.6038
  970MOL0     C30857   4.457  10.218   1.787 -0.7592  0.6087  0.1026
  970MOL0     C30858   4.573  10.287   1.862  0.3055 -0.3751  0.1547
  970MOL0    Cl30859   4.724  10.179   1.885 -0.2231  0.1385  0.1690
  970MOL0     C30860   4.222  10.048   0.913 -0.1490  0.1586 -0.2336
  970MOL0     C30861   4.117  10.082   0.828 -0.3990  0.3781 -0.2735
  970MOL0     O30862   3.899  10.446   0.792  0.2811 -0.4893  0.0002
  970MOL0     C30863   3.712  10.253   0.588  0.2838  0.1060  0.1319
  970MOL0     C30864   3.622  10.265   0.482 -0.2414  0.2215 -0.1240
  970MOL0     N30865   3.107  10.899   0.246 -0.4378 -0.5083  0.0805
  970MOL0     N30866   3.022  10.977   0.308  0.7206 -0.0908  1.1408
  970MOL0     C30867   2.911  11.361   1.141  0.4464  0.4881 -0.2088
  970MOL0     C30868   2.993  11.305   1.239  0.4133  0.4559  0.6245
  970MOL0     C30869   3.229  11.250   1.610 -0.3408  1.1565 -0.2352
  970MOL0     C30870   3.360  11.238   1.561  1.0678  0.6895  0.5815
  970MOL0     C30871   3.471  11.207   1.636  0.0259 -1.5067  0.2914
  970MOL0     C30872   3.459  11.198   1.775 -0.1959  0.2247 -0.4493
  970MOL0     O30873   3.567  11.167   1.853  0.0429  0.0822 -0.4326
  970MOL0     C30874   3.705  11.174   1.801  0.5819 -0.4323 -0.0838
  970MOL0     C30875   3.745  11.057   1.712 -0.1050 -0.4517  0.1187
  970MOL0     C30876   3.688  10.925   1.771 -1.1161  0.3645  0.6920
  970MOL0     C30877   3.778  10.809   1.719  0.4562 -0.5516  0.4417
  970MOL0     C30878   3.917  10.806   1.764  0.6922 -0.6516 -0.0747
  970MOL0     C30879   4.034  10.788   1.797 -0.2393 -0.1903  0.6031
  970MOL0     C30880   3.331  11.213   1.830  0.4006  0.3818 -1.2831
  970MOL0     C30881   3.213  11.228   1.748 -0.8946 -0.5200 -1.4874
  970MOL0     C30882   3.083  11.215   1.813 -0.9643 -0.1281  0.0298
  970MOL0     H30883   3.105  11.596   1.381 -0.6833  1.8786 -1.0938
  970MOL0     H30884   2.920  11.686   1.232  1.3304  0.8966 -0.2811
  970MOL0     H30885   2.700  11.681   0.917 -1.6927  0.0285  2.1503
  970MOL0     H30886   2.783  11.757   1.044 -2.3269 -0.6833 -0.4113
  970MOL0     H30887   3.001  11.710   0.966  0.0189  0.5816 -1.6401
  970MOL0     H30888   2.892  11.753   0.831 -0.6965 -0.1468 -0.3311
  970MOL0     H30889   3.030  11.483   0.872  0.9190 -1.7063 -1.1668
  970MOL0     H30890   3.025  11.594   0.746 -0.9815  0.3110  0.4324
  970MOL0     H30891   2.798  11.408   0.818  0.0140  0.8782  0.8677
  970MOL0     H30892   2.798  11.534   0.704 -1.6721 -0.3618  3.3553
  970MOL0     H30893   3.034  11.409   0.623  0.4716 -1.3747 -2.4573
  970MOL0     H30894   2.992  11.289   0.749 -0.7241 -1.9941 -1.5423
  970MOL0     H30895   2.798  11.238   0.626 -2.1482 -0.8993 -3.8997
  970MOL0     H30896   2.831  11.377   0.514 -2.1780  0.7261  2.0815
  970MOL0     H30897   3.057  11.235   0.458  1.1761 -2.4583  0.9056
  970MOL0     H30898   2.889  11.222   0.383 -1.9443 -3.1418  1.8155
  970MOL0     H30899   2.982  11.074   0.627  0.8572 -1.8852  0.1818
  970MOL0     H30900   2.843  11.035   0.534 -0.4976  0.8348 -1.4232
  970MOL0     H30901   3.149  10.853   0.568 -1.9038 -1.2851 -0.9373
  970MOL0     H30902   3.340  10.779   0.250 -0.8433  0.0868 -1.2352
  970MOL0     H30903   3.321  10.709   0.420 -2.1255 -0.2207  0.9001
  970MOL0     H30904   3.119  10.583   0.297 -0.5555  1.0203  0.1742
  970MOL0     H30905   3.208  10.623   0.159  3.0765  2.4486  0.0687
  970MOL0     H30906   3.266  10.393   0.288  3.3071 -1.9416  0.0647
  970MOL0     H30907   3.337  10.502   0.405  3.9074  0.6740 -1.7347
  970MOL0     H30908   3.508  10.588   0.227 -1.8434  1.5504  0.1301
  970MOL0     H30909   3.432  10.471   0.126 -1.4629  1.7458 -0.3927
  970MOL0     H30910   3.661  10.578   0.379 -0.7470 -0.1532 -1.2739
  970MOL0     H30911   3.845  10.560   0.552 -0.2274  0.2224  0.4264
  970MOL0     H30912   4.052  10.391   0.943 -2.4094 -1.9937  2.5883
  970MOL0     H30913   4.253  10.343   1.072 -0.3839 -0.0725 -0.6408
  970MOL0     H30914   4.532  10.175   1.012  0.1193 -0.8749 -0.9576
  970MOL0     H30915   4.461  10.265   1.160 -1.8183 -2.0867  2.9434
  970MOL0     H30916   4.578   9.996   1.208  1.5435  0.1189  2.3465
  970MOL0     H30917   4.690  10.119   1.175  0.7720 -0.2340 -0.8413
  970MOL0     H30918   4.654  10.102   1.410 -1.0941  0.1898  1.4257
  970MOL0     H30919   4.566  10.257   1.368  1.1297  0.7463 -0.9320
  970MOL0     H30920   4.432   9.991   1.379  3.3417 -0.5438  0.3733
  970MOL0     H30921   4.357  10.147   1.386 -0.7314 -1.0995 -0.8088
  970MOL0     H30922   4.509  10.012   1.608  0.5979 -0.0583 -0.7967
  970MOL0     H30923   4.336  10.052   1.603  1.0057  0.3170  5.0937
  970MOL0     H30924   4.577  10.253   1.608  0.7719  0.2042  0.8389
  970MOL0     H30925   4.404  10.293   1.585  0.7433 -0.1779 -1.6970
  970MOL0     H30926   4.446  10.113   1.814 -3.6614  0.9979  0.7926
  970MOL0     H30927   4.363  10.270   1.810 -0.8437 -0.4315  2.3105
  970MOL0     H30928   4.608  10.378   1.812 -2.7322  1.1349  0.5308
  970MOL0     H30929   4.540  10.320   1.962  0.2703 -2.8892  1.0377
  970MOL0     H30930   4.276   9.954   0.901 -0.6628 -0.3839  1.3929
  970MOL0     H30931   4.079  10.006   0.760 -0.9199  1.1407 -0.8439
  970MOL0     H30932   3.725  10.159   0.640  5.0298 -0.1275 -1.0654
  970MOL0     H30933   3.576  10.172   0.450  0.1489  0.8332 -2.6505
  970MOL0     H30934   2.855  11.290   1.080  2.8711 -0.4211 -1.5148
  970MOL0     H30935   2.998  11.196   1.243  0.3501  0.1745 -2.9725
  970MOL0     H30936   3.366  11.256   1.454 -0.5820 -0.2168  0.3145
  970MOL0     H30937   3.556  11.203   1.569 -1.3970 -2.7455 -1.5608
  970MOL0     H30938   3.775  11.167   1.886  0.9762 -0.6218 -0.4201
  970MOL0     H30939   3.724  11.271   1.753  2.2665  0.3621  1.9810
  970MOL0     H30940   3.854  11.064   1.710 -0.0229 -1.4738  0.3825
  970MOL0     H30941   3.708  11.075   1.611 -1.2089  1.7604  0.8334
  970MOL0     H30942   3.590  10.911   1.726 -0.6578 -2.8581  0.4374
  970MOL0     H30943   3.688  10.920   1.881  3.9659  0.5682  0.9566
  970MOL0     H30944   3.729  10.718   1.757  1.2316 -0.4092  1.8639
  970MOL0     H30945   3.771  10.819   1.611 -3.8403  3.1462  0.8027
  970MOL0     H30946   4.138  10.779   1.818 -0.0726  1.4821  0.6356
  970MOL0     H30947   3.316  11.211   1.937  1.6869 -0.9966 -1.1047
  970MOL0     H30948   2.997  11.236   1.748 -0.3212  0.3380 -0.6762
  970MOL0     H30949   3.082  11.107   1.831  1.9763 -0.6508 -2.1598
  970MOL0     H30950   3.075  11.269   1.907  0.3893  1.3994 -0.6916
  971MOL0     O30951  11.232   0.824   0.542  0.0485 -0.0793 -0.3834
  971MOL0     C30952  11.312   0.740   0.589 -0.4068 -0.2644 -0.5945
  971MOL0     O30953  11.288   0.654   0.702  0.1415 -0.8459  0.5341
  971MOL0     C30954  11.236   0.715   0.818  0.0587 -0.1892  1.0535
  971MOL0     C30955  11.218   0.639   0.926 -0.0476 -0.0560  0.0716
  971MOL0     C30956  11.173   0.687   1.048 -0.1451 -0.0972 -0.4565
  971MOL0     C30957  11.113   0.809   1.050  0.3093 -0.4512 -0.6503
  971MOL0     O30958  11.028   0.851   1.141  0.2689  0.6331 -0.1756
  971MOL0     C30959  11.073   0.845   1.278  0.1442 -0.0431  0.0041
  971MOL0     C30960  10.968   0.926   1.361  0.7959  0.2010 -0.0343
  971MOL0     C30961  10.984   1.072   1.365  0.2902  0.3570  0.2987
  971MOL0     C30962  11.060   1.130   1.490  0.1020  0.4545  0.7065
  971MOL0     C30963  11.086   1.280   1.480 -0.2354  1.1236  0.1736
  971MOL0     C30964  11.148   1.341   1.615 -0.1886 -0.6370 -0.5846
  971MOL0     C30965  11.251   1.459   1.591  0.9441  0.1973  0.2123
  971MOL0     C30966  11.281   1.543   1.720  0.6998  0.4480 -0.1188
  971MOL0     N30967  11.338   1.460   1.823 -0.0801  0.2346 -0.5507
  971MOL0     C30968  11.465   1.416   1.852  0.8682 -0.8744  0.5565
  971MOL0     C30969  11.466   1.340   1.967  0.6160  0.3589  0.2476
  971MOL0     C30970  11.585   1.261   2.011 -0.6396  0.4506  0.4581
  971MOL0     C30971  11.533   1.125   2.063 -0.2531 -0.0350 -0.3969
  971MOL0     C30972  11.515   1.138   2.217  0.0711  0.4270  0.4866
  971MOL0     C30973  11.391   1.057   2.269  0.7408 -0.7403  0.6461
  971MOL0     O30974  11.404   0.920   2.226 -0.0103  0.1237  0.4474
  971MOL0     C30975  11.324   0.823   2.286 -0.2192 -0.4351 -0.0554
  971MOL0     C30976  11.212   0.862   2.369 -0.6939 -0.0663 -0.5990
  971MOL0     C30977  11.141   0.754   2.430 -0.6041 -0.6621  1.1505
  971MOL0     C30978  11.168   0.619   2.399  0.2458  0.2852  0.7358
  971MOL0     C30979  11.087   0.505   2.448 -0.3848 -0.8521  0.3865
  971MOL0     O30980  11.001   0.534   2.548 -0.4414 -0.1794  0.1522
  971MOL0     C30981  10.910   0.441   2.605 -0.3022  0.4291 -0.5243
  971MOL0     C30982  10.841   0.353   2.513  0.0793 -0.5787 -0.6261
  971MOL0     C30983  10.736   0.266   2.553 -0.0202 -0.0594 -0.4545
  971MOL0     C30984  10.701   0.263   2.682 -0.4547 -0.4803  0.3782
  971MOL0     O30985  10.600   0.182   2.723  0.4448 -0.1793 -0.1044
  971MOL0     C30986  10.488   0.163   2.634 -2.2448 -1.1093 -0.7647
  971MOL0     C30987  10.366   0.133   2.715  0.0332  0.2376  0.0640
  971MOL0     C30988  10.308   0.217   2.835 -0.2956 -0.0261 -0.5800
  971MOL0     C30989  10.168   0.171   2.876  0.5047  0.0279  0.3077
  971MOL0     C30990  10.088   0.285   2.921  0.5206  0.0170  0.3304
  971MOL0     C30991   9.963   0.236   2.997 -0.0654  0.3404 -0.7587
  971MOL0     C30992   9.879   0.339   3.079 -0.1158 -0.0027  0.5106
  971MOL0     C30993   9.775   0.277   3.174 -0.3176 -0.1080  0.3388
  971MOL0    Cl30994   9.854   0.178   3.290  0.3108  0.0637 -0.3023
  971MOL0     C30995  10.770   0.334   2.775  0.3513 -0.1533 -0.3842
  971MOL0     C30996  10.869   0.427   2.743  0.5067  0.5051  1.0759
  971MOL0     O30997  11.105   0.392   2.396  0.6043 -0.4549 -0.0317
  971MOL0     C30998  11.277   0.585   2.321 -0.3070 -0.1160 -0.0294
  971MOL0     C30999  11.353   0.686   2.260 -0.2379  0.2737 -0.2171
  971MOL0     N31000  11.339   1.351   2.010 -0.1931 -0.1950  0.1511
  971MOL0     N31001  11.264   1.425   1.932 -1.0720 -0.3470  0.8408
  971MOL0     C31002  11.127   0.892   0.951  0.1770 -0.5101  0.2131
  971MOL0     C31003  11.202   0.854   0.836  0.8683  0.2668  1.0712
  971MOL0     C31004  11.448   0.729   0.519  0.4845  0.0936  0.1376
  971MOL0     C31005  11.502   0.606   0.504  0.2654  1.0592 -0.6724
  971MOL0     C31006  11.613   0.582   0.428 -0.3837  0.4407  1.0714
  971MOL0     C31007  11.690   0.681   0.372  0.2478 -0.0849  0.8163
  971MOL0     O31008  11.804   0.652   0.315 -0.0427  0.1352 -0.6571
  971MOL0     C31009  11.907   0.757   0.313  0.8419  0.2728 -0.0848
  971MOL0     C31010  12.037   0.677   0.301  0.3450 -0.0967 -0.7567
  971MOL0     C31011  12.097   0.683   0.160 -0.2592  0.6366  0.0015
  971MOL0     C31012  12.013   0.592   0.059 -0.6476 -0.7349  0.3238
  971MOL0     C31013  12.067   0.580  -0.075  1.1116  0.4490 -0.6835
  971MOL0     C31014  12.109   0.565  -0.190 -0.1545  0.4433 -0.3551
  971MOL0     C31015  11.639   0.815   0.388  0.3275  0.1007  0.1456
  971MOL0     C31016  11.515   0.840   0.459  0.2086  0.1676  0.7540
  971MOL0     C31017  11.483   0.979   0.473  0.9862  0.1049  0.3075
  971MOL0     H31018  11.252   0.536   0.920  0.0468  0.0377 -2.1859
  971MOL0     H31019  11.159   0.623   1.135 -1.7870  0.9088  0.0596
  971MOL0     H31020  11.066   0.740   1.306 -2.1020  0.0315 -0.1512
  971MOL0     H31021  11.164   0.905   1.293  0.3928 -0.5789  0.6611
  971MOL0     H31022  10.974   0.887   1.463 -0.4896  2.0636  0.8041
  971MOL0     H31023  10.873   0.890   1.321  1.0087 -0.6666  0.2158
  971MOL0     H31024  10.884   1.116   1.366  0.7314  1.6357  4.0665
  971MOL0     H31025  11.032   1.111   1.275  5.3590 -1.4895  1.8969
  971MOL0     H31026  10.999   1.111   1.578 -0.5213 -1.0149 -0.0150
  971MOL0     H31027  11.155   1.077   1.499  1.4556  2.5466 -0.2663
  971MOL0     H31028  11.160   1.299   1.402  0.3594  3.7442  1.2612
  971MOL0     H31029  10.997   1.332   1.445  1.3700  3.6107 -0.5321
  971MOL0     H31030  11.065   1.364   1.683 -1.3367 -1.0151 -1.8158
  971MOL0     H31031  11.197   1.256   1.663 -0.7127 -0.7703 -0.2687
  971MOL0     H31032  11.204   1.527   1.519 -0.5408 -0.2622  0.7035
  971MOL0     H31033  11.335   1.414   1.538 -0.3449  1.2581 -3.0381
  971MOL0     H31034  11.339   1.633   1.698 -1.7042  1.9113 -0.8228
  971MOL0     H31035  11.186   1.587   1.751  1.2471  1.4125  0.2452
  971MOL0     H31036  11.552   1.443   1.793  0.1615 -1.4416 -0.7867
  971MOL0     H31037  11.660   1.243   1.933 -0.3935 -2.6690  1.2662
  971MOL0     H31038  11.645   1.316   2.085  0.0294  1.2973 -0.6840
  971MOL0     H31039  11.434   1.103   2.024 -0.1406  0.1795 -0.8100
  971MOL0     H31040  11.606   1.053   2.026 -0.8469 -2.0590  2.1248
  971MOL0     H31041  11.511   1.245   2.240 -1.1515  0.3149  0.8715
  971MOL0     H31042  11.599   1.092   2.269  0.1667  0.0614  0.0108
  971MOL0     H31043  11.298   1.087   2.220  1.7872 -0.5853 -1.3267
  971MOL0     H31044  11.384   1.068   2.378 -0.6644  0.3454  0.4770
  971MOL0     H31045  11.188   0.961   2.407 -0.7783  0.5233 -2.1278
  971MOL0     H31046  11.067   0.785   2.503  0.0874  1.8212  0.8699
  971MOL0     H31047  10.853   0.364   2.406 -0.7763  0.5576 -0.6255
  971MOL0     H31048  10.702   0.198   2.476  2.6250  0.0806 -1.8799
  971MOL0     H31049  10.480   0.255   2.574 -0.4878 -0.1172  0.4527
  971MOL0     H31050  10.519   0.076   2.575 -0.2581 -1.5365  0.8224
  971MOL0     H31051  10.289   0.123   2.639 -1.1439  1.6855  1.0183
  971MOL0     H31052  10.381   0.033   2.759 -7.3097 -1.5878 -0.3865
  971MOL0     H31053  10.381   0.198   2.915 -1.8279 -0.3185  0.8080
  971MOL0     H31054  10.312   0.318   2.795  0.9840  0.4847  0.7480
  971MOL0     H31055  10.175   0.097   2.956  1.5451 -4.1061 -3.2376
  971MOL0     H31056  10.115   0.135   2.788 -1.8731  1.0379  1.2613
  971MOL0     H31057  10.052   0.343   2.835  0.3867  1.4151  1.2880
  971MOL0     H31058  10.135   0.357   2.989 -1.8349 -0.8871  3.1103
  971MOL0     H31059   9.906   0.176   2.926 -0.8677 -0.3875  0.4685
  971MOL0     H31060  10.002   0.157   3.063 -2.8588 -0.9974 -0.5433
  971MOL0     H31061   9.825   0.397   3.004 -1.3640 -0.9438  0.6501
  971MOL0     H31062   9.954   0.406   3.122  2.1184 -2.6135  0.9949
  971MOL0     H31063   9.732   0.364   3.225  1.4531  0.1356  1.5178
  971MOL0     H31064   9.700   0.219   3.120  0.4419  0.0874 -0.9769
  971MOL0     H31065  10.746   0.332   2.881  3.1295  0.9339  0.3646
  971MOL0     H31066  10.906   0.481   2.830 -0.4538  0.5747  1.4585
  971MOL0     H31067  11.289   0.481   2.293 -0.9584 -0.4116  0.7377
  971MOL0     H31068  11.414   0.654   2.177  0.4703 -2.8935  1.3707
  971MOL0     H31069  11.087   0.993   0.951  1.1433 -0.1086  1.0993
  971MOL0     H31070  11.215   0.925   0.754  0.4346 -0.3136  0.4866
  971MOL0     H31071  11.457   0.519   0.550  2.1981  2.4350  4.5494
  971MOL0     H31072  11.655   0.483   0.420 -0.7612  0.4366 -2.6739
  971MOL0     H31073  11.909   0.809   0.409  0.1874  0.5341 -0.2113
  971MOL0     H31074  11.896   0.827   0.230  0.0092  1.1363  0.7250
  971MOL0     H31075  12.034   0.573   0.333 -0.2467  0.2719  0.4596
  971MOL0     H31076  12.103   0.712   0.381 -0.9374 -0.3655  0.4510
  971MOL0     H31077  12.203   0.656   0.168 -0.6288 -0.2518  2.8207
  971MOL0     H31078  12.093   0.791   0.144 -0.4598  0.4402 -1.4161
  971MOL0     H31079  11.996   0.493   0.102 -2.3771 -1.1468 -1.1830
  971MOL0     H31080  11.914   0.639   0.058 -0.2516  0.1294  0.7235
  971MOL0     H31081  12.150   0.534  -0.284  1.3931 -1.4920  0.8909
  971MOL0     H31082  11.696   0.895   0.342 -2.5472  1.9008 -0.5032
  971MOL0     H31083  11.418   1.019   0.395 -0.1776 -1.2881  0.5195
  971MOL0     H31084  11.447   0.999   0.574  3.4829 -0.6338  1.4358
  971MOL0     H31085  11.571   1.044   0.466  1.2272 -0.3016 -0.6302
  972MOL0     O31086   2.262   4.726  10.708  0.2602  0.9797  0.5129
  972MOL0     C31087   2.151   4.762  10.669  0.3787  0.8459 -0.2996
  972MOL0     O31088   2.066   4.690  10.590  0.3605 -0.7548  0.0753
  972MOL0     C31089   2.088   4.560  10.560  0.3616  0.1666  0.4091
  972MOL0     C31090   2.022   4.530  10.437  0.5557 -0.6045 -0.2340
  972MOL0     C31091   2.018   4.400  10.395  0.6488  0.4362  0.0269
  972MOL0     C31092   2.096   4.299  10.444  0.2818 -0.0808  0.0660
  972MOL0     O31093   2.103   4.176  10.382  0.1426 -0.1578  0.3591
  972MOL0     C31094   2.177   4.069  10.433 -0.8145 -0.6876  0.9224
  972MOL0     C31095   2.107   3.997  10.552  0.1702  0.4916  0.1115
  972MOL0     C31096   2.196   3.877  10.602 -0.6166 -0.2828 -0.0364
  972MOL0     C31097   2.127   3.745  10.648  0.4831 -0.9263  0.6455
  972MOL0     C31098   2.220   3.664  10.741 -0.4846  0.1167 -0.3540
  972MOL0     C31099   2.341   3.621  10.662 -0.1214  0.3606  0.9877
  972MOL0     C31100   2.410   3.510  10.746  0.1351  0.0644  0.9615
  972MOL0     C31101   2.531   3.464  10.670 -0.0223 -0.3069  0.2436
  972MOL0     N31102   2.610   3.348  10.730  0.0214  0.2024  0.0366
  972MOL0     C31103   2.693   3.344  10.850  0.8262 -0.5214 -0.1135
  972MOL0     C31104   2.773   3.234  10.842  0.3757 -0.3285  0.6076
  972MOL0     C31105   2.884   3.200  10.938  0.3618  0.0313  0.1736
  972MOL0     C31106   3.013   3.266  10.913 -0.3238  0.0222 -0.0944
  972MOL0     C31107   3.085   3.188  10.805  0.2158 -0.0429  0.3389
  972MOL0     C31108   3.224   3.251  10.776  0.7411 -0.2801 -0.3242
  972MOL0     O31109   3.283   3.181  10.668  0.7452  0.4645 -0.4572
  972MOL0     C31110   3.418   3.188  10.674  0.1214  0.4130  0.2785
  972MOL0     C31111   3.486   3.078  10.606 -0.2395 -0.7642  0.5233
  972MOL0     C31112   3.623   3.091  10.583  0.2094  0.2362 -0.1454
  972MOL0     C31113   3.704   3.191  10.636  0.2338  0.2031  0.1736
  972MOL0     C31114   3.844   3.185  10.624 -0.0670 -0.9692 -1.2384
  972MOL0     O31115   3.901   3.084  10.554 -0.0296 -0.7511  0.1919
  972MOL0     C31116   4.031   3.078  10.499  0.5157 -0.1075  0.6744
  972MOL0     C31117   4.140   3.169  10.500 -0.2574 -0.3263  0.2078
  972MOL0     C31118   4.263   3.143  10.438 -0.4862 -1.1723  0.1511
  972MOL0     C31119   4.272   3.033  10.351  0.4879 -0.6613  0.3051
  972MOL0     O31120   4.391   3.015  10.288  0.0565 -0.3402 -0.0616
  972MOL0     C31121   4.390   2.941  10.165 -0.3229 -0.1206 -0.8532
  972MOL0     C31122   4.538   2.938  10.121 -0.3476  0.1926  0.2910
  972MOL0     C31123   4.595   3.084  10.088  0.7109  0.0087 -0.4794
  972MOL0     C31124   4.746   3.077  10.101  0.4474  0.5596 -0.2344
  972MOL0     C31125   4.816   3.215  10.080 -0.5049  0.1245 -0.1159
  972MOL0     C31126   4.951   3.241  10.143  0.0059  0.5730  0.7272
  972MOL0     C31127   5.078   3.158  10.082  1.0246  0.6115  0.5641
  972MOL0     C31128   5.078   3.138   9.928  0.2720 -0.0255 -0.1855
  972MOL0    Cl31129   4.959   3.004   9.879 -0.1289 -0.4599 -0.3322
  972MOL0     C31130   4.160   2.944  10.341  0.1584 -0.3740 -0.1641
  972MOL0     C31131   4.040   2.959  10.411 -1.1268  0.7355 -0.2656
  972MOL0     O31132   3.911   3.282  10.673  1.0276  0.6957  0.1062
  972MOL0     C31133   3.632   3.292  10.697 -0.1422 -0.4035 -0.1185
  972MOL0     C31134   3.495   3.295  10.716 -0.5109  0.4647  0.7610
  972MOL0     N31135   2.737   3.166  10.729  0.0038 -0.2914 -0.1242
  972MOL0     N31136   2.646   3.234  10.667 -0.3558  0.3477  0.5072
  972MOL0     C31137   2.186   4.340  10.549  0.0432  0.3836  0.1979
  972MOL0     C31138   2.184   4.461  10.607 -0.6405 -0.4463  0.2536
  972MOL0     C31139   2.088   4.881  10.736 -0.2703 -0.1279  0.5185
  972MOL0     C31140   1.949   4.895  10.748 -0.5218  0.0152  1.2446
  972MOL0     C31141   1.886   4.993  10.822 -0.1917 -0.3600  0.1797
  972MOL0     C31142   1.963   5.091  10.885 -0.0232  0.0153 -0.0722
  972MOL0     O31143   1.928   5.199  10.957  0.4824  0.7462 -0.4764
  972MOL0     C31144   1.793   5.209  10.996 -0.1615  0.3994  0.1919
  972MOL0     C31145   1.753   5.351  11.041  0.4494  0.4123 -0.0668
  972MOL0     C31146   1.602   5.364  11.078  0.1425 -0.0058  0.0188
  972MOL0     C31147   1.542   5.507  11.075 -1.4539 -0.6276  0.5935
  972MOL0     C31148   1.579   5.585  11.189 -0.1232  0.1725  0.1522
  972MOL0     C31149   1.585   5.662  11.284 -0.2339 -0.1064 -0.1023
  972MOL0     C31150   2.104   5.090  10.869 -0.1094  0.5976  0.1502
  972MOL0     C31151   2.168   4.989  10.795 -0.4702  0.6848  0.3153
  972MOL0     C31152   2.317   4.994  10.779  0.0066  0.7055  0.2078
  972MOL0     H31153   1.948   4.588  10.383 -0.5832 -0.8216  1.0393
  972MOL0     H31154   1.940   4.383  10.321  1.6529 -2.0207 -0.5362
  972MOL0     H31155   2.183   3.999  10.349  2.3966  0.7307 -0.1839
  972MOL0     H31156   2.281   4.097  10.450 -1.0946  1.2754 -0.3155
  972MOL0     H31157   2.013   3.946  10.529  0.7383 -1.4745  1.8186
  972MOL0     H31158   2.100   4.059  10.641  2.3458 -0.8296  1.3040
  972MOL0     H31159   2.253   3.913  10.688 -2.9382  3.1433  0.2925
  972MOL0     H31160   2.270   3.857  10.524 -0.4591  0.1382  0.0029
  972MOL0     H31161   2.032   3.759  10.699  2.6135  0.9656  4.5807
  972MOL0     H31162   2.124   3.682  10.558 -0.8845  2.0130 -1.5526
  972MOL0     H31163   2.252   3.741  10.811  0.0866  1.9761 -2.5302
  972MOL0     H31164   2.171   3.580  10.790  1.5043 -0.5710  0.5662
  972MOL0     H31165   2.329   3.566  10.568  2.6082  0.4603  0.4835
  972MOL0     H31166   2.409   3.705  10.645 -2.6638  2.0941 -1.4713
  972MOL0     H31167   2.335   3.432  10.763 -1.1224  0.9862 -0.1775
  972MOL0     H31168   2.442   3.554  10.841 -1.3195 -0.5412  1.7708
  972MOL0     H31169   2.493   3.425  10.575  0.6780  1.7364 -0.9486
  972MOL0     H31170   2.584   3.552  10.631 -0.3638 -0.3329 -0.3014
  972MOL0     H31171   2.696   3.419  10.929  3.4073  1.8186 -2.2430
  972MOL0     H31172   2.845   3.224  11.038  0.5833 -0.3694  0.3591
  972MOL0     H31173   2.897   3.092  10.944  2.9952  0.3612  2.3309
  972MOL0     H31174   2.988   3.368  10.883  1.9864  0.5515 -0.3788
  972MOL0     H31175   3.071   3.261  11.005 -1.2995 -0.4247  0.5231
  972MOL0     H31176   3.017   3.180  10.720 -0.7589 -1.1109  1.1700
  972MOL0     H31177   3.117   3.089  10.841 -0.7812  0.4025  2.6811
  972MOL0     H31178   3.282   3.244  10.868 -2.4818 -0.2726  1.8547
  972MOL0     H31179   3.220   3.357  10.751 -0.1118  0.0866  1.2450
  972MOL0     H31180   3.417   2.998  10.580 -0.8260 -1.0761  2.8049
  972MOL0     H31181   3.678   3.007  10.540  2.8802  0.7749  1.9229
  972MOL0     H31182   4.129   3.253  10.568  1.4555 -0.3653  0.5867
  972MOL0     H31183   4.353   3.203  10.445 -1.1261  0.3867 -3.1745
  972MOL0     H31184   4.347   2.841  10.176  2.0328 -1.0397  0.8775
  972MOL0     H31185   4.331   3.008  10.103 -0.9094  0.4109  0.2601
  972MOL0     H31186   4.601   2.883  10.192  1.5645 -0.3061 -1.6754
  972MOL0     H31187   4.551   2.890  10.024 -1.7786  1.6777 -0.6819
  972MOL0     H31188   4.574   3.135   9.994  2.6506  3.4084  0.7649
  972MOL0     H31189   4.573   3.147  10.174 -2.1620  0.1573 -1.2330
  972MOL0     H31190   4.784   3.009  10.023  1.5366  0.5970  0.2527
  972MOL0     H31191   4.775   3.042  10.201 -2.6858 -0.8733  0.2813
  972MOL0     H31192   4.747   3.294  10.110 -1.1425  1.1806 -3.7969
  972MOL0     H31193   4.815   3.231   9.971 -0.8363 -0.1243 -0.1508
  972MOL0     H31194   4.972   3.347  10.131  1.8970  0.1316 -0.3306
  972MOL0     H31195   4.958   3.230  10.251 -1.4014  2.4254  1.0387
  972MOL0     H31196   5.069   3.058  10.124 -3.6401  0.4138 -0.3535
  972MOL0     H31197   5.179   3.195  10.101  0.5360  2.1229  0.3306
  972MOL0     H31198   5.046   3.232   9.881  1.4756 -0.0689 -1.1389
  972MOL0     H31199   5.181   3.117   9.897 -0.5587 -1.8792 -1.8689
  972MOL0     H31200   4.153   2.872  10.260 -2.6115 -0.3434 -0.0527
  972MOL0     H31201   3.951   2.903  10.385  0.1464 -1.1050 -0.8064
  972MOL0     H31202   3.693   3.373  10.737  2.1952 -0.9946 -2.2795
  972MOL0     H31203   3.456   3.384  10.763 -3.6631  0.2590 -1.1346
  972MOL0     H31204   2.262   4.271  10.584 -1.7879 -0.7239  2.2514
  972MOL0     H31205   2.256   4.490  10.683  0.4933  1.2798 -1.3481
  972MOL0     H31206   1.883   4.822  10.701 -0.6305  2.9385 -3.8176
  972MOL0     H31207   1.777   4.997  10.828 -0.3183  0.6167 -1.9893
  972MOL0     H31208   1.773   5.137  11.076  3.1343  1.1497  1.8578
  972MOL0     H31209   1.742   5.186  10.902 -0.8740  0.0384  0.6509
  972MOL0     H31210   1.778   5.423  10.963  1.4575  0.8092  0.6134
  972MOL0     H31211   1.819   5.385  11.122  3.4408 -1.6577 -1.4391
  972MOL0     H31212   1.585   5.315  11.174  1.1506 -0.1338  0.1364
  972MOL0     H31213   1.543   5.318  10.998  0.3373  0.8555 -0.6371
  972MOL0     H31214   1.586   5.550  10.984  2.4292  0.1875  2.6501
  972MOL0     H31215   1.433   5.506  11.074 -1.6820  3.5883  0.1136
  972MOL0     H31216   1.594   5.726  11.369  0.3521 -1.1637  0.6547
  972MOL0     H31217   2.170   5.164  10.915 -1.9062  1.6567  1.1106
  972MOL0     H31218   2.361   5.082  10.827 -0.2661  0.0837  1.6369
  972MOL0     H31219   2.356   4.902  10.823 -1.8781 -0.2271  0.0123
  972MOL0     H31220   2.343   4.999  10.673 -2.8202  0.3503 -0.5717
  973MOL0     O31221   1.025   6.367   1.408 -0.3317  0.1598 -1.6045
  973MOL0     C31222   1.005   6.441   1.311 -0.6455 -0.3618  0.1972
  973MOL0     O31223   0.888   6.503   1.280 -0.2601 -0.8429 -0.9100
  973MOL0     C31224   0.788   6.496   1.373 -0.6476  0.3550 -0.4401
  973MOL0     C31225   0.823   6.524   1.506  0.4962 -1.2390 -0.6846
  973MOL0     C31226   0.727   6.517   1.612  0.2538  0.6308  0.2893
  973MOL0     C31227   0.591   6.484   1.570 -0.7712 -0.3399 -0.3500
  973MOL0     O31228   0.492   6.478   1.663 -0.2339 -0.8045 -0.7843
  973MOL0     C31229   0.452   6.590   1.741 -0.1265  0.1265 -1.2581
  973MOL0     C31230   0.353   6.678   1.673  0.7392 -1.2679  0.3842
  973MOL0     C31231   0.293   6.798   1.750 -0.7776 -0.7775  0.0349
  973MOL0     C31232   0.409   6.893   1.793 -0.3670  0.0232 -0.6082
  973MOL0     C31233   0.359   7.027   1.820 -0.5578 -0.0766  0.3226
  973MOL0     C31234   0.438   7.127   1.911  0.7097  0.0405 -0.1393
  973MOL0     C31235   0.581   7.136   1.865 -0.4223  0.8325 -0.7367
  973MOL0     C31236   0.663   7.208   1.968  0.5045 -0.4640 -0.3386
  973MOL0     N31237   0.804   7.213   1.917  0.2151  0.4780 -0.5555
  973MOL0     C31238   0.925   7.159   1.981 -0.2210  0.6113  0.6418
  973MOL0     C31239   1.026   7.181   1.881 -0.2460  0.3467  0.6560
  973MOL0     C31240   1.177   7.163   1.888  1.1556  0.1742  0.5800
  973MOL0     C31241   1.261   7.286   1.860  1.2051  0.3333  0.4120
  973MOL0     C31242   1.254   7.333   1.716  0.1094 -0.5625  0.2591
  973MOL0     C31243   1.297   7.238   1.607  0.4486 -0.1813 -0.6369
  973MOL0     O31244   1.398   7.148   1.658 -0.1258 -0.7941 -0.5549
  973MOL0     C31245   1.454   7.053   1.577  0.2434  1.0167 -0.2063
  973MOL0     C31246   1.547   6.969   1.632  0.2773  0.3756 -0.3384
  973MOL0     C31247   1.593   6.851   1.570 -0.1529  0.2109  0.4167
  973MOL0     C31248   1.571   6.834   1.437 -0.1847 -0.4883 -0.1369
  973MOL0     C31249   1.630   6.720   1.357 -0.2331  0.0336 -0.3603
  973MOL0     O31250   1.691   6.621   1.420 -0.1304  0.1154 -0.4088
  973MOL0     C31251   1.776   6.541   1.351 -0.0613 -0.0424 -0.5326
  973MOL0     C31252   1.741   6.406   1.321 -0.7977 -1.2549  0.3021
  973MOL0     C31253   1.831   6.320   1.259 -0.3161  1.4377  0.0945
  973MOL0     C31254   1.957   6.372   1.213  0.0792  0.3737 -0.0336
  973MOL0     O31255   2.048   6.299   1.146  0.2911 -1.0637  0.0801
  973MOL0     C31256   2.052   6.162   1.177 -0.8808  1.6868 -0.1397
  973MOL0     C31257   2.175   6.099   1.106  0.1988  0.1217  0.2393
  973MOL0     C31258   2.137   6.091   0.955 -0.0615 -0.2245  0.5403
  973MOL0     C31259   2.248   6.021   0.875 -0.2759 -0.0252  0.2628
  973MOL0     C31260   2.382   6.093   0.865  0.5141 -0.2403 -0.2715
  973MOL0     C31261   2.381   6.196   0.759 -0.9582  0.8423  0.6308
  973MOL0     C31262   2.515   6.276   0.755 -0.0051  0.1672  0.4397
  973MOL0     C31263   2.493   6.389   0.654 -0.4313  0.4251 -0.7457
  973MOL0    Cl31264   2.624   6.504   0.667  0.1658 -0.7352 -0.4333
  973MOL0     C31265   1.985   6.508   1.236  0.9083  0.0230  0.4230
  973MOL0     C31266   1.900   6.586   1.309 -0.4229  0.3336 -0.1409
  973MOL0     O31267   1.636   6.735   1.238  0.1381  0.0098 -0.0595
  973MOL0     C31268   1.486   6.924   1.368 -0.8400 -0.2369  0.4653
  973MOL0     C31269   1.427   7.029   1.437  0.9859  0.1793  1.0908
  973MOL0     N31270   0.961   7.227   1.771 -0.1586 -0.3595  0.5341
  973MOL0     N31271   0.841   7.248   1.793  0.4463 -0.2850 -0.6123
  973MOL0     C31272   0.565   6.440   1.443  0.1532 -1.5543  0.2730
  973MOL0     C31273   0.661   6.453   1.338  0.2553  1.0203 -0.5245
  973MOL0     C31274   1.110   6.459   1.219 -0.9659  0.1639 -0.0999
  973MOL0     C31275   1.088   6.432   1.085 -0.3124  0.0549 -0.3125
  973MOL0     C31276   1.192   6.423   0.984 -0.6864 -0.1195  0.6869
  973MOL0     C31277   1.328   6.443   1.022 -0.3861 -0.7346 -0.0692
  973MOL0     O31278   1.423   6.447   0.924  0.1024 -0.1968 -0.4923
  973MOL0     C31279   1.564   6.488   0.951  0.0568 -0.4461 -0.9212
  973MOL0     C31280   1.629   6.510   0.819 -0.4569 -1.7669  0.5460
  973MOL0     C31281   1.584   6.635   0.740  0.7233 -0.4437  0.0379
  973MOL0     C31282   1.660   6.680   0.616  0.3219  0.0945  0.2063
  973MOL0     C31283   1.645   6.819   0.567 -0.4863 -0.0835  0.1342
  973MOL0     C31284   1.631   6.939   0.541  0.4200  0.2437 -1.7953
  973MOL0     C31285   1.346   6.473   1.160 -0.2710  1.1478  0.7863
  973MOL0     C31286   1.247   6.474   1.258 -0.2392 -0.8440 -0.4125
  973MOL0     C31287   1.289   6.501   1.396 -0.5134  0.6627  0.1050
  973MOL0     H31288   0.920   6.568   1.524  0.1866 -1.0727  0.6981
  973MOL0     H31289   0.755   6.553   1.710  3.2769 -2.1607  0.6249
  973MOL0     H31290   0.407   6.556   1.835  1.2106  2.0398  0.1362
  973MOL0     H31291   0.542   6.647   1.765 -0.2976 -0.1435  0.1332
  973MOL0     H31292   0.270   6.606   1.664  2.7404 -3.9829  2.1348
  973MOL0     H31293   0.383   6.705   1.572 -0.9916 -0.0208  0.1598
  973MOL0     H31294   0.248   6.757   1.841  1.9180  2.3163  3.0162
  973MOL0     H31295   0.213   6.843   1.689 -0.0066  0.0286 -0.4025
  973MOL0     H31296   0.475   6.850   1.868  2.6695 -0.4358 -3.3331
  973MOL0     H31297   0.464   6.909   1.700 -3.2808  0.0834 -2.4455
  973MOL0     H31298   0.348   7.081   1.726  0.6035  0.4380  0.4653
  973MOL0     H31299   0.258   7.016   1.862 -1.4228 -3.4099 -2.1672
  973MOL0     H31300   0.387   7.224   1.903 -0.7620 -0.4738  2.1562
  973MOL0     H31301   0.432   7.102   2.017 -0.9108 -2.3516 -0.7075
  973MOL0     H31302   0.595   7.192   1.773  0.5686  2.6613  0.4631
  973MOL0     H31303   0.630   7.038   1.860  0.3419  1.0146  1.7734
  973MOL0     H31304   0.624   7.307   1.992  1.7913 -0.7662  3.9214
  973MOL0     H31305   0.670   7.150   2.061  1.4997 -2.3944 -1.5580
  973MOL0     H31306   0.932   7.120   2.082  3.9771 -3.9244 -1.0000
  973MOL0     H31307   1.184   7.120   1.989 -0.5713 -2.1453 -0.1931
  973MOL0     H31308   1.195   7.080   1.819  0.6464  1.0114 -0.5860
  973MOL0     H31309   1.225   7.365   1.927 -2.2510  0.2482 -1.1183
  973MOL0     H31310   1.362   7.268   1.899  2.2924 -1.9612 -3.0071
  973MOL0     H31311   1.317   7.422   1.704  0.7471 -0.7015  2.2263
  973MOL0     H31312   1.158   7.370   1.677  1.5155  2.1237 -0.9717
  973MOL0     H31313   1.333   7.295   1.521 -1.5199  3.2892  0.6250
  973MOL0     H31314   1.211   7.177   1.579 -1.1023  0.6116  2.0255
  973MOL0     H31315   1.574   6.982   1.736 -4.0636  1.4511  0.8793
  973MOL0     H31316   1.679   6.803   1.616  1.5448  2.1168 -0.6133
  973MOL0     H31317   1.639   6.378   1.346 -1.5960  1.9114  0.9795
  973MOL0     H31318   1.796   6.222   1.228 -2.5445  2.8017 -2.0986
  973MOL0     H31319   2.066   6.146   1.285 -0.8035 -0.4894 -0.4273
  973MOL0     H31320   1.959   6.119   1.139 -1.3189  2.2317  0.2943
  973MOL0     H31321   2.274   6.143   1.119 -0.7090  1.6241  2.9419
  973MOL0     H31322   2.188   5.993   1.133 -3.5776 -0.7653 -0.8447
  973MOL0     H31323   2.051   6.024   0.953  0.5206 -0.9633 -0.0646
  973MOL0     H31324   2.102   6.190   0.922 -3.5192 -1.6470 -0.5155
  973MOL0     H31325   2.213   6.015   0.772  0.2757 -2.4967  0.1699
  973MOL0     H31326   2.259   5.922   0.920 -0.0846  0.2101  0.7464
  973MOL0     H31327   2.449   6.010   0.844 -0.0882 -1.2057  1.3865
  973MOL0     H31328   2.421   6.138   0.957  1.0334 -1.1033 -0.0631
  973MOL0     H31329   2.373   6.151   0.660 -0.7776 -2.2900  1.9130
  973MOL0     H31330   2.298   6.266   0.773 -0.9957  1.4387 -2.1298
  973MOL0     H31331   2.603   6.211   0.741  0.3636 -0.2225  3.7452
  973MOL0     H31332   2.543   6.317   0.852  3.6170  0.4795 -0.5805
  973MOL0     H31333   2.487   6.349   0.552  1.7472  3.2453 -2.0938
  973MOL0     H31334   2.402   6.447   0.673 -1.1432 -0.8382 -0.1256
  973MOL0     H31335   2.078   6.548   1.197  0.4296  0.0288 -0.7576
  973MOL0     H31336   1.925   6.687   1.340 -2.1411  0.5516  0.6480
  973MOL0     H31337   1.450   6.902   1.267 -3.6819 -0.0946  1.3663
  973MOL0     H31338   1.351   7.093   1.394 -0.5315  0.7108  4.2527
  973MOL0     H31339   0.463   6.415   1.414 -0.3016 -0.0442  0.5103
  973MOL0     H31340   0.629   6.431   1.236 -1.2863 -1.8943  0.4748
  973MOL0     H31341   0.993   6.394   1.049 -0.6397  1.6313 -1.2119
  973MOL0     H31342   1.171   6.395   0.881 -0.4432  0.3180  0.5156
  973MOL0     H31343   1.607   6.413   1.019 -0.3788 -0.0585 -0.2034
  973MOL0     H31344   1.564   6.582   1.007 -2.1733 -2.4239  2.8511
  973MOL0     H31345   1.607   6.418   0.763 -2.7866 -1.1928  0.4399
  973MOL0     H31346   1.736   6.504   0.843  0.3658 -0.5814 -2.3434
  973MOL0     H31347   1.564   6.715   0.813 -2.3599  0.9717 -2.0969
  973MOL0     H31348   1.481   6.613   0.708  0.5768  1.4899 -0.9972
  973MOL0     H31349   1.762   6.646   0.634 -0.3035 -2.9289 -1.2856
  973MOL0     H31350   1.614   6.619   0.538 -0.2514 -3.1789  2.8721
  973MOL0     H31351   1.622   7.042   0.512  1.5598  0.5870 -1.0263
  973MOL0     H31352   1.451   6.483   1.184  0.1572 -0.8503 -0.0733
  973MOL0     H31353   1.206   6.556   1.441 -0.5182  0.8493 -0.1342
  973MOL0     H31354   1.292   6.409   1.455  1.8334  1.5033  1.4298
  973MOL0     H31355   1.388   6.546   1.395  1.2545 -2.8608 -0.7386
  974MOL0     O31356   6.268   1.744   5.913 -0.3496  0.2940 -0.1682
  974MOL0     C31357   6.193   1.826   5.865 -0.8365  0.8995  0.6729
  974MOL0     O31358   6.181   1.959   5.896  0.4106  0.3349 -0.2613
  974MOL0     C31359   6.261   2.014   5.998  0.3350 -0.4476  0.0399
  974MOL0     C31360   6.381   1.965   6.048 -0.1636  0.2385 -0.7082
  974MOL0     C31361   6.447   2.043   6.148 -0.9599  0.8179 -0.3224
  974MOL0     C31362   6.393   2.159   6.201 -0.5998 -0.1717  0.0043
  974MOL0     O31363   6.446   2.218   6.304 -0.1506 -0.8241 -0.4156
  974MOL0     C31364   6.375   2.309   6.395  0.0532 -0.1047 -0.6076
  974MOL0     C31365   6.289   2.229   6.492 -0.6123 -0.2350  0.5601
  974MOL0     C31366   6.259   2.310   6.620 -1.1185  0.6402  0.5750
  974MOL0     C31367   6.196   2.445   6.595  0.0418  0.0491 -0.1522
  974MOL0     C31368   6.178   2.523   6.721  0.1169 -0.4192 -0.3194
  974MOL0     C31369   6.323   2.579   6.766  0.1444 -0.1505  1.2813
  974MOL0     C31370   6.298   2.677   6.879  0.3761  0.5497  0.3254
  974MOL0     C31371   6.231   2.804   6.838 -0.2364 -0.0841  0.4536
  974MOL0     N31372   6.339   2.893   6.792 -0.4293 -0.4207 -0.1925
  974MOL0     C31373   6.350   2.962   6.665  0.6863  0.4888 -0.6066
  974MOL0     C31374   6.446   3.052   6.681  0.5843  0.5209  0.1799
  974MOL0     C31375   6.479   3.159   6.582 -0.0272 -1.0166  0.1423
  974MOL0     C31376   6.492   3.100   6.439  0.9900 -0.1287 -0.0201
  974MOL0     C31377   6.486   3.215   6.339  0.2662  0.8870 -0.3369
  974MOL0     C31378   6.617   3.294   6.340  0.2750  0.2945 -0.1805
  974MOL0     O31379   6.617   3.371   6.221 -0.4744  0.3345 -0.7358
  974MOL0     C31380   6.666   3.494   6.231  0.1564 -0.0994  0.4140
  974MOL0     C31381   6.595   3.590   6.303  0.3070  0.1913  0.3788
  974MOL0     C31382   6.607   3.726   6.288 -0.0033 -0.3417 -0.4273
  974MOL0     C31383   6.699   3.774   6.193 -0.0124 -0.3466 -1.3989
  974MOL0     C31384   6.728   3.914   6.179  0.3042  0.7784  0.8739
  974MOL0     O31385   6.809   3.951   6.080  0.7288  0.0546  0.5942
  974MOL0     C31386   6.836   4.084   6.059  0.8550  0.3455 -0.2879
  974MOL0     C31387   6.964   4.127   6.010 -0.1119 -0.4145  0.1769
  974MOL0     C31388   6.977   4.259   5.972 -1.2215  0.7369 -0.4266
  974MOL0     C31389   6.876   4.356   5.986  0.0576  0.3984  0.4186
  974MOL0     O31390   6.907   4.489   5.951  0.0061  0.5195 -0.1552
  974MOL0     C31391   6.830   4.597   6.009  0.5848  0.3725 -0.7816
  974MOL0     C31392   6.912   4.685   6.107 -0.1223  0.5113 -0.1121
  974MOL0     C31393   7.021   4.755   6.028  0.2967  0.4184 -0.4578
  974MOL0     C31394   7.100   4.854   6.120  0.2677 -0.5410 -0.6300
  974MOL0     C31395   7.238   4.900   6.068  0.0938  0.1040  0.1600
  974MOL0     C31396   7.229   5.011   5.962  0.0324  0.1533  1.8292
  974MOL0     C31397   7.369   5.076   5.948  0.2781 -0.6707  0.6168
  974MOL0     C31398   7.375   5.194   5.846  0.2269  0.6688 -0.4292
  974MOL0    Cl31399   7.300   5.143   5.703 -0.8098  0.0779  0.3119
  974MOL0     C31400   6.751   4.310   6.029 -0.3095  0.0893  0.1559
  974MOL0     C31401   6.735   4.180   6.072  0.5459 -0.9935  1.0462
  974MOL0     O31402   6.689   3.981   6.275  0.2976 -0.2494  0.0519
  974MOL0     C31403   6.775   3.673   6.123  0.0822 -0.3341 -0.8134
  974MOL0     C31404   6.756   3.544   6.135 -1.1625  0.3870  0.0548
  974MOL0     N31405   6.485   3.058   6.811  0.1499 -0.0748  0.0357
  974MOL0     N31406   6.420   2.969   6.875 -0.7491 -0.0854  0.5511
  974MOL0     C31407   6.266   2.197   6.153 -0.3084 -0.0319 -1.3268
  974MOL0     C31408   6.208   2.123   6.044  0.3273 -0.4866 -0.0297
  974MOL0     C31409   6.100   1.775   5.756  0.3943 -0.7020 -0.0962
  974MOL0     C31410   6.005   1.872   5.696 -0.5971  0.3538 -0.3522
  974MOL0     C31411   5.920   1.832   5.595 -0.2055  0.0493  0.4400
  974MOL0     C31412   5.924   1.705   5.540  0.0153 -0.7210 -0.6960
  974MOL0     O31413   5.849   1.665   5.435 -0.6735 -0.3110 -0.0061
  974MOL0     C31414   5.770   1.757   5.360 -0.1856  0.1207  0.8661
  974MOL0     C31415   5.843   1.834   5.251 -0.2967  0.6341 -0.1862
  974MOL0     C31416   5.926   1.741   5.157  0.2059  0.4011  0.5301
  974MOL0     C31417   5.870   1.700   5.022  0.1488  0.3746  0.4758
  974MOL0     C31418   5.734   1.649   5.016  0.6288  0.0503 -0.0277
  974MOL0     C31419   5.624   1.602   5.011 -0.5146  1.1900 -0.2200
  974MOL0     C31420   6.011   1.609   5.592 -0.0413  0.2788 -0.7382
  974MOL0     C31421   6.094   1.645   5.703 -0.9220  0.6704  2.0569
  974MOL0     C31422   6.191   1.531   5.747  0.0803 -0.1266  0.6365
  974MOL0     H31423   6.418   1.867   6.022 -1.4311 -0.6615  0.6945
  974MOL0     H31424   6.539   1.999   6.185 -1.6470  0.0449  0.5091
  974MOL0     H31425   6.450   2.358   6.458  1.0962 -0.1690 -1.7654
  974MOL0     H31426   6.318   2.383   6.339  0.3392  1.4142  1.0014
  974MOL0     H31427   6.344   2.139   6.517  1.3907  0.8361  0.1802
  974MOL0     H31428   6.205   2.203   6.427  0.0336 -1.0486  0.0441
  974MOL0     H31429   6.358   2.303   6.667  1.2870  0.8293 -3.8634
  974MOL0     H31430   6.191   2.251   6.682 -0.2050 -0.1859  0.8086
  974MOL0     H31431   6.249   2.510   6.525  0.0620  3.3919  2.6931
  974MOL0     H31432   6.103   2.435   6.538 -0.3612  1.2322  0.2731
  974MOL0     H31433   6.107   2.602   6.696 -0.1698 -0.0574  1.4556
  974MOL0     H31434   6.137   2.457   6.798  1.7494 -2.2951 -0.9806
  974MOL0     H31435   6.390   2.502   6.806 -1.9011 -2.6698  0.1982
  974MOL0     H31436   6.369   2.624   6.677 -0.0074 -3.0555 -0.4139
  974MOL0     H31437   6.400   2.700   6.912  2.1517 -1.3630 -3.2357
  974MOL0     H31438   6.238   2.623   6.952 -0.2624  3.7795  2.3780
  974MOL0     H31439   6.180   2.800   6.741  1.7561  2.0390 -0.7716
  974MOL0     H31440   6.164   2.844   6.915 -0.9067  1.8222 -1.0111
  974MOL0     H31441   6.290   2.940   6.577  0.7075  2.3526 -1.1250
  974MOL0     H31442   6.398   3.234   6.581  0.6547 -0.1245 -3.4948
  974MOL0     H31443   6.577   3.200   6.609  1.1999 -1.9021 -2.6252
  974MOL0     H31444   6.576   3.036   6.411 -0.0453 -2.1129  1.1707
  974MOL0     H31445   6.399   3.055   6.403  1.9708 -0.1385 -2.8267
  974MOL0     H31446   6.411   3.292   6.360  0.1991  0.4413  1.1844
  974MOL0     H31447   6.444   3.178   6.245 -1.5338  0.7526  0.4617
  974MOL0     H31448   6.701   3.224   6.334  1.3557  1.5753 -0.6158
  974MOL0     H31449   6.635   3.349   6.433  1.3102  0.1513 -0.2801
  974MOL0     H31450   6.527   3.548   6.377  3.2745 -2.0325  2.0673
  974MOL0     H31451   6.546   3.787   6.354  0.4934  0.9319 -1.1048
  974MOL0     H31452   7.042   4.054   5.988 -1.1369 -1.6761  0.6047
  974MOL0     H31453   7.077   4.282   5.938 -0.1158 -2.1259  0.5938
  974MOL0     H31454   6.797   4.664   5.929  2.0441  2.2020  0.0450
  974MOL0     H31455   6.735   4.569   6.055 -0.1342  1.2350 -1.6996
  974MOL0     H31456   6.851   4.760   6.159 -0.8459 -0.4228  0.4077
  974MOL0     H31457   6.959   4.626   6.186  1.9692  0.8412 -1.0466
  974MOL0     H31458   7.083   4.675   5.989 -0.1716 -0.1091 -0.1337
  974MOL0     H31459   6.980   4.810   5.942 -1.0066  0.4145  0.1322
  974MOL0     H31460   7.115   4.805   6.216 -2.0201  0.1657  0.1513
  974MOL0     H31461   7.037   4.943   6.134  0.3372 -0.7702  1.3882
  974MOL0     H31462   7.292   4.811   6.035 -0.7769 -0.4314  0.1645
  974MOL0     H31463   7.303   4.940   6.147  0.3336  1.6953 -0.8017
  974MOL0     H31464   7.190   4.967   5.870 -0.4995  0.8103  1.7351
  974MOL0     H31465   7.175   5.098   6.000  0.3158  0.8010  0.7806
  974MOL0     H31466   7.447   5.007   5.915  1.9426  0.8508  1.2542
  974MOL0     H31467   7.394   5.117   6.046 -2.0987  0.5416  0.8059
  974MOL0     H31468   7.321   5.281   5.886  2.1274  2.0116 -0.6166
  974MOL0     H31469   7.480   5.222   5.834  0.3325  0.5406  0.1644
  974MOL0     H31470   6.668   4.379   6.041 -1.8510 -1.7183  0.3419
  974MOL0     H31471   6.640   4.149   6.114 -0.9798  2.8582  0.8116
  974MOL0     H31472   6.829   3.710   6.036 -1.3437  3.0116 -0.4543
  974MOL0     H31473   6.806   3.474   6.069  0.3605  1.3561  0.1310
  974MOL0     H31474   6.200   2.272   6.195 -0.5648 -0.1346 -1.5406
  974MOL0     H31475   6.119   2.156   5.991  2.1121  3.8266 -0.8135
  974MOL0     H31476   6.005   1.972   5.738 -0.3684  0.2168 -0.0150
  974MOL0     H31477   5.858   1.902   5.541 -0.1686 -0.2481  0.0022
  974MOL0     H31478   5.708   1.824   5.420  1.6473  1.9330  0.8529
  974MOL0     H31479   5.707   1.692   5.298 -0.2017  0.8632  0.0764
  974MOL0     H31480   5.898   1.913   5.303 -1.7504  2.5390 -1.4054
  974MOL0     H31481   5.766   1.889   5.196 -2.7986  0.9387  3.3490
  974MOL0     H31482   5.936   1.644   5.207  0.3788 -1.2533 -2.5319
  974MOL0     H31483   6.023   1.786   5.136  0.2892  0.3317  0.7588
  974MOL0     H31484   5.882   1.784   4.953 -2.3914 -0.4358 -1.0982
  974MOL0     H31485   5.938   1.621   4.989 -0.0392  0.3020  0.2617
  974MOL0     H31486   5.525   1.562   5.007 -0.1755  0.4237 -2.3129
  974MOL0     H31487   6.014   1.508   5.554  1.4911  1.0121 -2.7551
  974MOL0     H31488   6.171   1.455   5.671 -1.6785  1.7929 -0.9334
  974MOL0     H31489   6.296   1.561   5.752  0.4568 -1.5477  2.8055
  974MOL0     H31490   6.167   1.481   5.841 -0.7262 -3.4786 -1.2013
  975MOL0     O31491   6.661   5.294   6.732  0.2775 -0.6515  0.0448
  975MOL0     C31492   6.734   5.218   6.670  0.3001 -0.0337  0.9791
  975MOL0     O31493   6.712   5.164   6.550 -0.3502 -0.5577 -0.2422
  975MOL0     C31494   6.634   5.217   6.447 -0.1526  0.8092 -0.9084
  975MOL0     C31495   6.616   5.358   6.445 -0.5203 -0.3208 -0.1996
  975MOL0     C31496   6.522   5.418   6.361 -0.1681 -0.1434  0.0308
  975MOL0     C31497   6.454   5.343   6.260 -0.9266  0.3112 -1.5052
  975MOL0     O31498   6.362   5.383   6.171 -0.0012 -0.4878  0.7970
  975MOL0     C31499   6.353   5.516   6.124 -0.6894  0.0389 -0.6182
  975MOL0     C31500   6.478   5.579   6.068 -0.3093 -0.0397  0.7775
  975MOL0     C31501   6.470   5.736   6.063  0.2667  0.2897  0.2197
  975MOL0     C31502   6.589   5.815   6.003  0.3937 -0.5018 -0.8656
  975MOL0     C31503   6.561   5.959   6.025 -0.3182 -1.3248 -0.1674
  975MOL0     C31504   6.650   6.070   5.957 -0.3963 -0.9665  0.5936
  975MOL0     C31505   6.806   6.055   5.996 -1.0708  0.6069  0.2084
  975MOL0     C31506   6.853   6.086   6.137 -0.2878 -0.7503  0.4861
  975MOL0     N31507   6.852   6.229   6.160  0.0398 -0.1040  0.7984
  975MOL0     C31508   6.959   6.318   6.155 -0.6963  0.0247 -0.5792
  975MOL0     C31509   6.910   6.433   6.204  0.6705  0.2829 -0.6652
  975MOL0     C31510   6.990   6.561   6.222  0.3752 -0.3678 -0.7542
  975MOL0     C31511   7.131   6.551   6.271 -0.9738  0.1973  1.1021
  975MOL0     C31512   7.223   6.674   6.235  1.3911  0.2619 -0.0334
  975MOL0     C31513   7.371   6.661   6.273  0.8440  0.1894 -0.4641
  975MOL0     O31514   7.447   6.754   6.203  0.1350  0.3705  0.6154
  975MOL0     C31515   7.580   6.734   6.189  0.3187  0.4833 -0.0549
  975MOL0     C31516   7.641   6.816   6.094 -0.4502  0.2873  0.4669
  975MOL0     C31517   7.774   6.814   6.068 -0.4853  0.5475  0.2098
  975MOL0     C31518   7.855   6.716   6.120  0.1632  1.1126  0.8022
  975MOL0     C31519   8.000   6.716   6.081  0.5265  0.0262  0.0735
  975MOL0     O31520   8.061   6.839   6.055  0.3927 -0.4338  0.8506
  975MOL0     C31521   8.188   6.825   6.005 -0.9212  0.7193 -0.3407
  975MOL0     C31522   8.224   6.804   5.873  0.4441  0.1506  0.9211
  975MOL0     C31523   8.358   6.794   5.825  0.0085 -0.1356 -0.8019
  975MOL0     C31524   8.467   6.809   5.922  0.6625  0.5138  0.5478
  975MOL0     O31525   8.595   6.807   5.878  0.5251  0.4015 -0.0541
  975MOL0     C31526   8.627   6.917   5.795  1.1316  0.4219 -0.7666
  975MOL0     C31527   8.680   6.846   5.668 -0.3115 -0.4860  0.1234
  975MOL0     C31528   8.748   6.935   5.570 -0.2784 -0.4438 -0.1902
  975MOL0     C31529   8.843   6.866   5.476 -0.3027  0.2429  0.2195
  975MOL0     C31530   8.789   6.735   5.417  0.3705  1.2538 -0.0958
  975MOL0     C31531   8.879   6.681   5.309 -0.0343 -0.2368 -0.3946
  975MOL0     C31532   8.858   6.530   5.285 -0.4259  0.2375  0.8402
  975MOL0     C31533   8.949   6.478   5.166 -0.2238  0.2167  0.3378
  975MOL0    Cl31534   9.120   6.524   5.196  0.4590 -0.0576  0.0145
  975MOL0     C31535   8.430   6.817   6.054  0.0731  0.4131 -1.1061
  975MOL0     C31536   8.296   6.829   6.102  0.5964 -0.9619  0.5356
  975MOL0     O31537   8.059   6.611   6.084  0.6416  0.1631 -0.2724
  975MOL0     C31538   7.805   6.625   6.218  0.9478 -0.0741  0.8470
  975MOL0     C31539   7.664   6.635   6.251  0.4258 -0.6734  0.2965
  975MOL0     N31540   6.774   6.423   6.228 -1.0679  0.4274  0.2001
  975MOL0     N31541   6.746   6.300   6.212 -0.1022 -0.1542 -0.0764
  975MOL0     C31542   6.481   5.208   6.268 -0.5931  0.4571 -1.1808
  975MOL0     C31543   6.563   5.140   6.358 -0.4887 -0.7315 -0.2310
  975MOL0     C31544   6.857   5.170   6.737 -1.3267  0.5642 -0.3600
  975MOL0     C31545   6.950   5.104   6.666 -0.9741 -0.0242  0.2702
  975MOL0     C31546   7.067   5.053   6.722 -0.8641 -0.9490 -0.4058
  975MOL0     C31547   7.100   5.088   6.847  0.7342 -0.6458 -1.1164
  975MOL0     O31548   7.225   5.060   6.899 -0.0498 -1.0192  0.8159
  975MOL0     C31549   7.240   4.937   6.976 -0.1495  0.0136  0.5112
  975MOL0     C31550   7.357   4.941   7.072 -0.3254  0.5635 -0.4962
  975MOL0     C31551   7.317   5.037   7.186  0.2616 -0.2066  0.5568
  975MOL0     C31552   7.423   5.047   7.297  0.5390  0.6333  0.0733
  975MOL0     C31553   7.550   5.095   7.232  0.4445  0.1358 -0.7266
  975MOL0     C31554   7.646   5.126   7.174  0.2053  0.6178 -0.0087
  975MOL0     C31555   7.015   5.171   6.922  0.2870  0.6438  0.6207
  975MOL0     C31556   6.881   5.204   6.878  0.1951  0.8084  0.8215
  975MOL0     C31557   6.795   5.275   6.973 -0.7558 -0.9694  1.0240
  975MOL0     H31558   6.667   5.416   6.521 -2.1621  1.5767 -0.4618
  975MOL0     H31559   6.517   5.527   6.360 -1.3776 -0.1855 -0.9056
  975MOL0     H31560   6.278   5.535   6.046  0.4648 -1.3771 -2.1551
  975MOL0     H31561   6.322   5.572   6.213 -1.1994  1.6331 -1.7490
  975MOL0     H31562   6.488   5.545   5.964  2.6700  2.3393  0.1280
  975MOL0     H31563   6.571   5.559   6.121  0.4928  0.9657 -0.2054
  975MOL0     H31564   6.449   5.768   6.166  3.8590  0.0469  1.1574
  975MOL0     H31565   6.380   5.766   6.007 -0.2089 -0.8719  0.3442
  975MOL0     H31566   6.674   5.782   6.062 -0.1460 -0.9323 -0.3141
  975MOL0     H31567   6.616   5.781   5.902  3.7236  0.8141 -0.5382
  975MOL0     H31568   6.455   5.980   6.008 -0.5687 -1.0529  1.6065
  975MOL0     H31569   6.570   5.977   6.132  2.2046 -1.3134 -0.3221
  975MOL0     H31570   6.643   6.044   5.851  0.1604 -4.1466  1.2303
  975MOL0     H31571   6.611   6.170   5.979 -1.1342 -0.9843 -0.5378
  975MOL0     H31572   6.866   6.115   5.927 -1.0354  0.8609  0.4604
  975MOL0     H31573   6.834   5.950   5.979 -1.5802  0.6279 -0.8789
  975MOL0     H31574   6.770   6.045   6.196 -0.6731 -1.4981 -0.5375
  975MOL0     H31575   6.948   6.049   6.176  0.9871  3.2320  1.5995
  975MOL0     H31576   7.060   6.286   6.133 -1.9301 -3.5329 -1.8560
  975MOL0     H31577   6.997   6.622   6.132  0.2166  1.3546  0.3549
  975MOL0     H31578   6.932   6.626   6.288  1.9782  2.2846 -1.8012
  975MOL0     H31579   7.127   6.535   6.379 -1.2720  0.4769  1.1349
  975MOL0     H31580   7.161   6.461   6.216 -1.8075  1.6841 -2.0201
  975MOL0     H31581   7.182   6.765   6.280 -0.0935 -0.0618 -0.7044
  975MOL0     H31582   7.213   6.700   6.130  0.1964 -1.8775 -0.5140
  975MOL0     H31583   7.408   6.558   6.266  1.4132  0.4002 -0.7022
  975MOL0     H31584   7.379   6.667   6.382  2.7329 -0.2932 -0.5322
  975MOL0     H31585   7.575   6.882   6.039  0.8328  0.2416 -1.1739
  975MOL0     H31586   7.811   6.877   5.988 -4.3305  1.3345 -1.1449
  975MOL0     H31587   8.134   6.787   5.816  1.2740  1.9543 -1.0733
  975MOL0     H31588   8.384   6.795   5.719  0.2335 -0.7387 -0.7550
  975MOL0     H31589   8.540   6.982   5.779  0.5646  1.0836  3.6570
  975MOL0     H31590   8.702   6.973   5.851  0.1333  2.8478 -1.7027
  975MOL0     H31591   8.757   6.771   5.691  0.3435  0.5472  1.4626
  975MOL0     H31592   8.594   6.790   5.630 -1.6110  1.5709 -0.1067
  975MOL0     H31593   8.663   6.989   5.526 -0.9977 -0.2271  1.3825
  975MOL0     H31594   8.812   7.006   5.624 -2.7688 -0.6809  3.4661
  975MOL0     H31595   8.931   6.837   5.534  0.9586 -0.4239 -1.8951
  975MOL0     H31596   8.868   6.941   5.400 -0.1621  1.6579  1.6240
  975MOL0     H31597   8.688   6.749   5.379 -1.1049 -1.6911  2.2500
  975MOL0     H31598   8.775   6.672   5.506  0.8319  0.7256 -0.3938
  975MOL0     H31599   8.857   6.750   5.227  0.5641  1.5505  0.8768
  975MOL0     H31600   8.982   6.704   5.339 -0.4597  2.4589 -0.7543
  975MOL0     H31601   8.755   6.504   5.258  0.3337 -2.0063 -0.1485
  975MOL0     H31602   8.888   6.463   5.366 -0.0193 -2.3852 -1.2953
  975MOL0     H31603   8.947   6.370   5.152 -1.1013  0.3304 -0.4907
  975MOL0     H31604   8.927   6.523   5.069  1.9491 -3.0298 -1.8669
  975MOL0     H31605   8.518   6.824   6.117 -2.8394 -0.3316  3.5471
  975MOL0     H31606   8.284   6.841   6.209  0.3022  0.0560  0.4083
  975MOL0     H31607   7.865   6.558   6.278  1.0336 -0.3972  0.4089
  975MOL0     H31608   7.618   6.569   6.324  0.0022 -0.9578 -0.2228
  975MOL0     H31609   6.440   5.140   6.195  1.1033 -2.3966  0.3525
  975MOL0     H31610   6.573   5.033   6.344  1.3876 -0.6311  0.0997
  975MOL0     H31611   6.925   5.069   6.566 -3.3379 -0.6444  1.0188
  975MOL0     H31612   7.149   5.004   6.669 -0.6220 -2.6193  1.3953
  975MOL0     H31613   7.240   4.853   6.906 -1.8295  0.6883 -0.3538
  975MOL0     H31614   7.150   4.920   7.038 -2.4933  0.0286 -2.6495
  975MOL0     H31615   7.450   4.972   7.024  0.1218  3.1627  1.8212
  975MOL0     H31616   7.365   4.843   7.119 -0.1051  1.3127  1.1191
  975MOL0     H31617   7.223   5.010   7.235 -1.4695  3.4726 -0.3816
  975MOL0     H31618   7.300   5.140   7.153 -3.9731 -1.2622 -1.1641
  975MOL0     H31619   7.397   5.120   7.374  0.1129  1.2711 -0.6571
  975MOL0     H31620   7.425   4.944   7.334  0.6276  1.0437  1.2409
  975MOL0     H31621   7.746   5.143   7.139 -0.2183  0.7655 -1.1611
  975MOL0     H31622   7.054   5.222   7.010  2.0021 -0.0426  0.3089
  975MOL0     H31623   6.769   5.376   6.941  1.3171 -1.0051 -1.0030
  975MOL0     H31624   6.704   5.215   6.976 -0.1039 -2.0535 -0.1608
  975MOL0     H31625   6.828   5.264   7.077 -1.6144 -4.5303  1.0387
  976MOL0     O31626   9.924  11.342   2.304 -0.2035  0.0853 -0.0899
  976MOL0     C31627   9.806  11.333   2.326  0.2583 -0.0334  0.3778
  976MOL0     O31628   9.717  11.286   2.233  0.3665 -0.4599 -0.6704
  976MOL0     C31629   9.735  11.282   2.092 -0.0632  0.4418 -0.4203
  976MOL0     C31630   9.815  11.378   2.024  0.2227  0.3767 -0.2831
  976MOL0     C31631   9.835  11.369   1.883  0.3837 -0.1636 -0.3207
  976MOL0     C31632   9.784  11.262   1.816  0.1965 -0.8360 -1.8484
  976MOL0     O31633   9.790  11.276   1.684 -0.7340 -0.2153  0.0149
  976MOL0     C31634   9.799  11.160   1.591  0.5310 -0.7048 -0.1458
  976MOL0     C31635   9.923  11.071   1.613  0.0215  0.4993 -0.0456
  976MOL0     C31636  10.054  11.116   1.551  0.6427  0.1282  0.2574
  976MOL0     C31637  10.075  11.104   1.400  0.6564  0.2787 -0.2280
  976MOL0     C31638  10.126  10.960   1.353  0.3298 -0.1004 -0.5125
  976MOL0     C31639  10.167  10.946   1.207  1.0366 -0.0195 -0.0624
  976MOL0     C31640  10.040  10.963   1.120  0.0122 -0.0364 -0.3678
  976MOL0     C31641  10.063  10.887   0.986 -0.5609 -0.1672 -0.0642
  976MOL0     N31642  10.199  10.924   0.923  0.2016 -0.5866 -0.5222
  976MOL0     C31643  10.307  10.834   0.897  0.5243  0.2086  0.1051
  976MOL0     C31644  10.400  10.908   0.839 -0.4287  0.7190 -0.6181
  976MOL0     C31645  10.534  10.859   0.784 -0.4023  0.1429  0.0510
  976MOL0     C31646  10.652  10.932   0.837  0.1642  0.8300 -0.1107
  976MOL0     C31647  10.697  10.909   0.981  0.3943  0.4310  0.1790
  976MOL0     C31648  10.848  10.966   1.003  0.7187 -0.2288  0.5935
  976MOL0     O31649  10.936  10.897   0.916  0.4106 -0.7903 -0.8218
  976MOL0     C31650  10.991  10.785   0.962 -0.6657  0.0245  0.0017
  976MOL0     C31651  10.972  10.716   1.083  0.5618  0.2398  0.5117
  976MOL0     C31652  11.033  10.592   1.108 -0.3136 -0.3173 -0.0342
  976MOL0     C31653  11.124  10.536   1.010  0.3230  0.3581 -0.8484
  976MOL0     C31654  11.194  10.410   1.035 -0.3943  0.1255 -0.0921
  976MOL0     O31655  11.235  10.342   0.924  0.3220 -0.4375  0.0270
  976MOL0     C31656  11.319  10.234   0.935  0.4675  0.8338  0.2159
  976MOL0     C31657  11.277  10.121   0.863 -0.2122  0.2295 -0.3638
  976MOL0     C31658  11.359  10.012   0.867  0.5316 -0.8062  0.2587
  976MOL0     C31659  11.485  10.008   0.925 -0.3106 -0.2215  0.3431
  976MOL0     O31660  11.563   9.896   0.931  0.4961 -0.3839  0.7344
  976MOL0     C31661  11.565   9.844   1.073  0.1313  1.1148  0.5383
  976MOL0     C31662  11.703   9.805   1.119  0.9885  0.1977  0.0624
  976MOL0     C31663  11.811   9.911   1.083  0.3875 -0.8459 -0.1809
  976MOL0     C31664  11.945   9.866   1.140  0.5005 -1.1798  0.2268
  976MOL0     C31665  12.057   9.987   1.128  0.1149  0.7424  0.2828
  976MOL0     C31666  12.187   9.947   1.195 -0.0057  0.2198 -0.5564
  976MOL0     C31667  12.267  10.076   1.184  0.7195 -0.2208  0.4407
  976MOL0     C31668  12.404  10.070   1.245  0.0157  0.1530  0.0128
  976MOL0    Cl31669  12.461  10.249   1.227 -0.3592  0.5639  0.3499
  976MOL0     C31670  11.530  10.127   0.980 -0.9193  0.1215 -0.6563
  976MOL0     C31671  11.446  10.238   0.992  0.7493  0.0243  0.6644
  976MOL0     O31672  11.225  10.379   1.152  0.4775  0.4478  0.1618
  976MOL0     C31673  11.145  10.607   0.896 -0.0817 -0.7433  0.6370
  976MOL0     C31674  11.077  10.729   0.868 -0.4556 -0.4583 -0.3827
  976MOL0     N31675  10.360  11.034   0.832  0.6361 -0.6514 -0.7734
  976MOL0     N31676  10.235  11.041   0.869 -0.4099 -0.0794 -0.9153
  976MOL0     C31677   9.705  11.162   1.886 -0.5620  0.1866  0.0693
  976MOL0     C31678   9.680  11.176   2.019 -0.1779 -0.0193 -0.9641
  976MOL0     C31679   9.758  11.394   2.453  0.3884  0.0804 -0.2427
  976MOL0     C31680   9.856  11.471   2.526  0.6227 -0.4964 -0.1904
  976MOL0     C31681   9.822  11.557   2.634  0.4145  0.6122  0.1666
  976MOL0     C31682   9.693  11.545   2.688 -0.3420 -0.1379  1.2716
  976MOL0     O31683   9.676  11.614   2.806 -0.5103 -0.1797 -0.5901
  976MOL0     C31684   9.546  11.623   2.862  0.0914 -0.7266 -1.1232
  976MOL0     C31685   9.452  11.724   2.805  0.2667  1.5609  0.2833
  976MOL0     C31686   9.342  11.755   2.908 -0.0910  0.6864  0.6793
  976MOL0     C31687   9.219  11.831   2.854 -0.9997  0.7086 -1.3857
  976MOL0     C31688   9.241  11.968   2.812  0.2534  0.5208 -0.0953
  976MOL0     C31689   9.249  12.084   2.782  0.2940  0.2495 -0.4838
  976MOL0     C31690   9.593  11.468   2.617 -0.0712 -1.0649 -0.4894
  976MOL0     C31691   9.624  11.404   2.494  0.3778 -0.5321 -0.5054
  976MOL0     C31692   9.516  11.329   2.415 -0.3809 -0.6776  0.4126
  976MOL0     H31693   9.865  11.458   2.078 -0.1847 -0.8790  2.0877
  976MOL0     H31694   9.895  11.444   1.833  1.3542 -0.0173  1.0206
  976MOL0     H31695   9.709  11.100   1.606 -0.6366  0.7952 -0.8784
  976MOL0     H31696   9.786  11.193   1.488  0.8477 -2.9080 -0.9477
  976MOL0     H31697   9.893  10.976   1.567  1.0508  1.1247 -2.1259
  976MOL0     H31698   9.941  11.061   1.721 -3.3112 -0.2488  0.5513
  976MOL0     H31699  10.144  11.073   1.595  0.7815 -0.2632 -0.3894
  976MOL0     H31700  10.066  11.223   1.570 -1.2545  0.1840  1.3677
  976MOL0     H31701   9.985  11.137   1.346 -0.0126 -1.4691 -0.2366
  976MOL0     H31702  10.148  11.180   1.369  0.4357  0.2781 -0.7619
  976MOL0     H31703  10.220  10.940   1.406  2.1446 -2.2038 -4.1233
  976MOL0     H31704  10.041  10.894   1.370 -0.6502  0.8036 -1.7047
  976MOL0     H31705  10.231  11.028   1.176 -1.1389  2.0312  0.6031
  976MOL0     H31706  10.213  10.847   1.192 -1.8948 -1.7397  1.3550
  976MOL0     H31707  10.027  11.070   1.103  2.4944 -0.1086 -3.8232
  976MOL0     H31708   9.951  10.927   1.172  0.3384  2.2096  1.8939
  976MOL0     H31709  10.067  10.779   1.003  0.7139  0.1103  1.6216
  976MOL0     H31710   9.981  10.897   0.914  3.2455  0.2160 -4.8789
  976MOL0     H31711  10.324  10.734   0.933 -2.3656  0.3105  2.1240
  976MOL0     H31712  10.548  10.754   0.812 -3.3215 -0.0759  1.0429
  976MOL0     H31713  10.526  10.867   0.676 -1.6532 -1.7598 -0.0438
  976MOL0     H31714  10.724  10.919   0.755 -2.3147 -1.1873 -2.1479
  976MOL0     H31715  10.622  11.037   0.836 -0.6624  0.6599 -3.1760
  976MOL0     H31716  10.677  10.803   1.002 -0.9337  0.0138 -2.7274
  976MOL0     H31717  10.626  10.962   1.046  1.0905  2.4257 -0.6202
  976MOL0     H31718  10.874  10.966   1.109  1.2366 -0.4686  0.4691
  976MOL0     H31719  10.859  11.071   0.976 -1.5848  0.4136  1.8507
  976MOL0     H31720  10.901  10.745   1.160  0.7695  0.0206  0.7840
  976MOL0     H31721  11.021  10.549   1.207  2.2142 -0.7371  0.1620
  976MOL0     H31722  11.172  10.114   0.836  0.0728 -1.1787 -1.2211
  976MOL0     H31723  11.323   9.915   0.834 -0.0405 -0.9570  1.2715
  976MOL0     H31724  11.528   9.913   1.150 -0.8613 -0.4434  1.5008
  976MOL0     H31725  11.510   9.750   1.084  1.6418 -0.0446 -1.2699
  976MOL0     H31726  11.704   9.783   1.227  2.2520  1.3272  0.3009
  976MOL0     H31727  11.714   9.710   1.065 -1.5589  0.0463 -0.3132
  976MOL0     H31728  11.810   9.924   0.974 -1.4497 -0.2982 -0.1355
  976MOL0     H31729  11.782  10.005   1.131  1.6869 -0.7925  0.5262
  976MOL0     H31730  11.990   9.775   1.099 -2.8669 -1.9043 -2.1918
  976MOL0     H31731  11.926   9.847   1.246  2.0296 -1.4430  0.4776
  976MOL0     H31732  12.022  10.079   1.176  1.3441  0.6449  1.4150
  976MOL0     H31733  12.069  10.008   1.021 -2.6815  0.3474 -0.1815
  976MOL0     H31734  12.156   9.917   1.296  0.5099 -3.4385 -1.3493
  976MOL0     H31735  12.239   9.859   1.157  1.0520  0.1514  0.9347
  976MOL0     H31736  12.221  10.165   1.228  0.0916  0.2866 -1.1842
  976MOL0     H31737  12.279  10.089   1.077  1.4393  2.6392  0.7986
  976MOL0     H31738  12.400  10.053   1.353  1.7712  0.6662  0.2023
  976MOL0     H31739  12.458   9.984   1.204 -3.4865 -1.9488 -0.5839
  976MOL0     H31740  11.632  10.127   1.018 -1.2977  3.6387  0.7659
  976MOL0     H31741  11.475  10.333   1.036 -0.1517  0.7365 -0.2161
  976MOL0     H31742  11.217  10.578   0.821  1.4367  0.3197  1.6010
  976MOL0     H31743  11.113  10.789   0.785  0.4983  0.2319  0.4967
  976MOL0     H31744   9.668  11.082   1.823  0.8069  0.3777 -1.0416
  976MOL0     H31745   9.621  11.111   2.084 -0.7115  0.7436 -0.6761
  976MOL0     H31746   9.958  11.489   2.493  1.4010  0.0766  2.3521
  976MOL0     H31747   9.904  11.611   2.680  0.6826 -1.2893  2.0331
  976MOL0     H31748   9.562  11.635   2.969  0.4155 -0.9151 -1.1505
  976MOL0     H31749   9.498  11.525   2.873 -0.3311 -0.3612  0.4430
  976MOL0     H31750   9.407  11.680   2.715  1.2880  2.1383 -0.5325
  976MOL0     H31751   9.506  11.812   2.769 -0.2727 -0.1593 -5.9927
  976MOL0     H31752   9.386  11.809   2.993  0.2758  0.5166  0.5993
  976MOL0     H31753   9.312  11.655   2.940  1.9180 -0.0739  0.3583
  976MOL0     H31754   9.181  11.773   2.769  1.5000 -1.4424 -1.1764
  976MOL0     H31755   9.144  11.815   2.931  2.6364 -0.5230  2.2761
  976MOL0     H31756   9.265  12.177   2.731 -0.3296  0.3129 -0.5721
  976MOL0     H31757   9.496  11.467   2.666 -0.3434 -0.1731 -0.9945
  976MOL0     H31758   9.424  11.326   2.474  1.5799 -1.2116  3.6971
  976MOL0     H31759   9.479  11.378   2.325  0.9342  1.1048  0.7998
  976MOL0     H31760   9.547  11.228   2.387 -1.8249 -0.7553 -1.0558
  977MOL0     O31761   5.961   8.697   3.096  0.1434  0.6053  0.4521
  977MOL0     C31762   5.935   8.690   2.977 -0.1877 -0.5020  0.2439
  977MOL0     O31763   5.876   8.793   2.908  0.1031  0.9949 -0.2649
  977MOL0     C31764   5.903   8.923   2.951  0.3556  0.5377 -0.9908
  977MOL0     C31765   5.788   9.007   2.944  0.8793 -0.0520 -0.4822
  977MOL0     C31766   5.787   9.140   2.979 -0.7464  0.4521  0.1668
  977MOL0     C31767   5.905   9.193   3.047  0.3426 -0.2446  0.4697
  977MOL0     O31768   5.921   9.316   3.110  0.0959  0.4244 -0.3698
  977MOL0     C31769   5.805   9.385   3.148  0.1567  0.4856  0.4016
  977MOL0     C31770   5.828   9.468   3.272 -0.3824  0.3172 -0.7243
  977MOL0     C31771   5.721   9.583   3.285  0.3870  0.5333 -0.3994
  977MOL0     C31772   5.598   9.543   3.357 -0.0476 -0.2470 -0.5677
  977MOL0     C31773   5.620   9.530   3.503 -0.0110 -0.6890 -0.4772
  977MOL0     C31774   5.489   9.517   3.574  0.8956 -0.9562 -0.1959
  977MOL0     C31775   5.503   9.508   3.726 -1.2909 -0.1268  0.0904
  977MOL0     C31776   5.371   9.495   3.807  0.2256  0.3172 -0.2158
  977MOL0     N31777   5.309   9.358   3.779  0.2331 -0.1636 -0.3744
  977MOL0     C31778   5.359   9.231   3.824 -0.4601 -0.4481  0.2912
  977MOL0     C31779   5.296   9.136   3.743 -0.7340  0.2687  0.4972
  977MOL0     C31780   5.287   8.987   3.742 -0.1619  0.1413 -0.2483
  977MOL0     C31781   5.276   8.931   3.881 -1.0503 -0.8128  0.2887
  977MOL0     C31782   5.156   9.000   3.955  0.8221  0.8842  0.6731
  977MOL0     C31783   5.177   9.003   4.104 -0.1839 -0.8392  0.0179
  977MOL0     O31784   5.274   9.098   4.153 -0.1146 -0.1642 -0.0029
  977MOL0     C31785   5.296   9.139   4.282  0.1360 -0.0033  0.8854
  977MOL0     C31786   5.213   9.096   4.389  0.5167 -0.3742 -0.8108
  977MOL0     C31787   5.212   9.163   4.508  0.2848 -0.1293  0.2867
  977MOL0     C31788   5.299   9.276   4.514 -0.8027  0.3322 -0.0550
  977MOL0     C31789   5.316   9.348   4.645 -0.0560  0.8471 -0.4571
  977MOL0     O31790   5.220   9.313   4.745 -0.8233  0.2738  0.7017
  977MOL0     C31791   5.226   9.370   4.869 -0.8855 -1.1962  0.6991
  977MOL0     C31792   5.160   9.489   4.890  0.2194  0.5450  0.0014
  977MOL0     C31793   5.188   9.573   4.994  0.4666 -0.1091 -0.4585
  977MOL0     C31794   5.277   9.538   5.098 -0.2303  0.1537  0.2386
  977MOL0     O31795   5.310   9.608   5.213  0.5240  0.2767  1.1417
  977MOL0     C31796   5.209   9.694   5.251  0.1110 -1.1087 -0.1916
  977MOL0     C31797   5.246   9.758   5.389  0.1947  0.3703 -1.2518
  977MOL0     C31798   5.172   9.885   5.421  0.1929  0.6945 -0.3935
  977MOL0     C31799   5.026   9.857   5.468 -0.0462 -0.7377  0.3745
  977MOL0     C31800   4.939   9.979   5.496 -0.2094  0.3248 -0.0220
  977MOL0     C31801   4.825   9.920   5.584 -0.4682 -0.6390 -0.5230
  977MOL0     C31802   4.706  10.014   5.604 -0.4874  0.2098  0.3671
  977MOL0     C31803   4.606   9.971   5.722  1.1986 -0.1178 -0.2079
  977MOL0    Cl31804   4.468  10.082   5.713 -0.2696 -0.1737 -0.3497
  977MOL0     C31805   5.338   9.411   5.083  0.2864  0.3579  0.1386
  977MOL0     C31806   5.321   9.330   4.964  0.2965  0.7589 -1.1138
  977MOL0     O31807   5.411   9.415   4.666  0.1552 -0.0975 -0.1504
  977MOL0     C31808   5.378   9.313   4.417  1.1214 -0.4207 -0.2619
  977MOL0     C31809   5.378   9.253   4.296  0.1312  0.1311  0.3089
  977MOL0     N31810   5.217   9.208   3.653 -0.3793 -0.1688  0.5919
  977MOL0     N31811   5.224   9.335   3.673 -0.1468  0.1757  0.2733
  977MOL0     C31812   6.029   9.115   3.042  1.1112  0.6093 -0.1060
  977MOL0     C31813   6.021   8.977   2.993 -0.0089 -1.2845  0.1198
  977MOL0     C31814   5.971   8.572   2.893 -1.3996  0.8131 -0.3390
  977MOL0     C31815   6.018   8.588   2.752  0.0206 -0.8688 -1.2033
  977MOL0     C31816   6.040   8.465   2.684 -0.5846  0.2797  0.0622
  977MOL0     C31817   6.026   8.337   2.744 -0.3483 -1.1351 -0.0725
  977MOL0     O31818   6.029   8.222   2.672 -0.0002 -0.0875  0.0924
  977MOL0     C31819   6.138   8.204   2.580 -0.1149  1.3587 -0.0259
  977MOL0     C31820   6.105   8.063   2.535 -1.1110  0.2973  0.4894
  977MOL0     C31821   6.141   8.031   2.394  0.3353  0.1761 -0.2820
  977MOL0     C31822   6.095   7.890   2.354  0.1881 -0.6871  0.5363
  977MOL0     C31823   6.163   7.778   2.430  0.2704 -1.6418  0.8940
  977MOL0     C31824   6.237   7.705   2.491 -0.1984  0.0160 -0.2691
  977MOL0     C31825   5.986   8.336   2.875  0.1355  0.1001  0.6622
  977MOL0     C31826   5.962   8.442   2.954 -0.1067 -0.3740  0.5379
  977MOL0     C31827   5.936   8.418   3.104 -0.0140  0.9605 -0.0112
  977MOL0     H31828   5.696   8.984   2.891 -1.4210  0.9164  2.7801
  977MOL0     H31829   5.691   9.189   2.966 -0.2667  1.5729  0.7203
  977MOL0     H31830   5.781   9.442   3.057  0.6216  1.4761  0.8769
  977MOL0     H31831   5.727   9.312   3.170  0.3306  0.9702  2.9644
  977MOL0     H31832   5.930   9.506   3.265  0.1079 -0.1378  2.2796
  977MOL0     H31833   5.818   9.401   3.358 -0.8972  2.1831  0.7440
  977MOL0     H31834   5.688   9.601   3.182 -2.2733 -1.3267  0.0199
  977MOL0     H31835   5.763   9.680   3.312  5.4419 -0.6541 -2.5857
  977MOL0     H31836   5.525   9.621   3.333  0.4031  0.0150 -1.1058
  977MOL0     H31837   5.566   9.445   3.322  2.1529 -0.8465 -1.0418
  977MOL0     H31838   5.679   9.440   3.521  1.1990  0.4236  1.4441
  977MOL0     H31839   5.674   9.616   3.543 -3.5080  1.4383  0.0379
  977MOL0     H31840   5.432   9.610   3.560 -2.3194 -2.8726 -0.9277
  977MOL0     H31841   5.418   9.443   3.536 -0.8378 -0.2754  1.5084
  977MOL0     H31842   5.546   9.601   3.767  2.9239 -0.2500 -3.3059
  977MOL0     H31843   5.572   9.424   3.738 -1.8980 -0.5433  0.6695
  977MOL0     H31844   5.401   9.492   3.912  1.1970  0.6726 -0.4668
  977MOL0     H31845   5.313   9.584   3.782 -1.6913 -0.9257 -0.3629
  977MOL0     H31846   5.442   9.212   3.891 -0.2734 -1.4345 -0.2024
  977MOL0     H31847   5.196   8.957   3.690 -0.8812 -1.0996  1.6372
  977MOL0     H31848   5.376   8.947   3.692 -1.5142 -1.8752 -1.1678
  977MOL0     H31849   5.278   8.823   3.867 -0.2272 -1.1654  2.6180
  977MOL0     H31850   5.368   8.956   3.935 -2.1320  2.0659  0.9734
  977MOL0     H31851   5.064   8.944   3.938  0.5492  1.9879 -1.9704
  977MOL0     H31852   5.128   9.098   3.915  0.5511  0.3276 -0.5592
  977MOL0     H31853   5.205   8.902   4.137  1.0639 -0.8772 -1.0627
  977MOL0     H31854   5.085   9.037   4.152  0.2778  0.0392  0.2986
  977MOL0     H31855   5.162   9.000   4.389 -0.0939 -0.0990  0.9554
  977MOL0     H31856   5.159   9.129   4.597  3.7610  3.3192  4.1203
  977MOL0     H31857   5.074   9.524   4.835 -1.1768  1.8256  2.7836
  977MOL0     H31858   5.142   9.671   4.994  3.1688  1.2435 -0.5075
  977MOL0     H31859   5.189   9.770   5.174 -3.5121 -1.1489  0.5419
  977MOL0     H31860   5.117   9.635   5.255 -0.6200 -0.2267 -2.3727
  977MOL0     H31861   5.241   9.679   5.464 -0.4921  1.8512  0.3195
  977MOL0     H31862   5.349   9.794   5.378  1.8308 -2.9502  1.3809
  977MOL0     H31863   5.222   9.936   5.504 -0.6157  2.2451 -0.8143
  977MOL0     H31864   5.175   9.949   5.332  3.9052  1.8383  0.3847
  977MOL0     H31865   5.031   9.793   5.556  0.3271  0.5096  1.2829
  977MOL0     H31866   4.985   9.799   5.384  1.5658  0.6466 -1.4624
  977MOL0     H31867   4.895  10.016   5.404  0.4301 -0.0842 -0.4993
  977MOL0     H31868   4.998  10.060   5.540 -1.3070  1.1081  0.0622
  977MOL0     H31869   4.780   9.829   5.545 -1.3499 -1.0602  1.3400
  977MOL0     H31870   4.872   9.908   5.682  1.2640  2.9389 -0.7532
  977MOL0     H31871   4.635  10.022   5.521 -2.2972 -1.6331  1.6271
  977MOL0     H31872   4.743  10.114   5.631  1.8948 -0.2780 -0.8362
  977MOL0     H31873   4.567   9.869   5.711 -2.5771  1.0759  0.5052
  977MOL0     H31874   4.637   9.977   5.827 -0.7759  2.6480  0.3277
  977MOL0     H31875   5.410   9.381   5.158 -0.7259  1.0916  1.4443
  977MOL0     H31876   5.374   9.243   4.927  2.2259  0.6574  1.5349
  977MOL0     H31877   5.446   9.397   4.430  2.3590 -1.2335 -1.2147
  977MOL0     H31878   5.428   9.295   4.210  1.7322 -3.8439 -0.9168
  977MOL0     H31879   6.126   9.150   3.077  2.1063 -0.3300 -1.7824
  977MOL0     H31880   6.103   8.909   3.013 -0.7809 -1.7369  2.0910
  977MOL0     H31881   6.014   8.681   2.696  3.1233 -0.6360 -1.2031
  977MOL0     H31882   6.053   8.480   2.577 -0.4318  1.2771  0.2077
  977MOL0     H31883   6.245   8.205   2.602  0.4353 -2.5171 -1.6619
  977MOL0     H31884   6.123   8.284   2.507  1.1906  1.1126 -0.5796
  977MOL0     H31885   5.996   8.052   2.536 -1.2121  1.2724  0.5628
  977MOL0     H31886   6.162   7.988   2.591  2.5202 -1.5055 -4.7911
  977MOL0     H31887   6.249   8.035   2.377 -0.0881 -0.7877 -3.8843
  977MOL0     H31888   6.087   8.106   2.336 -3.1341 -0.8191  1.3697
  977MOL0     H31889   5.993   7.873   2.389 -0.8460  1.1591 -1.3515
  977MOL0     H31890   6.103   7.874   2.246 -1.0567 -1.4072  0.5312
  977MOL0     H31891   6.297   7.655   2.564 -0.5441  0.3813  0.2721
  977MOL0     H31892   5.985   8.230   2.900  3.4879 -0.9124 -2.5484
  977MOL0     H31893   5.912   8.311   3.115  1.1401  0.1420 -3.8721
  977MOL0     H31894   6.015   8.448   3.173  0.5894  0.9208 -0.6684
  977MOL0     H31895   5.852   8.475   3.146  2.2462  3.8612  0.8924
  978MOL0     O31896   1.443  10.987   6.303  0.2749  0.6225  0.1061
  978MOL0     C31897   1.425  10.880   6.360 -0.3427 -0.6490 -0.7372
  978MOL0     O31898   1.348  10.862   6.473  0.1496  0.3339  0.2243
  978MOL0     C31899   1.310  10.986   6.526  1.2602 -0.7284  0.1553
  978MOL0     C31900   1.400  11.056   6.603 -0.4412 -0.5044 -0.2131
  978MOL0     C31901   1.365  11.188   6.652  0.6599 -0.1286 -0.3921
  978MOL0     C31902   1.242  11.234   6.622  0.4642  0.0012  0.5441
  978MOL0     O31903   1.190  11.342   6.667 -0.0738 -0.0361  0.1642
  978MOL0     C31904   1.241  11.414   6.780  0.0084 -0.6481 -0.2683
  978MOL0     C31905   1.145  11.531   6.787 -0.7577 -0.0266  0.2022
  978MOL0     C31906   1.196  11.642   6.871 -0.9247 -0.6836  0.1034
  978MOL0     C31907   1.081  11.735   6.928 -0.1984  0.3817  0.1550
  978MOL0     C31908   1.124  11.851   7.016  0.1429  0.2980 -0.8106
  978MOL0     C31909   1.188  11.807   7.148  0.5487  0.0158  0.0048
  978MOL0     C31910   1.077  11.795   7.248 -0.8911 -0.2918 -0.5288
  978MOL0     C31911   1.125  11.721   7.377 -0.1618  0.8352 -0.0889
  978MOL0     N31912   1.231  11.792   7.443  0.0353 -0.5432 -0.0874
  978MOL0     C31913   1.231  11.921   7.484  0.1901  0.2005 -0.1892
  978MOL0     C31914   1.356  11.955   7.516 -0.1646  1.3311 -0.5668
  978MOL0     C31915   1.391  12.091   7.563  0.0109  0.4878 -0.5998
  978MOL0     C31916   1.372  12.187   7.454  0.1708 -1.2630  0.1593
  978MOL0     C31917   1.403  12.320   7.524  0.1328 -0.7103  0.1703
  978MOL0     C31918   1.410  12.431   7.418  0.6637 -0.1510 -0.9131
  978MOL0     O31919   1.361  12.541   7.493 -0.7326 -0.6333 -0.6562
  978MOL0     C31920   1.454  12.640   7.529  0.5189 -0.3003 -0.4412
  978MOL0     C31921   1.415  12.769   7.507  0.3158 -1.1406 -0.5049
  978MOL0     C31922   1.496  12.877   7.540 -1.4679 -0.0012  0.0992
  978MOL0     C31923   1.614  12.851   7.611 -1.9014  0.7603  0.4388
  978MOL0     C31924   1.706  12.952   7.669  0.2531 -1.1547 -0.5877
  978MOL0     O31925   1.831  12.920   7.710 -0.2843  0.7440 -0.8607
  978MOL0     C31926   1.913  13.011   7.772 -0.2421 -0.3014 -0.8373
  978MOL0     C31927   2.027  13.063   7.710 -0.1159  0.9281 -0.1201
  978MOL0     C31928   2.101  13.156   7.771 -0.3317 -0.1659  0.2681
  978MOL0     C31929   2.080  13.196   7.905  0.6569 -0.3927  0.8415
  978MOL0     O31930   2.166  13.276   7.975  0.5580 -0.3312  0.1999
  978MOL0     C31931   2.286  13.333   7.917 -0.7074  0.3002 -0.7398
  978MOL0     C31932   2.408  13.254   7.958 -0.2343  0.9921  1.2418
  978MOL0     C31933   2.427  13.247   8.113 -0.0514  0.8687 -0.1928
  978MOL0     C31934   2.416  13.109   8.172 -0.5213  0.4564  1.5907
  978MOL0     C31935   2.406  13.128   8.323  0.2197  0.1375 -0.4528
  978MOL0     C31936   2.363  13.005   8.401  0.1570 -0.5217 -0.5177
  978MOL0     C31937   2.400  13.010   8.542  0.7992 -0.1087 -0.4534
  978MOL0     C31938   2.329  12.908   8.629  0.1174 -0.1270  0.2429
  978MOL0    Cl31939   2.315  12.738   8.537 -0.3065 -0.3487  0.1497
  978MOL0     C31940   1.971  13.137   7.975 -0.1074 -0.0286 -0.1291
  978MOL0     C31941   1.886  13.051   7.904 -0.0492  1.0896  0.5265
  978MOL0     O31942   1.650  13.060   7.680  0.1738  0.1675  0.0200
  978MOL0     C31943   1.643  12.712   7.643 -0.8506  0.4638  0.1906
  978MOL0     C31944   1.571  12.608   7.599  0.8817  0.0448  0.0854
  978MOL0     N31945   1.439  11.843   7.492 -0.0134  0.2190 -0.3836
  978MOL0     N31946   1.366  11.750   7.440 -0.9397  0.5327  0.2323
  978MOL0     C31947   1.150  11.157   6.538  0.3393 -0.1408 -0.0441
  978MOL0     C31948   1.185  11.029   6.492  1.2549 -0.5503 -0.5612
  978MOL0     C31949   1.477  10.752   6.310 -0.7808  1.0623 -0.3213
  978MOL0     C31950   1.446  10.633   6.380 -0.0949  0.0519  0.0249
  978MOL0     C31951   1.464  10.502   6.327 -0.4482  0.1501 -0.4495
  978MOL0     C31952   1.525  10.485   6.207 -0.1792 -0.4726 -0.4281
  978MOL0     O31953   1.580  10.359   6.172  0.2491 -0.3515 -0.5238
  978MOL0     C31954   1.607  10.334   6.034 -0.2909 -0.0621 -0.1582
  978MOL0     C31955   1.550  10.197   5.986 -0.2972 -0.1970 -0.0286
  978MOL0     C31956   1.404  10.198   5.954 -0.2557 -1.4679 -0.2073
  978MOL0     C31957   1.345  10.062   5.927  0.3101  0.4419  0.1580
  978MOL0     C31958   1.375   9.965   6.029  0.1456  0.3951  0.7466
  978MOL0     C31959   1.396   9.881   6.108  0.2029 -0.8506  0.6890
  978MOL0     C31960   1.573  10.596   6.141  0.0458 -0.0734  0.7484
  978MOL0     C31961   1.546  10.728   6.187  1.2702 -0.0855 -0.0419
  978MOL0     C31962   1.594  10.849   6.109 -0.0197 -0.5433  0.2077
  978MOL0     H31963   1.497  11.019   6.636  0.2342 -0.5630 -2.1139
  978MOL0     H31964   1.419  11.263   6.708 -0.6459  1.3791 -1.0584
  978MOL0     H31965   1.243  11.355   6.872 -0.9679  0.7505  0.6991
  978MOL0     H31966   1.343  11.443   6.754  0.7539 -4.2977 -2.1303
  978MOL0     H31967   1.053  11.490   6.831  0.5808 -3.0038  0.4925
  978MOL0     H31968   1.125  11.572   6.688  0.5126  0.1470 -0.0023
  978MOL0     H31969   1.272  11.693   6.811  0.5899  1.5634  3.6338
  978MOL0     H31970   1.245  11.601   6.960 -2.9870 -1.0609  1.1289
  978MOL0     H31971   1.025  11.778   6.846  1.7300 -1.2776 -2.1752
  978MOL0     H31972   1.004  11.681   6.984 -0.3998 -1.3098 -1.6602
  978MOL0     H31973   1.186  11.922   6.961 -1.8413  2.6301 -0.2327
  978MOL0     H31974   1.033  11.908   7.039  0.9314  1.1711  0.2300
  978MOL0     H31975   1.220  11.702   7.152  2.5471  0.6350  2.4397
  978MOL0     H31976   1.269  11.871   7.183 -1.1533  0.0844  4.4739
  978MOL0     H31977   0.994  11.736   7.208  0.2561 -1.0934 -1.7726
  978MOL0     H31978   1.040  11.894   7.278 -0.4396 -0.3915  0.4029
  978MOL0     H31979   1.043  11.708   7.447 -0.5095 -1.7291 -0.8902
  978MOL0     H31980   1.163  11.624   7.344  2.4839  0.8605  2.4870
  978MOL0     H31981   1.142  11.982   7.489 -1.1762 -1.6140 -0.9561
  978MOL0     H31982   1.325  12.109   7.649  1.9247 -1.1885  1.3270
  978MOL0     H31983   1.492  12.083   7.604  0.0740 -2.6610 -1.0772
  978MOL0     H31984   1.446  12.168   7.376 -0.7182  2.7880 -1.9271
  978MOL0     H31985   1.275  12.190   7.403  0.7998  4.6275 -1.3788
  978MOL0     H31986   1.500  12.314   7.574  0.9998  2.7345 -0.8072
  978MOL0     H31987   1.333  12.343   7.605 -0.2400  0.1598 -0.3853
  978MOL0     H31988   1.338  12.414   7.336 -1.2573  1.3535  0.3562
  978MOL0     H31989   1.513  12.429   7.383  1.0556 -1.5221  0.2525
  978MOL0     H31990   1.321  12.770   7.452 -1.0239 -0.6298  1.6823
  978MOL0     H31991   1.468  12.977   7.510 -0.4982  0.4623  0.7019
  978MOL0     H31992   2.039  13.023   7.610 -1.0800  0.8926 -0.2324
  978MOL0     H31993   2.185  13.194   7.715 -0.2849 -0.8498 -0.1313
  978MOL0     H31994   2.268  13.357   7.812 -0.4800 -0.5433 -0.9791
  978MOL0     H31995   2.299  13.431   7.963  1.2490 -0.5123  0.5439
  978MOL0     H31996   2.388  13.151   7.927 -0.2206  1.6396 -1.1200
  978MOL0     H31997   2.501  13.279   7.906  0.1391 -2.4073  0.0081
  978MOL0     H31998   2.530  13.282   8.121  0.1929  0.1730 -0.1593
  978MOL0     H31999   2.359  13.317   8.162 -2.2913  0.6776 -2.8232
  978MOL0     H32000   2.503  13.054   8.135 -0.9706  0.9438 -0.2947
  978MOL0     H32001   2.332  13.060   8.123 -0.5473 -1.2551  3.2533
  978MOL0     H32002   2.343  13.213   8.352  2.0592  0.6817  2.4207
  978MOL0     H32003   2.502  13.159   8.365 -0.9889  0.2813  2.4723
  978MOL0     H32004   2.255  12.989   8.389  0.1024 -1.0541  0.5265
  978MOL0     H32005   2.411  12.917   8.357  0.4637 -1.6667  1.9343
  978MOL0     H32006   2.376  13.111   8.578 -1.8979  0.4097 -3.2709
  978MOL0     H32007   2.507  12.988   8.551  0.3787 -1.8074  0.9697
  978MOL0     H32008   2.378  12.899   8.726 -1.8730 -0.1266  1.2935
  978MOL0     H32009   2.233  12.955   8.651  1.9765  3.3480  1.7948
  978MOL0     H32010   1.956  13.162   8.079  1.3663 -0.0798  0.1201
  978MOL0     H32011   1.803  13.007   7.961 -1.5353  1.0919 -1.5287
  978MOL0     H32012   1.724  12.676   7.706  0.6320  1.1985 -1.2238
  978MOL0     H32013   1.601  12.506   7.618 -2.4657 -0.7719  1.5494
  978MOL0     H32014   1.046  11.183   6.518 -0.2115 -1.5419  0.8847
  978MOL0     H32015   1.108  10.963   6.453  2.3017 -1.2237 -1.5688
  978MOL0     H32016   1.395  10.645   6.475 -1.1186  0.5511 -0.5770
  978MOL0     H32017   1.422  10.419   6.383  0.9274  0.6733  1.4409
  978MOL0     H32018   1.712  10.344   6.008  0.6031 -0.1613  2.9771
  978MOL0     H32019   1.547  10.409   5.981 -1.1085  1.8122  3.0833
  978MOL0     H32020   1.587  10.120   6.054 -0.5256 -0.9330 -0.7244
  978MOL0     H32021   1.604  10.186   5.892 -0.6705 -3.0452 -0.0161
  978MOL0     H32022   1.400  10.247   5.856 -2.1189 -1.8039 -0.3355
  978MOL0     H32023   1.347  10.257   6.027  2.8979  1.3230  0.2327
  978MOL0     H32024   1.239  10.073   5.905 -0.2139 -2.3676  0.9568
  978MOL0     H32025   1.398  10.031   5.836  1.4236  2.3134  0.1058
  978MOL0     H32026   1.422   9.790   6.159 -0.4735 -0.4255  1.7991
  978MOL0     H32027   1.641  10.578   6.058 -2.9071 -0.6863 -1.6976
  978MOL0     H32028   1.514  10.903   6.057  0.6322  0.2772  0.0324
  978MOL0     H32029   1.646  10.914   6.180  0.2045 -0.9283  0.4031
  978MOL0     H32030   1.662  10.808   6.034  2.4436  1.1376  1.3976
  979MOL0     O32031   2.588   4.408   0.802  1.1055  0.2972  0.8400
  979MOL0     C32032   2.543   4.311   0.868 -1.4601  0.4185  0.6226
  979MOL0     O32033   2.624   4.235   0.942 -0.4275  0.4765  0.7815
  979MOL0     C32034   2.575   4.126   1.014  0.2566 -0.4697  0.8989
  979MOL0     C32035   2.553   4.006   0.946 -0.2361 -0.3786  0.1600
  979MOL0     C32036   2.486   3.907   1.012 -0.3771 -0.9175 -0.5807
  979MOL0     C32037   2.445   3.925   1.146 -0.2749  0.9861  0.4525
  979MOL0     O32038   2.385   3.813   1.191  0.3662  0.3997  0.8280
  979MOL0     C32039   2.353   3.809   1.326 -0.3139 -0.5528  0.3444
  979MOL0     C32040   2.466   3.770   1.420  0.1255 -1.1555 -0.0418
  979MOL0     C32041   2.540   3.640   1.385  0.0805  0.5311  0.3678
  979MOL0     C32042   2.445   3.519   1.392 -0.2666  0.3476 -0.5731
  979MOL0     C32043   2.523   3.394   1.342  0.1369  0.0150  0.0180
  979MOL0     C32044   2.522   3.367   1.190  0.2990 -0.5697 -0.3996
  979MOL0     C32045   2.576   3.236   1.140  0.7934  0.0892  0.0442
  979MOL0     C32046   2.529   3.197   0.999 -0.7031 -0.8275  0.3787
  979MOL0     N32047   2.574   3.276   0.884  0.6296  0.6523 -0.3850
  979MOL0     C32048   2.705   3.301   0.853  0.1097  0.0019 -0.0942
  979MOL0     C32049   2.691   3.376   0.743 -0.4029  0.0631  0.4718
  979MOL0     C32050   2.809   3.454   0.683  0.4206 -0.5802  1.2646
  979MOL0     C32051   2.848   3.564   0.778  0.0838  0.2169 -0.2773
  979MOL0     C32052   2.938   3.666   0.703 -0.5397 -0.1226 -0.7836
  979MOL0     C32053   2.941   3.800   0.788 -1.1052  0.3132 -0.4009
  979MOL0     O32054   3.017   3.902   0.722  0.5434 -0.4737  0.1428
  979MOL0     C32055   2.952   4.002   0.666  0.1251 -0.0608 -0.2296
  979MOL0     C32056   2.824   3.986   0.616 -0.1904  0.2729  0.8803
  979MOL0     C32057   2.749   4.091   0.567  0.3631  0.5615  0.3991
  979MOL0     C32058   2.803   4.213   0.547  0.0387  0.4009 -0.7822
  979MOL0     C32059   2.725   4.329   0.480  0.4277  0.0771  1.1774
  979MOL0     O32060   2.596   4.299   0.460  0.9785  0.9419  0.0541
  979MOL0     C32061   2.529   4.395   0.385 -0.2403 -0.2662  1.0552
  979MOL0     C32062   2.549   4.410   0.238  0.2677  0.2032 -0.0384
  979MOL0     C32063   2.487   4.520   0.170 -0.4335 -0.6064  0.0841
  979MOL0     C32064   2.414   4.617   0.243 -0.6405 -0.4125 -0.2603
  979MOL0     O32065   2.358   4.729   0.192  0.1282 -0.8189  0.8080
  979MOL0     C32066   2.450   4.796   0.109 -0.5616 -0.6608 -0.3527
  979MOL0     C32067   2.548   4.901   0.169  0.3456 -0.5327  0.0442
  979MOL0     C32068   2.639   4.941   0.048 -0.5254  0.1281 -1.4273
  979MOL0     C32069   2.753   5.034   0.098  0.0666 -0.0878 -0.6110
  979MOL0     C32070   2.861   5.067  -0.003  1.9277 -0.3332  0.0164
  979MOL0     C32071   2.953   5.176   0.057  1.4008  0.2232  0.2715
  979MOL0     C32072   3.073   5.208  -0.032 -0.3703 -0.7419  0.7394
  979MOL0     C32073   3.133   5.342   0.027 -1.0119 -1.1102  0.2478
  979MOL0    Cl32074   3.017   5.496   0.039 -0.3636  0.7685 -0.2183
  979MOL0     C32075   2.384   4.583   0.376 -0.1090 -0.1863 -0.7755
  979MOL0     C32076   2.446   4.484   0.451  0.1923  0.2547  0.0856
  979MOL0     O32077   2.779   4.437   0.462 -0.0881 -0.3807 -0.4421
  979MOL0     C32078   2.940   4.227   0.578 -0.1459  0.0951  0.7518
  979MOL0     C32079   3.012   4.122   0.637 -0.1165  0.5093 -0.1831
  979MOL0     N32080   2.563   3.368   0.697 -0.1186 -0.8671 -0.5716
  979MOL0     N32081   2.488   3.319   0.789  0.5300  0.3126 -0.3361
  979MOL0     C32082   2.495   4.039   1.215  0.2970  0.4929 -0.1388
  979MOL0     C32083   2.549   4.142   1.147 -0.1888 -1.1537  0.2791
  979MOL0     C32084   2.411   4.274   0.840 -0.0079  0.4911 -0.4173
  979MOL0     C32085   2.387   4.194   0.730 -0.1264 -0.1437 -0.5620
  979MOL0     C32086   2.268   4.130   0.717 -0.5697  0.3190  0.1421
  979MOL0     C32087   2.160   4.151   0.801  0.1033 -0.6715 -0.4370
  979MOL0     O32088   2.043   4.090   0.777  0.0599 -0.6561 -1.0175
  979MOL0     C32089   1.934   4.108   0.861 -0.1505 -0.7305 -0.3161
  979MOL0     C32090   1.958   4.024   0.984  0.0978  0.1665  0.1822
  979MOL0     C32091   1.830   4.021   1.070  0.1885  0.7119  0.3001
  979MOL0     C32092   1.843   3.923   1.180 -0.2715  0.1273  0.2851
  979MOL0     C32093   1.950   3.963   1.268  0.7850  0.6252  0.7891
  979MOL0     C32094   2.040   3.995   1.341 -0.9458 -0.3944  0.4515
  979MOL0     C32095   2.187   4.244   0.909  0.2072  0.5953  1.4868
  979MOL0     C32096   2.309   4.298   0.939 -0.1449  0.0460  0.2545
  979MOL0     C32097   2.319   4.392   1.051 -0.6253  0.4309 -0.8650
  979MOL0     H32098   2.585   4.000   0.842  2.7570  0.6469  0.9530
  979MOL0     H32099   2.463   3.816   0.957  0.1683 -0.8102 -0.9978
  979MOL0     H32100   2.302   3.899   1.360  1.4233  0.9868 -0.9280
  979MOL0     H32101   2.272   3.735   1.325 -0.1570 -0.7615  1.8765
  979MOL0     H32102   2.419   3.763   1.518 -0.1467 -0.0302 -0.0734
  979MOL0     H32103   2.536   3.852   1.437 -2.7855  1.3655  0.7305
  979MOL0     H32104   2.621   3.633   1.458  0.9498  3.9119 -0.1223
  979MOL0     H32105   2.583   3.644   1.285  0.7215 -1.4200  0.5174
  979MOL0     H32106   2.409   3.499   1.493 -0.5709  1.2658 -0.4880
  979MOL0     H32107   2.356   3.541   1.332  0.5825 -1.0146 -2.4553
  979MOL0     H32108   2.626   3.400   1.380  0.1887 -2.1458  0.3231
  979MOL0     H32109   2.479   3.303   1.383  0.1160 -0.7581 -1.6404
  979MOL0     H32110   2.420   3.374   1.152 -0.0389  0.4109  0.6478
  979MOL0     H32111   2.591   3.439   1.144  1.1598 -1.8948 -1.2658
  979MOL0     H32112   2.541   3.160   1.210  0.5440 -0.1145 -0.2997
  979MOL0     H32113   2.685   3.225   1.142  0.7082 -0.6771  1.5838
  979MOL0     H32114   2.569   3.095   0.990  0.8661 -0.2244  0.1260
  979MOL0     H32115   2.420   3.195   0.994 -0.8045 -4.4440  1.3389
  979MOL0     H32116   2.796   3.276   0.908  0.0374 -2.3573 -0.9260
  979MOL0     H32117   2.891   3.386   0.661 -0.9025 -1.3078 -2.1705
  979MOL0     H32118   2.784   3.491   0.583  1.9173 -0.5609  0.8776
  979MOL0     H32119   2.757   3.619   0.801 -0.3361  0.4012 -2.1814
  979MOL0     H32120   2.894   3.520   0.867  3.2462  2.6561 -0.5271
  979MOL0     H32121   2.887   3.694   0.611 -3.9681  0.6571  1.1931
  979MOL0     H32122   3.040   3.627   0.689 -0.7259 -1.9582  2.0698
  979MOL0     H32123   2.987   3.781   0.886 -0.0592  0.3955 -0.8605
  979MOL0     H32124   2.836   3.824   0.807 -2.6296 -4.6717 -1.2822
  979MOL0     H32125   2.773   3.891   0.621 -1.6856  0.8982 -1.2859
  979MOL0     H32126   2.646   4.082   0.534  0.4231 -1.7828  0.6864
  979MOL0     H32127   2.610   4.337   0.186 -1.9945 -2.8009  1.1671
  979MOL0     H32128   2.509   4.526   0.064  3.2412  0.2229  0.7229
  979MOL0     H32129   2.508   4.728   0.046  0.2863 -0.0692 -0.2370
  979MOL0     H32130   2.399   4.858   0.035  0.0446  0.4847  0.1557
  979MOL0     H32131   2.497   4.984   0.219 -0.5801  0.7670 -2.8393
  979MOL0     H32132   2.599   4.847   0.249  1.0111 -0.6076 -0.4263
  979MOL0     H32133   2.682   4.854  -0.003 -1.4074 -2.7323  2.2402
  979MOL0     H32134   2.586   5.005  -0.022 -0.2935  0.4505 -1.3077
  979MOL0     H32135   2.800   4.993   0.188 -0.2304  1.2689  0.2037
  979MOL0     H32136   2.709   5.129   0.129  0.9588  0.8890 -2.1995
  979MOL0     H32137   2.816   5.103  -0.096 -0.6512 -0.6882  1.0334
  979MOL0     H32138   2.911   4.971  -0.017 -0.0049 -1.2281 -1.2397
  979MOL0     H32139   2.898   5.266   0.084  2.2968  0.3427  1.8367
  979MOL0     H32140   2.981   5.146   0.159 -3.2347  1.3309  2.1091
  979MOL0     H32141   3.054   5.230  -0.137  1.6665  0.1709  0.5079
  979MOL0     H32142   3.143   5.124  -0.023 -0.5724 -0.7600  2.6511
  979MOL0     H32143   3.177   5.320   0.124 -0.5160 -0.5807  0.1500
  979MOL0     H32144   3.220   5.373  -0.034 -0.5831 -1.0658  0.8744
  979MOL0     H32145   2.321   4.652   0.432  0.8463  0.1126 -0.0483
  979MOL0     H32146   2.424   4.481   0.558  0.1228  2.2163  0.1523
  979MOL0     H32147   3.002   4.316   0.565 -0.4471  0.0306 -1.8215
  979MOL0     H32148   3.118   4.125   0.658 -0.7847  2.4918  3.9449
  979MOL0     H32149   2.465   4.051   1.319 -0.1681 -0.2898 -0.1771
  979MOL0     H32150   2.563   4.240   1.191 -3.3718  0.1874 -1.3370
  979MOL0     H32151   2.466   4.163   0.662  2.3736  3.8634  0.1739
  979MOL0     H32152   2.257   4.066   0.630  4.6970  3.0240 -3.0127
  979MOL0     H32153   1.837   4.077   0.821  0.2401  0.2245 -2.0685
  979MOL0     H32154   1.927   4.207   0.906  3.7126 -1.7227  3.1325
  979MOL0     H32155   2.037   4.067   1.046  1.9992 -2.1703 -0.4610
  979MOL0     H32156   1.990   3.926   0.946  2.3112  0.9792 -0.2060
  979MOL0     H32157   1.746   3.996   1.005 -0.0446 -1.5896  1.3865
  979MOL0     H32158   1.819   4.121   1.113 -1.1153 -0.4539  2.8596
  979MOL0     H32159   1.746   3.921   1.231 -0.0310 -0.8914  0.7361
  979MOL0     H32160   1.859   3.822   1.143 -0.7197 -1.0012  2.9175
  979MOL0     H32161   2.134   4.014   1.388 -1.1384 -2.9870  2.0668
  979MOL0     H32162   2.102   4.265   0.974 -1.6816  1.7738 -1.1640
  979MOL0     H32163   2.355   4.489   1.016 -3.7338  1.2106 -2.1967
  979MOL0     H32164   2.220   4.405   1.095  0.6329  2.8549  1.5267
  979MOL0     H32165   2.389   4.355   1.127 -0.5090  1.3015 -0.5401
  980MOL0     O32166   1.383   9.349   4.890 -0.1483 -0.5252  0.3875
  980MOL0     C32167   1.309   9.417   4.822 -0.9124  1.0219  0.5216
  980MOL0     O32168   1.309   9.548   4.804  0.5454 -1.1438  0.2642
  980MOL0     C32169   1.382   9.635   4.888 -0.0014  0.0057  0.7683
  980MOL0     C32170   1.318   9.744   4.930  0.6751 -0.9995 -1.8496
  980MOL0     C32171   1.391   9.843   5.010  0.0104 -0.1255  0.2891
  980MOL0     C32172   1.520   9.821   5.051 -0.7843  1.1410  0.1392
  980MOL0     O32173   1.598   9.905   5.131 -0.1386 -0.6240  0.4978
  980MOL0     C32174   1.568  10.041   5.113  0.6204 -0.5175  0.8168
  980MOL0     C32175   1.690  10.135   5.129  1.2827 -0.0735  0.4857
  980MOL0     C32176   1.644  10.287   5.130 -0.0228  0.6483  0.0404
  980MOL0     C32177   1.763  10.372   5.086 -1.2504 -1.4850 -0.1219
  980MOL0     C32178   1.712  10.515   5.034 -0.2375 -0.3150 -0.2629
  980MOL0     C32179   1.819  10.636   5.042 -0.3414  0.1622  0.1750
  980MOL0     C32180   1.958  10.611   4.974  1.0705  0.7311 -0.2977
  980MOL0     C32181   1.947  10.586   4.824  0.0400  0.3652 -1.3237
  980MOL0     N32182   2.075  10.629   4.756 -0.6783  0.6279  0.3267
  980MOL0     C32183   2.202  10.589   4.802 -0.0804 -0.1014  0.3134
  980MOL0     C32184   2.283  10.689   4.758  1.0447 -0.5170  0.1224
  980MOL0     C32185   2.439  10.698   4.790  0.7767  0.5885 -0.0737
  980MOL0     C32186   2.466  10.809   4.893  0.6109 -0.0429 -0.8504
  980MOL0     C32187   2.425  10.779   5.040 -0.0764  0.1624  0.0608
  980MOL0     C32188   2.429  10.912   5.117  0.1397 -1.0250 -0.2916
  980MOL0     O32189   2.402  10.896   5.256  0.1525  0.1611 -0.4482
  980MOL0     C32190   2.322  10.785   5.295  0.3604 -0.5066 -0.4210
  980MOL0     C32191   2.184  10.793   5.262 -0.5377 -0.7806 -0.7181
  980MOL0     C32192   2.095  10.698   5.315 -0.3086  0.5572 -0.0641
  980MOL0     C32193   2.135  10.597   5.404 -0.0730  0.1217 -0.2936
  980MOL0     C32194   2.045  10.496   5.458 -0.1560 -0.0572 -0.0506
  980MOL0     O32195   2.104  10.411   5.540 -0.2322  0.4143 -0.1106
  980MOL0     C32196   2.022  10.329   5.625  0.4317  0.0496  0.8445
  980MOL0     C32197   2.044  10.339   5.763 -0.1458  0.7194  0.6271
  980MOL0     C32198   1.978  10.238   5.842 -0.4134  0.5508 -0.0898
  980MOL0     C32199   1.914  10.126   5.794  0.1243  0.4540 -0.5009
  980MOL0     O32200   1.861  10.022   5.875 -0.8796 -0.3170 -0.0502
  980MOL0     C32201   1.870   9.881   5.824 -0.0655 -0.2732 -0.4950
  980MOL0     C32202   1.812   9.785   5.931 -1.1309 -0.2877 -0.0347
  980MOL0     C32203   1.841   9.643   5.887  0.2999 -0.2438  0.7518
  980MOL0     C32204   1.816   9.537   6.000  0.0734 -0.9085  0.4946
  980MOL0     C32205   1.671   9.516   6.047 -1.1696  0.0909  0.1190
  980MOL0     C32206   1.589   9.435   5.947 -0.1773 -0.3348 -0.4523
  980MOL0     C32207   1.486   9.518   5.874 -0.4199 -0.2055  0.3769
  980MOL0     C32208   1.383   9.447   5.791 -0.5400  0.3404 -0.2666
  980MOL0    Cl32209   1.454   9.324   5.677  0.0400 -0.1522 -0.1518
  980MOL0     C32210   1.897  10.119   5.654  0.2552 -0.6096  1.3641
  980MOL0     C32211   1.953  10.225   5.575  1.0857 -0.6529  0.4030
  980MOL0     O32212   1.930  10.506   5.430 -0.2154  0.3700  0.6074
  980MOL0     C32213   2.271  10.599   5.440 -0.7898  0.3572  0.3999
  980MOL0     C32214   2.365  10.691   5.390  0.7765  0.2585 -0.1310
  980MOL0     N32215   2.210  10.756   4.660 -0.6702  0.3214  0.8704
  980MOL0     N32216   2.083  10.732   4.671 -0.9309 -0.1639 -0.6730
  980MOL0     C32217   1.572   9.696   5.010 -1.2095 -0.5740 -0.2762
  980MOL0     C32218   1.508   9.602   4.933 -0.4012 -0.2230 -0.4291
  980MOL0     C32219   1.204   9.343   4.756 -0.6615 -0.3008 -0.0267
  980MOL0     C32220   1.137   9.410   4.646 -0.3859 -0.6475 -0.3524
  980MOL0     C32221   1.037   9.339   4.578 -0.3046  0.8082 -0.2960
  980MOL0     C32222   0.992   9.205   4.611 -0.0395 -0.9245  0.7937
  980MOL0     O32223   0.899   9.155   4.524  0.3069 -0.7158  0.3247
  980MOL0     C32224   0.857   9.020   4.533  0.6294  0.0154  0.2227
  980MOL0     C32225   0.737   9.024   4.439  0.3370 -0.7967 -0.1126
  980MOL0     C32226   0.680   8.887   4.423 -0.5842 -0.6195  0.5448
  980MOL0     C32227   0.764   8.806   4.322 -0.7424 -0.1217  0.3774
  980MOL0     C32228   0.702   8.779   4.189 -0.1793 -0.5246 -0.2615
  980MOL0     C32229   0.645   8.763   4.085  0.1375 -0.7412  0.4685
  980MOL0     C32230   1.045   9.147   4.727  0.2543 -0.4906 -0.0538
  980MOL0     C32231   1.144   9.214   4.800  0.0205  0.8259 -0.4692
  980MOL0     C32232   1.192   9.126   4.914  0.2411 -0.6889  0.9179
  980MOL0     H32233   1.222   9.765   4.883  0.3487 -1.6793 -1.5103
  980MOL0     H32234   1.346   9.941   5.026  0.6226  0.4166 -1.1710
  980MOL0     H32235   1.529  10.050   5.012  0.8180 -1.4070  0.6566
  980MOL0     H32236   1.497  10.075   5.189  1.0614  0.5252  0.7839
  980MOL0     H32237   1.753  10.122   5.041  1.4134  2.1652  0.1881
  980MOL0     H32238   1.750  10.132   5.221  3.8111  3.3198 -0.8475
  980MOL0     H32239   1.588  10.315   5.220 -1.2499  0.9813 -0.7979
  980MOL0     H32240   1.563  10.287   5.057  1.8804 -1.5246 -2.2245
  980MOL0     H32241   1.820  10.385   5.179 -2.5734 -1.1657  0.6676
  980MOL0     H32242   1.818  10.316   5.010 -0.2936 -2.5009  1.2716
  980MOL0     H32243   1.685  10.505   4.929  0.7441  0.5815 -0.6078
  980MOL0     H32244   1.616  10.530   5.085 -1.5620 -5.1315 -0.7604
  980MOL0     H32245   1.764  10.726   5.012 -4.2531 -1.6068  1.3508
  980MOL0     H32246   1.841  10.654   5.147 -2.4332  2.4024  0.3248
  980MOL0     H32247   2.007  10.523   5.016  4.7716  2.2109 -1.1212
  980MOL0     H32248   2.028  10.694   4.979 -1.5823  3.4408 -3.4569
  980MOL0     H32249   1.926  10.480   4.807  2.0033 -0.1778 -0.6293
  980MOL0     H32250   1.865  10.642   4.777 -1.7588 -2.9080 -2.4108
  980MOL0     H32251   2.224  10.515   4.878  1.7441 -2.6482 -2.4316
  980MOL0     H32252   2.485  10.608   4.833  0.9178 -1.7785 -4.5700
  980MOL0     H32253   2.498  10.723   4.701 -2.2766  0.5968 -2.2512
  980MOL0     H32254   2.574  10.827   4.899  0.5000  0.2635  0.6171
  980MOL0     H32255   2.424  10.905   4.861 -0.2915  0.0664  0.5776
  980MOL0     H32256   2.499  10.709   5.080  2.8409  2.3417 -1.1254
  980MOL0     H32257   2.327  10.730   5.034  1.4623 -3.0949 -1.4146
  980MOL0     H32258   2.364  10.987   5.072  0.7487  0.6259  1.4636
  980MOL0     H32259   2.534  10.942   5.123  0.0907 -1.1703  2.2968
  980MOL0     H32260   2.155  10.871   5.192 -0.8105 -0.3009 -0.0832
  980MOL0     H32261   1.994  10.712   5.277 -1.1086 -1.3536  1.1356
  980MOL0     H32262   2.109  10.419   5.798 -1.8980  2.5490 -0.0853
  980MOL0     H32263   1.987  10.235   5.950 -0.5105 -0.5170 -0.0976
  980MOL0     H32264   1.820   9.863   5.728  3.2524  1.7964 -2.8581
  980MOL0     H32265   1.979   9.869   5.815 -0.0497 -0.9135  0.4232
  980MOL0     H32266   1.870   9.791   6.024  0.7230  1.1526 -1.2074
  980MOL0     H32267   1.707   9.812   5.949 -0.5906  0.7943  1.7328
  980MOL0     H32268   1.792   9.610   5.795  2.2120 -2.7492  0.5237
  980MOL0     H32269   1.949   9.634   5.868  0.1675  1.9615 -1.4887
  980MOL0     H32270   1.866   9.581   6.087 -0.5196 -0.6432  0.7082
  980MOL0     H32271   1.864   9.442   5.976  0.1576 -1.5951  3.0404
  980MOL0     H32272   1.614   9.609   6.059  0.1287  1.4707 -3.3118
  980MOL0     H32273   1.685   9.466   6.144  1.6925  0.4154 -0.0176
  980MOL0     H32274   1.651   9.387   5.871  2.6906 -0.5212  1.8257
  980MOL0     H32275   1.543   9.354   6.005  1.5271  1.6197  4.1249
  980MOL0     H32276   1.533   9.600   5.819 -1.6607  0.0800 -0.2920
  980MOL0     H32277   1.419   9.570   5.943 -2.7271  0.2438 -2.0190
  980MOL0     H32278   1.316   9.407   5.867 -0.2997 -0.3064 -0.3919
  980MOL0     H32279   1.323   9.518   5.733 -3.1301  0.7277  2.5956
  980MOL0     H32280   1.834  10.050   5.600 -1.4427  3.0800 -1.8099
  980MOL0     H32281   1.923  10.221   5.470 -0.9671 -0.5013  0.9320
  980MOL0     H32282   2.307  10.514   5.496 -1.0962  0.4903  0.8050
  980MOL0     H32283   2.466  10.689   5.428  0.4394 -3.2570  0.9423
  980MOL0     H32284   1.667   9.673   5.057 -2.3854 -2.1808  1.4526
  980MOL0     H32285   1.558   9.511   4.900  0.0340 -0.8380  1.8005
  980MOL0     H32286   1.169   9.507   4.610  0.2832 -0.7488 -0.0593
  980MOL0     H32287   0.981   9.370   4.491 -4.6470  1.8505  2.5974
  980MOL0     H32288   0.820   9.009   4.636 -3.6463 -2.6290 -1.3232
  980MOL0     H32289   0.944   8.963   4.501  0.6436  0.0466  0.2065
  980MOL0     H32290   0.783   9.064   4.348 -0.4521  2.2113  0.7073
  980MOL0     H32291   0.651   9.081   4.476  0.2969 -1.5467  1.0027
  980MOL0     H32292   0.583   8.895   4.372  0.8930 -0.0372 -2.3415
  980MOL0     H32293   0.677   8.840   4.522  1.1091 -2.5680 -0.2694
  980MOL0     H32294   0.860   8.858   4.306 -0.7845 -0.2974 -0.5097
  980MOL0     H32295   0.799   8.712   4.366 -0.5967  1.0380  2.9288
  980MOL0     H32296   0.590   8.734   3.997 -0.6233  0.7345  0.4312
  980MOL0     H32297   1.006   9.048   4.751 -1.3826  0.0720 -0.3095
  980MOL0     H32298   1.283   9.078   4.876 -0.6831  0.1750 -2.8128
  980MOL0     H32299   1.204   9.196   4.998 -1.8362 -0.2331  0.8704
  980MOL0     H32300   1.117   9.053   4.944 -2.7500  1.9172  0.2497
  981MOL0     O32301   0.803   9.406   8.075 -0.0491  0.1362 -0.7498
  981MOL0     C32302   0.862   9.442   7.972 -0.6962  0.1131  0.7479
  981MOL0     O32303   0.885   9.575   7.926  0.6144  0.2053 -0.0590
  981MOL0     C32304   0.836   9.681   7.999 -0.9329  0.0348  0.5665
  981MOL0     C32305   0.931   9.769   8.035 -0.9289 -0.3272 -0.4740
  981MOL0     C32306   0.890   9.885   8.099 -0.3321  0.0570  0.0528
  981MOL0     C32307   0.755   9.915   8.130 -0.0350  0.2381 -0.7589
  981MOL0     O32308   0.740  10.037   8.191 -0.9637 -0.4101 -0.2926
  981MOL0     C32309   0.653  10.065   8.294 -0.0619  0.0060  0.5349
  981MOL0     C32310   0.661  10.218   8.348  1.1082 -0.2215  1.0642
  981MOL0     C32311   0.693  10.252   8.493 -1.0697 -0.5477 -0.6367
  981MOL0     C32312   0.840  10.261   8.514 -0.1878 -0.6266  0.2402
  981MOL0     C32313   0.876  10.351   8.636 -0.6328 -0.2980  0.7194
  981MOL0     C32314   0.840  10.297   8.770 -0.4536  0.5131  0.0345
  981MOL0     C32315   0.808  10.406   8.872  0.5886 -0.1287 -0.0109
  981MOL0     C32316   0.926  10.488   8.910 -0.3081  0.6942 -0.0529
  981MOL0     N32317   0.937  10.521   9.055 -0.6849  0.4954  0.4307
  981MOL0     C32318   0.904  10.650   9.101  0.1414 -1.1432 -0.2102
  981MOL0     C32319   0.850  10.628   9.221 -0.0574  0.4721 -1.0322
  981MOL0     C32320   0.807  10.738   9.310  0.1582 -0.0266 -0.1521
  981MOL0     C32321   0.909  10.798   9.415 -0.1638 -0.5888  0.4259
  981MOL0     C32322   0.890  10.945   9.463  0.0355 -0.1437  0.4174
  981MOL0     C32323   0.755  10.960   9.542  0.3627 -0.0626  0.7711
  981MOL0     O32324   0.652  10.945   9.452  0.1594  0.0373  0.2016
  981MOL0     C32325   0.524  10.972   9.497  0.0985 -0.5740 -0.4899
  981MOL0     C32326   0.422  10.955   9.414  0.6312 -0.2656 -0.9544
  981MOL0     C32327   0.286  10.990   9.447 -0.7497  0.5523 -0.5032
  981MOL0     C32328   0.259  11.046   9.581  0.3782  0.7986  0.4110
  981MOL0     C32329   0.121  11.075   9.625  0.3398  0.0997 -0.0104
  981MOL0     O32330   0.101  11.118   9.757  0.3140  0.5193 -0.2180
  981MOL0     C32331  -0.023  11.170   9.780 -1.4925  0.0453 -0.3094
  981MOL0     C32332  -0.027  11.306   9.817 -0.5519  0.2747 -0.7617
  981MOL0     C32333  -0.149  11.371   9.845 -1.1441  0.0120  0.6275
  981MOL0     C32334  -0.272  11.305   9.835 -1.5378 -0.4382 -1.5237
  981MOL0     O32335  -0.385  11.376   9.865  0.6583 -0.5727  0.1561
  981MOL0     C32336  -0.506  11.336   9.791 -0.3396 -0.4136 -0.3395
  981MOL0     C32337  -0.616  11.434   9.835  0.3173  0.0181  0.0695
  981MOL0     C32338  -0.743  11.447   9.734  0.6409 -0.8366  0.0190
  981MOL0     C32339  -0.844  11.548   9.798 -0.6846 -0.1845  0.1616
  981MOL0     C32340  -0.969  11.556   9.713  1.0013 -0.5334  0.7050
  981MOL0     C32341  -1.068  11.667   9.759  1.6771  0.5025 -0.6867
  981MOL0     C32342  -1.201  11.657   9.680 -0.6901  0.7863 -0.0077
  981MOL0     C32343  -1.285  11.777   9.708  0.0350  0.6289  0.0389
  981MOL0    Cl32344  -1.380  11.769   9.863 -0.7114 -0.1377 -0.5265
  981MOL0     C32345  -0.262  11.170   9.819  0.0467 -0.2120  0.2922
  981MOL0     C32346  -0.145  11.098   9.784  0.6194 -0.1232 -0.4222
  981MOL0     O32347   0.033  11.076   9.535  0.1129 -0.0080 -0.2094
  981MOL0     C32348   0.360  11.065   9.669  0.2052 -0.3271  1.2463
  981MOL0     C32349   0.490  11.029   9.621 -0.5471  0.0968 -0.5970
  981MOL0     N32350   0.849  10.491   9.242  0.5820 -0.4792  0.0827
  981MOL0     N32351   0.898  10.434   9.141 -0.3030 -0.3545  0.6439
  981MOL0     C32352   0.659   9.819   8.093  0.3197 -0.7642 -0.1023
  981MOL0     C32353   0.702   9.702   8.036  0.3142  0.0244 -0.2165
  981MOL0     C32354   0.929   9.333   7.902 -0.3484  0.8489 -0.1767
  981MOL0     C32355   0.855   9.218   7.878  0.5730  0.5530 -0.3191
  981MOL0     C32356   0.904   9.100   7.831  0.3420  0.0218  0.5239
  981MOL0     C32357   1.045   9.089   7.799  0.3572  1.0629  0.3468
  981MOL0     O32358   1.105   8.968   7.763 -0.2864 -0.5498 -0.7604
  981MOL0     C32359   1.205   8.924   7.856 -0.4543  0.1617 -0.1152
  981MOL0     C32360   1.254   8.796   7.784 -0.1509 -0.2650 -0.4582
  981MOL0     C32361   1.393   8.747   7.813 -0.2906  0.0169 -0.0064
  981MOL0     C32362   1.431   8.732   7.961  0.8464  0.0980 -0.2960
  981MOL0     C32363   1.563   8.696   7.996  0.1759  0.4346 -0.0071
  981MOL0     C32364   1.672   8.661   8.036  0.5735 -0.1391 -1.0462
  981MOL0     C32365   1.117   9.204   7.820 -0.3000  0.0046 -0.1844
  981MOL0     C32366   1.061   9.326   7.858  0.6717  0.6195  0.6257
  981MOL0     C32367   1.155   9.445   7.871 -0.4031 -0.0175 -0.1090
  981MOL0     H32368   1.030   9.736   8.005 -1.9405 -0.7578 -3.7380
  981MOL0     H32369   0.954   9.971   8.119  4.0761 -2.7978 -0.3795
  981MOL0     H32370   0.549  10.057   8.259 -0.0344 -3.1206  0.8532
  981MOL0     H32371   0.674  10.000   8.380  0.2009 -0.3219  0.2260
  981MOL0     H32372   0.556  10.250   8.343 -0.1135 -3.8772  0.2491
  981MOL0     H32373   0.726  10.274   8.279  0.9937  2.9910  3.3326
  981MOL0     H32374   0.632  10.188   8.557 -0.0021 -0.8271  0.1118
  981MOL0     H32375   0.653  10.354   8.500 -2.6853 -1.2444  0.9879
  981MOL0     H32376   0.889  10.165   8.532 -2.2339 -1.4251  1.9318
  981MOL0     H32377   0.883  10.301   8.422  1.9982 -1.5363  0.7799
  981MOL0     H32378   0.983  10.373   8.629 -1.2220  2.4826 -1.4988
  981MOL0     H32379   0.833  10.451   8.622  0.8112  0.2006 -0.3323
  981MOL0     H32380   0.739  10.255   8.768 -1.0569  1.9385 -0.2562
  981MOL0     H32381   0.908  10.221   8.809  1.1561  0.4808 -2.5989
  981MOL0     H32382   0.764  10.346   8.952 -0.8030  0.5521 -0.2264
  981MOL0     H32383   0.731  10.472   8.830 -0.1475 -1.3135 -0.5536
  981MOL0     H32384   1.011  10.428   8.877 -0.2662  0.9873 -0.4696
  981MOL0     H32385   0.922  10.573   8.842  0.6307 -1.9861 -3.7662
  981MOL0     H32386   0.931  10.742   9.051 -1.6653  0.3882  1.4796
  981MOL0     H32387   0.782  10.816   9.238  1.9294 -0.0486 -0.8561
  981MOL0     H32388   0.714  10.703   9.355  0.4024 -2.9720 -1.6660
  981MOL0     H32389   0.904  10.733   9.503  1.1219 -4.9719 -2.3989
  981MOL0     H32390   1.009  10.794   9.369 -0.9945  0.1042 -1.5564
  981MOL0     H32391   0.880  11.012   9.377 -0.7371 -0.6174  0.1261
  981MOL0     H32392   0.966  10.994   9.524 -1.0651  0.7030  1.1524
  981MOL0     H32393   0.758  11.064   9.573  2.5661  1.0952 -2.6573
  981MOL0     H32394   0.743  10.891   9.626 -1.4789 -2.1541 -1.0716
  981MOL0     H32395   0.455  10.929   9.314  0.4898 -2.0974 -0.5622
  981MOL0     H32396   0.209  10.958   9.377  0.4794  1.2468 -2.2560
  981MOL0     H32397   0.065  11.351   9.853 -1.0727  0.8709 -0.1485
  981MOL0     H32398  -0.153  11.480   9.847  1.0879  0.1323  0.8614
  981MOL0     H32399  -0.481  11.353   9.686 -1.8331 -3.3758 -1.2921
  981MOL0     H32400  -0.543  11.236   9.812  1.7702 -0.7727  2.1652
  981MOL0     H32401  -0.657  11.398   9.930 -0.9414 -1.9907 -1.1783
  981MOL0     H32402  -0.573  11.534   9.849 -3.4786  2.0578 -1.3497
  981MOL0     H32403  -0.724  11.478   9.631 -2.2586 -1.2515 -0.7171
  981MOL0     H32404  -0.795  11.352   9.720 -2.6728  0.8964 -0.3157
  981MOL0     H32405  -0.803  11.649   9.814 -1.1855 -0.2076  1.7804
  981MOL0     H32406  -0.868  11.522   9.901  1.7794  0.9636  1.1197
  981MOL0     H32407  -1.019  11.459   9.711  0.4412 -0.2417 -1.2200
  981MOL0     H32408  -0.950  11.582   9.609 -2.3692 -1.0758 -0.1367
  981MOL0     H32409  -1.103  11.644   9.860  1.2529  0.3269 -0.8716
  981MOL0     H32410  -1.022  11.767   9.763 -0.3050  1.4800 -0.8707
  981MOL0     H32411  -1.242  11.557   9.696 -0.7827  0.5850 -1.4146
  981MOL0     H32412  -1.179  11.658   9.573  2.5584 -3.2166  0.3718
  981MOL0     H32413  -1.216  11.861   9.699  1.6413 -0.4425  1.8651
  981MOL0     H32414  -1.366  11.785   9.634  1.0725  0.7698 -1.1097
  981MOL0     H32415  -0.353  11.109   9.814  1.0219 -1.6396 -1.0624
  981MOL0     H32416  -0.151  10.997   9.743  2.2158 -0.8756  1.0557
  981MOL0     H32417   0.333  11.102   9.767 -1.5508  1.8505  0.0253
  981MOL0     H32418   0.576  11.048   9.685  1.4482 -1.7844 -2.5730
  981MOL0     H32419   0.553   9.828   8.114  0.6384  0.9814  0.9680
  981MOL0     H32420   0.623   9.628   8.041  2.3356 -2.2966 -0.7106
  981MOL0     H32421   0.751   9.214   7.907  0.2353  1.1225 -1.4080
  981MOL0     H32422   0.836   9.016   7.836  2.7925 -2.0166  3.4300
  981MOL0     H32423   1.162   8.912   7.956  1.4782  1.0777  0.8777
  981MOL0     H32424   1.296   8.984   7.864  0.4963 -1.1582 -0.5933
  981MOL0     H32425   1.253   8.831   7.681 -1.9262 -1.5425 -0.9104
  981MOL0     H32426   1.182   8.715   7.769  0.7557 -1.0217 -0.8464
  981MOL0     H32427   1.445   8.828   7.762  0.4779 -2.1478 -2.9368
  981MOL0     H32428   1.408   8.651   7.763 -0.9445 -0.7585  1.2332
  981MOL0     H32429   1.414   8.825   8.016  0.7932  1.1220 -1.9881
  981MOL0     H32430   1.355   8.665   8.003  1.9521 -0.6748  0.5224
  981MOL0     H32431   1.751   8.642   8.106  0.6857  1.8219 -0.5871
  981MOL0     H32432   1.224   9.197   7.804 -0.1269  0.8261  0.5877
  981MOL0     H32433   1.214   9.449   7.963 -2.8251  0.4209  1.4894
  981MOL0     H32434   1.226   9.446   7.787  0.4895  0.1627  0.6332
  981MOL0     H32435   1.122   9.548   7.881  0.5436  0.6312 -2.7200
  982MOL0     O32436   0.977   9.331   2.495  0.4298  0.1960  0.1465
  982MOL0     C32437   1.097   9.347   2.455  0.7268  0.8284 -0.1976
  982MOL0     O32438   1.204   9.277   2.503 -0.6804 -0.2557  0.2329
  982MOL0     C32439   1.200   9.180   2.599  0.2706  0.3556 -0.6128
  982MOL0     C32440   1.323   9.162   2.667  0.5975  0.1973  0.0245
  982MOL0     C32441   1.337   9.076   2.768 -0.1059 -0.0956 -0.4111
  982MOL0     C32442   1.223   9.013   2.830 -0.3159  1.0337 -0.7291
  982MOL0     O32443   1.241   8.927   2.950 -1.1460 -0.7107  0.6230
  982MOL0     C32444   1.143   8.939   3.045 -1.3522  0.0565  0.8766
  982MOL0     C32445   1.206   8.870   3.163 -0.4425 -0.4135 -0.0429
  982MOL0     C32446   1.320   8.931   3.243  0.1451 -0.5810 -0.9224
  982MOL0     C32447   1.456   8.957   3.174 -0.2510 -0.0832 -0.3441
  982MOL0     C32448   1.578   8.986   3.267 -0.4006 -0.8531 -0.0413
  982MOL0     C32449   1.578   9.137   3.303  1.2045 -0.3003  0.7855
  982MOL0     C32450   1.682   9.178   3.406 -1.0473  0.1960 -0.3546
  982MOL0     C32451   1.663   9.326   3.445 -0.9127  0.1342  1.0135
  982MOL0     N32452   1.560   9.350   3.553 -0.4585  0.7786  0.6602
  982MOL0     C32453   1.577   9.309   3.688 -0.1158  0.4838 -0.3391
  982MOL0     C32454   1.487   9.385   3.753  0.7035  0.3750 -0.6030
  982MOL0     C32455   1.489   9.370   3.905 -0.3752  0.0516 -1.2233
  982MOL0     C32456   1.450   9.489   3.976 -0.9618 -1.5601  0.1413
  982MOL0     C32457   1.536   9.618   3.961  0.5173  1.3177  1.2071
  982MOL0     C32458   1.493   9.721   4.061 -0.1887 -1.2028  0.0503
  982MOL0     O32459   1.572   9.840   4.030 -0.4047 -0.5000 -0.3339
  982MOL0     C32460   1.510   9.958   4.075  0.6232 -0.7148 -0.1503
  982MOL0     C32461   1.416  10.008   3.984  0.4449 -0.1699 -0.3714
  982MOL0     C32462   1.336  10.126   4.023 -0.2262 -0.0427  0.5357
  982MOL0     C32463   1.358  10.180   4.147  0.3232 -0.1769  0.8374
  982MOL0     C32464   1.273  10.284   4.193  1.0786  0.2932  0.2937
  982MOL0     O32465   1.215  10.368   4.111 -0.3531  0.2567  0.2079
  982MOL0     C32466   1.136  10.469   4.161  0.6531 -0.4279  0.8277
  982MOL0     C32467   1.186  10.561   4.245  0.2044 -0.2446 -0.3734
  982MOL0     C32468   1.117  10.677   4.294 -0.5289  0.7268  0.7653
  982MOL0     C32469   0.990  10.696   4.242  0.3082  0.8898 -0.5316
  982MOL0     O32470   0.904  10.784   4.296 -0.0285  0.0858  0.3817
  982MOL0     C32471   0.890  10.779   4.445 -0.2675 -0.0445 -0.5647
  982MOL0     C32472   0.745  10.783   4.498  0.3902  0.2057  0.4820
  982MOL0     C32473   0.668  10.648   4.468 -0.3220 -1.0109 -0.4804
  982MOL0     C32474   0.522  10.658   4.508 -0.0369 -0.5676 -0.3338
  982MOL0     C32475   0.434  10.533   4.498  0.0548 -0.2649  0.1157
  982MOL0     C32476   0.443  10.479   4.357 -0.4745  0.9498  0.5475
  982MOL0     C32477   0.383  10.570   4.242 -1.3414 -0.8591  0.4052
  982MOL0     C32478   0.234  10.566   4.254 -0.3431  0.9951  0.8839
  982MOL0    Cl32479   0.153  10.622   4.108 -0.0812 -0.1714 -0.3434
  982MOL0     C32480   0.939  10.614   4.141 -0.7645  0.1602 -0.5838
  982MOL0     C32481   1.017  10.504   4.097 -0.1934 -0.2448 -0.2411
  982MOL0     O32482   1.275  10.296   4.314  0.2219  0.2763 -0.5151
  982MOL0     C32483   1.469  10.145   4.217  0.1640  0.9699 -0.8271
  982MOL0     C32484   1.531  10.025   4.187 -0.1210  0.6175  0.2701
  982MOL0     N32485   1.413   9.456   3.663 -0.7849 -0.1542 -0.6709
  982MOL0     N32486   1.466   9.456   3.547 -0.1437  0.0359 -0.1486
  982MOL0     C32487   1.104   9.033   2.762 -0.5913 -0.0345  0.8724
  982MOL0     C32488   1.093   9.115   2.656  0.0341  0.6092 -0.9425
  982MOL0     C32489   1.135   9.450   2.364  0.2134  0.5495  0.1317
  982MOL0     C32490   1.264   9.511   2.374  0.5897 -0.8905 -0.0933
  982MOL0     C32491   1.302   9.616   2.291 -0.0915  0.3444  0.3180
  982MOL0     C32492   1.220   9.660   2.187 -0.4301  0.3707 -0.7649
  982MOL0     O32493   1.250   9.754   2.092  0.7857 -0.5696  0.2024
  982MOL0     C32494   1.383   9.804   2.096 -0.4321  0.4742 -0.2027
  982MOL0     C32495   1.390   9.899   1.974 -0.0242  0.4703  1.3512
  982MOL0     C32496   1.353   9.820   1.838 -0.5054 -0.3915  0.8978
  982MOL0     C32497   1.473   9.744   1.773 -0.0288  0.2636 -0.3267
  982MOL0     C32498   1.570   9.830   1.708 -1.5079 -0.2272 -0.3086
  982MOL0     C32499   1.656   9.899   1.658  0.2895 -0.4310  0.0957
  982MOL0     C32500   1.093   9.599   2.183  0.0172  0.6161  0.4300
  982MOL0     C32501   1.044   9.500   2.268  0.1511 -1.5176 -0.2170
  982MOL0     C32502   0.904   9.439   2.234  0.2488 -0.1285 -0.0500
  982MOL0     H32503   1.403   9.226   2.632  0.6220 -1.0115 -2.3069
  982MOL0     H32504   1.429   9.073   2.825  0.5700  0.1118 -1.4647
  982MOL0     H32505   1.123   9.045   3.062  2.0547  1.1750 -1.2764
  982MOL0     H32506   1.056   8.880   3.013 -0.4960 -0.8942  0.2215
  982MOL0     H32507   1.234   8.769   3.134  0.2350  0.3954 -2.4604
  982MOL0     H32508   1.128   8.861   3.239  3.8886 -2.6350  4.8162
  982MOL0     H32509   1.343   8.867   3.329  3.3081  0.4789 -0.8155
  982MOL0     H32510   1.280   9.024   3.284 -3.3420 -2.3652  0.0781
  982MOL0     H32511   1.488   8.864   3.126  0.7279  1.2944 -2.5142
  982MOL0     H32512   1.441   9.040   3.104  1.0656  1.0113  0.6069
  982MOL0     H32513   1.573   8.936   3.364  0.3987 -0.5202  0.1833
  982MOL0     H32514   1.673   8.967   3.215 -1.3408 -1.4840 -1.6269
  982MOL0     H32515   1.597   9.195   3.212  0.7471 -1.4187 -0.0460
  982MOL0     H32516   1.482   9.151   3.355  1.3842 -4.1316  2.5234
  982MOL0     H32517   1.776   9.158   3.355  0.5925  0.2668  2.4756
  982MOL0     H32518   1.671   9.111   3.491  0.1280 -0.8175 -0.9736
  982MOL0     H32519   1.753   9.359   3.498 -1.6133  1.1304  1.6175
  982MOL0     H32520   1.657   9.398   3.363 -2.1747  0.2335  1.1734
  982MOL0     H32521   1.645   9.238   3.735  1.8515  3.8406  2.4189
  982MOL0     H32522   1.430   9.288   3.947  1.3847 -0.4085  0.5341
  982MOL0     H32523   1.593   9.351   3.936 -1.2396 -2.4023  0.5078
  982MOL0     H32524   1.351   9.520   3.944  0.2538  1.0131 -1.3616
  982MOL0     H32525   1.443   9.469   4.084 -3.9250 -0.2813  0.2808
  982MOL0     H32526   1.511   9.664   3.865  0.7008  0.0007  0.5009
  982MOL0     H32527   1.642   9.595   3.962  0.4520  0.2661 -2.6121
  982MOL0     H32528   1.502   9.680   4.162  2.2922  0.1771  0.4938
  982MOL0     H32529   1.387   9.738   4.039 -0.2901 -3.4677 -1.6144
  982MOL0     H32530   1.387   9.954   3.894 -1.5286  2.1224 -1.2424
  982MOL0     H32531   1.259  10.166   3.958  1.3029  1.1087 -0.6570
  982MOL0     H32532   1.291  10.545   4.268  0.2067 -1.1116 -0.9023
  982MOL0     H32533   1.147  10.747   4.371  0.2473  3.3208 -1.7191
  982MOL0     H32534   0.935  10.686   4.482 -3.8336 -1.0475  1.7615
  982MOL0     H32535   0.935  10.858   4.506 -1.3619  0.5714 -0.5357
  982MOL0     H32536   0.742  10.815   4.603  3.8683 -0.6524  0.9933
  982MOL0     H32537   0.691  10.861   4.446 -0.2076 -1.2792 -1.2271
  982MOL0     H32538   0.668  10.630   4.360  0.6540 -1.9303 -0.3433
  982MOL0     H32539   0.726  10.577   4.528  2.1432 -2.1421 -3.8481
  982MOL0     H32540   0.467  10.738   4.458  0.2050 -1.1240 -1.5111
  982MOL0     H32541   0.525  10.691   4.613  0.5189 -0.9930 -0.2063
  982MOL0     H32542   0.335  10.548   4.543  0.3129 -0.0781  0.6343
  982MOL0     H32543   0.488  10.454   4.552  1.6619  1.1657  0.7044
  982MOL0     H32544   0.547  10.447   4.343 -1.2073 -1.4974  0.1718
  982MOL0     H32545   0.393  10.382   4.365  2.0883 -0.3111  3.6400
  982MOL0     H32546   0.411  10.528   4.145  1.3667  2.8616 -0.6529
  982MOL0     H32547   0.428  10.670   4.242 -1.0999 -0.7147 -4.4223
  982MOL0     H32548   0.211  10.460   4.262  3.1562 -0.1461 -2.0787
  982MOL0     H32549   0.200  10.621   4.343 -0.5313  1.0648  0.7703
  982MOL0     H32550   0.835  10.631   4.113 -1.3330  1.6916  2.1607
  982MOL0     H32551   0.990  10.434   4.018  0.2287 -0.4338 -0.2206
  982MOL0     H32552   1.496  10.206   4.302  3.1483  1.1701 -1.8043
  982MOL0     H32553   1.600   9.976   4.256  0.5798 -2.5273 -2.4275
  982MOL0     H32554   1.021   8.967   2.789  1.7208 -3.4726  0.2569
  982MOL0     H32555   0.991   9.139   2.629  0.0090  2.3442  0.4839
  982MOL0     H32556   1.339   9.488   2.449 -1.7155 -4.1320  1.4643
  982MOL0     H32557   1.390   9.676   2.316 -1.7675  3.3611 -0.5115
  982MOL0     H32558   1.447   9.721   2.064 -3.6901 -1.8024 -1.3255
  982MOL0     H32559   1.415   9.848   2.191 -4.1439  3.9014 -0.2902
  982MOL0     H32560   1.490   9.939   1.957 -0.2484 -0.1536 -2.1025
  982MOL0     H32561   1.321   9.975   2.011  0.6109  0.6940  2.0991
  982MOL0     H32562   1.297   9.888   1.773  0.3023  0.9906  1.6297
  982MOL0     H32563   1.272   9.750   1.864 -0.5542 -0.3235  0.9263
  982MOL0     H32564   1.529   9.686   1.846  0.0126 -1.4204 -1.6361
  982MOL0     H32565   1.428   9.677   1.699 -1.1169  0.5638  0.0351
  982MOL0     H32566   1.706   9.978   1.605  0.5581  0.0025  0.9661
  982MOL0     H32567   1.036   9.623   2.094  0.2885 -0.9640 -0.2159
  982MOL0     H32568   0.861   9.493   2.150  0.8932 -0.4781 -0.6232
  982MOL0     H32569   0.895   9.334   2.205 -0.5292 -0.3686  0.9730
  982MOL0     H32570   0.838   9.454   2.320  1.4052  1.1235  0.6624
  983MOL0     O32571   4.593   4.974   8.770  0.3083 -0.2470 -0.1145
  983MOL0     C32572   4.484   5.005   8.818  0.7989 -0.3737 -0.2740
  983MOL0     O32573   4.467   5.083   8.930  0.2742 -0.2763  0.4584
  983MOL0     C32574   4.574   5.133   8.999  0.4488  0.2628  0.6730
  983MOL0     C32575   4.700   5.076   9.011  0.7303  0.1601 -0.6264
  983MOL0     C32576   4.786   5.119   9.105 -0.7801  0.1315 -0.8261
  983MOL0     C32577   4.765   5.231   9.183 -0.5035  0.4749  0.7588
  983MOL0     O32578   4.846   5.294   9.275  0.8024  0.3618  1.0035
  983MOL0     C32579   4.979   5.332   9.240  0.3601 -0.3612 -0.0312
  983MOL0     C32580   4.972   5.440   9.130 -0.0843  0.1567  0.0209
  983MOL0     C32581   5.115   5.481   9.077  0.1004 -0.0193 -0.3489
  983MOL0     C32582   5.212   5.512   9.195  0.4283  0.5288  0.7630
  983MOL0     C32583   5.359   5.539   9.154 -0.0474  0.2928 -0.3283
  983MOL0     C32584   5.443   5.413   9.140  0.0347  1.1954  0.2569
  983MOL0     C32585   5.587   5.455   9.113  0.8883  0.0179  0.8375
  983MOL0     C32586   5.627   5.455   8.965  0.5393  0.1467 -0.8139
  983MOL0     N32587   5.769   5.480   8.942  0.3626 -0.3887  0.1696
  983MOL0     C32588   5.825   5.598   8.926 -1.0237  0.2226 -0.1164
  983MOL0     C32589   5.959   5.579   8.937 -0.3191  0.2338  1.0913
  983MOL0     C32590   6.063   5.684   8.932  0.2085  0.5365  1.0193
  983MOL0     C32591   6.126   5.714   9.072 -0.2446  0.1685  0.2892
  983MOL0     C32592   6.079   5.845   9.157  1.1631  0.7751  0.5394
  983MOL0     C32593   5.925   5.833   9.183  0.1995  0.4696  0.2677
  983MOL0     O32594   5.846   5.884   9.075  0.1783  0.5576 -0.5013
  983MOL0     C32595   5.711   5.913   9.105 -0.5305 -0.2903 -0.1410
  983MOL0     C32596   5.637   5.888   9.225 -0.7020  0.7099 -0.4943
  983MOL0     C32597   5.507   5.937   9.239  0.4797  0.0181  1.1188
  983MOL0     C32598   5.447   5.997   9.126  0.6091  0.8165 -0.6445
  983MOL0     C32599   5.298   6.013   9.117 -0.2555 -0.4946  0.6668
  983MOL0     O32600   5.228   5.956   9.224  0.1639 -0.0142  0.5256
  983MOL0     C32601   5.105   6.019   9.258 -0.0901  0.4473 -1.0086
  983MOL0     C32602   5.018   5.957   9.349 -0.0620 -0.4402  0.6895
  983MOL0     C32603   4.903   6.012   9.406  0.9735 -0.5135 -0.4509
  983MOL0     C32604   4.871   6.146   9.372  0.4821  0.2078 -0.5839
  983MOL0     O32605   4.759   6.208   9.422 -0.2304  0.7199  1.1174
  983MOL0     C32606   4.708   6.182   9.546  0.2259  0.5419 -0.1779
  983MOL0     C32607   4.575   6.093   9.542 -0.9738  0.9260 -0.1407
  983MOL0     C32608   4.501   6.060   9.667 -0.3061 -0.7468  0.3870
  983MOL0     C32609   4.595   6.017   9.783  0.4310 -0.6537  0.2007
  983MOL0     C32610   4.527   6.019   9.923  0.8456 -0.2426 -0.0825
  983MOL0     C32611   4.436   5.895   9.932 -0.1922  0.7742  0.8000
  983MOL0     C32612   4.378   5.878  10.070  0.4246  0.5607 -0.3381
  983MOL0     C32613   4.470   5.800  10.170  0.2915  0.4315 -0.9684
  983MOL0    Cl32614   4.411   5.788  10.341  0.0748  0.3068 -0.0005
  983MOL0     C32615   4.964   6.217   9.292 -0.0180  0.4948  0.4812
  983MOL0     C32616   5.075   6.154   9.227  0.4676 -0.3486 -0.0059
  983MOL0     O32617   5.245   6.067   9.014  0.1801 -0.1513  0.6612
  983MOL0     C32618   5.525   6.032   9.016 -0.6481  0.1119 -0.0996
  983MOL0     C32619   5.660   5.996   9.009  0.3482  0.7590 -0.8424
  983MOL0     N32620   5.983   5.441   8.954  0.0785  0.7916 -0.1638
  983MOL0     N32621   5.867   5.387   8.960 -0.1094 -0.4314  0.7728
  983MOL0     C32622   4.642   5.292   9.169 -0.0330 -0.3765  0.7147
  983MOL0     C32623   4.543   5.242   9.081 -0.0401 -0.9176  0.6915
  983MOL0     C32624   4.371   4.942   8.751  0.2048 -0.9142  0.0836
  983MOL0     C32625   4.254   4.908   8.828  0.7416 -0.6060  0.0580
  983MOL0     C32626   4.131   4.870   8.770  0.5949  1.6181  0.1877
  983MOL0     C32627   4.110   4.857   8.638 -0.6601  1.4260  0.1944
  983MOL0     O32628   3.986   4.814   8.590 -0.2100  0.2365  0.7285
  983MOL0     C32629   3.970   4.671   8.600  0.6143  0.4277  0.4746
  983MOL0     C32630   3.917   4.620   8.462 -0.9047  0.6328 -0.7091
  983MOL0     C32631   4.013   4.639   8.346  0.1423 -0.6040  1.1421
  983MOL0     C32632   3.937   4.591   8.217 -0.9914 -0.1721 -0.0600
  983MOL0     C32633   3.930   4.446   8.225  1.3282  0.4656  0.3873
  983MOL0     C32634   3.903   4.330   8.231 -0.5384  0.5721  0.0685
  983MOL0     C32635   4.220   4.897   8.554 -0.4162 -0.0409 -0.1935
  983MOL0     C32636   4.347   4.934   8.613 -0.7860 -0.8217  0.9617
  983MOL0     C32637   4.451   4.995   8.521  0.0088 -0.1484 -0.1585
  983MOL0     H32638   4.730   4.984   8.962  1.5789  1.1199 -2.0054
  983MOL0     H32639   4.877   5.062   9.116 -2.5826 -3.0157 -1.0108
  983MOL0     H32640   5.023   5.360   9.337 -3.6815 -1.0928  2.2436
  983MOL0     H32641   5.042   5.251   9.202 -0.6738 -0.5217 -1.4800
  983MOL0     H32642   4.924   5.529   9.171  0.7912  1.1505 -1.0143
  983MOL0     H32643   4.918   5.393   9.047  2.2925 -2.1769 -0.3505
  983MOL0     H32644   5.112   5.563   9.004 -2.8504  0.2760 -0.0195
  983MOL0     H32645   5.151   5.393   9.022 -0.7762  0.5044 -1.8158
  983MOL0     H32646   5.177   5.600   9.249 -0.2295  1.8690 -1.6913
  983MOL0     H32647   5.210   5.431   9.268 -0.5854 -0.4470 -0.3081
  983MOL0     H32648   5.363   5.598   9.062 -0.4598 -1.5164 -1.5761
  983MOL0     H32649   5.412   5.598   9.229  2.0457  0.7349 -2.0323
  983MOL0     H32650   5.432   5.344   9.224  0.2856  1.1561  0.2588
  983MOL0     H32651   5.407   5.359   9.052  2.1083  0.9272 -0.4809
  983MOL0     H32652   5.648   5.375   9.157 -3.3045 -4.3522 -0.3711
  983MOL0     H32653   5.598   5.553   9.159 -0.8410  1.2955 -1.2744
  983MOL0     H32654   5.588   5.356   8.940 -1.2314  1.4254 -3.6642
  983MOL0     H32655   5.563   5.529   8.916 -0.3737  2.5651  3.4639
  983MOL0     H32656   5.780   5.695   8.946 -0.8036 -0.1890  2.7490
  983MOL0     H32657   6.133   5.638   8.862 -2.6144 -3.5754  0.4860
  983MOL0     H32658   6.019   5.773   8.888  1.0146  0.1331 -0.6471
  983MOL0     H32659   6.107   5.624   9.132  1.6459 -0.7135 -0.3529
  983MOL0     H32660   6.234   5.715   9.054  0.0144 -0.5756  1.6932
  983MOL0     H32661   6.102   5.943   9.114 -3.8696  3.1231  2.4266
  983MOL0     H32662   6.124   5.833   9.256  0.5262  0.5617  0.8024
  983MOL0     H32663   5.890   5.896   9.265 -0.8398 -1.2225  1.2096
  983MOL0     H32664   5.908   5.725   9.193  1.4680  0.4349  2.7453
  983MOL0     H32665   5.682   5.829   9.304 -0.4677  0.3801 -0.8684
  983MOL0     H32666   5.448   5.924   9.329  2.1035  0.4215  2.2904
  983MOL0     H32667   5.038   5.850   9.353  1.2077 -0.2976 -0.8075
  983MOL0     H32668   4.829   5.957   9.464  0.6421 -0.8413 -1.1795
  983MOL0     H32669   4.786   6.169   9.622 -1.7737  3.1844  2.5335
  983MOL0     H32670   4.676   6.281   9.577 -1.5775 -0.3397  0.9066
  983MOL0     H32671   4.505   6.140   9.473 -2.2632  0.3244  0.7289
  983MOL0     H32672   4.607   5.996   9.503 -2.5228  0.9070 -1.4649
  983MOL0     H32673   4.451   6.151   9.701 -1.0501 -0.8582 -0.3734
  983MOL0     H32674   4.435   5.975   9.647  0.6768 -1.1392 -1.4824
  983MOL0     H32675   4.675   6.092   9.787  1.1523 -1.1327 -2.8768
  983MOL0     H32676   4.626   5.915   9.759  1.7344 -0.2098 -0.1109
  983MOL0     H32677   4.472   6.111   9.946  0.8160 -0.3038  0.0957
  983MOL0     H32678   4.597   6.006  10.006  2.5595 -0.3112 -1.4815
  983MOL0     H32679   4.365   5.897   9.850  0.2683 -1.6143  0.2459
  983MOL0     H32680   4.494   5.803   9.914  1.2561  2.0472 -1.4849
  983MOL0     H32681   4.286   5.819  10.068  0.9468 -0.2478 -1.0757
  983MOL0     H32682   4.362   5.977  10.115  4.4945  0.6189  1.3788
  983MOL0     H32683   4.491   5.696  10.147  0.9213  0.4815 -0.6241
  983MOL0     H32684   4.561   5.860  10.175 -0.3831  1.6758 -2.5843
  983MOL0     H32685   4.948   6.320   9.263  1.8547  0.4038 -1.0975
  983MOL0     H32686   5.145   6.213   9.169  0.6999 -0.8225 -0.2087
  983MOL0     H32687   5.475   6.074   8.929 -2.5749  1.1716  1.4261
  983MOL0     H32688   5.707   6.018   8.913 -2.1707 -1.8303 -2.8344
  983MOL0     H32689   4.622   5.387   9.217 -1.0508  0.6828 -1.6348
  983MOL0     H32690   4.448   5.294   9.072  0.9151  1.1240  1.6236
  983MOL0     H32691   4.255   4.923   8.936 -1.4074 -0.2179  0.0722
  983MOL0     H32692   4.048   4.845   8.836  0.1785 -0.7630 -1.1393
  983MOL0     H32693   3.891   4.663   8.676 -3.2406  0.0806 -3.1629
  983MOL0     H32694   4.057   4.612   8.631  1.5504  1.5178 -0.0283
  983MOL0     H32695   3.819   4.666   8.446 -0.6179  1.9676  1.0569
  983MOL0     H32696   3.909   4.511   8.475  1.5531  0.6941  2.4877
  983MOL0     H32697   4.113   4.597   8.359  0.1058 -1.6369 -1.4138
  983MOL0     H32698   4.027   4.748   8.342 -1.3556 -0.1987  4.3109
  983MOL0     H32699   3.837   4.634   8.209 -0.7867  0.6308  1.3511
  983MOL0     H32700   3.995   4.613   8.127 -2.8752  0.3611 -1.1983
  983MOL0     H32701   3.897   4.224   8.217  1.1079  0.8192 -3.4808
  983MOL0     H32702   4.220   4.891   8.446  0.3028  1.5346 -0.2946
  983MOL0     H32703   4.507   4.915   8.472  4.0900  2.9124 -0.9746
  983MOL0     H32704   4.399   5.058   8.448 -0.5826  0.1836  0.5394
  983MOL0     H32705   4.521   5.063   8.569 -0.9021  1.7844 -1.4622
  984MOL0     O32706   1.215   7.521   9.275 -0.1786 -0.5661  0.5374
  984MOL0     C32707   1.146   7.438   9.336 -0.4397 -0.1023  0.2934
  984MOL0     O32708   1.188   7.351   9.431 -0.8835 -0.4817 -0.1410
  984MOL0     C32709   1.329   7.344   9.447  0.2389  0.3310  0.4785
  984MOL0     C32710   1.403   7.428   9.531 -0.1107 -0.4100  0.5559
  984MOL0     C32711   1.545   7.416   9.550  0.2211  0.1700 -0.4091
  984MOL0     C32712   1.610   7.310   9.485 -0.3113 -0.2335  0.2148
  984MOL0     O32713   1.741   7.266   9.520  0.4311 -0.1600  0.4486
  984MOL0     C32714   1.816   7.340   9.618  0.3556  0.4447 -0.5894
  984MOL0     C32715   1.943   7.267   9.659 -0.8359  0.0698 -0.1610
  984MOL0     C32716   1.917   7.129   9.725 -0.5182  0.9536 -0.1627
  984MOL0     C32717   2.039   7.055   9.783 -0.0996 -0.2009 -0.4536
  984MOL0     C32718   1.997   6.941   9.877  0.4820  0.1040  0.0059
  984MOL0     C32719   2.026   6.992  10.016 -0.1353  0.0789  0.8303
  984MOL0     C32720   1.964   6.910  10.131  0.1855 -0.2359  0.1501
  984MOL0     C32721   1.940   6.758  10.106 -0.0627 -0.1003  0.8147
  984MOL0     N32722   2.065   6.681  10.097 -0.1011  0.2644  0.6973
  984MOL0     C32723   2.150   6.631  10.192  1.0877  0.5949 -0.3317
  984MOL0     C32724   2.211   6.528  10.129 -0.0725  0.5240  0.2667
  984MOL0     C32725   2.328   6.440  10.174 -0.5511 -0.5202 -0.8103
  984MOL0     C32726   2.312   6.296  10.175  0.1035  0.1096 -0.3280
  984MOL0     C32727   2.319   6.233  10.312  0.6564 -0.0713  0.0967
  984MOL0     C32728   2.253   6.103  10.314  0.3987 -0.1886 -0.2087
  984MOL0     O32729   2.297   6.008  10.220 -0.0994  0.6800 -0.0637
  984MOL0     C32730   2.228   5.892  10.198  0.4177  0.1789  0.7549
  984MOL0     C32731   2.256   5.827  10.077 -0.6299  0.9177  0.2310
  984MOL0     C32732   2.175   5.724  10.041  0.4077  0.0491  0.3801
  984MOL0     C32733   2.064   5.671  10.119 -0.5069  1.1519  0.7824
  984MOL0     C32734   1.974   5.575  10.045  0.2491 -0.0672 -0.1172
  984MOL0     O32735   1.854   5.551  10.114 -0.2359  0.3873 -0.1671
  984MOL0     C32736   1.782   5.444  10.070  0.2708 -0.4268  0.5152
  984MOL0     C32737   1.791   5.317  10.130  0.0683 -0.4535 -0.4985
  984MOL0     C32738   1.706   5.212  10.091  0.3526  0.3223 -0.9114
  984MOL0     C32739   1.619   5.234   9.983  0.5139  0.7491  0.7118
  984MOL0     O32740   1.541   5.125   9.948  0.1836 -0.1372 -0.1288
  984MOL0     C32741   1.446   5.118   9.835  0.4723  0.1007 -1.2550
  984MOL0     C32742   1.364   4.991   9.825 -0.0236 -0.4471 -0.4603
  984MOL0     C32743   1.427   4.874   9.745  0.0507  0.1215  0.2503
  984MOL0     C32744   1.540   4.788   9.806 -0.2242 -0.4356  0.0259
  984MOL0     C32745   1.512   4.734   9.940  0.7252  0.2516 -0.1894
  984MOL0     C32746   1.618   4.656  10.010 -0.7965  0.8380  0.7543
  984MOL0     C32747   1.602   4.630  10.161  1.3496  0.3909 -0.9121
  984MOL0     C32748   1.694   4.519  10.198 -0.0217  1.0343  0.2982
  984MOL0    Cl32749   1.669   4.478  10.369 -0.2473  0.0814 -0.1655
  984MOL0     C32750   1.612   5.364   9.923 -0.1785 -0.1629  0.0564
  984MOL0     C32751   1.690   5.468   9.969 -0.6540 -0.4402 -0.3401
  984MOL0     O32752   1.998   5.525   9.933  0.2602 -0.7679  0.8332
  984MOL0     C32753   2.037   5.733  10.242  0.2939 -0.1884  0.1656
  984MOL0     C32754   2.133   5.831  10.286  0.3038  0.3848 -0.2704
  984MOL0     N32755   2.143   6.502  10.013  1.0144  0.6001  0.4007
  984MOL0     N32756   2.068   6.603   9.984 -0.2772  0.0519 -1.0810
  984MOL0     C32757   1.546   7.237   9.391  0.7529  0.1637 -0.4515
  984MOL0     C32758   1.404   7.243   9.381 -0.3148  0.2650  0.7479
  984MOL0     C32759   0.999   7.451   9.310 -0.2006  0.8987 -0.3680
  984MOL0     C32760   0.913   7.422   9.418  0.4666 -0.3226  0.3197
  984MOL0     C32761   0.778   7.459   9.404  0.9883  0.2418 -0.4537
  984MOL0     C32762   0.727   7.513   9.280 -0.2333  1.4092  0.1047
  984MOL0     O32763   0.601   7.556   9.257  0.8207 -0.2606  0.0493
  984MOL0     C32764   0.509   7.515   9.356  0.6241  0.0721  0.3812
  984MOL0     C32765   0.364   7.557   9.327 -0.9145  0.2698  0.2035
  984MOL0     C32766   0.283   7.511   9.451 -0.7568  0.3207  0.4350
  984MOL0     C32767   0.134   7.520   9.438  0.3467  0.2487 -0.6196
  984MOL0     C32768   0.084   7.664   9.433  1.5472 -0.2140  0.2242
  984MOL0     C32769   0.051   7.782   9.411  0.2355  0.5847 -0.3983
  984MOL0     C32770   0.817   7.521   9.170 -0.2832  0.4703  0.1398
  984MOL0     C32771   0.955   7.498   9.181  0.4901 -0.4506 -0.0830
  984MOL0     C32772   1.046   7.505   9.063 -0.2687 -0.1226 -0.2125
  984MOL0     H32773   1.345   7.508   9.576 -0.3913 -1.4820  2.1871
  984MOL0     H32774   1.605   7.482   9.611  0.9678 -3.3972  3.1272
  984MOL0     H32775   1.846   7.431   9.566 -1.8001  2.4009  1.3656
  984MOL0     H32776   1.762   7.367   9.709  1.2462 -0.0736  0.1110
  984MOL0     H32777   2.009   7.327   9.722  0.3289  0.2786 -1.5324
  984MOL0     H32778   2.005   7.242   9.572 -2.0291 -0.9211 -0.7559
  984MOL0     H32779   1.876   7.064   9.648 -1.6247  1.7358 -0.2463
  984MOL0     H32780   1.837   7.141   9.798 -0.4234 -0.0067  0.1060
  984MOL0     H32781   2.082   7.008   9.694 -1.3640 -0.5215 -0.9133
  984MOL0     H32782   2.109   7.121   9.835 -0.7843  0.2669 -0.0961
  984MOL0     H32783   1.891   6.925   9.854  1.4073  1.0517 -7.4887
  984MOL0     H32784   2.047   6.847   9.852 -1.4216 -0.7262 -0.8514
  984MOL0     H32785   2.132   7.003  10.038 -0.1887  2.2280  0.2101
  984MOL0     H32786   1.997   7.097  10.013 -0.9629 -0.1566 -0.3081
  984MOL0     H32787   1.860   6.941  10.145 -1.0600 -2.7796 -2.3660
  984MOL0     H32788   2.027   6.926  10.218 -3.0133  0.8903  2.4440
  984MOL0     H32789   1.887   6.722  10.194  0.8255 -0.3304  1.2706
  984MOL0     H32790   1.877   6.747  10.017  0.4851 -1.6676  0.5933
  984MOL0     H32791   2.178   6.666  10.291  1.3628 -0.6516  0.0493
  984MOL0     H32792   2.416   6.473  10.117 -0.0994  0.1035  0.2222
  984MOL0     H32793   2.359   6.464  10.276  1.4610  3.2688 -2.1197
  984MOL0     H32794   2.219   6.275  10.122  0.7707  0.4175 -1.6679
  984MOL0     H32795   2.395   6.260  10.114  0.3584 -1.0954  0.6903
  984MOL0     H32796   2.259   6.299  10.375 -0.6716 -3.0996  2.2334
  984MOL0     H32797   2.421   6.222  10.351  1.7609  4.4695 -0.8745
  984MOL0     H32798   2.148   6.127  10.295  0.2964  3.6123  3.5774
  984MOL0     H32799   2.255   6.047  10.408 -0.3441 -2.3075 -1.3875
  984MOL0     H32800   2.338   5.855  10.012  1.0065 -3.6800 -0.0713
  984MOL0     H32801   2.183   5.681   9.942  0.0659  2.1623 -0.6344
  984MOL0     H32802   1.859   5.289  10.210  0.7203 -0.1503 -0.9388
  984MOL0     H32803   1.707   5.116  10.141 -2.0652 -0.3763 -2.0403
  984MOL0     H32804   1.377   5.202   9.846 -0.6763 -1.0588  1.0040
  984MOL0     H32805   1.492   5.134   9.737 -3.8034  1.6004 -3.2530
  984MOL0     H32806   1.332   4.965   9.926 -2.2244  1.9443 -0.4363
  984MOL0     H32807   1.275   5.020   9.769 -1.2504 -1.4979  0.9012
  984MOL0     H32808   1.353   4.798   9.723 -0.4406  0.2520  1.3662
  984MOL0     H32809   1.447   4.919   9.647 -1.5970  1.6817  0.5829
  984MOL0     H32810   1.640   4.832   9.810  2.1128 -5.1701  2.0922
  984MOL0     H32811   1.543   4.704   9.736  1.1869  0.7598 -1.4177
  984MOL0     H32812   1.422   4.672   9.938 -0.9111  2.5169 -1.2081
  984MOL0     H32813   1.493   4.819  10.007  1.2590  0.0377  0.2306
  984MOL0     H32814   1.629   4.560   9.959 -2.4266  0.6925  0.6037
  984MOL0     H32815   1.710   4.713   9.997 -0.4920  0.8019  2.5656
  984MOL0     H32816   1.496   4.604  10.177  1.2642  0.8741 -0.6661
  984MOL0     H32817   1.605   4.722  10.219  1.0944 -0.1915  0.0487
  984MOL0     H32818   1.685   4.424  10.145  3.4260 -0.3891  1.9030
  984MOL0     H32819   1.801   4.525  10.178 -0.5117 -0.4621 -3.7335
  984MOL0     H32820   1.551   5.369   9.833 -0.4892 -1.8962  0.1294
  984MOL0     H32821   1.664   5.563   9.923  0.7631  0.2465  0.2020
  984MOL0     H32822   1.960   5.695  10.308 -1.4461  1.7031 -0.6569
  984MOL0     H32823   2.116   5.859  10.389 -0.8573 -0.0006 -0.3462
  984MOL0     H32824   1.600   7.163   9.333  0.5068 -1.5483  1.3772
  984MOL0     H32825   1.337   7.181   9.322  1.7059 -0.5993 -0.7363
  984MOL0     H32826   0.960   7.381   9.507 -0.4842 -3.1154 -0.3754
  984MOL0     H32827   0.713   7.449   9.490  1.2851  3.0711  0.2059
  984MOL0     H32828   0.539   7.562   9.450  0.3860  0.7000  0.1502
  984MOL0     H32829   0.515   7.407   9.365  1.2749 -0.2069 -2.3044
  984MOL0     H32830   0.337   7.503   9.235  0.2415  0.3149 -0.1732
  984MOL0     H32831   0.363   7.663   9.301  0.3060  0.4026  0.6686
  984MOL0     H32832   0.319   7.567   9.537  1.9747  2.1705 -1.7447
  984MOL0     H32833   0.307   7.405   9.465 -2.3011 -1.0072 -4.7795
  984MOL0     H32834   0.106   7.460   9.350 -1.6644 -0.9498  0.7265
  984MOL0     H32835   0.085   7.461   9.516  0.7878 -1.7147 -1.7541
  984MOL0     H32836   0.015   7.880   9.391 -1.0452  0.0657 -0.7273
  984MOL0     H32837   0.765   7.553   9.080 -1.3366 -1.5631 -0.0502
  984MOL0     H32838   0.989   7.514   8.970 -0.3238 -2.0694 -0.4098
  984MOL0     H32839   1.132   7.572   9.068  0.6285 -1.3275  2.5145
  984MOL0     H32840   1.109   7.416   9.062  0.7486  0.5531  0.8830
  985MOL0     O32841   2.800   6.448   5.801  0.4357 -0.4739  0.4312
  985MOL0     C32842   2.764   6.551   5.744  0.6539  1.0469  1.1165
  985MOL0     O32843   2.767   6.570   5.611 -0.6150  0.5508  0.3117
  985MOL0     C32844   2.796   6.461   5.529  0.2146 -0.3905 -0.0738
  985MOL0     C32845   2.924   6.458   5.498 -0.5702 -0.1499 -0.1560
  985MOL0     C32846   2.985   6.337   5.468 -0.8780 -0.0685  0.3709
  985MOL0     C32847   2.907   6.221   5.469 -0.3155 -0.2973 -0.0032
  985MOL0     O32848   2.952   6.092   5.450 -0.1567  0.5803 -0.4091
  985MOL0     C32849   3.089   6.051   5.465 -0.5148  0.3501 -0.6798
  985MOL0     C32850   3.181   6.071   5.340 -1.1122  0.0653  0.6504
  985MOL0     C32851   3.325   6.061   5.378 -0.6919  0.2060 -0.7221
  985MOL0     C32852   3.409   6.089   5.263  0.5476 -0.4795  0.7326
  985MOL0     C32853   3.559   6.049   5.280  0.6113  0.8409 -0.3795
  985MOL0     C32854   3.630   6.129   5.384 -0.5527 -0.5267  0.3807
  985MOL0     C32855   3.780   6.077   5.382  0.3676 -0.4143  0.0518
  985MOL0     C32856   3.876   6.189   5.442 -0.1404  0.0785 -0.1966
  985MOL0     N32857   4.013   6.146   5.429  0.6190  0.2861 -0.2343
  985MOL0     C32858   4.069   6.034   5.494 -0.2403 -0.1425 -0.9660
  985MOL0     C32859   4.207   6.036   5.479 -0.0788  0.3687  0.0147
  985MOL0     C32860   4.311   5.946   5.538 -1.0254  0.0973 -0.0652
  985MOL0     C32861   4.318   5.814   5.473 -0.1761 -0.0155 -0.3724
  985MOL0     C32862   4.409   5.720   5.559 -1.2014 -0.7305 -0.0244
  985MOL0     C32863   4.439   5.593   5.471  0.0685 -0.2904  0.2406
  985MOL0     O32864   4.565   5.554   5.520  0.4952  0.1718 -0.0136
  985MOL0     C32865   4.600   5.425   5.471  0.1830 -0.1337 -0.7314
  985MOL0     C32866   4.709   5.376   5.537  0.2125  0.1541  0.2623
  985MOL0     C32867   4.747   5.246   5.509 -0.5516  0.1341  0.6444
  985MOL0     C32868   4.696   5.173   5.409  0.3749  0.2311 -0.1521
  985MOL0     C32869   4.734   5.032   5.400 -0.6247 -0.3756 -0.5582
  985MOL0     O32870   4.679   4.969   5.290  0.2859  0.3786  0.1537
  985MOL0     C32871   4.703   4.838   5.254  0.8583 -0.2651  0.3120
  985MOL0     C32872   4.761   4.736   5.329  0.1894  1.0695 -0.5544
  985MOL0     C32873   4.786   4.616   5.261 -0.3847 -0.8867 -0.4009
  985MOL0     C32874   4.764   4.588   5.126 -1.0300 -0.0236  0.0338
  985MOL0     O32875   4.809   4.480   5.058 -0.3016 -0.8435  0.9030
  985MOL0     C32876   4.920   4.399   5.111  0.1780 -0.3521 -0.0485
  985MOL0     C32877   4.936   4.280   5.023  0.2421 -0.4527 -1.0853
  985MOL0     C32878   5.015   4.315   4.898 -0.0861  0.9870  0.0365
  985MOL0     C32879   5.030   4.183   4.815 -0.4078  0.8158  0.2653
  985MOL0     C32880   5.126   4.211   4.699  1.1412  0.5294 -0.5390
  985MOL0     C32881   5.124   4.079   4.615 -0.2383  0.3635  0.5228
  985MOL0     C32882   5.236   4.083   4.509 -0.3647 -0.7067  0.5746
  985MOL0     C32883   5.290   3.942   4.479 -0.3995 -0.4103 -0.2580
  985MOL0    Cl32884   5.191   3.873   4.348  0.3351 -0.1720  0.4330
  985MOL0     C32885   4.694   4.694   5.060 -0.1235 -0.2969 -0.0926
  985MOL0     C32886   4.671   4.816   5.125  0.4912 -0.0568 -0.2206
  985MOL0     O32887   4.823   4.990   5.471 -0.4295 -0.1273  0.1500
  985MOL0     C32888   4.590   5.225   5.330 -0.7931 -0.5222 -0.8396
  985MOL0     C32889   4.542   5.356   5.360  0.3401 -0.1737  0.1856
  985MOL0     N32890   4.228   6.159   5.414 -1.0530 -0.3267  0.3229
  985MOL0     N32891   4.114   6.221   5.378 -0.6002  0.5953 -0.6142
  985MOL0     C32892   2.771   6.234   5.493  0.6565  0.2464  0.9143
  985MOL0     C32893   2.714   6.351   5.527 -0.9471 -0.8939  0.1274
  985MOL0     C32894   2.725   6.672   5.814  0.6427  0.0008  0.1965
  985MOL0     C32895   2.773   6.683   5.944  0.9448  0.7456 -1.2323
  985MOL0     C32896   2.739   6.797   6.020 -0.2125  0.0384  0.6600
  985MOL0     C32897   2.649   6.885   5.969 -0.1108  0.1584  0.7723
  985MOL0     O32898   2.604   6.980   6.058  0.1426 -0.1190  0.0464
  985MOL0     C32899   2.524   7.099   6.015 -0.8185 -0.8493  0.4639
  985MOL0     C32900   2.620   7.192   5.939 -1.2605  0.2470  0.1750
  985MOL0     C32901   2.562   7.331   5.923 -0.4024  0.3276 -0.6328
  985MOL0     C32902   2.430   7.328   5.834 -0.1102 -0.3940 -0.7024
  985MOL0     C32903   2.469   7.289   5.697  0.5770 -0.7052 -0.2933
  985MOL0     C32904   2.497   7.255   5.591 -0.4117 -0.1811  0.2802
  985MOL0     C32905   2.601   6.872   5.844  1.4472  0.2874  0.1257
  985MOL0     C32906   2.633   6.772   5.756  0.1236 -0.0534 -0.2429
  985MOL0     C32907   2.580   6.781   5.617  0.6326 -0.3944  1.2017
  985MOL0     H32908   2.985   6.547   5.495  0.6747 -0.9867 -1.6753
  985MOL0     H32909   3.087   6.340   5.432 -0.5748  0.8283  1.2215
  985MOL0     H32910   3.138   6.099   5.550 -1.9236 -1.4855  1.2623
  985MOL0     H32911   3.094   5.947   5.499 -1.5826  0.1847 -1.0032
  985MOL0     H32912   3.159   6.172   5.304  0.1775  1.5921  3.7578
  985MOL0     H32913   3.158   5.993   5.267  0.7380  1.0405 -1.0699
  985MOL0     H32914   3.345   5.961   5.418  0.3523  0.8616  0.4587
  985MOL0     H32915   3.351   6.124   5.463  0.8684 -3.0401  1.3893
  985MOL0     H32916   3.374   6.028   5.179  0.0663  2.8539 -1.6790
  985MOL0     H32917   3.399   6.193   5.232  0.8211 -0.7715 -0.3824
  985MOL0     H32918   3.571   5.945   5.312  0.1922  1.5126  2.2087
  985MOL0     H32919   3.605   6.058   5.181  0.8361 -0.3440 -0.3934
  985MOL0     H32920   3.638   6.237   5.369 -2.0278 -0.5802 -1.1770
  985MOL0     H32921   3.589   6.116   5.485  1.1023  2.1661  1.4790
  985MOL0     H32922   3.797   6.052   5.277 -2.9331  4.3969 -1.9940
  985MOL0     H32923   3.786   5.991   5.449 -4.3732  0.2624  1.7140
  985MOL0     H32924   3.852   6.285   5.396 -1.3548 -0.9370 -1.8054
  985MOL0     H32925   3.841   6.188   5.545  2.0600 -0.1845  0.6012
  985MOL0     H32926   4.007   5.972   5.557 -0.5411  1.7385  0.6944
  985MOL0     H32927   4.404   6.004   5.533 -3.5181  4.4519 -1.0200
  985MOL0     H32928   4.283   5.939   5.643  0.1697  2.3362  0.4644
  985MOL0     H32929   4.223   5.761   5.460  0.3145 -0.6463 -1.5844
  985MOL0     H32930   4.357   5.824   5.372 -2.5169 -1.3994 -1.5098
  985MOL0     H32931   4.358   5.693   5.651 -2.4145 -0.0436 -0.4789
  985MOL0     H32932   4.502   5.775   5.575 -1.6540  0.6786 -1.9039
  985MOL0     H32933   4.444   5.627   5.367 -1.0204  1.6171  0.7582
  985MOL0     H32934   4.351   5.528   5.466 -0.5948  0.6006  0.0201
  985MOL0     H32935   4.754   5.449   5.605  2.9145 -1.2372  0.1084
  985MOL0     H32936   4.835   5.213   5.563  1.4326 -2.5791 -3.7366
  985MOL0     H32937   4.802   4.742   5.430 -1.3838  1.5562  0.0763
  985MOL0     H32938   4.841   4.535   5.307  0.1988 -2.2587 -3.2886
  985MOL0     H32939   5.004   4.469   5.121 -2.9134  3.6748  0.5096
  985MOL0     H32940   4.899   4.363   5.212  1.7815 -0.4285  0.2788
  985MOL0     H32941   4.995   4.209   5.082  0.4463  0.5867 -0.0101
  985MOL0     H32942   4.834   4.241   5.013 -0.3466  0.6895  0.2347
  985MOL0     H32943   4.971   4.402   4.848 -1.0864  0.5234  0.0845
  985MOL0     H32944   5.117   4.345   4.925  0.0734  3.5910 -2.9102
  985MOL0     H32945   4.931   4.164   4.772 -0.0382  1.3613 -0.8617
  985MOL0     H32946   5.070   4.099   4.873 -0.6028  0.4187 -0.1724
  985MOL0     H32947   5.226   4.223   4.740 -0.1270  0.5500  2.9095
  985MOL0     H32948   5.090   4.292   4.635  0.9487  0.5814 -0.3640
  985MOL0     H32949   5.129   3.999   4.689 -1.3746  0.5602  0.8283
  985MOL0     H32950   5.028   4.070   4.562 -1.2943 -0.2287  2.4533
  985MOL0     H32951   5.310   4.157   4.541 -2.7302  1.7734  0.6362
  985MOL0     H32952   5.197   4.115   4.412  2.2488 -0.4202 -0.4751
  985MOL0     H32953   5.395   3.941   4.448 -0.7120 -2.2858 -1.3773
  985MOL0     H32954   5.280   3.883   4.571  1.6766  3.1744  2.5671
  985MOL0     H32955   4.675   4.700   4.953  3.0601 -1.7581 -0.8480
  985MOL0     H32956   4.636   4.896   5.061  1.2325  0.9155  0.5575
  985MOL0     H32957   4.539   5.150   5.271 -0.1233 -3.1956  1.7609
  985MOL0     H32958   4.466   5.402   5.298 -0.1381 -2.0494 -0.7148
  985MOL0     H32959   2.703   6.149   5.485 -2.2583  2.5971 -2.5543
  985MOL0     H32960   2.609   6.347   5.556 -0.4172 -1.0455  2.2239
  985MOL0     H32961   2.837   6.605   5.983 -1.5896 -1.3101 -0.9658
  985MOL0     H32962   2.767   6.817   6.123 -2.1077  1.0959  1.0200
  985MOL0     H32963   2.482   7.153   6.101 -0.5826 -2.5734  1.7352
  985MOL0     H32964   2.442   7.065   5.951  0.2759  1.8418 -2.6246
  985MOL0     H32965   2.658   7.149   5.846 -0.1618  1.2383  0.1397
  985MOL0     H32966   2.712   7.221   5.990  0.8371 -0.2267 -3.0216
  985MOL0     H32967   2.629   7.404   5.877 -1.9779  1.8334 -0.6280
  985MOL0     H32968   2.533   7.362   6.024 -2.2343  2.0369 -1.6125
  985MOL0     H32969   2.363   7.255   5.880  1.5027 -0.6405  1.4142
  985MOL0     H32970   2.386   7.427   5.845 -1.5563 -0.8528 -1.9861
  985MOL0     H32971   2.548   7.221   5.502  1.9559  1.1520  1.0326
  985MOL0     H32972   2.531   6.947   5.806  0.1424  2.0199  5.1908
  985MOL0     H32973   2.510   6.864   5.609 -1.8829 -2.4134  0.8428
  985MOL0     H32974   2.659   6.781   5.540 -0.1929 -3.3233  0.1897
  985MOL0     H32975   2.515   6.696   5.596  0.2949 -0.6225  3.0908
  986MOL0     O32976  11.171   3.692   4.350  0.1102 -0.0180  0.5756
  986MOL0     C32977  11.269   3.760   4.381  0.4612  0.0118  0.4357
  986MOL0     O32978  11.356   3.815   4.293 -0.5719  0.1525 -0.6801
  986MOL0     C32979  11.325   3.796   4.163 -0.9543 -1.0958 -0.5514
  986MOL0     C32980  11.247   3.894   4.104 -0.1815 -0.0641 -0.0317
  986MOL0     C32981  11.209   3.876   3.973 -0.2484 -0.2069  0.8753
  986MOL0     C32982  11.240   3.761   3.899  0.1939 -0.0463  0.5507
  986MOL0     O32983  11.203   3.760   3.767 -0.3939  0.0659 -0.1987
  986MOL0     C32984  11.160   3.636   3.712 -0.4041 -0.5132  0.0811
  986MOL0     C32985  11.185   3.646   3.565  0.2299 -0.3398  1.0689
  986MOL0     C32986  11.124   3.521   3.497 -1.1061  0.3260 -0.1813
  986MOL0     C32987  11.136   3.521   3.342  0.6278  0.3361  0.0303
  986MOL0     C32988  11.024   3.416   3.304 -0.3655  0.2382 -0.6618
  986MOL0     C32989  11.010   3.394   3.156  0.5642 -0.2670  0.4932
  986MOL0     C32990  10.873   3.334   3.123 -0.1646  0.0832 -0.0977
  986MOL0     C32991  10.857   3.180   3.134  0.3485  0.3279  0.6383
  986MOL0     N32992  10.752   3.130   3.238  0.8517 -0.7519  0.6535
  986MOL0     C32993  10.759   3.145   3.377  0.3763  0.5861  0.2079
  986MOL0     C32994  10.630   3.121   3.417 -0.1957  0.1125 -1.5354
  986MOL0     C32995  10.574   3.129   3.556  0.4266 -0.2293 -0.8338
  986MOL0     C32996  10.603   3.012   3.657 -0.4139 -0.0698  0.5026
  986MOL0     C32997  10.569   2.866   3.623  0.3521  0.0639 -0.0598
  986MOL0     C32998  10.463   2.809   3.711  0.1265  0.5833 -1.1087
  986MOL0     O32999  10.506   2.789   3.851 -0.5137  0.3202 -0.0618
  986MOL0     C33000  10.483   2.670   3.905 -0.4441  0.4028 -0.1668
  986MOL0     C33001  10.395   2.566   3.856 -0.1732  0.1501  1.0145
  986MOL0     C33002  10.408   2.439   3.909 -0.4304 -0.0495  0.5604
  986MOL0     C33003  10.478   2.416   4.031  0.4455  0.2807  0.8456
  986MOL0     C33004  10.477   2.286   4.107  0.1857  0.5109  1.0422
  986MOL0     O33005  10.547   2.289   4.226  0.8477 -0.7368  0.9589
  986MOL0     C33006  10.565   2.177   4.303 -0.6921  0.4800 -0.0031
  986MOL0     C33007  10.693   2.166   4.350 -0.4550 -0.2177  0.0700
  986MOL0     C33008  10.731   2.043   4.416  0.6193 -1.1529  0.4315
  986MOL0     C33009  10.643   1.937   4.435 -0.0987 -0.4539  0.0602
  986MOL0     O33010  10.698   1.823   4.496 -0.8266 -0.3219 -0.2891
  986MOL0     C33011  10.669   1.695   4.434  0.4584  0.8595 -0.4444
  986MOL0     C33012  10.768   1.594   4.491  0.2061 -0.4682 -0.8852
  986MOL0     C33013  10.786   1.608   4.638  1.0992 -0.4682 -0.4155
  986MOL0     C33014  10.877   1.500   4.698  0.2270  0.9387  0.3480
  986MOL0     C33015  11.014   1.514   4.642  0.3358 -0.0718 -0.1972
  986MOL0     C33016  11.123   1.433   4.720 -0.7635  0.2848  0.6299
  986MOL0     C33017  11.264   1.441   4.652  0.5878  0.1012  0.1145
  986MOL0     C33018  11.369   1.394   4.761 -1.1282  0.7196 -0.1708
  986MOL0    Cl33019  11.414   1.510   4.875 -0.6048 -0.4544  0.3568
  986MOL0     C33020  10.512   1.951   4.374 -0.2244 -0.8959 -0.4999
  986MOL0     C33021  10.472   2.074   4.308 -1.2875  0.9271  0.7898
  986MOL0     O33022  10.435   2.179   4.049 -0.6462  1.0211  0.0119
  986MOL0     C33023  10.542   2.527   4.085  0.7315  0.6513 -0.2654
  986MOL0     C33024  10.540   2.649   4.027  0.4431  0.3972 -0.4382
  986MOL0     N33025  10.551   3.082   3.320  0.0127  0.2808 -0.2701
  986MOL0     N33026  10.627   3.088   3.208  0.2469 -0.0075  0.3770
  986MOL0     C33027  11.313   3.652   3.965  0.4261  0.7490  0.2735
  986MOL0     C33028  11.346   3.669   4.098 -0.4164  0.2082  0.1975
  986MOL0     C33029  11.285   3.781   4.523  0.8394  1.4410  1.3115
  986MOL0     C33030  11.329   3.670   4.591  0.4323 -0.2502  0.0405
  986MOL0     C33031  11.362   3.681   4.732  0.0482  0.3573 -0.1166
  986MOL0     C33032  11.337   3.800   4.795  0.1376 -0.3182 -0.3889
  986MOL0     O33033  11.358   3.814   4.930  0.3698  0.3221  0.2958
  986MOL0     C33034  11.254   3.884   4.998  0.2314 -0.1734  0.3558
  986MOL0     C33035  11.200   3.824   5.131 -1.2752 -0.6152 -1.0025
  986MOL0     C33036  11.110   3.910   5.211 -0.4304 -0.5856 -0.3783
  986MOL0     C33037  11.078   3.864   5.360 -0.2523  0.3956  0.5779
  986MOL0     C33038  11.190   3.904   5.448 -0.3371  0.8208 -0.8729
  986MOL0     C33039  11.275   3.926   5.525 -0.0735  0.2396  0.5459
  986MOL0     C33040  11.297   3.904   4.718 -0.3782 -0.3400 -0.4087
  986MOL0     C33041  11.275   3.903   4.584  0.2550  0.8625 -0.3131
  986MOL0     C33042  11.227   4.024   4.511 -0.0463 -0.2819  0.3598
  986MOL0     H33043  11.214   3.980   4.161 -0.5430  0.5513 -1.1403
  986MOL0     H33044  11.152   3.954   3.924  0.3807  0.8267  1.7453
  986MOL0     H33045  11.216   3.552   3.753 -0.5855 -0.8848 -0.4228
  986MOL0     H33046  11.058   3.623   3.747 -0.0206  1.0789  1.9943
  986MOL0     H33047  11.291   3.666   3.551  0.0918 -0.3192 -0.0132
  986MOL0     H33048  11.131   3.734   3.528  0.1499 -1.6457 -2.2026
  986MOL0     H33049  11.017   3.522   3.514 -1.2696  1.0080 -1.1477
  986MOL0     H33050  11.178   3.441   3.549  3.2224  1.5450 -2.2761
  986MOL0     H33051  11.114   3.613   3.288  2.4818 -0.6611 -2.6723
  986MOL0     H33052  11.233   3.478   3.315 -0.8741 -2.8577 -0.8042
  986MOL0     H33053  11.032   3.320   3.356  0.0260  0.5418 -0.1512
  986MOL0     H33054  10.933   3.469   3.334 -0.9456 -1.2750  0.3611
  986MOL0     H33055  11.028   3.483   3.095 -1.7961  0.2762  0.5027
  986MOL0     H33056  11.082   3.313   3.140 -1.1943 -1.9395  0.6323
  986MOL0     H33057  10.847   3.382   3.028 -1.6135  0.0243  0.2451
  986MOL0     H33058  10.802   3.379   3.193 -0.1091  0.2426 -0.1425
  986MOL0     H33059  10.841   3.143   3.032 -3.1576  0.1596  1.1170
  986MOL0     H33060  10.947   3.132   3.173 -1.5367 -2.7254  1.5535
  986MOL0     H33061  10.839   3.176   3.444 -1.8949  1.4175  2.7092
  986MOL0     H33062  10.607   3.215   3.615 -0.0989 -1.8495  2.0195
  986MOL0     H33063  10.465   3.138   3.554  0.2963 -1.1957  0.4224
  986MOL0     H33064  10.709   3.015   3.682 -0.2918  1.1035 -0.1023
  986MOL0     H33065  10.543   3.042   3.743  1.2860  0.3057  1.6069
  986MOL0     H33066  10.662   2.808   3.620 -0.2149 -0.8795  0.0883
  986MOL0     H33067  10.538   2.875   3.518 -1.0767  2.8106  0.5050
  986MOL0     H33068  10.410   2.721   3.672  0.0523 -0.3895  1.0495
  986MOL0     H33069  10.374   2.872   3.714 -1.3333 -1.4310  0.1606
  986MOL0     H33070  10.315   2.582   3.784  0.2127  1.3048  0.8316
  986MOL0     H33071  10.349   2.360   3.865  1.3219 -1.0311 -0.1343
  986MOL0     H33072  10.768   2.244   4.343 -2.6087  1.9920  0.1676
  986MOL0     H33073  10.833   2.036   4.452  0.9863 -0.6814 -0.4816
  986MOL0     H33074  10.571   1.660   4.469 -0.6742  3.7209 -0.5134
  986MOL0     H33075  10.685   1.694   4.326 -0.7429 -3.3409 -0.7646
  986MOL0     H33076  10.728   1.497   4.462 -1.9189  0.3742 -0.9182
  986MOL0     H33077  10.865   1.608   4.441 -0.3572 -0.5406 -2.0196
  986MOL0     H33078  10.836   1.703   4.659  0.5303  0.1414 -1.7017
  986MOL0     H33079  10.691   1.600   4.692  1.3756  4.2390  1.2993
  986MOL0     H33080  10.833   1.404   4.668 -0.4022  1.1748  0.5010
  986MOL0     H33081  10.873   1.502   4.807 -0.8221  1.8490  0.3169
  986MOL0     H33082  11.050   1.617   4.634  0.6768 -0.0172  1.5357
  986MOL0     H33083  11.006   1.473   4.541 -1.4896 -0.2299 -0.0173
  986MOL0     H33084  11.124   1.455   4.828  0.2507 -1.4440  1.0046
  986MOL0     H33085  11.082   1.332   4.722  1.5098 -0.6980  0.9229
  986MOL0     H33086  11.279   1.546   4.625  1.3080 -0.0802 -0.2107
  986MOL0     H33087  11.267   1.377   4.564  1.3067 -1.1429  1.0125
  986MOL0     H33088  11.336   1.307   4.819  0.6393  1.0364  1.4184
  986MOL0     H33089  11.459   1.354   4.713  0.2664  2.1031  1.1654
  986MOL0     H33090  10.431   1.879   4.380 -2.5390  1.5890  0.0078
  986MOL0     H33091  10.370   2.073   4.271 -0.6734 -0.9355 -1.0808
  986MOL0     H33092  10.599   2.515   4.176 -1.1649  1.6448  1.1202
  986MOL0     H33093  10.601   2.731   4.063 -0.1793  0.8139 -0.3221
  986MOL0     H33094  11.353   3.569   3.909  2.0269  1.4787  0.3016
  986MOL0     H33095  11.399   3.591   4.152 -1.5219 -1.0531 -0.4671
  986MOL0     H33096  11.343   3.577   4.536  2.4294  0.6143 -1.0500
  986MOL0     H33097  11.409   3.599   4.785  2.3929  1.0262 -1.0329
  986MOL0     H33098  11.163   3.902   4.940  0.1634 -0.6276  0.3179
  986MOL0     H33099  11.305   3.980   5.010  0.0677 -0.2218  1.6213
  986MOL0     H33100  11.293   3.802   5.184 -0.9591  2.9150  0.1868
  986MOL0     H33101  11.136   3.736   5.123 -4.0287  1.2406 -0.9903
  986MOL0     H33102  11.017   3.940   5.161  0.3709  1.3965 -0.7685
  986MOL0     H33103  11.161   4.006   5.222 -2.2996  0.1732  5.2069
  986MOL0     H33104  10.991   3.913   5.404 -2.8518 -1.1608 -2.3889
  986MOL0     H33105  11.054   3.757   5.354 -2.8699  0.9916 -1.6060
  986MOL0     H33106  11.365   3.947   5.581 -0.1360 -0.6713  1.0126
  986MOL0     H33107  11.281   3.994   4.777 -2.3988 -0.9749  0.1086
  986MOL0     H33108  11.131   4.055   4.553 -0.5738 -0.9539 -0.3152
  986MOL0     H33109  11.313   4.092   4.502  1.6441 -2.3236  0.2789
  986MOL0     H33110  11.190   3.992   4.413  0.2898 -2.6396  0.9378
  987MOL0     O33111   9.062   0.899   9.667 -0.6583 -0.1237 -0.6096
  987MOL0     C33112   9.164   0.960   9.678 -0.4334 -0.5183 -0.3613
  987MOL0     O33113   9.205   1.009   9.800 -0.9600  0.9159 -0.3901
  987MOL0     C33114   9.103   1.032   9.884  0.0769  0.0985 -0.5293
  987MOL0     C33115   9.002   1.126   9.857  0.0078  0.3814 -0.4674
  987MOL0     C33116   8.892   1.120   9.948  0.1468  0.1603 -0.3618
  987MOL0     C33117   8.874   1.036  10.051 -1.0334 -0.1321  0.3861
  987MOL0     O33118   8.762   1.031  10.124  0.1501  0.6968 -0.1499
  987MOL0     C33119   8.773   1.122  10.237 -0.6247 -0.9023  0.2102
  987MOL0     C33120   8.744   1.059  10.373  0.2359  0.5160 -0.3454
  987MOL0     C33121   8.847   0.954  10.407  0.3300  0.4039 -0.5234
  987MOL0     C33122   8.865   0.937  10.556 -0.3952  0.3893 -0.3998
  987MOL0     C33123   8.914   0.787  10.572  0.6498  0.5050  0.0387
  987MOL0     C33124   8.947   0.758  10.722 -0.0123 -0.3249  0.4923
  987MOL0     C33125   8.971   0.607  10.732 -0.0961  0.2817  0.4284
  987MOL0     C33126   9.041   0.567  10.862 -0.2639 -0.1147 -0.0833
  987MOL0     N33127   9.160   0.645  10.901  0.0415 -0.8391 -0.6034
  987MOL0     C33128   9.154   0.776  10.958  0.9741  0.2152 -0.2198
  987MOL0     C33129   9.276   0.820  10.974  0.3249 -0.6752  0.2854
  987MOL0     C33130   9.318   0.961  11.014  0.2953 -0.3450  0.2162
  987MOL0     C33131   9.272   0.988  11.154  0.2315 -0.1043 -0.2553
  987MOL0     C33132   9.332   0.903  11.273 -0.7111 -0.3560  0.9306
  987MOL0     C33133   9.486   0.887  11.256 -0.4151 -0.2006  0.0015
  987MOL0     O33134   9.559   1.014  11.260  0.3138  0.2539 -1.0820
  987MOL0     C33135   9.693   1.007  11.261  0.3837 -0.7506  0.7175
  987MOL0     C33136   9.775   0.897  11.282 -0.2401 -0.6247  0.0740
  987MOL0     C33137   9.916   0.913  11.289 -0.1708  0.1137 -0.8305
  987MOL0     C33138   9.971   1.037  11.261 -0.3818 -0.8494  0.5335
  987MOL0     C33139  10.119   1.051  11.254 -0.1249 -0.4873  0.4144
  987MOL0     O33140  10.164   1.143  11.159  0.5086 -0.5263 -0.6661
  987MOL0     C33141  10.277   1.126  11.089  0.1304  0.6025  0.8807
  987MOL0     C33142  10.392   1.199  11.107 -0.0299  0.2165  0.8418
  987MOL0     C33143  10.506   1.166  11.026  0.0493 -0.5173  0.8464
  987MOL0     C33144  10.490   1.088  10.910  1.1800 -0.4056 -0.1800
  987MOL0     O33145  10.597   1.058  10.820  0.0572  0.5856  0.8003
  987MOL0     C33146  10.722   1.043  10.884  0.6425  0.2209  0.6661
  987MOL0     C33147  10.818   0.975  10.780  0.6333  0.2590 -0.0652
  987MOL0     C33148  10.887   1.091  10.706 -0.6201 -0.3765 -0.0790
  987MOL0     C33149  11.009   1.033  10.633 -0.6888 -0.3213  0.0163
  987MOL0     C33150  11.099   1.147  10.591  0.1159 -0.3828  0.1844
  987MOL0     C33151  11.244   1.108  10.576 -0.0904 -0.1109  0.5317
  987MOL0     C33152  11.320   1.155  10.453 -0.2662  0.9730 -0.6844
  987MOL0     C33153  11.321   1.304  10.437 -0.6271  0.4554 -0.0644
  987MOL0    Cl33154  11.429   1.332  10.297 -0.1062 -1.0365  0.3405
  987MOL0     C33155  10.374   1.013  10.894  0.1601  0.2710 -0.4129
  987MOL0     C33156  10.269   1.030  10.986 -0.6740  0.1856  0.5996
  987MOL0     O33157  10.193   0.975  11.308 -0.9182  0.8368  0.2736
  987MOL0     C33158   9.890   1.153  11.248  0.3953 -0.8673 -0.0297
  987MOL0     C33159   9.755   1.129  11.252 -0.3218 -0.7155 -0.4112
  987MOL0     N33160   9.361   0.727  10.924  0.1217  0.7586 -0.2087
  987MOL0     N33161   9.293   0.625  10.882 -0.4552  1.1111 -0.4571
  987MOL0     C33162   8.975   0.947  10.087 -0.3534  0.1658 -0.0067
  987MOL0     C33163   9.090   0.949  10.000  1.0291 -0.3437  0.1972
  987MOL0     C33164   9.230   1.003   9.558  0.1337 -0.0576  0.3616
  987MOL0     C33165   9.297   1.122   9.547 -0.4423  1.2664 -1.2777
  987MOL0     C33166   9.384   1.162   9.451 -1.0056  0.3799 -0.6156
  987MOL0     C33167   9.406   1.082   9.339  0.4228  0.0407 -0.6629
  987MOL0     O33168   9.491   1.138   9.244 -0.5925  0.3085 -0.3037
  987MOL0     C33169   9.498   1.075   9.114 -0.4837  1.0600  0.8430
  987MOL0     C33170   9.587   1.145   9.013 -1.3289  0.6446 -0.2799
  987MOL0     C33171   9.555   1.291   8.990  0.8023 -0.1955 -0.6329
  987MOL0     C33172   9.645   1.363   8.883 -0.5431  1.3134 -0.1711
  987MOL0     C33173   9.719   1.282   8.785 -0.4886  0.0526  0.3114
  987MOL0     C33174   9.793   1.224   8.701  0.1952 -0.3003 -0.0411
  987MOL0     C33175   9.318   0.973   9.333 -0.6372  0.3006  0.2136
  987MOL0     C33176   9.243   0.923   9.438 -0.0006  0.7336  0.1903
  987MOL0     C33177   9.183   0.787   9.424 -0.8283  0.3356 -0.2610
  987MOL0     H33178   9.011   1.212   9.791 -2.5545  2.5141  1.7219
  987MOL0     H33179   8.819   1.200   9.947 -1.9406 -1.6240  0.8441
  987MOL0     H33180   8.862   1.184  10.257 -2.7623  2.7884 -0.7448
  987MOL0     H33181   8.693   1.196  10.224  1.0555  0.9373 -0.1919
  987MOL0     H33182   8.643   1.016  10.375 -1.5271  4.2426  0.4481
  987MOL0     H33183   8.748   1.138  10.449 -2.3172  1.1177 -0.7319
  987MOL0     H33184   8.945   0.971  10.360 -0.9521  1.1678 -3.0839
  987MOL0     H33185   8.806   0.862  10.366 -0.9196  0.5990  0.2536
  987MOL0     H33186   8.944   1.002  10.595  0.7686 -1.7472  1.0061
  987MOL0     H33187   8.769   0.939  10.609 -0.8807  2.1825 -1.2766
  987MOL0     H33188   8.832   0.722  10.541 -0.2291  1.9841 -0.8652
  987MOL0     H33189   8.993   0.765  10.500  0.5117 -2.7074  0.7441
  987MOL0     H33190   9.032   0.824  10.736 -1.0548  1.2329 -0.1466
  987MOL0     H33191   8.875   0.786  10.800 -1.1031 -0.1657 -0.5246
  987MOL0     H33192   9.042   0.596  10.649 -1.3048  1.3074 -0.7861
  987MOL0     H33193   8.875   0.557  10.721 -1.1448  2.4177 -0.8264
  987MOL0     H33194   8.976   0.554  10.950 -1.1573 -2.9117 -1.0419
  987MOL0     H33195   9.073   0.465  10.840  1.8753  0.2573  1.0467
  987MOL0     H33196   9.069   0.836  10.987  0.9487  0.5527 -0.9786
  987MOL0     H33197   9.427   0.975  11.015  0.0670  2.3532  3.6298
  987MOL0     H33198   9.268   1.037  10.954 -2.4280  1.5125  4.3733
  987MOL0     H33199   9.301   1.093  11.168 -0.3919  0.0720 -0.2791
  987MOL0     H33200   9.165   0.988  11.175  0.5130  1.9773  1.6378
  987MOL0     H33201   9.287   0.806  11.252 -0.1385 -0.2389 -1.1281
  987MOL0     H33202   9.298   0.954  11.363 -0.9103 -1.9914  1.8163
  987MOL0     H33203   9.502   0.830  11.164  1.2598 -0.8435  0.6286
  987MOL0     H33204   9.526   0.822  11.335 -2.4787  1.9227  3.0040
  987MOL0     H33205   9.741   0.794  11.283 -1.4392 -0.2363  0.8712
  987MOL0     H33206   9.979   0.832  11.325  5.0206  2.5492 -3.4306
  987MOL0     H33207  10.397   1.269  11.190 -0.3626 -0.5584  1.5263
  987MOL0     H33208  10.595   1.228  11.039  0.4918 -0.9413 -0.0653
  987MOL0     H33209  10.750   1.144  10.916 -0.5399  0.8446 -0.1723
  987MOL0     H33210  10.714   0.978  10.971  0.0418 -0.8803 -0.1927
  987MOL0     H33211  10.883   0.898  10.821  0.1750  0.0679  0.3086
  987MOL0     H33212  10.761   0.912  10.711 -0.2760 -1.9423  2.5497
  987MOL0     H33213  10.814   1.132  10.636 -2.4014 -0.3625  1.6871
  987MOL0     H33214  10.926   1.159  10.782  2.2146 -2.8863  0.9413
  987MOL0     H33215  10.975   0.969  10.551  3.1823 -1.6239 -0.8257
  987MOL0     H33216  11.069   0.973  10.703  3.6913  2.6877 -0.7115
  987MOL0     H33217  11.095   1.233  10.659 -0.6802 -0.9366  0.8484
  987MOL0     H33218  11.059   1.189  10.498 -1.1289 -0.8501  0.4965
  987MOL0     H33219  11.308   1.141  10.659 -1.7615  0.6248  1.5893
  987MOL0     H33220  11.253   0.999  10.573 -2.7084 -0.3856 -1.0851
  987MOL0     H33221  11.281   1.103  10.365 -1.8451 -0.3563  0.7210
  987MOL0     H33222  11.421   1.118  10.470 -0.0781  0.1575 -3.1557
  987MOL0     H33223  11.222   1.345  10.415 -0.3306  2.7370  2.2661
  987MOL0     H33224  11.371   1.356  10.520 -0.5096 -0.9404  0.7731
  987MOL0     H33225  10.365   0.943  10.812 -2.4638 -1.2236  1.0090
  987MOL0     H33226  10.176   0.974  10.988  1.1039 -2.9894  1.5034
  987MOL0     H33227   9.925   1.253  11.228 -1.6618 -0.2094 -0.5969
  987MOL0     H33228   9.689   1.215  11.245  0.3122 -0.3090 -1.7489
  987MOL0     H33229   8.975   0.881  10.173 -2.8631  0.5756  0.3783
  987MOL0     H33230   9.176   0.886  10.018  2.0984  1.1828  0.6373
  987MOL0     H33231   9.302   1.192   9.630  0.5225  1.6131 -1.6170
  987MOL0     H33232   9.422   1.262   9.465  0.0642  0.0776 -1.2469
  987MOL0     H33233   9.399   1.066   9.067 -0.2163  1.1656  0.2505
  987MOL0     H33234   9.535   0.973   9.128 -1.0856  0.4431 -1.5749
  987MOL0     H33235   9.571   1.088   8.921  1.7994 -1.0787  0.1004
  987MOL0     H33236   9.693   1.132   9.039 -1.0214 -2.5237 -2.5615
  987MOL0     H33237   9.565   1.358   9.075  1.2091 -1.0310 -0.0141
  987MOL0     H33238   9.450   1.300   8.960  1.6970  5.1568 -3.3455
  987MOL0     H33239   9.580   1.438   8.836 -0.7490  3.2046  2.8912
  987MOL0     H33240   9.720   1.410   8.947 -1.3171  0.8678  1.1063
  987MOL0     H33241   9.859   1.188   8.625 -0.4909 -0.7232 -0.4460
  987MOL0     H33242   9.331   0.931   9.234  2.4716  2.9760 -0.7196
  987MOL0     H33243   9.078   0.779   9.395 -1.2624  2.2214  0.6247
  987MOL0     H33244   9.243   0.729   9.353  1.9779  0.2736  1.9761
  987MOL0     H33245   9.186   0.733   9.519 -1.6736 -0.7467 -0.8316
  988MOL0     O33246   1.705   8.747   9.461  0.1762 -0.6347 -0.0856
  988MOL0     C33247   1.638   8.841   9.508  1.0301 -0.3218 -1.1745
  988MOL0     O33248   1.507   8.845   9.534  0.4489 -0.3641 -0.3559
  988MOL0     C33249   1.427   8.740   9.503 -0.3690 -0.2072  0.7478
  988MOL0     C33250   1.325   8.753   9.417 -0.1149  0.0198 -0.1034
  988MOL0     C33251   1.254   8.651   9.353  0.6338  0.5844 -0.6441
  988MOL0     C33252   1.263   8.523   9.411 -0.8301  0.0785  0.0354
  988MOL0     O33253   1.183   8.417   9.362  0.0445 -0.0725  0.2957
  988MOL0     C33254   1.230   8.281   9.392  0.8983 -0.7650  0.0587
  988MOL0     C33255   1.351   8.232   9.307  0.7994  0.1345 -0.2136
  988MOL0     C33256   1.425   8.124   9.395 -0.4953 -0.8823 -0.3729
  988MOL0     C33257   1.340   7.977   9.369 -0.3435  0.1277 -0.5518
  988MOL0     C33258   1.388   7.869   9.467 -0.2048 -0.1564 -0.9244
  988MOL0     C33259   1.528   7.814   9.421  0.9401  0.0184  0.3820
  988MOL0     C33260   1.517   7.709   9.304 -0.1695  0.0175 -0.2806
  988MOL0     C33261   1.658   7.667   9.272 -1.2916  0.0946  0.9420
  988MOL0     N33262   1.689   7.563   9.168  1.1510 -0.1670 -0.8499
  988MOL0     C33263   1.616   7.451   9.129  0.2252  0.2521 -0.5045
  988MOL0     C33264   1.701   7.377   9.054  0.5601 -0.5429 -0.3213
  988MOL0     C33265   1.675   7.240   8.992  0.0622  0.3073  0.0287
  988MOL0     C33266   1.578   7.243   8.876  0.6244  0.3547  0.1626
  988MOL0     C33267   1.433   7.216   8.908 -0.3997 -0.7033  0.1683
  988MOL0     C33268   1.358   7.263   8.785  0.1411  0.1759  0.5450
  988MOL0     O33269   1.233   7.202   8.810  0.2829 -0.1705 -0.1349
  988MOL0     C33270   1.115   7.257   8.767  0.7176 -0.1650  0.2392
  988MOL0     C33271   1.111   7.383   8.711 -0.2245 -0.4579  0.6177
  988MOL0     C33272   0.990   7.436   8.663 -0.2078 -0.5237  0.1879
  988MOL0     C33273   0.865   7.366   8.674  0.0256 -0.3094  0.7978
  988MOL0     C33274   0.738   7.427   8.643 -0.1511  0.6783 -0.9917
  988MOL0     O33275   0.632   7.347   8.627  0.6652  0.3602  1.0403
  988MOL0     C33276   0.495   7.390   8.612  0.4025 -0.0695  0.8165
  988MOL0     C33277   0.405   7.291   8.574  0.2572  0.1848 -0.6187
  988MOL0     C33278   0.264   7.318   8.573  0.3298 -0.3129  0.2170
  988MOL0     C33279   0.216   7.453   8.591 -0.4915 -0.1537  0.7130
  988MOL0     O33280   0.089   7.476   8.601  0.4885 -0.4371 -1.0751
  988MOL0     C33281   0.037   7.583   8.524 -0.7019 -0.7460 -0.0812
  988MOL0     C33282  -0.049   7.532   8.405 -0.1627 -0.0486 -0.2274
  988MOL0     C33283  -0.053   7.633   8.285 -1.0040  0.2862  1.1719
  988MOL0     C33284  -0.142   7.564   8.176  0.1194 -0.2571  0.0230
  988MOL0     C33285  -0.140   7.640   8.038 -0.0181  0.2522  0.3276
  988MOL0     C33286  -0.229   7.567   7.938  0.7083 -0.1393  0.4981
  988MOL0     C33287  -0.222   7.644   7.796  0.6671  0.1267  0.4469
  988MOL0     C33288  -0.325   7.570   7.695 -0.7125 -0.0515  0.3302
  988MOL0    Cl33289  -0.296   7.628   7.516 -0.3123  0.2856 -0.4001
  988MOL0     C33290   0.321   7.550   8.623  0.7803  0.4610  0.6168
  988MOL0     C33291   0.448   7.522   8.631 -0.2058  0.0978  0.6452
  988MOL0     O33292   0.733   7.551   8.651  0.1180  0.1159  0.3460
  988MOL0     C33293   0.877   7.238   8.723 -0.5055  0.5401 -0.6063
  988MOL0     C33294   1.001   7.179   8.773 -0.3898 -0.1163 -0.5179
  988MOL0     N33295   1.823   7.449   9.054 -0.5065 -0.0964 -0.7728
  988MOL0     N33296   1.816   7.557   9.120 -0.4375  0.5239  0.4898
  988MOL0     C33297   1.363   8.511   9.510  0.4928 -0.4183  0.2057
  988MOL0     C33298   1.446   8.612   9.559  0.0275 -0.2063  0.0172
  988MOL0     C33299   1.707   8.976   9.527  1.0191 -0.3376 -0.3106
  988MOL0     C33300   1.729   9.016   9.654  0.9376 -0.0816 -0.6976
  988MOL0     C33301   1.798   9.141   9.672 -0.3009  1.1762 -0.0108
  988MOL0     C33302   1.855   9.201   9.565 -0.0937 -0.2583  1.5068
  988MOL0     O33303   1.928   9.320   9.567 -0.5062  0.8960  0.2854
  988MOL0     C33304   1.987   9.356   9.695  0.1804 -0.4984  0.0595
  988MOL0     C33305   2.111   9.454   9.661 -0.5497  0.2201 -0.0646
  988MOL0     C33306   2.079   9.578   9.564  1.0164 -1.0241  0.3486
  988MOL0     C33307   2.073   9.726   9.624 -0.3845 -0.0683  0.0749
  988MOL0     C33308   2.182   9.760   9.711  0.3226  0.3653  0.0320
  988MOL0     C33309   2.274   9.790   9.783 -0.2514 -0.2164 -0.5732
  988MOL0     C33310   1.831   9.152   9.434  0.2882  1.1035  0.3534
  988MOL0     C33311   1.751   9.039   9.415 -0.2141  0.5415 -0.6013
  988MOL0     C33312   1.717   9.007   9.276 -0.7471  0.3188 -0.4964
  988MOL0     H33313   1.323   8.852   9.374 -1.1637  0.1490  0.1974
  988MOL0     H33314   1.178   8.656   9.276 -0.3867  0.5296  0.3439
  988MOL0     H33315   1.240   8.261   9.499  3.0137  3.2523  0.8007
  988MOL0     H33316   1.141   8.227   9.360 -0.6799  1.6148  0.2168
  988MOL0     H33317   1.412   8.323   9.298  0.4267  0.7520  2.5119
  988MOL0     H33318   1.326   8.195   9.208 -3.4217 -2.0185  1.4056
  988MOL0     H33319   1.426   8.160   9.498 -2.2717 -0.2802 -0.5368
  988MOL0     H33320   1.529   8.119   9.361 -1.0999 -0.3224 -2.4352
  988MOL0     H33321   1.238   8.006   9.397  0.0006  0.8010  0.0502
  988MOL0     H33322   1.349   7.941   9.267 -1.4391 -0.2817 -0.5227
  988MOL0     H33323   1.386   7.915   9.566  0.2020 -2.3239  0.1409
  988MOL0     H33324   1.318   7.785   9.468 -0.3528 -0.0435  0.7767
  988MOL0     H33325   1.606   7.889   9.405  1.6339 -1.0546 -1.5568
  988MOL0     H33326   1.560   7.752   9.505  0.2755 -1.3063 -0.3044
  988MOL0     H33327   1.475   7.754   9.214 -3.4329  0.1413  1.1812
  988MOL0     H33328   1.449   7.629   9.334 -0.4504 -0.8019 -2.8888
  988MOL0     H33329   1.712   7.755   9.238 -2.4183  0.2410 -0.5526
  988MOL0     H33330   1.702   7.624   9.363  0.4930 -0.8269 -0.3091
  988MOL0     H33331   1.509   7.439   9.145  0.4131 -0.0028  0.6537
  988MOL0     H33332   1.772   7.218   8.946 -0.4567 -2.1938 -0.0293
  988MOL0     H33333   1.649   7.167   9.069 -3.4610  2.4241  1.1006
  988MOL0     H33334   1.587   7.338   8.823 -0.3740  0.6030  0.4229
  988MOL0     H33335   1.595   7.165   8.801 -4.7138 -1.0391 -0.0503
  988MOL0     H33336   1.403   7.270   8.998 -0.8538 -2.1895  0.9390
  988MOL0     H33337   1.418   7.111   8.934  1.3939 -0.3819  2.9676
  988MOL0     H33338   1.405   7.230   8.692 -1.7881 -0.4244 -0.2663
  988MOL0     H33339   1.361   7.373   8.785  2.1069  0.1835  2.3803
  988MOL0     H33340   1.201   7.441   8.694 -0.4858  0.0426  0.9234
  988MOL0     H33341   0.987   7.529   8.607 -1.5048 -1.8436 -2.0950
  988MOL0     H33342   0.439   7.188   8.564 -1.9189 -0.4988 -1.4699
  988MOL0     H33343   0.201   7.232   8.553  2.8862 -1.6299 -3.0162
  988MOL0     H33344  -0.025   7.652   8.580 -0.8942  0.6374 -1.8825
  988MOL0     H33345   0.114   7.654   8.492 -1.3064 -0.6497 -1.4142
  988MOL0     H33346  -0.014   7.436   8.366  3.7404  0.8833  0.5770
  988MOL0     H33347  -0.154   7.520   8.433 -0.0984 -1.7439 -0.6549
  988MOL0     H33348  -0.097   7.726   8.321 -0.2742  1.2240 -0.2866
  988MOL0     H33349   0.043   7.647   8.235 -1.9735 -0.4015 -0.9864
  988MOL0     H33350  -0.240   7.573   8.223  1.3472 -0.4485  2.8098
  988MOL0     H33351  -0.109   7.460   8.167 -0.5619 -0.5626  0.9546
  988MOL0     H33352  -0.041   7.634   7.993  0.5104  0.2109  1.4606
  988MOL0     H33353  -0.180   7.741   8.049 -2.6216 -0.4826 -1.3432
  988MOL0     H33354  -0.198   7.463   7.947  1.6509  0.3110  3.7263
  988MOL0     H33355  -0.331   7.576   7.975  0.8561  1.7370  0.5781
  988MOL0     H33356  -0.126   7.634   7.744 -0.0329 -5.5033 -0.3870
  988MOL0     H33357  -0.257   7.747   7.798 -1.8092 -0.6485  1.5598
  988MOL0     H33358  -0.305   7.463   7.705  0.5183  0.1653  0.3072
  988MOL0     H33359  -0.430   7.591   7.716 -1.3695  1.2363 -3.3997
  988MOL0     H33360   0.311   7.656   8.643  2.0636  1.0025 -1.2615
  988MOL0     H33361   0.513   7.607   8.649 -1.9962  1.5273  0.7302
  988MOL0     H33362   0.791   7.178   8.748  1.0073 -1.9206 -1.0016
  988MOL0     H33363   1.013   7.084   8.825  0.4705 -0.4382 -1.2711
  988MOL0     H33364   1.393   8.417   9.554  1.9415  0.7541  1.8637
  988MOL0     H33365   1.525   8.601   9.633  0.5651  1.0380 -0.3449
  988MOL0     H33366   1.699   8.958   9.740 -2.2413  0.6290 -1.1826
  988MOL0     H33367   1.803   9.173   9.776 -4.7908 -0.2347  0.8724
  988MOL0     H33368   2.032   9.279   9.758 -0.1727  0.4536  1.4991
  988MOL0     H33369   1.917   9.403   9.765  1.2085 -0.2328  0.9317
  988MOL0     H33370   2.202   9.403   9.627  0.2164  1.0414  0.6551
  988MOL0     H33371   2.142   9.501   9.755 -1.0558 -1.1019  0.7878
  988MOL0     H33372   1.987   9.553   9.511  1.8949 -1.2434 -1.1336
  988MOL0     H33373   2.148   9.578   9.479 -0.7833 -1.0464 -1.1906
  988MOL0     H33374   2.057   9.799   9.544 -1.3705 -2.5744 -2.1554
  988MOL0     H33375   1.981   9.740   9.682 -0.9004  1.7933 -1.0965
  988MOL0     H33376   2.362   9.805   9.843 -1.2408 -0.7503  1.0822
  988MOL0     H33377   1.869   9.202   9.346 -0.8322 -0.6076 -1.1814
  988MOL0     H33378   1.609   9.000   9.257 -0.6249 -2.1440 -0.6946
  988MOL0     H33379   1.757   9.073   9.199 -0.1726  1.6733  0.9073
  988MOL0     H33380   1.746   8.904   9.252 -0.4672  0.1921  0.3669
  989MOL0     O33381   1.102   4.313   7.332 -0.1784 -0.2833 -0.3201
  989MOL0     C33382   1.202   4.380   7.369  0.0563 -0.0662  0.3605
  989MOL0     O33383   1.287   4.452   7.282  0.2945 -0.0830 -0.3901
  989MOL0     C33384   1.296   4.399   7.161 -0.6440 -0.2254 -0.4025
  989MOL0     C33385   1.285   4.478   7.048  0.4415  0.0931  0.1315
  989MOL0     C33386   1.313   4.430   6.914 -0.3481 -0.4120  0.3817
  989MOL0     C33387   1.350   4.293   6.892  0.0515 -0.5999  1.5711
  989MOL0     O33388   1.377   4.249   6.765  0.0614 -0.1535 -0.1717
  989MOL0     C33389   1.442   4.112   6.748 -0.5018 -0.0606  1.0704
  989MOL0     C33390   1.583   4.127   6.679  0.4680 -0.0336  0.3216
  989MOL0     C33391   1.566   4.208   6.552 -0.1339 -0.3185 -0.0981
  989MOL0     C33392   1.672   4.180   6.446 -0.5946 -0.6720  0.3777
  989MOL0     C33393   1.651   4.273   6.326  0.1759 -0.3458  0.9314
  989MOL0     C33394   1.544   4.211   6.232 -0.0806  0.2937 -0.1200
  989MOL0     C33395   1.562   4.275   6.099 -0.7210  0.7197 -0.8985
  989MOL0     C33396   1.480   4.190   5.992 -0.0864 -1.0985  0.7972
  989MOL0     N33397   1.372   4.265   5.942 -0.1544 -0.7804 -0.0380
  989MOL0     C33398   1.258   4.284   6.008  0.0341  0.7697 -0.5686
  989MOL0     C33399   1.185   4.366   5.919  1.2677  0.0149 -0.2884
  989MOL0     C33400   1.043   4.413   5.944  0.6416  0.2349  0.0189
  989MOL0     C33401   0.943   4.304   5.902 -1.1475  0.1975 -1.1586
  989MOL0     C33402   0.936   4.181   6.006  0.5011 -0.2671  0.2491
  989MOL0     C33403   0.919   4.049   5.935 -0.7779  0.0479  0.0192
  989MOL0     O33404   0.786   4.039   5.873  0.1673 -1.0566  0.4612
  989MOL0     C33405   0.761   4.082   5.749  0.5946 -0.1200  0.6610
  989MOL0     C33406   0.632   4.121   5.721  0.4360  0.1160  0.3551
  989MOL0     C33407   0.591   4.170   5.597 -0.7190 -0.4983  1.2553
  989MOL0     C33408   0.680   4.184   5.494 -0.8482 -0.2105  0.5609
  989MOL0     C33409   0.646   4.275   5.381  0.0096  0.3903 -0.5224
  989MOL0     O33410   0.731   4.269   5.272 -0.5324  0.1685 -0.9095
  989MOL0     C33411   0.704   4.337   5.159 -0.2731  0.2915 -0.4853
  989MOL0     C33412   0.653   4.464   5.142 -0.1271  0.6850 -0.5340
  989MOL0     C33413   0.656   4.516   5.010  1.6981  0.7614  0.4766
  989MOL0     C33414   0.705   4.443   4.905 -0.5378  0.5105  0.1411
  989MOL0     O33415   0.715   4.515   4.785 -0.1552 -0.5078  0.1170
  989MOL0     C33416   0.669   4.454   4.665 -0.2274 -0.0139 -0.3245
  989MOL0     C33417   0.654   4.578   4.571  0.1673  0.9009  0.3338
  989MOL0     C33418   0.664   4.512   4.434 -0.1017 -0.2865 -0.5888
  989MOL0     C33419   0.667   4.620   4.319 -0.5668  0.5430 -0.6762
  989MOL0     C33420   0.802   4.692   4.323  1.1156 -0.4017  0.4962
  989MOL0     C33421   0.799   4.776   4.193 -0.5474  0.2258  1.2559
  989MOL0     C33422   0.937   4.848   4.172  0.1193  0.2923 -1.1291
  989MOL0     C33423   1.034   4.854   4.299 -0.0201  0.0392 -0.3864
  989MOL0    Cl33424   1.170   4.959   4.245  0.1857 -0.0573 -0.1867
  989MOL0     C33425   0.740   4.307   4.920  0.2390 -0.7181  0.3216
  989MOL0     C33426   0.739   4.263   5.048  0.4135  1.4401 -0.1888
  989MOL0     O33427   0.538   4.334   5.384 -0.0369 -0.3826 -0.3904
  989MOL0     C33428   0.815   4.144   5.523 -1.0668 -0.8265  0.8136
  989MOL0     C33429   0.853   4.088   5.649  0.4471  0.4950 -0.2058
  989MOL0     N33430   1.253   4.384   5.803  0.1000  0.5305  0.4691
  989MOL0     N33431   1.361   4.319   5.817 -0.0864  0.9331 -0.2922
  989MOL0     C33432   1.368   4.218   7.008  0.6633 -0.5315 -0.6624
  989MOL0     C33433   1.332   4.268   7.140  1.1385  0.6698  0.5497
  989MOL0     C33434   1.256   4.365   7.504  1.5452 -0.6103 -0.4207
  989MOL0     C33435   1.388   4.324   7.519  0.6900 -0.4379 -0.3425
  989MOL0     C33436   1.455   4.320   7.637 -0.2556 -0.1563 -0.1437
  989MOL0     C33437   1.383   4.331   7.756 -0.7170  0.4151 -0.2828
  989MOL0     O33438   1.437   4.313   7.880  0.0839 -0.3572  0.2139
  989MOL0     C33439   1.584   4.324   7.896 -0.2038  0.0636  0.0148
  989MOL0     C33440   1.617   4.351   8.044 -1.9800  0.0119  0.0419
  989MOL0     C33441   1.777   4.399   8.060 -0.4130  1.0629  0.5975
  989MOL0     C33442   1.795   4.448   8.198 -0.7058  0.2559 -1.1197
  989MOL0     C33443   1.934   4.496   8.215 -0.2394  0.4302 -0.1251
  989MOL0     C33444   2.049   4.526   8.202 -0.1258 -1.6961 -0.4371
  989MOL0     C33445   1.247   4.332   7.742  0.6961  0.4067 -0.2003
  989MOL0     C33446   1.180   4.370   7.624 -0.6840  0.6032 -0.4665
  989MOL0     C33447   1.032   4.390   7.636  0.0219  0.0891  0.3695
  989MOL0     H33448   1.259   4.582   7.066  2.5628  0.4431  1.4395
  989MOL0     H33449   1.309   4.483   6.820  1.3032  0.4326  0.7709
  989MOL0     H33450   1.443   4.065   6.847 -3.3163 -0.9171  0.7618
  989MOL0     H33451   1.379   4.055   6.679  0.9041 -0.0635 -0.2664
  989MOL0     H33452   1.626   4.028   6.661 -0.8999 -0.5542 -0.2514
  989MOL0     H33453   1.639   4.191   6.748  0.3185 -0.0401  0.4506
  989MOL0     H33454   1.555   4.313   6.581  1.0271 -0.5229  1.2185
  989MOL0     H33455   1.469   4.187   6.508  0.8362 -2.5076 -1.3500
  989MOL0     H33456   1.773   4.195   6.483 -0.1443 -1.4501 -0.4803
  989MOL0     H33457   1.669   4.072   6.429 -1.9374 -0.5981 -0.0081
  989MOL0     H33458   1.619   4.371   6.361 -0.7209  0.9411 -3.0298
  989MOL0     H33459   1.745   4.272   6.271 -0.1299  5.0198 -0.1515
  989MOL0     H33460   1.547   4.102   6.232  2.1746  0.3196  0.0950
  989MOL0     H33461   1.452   4.261   6.262  0.2997  1.0318 -0.1644
  989MOL0     H33462   1.667   4.271   6.068 -0.6093  0.3482 -0.4854
  989MOL0     H33463   1.536   4.380   6.111  1.3714  1.0531  1.3892
  989MOL0     H33464   1.534   4.154   5.904 -1.3838 -0.4481 -0.3046
  989MOL0     H33465   1.445   4.100   6.041  2.5091 -3.4945 -1.3615
  989MOL0     H33466   1.228   4.244   6.104  0.5498 -1.3701 -1.2532
  989MOL0     H33467   1.017   4.437   6.048 -0.3512 -0.6549 -0.0017
  989MOL0     H33468   1.027   4.497   5.876  1.0058 -0.9321 -1.5768
  989MOL0     H33469   0.851   4.363   5.900 -2.1625 -0.9807  2.3822
  989MOL0     H33470   0.985   4.271   5.807  2.5340 -0.6999  0.5756
  989MOL0     H33471   0.843   4.189   6.064 -0.6666  0.7685 -1.6577
  989MOL0     H33472   1.021   4.173   6.074 -0.8866 -3.3078  1.8318
  989MOL0     H33473   0.934   3.970   6.009 -1.0153 -0.1919 -0.1826
  989MOL0     H33474   1.000   4.025   5.865 -2.9609 -1.3049 -2.2384
  989MOL0     H33475   0.563   4.110   5.803  1.0310  2.8608  1.3256
  989MOL0     H33476   0.488   4.202   5.583 -0.5958  0.0152  1.5174
  989MOL0     H33477   0.619   4.523   5.226  0.4764  0.5162 -0.1657
  989MOL0     H33478   0.629   4.619   4.989  1.3820  0.1638 -2.5200
  989MOL0     H33479   0.738   4.375   4.632  0.4426 -0.0549  1.1257
  989MOL0     H33480   0.575   4.400   4.681 -1.4932  2.6844  2.2944
  989MOL0     H33481   0.570   4.643   4.595 -0.6310 -0.5004  1.4827
  989MOL0     H33482   0.746   4.632   4.593  1.1956 -1.9082  3.8363
  989MOL0     H33483   0.754   4.451   4.423 -0.6834 -0.9254 -2.0317
  989MOL0     H33484   0.580   4.443   4.425  0.0085 -0.5968  0.5938
  989MOL0     H33485   0.590   4.694   4.344 -0.3027 -0.2198  2.9870
  989MOL0     H33486   0.652   4.563   4.227  0.0070  0.3192 -0.6343
  989MOL0     H33487   0.885   4.623   4.339  1.5346 -0.3717 -1.3397
  989MOL0     H33488   0.797   4.760   4.409  1.4096 -1.0851  1.0595
  989MOL0     H33489   0.766   4.720   4.105 -4.0121  0.1526  2.4339
  989MOL0     H33490   0.718   4.847   4.216 -1.0310 -0.0143  0.3618
  989MOL0     H33491   0.901   4.947   4.143 -0.2565  0.3396 -0.5244
  989MOL0     H33492   0.993   4.795   4.094 -1.3600 -1.2785 -1.1836
  989MOL0     H33493   0.987   4.889   4.392  2.1594  0.2615  0.7100
  989MOL0     H33494   1.076   4.754   4.314 -0.4615  0.0823  1.2937
  989MOL0     H33495   0.763   4.251   4.829 -4.7522 -0.7020 -1.2563
  989MOL0     H33496   0.758   4.162   5.082 -0.3894  1.0925 -0.7621
  989MOL0     H33497   0.893   4.164   5.451 -2.0085 -1.1505 -0.3268
  989MOL0     H33498   0.957   4.063   5.667  0.6243  0.6937 -0.9295
  989MOL0     H33499   1.408   4.118   7.022  0.8858 -0.3488  0.0807
  989MOL0     H33500   1.347   4.199   7.222  0.1340 -0.9240 -0.5405
  989MOL0     H33501   1.445   4.282   7.436 -0.2707 -3.2771  0.3501
  989MOL0     H33502   1.557   4.284   7.633 -0.7639 -1.5677 -1.2839
  989MOL0     H33503   1.617   4.405   7.831  0.7966  1.0345  1.6517
  989MOL0     H33504   1.626   4.232   7.855  1.7579  0.7732  0.2863
  989MOL0     H33505   1.602   4.264   8.109 -0.0980  0.4112  1.0813
  989MOL0     H33506   1.565   4.438   8.086 -2.5502 -0.4291  0.2637
  989MOL0     H33507   1.802   4.477   7.987  3.6965 -1.4087 -0.9430
  989MOL0     H33508   1.849   4.323   8.030  0.4266  1.8665  0.5282
  989MOL0     H33509   1.730   4.533   8.221  1.1882  1.1955  1.2495
  989MOL0     H33510   1.772   4.371   8.272  2.0219 -0.7494 -1.1745
  989MOL0     H33511   2.150   4.556   8.185 -0.4584 -0.9011 -1.1248
  989MOL0     H33512   1.182   4.314   7.828  0.4224 -0.5872 -0.6064
  989MOL0     H33513   1.009   4.414   7.741  1.2241  1.3370  0.3804
  989MOL0     H33514   1.010   4.480   7.578 -0.4924 -1.1487 -1.4467
  989MOL0     H33515   0.970   4.312   7.592 -0.6887  0.4004  0.7938
  990MOL0     O33516   0.536   7.665   0.944 -0.4053  0.3133 -0.2088
  990MOL0     C33517   0.609   7.738   1.014  0.8941 -0.2897 -0.2081
  990MOL0     O33518   0.565   7.855   1.066  0.2531  0.9996  0.2117
  990MOL0     C33519   0.437   7.893   1.016  0.0237  0.5407  0.0551
  990MOL0     C33520   0.435   7.991   0.922  0.9275  1.0287  0.0546
  990MOL0     C33521   0.312   8.039   0.867 -1.5514  0.3232 -0.0792
  990MOL0     C33522   0.191   7.994   0.914 -0.1958  0.5595 -0.1266
  990MOL0     O33523   0.075   8.048   0.857 -0.1480  0.1419  0.8667
  990MOL0     C33524  -0.046   8.012   0.932  0.2125 -0.1702 -0.8012
  990MOL0     C33525  -0.169   8.070   0.851  0.6960  0.0434  0.3406
  990MOL0     C33526  -0.312   8.044   0.913 -0.0399 -1.0431  0.5626
  990MOL0     C33527  -0.342   7.901   0.942  0.1832  0.0126 -0.1240
  990MOL0     C33528  -0.476   7.882   1.016 -0.0136  0.2743  0.8050
  990MOL0     C33529  -0.497   7.950   1.154 -0.8090  0.4455 -0.1041
  990MOL0     C33530  -0.641   8.005   1.167 -0.1569  0.8528 -0.1645
  990MOL0     C33531  -0.691   7.978   1.313  1.0790  0.6794  1.0569
  990MOL0     N33532  -0.695   7.836   1.356 -0.7428 -0.8026 -0.4205
  990MOL0     C33533  -0.773   7.736   1.296  0.1827 -0.4860 -0.6245
  990MOL0     C33534  -0.769   7.630   1.377 -0.4527 -0.2997  0.3713
  990MOL0     C33535  -0.819   7.491   1.361 -0.7786 -0.0846  0.4622
  990MOL0     C33536  -0.970   7.470   1.369 -0.5903 -0.7772 -1.2487
  990MOL0     C33537  -1.033   7.350   1.304  0.3168  0.2031 -0.4203
  990MOL0     C33538  -1.005   7.334   1.150 -0.4640 -0.0032 -0.7914
  990MOL0     O33539  -0.882   7.267   1.118 -0.1145 -0.5279  0.1038
  990MOL0     C33540  -0.865   7.140   1.156 -0.4831  0.1193 -0.1122
  990MOL0     C33541  -0.746   7.108   1.231 -0.0572  0.1341 -0.1783
  990MOL0     C33542  -0.719   6.988   1.294 -0.1915  0.1460  0.1169
  990MOL0     C33543  -0.824   6.892   1.286  1.0786 -0.2399  0.3734
  990MOL0     C33544  -0.803   6.755   1.331 -1.0162 -0.1248 -0.2694
  990MOL0     O33545  -0.678   6.725   1.377 -0.2460 -0.6640  0.0289
  990MOL0     C33546  -0.662   6.589   1.415  1.2076 -0.1914  0.3415
  990MOL0     C33547  -0.637   6.542   1.543 -0.2980  0.6887 -0.6157
  990MOL0     C33548  -0.639   6.403   1.576  0.3990  0.6280 -0.7326
  990MOL0     C33549  -0.652   6.309   1.474  1.1562  0.4391 -1.1855
  990MOL0     O33550  -0.641   6.171   1.502  0.1472 -0.4481  0.5738
  990MOL0     C33551  -0.579   6.070   1.426 -1.1345  1.2990  0.2572
  990MOL0     C33552  -0.438   6.122   1.378 -0.6344  0.9020 -0.5907
  990MOL0     C33553  -0.329   6.113   1.492  0.1091  0.4719  0.8338
  990MOL0     C33554  -0.197   6.184   1.471  0.8889 -0.6479  0.7205
  990MOL0     C33555  -0.086   6.125   1.555 -0.1402 -0.3259  0.6372
  990MOL0     C33556   0.050   6.184   1.511 -0.5251  0.0816 -0.2125
  990MOL0     C33557   0.171   6.122   1.593  0.1882  0.8515 -0.4096
  990MOL0     C33558   0.303   6.194   1.544 -0.1397  0.5402 -0.1019
  990MOL0    Cl33559   0.334   6.177   1.373  0.2132 -0.2620 -0.0949
  990MOL0     C33560  -0.659   6.357   1.343 -0.7081 -0.9466 -0.1976
  990MOL0     C33561  -0.667   6.498   1.312  0.1306  0.3919  0.0446
  990MOL0     O33562  -0.896   6.676   1.315 -0.4372 -0.3635  0.2704
  990MOL0     C33563  -0.945   6.920   1.215 -0.0789  0.2532  0.5781
  990MOL0     C33564  -0.966   7.038   1.151  0.5050  0.1723 -0.1497
  990MOL0     N33565  -0.701   7.665   1.493 -0.2194 -0.3320  0.5136
  990MOL0     N33566  -0.651   7.783   1.484  0.7692 -0.1462  0.7584
  990MOL0     C33567   0.194   7.902   1.018  0.4034  0.2923 -0.3509
  990MOL0     C33568   0.314   7.847   1.059 -1.2111  0.2530 -0.4711
  990MOL0     C33569   0.737   7.676   1.048 -0.5902 -0.0659  0.2431
  990MOL0     C33570   0.767   7.635   1.178  1.3980 -0.2873 -0.5400
  990MOL0     C33571   0.869   7.554   1.214 -0.0848  0.0529  0.3511
  990MOL0     C33572   0.968   7.504   1.122  0.0833  0.0355 -0.0266
  990MOL0     O33573   1.068   7.417   1.159 -0.0417 -0.0852 -0.1388
  990MOL0     C33574   1.084   7.354   1.289  0.7880 -0.1980  0.3321
  990MOL0     C33575   0.993   7.234   1.286  0.7885  0.2723 -0.5666
  990MOL0     C33576   1.063   7.120   1.196 -0.5659  0.2985  0.1507
  990MOL0     C33577   0.957   7.011   1.188 -0.2959 -0.1323 -0.2915
  990MOL0     C33578   1.030   6.888   1.172 -0.7097  0.6913  0.8973
  990MOL0     C33579   1.119   6.805   1.159  1.2178 -0.0563  0.2253
  990MOL0     C33580   0.941   7.544   0.988 -0.2142 -0.1513 -0.1115
  990MOL0     C33581   0.829   7.631   0.947  0.8246  0.6760  0.1113
  990MOL0     C33582   0.806   7.642   0.795  0.7617 -0.6535  0.4266
  990MOL0     H33583   0.526   8.041   0.890  1.1852  1.6234  1.6260
  990MOL0     H33584   0.321   8.110   0.785 -2.6652 -0.4858 -0.9299
  990MOL0     H33585  -0.039   7.904   0.912  0.1648 -0.0346 -1.5824
  990MOL0     H33586  -0.027   8.030   1.038  0.7448 -2.1911 -0.5097
  990MOL0     H33587  -0.158   8.035   0.748 -3.5829  0.9494 -0.6444
  990MOL0     H33588  -0.171   8.180   0.848 -0.2916  0.3126  4.6165
  990MOL0     H33589  -0.392   8.079   0.846 -0.4006 -0.5607  1.2356
  990MOL0     H33590  -0.320   8.098   1.008  0.0751 -1.3493  0.7460
  990MOL0     H33591  -0.335   7.837   0.854  1.9517  2.4833 -1.9385
  990MOL0     H33592  -0.258   7.869   1.004  1.0814  2.3927  0.0216
  990MOL0     H33593  -0.548   7.922   0.944  0.6150  0.2922  0.1715
  990MOL0     H33594  -0.492   7.775   1.031 -1.4027  0.3852  0.2676
  990MOL0     H33595  -0.491   7.871   1.229 -0.2810  0.6127  0.0287
  990MOL0     H33596  -0.420   8.024   1.176  1.0691 -1.0869 -1.2497
  990MOL0     H33597  -0.707   7.964   1.090 -0.2519  2.4158 -0.9475
  990MOL0     H33598  -0.639   8.113   1.150 -0.1564  0.7873 -0.5898
  990MOL0     H33599  -0.642   8.043   1.386 -0.6816  0.6649  2.3509
  990MOL0     H33600  -0.795   8.011   1.302 -0.2195 -1.6952  4.5024
  990MOL0     H33601  -0.828   7.751   1.204 -0.0293  5.0405  0.0974
  990MOL0     H33602  -0.797   7.460   1.259 -1.5040  1.0929 -0.0703
  990MOL0     H33603  -0.766   7.423   1.428  3.8116 -0.4448 -3.0569
  990MOL0     H33604  -0.989   7.463   1.476 -2.2672  1.7476 -1.2954
  990MOL0     H33605  -1.017   7.566   1.345 -1.9291 -0.0052  3.4690
  990MOL0     H33606  -1.141   7.362   1.316  0.2391  1.1973 -1.8620
  990MOL0     H33607  -1.000   7.253   1.342  1.0507 -0.9078 -3.6020
  990MOL0     H33608  -0.999   7.436   1.111 -0.9886  2.6238  4.9470
  990MOL0     H33609  -1.095   7.289   1.105  0.2415 -4.5593  1.6832
  990MOL0     H33610  -0.679   7.191   1.251  0.3059 -0.1589 -0.1741
  990MOL0     H33611  -0.631   6.968   1.354 -0.9780 -1.0778  0.9185
  990MOL0     H33612  -0.626   6.614   1.624  3.2003 -1.0078  0.6012
  990MOL0     H33613  -0.630   6.368   1.678  2.0995  1.5878 -0.5098
  990MOL0     H33614  -0.568   5.982   1.490  0.2723  1.6170  0.4760
  990MOL0     H33615  -0.625   6.038   1.332  1.1129 -1.3141 -0.0987
  990MOL0     H33616  -0.412   6.062   1.290 -0.9274 -0.4333  0.2003
  990MOL0     H33617  -0.436   6.224   1.338  1.4844  0.9544 -0.4516
  990MOL0     H33618  -0.379   6.148   1.583 -0.4552 -1.1913  1.1960
  990MOL0     H33619  -0.310   6.008   1.513  0.3398  0.7934  2.3247
  990MOL0     H33620  -0.210   6.292   1.474 -3.9147 -0.9649 -0.9888
  990MOL0     H33621  -0.185   6.163   1.364 -3.2554 -2.5558  0.4583
  990MOL0     H33622  -0.090   6.017   1.541 -2.8983 -0.6748  3.0437
  990MOL0     H33623  -0.102   6.131   1.663 -1.1885 -0.9046  0.5353
  990MOL0     H33624   0.069   6.167   1.404 -2.7976 -3.5503 -0.2230
  990MOL0     H33625   0.049   6.291   1.530  0.7992  0.0025  0.3911
  990MOL0     H33626   0.176   6.013   1.587 -2.1222  0.6936 -0.3338
  990MOL0     H33627   0.159   6.153   1.697 -0.6177 -2.0953  0.4972
  990MOL0     H33628   0.291   6.301   1.567  3.6816  1.2380 -0.6812
  990MOL0     H33629   0.386   6.160   1.606  0.0161 -0.6962 -0.9635
  990MOL0     H33630  -0.665   6.290   1.258  1.1494 -2.5750  0.8667
  990MOL0     H33631  -0.695   6.524   1.211 -3.0688 -2.4475  0.0192
  990MOL0     H33632  -1.028   6.853   1.193 -0.8205  1.0906  0.7529
  990MOL0     H33633  -1.056   7.073   1.101  0.2383  4.0001  2.6690
  990MOL0     H33634   0.112   7.857   1.073  3.3697 -2.8785  1.9175
  990MOL0     H33635   0.306   7.774   1.139 -3.6658  1.5445  0.5548
  990MOL0     H33636   0.708   7.671   1.261  0.7510 -0.8042 -0.7671
  990MOL0     H33637   0.881   7.533   1.320  1.4519 -0.0137  0.1896
  990MOL0     H33638   1.070   7.441   1.353 -0.0617 -0.0142 -0.0866
  990MOL0     H33639   1.186   7.315   1.288  0.7945 -0.4551 -3.3581
  990MOL0     H33640   0.889   7.254   1.259 -0.8219 -1.8534  3.2691
  990MOL0     H33641   0.991   7.187   1.385  0.7498  0.2882 -0.5602
  990MOL0     H33642   1.157   7.084   1.239 -1.0689 -1.5368 -0.2203
  990MOL0     H33643   1.079   7.156   1.094  1.1545 -0.5841  0.0834
  990MOL0     H33644   0.890   6.996   1.273  0.2133  1.3803  0.4197
  990MOL0     H33645   0.896   7.023   1.098  0.0179 -0.2608 -0.5235
  990MOL0     H33646   1.196   6.733   1.142  1.2098 -0.5863  2.1625
  990MOL0     H33647   1.021   7.522   0.918 -0.1316 -1.3195  0.3354
  990MOL0     H33648   0.882   7.712   0.759 -0.5313  0.7330  0.3510
  990MOL0     H33649   0.823   7.540   0.757  0.3577 -1.9774  3.5157
  990MOL0     H33650   0.706   7.664   0.759 -0.1294 -1.8931  2.0064
  991MOL0     O33651   1.612   5.314   4.093 -0.7220  0.7632 -0.0836
  991MOL0     C33652   1.543   5.217   4.092  0.5918  1.0109 -0.5780
  991MOL0     O33653   1.560   5.105   4.179  0.1308  0.1074  0.7202
  991MOL0     C33654   1.690   5.082   4.213 -0.3943  0.3908  0.4688
  991MOL0     C33655   1.759   5.166   4.304 -0.0933  0.8383  1.1540
  991MOL0     C33656   1.899   5.170   4.309  0.3825 -0.6251  0.0276
  991MOL0     C33657   1.970   5.073   4.233 -0.8993 -0.5557  0.1441
  991MOL0     O33658   2.104   5.068   4.236 -0.0232 -0.0907 -0.3097
  991MOL0     C33659   2.145   4.992   4.352  0.4579 -0.0460 -1.3682
  991MOL0     C33660   2.300   4.973   4.365 -0.1019 -0.1195  0.0889
  991MOL0     C33661   2.342   4.846   4.291 -0.3572  0.6901  0.1879
  991MOL0     C33662   2.411   4.874   4.155  0.8487  0.2834 -1.0080
  991MOL0     C33663   2.432   4.739   4.088 -0.3907 -0.1515  1.2367
  991MOL0     C33664   2.528   4.754   3.964  0.6880 -1.2331  0.6149
  991MOL0     C33665   2.683   4.790   3.991  1.0581 -0.8232 -0.0517
  991MOL0     C33666   2.746   4.829   3.852  0.3400  0.0628 -0.0445
  991MOL0     N33667   2.889   4.841   3.868  0.1547  0.3579  0.3105
  991MOL0     C33668   2.962   4.953   3.872 -0.1710 -0.1508 -0.0714
  991MOL0     C33669   3.085   4.924   3.918  0.8649 -0.0990  0.2237
  991MOL0     C33670   3.198   5.018   3.926 -0.3155  0.0265 -0.3197
  991MOL0     C33671   3.215   5.081   4.067 -0.5781  0.3710  0.2665
  991MOL0     C33672   3.319   5.191   4.072  0.5218 -0.4918 -0.4415
  991MOL0     C33673   3.460   5.163   4.038 -0.0470  0.0244 -0.4118
  991MOL0     O33674   3.483   5.176   3.896 -1.0226  0.0620  0.0721
  991MOL0     C33675   3.554   5.083   3.825 -0.3093 -0.7542  0.2402
  991MOL0     C33676   3.514   5.038   3.699  0.5879 -0.9551 -0.8527
  991MOL0     C33677   3.598   4.941   3.647  0.7628  0.0822  0.1625
  991MOL0     C33678   3.717   4.894   3.707  0.0406  0.1521  0.6112
  991MOL0     C33679   3.810   4.792   3.643  0.6434  0.1314  0.3476
  991MOL0     O33680   3.770   4.753   3.513 -0.1950  0.5779 -0.1267
  991MOL0     C33681   3.834   4.651   3.455 -1.5759  0.3456 -1.0464
  991MOL0     C33682   3.971   4.659   3.423  0.1861  0.1219 -0.4019
  991MOL0     C33683   4.041   4.553   3.354  0.3319 -0.1703 -0.2851
  991MOL0     C33684   3.980   4.436   3.317 -0.7745 -0.1268 -0.4846
  991MOL0     O33685   4.051   4.329   3.253 -0.0904  0.5059  0.2915
  991MOL0     C33686   4.189   4.328   3.233 -0.6987  0.1856 -0.5263
  991MOL0     C33687   4.226   4.192   3.171  0.1008 -1.0417  0.2614
  991MOL0     C33688   4.211   4.066   3.262 -0.0604  0.4465  0.5472
  991MOL0     C33689   4.244   3.936   3.195  0.4807  0.1751 -0.5193
  991MOL0     C33690   4.191   3.820   3.278  0.4958  0.6810 -0.5061
  991MOL0     C33691   4.215   3.681   3.213  0.6284 -0.6791 -0.6056
  991MOL0     C33692   4.217   3.560   3.308 -0.5095 -0.7695  0.2492
  991MOL0     C33693   4.210   3.431   3.224 -0.0591  0.6602  0.2739
  991MOL0    Cl33694   4.355   3.328   3.223  0.2810  0.2961  0.5290
  991MOL0     C33695   3.839   4.429   3.351 -0.3003  0.8230  0.0223
  991MOL0     C33696   3.771   4.536   3.418  0.1082  0.0360 -0.1889
  991MOL0     O33697   3.905   4.742   3.701 -1.2396  0.3551 -0.2910
  991MOL0     C33698   3.753   4.944   3.829 -0.8025  0.2062 -0.8069
  991MOL0     C33699   3.673   5.032   3.895  0.2449 -0.4291  0.6499
  991MOL0     N33700   3.084   4.789   3.948  0.0266  0.2481 -1.0271
  991MOL0     N33701   2.968   4.749   3.920  0.8447  0.1050 -0.9910
  991MOL0     C33702   1.895   4.980   4.154 -0.6460 -0.3844 -0.4338
  991MOL0     C33703   1.759   4.973   4.149  0.2360 -0.5178  0.7125
  991MOL0     C33704   1.427   5.197   4.009 -0.6209 -0.3026  0.3516
  991MOL0     C33705   1.339   5.090   4.023 -1.5047  0.9780  0.1775
  991MOL0     C33706   1.237   5.058   3.936  0.4956 -0.5471  1.2574
  991MOL0     C33707   1.204   5.143   3.829  0.7617 -0.2483 -0.8560
  991MOL0     O33708   1.094   5.134   3.751 -0.1485 -0.2933  0.5106
  991MOL0     C33709   0.970   5.098   3.812 -0.7820  0.3530  0.4385
  991MOL0     C33710   0.902   5.210   3.889  0.3402 -0.3911 -0.6933
  991MOL0     C33711   0.745   5.220   3.869 -0.4488  0.7369 -0.2154
  991MOL0     C33712   0.687   5.343   3.929 -0.9851 -0.8082 -0.1108
  991MOL0     C33713   0.542   5.326   3.944 -0.2286  0.0444 -0.7450
  991MOL0     C33714   0.422   5.315   3.965  0.2206  0.5922 -0.9524
  991MOL0     C33715   1.298   5.244   3.801  0.1275  0.1708 -0.4651
  991MOL0     C33716   1.410   5.272   3.893  0.6459  1.2413  0.9467
  991MOL0     C33717   1.488   5.383   3.846  0.1949 -0.2559 -0.0684
  991MOL0     H33718   1.699   5.246   4.346 -1.2267  2.1066 -2.5086
  991MOL0     H33719   1.955   5.230   4.380  3.6890 -3.2398 -0.1414
  991MOL0     H33720   2.114   5.048   4.441  3.6166 -1.5753  0.9084
  991MOL0     H33721   2.097   4.895   4.371 -1.8765  1.8632  5.4868
  991MOL0     H33722   2.326   4.972   4.471  0.5145  0.9878 -0.0316
  991MOL0     H33723   2.350   5.068   4.344 -0.6964  0.6174  1.8345
  991MOL0     H33724   2.255   4.779   4.287 -0.6299  1.0548 -0.0564
  991MOL0     H33725   2.420   4.811   4.359  0.3738  1.8367 -0.0415
  991MOL0     H33726   2.352   4.946   4.097  1.4617  1.6954  0.0537
  991MOL0     H33727   2.500   4.926   4.192 -1.3201  3.7261 -0.0759
  991MOL0     H33728   2.482   4.667   4.153 -1.1863  0.8474  2.9947
  991MOL0     H33729   2.337   4.703   4.048 -0.3038 -0.2758  1.1377
  991MOL0     H33730   2.530   4.664   3.903  4.0516 -1.9188  1.5466
  991MOL0     H33731   2.489   4.842   3.912  0.5533  1.4408  4.7367
  991MOL0     H33732   2.710   4.696   4.039 -0.1342 -2.1909 -1.8836
  991MOL0     H33733   2.697   4.867   4.067 -0.0204 -1.9708  1.3741
  991MOL0     H33734   2.721   4.748   3.783 -0.5461  0.6324 -0.4198
  991MOL0     H33735   2.717   4.926   3.809  2.1377  0.7678  0.2582
  991MOL0     H33736   2.932   5.048   3.829  1.2120 -0.8189 -2.7247
  991MOL0     H33737   3.294   4.969   3.907 -1.6042 -2.0695 -1.9997
  991MOL0     H33738   3.193   5.099   3.852 -1.1916  0.0829 -0.2119
  991MOL0     H33739   3.117   5.102   4.109 -1.7505 -1.8786 -1.1386
  991MOL0     H33740   3.257   5.010   4.139 -0.8993  2.1783  2.3099
  991MOL0     H33741   3.316   5.236   4.172  2.2501  0.7712 -0.9128
  991MOL0     H33742   3.283   5.266   4.000  0.4914  0.0282  0.1002
  991MOL0     H33743   3.479   5.060   4.067 -1.7792 -0.7332 -1.7880
  991MOL0     H33744   3.522   5.234   4.093 -0.6868  1.1423 -1.0892
  991MOL0     H33745   3.425   5.080   3.654 -1.4432 -1.6543  2.1653
  991MOL0     H33746   3.570   4.895   3.553  1.3958  1.6086 -0.7988
  991MOL0     H33747   4.027   4.751   3.437 -0.7679  0.9211 -1.6517
  991MOL0     H33748   4.147   4.567   3.338  0.6377 -0.7067  1.1442
  991MOL0     H33749   4.210   4.409   3.162  3.6217  1.0687  1.4342
  991MOL0     H33750   4.248   4.346   3.323  0.4212  1.5022 -1.4753
  991MOL0     H33751   4.166   4.180   3.080  0.1748 -0.0778  0.0738
  991MOL0     H33752   4.330   4.204   3.141  0.1976 -2.1283  0.1405
  991MOL0     H33753   4.277   4.070   3.349  1.7649 -1.7911 -0.6081
  991MOL0     H33754   4.112   4.045   3.304  1.5084 -4.4147  2.5915
  991MOL0     H33755   4.350   3.918   3.174 -0.2701 -3.3189 -2.1037
  991MOL0     H33756   4.203   3.931   3.093  1.2047 -1.5950 -0.7548
  991MOL0     H33757   4.085   3.823   3.304  0.4306 -4.3538  0.8501
  991MOL0     H33758   4.240   3.823   3.375 -1.1107  0.5534  0.3441
  991MOL0     H33759   4.137   3.680   3.136 -1.1980  0.1020  1.1238
  991MOL0     H33760   4.312   3.683   3.164  0.1046  3.5835 -1.8852
  991MOL0     H33761   4.125   3.563   3.367 -3.2539 -3.3027 -3.4403
  991MOL0     H33762   4.312   3.565   3.362 -0.4780 -2.4358  0.3985
  991MOL0     H33763   4.126   3.370   3.260  0.0842 -0.2006 -0.7706
  991MOL0     H33764   4.197   3.455   3.118  3.8987  0.5259 -0.4114
  991MOL0     H33765   3.781   4.341   3.326  2.7790 -1.7160  1.0967
  991MOL0     H33766   3.670   4.507   3.445  1.0243 -2.5616  0.7768
  991MOL0     H33767   3.845   4.918   3.881  0.4361  3.1919 -1.3174
  991MOL0     H33768   3.706   5.065   3.993  1.5944  0.7049 -0.1555
  991MOL0     H33769   1.952   4.909   4.094 -2.0382 -0.8209 -1.2823
  991MOL0     H33770   1.715   4.919   4.066 -1.6529  2.8003 -0.6620
  991MOL0     H33771   1.369   5.017   4.096 -3.9395 -0.5290 -0.2177
  991MOL0     H33772   1.164   4.980   3.954 -1.2312 -1.0048 -5.1365
  991MOL0     H33773   0.976   5.009   3.875  1.8238 -0.1502 -0.4353
  991MOL0     H33774   0.909   5.060   3.730  2.6874 -1.9490 -1.3001
  991MOL0     H33775   0.952   5.302   3.859 -0.0184 -0.2396 -0.8243
  991MOL0     H33776   0.929   5.197   3.994  0.7963 -3.2020 -1.0845
  991MOL0     H33777   0.693   5.136   3.918 -2.4581  1.4220 -1.0628
  991MOL0     H33778   0.721   5.214   3.763 -1.2478  1.7883 -0.1171
  991MOL0     H33779   0.746   5.366   4.018  2.2902 -3.8248 -1.2574
  991MOL0     H33780   0.695   5.421   3.853 -1.0702 -2.8495 -2.3626
  991MOL0     H33781   0.316   5.300   3.962  0.1603 -0.3561  2.1866
  991MOL0     H33782   1.283   5.302   3.710 -2.6560 -0.7270 -0.6692
  991MOL0     H33783   1.593   5.354   3.842 -0.4092 -2.7232  0.2895
  991MOL0     H33784   1.444   5.415   3.751 -0.8519 -4.5911 -1.2484
  991MOL0     H33785   1.484   5.464   3.920  1.6576 -1.0280  0.8990
  992MOL0     O33786   9.635   3.240   9.056 -0.0268 -0.3635 -0.1909
  992MOL0     C33787   9.591   3.128   9.030  0.6146  0.7035  0.5101
  992MOL0     O33788   9.637   3.052   8.929 -0.3512 -0.1879 -0.2015
  992MOL0     C33789   9.717   3.108   8.836  0.5482 -0.1581  0.1961
  992MOL0     C33790   9.846   3.148   8.860  0.1469 -0.6343 -0.2962
  992MOL0     C33791   9.913   3.235   8.768  0.3126 -0.4865  0.3733
  992MOL0     C33792   9.851   3.252   8.644  0.7964 -0.6997  0.5317
  992MOL0     O33793   9.920   3.299   8.538 -0.5845  0.6220  0.1166
  992MOL0     C33794  10.066   3.283   8.545 -0.6575  0.5228  0.8205
  992MOL0     C33795  10.123   3.283   8.404 -0.0170 -0.3351  0.5890
  992MOL0     C33796  10.102   3.418   8.333 -0.5598 -0.7022 -0.2830
  992MOL0     C33797  10.178   3.415   8.196  0.0070  0.7392 -1.9557
  992MOL0     C33798  10.149   3.541   8.122 -0.0439  0.2803 -0.3254
  992MOL0     C33799  10.029   3.527   8.023  0.6529 -0.5269 -0.0263
  992MOL0     C33800   9.970   3.669   8.000 -0.8400  0.8475  0.0690
  992MOL0     C33801   9.828   3.658   7.937  0.0984  0.1666  0.3389
  992MOL0     N33802   9.762   3.784   7.922  0.0682  0.3670  0.1390
  992MOL0     C33803   9.743   3.859   7.811  0.1703  1.0130  0.2003
  992MOL0     C33804   9.675   3.968   7.849 -0.1387  0.8624 -0.5187
  992MOL0     C33805   9.636   4.075   7.764  0.3273 -0.5136 -0.6244
  992MOL0     C33806   9.489   4.091   7.735  1.2046  1.5796 -1.2891
  992MOL0     C33807   9.416   4.121   7.868 -0.7800 -0.4311  0.9181
  992MOL0     C33808   9.281   4.190   7.834  0.5430 -1.0425  0.4030
  992MOL0     O33809   9.181   4.091   7.793  0.0821  0.0159  1.3579
  992MOL0     C33810   9.109   4.119   7.680  0.4722  0.7759 -0.4949
  992MOL0     C33811   8.994   4.038   7.669  0.6529 -0.7994  0.3157
  992MOL0     C33812   8.917   4.035   7.550  0.2583 -0.2547  0.1287
  992MOL0     C33813   8.938   4.125   7.444  0.4490 -0.3971 -0.3153
  992MOL0     C33814   8.841   4.136   7.331 -0.1209 -0.2230 -0.6495
  992MOL0     O33815   8.761   4.025   7.315  0.4633 -0.7325 -0.0683
  992MOL0     C33816   8.687   4.018   7.199 -0.3682  0.4216 -1.3659
  992MOL0     C33817   8.743   4.031   7.074  0.4445 -0.0335  0.2459
  992MOL0     C33818   8.669   4.028   6.960  0.4658 -0.1084  0.2857
  992MOL0     C33819   8.528   4.013   6.965  0.8212 -0.4585 -0.0714
  992MOL0     O33820   8.435   4.034   6.873  0.1765  0.5135 -0.3510
  992MOL0     C33821   8.474   4.030   6.737 -0.2712  0.7552 -1.0110
  992MOL0     C33822   8.361   4.090   6.644 -1.2960 -0.1192  0.7323
  992MOL0     C33823   8.223   4.058   6.697  0.1401 -0.7768  0.4323
  992MOL0     C33824   8.127   4.167   6.640  0.6416 -0.0667  0.3304
  992MOL0     C33825   7.981   4.157   6.694  0.2155 -0.0898  0.3426
  992MOL0     C33826   7.908   4.283   6.672 -0.7330  0.5022  0.1486
  992MOL0     C33827   7.950   4.398   6.774  0.0999  0.4119  0.6150
  992MOL0     C33828   7.843   4.497   6.791 -0.3043  0.4983 -0.1644
  992MOL0    Cl33829   7.823   4.575   6.636 -0.2062 -0.1854  0.6961
  992MOL0     C33830   8.473   3.992   7.087 -0.5617  0.7054 -0.2275
  992MOL0     C33831   8.555   3.981   7.204  0.8159 -0.4531  0.5002
  992MOL0     O33832   8.832   4.235   7.258 -0.5051  0.5240 -0.3856
  992MOL0     C33833   9.055   4.203   7.458  0.1039  0.5120  0.2995
  992MOL0     C33834   9.138   4.199   7.569 -0.4157  0.4249  0.2520
  992MOL0     N33835   9.663   3.961   7.985 -0.1487 -0.8452  1.2027
  992MOL0     N33836   9.704   3.848   8.022 -0.8261 -0.5356  0.5503
  992MOL0     C33837   9.729   3.197   8.613  0.1946  0.9481 -0.5488
  992MOL0     C33838   9.662   3.124   8.712 -0.0914  0.2436  0.4436
  992MOL0     C33839   9.501   3.078   9.135 -0.3883  0.6822  0.3357
  992MOL0     C33840   9.443   3.176   9.219  0.1157  1.2581 -0.0827
  992MOL0     C33841   9.358   3.133   9.315  0.0462  0.2974 -0.6458
  992MOL0     C33842   9.325   2.993   9.334 -0.0088 -1.4898 -1.1775
  992MOL0     O33843   9.251   2.950   9.446 -0.1592 -0.1982 -0.3965
  992MOL0     C33844   9.133   3.019   9.468 -0.8979 -0.0504 -0.6718
  992MOL0     C33845   9.019   2.962   9.375 -0.0549 -0.1249  0.0366
  992MOL0     C33846   8.905   3.056   9.351  0.3014 -0.1125  0.1330
  992MOL0     C33847   8.818   3.048   9.473 -0.6783 -0.2729 -0.7456
  992MOL0     C33848   8.710   3.146   9.478 -1.0019 -0.6761  0.2685
  992MOL0     C33849   8.626   3.231   9.452 -0.4026  0.2625  0.7879
  992MOL0     C33850   9.392   2.894   9.261  0.1480 -0.2689  0.1162
  992MOL0     C33851   9.473   2.940   9.154 -0.2519 -0.5510  0.8523
  992MOL0     C33852   9.528   2.830   9.072  0.2360 -0.0097  1.1407
  992MOL0     H33853   9.896   3.122   8.952 -1.7106 -2.4418  0.2797
  992MOL0     H33854  10.005   3.291   8.783  0.3200  0.0399 -1.4191
  992MOL0     H33855  10.117   3.361   8.601 -0.5638 -0.3210  1.9430
  992MOL0     H33856  10.092   3.193   8.601 -1.7029  0.0871  0.6319
  992MOL0     H33857  10.068   3.208   8.345 -2.3556  1.5542  0.1897
  992MOL0     H33858  10.228   3.255   8.406 -0.5862 -2.6995  0.2555
  992MOL0     H33859  10.127   3.503   8.397 -0.3584 -2.2978  1.8741
  992MOL0     H33860   9.996   3.426   8.305 -0.4982 -0.6589 -0.5053
  992MOL0     H33861  10.284   3.400   8.220 -0.5909  0.6003  0.8905
  992MOL0     H33862  10.149   3.328   8.137  1.3672 -0.4295 -0.9884
  992MOL0     H33863  10.133   3.614   8.203 -0.5290  1.8722 -1.7868
  992MOL0     H33864  10.243   3.572   8.075  0.7225  1.3811  1.7966
  992MOL0     H33865  10.075   3.473   7.939  2.8697  2.3537 -0.8193
  992MOL0     H33866   9.947   3.464   8.058 -0.3746  0.7249 -0.1300
  992MOL0     H33867  10.039   3.728   7.939 -1.1058  1.1624  0.0746
  992MOL0     H33868   9.954   3.710   8.101  1.6871  0.7848  0.5741
  992MOL0     H33869   9.829   3.600   7.845 -0.7154 -1.2689  1.1872
  992MOL0     H33870   9.767   3.597   8.004 -1.4380  1.0157 -0.2267
  992MOL0     H33871   9.775   3.821   7.715 -0.9015 -5.0199  1.8595
  992MOL0     H33872   9.680   4.172   7.790 -2.0524  0.2032  1.0849
  992MOL0     H33873   9.682   4.054   7.668  0.6540 -0.9869 -0.3677
  992MOL0     H33874   9.463   4.168   7.662 -2.2942  1.7237 -0.0516
  992MOL0     H33875   9.466   3.989   7.705  0.8571  0.2072  2.9995
  992MOL0     H33876   9.486   4.186   7.921  1.5991 -0.6911 -1.6261
  992MOL0     H33877   9.384   4.036   7.928 -0.3952 -0.9521  0.3997
  992MOL0     H33878   9.292   4.273   7.763  1.3544 -1.7065 -0.2772
  992MOL0     H33879   9.238   4.242   7.920 -1.6951  2.2927 -2.4752
  992MOL0     H33880   8.951   3.970   7.741  0.3548 -1.1906 -0.2223
  992MOL0     H33881   8.832   3.968   7.553 -2.4734  2.8671 -1.3729
  992MOL0     H33882   8.846   4.059   7.059  0.4977 -0.2336  0.2297
  992MOL0     H33883   8.722   4.052   6.868  0.4558  0.2645  0.3732
  992MOL0     H33884   8.569   4.078   6.712  0.4101 -0.0148  0.0120
  992MOL0     H33885   8.479   3.925   6.707 -4.6084 -1.1504  3.5312
  992MOL0     H33886   8.371   4.198   6.640 -0.0525 -0.2429 -0.7782
  992MOL0     H33887   8.371   4.055   6.540 -0.6143  2.2130 -0.0501
  992MOL0     H33888   8.188   3.961   6.662 -3.7505  1.1539 -1.7638
  992MOL0     H33889   8.223   4.060   6.806  1.5894  2.6912  0.5076
  992MOL0     H33890   8.123   4.151   6.532 -2.9405 -0.5668  0.4079
  992MOL0     H33891   8.151   4.273   6.656  0.0267  0.2226 -0.5724
  992MOL0     H33892   7.969   4.122   6.798 -2.3301  2.5540  1.0863
  992MOL0     H33893   7.926   4.079   6.641 -0.4606 -0.8008  2.0013
  992MOL0     H33894   7.930   4.309   6.568  0.3625 -3.2658 -0.6927
  992MOL0     H33895   7.800   4.269   6.683 -0.3193 -2.5096  1.1151
  992MOL0     H33896   8.045   4.448   6.751 -0.5690  1.7904  0.7578
  992MOL0     H33897   7.972   4.358   6.874  2.5683 -0.5397 -0.2223
  992MOL0     H33898   7.751   4.448   6.825 -0.9802 -0.1502 -2.6927
  992MOL0     H33899   7.878   4.574   6.860 -0.0314  0.6656 -0.4858
  992MOL0     H33900   8.367   3.967   7.085 -0.2873 -0.7855 -3.4363
  992MOL0     H33901   8.504   3.980   7.300  2.4074  1.5069  1.4501
  992MOL0     H33902   9.089   4.266   7.378  0.0165 -0.3290 -0.4200
  992MOL0     H33903   9.220   4.269   7.575 -1.5927  1.8504  0.2053
  992MOL0     H33904   9.695   3.199   8.510  0.8778 -1.6343 -0.8987
  992MOL0     H33905   9.579   3.062   8.682  0.5121  0.0911 -0.9648
  992MOL0     H33906   9.460   3.283   9.211 -0.7798  1.3670 -0.6300
  992MOL0     H33907   9.311   3.210   9.375 -2.9061 -1.9511  0.1291
  992MOL0     H33908   9.148   3.126   9.452 -0.2349 -0.1420 -0.7149
  992MOL0     H33909   9.111   3.007   9.574  0.8561 -1.6515 -0.4175
  992MOL0     H33910   8.986   2.866   9.416  0.0777  0.8315  2.5540
  992MOL0     H33911   9.066   2.940   9.279 -2.4127  1.7237 -1.6670
  992MOL0     H33912   8.846   3.027   9.263 -3.0953 -0.7977  2.4528
  992MOL0     H33913   8.937   3.159   9.334  0.8937 -0.5783 -1.8281
  992MOL0     H33914   8.774   2.948   9.478  0.3932 -0.7503 -0.5659
  992MOL0     H33915   8.887   3.050   9.558 -0.9804 -0.2285 -0.5008
  992MOL0     H33916   8.570   3.318   9.422  1.1946  0.7666 -0.9680
  992MOL0     H33917   9.396   2.790   9.294  0.7499 -0.9846 -2.0290
  992MOL0     H33918   9.531   2.730   9.117  1.7669 -1.0568 -1.0738
  992MOL0     H33919   9.470   2.835   8.979  1.4921  2.5624  0.4152
  992MOL0     H33920   9.631   2.852   9.041 -0.2569  2.2548  0.9725
  993MOL0     O33921   7.331   3.821  10.004  0.5287 -0.2003  0.0254
  993MOL0     C33922   7.289   3.898  10.094  0.5283  1.2657  1.0339
  993MOL0     O33923   7.341   3.907  10.215  0.5549  0.3396 -0.7862
  993MOL0     C33924   7.446   3.828  10.251  0.5070 -0.5094  1.4189
  993MOL0     C33925   7.572   3.887  10.248  0.2797  0.2106 -0.2079
  993MOL0     C33926   7.687   3.812  10.279 -0.4387  0.0576 -0.7443
  993MOL0     C33927   7.670   3.672  10.310 -0.3649 -0.3320 -0.7997
  993MOL0     O33928   7.773   3.606  10.342 -0.2773  0.8578 -0.8921
  993MOL0     C33929   7.791   3.461  10.292  0.0084  0.5009 -0.0729
  993MOL0     C33930   7.935   3.417  10.310  0.0487 -0.3646 -0.5432
  993MOL0     C33931   7.960   3.375  10.454 -1.0423  0.1316  0.7414
  993MOL0     C33932   8.093   3.303  10.464 -1.0229 -0.4764  0.1136
  993MOL0     C33933   8.102   3.248  10.611 -0.9925 -0.2625  0.0281
  993MOL0     C33934   8.210   3.135  10.607 -0.5563 -0.5221  0.3752
  993MOL0     C33935   8.224   3.072  10.745 -0.0197  0.8685  0.5430
  993MOL0     C33936   8.232   2.916  10.734  0.1164  0.7086 -0.0507
  993MOL0     N33937   8.092   2.880  10.748 -0.0540  0.0203  0.5390
  993MOL0     C33938   7.988   2.895  10.658 -0.2975  1.5153 -0.0790
  993MOL0     C33939   7.880   2.825  10.712 -0.1394 -0.3025 -0.0116
  993MOL0     C33940   7.739   2.810  10.653  0.5699  0.4736  0.4813
  993MOL0     C33941   7.639   2.880  10.734 -0.8847  0.2913  0.0268
  993MOL0     C33942   7.625   3.021  10.684 -0.0280 -0.9453  1.1153
  993MOL0     C33943   7.517   3.111  10.753  0.6008 -0.2462  0.2393
  993MOL0     O33944   7.519   3.094  10.898 -0.1089 -0.0577  0.2621
  993MOL0     C33945   7.439   3.188  10.965 -0.0056  0.7451 -0.4676
  993MOL0     C33946   7.479   3.236  11.088 -0.4353  0.3658 -0.2793
  993MOL0     C33947   7.410   3.333  11.162  0.9260  0.2799 -1.0003
  993MOL0     C33948   7.293   3.391  11.113  0.2458  1.1364 -1.3261
  993MOL0     C33949   7.221   3.492  11.187  0.8761  0.9232 -0.2258
  993MOL0     O33950   7.268   3.526  11.313  0.5655 -0.0911 -0.7544
  993MOL0     C33951   7.216   3.620  11.406 -0.9724 -0.2363  0.5027
  993MOL0     C33952   7.121   3.716  11.383  2.0708 -1.3487  0.3487
  993MOL0     C33953   7.066   3.817  11.468 -0.4100  0.5809  0.3964
  993MOL0     C33954   7.131   3.830  11.593  0.1504 -0.4571  0.1634
  993MOL0     O33955   7.078   3.942  11.674  0.1374  0.5605  0.0650
  993MOL0     C33956   7.146   3.954  11.804  0.6282 -0.8346 -0.1266
  993MOL0     C33957   7.103   4.073  11.886  0.3668 -0.0561  0.0470
  993MOL0     C33958   6.953   4.059  11.922 -0.9414 -0.1785 -0.1110
  993MOL0     C33959   6.917   4.170  12.025  0.3162  0.1924 -0.2348
  993MOL0     C33960   6.763   4.193  12.037 -0.1327  0.2264  0.1917
  993MOL0     C33961   6.716   4.269  12.159 -0.4613 -0.2885 -0.8019
  993MOL0     C33962   6.567   4.273  12.176  0.1858 -0.7384  0.3784
  993MOL0     C33963   6.480   4.324  12.061  0.1033  0.4702 -0.2360
  993MOL0    Cl33964   6.525   4.501  12.038 -0.2324 -0.2370 -0.2847
  993MOL0     C33965   7.235   3.731  11.621 -0.4260  0.6021 -0.3463
  993MOL0     C33966   7.280   3.629  11.532 -0.1357  0.4747  0.7580
  993MOL0     O33967   7.109   3.528  11.131  0.1296 -0.5206  0.1034
  993MOL0     C33968   7.239   3.335  10.991  1.1980  0.5764 -0.8940
  993MOL0     C33969   7.305   3.231  10.929  0.1829  0.6318  0.4586
  993MOL0     N33970   7.924   2.771  10.828 -0.6626 -0.0714 -0.3859
  993MOL0     N33971   8.045   2.820  10.861 -0.3015 -0.0714 -0.2976
  993MOL0     C33972   7.547   3.615  10.301 -0.5694 -0.3989 -0.5248
  993MOL0     C33973   7.437   3.691  10.267  0.5651  0.2195  0.3936
  993MOL0     C33974   7.167   3.968  10.059 -0.9182  0.7835  0.8429
  993MOL0     C33975   7.098   3.912   9.953  0.0951 -0.2627 -0.5544
  993MOL0     C33976   6.981   3.982   9.910 -0.1498  0.2369  0.5193
  993MOL0     C33977   6.926   4.091   9.972  0.3369 -0.0600 -0.4137
  993MOL0     O33978   6.812   4.166   9.930 -0.0673 -0.3062  0.9584
  993MOL0     C33979   6.770   4.169   9.796 -0.6881 -0.1885  0.6163
  993MOL0     C33980   6.663   4.066   9.764  0.2626 -0.3181  0.2020
  993MOL0     C33981   6.549   4.048   9.863 -0.2689 -0.0251 -0.9683
  993MOL0     C33982   6.474   3.925   9.822  0.9510 -0.5790 -0.4147
  993MOL0     C33983   6.334   3.924   9.869 -1.2385 -0.1376 -0.5305
  993MOL0     C33984   6.225   3.925   9.901 -0.9757  0.1894  0.2109
  993MOL0     C33985   7.006   4.151  10.073  0.8978 -0.0256  0.3476
  993MOL0     C33986   7.128   4.095  10.112 -0.3312  0.3546  0.1390
  993MOL0     C33987   7.209   4.177  10.215  0.3276 -0.5255  0.7402
  993MOL0     H33988   7.587   3.993  10.227 -0.8925  0.6706  1.1386
  993MOL0     H33989   7.789   3.850  10.284  0.1906 -1.3081 -2.4767
  993MOL0     H33990   7.725   3.393  10.347 -0.0744  1.2921  0.8427
  993MOL0     H33991   7.768   3.450  10.186 -2.0695  1.1614  0.2449
  993MOL0     H33992   7.993   3.509  10.311  1.3448 -1.1534 -0.0550
  993MOL0     H33993   7.960   3.340  10.237 -0.7271 -0.4583 -0.7139
  993MOL0     H33994   7.878   3.308  10.480 -1.0043 -0.2588 -0.0958
  993MOL0     H33995   7.966   3.455  10.528  0.0929 -2.2816  3.4187
  993MOL0     H33996   8.099   3.233  10.381 -1.0023  1.5530 -1.6917
  993MOL0     H33997   8.183   3.365  10.454 -0.3396 -1.0151  2.2543
  993MOL0     H33998   8.128   3.327  10.682 -0.1488  1.4457 -2.0779
  993MOL0     H33999   8.002   3.210  10.636 -1.1699  0.4309  0.3851
  993MOL0     H34000   8.173   3.059  10.538 -0.4094 -0.2911  0.0425
  993MOL0     H34001   8.303   3.167  10.560 -0.4225 -2.2275 -0.6271
  993MOL0     H34002   8.145   3.097  10.816  0.1212 -1.0453  1.4266
  993MOL0     H34003   8.319   3.098  10.792  2.1516 -0.7560 -2.5334
  993MOL0     H34004   8.272   2.889  10.635 -2.8404 -1.4619 -0.7955
  993MOL0     H34005   8.283   2.863  10.815 -2.1412 -2.9628 -0.8078
  993MOL0     H34006   7.994   2.930  10.556  0.1093 -2.6096 -1.6764
  993MOL0     H34007   7.735   2.830  10.546 -1.1204  1.1680  0.6371
  993MOL0     H34008   7.734   2.702  10.671  1.0536  0.3210 -0.2830
  993MOL0     H34009   7.541   2.832  10.730 -0.3761 -0.8206  0.4454
  993MOL0     H34010   7.664   2.880  10.841 -2.9823 -0.7942  0.5519
  993MOL0     H34011   7.584   3.003  10.584  1.3528 -1.0950  0.5552
  993MOL0     H34012   7.718   3.078  10.677  0.0515 -1.2163 -0.2856
  993MOL0     H34013   7.418   3.069  10.732  1.1661 -1.1643 -0.7192
  993MOL0     H34014   7.517   3.215  10.718 -2.7651 -1.7237 -5.5047
  993MOL0     H34015   7.570   3.188  11.121 -0.4913  1.0204  0.8741
  993MOL0     H34016   7.441   3.361  11.263 -0.0009 -0.8504 -0.3798
  993MOL0     H34017   7.082   3.721  11.281  0.5478 -1.3501  0.9081
  993MOL0     H34018   6.992   3.893  11.444 -0.2184  0.8732  0.7287
  993MOL0     H34019   7.143   3.859  11.858 -0.8428 -0.9155 -0.3149
  993MOL0     H34020   7.253   3.969  11.791  0.4608  2.7731  1.5390
  993MOL0     H34021   7.167   4.074  11.975  0.8793  1.7252 -0.2964
  993MOL0     H34022   7.118   4.161  11.823 -0.0499 -0.1807 -0.2292
  993MOL0     H34023   6.887   4.060  11.835  2.9926  0.0226 -3.3786
  993MOL0     H34024   6.945   3.962  11.971 -3.2179  0.7529  1.5674
  993MOL0     H34025   6.981   4.258  12.019  1.1109 -0.2049  1.7121
  993MOL0     H34026   6.936   4.140  12.129  0.1361 -0.2123 -0.3152
  993MOL0     H34027   6.709   4.098  12.034 -1.2837  0.8627 -0.3106
  993MOL0     H34028   6.721   4.236  11.946  2.4446 -1.2585 -1.8198
  993MOL0     H34029   6.754   4.213  12.245  0.5555  1.4515 -0.0919
  993MOL0     H34030   6.753   4.371  12.165  0.8288 -0.7353 -0.8270
  993MOL0     H34031   6.542   4.342  12.257  0.0442 -1.1146  0.6599
  993MOL0     H34032   6.525   4.178  12.211 -3.1676 -0.1726 -1.7138
  993MOL0     H34033   6.502   4.264  11.973 -0.1220 -1.2317  0.8197
  993MOL0     H34034   6.375   4.307  12.087  1.0307 -3.5826  1.7147
  993MOL0     H34035   7.283   3.742  11.717 -2.9932 -0.9150  1.2157
  993MOL0     H34036   7.358   3.562  11.565 -1.3321 -1.8596 -0.8139
  993MOL0     H34037   7.153   3.369  10.933 -0.9991 -1.7764  0.7570
  993MOL0     H34038   7.253   3.195  10.841  1.2962 -1.7991  0.6883
  993MOL0     H34039   7.529   3.511  10.326  0.2935 -0.1734  1.2026
  993MOL0     H34040   7.341   3.643  10.251  0.6577  0.2275 -0.2160
  993MOL0     H34041   7.119   3.815   9.911 -0.3465 -0.8519  0.5580
  993MOL0     H34042   6.926   3.941   9.826 -1.2711  0.4602  1.1182
  993MOL0     H34043   6.853   4.165   9.725  0.1150  2.8311  1.2261
  993MOL0     H34044   6.742   4.274   9.779 -0.5657 -0.5058 -1.7941
  993MOL0     H34045   6.705   3.964   9.764  0.0833 -0.4037 -0.8231
  993MOL0     H34046   6.631   4.082   9.661  1.9145 -1.0520 -0.4694
  993MOL0     H34047   6.484   4.136   9.859  0.1394  0.4429  1.3076
  993MOL0     H34048   6.589   4.028   9.962 -3.6885 -1.1562  0.3156
  993MOL0     H34049   6.482   3.913   9.714 -0.0055 -1.8254 -0.3740
  993MOL0     H34050   6.518   3.839   9.874  0.5145 -0.6243 -0.1158
  993MOL0     H34051   6.125   3.926   9.940 -0.3660  0.5410  1.8262
  993MOL0     H34052   6.977   4.252  10.100  0.5544 -0.0231 -0.0260
  993MOL0     H34053   7.309   4.140  10.236  1.9982  3.4984  0.7694
  993MOL0     H34054   7.208   4.282  10.187 -2.7806 -0.6852 -0.2112
  993MOL0     H34055   7.140   4.160  10.299  0.1581 -0.5162  0.6040
  994MOL0     O34056   5.957  10.956   6.616 -0.5010  0.0956  0.4774
  994MOL0     C34057   5.974  11.081   6.630 -0.8583  0.4827 -0.2846
  994MOL0     O34058   6.068  11.155   6.565  0.1778 -0.1515 -0.5854
  994MOL0     C34059   6.126  11.108   6.448 -0.5406 -0.3152  0.7044
  994MOL0     C34060   6.060  11.044   6.343 -0.4760  0.4691  0.3302
  994MOL0     C34061   6.130  11.019   6.221 -0.9148  0.0506 -0.3742
  994MOL0     C34062   6.248  11.092   6.204 -1.0454  0.3483 -0.1838
  994MOL0     O34063   6.305  11.099   6.074 -0.2818 -0.5323 -0.2695
  994MOL0     C34064   6.219  11.101   5.959  0.4067  0.5572 -0.9042
  994MOL0     C34065   6.226  10.963   5.893 -0.0471 -0.7691  0.7202
  994MOL0     C34066   6.349  10.922   5.804 -0.6201  0.2765  0.3899
  994MOL0     C34067   6.320  10.816   5.695 -0.2307 -0.1476  0.3949
  994MOL0     C34068   6.436  10.817   5.596  0.5532 -0.1822 -1.0386
  994MOL0     C34069   6.389  10.770   5.463  1.0960  0.1536  0.6526
  994MOL0     C34070   6.491  10.809   5.356 -0.4520  0.0969 -0.9694
  994MOL0     C34071   6.467  10.754   5.217  0.2246  0.6727 -0.2042
  994MOL0     N34072   6.333  10.781   5.164 -0.3102 -0.4402  0.5095
  994MOL0     C34073   6.219  10.711   5.197 -0.9236  0.8742  0.3122
  994MOL0     C34074   6.141  10.718   5.087 -0.7979  0.5035  0.6338
  994MOL0     C34075   6.012  10.643   5.044 -0.3361  0.9003  0.7700
  994MOL0     C34076   6.013  10.579   4.909  0.2953 -0.4935 -0.5323
  994MOL0     C34077   5.884  10.499   4.874  0.1880  0.1964 -0.0012
  994MOL0     C34078   5.866  10.452   4.723  0.3980  0.4964 -0.9403
  994MOL0     O34079   5.789  10.326   4.715 -0.2267 -0.4447  0.0256
  994MOL0     C34080   5.860  10.203   4.729  0.6262 -0.3142  0.2513
  994MOL0     C34081   5.798  10.089   4.679  1.4166 -0.0705 -1.4723
  994MOL0     C34082   5.860   9.964   4.691  0.9945  0.2503 -0.2872
  994MOL0     C34083   5.993   9.951   4.738  1.3973  0.0907  0.1432
  994MOL0     C34084   6.070   9.828   4.733 -0.1103  0.3401 -0.4628
  994MOL0     O34085   5.991   9.719   4.737 -0.0613  0.2530  0.0766
  994MOL0     C34086   6.024   9.617   4.653  0.0137 -0.7091  0.2106
  994MOL0     C34087   6.011   9.639   4.514 -0.5873 -0.3810  0.6144
  994MOL0     C34088   6.053   9.537   4.422 -0.3404 -0.7274 -0.0224
  994MOL0     C34089   6.092   9.411   4.464  0.5305 -0.5446 -0.0924
  994MOL0     O34090   6.141   9.314   4.381  0.0837 -0.3502  0.1157
  994MOL0     C34091   6.053   9.285   4.268  0.4809  0.8111  0.1126
  994MOL0     C34092   6.142   9.273   4.140  0.3885  0.5542  0.6866
  994MOL0     C34093   6.150   9.129   4.092  0.0111  0.4515 -0.4676
  994MOL0     C34094   6.212   9.150   3.954  0.1058  0.8423  0.7031
  994MOL0     C34095   6.230   9.024   3.867  0.0597  0.5265 -0.1284
  994MOL0     C34096   6.311   9.057   3.738  0.7586 -0.1833  0.2310
  994MOL0     C34097   6.360   8.927   3.672 -0.3611 -0.4647 -1.3065
  994MOL0     C34098   6.430   8.954   3.540  0.2174  0.2732  0.2938
  994MOL0    Cl34099   6.603   8.885   3.514 -0.1594 -0.3649  0.0896
  994MOL0     C34100   6.103   9.394   4.601 -0.0728 -0.5911 -0.2278
  994MOL0     C34101   6.081   9.494   4.692  0.8531 -0.8449  0.6348
  994MOL0     O34102   6.187   9.837   4.706 -0.2351 -0.8707  0.4618
  994MOL0     C34103   6.052  10.065   4.786  0.6148 -0.7574 -0.8147
  994MOL0     C34104   5.994  10.186   4.778  0.7348  0.1639  0.3078
  994MOL0     N34105   6.223  10.793   4.992  0.4874 -0.0646  0.1608
  994MOL0     N34106   6.327  10.842   5.047  0.1115 -0.3291  0.0104
  994MOL0     C34107   6.310  11.163   6.296 -0.5808  0.3621  0.8461
  994MOL0     C34108   6.257  11.151   6.427  0.0933 -0.4085  0.0652
  994MOL0     C34109   5.948  11.130   6.769  0.6223  1.5006  0.5999
  994MOL0     C34110   5.969  11.050   6.883 -0.6996 -0.4248  1.0256
  994MOL0     C34111   5.955  11.101   7.012 -0.0078 -0.3373  0.1484
  994MOL0     C34112   5.914  11.233   7.032 -0.6238  0.6087 -0.5445
  994MOL0     O34113   5.914  11.310   7.142  0.0513 -0.0190  0.3880
  994MOL0     C34114   5.905  11.235   7.274  0.1021  0.2494  0.1284
  994MOL0     C34115   6.017  11.276   7.365  0.9166  0.1466 -0.0868
  994MOL0     C34116   6.160  11.244   7.316 -0.1217 -0.1666 -0.7031
  994MOL0     C34117   6.286  11.265   7.409  1.1890  0.4343  0.6079
  994MOL0     C34118   6.415  11.264   7.343  0.6827 -0.1382  0.3997
  994MOL0     C34119   6.537  11.253   7.321 -0.2971 -0.7456  0.4169
  994MOL0     C34120   5.859  11.300   6.916  0.2120  0.1771 -0.7498
  994MOL0     C34121   5.871  11.245   6.790  0.1043 -0.7435  0.4947
  994MOL0     C34122   5.792  11.315   6.683  0.4076  0.1803 -0.2702
  994MOL0     H34123   5.960  11.006   6.361 -1.0155  0.9523 -1.4547
  994MOL0     H34124   6.083  10.969   6.136  1.0079 -0.8167 -0.9719
  994MOL0     H34125   6.117  11.117   5.995  0.9851  1.7141  0.3068
  994MOL0     H34126   6.263  11.180   5.899 -1.1490  1.3136 -1.1022
  994MOL0     H34127   6.145  10.959   5.820 -0.2821  0.6285  0.8635
  994MOL0     H34128   6.194  10.889   5.967  0.4775 -0.9118  0.8110
  994MOL0     H34129   6.434  10.887   5.863 -1.5963 -1.8709  0.6072
  994MOL0     H34130   6.387  11.016   5.763  3.5853 -1.4595 -0.1405
  994MOL0     H34131   6.285  10.714   5.715 -1.6825 -0.3640 -2.6221
  994MOL0     H34132   6.235  10.852   5.637 -1.0755 -1.1438  0.9650
  994MOL0     H34133   6.468  10.921   5.597  0.8424 -0.2723  0.0720
  994MOL0     H34134   6.515  10.750   5.632 -1.4802 -0.4183  3.6347
  994MOL0     H34135   6.373  10.662   5.464  1.0827  0.0719 -1.5812
  994MOL0     H34136   6.297  10.826   5.439  0.7895 -0.4108  0.4793
  994MOL0     H34137   6.583  10.758   5.386 -0.1537  0.4854 -1.2099
  994MOL0     H34138   6.490  10.918   5.356  0.3014  0.1092 -0.5943
  994MOL0     H34139   6.546  10.781   5.146 -0.3517  0.4328 -0.9560
  994MOL0     H34140   6.461  10.645   5.222  2.6690  0.4832  0.0371
  994MOL0     H34141   6.211  10.642   5.280  1.1508 -0.5469 -0.5805
  994MOL0     H34142   5.997  10.564   5.118  0.2572 -2.1739 -2.1821
  994MOL0     H34143   5.919  10.698   5.057  0.2326  1.9475  0.5154
  994MOL0     H34144   6.008  10.651   4.827  1.3141 -1.0864 -1.1310
  994MOL0     H34145   6.094  10.508   4.888  4.0727  3.3499 -0.3976
  994MOL0     H34146   5.804  10.571   4.895 -0.4530 -0.5146  0.0135
  994MOL0     H34147   5.873  10.418   4.946  0.5726 -3.0165 -3.2204
  994MOL0     H34148   5.967  10.427   4.687 -0.4182 -4.5862 -0.4297
  994MOL0     H34149   5.812  10.523   4.659 -0.7295  0.4126 -0.1134
  994MOL0     H34150   5.697  10.095   4.639 -0.7953 -4.4200  2.4953
  994MOL0     H34151   5.811   9.883   4.640 -0.7728  2.3795 -2.1864
  994MOL0     H34152   5.980   9.740   4.490 -3.6688 -1.4867 -0.4951
  994MOL0     H34153   6.066   9.564   4.317  1.6872 -1.0558  0.1052
  994MOL0     H34154   5.984   9.204   4.292 -0.2880  2.1117  2.5690
  994MOL0     H34155   5.987   9.370   4.248 -0.3787 -0.0278 -0.6967
  994MOL0     H34156   6.091   9.332   4.064  0.6660  0.9370  0.7937
  994MOL0     H34157   6.243   9.314   4.146  0.8488 -0.4913  0.3382
  994MOL0     H34158   6.222   9.072   4.152 -1.0958 -0.8283 -0.3197
  994MOL0     H34159   6.057   9.073   4.080  0.6167 -0.5354 -0.7140
  994MOL0     H34160   6.307   9.203   3.964 -0.3653  1.4986  1.9453
  994MOL0     H34161   6.138   9.214   3.904 -0.4959  0.3856  0.9964
  994MOL0     H34162   6.131   8.986   3.838 -1.0109  2.3268  0.9603
  994MOL0     H34163   6.272   8.946   3.930 -2.3540 -1.8283 -1.2336
  994MOL0     H34164   6.238   9.104   3.672  0.1491 -0.4525  0.6958
  994MOL0     H34165   6.393   9.127   3.754  1.1831 -0.9805  1.7807
  994MOL0     H34166   6.279   8.855   3.660  0.2853 -1.5075  0.2363
  994MOL0     H34167   6.427   8.881   3.746 -0.2498 -0.0650 -1.1539
  994MOL0     H34168   6.373   8.888   3.475 -2.4366  1.7790  0.9425
  994MOL0     H34169   6.413   9.057   3.506 -1.6997  0.1311  0.7211
  994MOL0     H34170   6.148   9.304   4.641  3.2557  0.6764 -0.8102
  994MOL0     H34171   6.104   9.479   4.797  0.0527 -0.1702  0.9178
  994MOL0     H34172   6.156  10.061   4.817  1.6089 -0.0481 -3.6857
  994MOL0     H34173   6.053  10.272   4.807  1.8207 -0.5429  0.2325
  994MOL0     H34174   6.398  11.222   6.271 -0.5962  0.5367  1.2047
  994MOL0     H34175   6.308  11.202   6.508  0.7635 -0.5786 -0.2389
  994MOL0     H34176   6.014  10.953   6.861 -1.4495 -0.0229 -3.0524
  994MOL0     H34177   5.991  11.039   7.093 -3.9514 -4.4724 -0.8486
  994MOL0     H34178   5.905  11.127   7.256 -0.3166  0.2322  0.2274
  994MOL0     H34179   5.809  11.262   7.320 -1.3691 -0.2025 -2.4993
  994MOL0     H34180   6.011  11.227   7.463  0.1088  1.3473  0.4959
  994MOL0     H34181   6.002  11.384   7.371 -1.5703 -0.1079 -0.4930
  994MOL0     H34182   6.170  11.313   7.232 -2.3447  1.1463  0.0102
  994MOL0     H34183   6.148  11.142   7.278 -0.9609  1.1724 -4.4690
  994MOL0     H34184   6.276  11.357   7.467  0.1251  0.5920  0.2084
  994MOL0     H34185   6.297  11.184   7.481 -0.6123  1.4670  2.1387
  994MOL0     H34186   6.644  11.260   7.326 -0.3977  1.8358  0.2835
  994MOL0     H34187   5.816  11.396   6.945  0.1615 -0.2369  0.5895
  994MOL0     H34188   5.701  11.353   6.730 -0.7798 -2.7051 -0.0419
  994MOL0     H34189   5.859  11.386   6.635 -0.5965 -0.1456 -2.2736
  994MOL0     H34190   5.758  11.245   6.607  0.0809 -0.5369  0.5193
  995MOL0     O34191   3.499   5.708   9.140 -0.3488  0.3768 -0.2438
  995MOL0     C34192   3.487   5.591   9.173 -0.5902 -0.0082 -1.1026
  995MOL0     O34193   3.566   5.488   9.135  0.3652  0.4191  0.1299
  995MOL0     C34194   3.660   5.513   9.040 -0.1507  0.4735  0.8284
  995MOL0     C34195   3.788   5.533   9.075  0.8607 -1.5160 -0.8434
  995MOL0     C34196   3.883   5.556   8.973  0.3533  0.0047 -0.5040
  995MOL0     C34197   3.844   5.565   8.835 -0.0821 -0.2178  1.9442
  995MOL0     O34198   3.922   5.610   8.728 -0.6569 -0.7187  0.2638
  995MOL0     C34199   4.051   5.663   8.760 -1.0636  0.3251 -1.2058
  995MOL0     C34200   4.120   5.722   8.638  0.0567  0.0445 -0.5369
  995MOL0     C34201   4.023   5.824   8.563 -0.6341  0.0233  0.3612
  995MOL0     C34202   4.097   5.908   8.454 -0.4725 -0.1762  0.0894
  995MOL0     C34203   4.134   5.834   8.328  0.4318  0.6621 -0.1388
  995MOL0     C34204   4.175   5.932   8.219  0.2846  0.1905  0.0038
  995MOL0     C34205   4.179   5.854   8.089 -0.4699  1.0205  0.2941
  995MOL0     C34206   4.045   5.859   8.003  0.3625  0.0156 -0.9292
  995MOL0     N34207   4.075   5.805   7.870 -0.0887 -0.4544  0.4087
  995MOL0     C34208   4.036   5.685   7.824 -0.8336  0.3388  0.0061
  995MOL0     C34209   4.064   5.682   7.687  0.3543 -0.7315 -1.3140
  995MOL0     C34210   4.034   5.560   7.606 -0.0012 -1.1070 -1.0431
  995MOL0     C34211   4.155   5.468   7.599 -1.2356  0.3715 -0.0465
  995MOL0     C34212   4.165   5.392   7.461 -0.0269  0.7703 -0.4283
  995MOL0     C34213   4.051   5.293   7.444  0.2288 -1.5762  0.2749
  995MOL0     O34214   3.942   5.355   7.371  0.9050 -0.5393  0.2286
  995MOL0     C34215   3.823   5.282   7.355  0.4081 -0.4398 -0.0482
  995MOL0     C34216   3.804   5.156   7.419 -0.1452  0.2479  0.4335
  995MOL0     C34217   3.671   5.100   7.419 -1.2200 -0.2058 -0.1886
  995MOL0     C34218   3.566   5.160   7.348 -1.1598  0.1445  0.6746
  995MOL0     C34219   3.432   5.099   7.357  0.1048  0.2692 -0.0738
  995MOL0     O34220   3.333   5.156   7.273  0.2961  0.5848 -0.1026
  995MOL0     C34221   3.208   5.101   7.272 -1.0040  0.0703  0.0633
  995MOL0     C34222   3.112   5.197   7.256  0.5749 -0.5520 -0.0843
  995MOL0     C34223   2.979   5.168   7.249 -0.3197 -0.1761  0.4130
  995MOL0     C34224   2.939   5.030   7.244 -0.3516 -0.2593 -0.2249
  995MOL0     O34225   2.810   5.001   7.246  0.3364  0.5483 -0.7082
  995MOL0     C34226   2.753   5.030   7.381 -0.3158 -0.3738  0.1563
  995MOL0     C34227   2.635   4.945   7.406  1.0395 -0.1534  0.1095
  995MOL0     C34228   2.562   4.984   7.541 -0.3383 -0.1573  0.1951
  995MOL0     C34229   2.433   4.900   7.549 -0.2403  0.4880 -0.8110
  995MOL0     C34230   2.341   4.967   7.655  0.1370 -0.5089  0.3033
  995MOL0     C34231   2.205   4.902   7.684  0.0437 -0.3942  1.0299
  995MOL0     C34232   2.107   4.880   7.566 -0.5857  1.4453 -0.0243
  995MOL0     C34233   1.973   4.847   7.624 -0.5076 -0.3019  1.0217
  995MOL0    Cl34234   1.942   4.683   7.699 -0.1729  0.2316  0.5292
  995MOL0     C34235   3.041   4.926   7.261 -0.3575  0.4695  0.5063
  995MOL0     C34236   3.175   4.969   7.276 -0.1236  0.1181  0.1711
  995MOL0     O34237   3.411   5.007   7.437 -0.5723  0.0535 -0.1823
  995MOL0     C34238   3.596   5.283   7.278 -0.6622 -0.6447 -0.2698
  995MOL0     C34239   3.723   5.346   7.293  0.2173 -0.1212 -0.0202
  995MOL0     N34240   4.122   5.803   7.668 -0.5621  0.0515  0.5011
  995MOL0     N34241   4.117   5.884   7.769  0.1675  0.2004 -0.1329
  995MOL0     C34242   3.712   5.538   8.807  0.7210  0.4442 -0.4423
  995MOL0     C34243   3.616   5.509   8.911  1.1396 -0.2230  0.2180
  995MOL0     C34244   3.403   5.566   9.291  0.0144 -0.0146  0.4551
  995MOL0     C34245   3.477   5.550   9.399 -0.8342 -0.4523 -0.2227
  995MOL0     C34246   3.421   5.532   9.524 -0.2701 -0.5790 -0.8303
  995MOL0     C34247   3.282   5.536   9.543 -0.2667  0.8904  0.1167
  995MOL0     O34248   3.228   5.534   9.671  0.5966 -0.3428  0.2204
  995MOL0     C34249   3.086   5.575   9.694  0.0741  0.2781  0.2302
  995MOL0     C34250   3.068   5.625   9.836  0.5858 -0.5097  0.7198
  995MOL0     C34251   3.130   5.761   9.851 -0.7479 -1.7509 -0.4634
  995MOL0     C34252   3.111   5.840   9.989 -0.0821 -0.7232  0.9303
  995MOL0     C34253   3.083   5.750  10.096  0.8103  0.1035  0.4731
  995MOL0     C34254   3.067   5.668  10.180 -1.1231 -0.2176  0.5773
  995MOL0     C34255   3.206   5.549   9.417 -0.7587 -0.9244 -0.0995
  995MOL0     C34256   3.262   5.570   9.296  0.4517 -0.0763 -0.1069
  995MOL0     C34257   3.165   5.597   9.181 -0.3987 -0.2760  0.1153
  995MOL0     H34258   3.815   5.536   9.180 -0.4773  1.1418 -0.5083
  995MOL0     H34259   3.985   5.579   9.002  0.2110 -0.3137  0.2555
  995MOL0     H34260   4.028   5.744   8.830  2.8350  1.8219 -1.3634
  995MOL0     H34261   4.120   5.589   8.802 -1.6407  1.1126  1.2998
  995MOL0     H34262   4.143   5.636   8.574 -2.2353  1.2760 -3.2309
  995MOL0     H34263   4.212   5.776   8.661 -0.0670  0.7676 -1.6702
  995MOL0     H34264   3.978   5.894   8.634 -0.1673  0.6656  0.0342
  995MOL0     H34265   3.941   5.773   8.512 -0.2644  2.2082 -2.6837
  995MOL0     H34266   4.035   5.988   8.416  0.0739 -0.3233 -1.1594
  995MOL0     H34267   4.185   5.961   8.493 -0.3898 -1.4837  1.7982
  995MOL0     H34268   4.219   5.765   8.332  0.2665  0.4735  0.1172
  995MOL0     H34269   4.047   5.776   8.298 -1.1120  2.9743 -0.3590
  995MOL0     H34270   4.103   6.013   8.208 -0.3244 -0.3787 -0.2482
  995MOL0     H34271   4.272   5.972   8.249  0.3871 -1.0042  1.4505
  995MOL0     H34272   4.199   5.749   8.115 -0.8663  0.8285 -0.1561
  995MOL0     H34273   4.269   5.886   8.037  1.9250  1.1165  4.1271
  995MOL0     H34274   3.963   5.808   8.056  1.2655 -0.6765 -0.1681
  995MOL0     H34275   4.011   5.961   7.983 -1.7904 -0.6966 -1.2319
  995MOL0     H34276   4.011   5.603   7.891  3.0045 -0.7252  0.3703
  995MOL0     H34277   3.950   5.505   7.651  0.2358  0.5340  1.6232
  995MOL0     H34278   4.006   5.596   7.507  2.0445 -0.1803 -1.3401
  995MOL0     H34279   4.248   5.519   7.628 -2.0366  3.9207 -2.8585
  995MOL0     H34280   4.137   5.396   7.679 -0.7451  1.1379  0.7769
  995MOL0     H34281   4.254   5.327   7.463 -0.5934 -0.0960 -1.8028
  995MOL0     H34282   4.179   5.452   7.371 -0.3641 -2.2105 -2.6148
  995MOL0     H34283   4.021   5.264   7.545  1.5409  0.0155  1.1748
  995MOL0     H34284   4.079   5.200   7.395  0.4966 -2.0335  1.2638
  995MOL0     H34285   3.877   5.115   7.487  2.0744  0.6381 -1.6074
  995MOL0     H34286   3.659   5.012   7.480  0.0239 -0.6596 -0.5558
  995MOL0     H34287   3.132   5.304   7.255 -0.8932 -0.2195  1.5888
  995MOL0     H34288   2.901   5.243   7.245 -1.4882 -1.3427  0.8385
  995MOL0     H34289   2.821   5.020   7.467 -1.5713 -1.5897  1.0537
  995MOL0     H34290   2.732   5.136   7.398  0.4075  0.2423 -2.4292
  995MOL0     H34291   2.558   4.948   7.329 -3.1758 -0.3388  3.8867
  995MOL0     H34292   2.659   4.838   7.399  0.0339 -0.5449  1.9097
  995MOL0     H34293   2.619   4.965   7.632  0.5571 -1.8989 -0.6698
  995MOL0     H34294   2.534   5.090   7.553  2.3162  0.2502  5.3235
  995MOL0     H34295   2.446   4.799   7.590  2.6037  1.6036  1.3577
  995MOL0     H34296   2.377   4.887   7.456 -2.9944  1.3451  0.6196
  995MOL0     H34297   2.329   5.066   7.609  4.0056 -1.0653 -2.4592
  995MOL0     H34298   2.405   4.969   7.744  1.8311 -2.2345 -0.8053
  995MOL0     H34299   2.225   4.800   7.717 -1.1722 -1.9332 -2.5978
  995MOL0     H34300   2.156   4.950   7.769  2.0234  1.8128  1.0393
  995MOL0     H34301   2.148   4.796   7.508 -1.1991  0.8086  0.4458
  995MOL0     H34302   2.102   4.973   7.509 -0.1260  0.8679 -1.0505
  995MOL0     H34303   1.952   4.920   7.702  1.0843  1.5193 -0.1645
  995MOL0     H34304   1.901   4.854   7.541  1.1769 -1.2970 -0.6133
  995MOL0     H34305   3.021   4.820   7.258 -1.5950  0.5271  3.3625
  995MOL0     H34306   3.249   4.890   7.273  0.8039  0.9762 -2.5031
  995MOL0     H34307   3.514   5.339   7.233  1.4312  1.9040 -1.1499
  995MOL0     H34308   3.722   5.446   7.250  1.8466  0.6368  1.5633
  995MOL0     H34309   3.696   5.524   8.701  0.8805 -1.8761 -0.2016
  995MOL0     H34310   3.510   5.497   8.887  1.2258 -0.7383  0.0789
  995MOL0     H34311   3.585   5.564   9.403 -1.0325  1.2060  0.1833
  995MOL0     H34312   3.488   5.507   9.606 -0.9430  0.4412  0.0655
  995MOL0     H34313   3.017   5.494   9.667 -0.5812  1.8970 -3.7090
  995MOL0     H34314   3.068   5.653   9.620  1.6907  1.2121  0.7850
  995MOL0     H34315   3.103   5.557   9.914  0.9635  0.3042  1.2702
  995MOL0     H34316   2.963   5.641   9.862  0.2161  0.5019 -1.1507
  995MOL0     H34317   3.086   5.826   9.774 -3.6034  1.2701  3.3335
  995MOL0     H34318   3.239   5.763   9.840 -0.9055  0.9247 -2.7146
  995MOL0     H34319   3.194   5.907  10.013 -1.4518  1.2603  0.2866
  995MOL0     H34320   3.033   5.910   9.959  2.8640  1.5515 -2.2398
  995MOL0     H34321   3.032   5.591  10.246  2.2023 -0.9493  1.6802
  995MOL0     H34322   3.098   5.560   9.426 -0.5630 -0.8674  4.0745
  995MOL0     H34323   3.212   5.579   9.083 -3.0612  2.3628 -1.7965
  995MOL0     H34324   3.073   5.538   9.187  0.8227 -2.9133 -3.2525
  995MOL0     H34325   3.131   5.700   9.174  1.2126  0.2370 -5.3588
  996MOL0     O34326   6.303   6.909   0.923  1.2775 -0.1829  0.3482
  996MOL0     C34327   6.250   6.961   0.829  0.1457 -1.1997  0.6169
  996MOL0     O34328   6.173   7.074   0.836 -0.7708 -0.5684 -0.5180
  996MOL0     C34329   6.113   7.115   0.955  0.4348 -0.4340  0.2295
  996MOL0     C34330   5.972   7.127   0.958  0.7105 -0.0847 -0.4137
  996MOL0     C34331   5.902   7.151   1.081 -0.6294 -0.6781 -0.4047
  996MOL0     C34332   5.980   7.191   1.194 -0.4131  0.3623  0.7169
  996MOL0     O34333   5.902   7.229   1.300  0.1372  0.4842 -0.1552
  996MOL0     C34334   5.963   7.251   1.430 -0.6223 -0.7353 -0.3915
  996MOL0     C34335   5.852   7.271   1.532  0.5886 -0.1238  0.1339
  996MOL0     C34336   5.785   7.417   1.528 -0.0417  0.2789 -0.2122
  996MOL0     C34337   5.641   7.431   1.567 -0.6239 -1.2498 -0.6968
  996MOL0     C34338   5.575   7.556   1.504 -0.1009 -0.9948 -0.5874
  996MOL0     C34339   5.435   7.577   1.547 -0.0556  0.2177  0.3690
  996MOL0     C34340   5.342   7.501   1.443 -0.1997 -0.0919  0.0533
  996MOL0     C34341   5.192   7.504   1.468 -0.1275  0.2823 -0.3978
  996MOL0     N34342   5.159   7.462   1.602  0.2951 -0.0408  0.0263
  996MOL0     C34343   5.164   7.330   1.631  0.9084  0.4488 -0.4726
  996MOL0     C34344   5.142   7.332   1.763  0.2285 -0.9076 -0.5152
  996MOL0     C34345   5.135   7.215   1.853 -0.3253  0.1340 -0.4677
  996MOL0     C34346   5.241   7.107   1.814  0.2633 -0.0557  0.5784
  996MOL0     C34347   5.386   7.156   1.823  0.0151 -0.2075 -0.1265
  996MOL0     C34348   5.489   7.070   1.731 -0.2583 -0.3978 -0.4484
  996MOL0     O34349   5.452   7.117   1.607 -0.8625 -0.7607  0.5702
  996MOL0     C34350   5.497   7.030   1.501  0.3527  0.3530 -0.6571
  996MOL0     C34351   5.438   7.050   1.381  0.7072  0.1119  0.8398
  996MOL0     C34352   5.488   6.981   1.268 -0.0451 -0.4137  0.0384
  996MOL0     C34353   5.587   6.881   1.289  0.0735  0.5787  0.5980
  996MOL0     C34354   5.641   6.820   1.157 -0.2737 -0.4778  0.2804
  996MOL0     O34355   5.759   6.766   1.164  0.1222 -0.3935  0.0948
  996MOL0     C34356   5.817   6.701   1.064 -0.0576 -0.1411 -0.3982
  996MOL0     C34357   5.930   6.756   1.005 -0.3088  0.1880  0.8818
  996MOL0     C34358   6.000   6.685   0.913 -0.3888  0.7057  0.2863
  996MOL0     C34359   5.949   6.570   0.852 -0.9036  0.0409  0.4226
  996MOL0     O34360   6.006   6.508   0.741 -0.5665 -0.3426  0.4898
  996MOL0     C34361   6.153   6.494   0.737  0.0432  0.5069  0.9073
  996MOL0     C34362   6.198   6.466   0.598 -0.2606  0.3252 -1.0937
  996MOL0     C34363   6.116   6.362   0.519 -0.1086 -0.1880  0.0703
  996MOL0     C34364   6.150   6.351   0.368  0.2958 -0.1672 -0.1214
  996MOL0     C34365   6.055   6.266   0.273 -0.9070  0.2754  0.2115
  996MOL0     C34366   6.076   6.293   0.130  0.3251  0.0278  0.5222
  996MOL0     C34367   5.950   6.246   0.053  0.3559  0.7652 -0.2002
  996MOL0     C34368   5.934   6.097   0.076  0.1141 -0.0727 -0.3001
  996MOL0    Cl34369   5.905   6.000  -0.070 -0.0769 -0.3832 -0.7982
  996MOL0     C34370   5.850   6.510   0.918  0.1829 -0.4445 -0.1154
  996MOL0     C34371   5.784   6.569   1.032  0.0304  0.5190  0.6358
  996MOL0     O34372   5.576   6.841   1.053 -0.3237 -0.3945  0.0345
  996MOL0     C34373   5.643   6.856   1.414 -0.3085  0.6216  0.3598
  996MOL0     C34374   5.590   6.926   1.516 -0.0684 -0.8866 -0.6771
  996MOL0     N34375   5.153   7.463   1.809 -0.4170  0.6843 -0.0712
  996MOL0     N34376   5.159   7.542   1.710 -0.0211 -0.0511  0.8396
  996MOL0     C34377   6.112   7.153   1.195  0.5394  0.6707  1.2809
  996MOL0     C34378   6.179   7.123   1.078  0.5506  0.0971 -0.2610
  996MOL0     C34379   6.292   6.902   0.695 -0.0333 -0.5431 -0.2148
  996MOL0     C34380   6.390   6.799   0.686 -0.6687 -0.5547  0.5316
  996MOL0     C34381   6.427   6.744   0.568 -0.6372 -0.4420 -0.3229
  996MOL0     C34382   6.382   6.778   0.446 -0.1394  0.2629  0.0058
  996MOL0     O34383   6.418   6.695   0.336  0.1283  0.1372 -0.7182
  996MOL0     C34384   6.368   6.721   0.203  0.4032 -0.2929  0.0315
  996MOL0     C34385   6.466   6.802   0.112  0.7282 -0.0694 -0.4898
  996MOL0     C34386   6.556   6.714   0.030  0.1544  0.2699  0.0774
  996MOL0     C34387   6.518   6.664  -0.112  0.0047  0.1036  0.5271
  996MOL0     C34388   6.398   6.574  -0.113  0.1364  0.8184 -0.2393
  996MOL0     C34389   6.301   6.501  -0.132  0.4951  0.0534  0.1047
  996MOL0     C34390   6.293   6.889   0.443 -0.4939  1.1884 -0.0105
  996MOL0     C34391   6.238   6.939   0.568  0.8754  0.0989 -0.0027
  996MOL0     C34392   6.145   7.052   0.549 -0.1880  0.7208 -0.1692
  996MOL0     H34393   5.931   7.113   0.858  0.9452  0.0012 -0.5233
  996MOL0     H34394   5.795   7.170   1.082 -0.8949 -1.9677  1.1595
  996MOL0     H34395   6.023   7.167   1.468  0.9546  1.0802  1.4203
  996MOL0     H34396   6.033   7.334   1.420  1.2935 -2.2575 -0.1945
  996MOL0     H34397   5.895   7.270   1.633  0.8206  0.7801  0.0499
  996MOL0     H34398   5.768   7.201   1.534 -1.0077  1.6978  2.6385
  996MOL0     H34399   5.802   7.453   1.426  0.8744  1.4375  0.3198
  996MOL0     H34400   5.850   7.479   1.591  0.9471  0.0122 -0.9576
  996MOL0     H34401   5.582   7.348   1.527 -2.7938  0.3649 -0.9857
  996MOL0     H34402   5.637   7.420   1.676  2.9445  2.9295  0.1337
  996MOL0     H34403   5.640   7.641   1.529  2.9902 -2.7006 -2.3160
  996MOL0     H34404   5.580   7.544   1.396 -1.0137 -0.4158 -0.7017
  996MOL0     H34405   5.412   7.547   1.650 -0.6534 -0.3592  0.0779
  996MOL0     H34406   5.390   7.677   1.541 -0.6984 -0.1093 -0.4823
  996MOL0     H34407   5.380   7.399   1.442 -1.3417 -0.5623 -2.1871
  996MOL0     H34408   5.343   7.540   1.340 -2.6866  0.5991  0.2191
  996MOL0     H34409   5.152   7.604   1.447  3.0678  1.4221 -1.7321
  996MOL0     H34410   5.151   7.440   1.390 -0.6345  2.1572 -1.7386
  996MOL0     H34411   5.156   7.248   1.560  1.8037 -0.2493  0.2015
  996MOL0     H34412   5.157   7.240   1.957  1.3312 -2.6630 -0.0462
  996MOL0     H34413   5.034   7.174   1.860 -1.0120  1.4284 -2.1604
  996MOL0     H34414   5.224   7.016   1.873 -0.0326 -0.5824 -0.3029
  996MOL0     H34415   5.229   7.073   1.711  1.8667 -0.1433  0.3946
  996MOL0     H34416   5.430   7.138   1.921  0.1733 -3.7148 -0.7024
  996MOL0     H34417   5.395   7.260   1.789 -4.2803  0.6561  0.8569
  996MOL0     H34418   5.474   6.962   1.745 -0.4205 -0.1680  1.2886
  996MOL0     H34419   5.590   7.105   1.753  0.3269  0.3714 -3.7665
  996MOL0     H34420   5.370   7.133   1.375 -1.5631 -1.7206 -0.7898
  996MOL0     H34421   5.450   7.023   1.176  0.3600 -0.8882 -0.3539
  996MOL0     H34422   5.961   6.855   1.039  0.5521 -0.8817  3.4107
  996MOL0     H34423   6.087   6.731   0.869 -0.4637 -2.1644 -3.4180
  996MOL0     H34424   6.217   6.572   0.778  2.1730  0.7079 -2.4016
  996MOL0     H34425   6.177   6.399   0.787 -1.0945 -1.9139 -2.7260
  996MOL0     H34426   6.192   6.566   0.554  0.7447  0.2542 -1.4114
  996MOL0     H34427   6.304   6.441   0.604 -0.1959  0.7417 -0.3025
  996MOL0     H34428   6.127   6.262   0.562 -1.5454  0.1924  1.4094
  996MOL0     H34429   6.011   6.389   0.535  0.2808  0.1635  2.4020
  996MOL0     H34430   6.245   6.297   0.366 -1.2437 -3.2430  1.2941
  996MOL0     H34431   6.162   6.449   0.321  3.1570 -1.2177 -1.8288
  996MOL0     H34432   5.954   6.298   0.299 -0.5285  3.1589 -1.4659
  996MOL0     H34433   6.077   6.164   0.305  1.3420  1.0021  1.1406
  996MOL0     H34434   6.081   6.400   0.109  2.1113 -0.1552 -0.1303
  996MOL0     H34435   6.171   6.249   0.101  0.2208 -0.4883  0.9256
  996MOL0     H34436   5.973   6.262  -0.053  0.7570  1.4139 -0.0212
  996MOL0     H34437   5.867   6.310   0.085  0.0581  1.4063 -2.1036
  996MOL0     H34438   6.031   6.051   0.099 -1.7976 -4.6190 -0.2581
  996MOL0     H34439   5.865   6.089   0.161 -0.8986 -1.1733 -1.1868
  996MOL0     H34440   5.831   6.406   0.894 -1.5476 -1.4408  4.5266
  996MOL0     H34441   5.703   6.517   1.082  0.7352 -1.7995 -0.4973
  996MOL0     H34442   5.718   6.779   1.430 -1.0014 -0.4229 -1.1358
  996MOL0     H34443   5.644   6.901   1.607  1.8372 -1.2772 -1.8518
  996MOL0     H34444   6.167   7.164   1.288  1.8486 -2.4208  0.9770
  996MOL0     H34445   6.284   7.098   1.090  0.7228  1.8278  2.8324
  996MOL0     H34446   6.436   6.759   0.776  1.2955  1.9299  0.7289
  996MOL0     H34447   6.490   6.656   0.582  1.6083  1.1679  0.3420
  996MOL0     H34448   6.275   6.778   0.210  0.8101  0.2314  1.5403
  996MOL0     H34449   6.338   6.629   0.152  2.2786  0.8503 -3.5254
  996MOL0     H34450   6.517   6.874   0.176 -2.2280  1.3317  0.4875
  996MOL0     H34451   6.392   6.856   0.052 -0.5191 -0.6285  0.5017
  996MOL0     H34452   6.601   6.635   0.091  0.8476 -0.6059 -1.5080
  996MOL0     H34453   6.636   6.786   0.013 -0.4110  0.7517 -0.5583
  996MOL0     H34454   6.504   6.753  -0.174  2.2959  0.8609  0.9936
  996MOL0     H34455   6.605   6.625  -0.166  0.5478  2.2264 -0.2244
  996MOL0     H34456   6.213   6.441  -0.138 -0.2231  0.7070  2.7831
  996MOL0     H34457   6.235   6.916   0.356  0.4680  1.8880 -0.4479
  996MOL0     H34458   6.099   7.058   0.450 -2.7880 -2.2745  0.6576
  996MOL0     H34459   6.056   7.047   0.614  1.4576  0.9531  2.2461
  996MOL0     H34460   6.195   7.146   0.573 -0.5487  2.1986 -4.4603
  997MOL0     O34461   8.780   4.016   5.883 -0.7502  0.2416 -0.2523
  997MOL0     C34462   8.829   4.047   5.775  0.5606 -0.1520 -0.6833
  997MOL0     O34463   8.926   3.980   5.709 -0.1610  0.4167 -0.6020
  997MOL0     C34464   8.983   3.851   5.743 -0.1871 -0.2810  0.3479
  997MOL0     C34465   9.111   3.840   5.796  0.6518 -0.7766 -0.6069
  997MOL0     C34466   9.161   3.719   5.834  0.0057 -0.2023 -0.1400
  997MOL0     C34467   9.099   3.604   5.797  0.6576 -0.7502  0.0403
  997MOL0     O34468   9.150   3.477   5.814 -0.1325  0.6994  0.4560
  997MOL0     C34469   9.267   3.448   5.895  0.0495  0.1213 -0.3454
  997MOL0     C34470   9.226   3.424   6.045 -0.7027 -1.0528 -0.0554
  997MOL0     C34471   9.122   3.314   6.050 -1.3739  0.5244 -0.2003
  997MOL0     C34472   9.185   3.177   6.022 -0.4049 -0.6679  0.3838
  997MOL0     C34473   9.098   3.058   6.076  0.0614  0.2335  1.1649
  997MOL0     C34474   8.966   3.045   5.998  0.3905 -0.1935 -0.1506
  997MOL0     C34475   8.909   2.908   6.013 -0.3287  0.7091  0.0157
  997MOL0     C34476   8.993   2.801   5.946 -0.3172  0.1854 -0.1481
  997MOL0     N34477   8.949   2.662   5.967  0.1532  0.3060 -0.4192
  997MOL0     C34478   8.838   2.609   6.023 -0.0292 -0.5261  0.0875
  997MOL0     C34479   8.836   2.471   6.017 -0.6551 -0.9296  0.4408
  997MOL0     C34480   8.731   2.379   6.068  0.7983 -0.3710  1.0288
  997MOL0     C34481   8.795   2.297   6.178  0.7044 -0.6575 -0.2293
  997MOL0     C34482   8.688   2.217   6.255  1.5118 -1.0163 -0.1953
  997MOL0     C34483   8.748   2.136   6.375  0.5431  0.6281  0.1171
  997MOL0     O34484   8.649   2.082   6.468 -0.2438  0.1785 -0.4806
  997MOL0     C34485   8.572   1.973   6.437 -1.1267  1.1201  0.7046
  997MOL0     C34486   8.607   1.889   6.330 -0.0516  0.0712  1.1952
  997MOL0     C34487   8.523   1.779   6.299 -0.0778 -0.8001  0.0415
  997MOL0     C34488   8.415   1.744   6.384  0.4909 -0.3868 -0.0285
  997MOL0     C34489   8.322   1.639   6.338 -0.3090 -0.3476 -1.1530
  997MOL0     O34490   8.349   1.591   6.221 -0.0619 -0.5475 -0.9494
  997MOL0     C34491   8.247   1.538   6.154  0.2401 -0.4988 -0.2483
  997MOL0     C34492   8.221   1.398   6.163 -0.1227  0.7818 -0.4474
  997MOL0     C34493   8.115   1.340   6.097  0.8276 -0.0102 -0.4872
  997MOL0     C34494   8.035   1.423   6.014 -0.7588  0.5745  0.1467
  997MOL0     O34495   7.949   1.365   5.922 -0.2963  0.0752  0.2192
  997MOL0     C34496   7.854   1.459   5.870 -0.8259  0.6086 -0.4373
  997MOL0     C34497   7.790   1.377   5.756  1.1903  0.3829  1.2000
  997MOL0     C34498   7.709   1.450   5.648 -0.4130 -0.5486 -0.1964
  997MOL0     C34499   7.648   1.372   5.528 -0.2438 -0.3711  0.5184
  997MOL0     C34500   7.609   1.466   5.411 -0.3645  0.6455 -0.9064
  997MOL0     C34501   7.490   1.408   5.328 -0.2216 -0.5300  0.2287
  997MOL0     C34502   7.457   1.489   5.206 -0.1073 -0.5264  1.1047
  997MOL0     C34503   7.304   1.476   5.168 -0.4358 -1.2641 -0.5319
  997MOL0    Cl34504   7.290   1.525   5.006 -0.3436  0.0178  0.1692
  997MOL0     C34505   8.058   1.563   6.007 -0.5286  0.5096  2.0680
  997MOL0     C34506   8.167   1.619   6.073 -0.0640 -1.0535 -0.4747
  997MOL0     O34507   8.235   1.601   6.419 -0.2275  0.3892  0.2636
  997MOL0     C34508   8.382   1.827   6.492  0.2188 -0.8030  1.3011
  997MOL0     C34509   8.466   1.942   6.513  0.0697 -0.3690 -0.8475
  997MOL0     N34510   8.944   2.441   5.937 -0.8146  0.3570  0.6949
  997MOL0     N34511   9.004   2.553   5.912 -0.1488  0.7419 -0.2423
  997MOL0     C34512   8.976   3.608   5.728  0.8488  0.6726 -0.5850
  997MOL0     C34513   8.911   3.725   5.710  0.1760  0.2452 -0.8253
  997MOL0     C34514   8.797   4.174   5.721 -0.1391 -0.0660  0.0106
  997MOL0     C34515   8.666   4.219   5.751 -0.3596  0.0229 -0.1424
  997MOL0     C34516   8.621   4.341   5.705  0.5613  1.5907 -0.4674
  997MOL0     C34517   8.702   4.423   5.632  0.1924  0.0344 -0.8882
  997MOL0     O34518   8.652   4.538   5.587  0.3753  0.3972 -0.7112
  997MOL0     C34519   8.704   4.659   5.640 -0.9143 -0.8512 -0.0043
  997MOL0     C34520   8.599   4.767   5.630 -0.2717  1.5563  0.0736
  997MOL0     C34521   8.480   4.734   5.727  0.2150  0.6182 -0.2179
  997MOL0     C34522   8.341   4.792   5.680 -0.2352 -0.2884 -0.2615
  997MOL0     C34523   8.343   4.928   5.620 -0.2550 -0.6275 -1.2079
  997MOL0     C34524   8.326   5.038   5.587  0.2026 -0.9405  1.0097
  997MOL0     C34525   8.832   4.374   5.592  1.2824  0.1663  0.3833
  997MOL0     C34526   8.885   4.252   5.638 -0.5202 -0.4402 -0.6813
  997MOL0     C34527   9.036   4.231   5.624 -0.3212  0.0618 -0.2312
  997MOL0     H34528   9.162   3.930   5.830  0.4838 -1.2850  1.1046
  997MOL0     H34529   9.258   3.708   5.881  1.3417  0.4448 -2.5820
  997MOL0     H34530   9.314   3.359   5.851 -0.7065 -1.0470  1.1116
  997MOL0     H34531   9.348   3.520   5.880  0.9488 -1.1393 -1.8100
  997MOL0     H34532   9.173   3.514   6.077 -2.1833 -1.8737 -0.1358
  997MOL0     H34533   9.306   3.404   6.118 -0.0771  0.8101 -0.1740
  997MOL0     H34534   9.032   3.327   5.989 -0.4636  1.5920 -1.3763
  997MOL0     H34535   9.088   3.326   6.154  1.2421  3.6643  0.4597
  997MOL0     H34536   9.212   3.171   5.916  0.3357 -1.5887  0.6059
  997MOL0     H34537   9.290   3.179   6.052 -0.1572  3.0532 -0.3299
  997MOL0     H34538   9.154   2.964   6.079  0.9012  0.6250 -0.5800
  997MOL0     H34539   9.066   3.084   6.177 -3.4158  2.5326 -0.3183
  997MOL0     H34540   8.897   3.111   6.052 -0.9035 -2.4091  1.0549
  997MOL0     H34541   8.980   3.075   5.894 -1.2804 -1.0773 -0.6681
  997MOL0     H34542   8.808   2.901   5.971  0.6016  0.1175 -2.2738
  997MOL0     H34543   8.899   2.879   6.118  1.8777 -0.1904  0.0169
  997MOL0     H34544   9.010   2.828   5.841 -1.8116  2.8689  0.2282
  997MOL0     H34545   9.088   2.805   6.001  0.9690 -0.6326 -2.1639
  997MOL0     H34546   8.764   2.665   6.079  1.4326  0.5549  1.0405
  997MOL0     H34547   8.649   2.444   6.101 -0.2848 -1.8457  1.3380
  997MOL0     H34548   8.694   2.305   5.998 -0.4822 -2.3269  3.5991
  997MOL0     H34549   8.861   2.225   6.128  1.0495  0.9946 -2.3160
  997MOL0     H34550   8.852   2.365   6.241 -0.7651  0.7391 -0.3587
  997MOL0     H34551   8.643   2.156   6.176 -1.9814  0.5219  0.3917
  997MOL0     H34552   8.607   2.282   6.291 -0.1745 -1.0605 -3.5467
  997MOL0     H34553   8.810   2.212   6.423 -0.5150  0.3355  2.0250
  997MOL0     H34554   8.809   2.054   6.337 -0.1014  0.4031 -0.4449
  997MOL0     H34555   8.691   1.916   6.267 -2.8457 -0.5020 -3.1396
  997MOL0     H34556   8.541   1.703   6.224 -3.2620 -1.7041  0.0490
  997MOL0     H34557   8.284   1.328   6.216 -0.9103 -0.2236 -0.8143
  997MOL0     H34558   8.092   1.237   6.119 -2.3955  0.7703  0.3160
  997MOL0     H34559   7.782   1.505   5.938 -1.9311  1.4282 -2.0787
  997MOL0     H34560   7.899   1.545   5.820  3.5908 -1.6141 -0.7682
  997MOL0     H34561   7.867   1.326   5.696 -1.2633 -3.5370  1.0200
  997MOL0     H34562   7.721   1.303   5.798 -1.6166  1.6429 -0.8873
  997MOL0     H34563   7.624   1.504   5.692 -0.0289  0.4973 -0.7039
  997MOL0     H34564   7.783   1.512   5.597  1.3197 -2.4129 -0.0705
  997MOL0     H34565   7.562   1.312   5.558  1.2811 -1.9125  2.0722
  997MOL0     H34566   7.725   1.303   5.491 -0.8403 -1.9485  2.0521
  997MOL0     H34567   7.701   1.485   5.356  0.4202 -1.7180 -0.5387
  997MOL0     H34568   7.578   1.557   5.464  1.6757  1.5286 -1.1569
  997MOL0     H34569   7.532   1.310   5.303  1.7260 -0.2892  2.2862
  997MOL0     H34570   7.399   1.395   5.386 -0.8022  1.4871 -0.1484
  997MOL0     H34571   7.519   1.447   5.126  2.9710  0.8886  2.5841
  997MOL0     H34572   7.482   1.594   5.220 -0.2395 -0.3298  0.0037
  997MOL0     H34573   7.262   1.376   5.183  1.8220 -1.8710  2.6160
  997MOL0     H34574   7.239   1.540   5.229 -1.6309 -0.9112 -2.0962
  997MOL0     H34575   8.006   1.637   5.945  1.5837 -0.6452 -1.3660
  997MOL0     H34576   8.177   1.727   6.071 -0.7457 -0.9462 -3.7529
  997MOL0     H34577   8.292   1.815   6.551  1.9739  1.1613  4.6956
  997MOL0     H34578   8.458   1.987   6.612  3.5024 -0.4785 -0.4042
  997MOL0     H34579   8.930   3.515   5.695  0.9673  0.5314 -0.3540
  997MOL0     H34580   8.808   3.727   5.678 -0.4462 -1.6090  0.8390
  997MOL0     H34581   8.606   4.164   5.821  2.5378 -2.6767  0.4674
  997MOL0     H34582   8.526   4.380   5.739 -2.1443 -2.2737 -2.7018
  997MOL0     H34583   8.795   4.688   5.588 -0.7628  2.0586  1.6903
  997MOL0     H34584   8.740   4.648   5.742 -0.6493  5.0491  0.8337
  997MOL0     H34585   8.550   4.771   5.533  0.0940 -2.9486 -0.5192
  997MOL0     H34586   8.638   4.856   5.680  1.5491  0.0804  1.4485
  997MOL0     H34587   8.502   4.769   5.829 -1.8516 -3.7890  2.0402
  997MOL0     H34588   8.464   4.626   5.737  2.7090 -0.1032 -2.8474
  997MOL0     H34589   8.319   4.724   5.598  3.4608 -1.6515 -0.3134
  997MOL0     H34590   8.275   4.796   5.768 -0.7097  2.1609 -0.6487
  997MOL0     H34591   8.295   5.136   5.555  0.7533 -0.6024  1.4830
  997MOL0     H34592   8.892   4.443   5.533  2.3921 -0.7546  0.3969
  997MOL0     H34593   9.076   4.320   5.575 -2.6989  0.6097 -1.3112
  997MOL0     H34594   9.094   4.214   5.715 -0.2548 -2.7965 -0.7236
  997MOL0     H34595   9.051   4.151   5.551  0.1200  0.2327 -0.3285
  998MOL0     O34596   9.991   9.435   1.109  1.6155  0.0892 -0.4702
  998MOL0     C34597  10.014   9.523   1.194 -0.0737  0.0772 -0.2300
  998MOL0     O34598   9.922   9.614   1.242  0.6121 -0.2686  0.1615
  998MOL0     C34599   9.784   9.601   1.217 -0.6401  0.1822 -0.0202
  998MOL0     C34600   9.714   9.716   1.181  0.4543  0.6984  0.4841
  998MOL0     C34601   9.576   9.710   1.157 -0.4666 -0.0819  0.8139
  998MOL0     C34602   9.496   9.603   1.170  0.0172  0.0428  0.6123
  998MOL0     O34603   9.361   9.611   1.141 -0.0284  0.2180 -0.8048
  998MOL0     C34604   9.282   9.489   1.157 -0.5839 -0.4563 -0.5992
  998MOL0     C34605   9.132   9.496   1.143  0.1905  0.1241  0.1106
  998MOL0     C34606   9.078   9.592   1.255  0.5892 -0.0062 -0.5162
  998MOL0     C34607   8.923   9.585   1.272  0.2231  0.6971  1.3099
  998MOL0     C34608   8.847   9.661   1.166 -0.6729 -0.3481  0.5243
  998MOL0     C34609   8.700   9.639   1.156  0.5663  0.4309  0.5865
  998MOL0     C34610   8.631   9.652   1.292  0.6921 -0.3222  0.5286
  998MOL0     C34611   8.477   9.652   1.276 -0.1016 -0.1913 -1.1455
  998MOL0     N34612   8.422   9.547   1.190 -0.3364  0.5354 -0.1827
  998MOL0     C34613   8.394   9.423   1.246  0.4403 -0.1014 -0.1769
  998MOL0     C34614   8.374   9.341   1.142 -0.1355  0.4059 -0.4939
  998MOL0     C34615   8.383   9.185   1.162 -0.0558  0.3376 -0.1519
  998MOL0     C34616   8.258   9.116   1.227 -0.0251 -0.0289 -0.1046
  998MOL0     C34617   8.258   8.959   1.226 -0.6450 -0.1334  0.4629
  998MOL0     C34618   8.133   8.885   1.208  0.6170  1.3734  0.6821
  998MOL0     O34619   8.129   8.792   1.096 -0.4298  0.2461 -0.2892
  998MOL0     C34620   8.098   8.843   0.968 -0.1917  0.7134  0.1652
  998MOL0     C34621   8.097   8.746   0.877 -0.2196 -0.1907  0.6663
  998MOL0     C34622   8.068   8.780   0.743 -0.1866  0.6136  0.4491
  998MOL0     C34623   8.053   8.911   0.702  0.2391 -0.6337  0.0145
  998MOL0     C34624   8.034   8.950   0.560  1.0494 -0.9839 -1.1819
  998MOL0     O34625   8.071   8.852   0.473  0.9102 -0.4336  0.0789
  998MOL0     C34626   8.070   8.866   0.341 -0.7130 -0.4843  0.1590
  998MOL0     C34627   8.027   8.750   0.268  0.0877  0.2047  0.3269
  998MOL0     C34628   8.032   8.746   0.131 -0.0725  0.2332 -0.2586
  998MOL0     C34629   8.084   8.862   0.059  0.2463 -0.4242  0.4062
  998MOL0     O34630   8.129   8.842  -0.065  0.7955 -0.0327 -0.2922
  998MOL0     C34631   8.156   8.960  -0.150  0.2780 -0.1978 -0.1520
  998MOL0     C34632   8.120   8.909  -0.282  0.3331  0.8976 -0.2318
  998MOL0     C34633   8.153   9.012  -0.380 -0.0115 -0.3475 -0.8363
  998MOL0     C34634   8.127   8.970  -0.524 -0.0673 -0.3167 -1.0093
  998MOL0     C34635   8.138   9.097  -0.606  0.1470 -0.1186  0.6811
  998MOL0     C34636   8.113   9.065  -0.749  0.5554  0.5388  0.1997
  998MOL0     C34637   8.116   9.194  -0.845 -0.8575 -0.0336 -0.1363
  998MOL0     C34638   8.013   9.294  -0.804  0.0771  0.1604 -0.3227
  998MOL0    Cl34639   8.029   9.448  -0.903  0.1616  0.2633  0.0930
  998MOL0     C34640   8.109   8.986   0.132 -0.1081  0.9365  0.2005
  998MOL0     C34641   8.107   8.977   0.270  0.0587 -0.5943  0.2341
  998MOL0     O34642   8.000   9.070   0.532 -0.0905 -0.4289  0.3245
  998MOL0     C34643   8.050   9.012   0.798  0.3961  0.7009  0.0269
  998MOL0     C34644   8.061   8.977   0.934 -0.9066 -0.8182  0.1443
  998MOL0     N34645   8.364   9.412   1.030 -0.1603  0.3836 -0.2084
  998MOL0     N34646   8.399   9.535   1.060 -0.1773  0.2338  0.4035
  998MOL0     C34647   9.569   9.479   1.196  0.2571  0.3288  0.8946
  998MOL0     C34648   9.714   9.478   1.210  0.1156 -0.1954 -0.8100
  998MOL0     C34649  10.150   9.559   1.246 -0.0799  0.5912  0.3355
  998MOL0     C34650  10.177   9.691   1.300  0.7499  0.1424  0.1554
  998MOL0     C34651  10.295   9.730   1.354  0.6636 -1.2212  1.2135
  998MOL0     C34652  10.401   9.651   1.360 -1.2121  0.5331 -0.2979
  998MOL0     O34653  10.514   9.688   1.425 -1.3338  0.0201  0.8694
  998MOL0     C34654  10.620   9.597   1.435  0.2459 -0.6512  0.4578
  998MOL0     C34655  10.736   9.658   1.516 -0.5612  0.5105 -0.2006
  998MOL0     C34656  10.732   9.806   1.541  0.1332 -0.7902 -0.0153
  998MOL0     C34657  10.655   9.836   1.669 -0.0047  0.1176  0.1097
  998MOL0     C34658  10.744   9.804   1.782 -0.0530 -0.2943 -0.6521
  998MOL0     C34659  10.827   9.773   1.867  0.0245  0.1840 -0.7147
  998MOL0     C34660  10.386   9.517   1.303  0.8470  0.9190  0.4649
  998MOL0     C34661  10.264   9.477   1.236  1.5706  0.3617 -0.0389
  998MOL0     C34662  10.262   9.339   1.179  0.6365 -0.3875 -0.5175
  998MOL0     H34663   9.779   9.800   1.160 -0.3753  1.8663  2.3667
  998MOL0     H34664   9.531   9.807   1.140 -1.8915 -1.1204 -1.8057
  998MOL0     H34665   9.312   9.426   1.073 -1.6109 -0.5465 -0.9212
  998MOL0     H34666   9.306   9.452   1.257  4.0604  1.9166 -0.5551
  998MOL0     H34667   9.103   9.391   1.154  1.5859 -0.2392  0.4304
  998MOL0     H34668   9.112   9.521   1.038  3.6197  0.7058 -0.5018
  998MOL0     H34669   9.113   9.692   1.225 -0.7877  0.6632  0.0573
  998MOL0     H34670   9.121   9.572   1.353 -1.7400 -2.4460  0.1126
  998MOL0     H34671   8.897   9.479   1.278  1.7984  0.2469  0.7541
  998MOL0     H34672   8.900   9.634   1.367 -0.8052 -0.4303  1.6638
  998MOL0     H34673   8.856   9.769   1.181  2.4154 -0.9251  4.2803
  998MOL0     H34674   8.895   9.626   1.074  0.3348  0.7894  0.5925
  998MOL0     H34675   8.660   9.703   1.076  1.4512  0.6278  0.2880
  998MOL0     H34676   8.687   9.535   1.126  1.1967  0.7560 -0.9135
  998MOL0     H34677   8.656   9.754   1.323 -2.8284  1.9446 -3.1443
  998MOL0     H34678   8.662   9.569   1.356  0.6243 -0.0893  0.8646
  998MOL0     H34679   8.441   9.642   1.378 -2.9252  0.8568 -1.9621
  998MOL0     H34680   8.433   9.746   1.241 -3.6496 -1.3193 -0.0918
  998MOL0     H34681   8.397   9.390   1.350 -4.0489  0.5265  0.3434
  998MOL0     H34682   8.400   9.149   1.060  3.0797 -1.8401  1.0042
  998MOL0     H34683   8.472   9.165   1.223 -0.5645  0.4639  0.6474
  998MOL0     H34684   8.272   9.150   1.330  0.4321 -2.5309  0.7461
  998MOL0     H34685   8.167   9.153   1.179 -0.2665  4.7289  3.3582
  998MOL0     H34686   8.296   8.924   1.323  0.1788  0.6152  0.4334
  998MOL0     H34687   8.324   8.934   1.143  1.0152 -0.7701  1.9188
  998MOL0     H34688   8.046   8.949   1.191 -0.4046 -0.3883 -1.2101
  998MOL0     H34689   8.107   8.820   1.293 -3.0032  0.5450 -0.8660
  998MOL0     H34690   8.112   8.644   0.909 -0.5385 -0.6459 -0.6112
  998MOL0     H34691   8.078   8.702   0.667 -0.4952 -0.5438  1.5598
  998MOL0     H34692   8.005   8.663   0.329  2.3801  0.0148  0.9782
  998MOL0     H34693   8.020   8.654   0.074  2.9024  0.1725 -0.9668
  998MOL0     H34694   8.093   9.045  -0.122 -0.0616  0.3821 -2.4305
  998MOL0     H34695   8.261   8.989  -0.135 -0.2192 -0.0597  4.8362
  998MOL0     H34696   8.185   8.823  -0.296  1.8029  2.0953 -1.0815
  998MOL0     H34697   8.021   8.866  -0.299  1.5403 -2.2898  0.0512
  998MOL0     H34698   8.092   9.101  -0.364  1.6315  1.3105 -3.0351
  998MOL0     H34699   8.254   9.053  -0.370 -0.5162  0.5772  0.7657
  998MOL0     H34700   8.027   8.926  -0.521  0.9359 -2.7380 -0.4743
  998MOL0     H34701   8.195   8.889  -0.551  1.1846  0.0684  0.8331
  998MOL0     H34702   8.240   9.131  -0.590  0.5777 -0.4948 -1.0440
  998MOL0     H34703   8.059   9.164  -0.570  0.3968  1.9578 -2.2726
  998MOL0     H34704   8.194   9.001  -0.785  1.9815  3.1457 -1.6150
  998MOL0     H34705   8.021   9.013  -0.776  1.0769  0.5786 -1.8780
  998MOL0     H34706   8.098   9.151  -0.944 -0.5415 -1.0543  0.2359
  998MOL0     H34707   8.212   9.245  -0.845 -0.4334 -0.8057 -0.3355
  998MOL0     H34708   7.911   9.268  -0.837 -0.9321  1.2072  1.8239
  998MOL0     H34709   8.006   9.316  -0.698 -3.8023 -4.1843  0.6753
  998MOL0     H34710   8.152   9.076   0.089 -1.7028  1.3694 -0.5732
  998MOL0     H34711   8.133   9.066   0.328  3.3271 -0.3957 -1.3267
  998MOL0     H34712   8.006   9.109   0.777 -1.6005  0.7099  3.4684
  998MOL0     H34713   8.061   9.056   1.008 -2.7153  0.9476 -1.5843
  998MOL0     H34714   9.514   9.385   1.206 -1.1208  1.1460  1.2677
  998MOL0     H34715   9.757   9.388   1.252 -0.4835  0.3583  1.0810
  998MOL0     H34716  10.100   9.767   1.297 -2.2023 -2.5876  1.1116
  998MOL0     H34717  10.318   9.833   1.380  1.4988 -0.5069 -2.0044
  998MOL0     H34718  10.652   9.573   1.333 -0.1522 -2.3283  0.6856
  998MOL0     H34719  10.581   9.503   1.476 -3.4495  0.5491  0.0253
  998MOL0     H34720  10.826   9.628   1.462  0.1706 -2.8846  2.5308
  998MOL0     H34721  10.740   9.602   1.610  1.2920 -1.8865 -1.6176
  998MOL0     H34722  10.682   9.848   1.453  0.5822 -2.4240 -1.1025
  998MOL0     H34723  10.833   9.844   1.555  0.8627 -1.9913 -1.6949
  998MOL0     H34724  10.634   9.942   1.681 -1.6525 -0.4012  2.3949
  998MOL0     H34725  10.556   9.789   1.673 -0.4817  1.1460  0.6466
  998MOL0     H34726  10.898   9.741   1.940 -3.0919  0.8253  2.9215
  998MOL0     H34727  10.467   9.445   1.290 -1.4646 -1.7765  0.0120
  998MOL0     H34728  10.265   9.359   1.072 -3.4424  0.8605 -0.5726
  998MOL0     H34729  10.340   9.276   1.223  1.0602  1.6495  1.8854
  998MOL0     H34730  10.167   9.287   1.192 -0.6043  1.0968 -3.0473
  999MOL0     O34731   6.043   8.938   9.171 -0.2258  0.4374 -0.5407
  999MOL0     C34732   6.026   9.007   9.067  0.3870  0.0673 -1.7971
  999MOL0     O34733   6.034   9.143   9.064 -0.9847  0.0212  0.1905
  999MOL0     C34734   6.096   9.198   9.170  0.5306  0.4988 -0.3713
  999MOL0     C34735   6.235   9.239   9.167  0.1918  0.1398 -0.5425
  999MOL0     C34736   6.290   9.296   9.285  0.3272 -0.5301  0.2236
  999MOL0     C34737   6.206   9.323   9.389  0.3700 -0.0647  1.0847
  999MOL0     O34738   6.261   9.383   9.497  0.4856 -0.0668 -0.1714
  999MOL0     C34739   6.199   9.498   9.556  0.7943  0.9984  0.5483
  999MOL0     C34740   6.280   9.552   9.672 -0.2031  0.0474  0.0970
  999MOL0     C34741   6.231   9.695   9.722 -0.2287 -0.0492  0.0127
  999MOL0     C34742   6.329   9.749   9.828 -0.6334 -0.2319 -0.9762
  999MOL0     C34743   6.480   9.769   9.787 -0.6733  0.4879  1.1686
  999MOL0     C34744   6.552   9.881   9.866 -0.3873  0.6996 -0.8070
  999MOL0     C34745   6.699   9.908   9.847  0.9231  0.9198  0.0867
  999MOL0     C34746   6.720  10.023   9.751  0.6105  0.0463 -0.2395
  999MOL0     N34747   6.863  10.040   9.715  0.9765  0.0663  0.5406
  999MOL0     C34748   6.934   9.950   9.646  0.7996 -0.0687  0.1978
  999MOL0     C34749   7.036  10.027   9.593 -0.3052 -0.0256 -1.3984
  999MOL0     C34750   7.160   9.979   9.515  0.0047 -0.2529  0.4864
  999MOL0     C34751   7.265   9.921   9.598 -0.4714  1.4040  0.2529
  999MOL0     C34752   7.318   9.999   9.723  0.7577 -1.1525  0.1442
  999MOL0     C34753   7.416   9.930   9.808  0.6662  0.8809 -0.5836
  999MOL0     O34754   7.482  10.031   9.892  0.2071  0.3809  0.2423
  999MOL0     C34755   7.603  10.097   9.852  0.1048  0.6038 -0.7828
  999MOL0     C34756   7.632  10.125   9.722 -0.4118 -0.2354  0.3942
  999MOL0     C34757   7.751  10.200   9.701  0.2984 -0.4203  0.2070
  999MOL0     C34758   7.850  10.226   9.797 -0.4124  0.4425 -0.2099
  999MOL0     C34759   7.989  10.265   9.765 -1.0544  0.7554 -0.1038
  999MOL0     O34760   8.074  10.283   9.878  0.8158 -0.1592  0.5877
  999MOL0     C34761   8.212  10.260   9.873  1.0477 -0.5898 -0.1687
  999MOL0     C34762   8.279  10.200   9.985 -0.1531  0.8338 -0.2181
  999MOL0     C34763   8.418  10.177   9.989  1.1767  0.9131 -0.7585
  999MOL0     C34764   8.498  10.221   9.885  0.4860  0.5340 -0.3330
  999MOL0     O34765   8.635  10.180   9.883  0.3918 -0.8907 -0.6239
  999MOL0     C34766   8.734  10.209   9.778  0.9419 -0.3724 -0.4062
  999MOL0     C34767   8.866  10.239   9.832  0.3875 -0.4984 -0.9687
  999MOL0     C34768   8.961  10.298   9.740  0.5754  0.0470  0.6329
  999MOL0     C34769   9.096  10.302   9.804 -0.1002 -0.0994  0.8954
  999MOL0     C34770   9.201  10.344   9.703  0.7566 -0.5095  0.3722
  999MOL0     C34771   9.340  10.316   9.751 -0.7948 -0.1657  1.1540
  999MOL0     C34772   9.390  10.387   9.882  0.9467  0.3967 -0.0013
  999MOL0     C34773   9.433  10.535   9.851  0.1432 -0.5425 -0.3376
  999MOL0    Cl34774   9.484  10.605  10.005 -0.0509 -0.3984 -0.1605
  999MOL0     C34775   8.432  10.282   9.781 -0.5148 -0.0640 -0.8666
  999MOL0     C34776   8.296  10.295   9.769 -0.2464  0.0664  0.0247
  999MOL0     O34777   8.026  10.260   9.647 -0.1670 -0.1710  0.0840
  999MOL0     C34778   7.820  10.171   9.926 -0.1838  0.0019 -0.2311
  999MOL0     C34779   7.701  10.113   9.949 -0.4297  0.7142 -0.6123
  999MOL0     N34780   7.016  10.154   9.617 -0.1030  0.7006 -0.9115
  999MOL0     N34781   6.919  10.165   9.696  0.6807 -0.1279 -0.6710
  999MOL0     C34782   6.076   9.283   9.392  0.4326  0.1193  1.2521
  999MOL0     C34783   6.022   9.228   9.277  0.8552 -1.2969 -0.9396
  999MOL0     C34784   5.962   8.952   8.947  0.1113 -0.6744 -0.8241
  999MOL0     C34785   5.876   9.039   8.875 -0.7666 -0.4137  0.0732
  999MOL0     C34786   5.833   8.995   8.750  0.7657 -0.2398 -0.9969
  999MOL0     C34787   5.875   8.875   8.691  0.2389 -0.1375 -0.2802
  999MOL0     O34788   5.832   8.835   8.565 -0.5434 -0.0399  0.5841
  999MOL0     C34789   5.848   8.933   8.461 -0.2448  0.6805 -0.2477
  999MOL0     C34790   5.951   8.886   8.358 -0.0062 -0.6723  1.6932
  999MOL0     C34791   5.890   8.787   8.258  0.6603 -0.1623  0.4369
  999MOL0     C34792   5.938   8.802   8.110  0.4885  0.0646  0.5899
  999MOL0     C34793   5.896   8.932   8.043 -0.1833 -0.4002  0.3058
  999MOL0     C34794   5.869   9.042   7.996 -0.7403  0.0718 -0.0205
  999MOL0     C34795   5.953   8.794   8.771  0.4184  0.0484  0.8559
  999MOL0     C34796   6.000   8.823   8.897  0.1647 -0.2980 -0.4956
  999MOL0     C34797   6.099   8.732   8.969 -0.2164 -0.1397  0.5588
  999MOL0     H34798   6.283   9.234   9.070 -3.0698 -2.4606 -2.2295
  999MOL0     H34799   6.391   9.333   9.299  0.0097  1.0665 -1.3821
  999MOL0     H34800   6.191   9.581   9.485  0.7975 -0.1413 -0.8331
  999MOL0     H34801   6.099   9.475   9.591  0.2930 -1.0578 -1.9384
  999MOL0     H34802   6.384   9.556   9.639 -0.7665  1.2722 -1.6830
  999MOL0     H34803   6.271   9.485   9.758 -2.2215  3.0827  2.4623
  999MOL0     H34804   6.142   9.675   9.783  0.2093 -0.6749  0.4579
  999MOL0     H34805   6.214   9.763   9.639 -0.3766  0.0272  0.1037
  999MOL0     H34806   6.278   9.844   9.849 -3.0246 -1.6059 -0.3071
  999MOL0     H34807   6.331   9.689   9.918 -1.1506 -0.5099 -1.1477
  999MOL0     H34808   6.536   9.677   9.804  0.6481  0.8268 -0.9593
  999MOL0     H34809   6.474   9.794   9.681 -0.8224  1.4553  1.3959
  999MOL0     H34810   6.503   9.979   9.862  2.5706  2.9248  5.2044
  999MOL0     H34811   6.545   9.848   9.970  1.0641 -1.6749 -1.3808
  999MOL0     H34812   6.748   9.821   9.803 -1.7638 -0.9572  0.5510
  999MOL0     H34813   6.740   9.926   9.947  0.3919  0.0234  0.4770
  999MOL0     H34814   6.662  10.012   9.658  0.5856  2.0641 -0.5151
  999MOL0     H34815   6.699  10.122   9.793  0.8370  1.0265 -2.2690
  999MOL0     H34816   6.911   9.844   9.638  2.8052 -0.5620  0.2395
  999MOL0     H34817   7.121   9.903   9.446  1.8373 -1.2193  0.4700
  999MOL0     H34818   7.203  10.061   9.455  0.6776 -0.0581  1.2257
  999MOL0     H34819   7.219   9.832   9.641 -1.3620  2.7271  2.1316
  999MOL0     H34820   7.345   9.878   9.537 -1.5697 -0.4973  0.0856
  999MOL0     H34821   7.228  10.029   9.777  0.5198 -3.1481  0.9679
  999MOL0     H34822   7.365  10.092   9.689 -3.7419  1.2129 -0.2466
  999MOL0     H34823   7.477   9.876   9.734 -2.7694 -2.6277 -1.2083
  999MOL0     H34824   7.358   9.856   9.863 -2.0999  0.7940 -3.3483
  999MOL0     H34825   7.564  10.097   9.642 -0.5945 -1.0294  0.8162
  999MOL0     H34826   7.776  10.218   9.596  0.2406 -0.7315  0.1386
  999MOL0     H34827   8.228  10.151  10.067  0.0828 -2.6998 -1.9912
  999MOL0     H34828   8.470  10.119  10.064 -1.2402  0.1755  0.4496
  999MOL0     H34829   8.737  10.129   9.704 -1.3222  1.3864 -2.5891
  999MOL0     H34830   8.705  10.287   9.707  1.2086  0.7283  0.6663
  999MOL0     H34831   8.865  10.302   9.921 -2.1506 -0.9059 -0.6185
  999MOL0     H34832   8.900  10.146   9.878 -3.3761  0.4530  4.7859
  999MOL0     H34833   8.951  10.240   9.647 -2.6693 -0.7838  1.3798
  999MOL0     H34834   8.928  10.402   9.727  0.6317  0.1167  1.0448
  999MOL0     H34835   9.133  10.203   9.834  2.3722  1.1159  2.1205
  999MOL0     H34836   9.105  10.367   9.891  0.4022  1.9074 -0.5908
  999MOL0     H34837   9.195  10.448   9.669  2.3406 -1.0455 -1.7078
  999MOL0     H34838   9.192  10.281   9.615  0.2158  3.7647 -2.9410
  999MOL0     H34839   9.352  10.208   9.765 -1.2834  0.0821  4.2660
  999MOL0     H34840   9.409  10.345   9.671 -1.0981 -0.7472  0.6706
  999MOL0     H34841   9.471  10.337   9.935  1.4017  1.2576  0.1219
  999MOL0     H34842   9.305  10.395   9.950 -1.0929 -0.4630 -2.2834
  999MOL0     H34843   9.499  10.552   9.766 -1.4114  0.6381 -1.3653
  999MOL0     H34844   9.344  10.580   9.807  0.3883 -0.6416 -0.9571
  999MOL0     H34845   8.485  10.321   9.695 -2.1196  1.4345 -1.2433
  999MOL0     H34846   8.257  10.329   9.674 -0.7680 -1.2106 -0.2472
  999MOL0     H34847   7.890  10.174  10.009 -1.4702  4.1524  0.9032
  999MOL0     H34848   7.677  10.082  10.051  0.7614 -0.7241 -0.7266
  999MOL0     H34849   6.011   9.307   9.476 -0.7765  3.0721 -0.3710
  999MOL0     H34850   5.914   9.217   9.281  0.3337  2.4955  0.2345
  999MOL0     H34851   5.839   9.134   8.913  1.7085  1.1426 -1.1783
  999MOL0     H34852   5.760   9.048   8.691  1.9613  1.0469 -1.3541
  999MOL0     H34853   5.892   9.021   8.509 -1.0552  1.8008 -1.4895
  999MOL0     H34854   5.760   8.951   8.399 -0.9409 -2.1137 -0.2068
  999MOL0     H34855   6.032   8.831   8.409  1.1549  1.3682  2.1435
  999MOL0     H34856   5.992   8.970   8.302  0.0878 -1.6288  0.2728
  999MOL0     H34857   5.781   8.796   8.267  0.9088  0.9084  3.2191
  999MOL0     H34858   5.914   8.688   8.298  5.1732  1.5399  2.5643
  999MOL0     H34859   6.047   8.796   8.101  0.5573 -1.3875  2.0358
  999MOL0     H34860   5.891   8.719   8.056 -1.4693  0.5002  1.5257
  999MOL0     H34861   5.877   9.144   7.965 -2.7368  0.9439  2.0575
  999MOL0     H34862   5.977   8.693   8.738 -3.6295 -0.6006 -0.6481
  999MOL0     H34863   6.195   8.785   8.974 -0.7030  1.0966 -1.7884
  999MOL0     H34864   6.053   8.704   9.065 -1.1006 -1.5653 -0.2451
  999MOL0     H34865   6.106   8.635   8.919 -6.7641 -0.9334  0.3979
 1000MOL0     O34866   0.402  11.405  11.014  0.2941  0.0930 -0.6835
 1000MOL0     C34867   0.344  11.428  11.122 -0.6415  0.0423  0.5464
 1000MOL0     O34868   0.263  11.542  11.129 -0.4215 -0.0813 -1.0751
 1000MOL0     C34869   0.286  11.639  11.032  0.4380  0.7942 -0.5706
 1000MOL0     C34870   0.396  11.727  11.046 -0.3103 -0.8707  0.2360
 1000MOL0     C34871   0.419  11.833  10.954  0.3113 -0.1140  0.2023
 1000MOL0     C34872   0.333  11.844  10.843 -0.2310  0.9965  0.3524
 1000MOL0     O34873   0.352  11.943  10.754 -0.1178 -0.1832  0.6337
 1000MOL0     C34874   0.449  12.050  10.760  0.4335  0.1354 -0.2145
 1000MOL0     C34875   0.413  12.149  10.886 -0.1420 -0.3857 -0.1373
 1000MOL0     C34876   0.488  12.283  10.861  0.2002  0.9128 -0.3525
 1000MOL0     C34877   0.640  12.276  10.904  0.0572 -0.1316 -0.4798
 1000MOL0     C34878   0.702  12.421  10.937 -0.2247 -0.5480 -1.3138
 1000MOL0     C34879   0.857  12.411  10.970  0.3870 -0.8320 -0.4144
 1000MOL0     C34880   0.870  12.407  11.119 -0.1562  0.3917  0.1954
 1000MOL0     C34881   1.017  12.390  11.171 -0.2570 -0.3845 -0.4070
 1000MOL0     N34882   1.023  12.341  11.309  0.5630  0.1423  0.7351
 1000MOL0     C34883   0.992  12.427  11.416  0.7976 -1.0190  0.6934
 1000MOL0     C34884   0.978  12.339  11.516  0.5067 -0.5061 -1.0551
 1000MOL0     C34885   0.937  12.392  11.648 -0.7137  0.2004 -1.0480
 1000MOL0     C34886   1.046  12.437  11.745  0.5005  0.1556 -0.5424
 1000MOL0     C34887   0.993  12.532  11.854  0.9788  0.9243 -0.4717
 1000MOL0     C34888   0.875  12.474  11.952  0.6286 -0.3086  1.3644
 1000MOL0     O34889   0.749  12.437  11.884 -0.1746 -0.3172  0.1057
 1000MOL0     C34890   0.644  12.477  11.961  0.8473 -0.0802  0.0150
 1000MOL0     C34891   0.552  12.563  11.911  0.3407  0.2268 -0.0570
 1000MOL0     C34892   0.440  12.596  11.985  1.0559  0.2836 -0.4898
 1000MOL0     C34893   0.413  12.537  12.113 -0.3493 -0.3832 -0.3262
 1000MOL0     C34894   0.288  12.579  12.183  0.1162 -0.1761 -0.2506
 1000MOL0     O34895   0.209  12.673  12.125 -0.8736 -0.9955 -0.4295
 1000MOL0     C34896   0.090  12.726  12.173  0.1906  1.1928 -1.3311
 1000MOL0     C34897   0.031  12.825  12.096  0.6361 -1.0895 -0.3035
 1000MOL0     C34898  -0.077  12.906  12.155  0.3466  0.1157 -0.4339
 1000MOL0     C34899  -0.124  12.882  12.285 -0.5934  0.3417 -0.2878
 1000MOL0     O34900  -0.233  12.957  12.326 -0.4217 -0.5431 -0.2028
 1000MOL0     C34901  -0.349  12.881  12.337 -0.1937  0.3778 -0.1657
 1000MOL0     C34902  -0.367  12.832  12.481  0.7764 -0.8533  0.6783
 1000MOL0     C34903  -0.468  12.904  12.549  1.0693 -0.7270 -0.2358
 1000MOL0     C34904  -0.416  13.049  12.590  0.3408 -0.2714 -0.8098
 1000MOL0     C34905  -0.532  13.140  12.636  0.4267  0.2732 -0.2053
 1000MOL0     C34906  -0.606  13.210  12.522  0.4770 -0.0942  0.5087
 1000MOL0     C34907  -0.733  13.271  12.582  0.1551 -0.2377 -0.9824
 1000MOL0     C34908  -0.809  13.367  12.491 -0.6009 -0.3878  0.1138
 1000MOL0    Cl34909  -0.695  13.488  12.418  0.3214  0.0020 -0.3822
 1000MOL0     C34910  -0.058  12.786  12.362  0.1221 -0.0132 -0.3723
 1000MOL0     C34911   0.044  12.705  12.305  0.1698 -0.1199 -0.2929
 1000MOL0     O34912   0.264  12.515  12.289  0.0441  0.5558 -0.5096
 1000MOL0     C34913   0.515  12.451  12.169  0.3472  0.7306 -0.4974
 1000MOL0     C34914   0.629  12.418  12.096  0.0611 -0.6164  0.9093
 1000MOL0     N34915   0.994  12.207  11.471 -0.9868  0.4598 -0.0745
 1000MOL0     N34916   1.014  12.208  11.347 -0.3238 -0.3123  0.6208
 1000MOL0     C34917   0.226  11.759  10.824 -0.0988 -0.3476  0.1717
 1000MOL0     C34918   0.216  11.646  10.912 -0.4017 -0.3053  0.0132
 1000MOL0     C34919   0.362  11.348  11.248  0.0486 -0.7299  0.8010
 1000MOL0     C34920   0.320  11.415  11.366  0.4259  0.1675  0.7406
 1000MOL0     C34921   0.335  11.348  11.487  0.2989  0.5257 -0.5345
 1000MOL0     C34922   0.405  11.231  11.500  0.6308  0.2864 -0.3196
 1000MOL0     O34923   0.427  11.170  11.622 -0.8402  0.3524 -0.2532
 1000MOL0     C34924   0.460  11.253  11.737  0.8663  0.3022  0.0910
 1000MOL0     C34925   0.512  11.159  11.842 -0.2519 -0.4558 -0.1952
 1000MOL0     C34926   0.515  11.226  11.976  0.2105  1.8090  0.0587
 1000MOL0     C34927   0.604  11.346  11.999  0.2402 -0.0720  0.1333
 1000MOL0     C34928   0.728  11.335  11.931  0.7854  0.3206  0.0382
 1000MOL0     C34929   0.832  11.317  11.871 -0.3195 -0.1311 -0.0433
 1000MOL0     C34930   0.436  11.164  11.381 -0.2930 -0.2362  0.3269
 1000MOL0     C34931   0.420  11.225  11.250  0.4149 -0.4504 -1.0035
 1000MOL0     C34932   0.453  11.133  11.133 -0.2216  0.6993 -0.5057
 1000MOL0     H34933   0.467  11.705  11.125  0.3440  1.5466  0.3850
 1000MOL0     H34934   0.506  11.898  10.961 -1.3508  2.4761 -1.2591
 1000MOL0     H34935   0.549  12.005  10.755  0.8444  0.5471  2.7474
 1000MOL0     H34936   0.425  12.100  10.665 -1.0850 -1.3980 -0.7055
 1000MOL0     H34937   0.450  12.110  10.981  0.3044 -3.3535 -1.4237
 1000MOL0     H34938   0.307  12.174  10.886 -0.0394  0.0678  0.6012
 1000MOL0     H34939   0.433  12.366  10.908 -1.4196  1.4763 -3.0304
 1000MOL0     H34940   0.494  12.309  10.755 -1.6254  2.0255 -0.2349
 1000MOL0     H34941   0.650  12.201  10.984 -1.1760 -0.4057 -0.5698
 1000MOL0     H34942   0.692  12.237  10.816 -0.4602  0.9597 -1.2775
 1000MOL0     H34943   0.699  12.480  10.845 -3.6847  4.1953  1.4113
 1000MOL0     H34944   0.642  12.471  11.014  0.6043 -0.7262 -0.5409
 1000MOL0     H34945   0.893  12.324  10.914  1.3648 -0.3755 -0.5331
 1000MOL0     H34946   0.920  12.491  10.928 -0.6518 -0.9166 -2.2523
 1000MOL0     H34947   0.814  12.318  11.149  1.8191 -1.5585 -1.5634
 1000MOL0     H34948   0.822  12.488  11.176 -0.1195 -0.5725  1.6298
 1000MOL0     H34949   1.068  12.324  11.100  1.1725  2.3484 -2.0765
 1000MOL0     H34950   1.068  12.486  11.169 -1.3208  0.1875 -2.4047
 1000MOL0     H34951   0.971  12.533  11.413 -3.4280 -1.6336  1.8762
 1000MOL0     H34952   0.867  12.476  11.636 -1.9455 -0.5737  0.3923
 1000MOL0     H34953   0.885  12.309  11.695  0.0851  1.8400  3.1245
 1000MOL0     H34954   1.091  12.351  11.797 -1.6982  0.0077  1.2385
 1000MOL0     H34955   1.127  12.474  11.681  0.7749 -0.3524 -0.4988
 1000MOL0     H34956   0.951  12.622  11.807 -2.4506 -1.5990 -2.7451
 1000MOL0     H34957   1.076  12.556  11.921 -1.1426  1.2266  2.2202
 1000MOL0     H34958   0.857  12.559  12.019  3.1448  3.7281 -2.5144
 1000MOL0     H34959   0.921  12.393  12.010  1.0954 -2.4783 -1.8258
 1000MOL0     H34960   0.572  12.609  11.814  1.9255 -2.9965 -1.3834
 1000MOL0     H34961   0.375  12.678  11.958 -2.6475 -1.9877  0.7166
 1000MOL0     H34962   0.068  12.838  11.995 -3.1641  0.2437 -1.7180
 1000MOL0     H34963  -0.127  12.990  12.107  0.4685  1.1057  1.1050
 1000MOL0     H34964  -0.435  12.940  12.304 -3.7542 -2.8235  2.5120
 1000MOL0     H34965  -0.351  12.798  12.266 -0.7899 -0.3643  0.6852
 1000MOL0     H34966  -0.364  12.723  12.490  4.3040 -0.8723  0.6217
 1000MOL0     H34967  -0.275  12.853  12.536  2.1723  0.4542 -1.9197
 1000MOL0     H34968  -0.556  12.917  12.485  2.0478 -0.9345 -1.6721
 1000MOL0     H34969  -0.496  12.843  12.635 -0.1322  0.9094  0.5868
 1000MOL0     H34970  -0.369  13.090  12.500  1.4605 -0.1335 -0.1754
 1000MOL0     H34971  -0.338  13.062  12.665 -1.0770 -0.0850  0.6768
 1000MOL0     H34972  -0.478  13.224  12.681  0.7686  0.3798 -0.7938
 1000MOL0     H34973  -0.595  13.080  12.701 -0.8354  1.2746 -0.4751
 1000MOL0     H34974  -0.548  13.287  12.470 -0.7920  1.5047  1.3602
 1000MOL0     H34975  -0.641  13.127  12.459 -0.2913 -0.7169  1.7215
 1000MOL0     H34976  -0.690  13.342  12.654  1.4454  1.0521 -2.9178
 1000MOL0     H34977  -0.796  13.204  12.641  0.5034  2.0859  2.3228
 1000MOL0     H34978  -0.866  13.312  12.416 -1.0057 -3.0155  2.1781
 1000MOL0     H34979  -0.879  13.438  12.537  2.1641  0.8104  2.8214
 1000MOL0     H34980  -0.086  12.755  12.462 -2.3540 -0.3042 -1.0973
 1000MOL0     H34981   0.086  12.619  12.357  2.6099  0.6085 -0.9124
 1000MOL0     H34982   0.496  12.401  12.263 -1.1638  0.0853 -1.1023
 1000MOL0     H34983   0.714  12.355  12.121  0.4834 -0.8844 -1.0831
 1000MOL0     H34984   0.160  11.748  10.738  1.4075  1.0559 -1.2230
 1000MOL0     H34985   0.137  11.576  10.888  0.1390 -0.8464 -0.1978
 1000MOL0     H34986   0.264  11.507  11.362 -0.6112 -0.4980 -1.4920
 1000MOL0     H34987   0.291  11.395  11.574  1.3913 -1.2462  1.0484
 1000MOL0     H34988   0.373  11.298  11.785  0.5990 -1.5917  1.4927
 1000MOL0     H34989   0.534  11.327  11.706 -0.9600  2.6738  1.0256
 1000MOL0     H34990   0.616  11.134  11.817  0.1214  0.9581 -0.1526
 1000MOL0     H34991   0.468  11.059  11.837  0.2008 -0.6761  0.0625
 1000MOL0     H34992   0.535  11.140  12.041 -1.5609  0.9621 -0.4629
 1000MOL0     H34993   0.415  11.261  12.001 -0.4585  0.6416 -0.8697
 1000MOL0     H34994   0.559  11.440  11.966 -1.1156  0.2671  2.7273
 1000MOL0     H34995   0.635  11.365  12.102  1.9595  0.1599 -0.3962
 1000MOL0     H34996   0.933  11.307  11.836 -0.2706 -0.8219  0.2821
 1000MOL0     H34997   0.484  11.068  11.398  0.7240  0.7024  3.6495
 1000MOL0     H34998   0.489  11.193  11.049  0.2733  0.8387 -0.1980
 1000MOL0     H34999   0.545  11.089  11.173 -2.0071 -0.0818  3.1114
 1000MOL0     H35000   0.380  11.060  11.098  0.2479  0.1279 -0.3113
 1001MOL0     O35001   8.200  10.202   5.542  0.2888 -0.2580  0.1233
 1001MOL0     C35002   8.263  10.308   5.517  0.4016  0.0800 -0.1255
 1001MOL0     O35003   8.207  10.435   5.481 -0.9417  0.4794 -0.0299
 1001MOL0     C35004   8.079  10.446   5.514 -0.6721 -0.0793  0.0451
 1001MOL0     C35005   7.973  10.386   5.442 -0.2290 -0.2733 -0.7516
 1001MOL0     C35006   7.841  10.402   5.483  0.2662  0.1502 -0.2374
 1001MOL0     C35007   7.802  10.482   5.590 -0.1766 -0.2053 -1.3159
 1001MOL0     O35008   7.667  10.493   5.604  0.5089 -0.6247 -0.1203
 1001MOL0     C35009   7.615  10.612   5.673  0.0982  0.1312 -0.4815
 1001MOL0     C35010   7.490  10.637   5.605  1.0428 -0.2140 -0.0992
 1001MOL0     C35011   7.421  10.761   5.669  0.1084 -0.7188  0.5967
 1001MOL0     C35012   7.411  10.875   5.554 -0.6787  0.3816  0.0114
 1001MOL0     C35013   7.289  10.960   5.593  0.0500  0.4171 -0.1257
 1001MOL0     C35014   7.248  11.067   5.494  0.5790  0.5904  0.1993
 1001MOL0     C35015   7.340  11.192   5.497 -0.0912  0.5636  0.5280
 1001MOL0     C35016   7.321  11.295   5.600 -0.3419 -0.1515 -0.8097
 1001MOL0     N35017   7.420  11.400   5.590  0.5048 -0.0239 -0.4313
 1001MOL0     C35018   7.546  11.403   5.533 -0.4168 -0.5150  0.5327
 1001MOL0     C35019   7.587  11.537   5.542 -0.7207  0.2567  0.1114
 1001MOL0     C35020   7.709  11.590   5.457 -0.2911  0.1049  0.2750
 1001MOL0     C35021   7.829  11.648   5.534 -0.3505 -0.2184  0.0653
 1001MOL0     C35022   7.927  11.532   5.585  0.1655 -0.4843 -0.3258
 1001MOL0     C35023   7.969  11.441   5.470  1.0934 -0.7911 -0.2378
 1001MOL0     O35024   8.022  11.510   5.358  0.1110 -0.0070  0.4998
 1001MOL0     C35025   8.056  11.438   5.246 -0.5281  0.3879 -0.5713
 1001MOL0     C35026   8.023  11.304   5.231 -0.4182  0.4575  1.1091
 1001MOL0     C35027   8.064  11.235   5.108  0.4011  0.4284  0.2148
 1001MOL0     C35028   8.118  11.304   5.003  0.3245 -0.0860 -0.1065
 1001MOL0     C35029   8.135  11.233   4.879 -0.2939  1.1078  0.4637
 1001MOL0     O35030   8.158  11.095   4.892  1.0508 -0.5148  0.3693
 1001MOL0     C35031   8.185  11.021   4.778  0.1497  0.6063  0.6825
 1001MOL0     C35032   8.312  11.013   4.722  0.3474 -0.4033  0.0852
 1001MOL0     C35033   8.337  10.944   4.602  0.2681 -0.7066  0.5701
 1001MOL0     C35034   8.235  10.892   4.524  0.8015 -0.3509 -0.1569
 1001MOL0     O35035   8.239  10.824   4.397 -0.1729  0.6040 -0.3239
 1001MOL0     C35036   8.370  10.804   4.325 -0.4081  0.0848 -0.5679
 1001MOL0     C35037   8.404  10.922   4.242 -0.8060 -0.6406  0.9906
 1001MOL0     C35038   8.510  10.891   4.137 -0.4226 -0.1928  0.6466
 1001MOL0     C35039   8.608  11.019   4.146  0.0767  0.7558  0.0690
 1001MOL0     C35040   8.725  10.989   4.055  1.3714 -0.3913  0.0454
 1001MOL0     C35041   8.824  11.104   4.081 -0.1685  0.1779 -0.1257
 1001MOL0     C35042   8.962  11.071   4.018 -0.6321  0.4329  0.7587
 1001MOL0     C35043   9.056  11.196   4.044 -0.8370 -0.4019  0.2977
 1001MOL0    Cl35044   9.062  11.231   4.207  0.3097 -0.1915 -0.1863
 1001MOL0     C35045   8.098  10.910   4.580  0.3289  0.9079 -0.7426
 1001MOL0     C35046   8.074  10.965   4.700  0.2883 -0.8658 -1.1919
 1001MOL0     O35047   8.128  11.294   4.778 -0.0236  0.3432  0.1387
 1001MOL0     C35048   8.152  11.439   5.014 -0.8361 -0.4481 -0.9881
 1001MOL0     C35049   8.123  11.501   5.138 -0.7378  0.1282  0.9302
 1001MOL0     N35050   7.484  11.605   5.599  0.2730  0.2490  0.1045
 1001MOL0     N35051   7.390  11.521   5.636 -0.3061 -0.5012 -1.2126
 1001MOL0     C35052   7.908  10.537   5.662  0.0168  0.1224  0.3942
 1001MOL0     C35053   8.043  10.520   5.625  0.7531  0.0316 -0.3041
 1001MOL0     C35054   8.419  10.307   5.515 -0.2318  0.4901 -0.4081
 1001MOL0     C35055   8.493  10.426   5.483 -0.2638 -0.6660 -0.9942
 1001MOL0     C35056   8.627  10.419   5.469 -0.0995  0.2804 -0.2382
 1001MOL0     C35057   8.699  10.302   5.487  0.1719 -0.0962  0.1256
 1001MOL0     O35058   8.826  10.294   5.472 -0.7427  0.4279 -0.2160
 1001MOL0     C35059   8.874  10.348   5.350  1.0426  0.4074 -0.0284
 1001MOL0     C35060   8.850  10.244   5.235 -0.6919  0.0931 -0.4287
 1001MOL0     C35061   8.974  10.147   5.229 -0.1050 -1.1417  0.6700
 1001MOL0     C35062   8.988  10.070   5.093 -0.4260 -0.8868 -0.4076
 1001MOL0     C35063   9.041  10.154   4.991  0.2297 -0.2667  0.4722
 1001MOL0     C35064   9.092  10.228   4.912 -0.7343  0.6940 -0.2875
 1001MOL0     C35065   8.631  10.183   5.537 -0.7382  0.0496  0.0501
 1001MOL0     C35066   8.495  10.184   5.549  1.4153 -0.4817 -0.1183
 1001MOL0     C35067   8.428  10.057   5.605  0.0570  0.6450  1.1315
 1001MOL0     H35068   8.007  10.316   5.367  2.1643  1.5320 -1.4706
 1001MOL0     H35069   7.775  10.341   5.422  0.3891  0.5085 -0.7313
 1001MOL0     H35070   7.604  10.592   5.779 -2.0248  0.3672 -0.6122
 1001MOL0     H35071   7.683  10.697   5.659  0.0060  0.9135  2.9845
 1001MOL0     H35072   7.433  10.544   5.602  1.7718 -0.6825 -3.0686
 1001MOL0     H35073   7.521  10.657   5.502  2.5540 -2.4316 -0.1570
 1001MOL0     H35074   7.466  10.803   5.760  1.7148 -3.0223  0.9497
 1001MOL0     H35075   7.321  10.730   5.700  0.9530 -2.0568  2.1605
 1001MOL0     H35076   7.502  10.935   5.565 -0.1800 -0.4812  0.7470
 1001MOL0     H35077   7.387  10.833   5.456 -1.2765  0.9828 -0.1075
 1001MOL0     H35078   7.208  10.887   5.590 -2.8729  3.3319  1.8203
 1001MOL0     H35079   7.300  11.019   5.684 -2.4168  0.4379  0.2149
 1001MOL0     H35080   7.260  11.027   5.393 -0.0561 -0.3800  0.5034
 1001MOL0     H35081   7.141  11.084   5.506  0.3102  1.0896 -2.3234
 1001MOL0     H35082   7.331  11.235   5.397 -1.7459 -2.1091 -0.5858
 1001MOL0     H35083   7.439  11.147   5.508 -0.3668 -0.4771 -0.8826
 1001MOL0     H35084   7.226  11.349   5.601  0.7739  1.9532  0.4853
 1001MOL0     H35085   7.331  11.255   5.701  1.8897  0.5019 -0.7204
 1001MOL0     H35086   7.593  11.323   5.477 -0.3622 -1.0541  1.3298
 1001MOL0     H35087   7.736  11.501   5.399  0.3311  0.6498 -0.3009
 1001MOL0     H35088   7.679  11.667   5.385 -2.7098 -0.2208  0.8477
 1001MOL0     H35089   7.880  11.718   5.467  0.7658  0.4277  1.5182
 1001MOL0     H35090   7.798  11.709   5.619  0.4763 -0.2054  0.3715
 1001MOL0     H35091   7.884  11.462   5.657 -0.2111 -2.3135 -2.2474
 1001MOL0     H35092   8.021  11.560   5.635 -1.1930  2.1880  0.9725
 1001MOL0     H35093   7.883  11.376   5.449 -1.3512  1.9882  0.5590
 1001MOL0     H35094   8.048  11.370   5.495  0.0290 -4.9501 -6.2742
 1001MOL0     H35095   7.963  11.244   5.299  0.3634 -1.2824  0.3384
 1001MOL0     H35096   8.040  11.131   5.085 -0.4470  0.2802  1.6473
 1001MOL0     H35097   8.397  11.063   4.768  1.1452 -0.0469 -1.7005
 1001MOL0     H35098   8.439  10.941   4.563  0.7000 -1.4111  1.6959
 1001MOL0     H35099   8.453  10.774   4.390  0.8038  2.0126 -1.1226
 1001MOL0     H35100   8.355  10.734   4.243 -1.2443  0.6864 -0.9380
 1001MOL0     H35101   8.315  10.955   4.188  0.4963 -0.3195 -1.1033
 1001MOL0     H35102   8.442  11.007   4.300  1.0621 -1.6086  1.2572
 1001MOL0     H35103   8.558  10.798   4.167 -1.5046 -1.4493 -1.2779
 1001MOL0     H35104   8.479  10.884   4.032  2.4628  3.0784 -0.6147
 1001MOL0     H35105   8.640  11.030   4.250 -2.6113  1.4707  0.8879
 1001MOL0     H35106   8.551  11.111   4.130  2.3865  2.5379  1.4192
 1001MOL0     H35107   8.680  11.001   3.955 -2.1869 -1.3378  1.3802
 1001MOL0     H35108   8.777  10.895   4.073  1.7032  0.0891  1.7032
 1001MOL0     H35109   8.783  11.197   4.041  0.9735 -0.0186 -1.8387
 1001MOL0     H35110   8.841  11.114   4.189  4.9547  0.2846 -0.6941
 1001MOL0     H35111   8.954  11.048   3.911  3.8099  1.0911  0.0896
 1001MOL0     H35112   9.014  10.982   4.053  3.5568  1.6554 -1.5517
 1001MOL0     H35113   9.160  11.172   4.019 -1.1074 -1.7384  0.3726
 1001MOL0     H35114   9.028  11.282   3.983  2.6724  1.3128  0.8918
 1001MOL0     H35115   8.009  10.878   4.527 -1.2382  2.2865  0.9130
 1001MOL0     H35116   7.974  10.990   4.735  1.3923  0.0223  1.6710
 1001MOL0     H35117   8.213  11.491   4.941 -1.3816  2.4921  0.4998
 1001MOL0     H35118   8.156  11.603   5.159 -1.4977  0.5228  0.2500
 1001MOL0     H35119   7.891  10.611   5.740  0.3165 -0.7625  1.3206
 1001MOL0     H35120   8.112  10.588   5.675 -0.7958  1.5753 -0.1368
 1001MOL0     H35121   8.446  10.519   5.451  2.5153  1.6925  1.1813
 1001MOL0     H35122   8.689  10.505   5.446 -2.3928  2.1352  0.1246
 1001MOL0     H35123   8.982  10.363   5.362  1.4643 -2.8357  1.4744
 1001MOL0     H35124   8.827  10.444   5.326 -1.3922 -0.0911  2.2664
 1001MOL0     H35125   8.844  10.305   5.144 -0.9245  0.6383 -0.0596
 1001MOL0     H35126   8.749  10.203   5.247 -0.0487 -0.9968  1.6677
 1001MOL0     H35127   8.976  10.072   5.310 -0.8619 -3.3869 -1.2779
 1001MOL0     H35128   9.065  10.203   5.254  1.2020 -2.1690 -1.5085
 1001MOL0     H35129   9.057   9.989   5.118 -3.3098 -3.0431  1.1253
 1001MOL0     H35130   8.896  10.020   5.064  0.0773 -0.7970 -2.2962
 1001MOL0     H35131   9.141  10.291   4.840  1.0418  0.2881  0.5338
 1001MOL0     H35132   8.687  10.096   5.569  0.0570  0.6325  0.2817
 1001MOL0     H35133   8.354  10.014   5.538  0.6288 -4.9821  3.5839
 1001MOL0     H35134   8.504   9.979   5.613 -0.6926 -0.1406  0.6238
 1001MOL0     H35135   8.381  10.071   5.703 -2.5271  0.0350  0.0495
 1002MOL0     O35136   6.241   6.707   8.823  0.3601  0.4952  0.1835
 1002MOL0     C35137   6.155   6.633   8.766  0.1386  1.0397  0.4275
 1002MOL0     O35138   6.085   6.532   8.816 -0.5891 -0.2916 -0.7556
 1002MOL0     C35139   6.075   6.534   8.956  0.0058 -0.5479  0.3592
 1002MOL0     C35140   5.994   6.625   9.026  0.8849  0.4844  0.0925
 1002MOL0     C35141   5.979   6.609   9.163  0.4452  0.5553 -0.1927
 1002MOL0     C35142   6.022   6.494   9.228  0.5194  0.5048 -0.3222
 1002MOL0     O35143   5.994   6.481   9.369  0.1397  0.7127 -0.1297
 1002MOL0     C35144   5.866   6.443   9.406  0.3693  0.2403 -0.3605
 1002MOL0     C35145   5.849   6.293   9.385 -0.1362 -0.0931  0.5191
 1002MOL0     C35146   5.698   6.253   9.406 -0.0073  0.2484 -0.3669
 1002MOL0     C35147   5.645   6.293   9.548  0.2749  0.3875 -1.0988
 1002MOL0     C35148   5.528   6.211   9.619  0.8711  0.2671 -0.0318
 1002MOL0     C35149   5.396   6.233   9.547  0.3525 -0.0751  0.5271
 1002MOL0     C35150   5.286   6.134   9.574 -1.5142 -0.4540 -0.2946
 1002MOL0     C35151   5.217   6.154   9.709  0.6967  0.2682 -0.7277
 1002MOL0     N35152   5.112   6.047   9.732 -0.2425 -0.0631 -0.5421
 1002MOL0     C35153   5.145   5.928   9.783  0.0471  0.9345 -0.5488
 1002MOL0     C35154   5.030   5.868   9.829  0.2701 -0.6718 -0.5635
 1002MOL0     C35155   5.010   5.733   9.895 -0.3243  0.1601 -0.6174
 1002MOL0     C35156   5.034   5.748  10.039 -0.5850  0.1565  0.2088
 1002MOL0     C35157   5.152   5.666  10.091 -0.0404  0.6509 -0.6817
 1002MOL0     C35158   5.106   5.521  10.111  0.3250  0.6728 -0.2461
 1002MOL0     O35159   5.023   5.506  10.230  0.3559 -0.3138  0.6077
 1002MOL0     C35160   4.944   5.392  10.232 -0.2059  0.5535  1.0454
 1002MOL0     C35161   4.858   5.385  10.336  0.5357 -0.8918  0.0424
 1002MOL0     C35162   4.776   5.276  10.360 -0.0305 -0.4725 -0.1881
 1002MOL0     C35163   4.776   5.163  10.274 -0.2207  0.0084 -0.6302
 1002MOL0     C35164   4.687   5.045  10.295  0.4825  0.1724 -0.8270
 1002MOL0     O35165   4.606   5.045  10.405  0.1579 -0.8598 -0.0581
 1002MOL0     C35166   4.522   4.953  10.435 -0.7814 -0.2832 -0.3495
 1002MOL0     C35167   4.473   4.843  10.350  1.0740  0.4062 -0.6231
 1002MOL0     C35168   4.380   4.757  10.404  0.2921 -0.1668 -0.5374
 1002MOL0     C35169   4.341   4.764  10.541 -0.0966 -0.3423 -0.1711
 1002MOL0     O35170   4.257   4.670  10.600 -1.1051 -0.2563  0.3126
 1002MOL0     C35171   4.298   4.524  10.580  1.0435 -0.3999  0.0026
 1002MOL0     C35172   4.283   4.468  10.717  0.1288 -0.0110  0.2714
 1002MOL0     C35173   4.338   4.551  10.838 -0.5789  0.3001  1.1218
 1002MOL0     C35174   4.492   4.572  10.833 -0.5268 -1.6560  0.0897
 1002MOL0     C35175   4.555   4.604  10.973  0.2042 -0.2024  0.4666
 1002MOL0     C35176   4.547   4.491  11.075 -0.5263  0.2417 -0.0258
 1002MOL0     C35177   4.684   4.427  11.115  0.2581 -1.8255  0.6887
 1002MOL0     C35178   4.785   4.384  11.006  0.6200 -0.0471  0.2761
 1002MOL0    Cl35179   4.922   4.309  11.085  0.0207 -0.0262 -0.1299
 1002MOL0     C35180   4.398   4.858  10.618  0.3319 -0.2096 -0.1268
 1002MOL0     C35181   4.490   4.951  10.570 -0.0841 -0.1697  0.1053
 1002MOL0     O35182   4.681   4.964  10.207  0.7360  0.4967  0.2747
 1002MOL0     C35183   4.879   5.160  10.172 -0.5162  0.4098  1.1396
 1002MOL0     C35184   4.957   5.276  10.153  0.1049  0.3278  0.7417
 1002MOL0     N35185   4.928   5.962   9.802 -0.0751  0.6277 -0.4186
 1002MOL0     N35186   4.984   6.074   9.762 -0.1100 -0.5127  0.3911
 1002MOL0     C35187   6.099   6.399   9.150  0.0678  0.9234  0.1663
 1002MOL0     C35188   6.117   6.411   9.010  0.4299  0.6075  0.1143
 1002MOL0     C35189   6.142   6.632   8.626  0.2924  0.4714  0.5176
 1002MOL0     C35190   6.072   6.739   8.558  0.1153  0.9211  0.4861
 1002MOL0     C35191   6.053   6.740   8.419  0.6063 -0.0367 -0.7256
 1002MOL0     C35192   6.117   6.642   8.343  0.7253  0.4251 -0.3013
 1002MOL0     O35193   6.116   6.655   8.208  0.1659 -0.4762 -0.5806
 1002MOL0     C35194   6.169   6.565   8.116 -0.5355  0.2606  0.1980
 1002MOL0     C35195   6.084   6.454   8.067 -0.3054  1.0886 -0.8373
 1002MOL0     C35196   6.163   6.353   7.972  0.3839  0.0651 -0.1074
 1002MOL0     C35197   6.219   6.235   8.062 -0.9568  0.2193 -0.2934
 1002MOL0     C35198   6.118   6.125   8.094  0.3616 -0.7159 -1.0596
 1002MOL0     C35199   6.045   6.025   8.114  0.4967 -0.8786 -0.0767
 1002MOL0     C35200   6.186   6.540   8.412  0.7100 -0.2162 -0.0821
 1002MOL0     C35201   6.197   6.529   8.548 -0.9186  1.0713 -0.3191
 1002MOL0     C35202   6.298   6.426   8.604  0.0577 -0.2567 -0.2939
 1002MOL0     H35203   5.952   6.713   8.981 -1.8544 -1.8333 -2.2569
 1002MOL0     H35204   5.917   6.677   9.220 -0.7198 -0.7371  0.1338
 1002MOL0     H35205   5.855   6.478   9.509 -0.3781 -0.1903 -0.2887
 1002MOL0     H35206   5.777   6.485   9.359  0.0385 -1.5768 -1.4502
 1002MOL0     H35207   5.916   6.237   9.451  0.9847  0.1378 -0.3965
 1002MOL0     H35208   5.877   6.262   9.284 -3.0161 -0.8640 -0.1289
 1002MOL0     H35209   5.696   6.144   9.404 -0.7451  0.2129  0.9869
 1002MOL0     H35210   5.635   6.304   9.332  2.1372  2.0554 -1.0517
 1002MOL0     H35211   5.727   6.295   9.620  0.8177 -0.2841 -1.6808
 1002MOL0     H35212   5.618   6.399   9.537 -2.2179 -0.4395 -4.3511
 1002MOL0     H35213   5.538   6.103   9.625  0.1554  0.0554 -1.9114
 1002MOL0     H35214   5.516   6.246   9.722  3.2751  1.8161 -0.1888
 1002MOL0     H35215   5.372   6.333   9.583  1.5678 -0.3517  2.2840
 1002MOL0     H35216   5.423   6.214   9.443  1.3622  2.7498  0.2000
 1002MOL0     H35217   5.322   6.031   9.576  0.3544  0.1805  0.6933
 1002MOL0     H35218   5.211   6.146   9.495 -2.6312  0.1022  0.8102
 1002MOL0     H35219   5.283   6.135   9.794 -1.4677 -1.7102  0.6546
 1002MOL0     H35220   5.164   6.248   9.724  0.6496 -0.0046  1.0559
 1002MOL0     H35221   5.248   5.894   9.788  0.9998  3.7583  1.4095
 1002MOL0     H35222   4.910   5.689   9.888  0.3011 -1.8275  1.5632
 1002MOL0     H35223   5.078   5.660   9.848  1.2185  0.5627  0.8855
 1002MOL0     H35224   5.056   5.854  10.058 -0.9542  0.4221 -0.8126
 1002MOL0     H35225   4.940   5.724  10.089 -0.8920 -1.8479 -1.2033
 1002MOL0     H35226   5.175   5.712  10.187 -1.7269 -0.7501  0.4630
 1002MOL0     H35227   5.243   5.676  10.031  1.9797 -0.2921  1.9975
 1002MOL0     H35228   5.187   5.448  10.113  0.8677  1.2334 -1.2522
 1002MOL0     H35229   5.054   5.493  10.019  1.5232  1.1313 -1.0890
 1002MOL0     H35230   4.846   5.476  10.395  3.0442 -0.1947 -0.4047
 1002MOL0     H35231   4.716   5.286  10.450 -0.8193  0.1672 -0.7673
 1002MOL0     H35232   4.493   4.831  10.244  0.4398  1.7616 -0.9224
 1002MOL0     H35233   4.347   4.664  10.359  0.3770 -1.3496  1.7021
 1002MOL0     H35234   4.237   4.480  10.501 -0.4907  3.3441 -1.1229
 1002MOL0     H35235   4.404   4.510  10.555  1.6675 -2.6968  3.2832
 1002MOL0     H35236   4.180   4.447  10.746 -0.1013 -1.3894 -1.3807
 1002MOL0     H35237   4.329   4.369  10.727  0.3696  0.2600  2.0387
 1002MOL0     H35238   4.288   4.648  10.844 -0.6849  0.2399  1.2134
 1002MOL0     H35239   4.328   4.497  10.933  1.3204 -0.0721  1.1598
 1002MOL0     H35240   4.522   4.642  10.755 -1.0535 -0.4412  0.9436
 1002MOL0     H35241   4.541   4.479  10.803  1.2357 -0.1788 -1.9584
 1002MOL0     H35242   4.497   4.691  11.006  0.0283  0.4976 -1.5256
 1002MOL0     H35243   4.657   4.645  10.969  0.9415 -2.0244 -1.0230
 1002MOL0     H35244   4.510   4.537  11.167 -1.1447  0.5165 -0.3986
 1002MOL0     H35245   4.474   4.411  11.059 -1.5099  0.9665  0.6776
 1002MOL0     H35246   4.660   4.342  11.179  1.1621 -2.1727  0.5690
 1002MOL0     H35247   4.724   4.512  11.170  1.2031 -0.3829 -2.0125
 1002MOL0     H35248   4.738   4.309  10.943 -3.1567  4.0334 -2.3463
 1002MOL0     H35249   4.822   4.468  10.947  2.4591 -0.9500  0.0794
 1002MOL0     H35250   4.369   4.850  10.722  0.3097 -1.0477 -0.1896
 1002MOL0     H35251   4.545   5.026  10.626 -0.5542 -0.9826  1.7314
 1002MOL0     H35252   4.887   5.079  10.100  0.8648  2.3751 -1.0561
 1002MOL0     H35253   5.036   5.279  10.079 -1.2058  2.9831 -0.6927
 1002MOL0     H35254   6.136   6.310   9.199 -1.1579 -0.7666 -1.7841
 1002MOL0     H35255   6.172   6.338   8.951  0.2669 -2.0550  2.9930
 1002MOL0     H35256   6.038   6.823   8.617 -2.2417 -1.9541  3.6485
 1002MOL0     H35257   5.988   6.811   8.369 -3.5431 -0.5589  3.2343
 1002MOL0     H35258   6.267   6.530   8.152  0.1177  1.1433 -0.6602
 1002MOL0     H35259   6.196   6.627   8.029  0.4601  2.7058  2.1159
 1002MOL0     H35260   6.003   6.496   8.008 -0.0271  0.1372 -1.9423
 1002MOL0     H35261   6.044   6.399   8.153 -0.8909  3.9579  0.8569
 1002MOL0     H35262   6.236   6.397   7.902  0.6278 -2.6283 -1.6824
 1002MOL0     H35263   6.100   6.305   7.897  0.6254 -1.5810  0.7123
 1002MOL0     H35264   6.291   6.171   8.009 -0.4676  0.0422  0.5661
 1002MOL0     H35265   6.258   6.282   8.152  1.5334 -1.2246 -0.5174
 1002MOL0     H35266   5.994   5.937   8.148 -1.5680  0.0915 -0.4637
 1002MOL0     H35267   6.247   6.473   8.353 -0.6022 -0.9727 -0.6245
 1002MOL0     H35268   6.259   6.324   8.598 -0.1414 -0.9206  5.8793
 1002MOL0     H35269   6.392   6.438   8.549  0.0135  0.4848 -0.2173
 1002MOL0     H35270   6.319   6.443   8.710 -1.1380  2.3649 -0.3952
 1003MOL0     O35271   4.016   0.920   9.854  0.7431 -0.2813  0.5215
 1003MOL0     C35272   4.096   0.986   9.789 -0.3113 -0.2912 -0.5728
 1003MOL0     O35273   4.088   1.121   9.751 -0.6203  0.9322 -0.3791
 1003MOL0     C35274   3.973   1.176   9.791  0.6134 -0.8253 -0.3384
 1003MOL0     C35275   3.858   1.174   9.708  0.1257 -0.3590 -0.3610
 1003MOL0     C35276   3.727   1.205   9.754  0.1349  0.1557 -1.1379
 1003MOL0     C35277   3.708   1.258   9.889 -0.6890  0.3316  0.1411
 1003MOL0     O35278   3.588   1.271   9.951  0.0484  0.3154  0.2463
 1003MOL0     C35279   3.482   1.331   9.868  0.0366 -0.1556 -0.2953
 1003MOL0     C35280   3.368   1.235   9.832 -0.6684  0.1620 -0.1019
 1003MOL0     C35281   3.241   1.304   9.769  0.1347 -0.0248 -0.3133
 1003MOL0     C35282   3.112   1.220   9.794  0.2935 -0.4500  0.3969
 1003MOL0     C35283   2.991   1.288   9.725  0.7372  0.1494 -1.3707
 1003MOL0     C35284   2.846   1.225   9.748  0.2299  0.7683 -0.1933
 1003MOL0     C35285   2.746   1.336   9.692 -0.4693  0.3595  0.4199
 1003MOL0     C35286   2.631   1.271   9.627  0.4632  1.2585 -0.1990
 1003MOL0     N35287   2.536   1.365   9.544  0.8123  0.3335  0.2497
 1003MOL0     C35288   2.571   1.482   9.491  1.1783 -0.1891 -0.1264
 1003MOL0     C35289   2.465   1.522   9.416 -0.3848 -0.0075  0.3318
 1003MOL0     C35290   2.434   1.659   9.339 -0.8203 -0.0012  0.0888
 1003MOL0     C35291   2.395   1.644   9.188  0.7636  0.8916 -0.6509
 1003MOL0     C35292   2.476   1.554   9.100 -0.3144 -0.0329  0.0931
 1003MOL0     C35293   2.628   1.600   9.086 -0.1767 -0.1831  0.2681
 1003MOL0     O35294   2.714   1.489   9.075 -0.1718  0.2513  0.5595
 1003MOL0     C35295   2.725   1.444   8.941 -0.1815 -0.5861 -0.6876
 1003MOL0     C35296   2.816   1.495   8.851  1.0978 -0.8864  0.0072
 1003MOL0     C35297   2.820   1.446   8.728 -0.3877 -0.4718  0.7658
 1003MOL0     C35298   2.738   1.336   8.691 -0.2867  0.0967 -0.1943
 1003MOL0     C35299   2.743   1.290   8.556  0.5228  0.2280 -0.2387
 1003MOL0     O35300   2.650   1.183   8.519 -0.2876 -0.6055 -0.4783
 1003MOL0     C35301   2.677   1.115   8.399  0.6992  0.7749  0.1447
 1003MOL0     C35302   2.805   1.076   8.360  0.7697 -0.1621 -0.4050
 1003MOL0     C35303   2.821   1.010   8.240 -0.8695  0.1949 -0.3215
 1003MOL0     C35304   2.710   1.011   8.148  0.3260  0.3444 -0.1252
 1003MOL0     O35305   2.737   0.962   8.020  0.6473  0.4319 -0.2124
 1003MOL0     C35306   2.636   0.959   7.913 -0.7837  0.7331  0.6997
 1003MOL0     C35307   2.707   0.895   7.789  0.9771  0.1561 -0.4327
 1003MOL0     C35308   2.836   0.966   7.748  1.1994  0.0830 -0.1903
 1003MOL0     C35309   2.884   0.899   7.624 -0.6804  0.6651 -0.1058
 1003MOL0     C35310   3.025   0.931   7.596 -0.1241  0.7653 -0.0936
 1003MOL0     C35311   3.066   1.080   7.574  0.1007  0.8948 -0.6732
 1003MOL0     C35312   3.014   1.121   7.434  0.4861 -0.2583 -0.1632
 1003MOL0     C35313   3.104   1.237   7.384  0.3945  0.1986 -0.0269
 1003MOL0    Cl35314   3.060   1.328   7.235 -0.1868 -0.2815  0.0036
 1003MOL0     C35315   2.580   1.045   8.194 -0.4271  0.2339  0.3144
 1003MOL0     C35316   2.571   1.089   8.318  1.0544 -0.2481  0.4155
 1003MOL0     O35317   2.815   1.342   8.472 -0.2498 -0.0474  0.3962
 1003MOL0     C35318   2.646   1.287   8.779  0.3733  0.7913 -0.9306
 1003MOL0     C35319   2.650   1.336   8.909  0.1919  0.2348 -0.4604
 1003MOL0     N35320   2.364   1.429   9.428 -0.1044 -0.2081  0.2474
 1003MOL0     N35321   2.410   1.332   9.508  0.3816 -0.8634 -0.0271
 1003MOL0     C35322   3.820   1.270   9.968  0.2029  0.7143 -0.6472
 1003MOL0     C35323   3.945   1.223   9.918  0.2027  0.0598  0.4365
 1003MOL0     C35324   4.218   0.907   9.749 -0.0978 -0.7630 -0.6730
 1003MOL0     C35325   4.212   0.759   9.747 -0.3644 -0.2862 -0.4565
 1003MOL0     C35326   4.316   0.677   9.702  0.5491  0.1023 -0.2010
 1003MOL0     C35327   4.435   0.730   9.663 -0.6594 -0.5353 -0.6324
 1003MOL0     O35328   4.543   0.651   9.636  0.1256  0.2191 -0.8593
 1003MOL0     C35329   4.516   0.537   9.547  0.0750 -0.2888 -0.6631
 1003MOL0     C35330   4.610   0.426   9.603  0.0495 -0.9880 -0.0507
 1003MOL0     C35331   4.616   0.304   9.507 -0.1633 -0.6618 -0.4171
 1003MOL0     C35332   4.718   0.204   9.558  0.1207  0.0556  0.0077
 1003MOL0     C35333   4.684   0.068   9.524 -0.3998  1.0595  0.0076
 1003MOL0     C35334   4.648  -0.047   9.496 -0.3023 -0.3340  0.1751
 1003MOL0     C35335   4.447   0.874   9.677  0.0261  0.2928 -0.1869
 1003MOL0     C35336   4.342   0.959   9.706  0.1066 -0.0786  0.1534
 1003MOL0     C35337   4.388   1.102   9.719  0.1379 -0.9651  0.1922
 1003MOL0     H35338   3.862   1.132   9.608 -1.6705  1.5031 -1.2883
 1003MOL0     H35339   3.643   1.171   9.694  2.1642 -1.4024 -3.2749
 1003MOL0     H35340   3.446   1.415   9.927  2.7011  0.6500  0.3222
 1003MOL0     H35341   3.521   1.381   9.780  0.2318  3.6376  1.7471
 1003MOL0     H35342   3.333   1.176   9.918 -2.5555 -1.5053 -1.8810
 1003MOL0     H35343   3.407   1.170   9.753 -0.5582  0.2209 -0.0953
 1003MOL0     H35344   3.269   1.322   9.665  1.0661 -0.6736 -0.1861
 1003MOL0     H35345   3.218   1.403   9.809 -1.1597  0.2463 -1.6564
 1003MOL0     H35346   3.137   1.121   9.755  3.1381  0.9490 -1.8074
 1003MOL0     H35347   3.106   1.226   9.903 -2.8942 -1.3674  0.3583
 1003MOL0     H35348   2.994   1.396   9.742  2.2090 -0.0047 -0.5325
 1003MOL0     H35349   3.002   1.276   9.616 -1.0414 -1.9528 -1.4015
 1003MOL0     H35350   2.843   1.128   9.699 -1.7269 -0.1193  1.5411
 1003MOL0     H35351   2.811   1.216   9.852 -0.7171  3.4042 -0.2223
 1003MOL0     H35352   2.801   1.385   9.611 -0.5203  1.2617  0.9148
 1003MOL0     H35353   2.722   1.415   9.764  2.7542  1.5121  0.3961
 1003MOL0     H35354   2.661   1.186   9.564 -1.5318 -1.8778  2.7021
 1003MOL0     H35355   2.568   1.220   9.701 -1.6661  0.0463 -2.6653
 1003MOL0     H35356   2.662   1.540   9.490  1.3710 -0.4132  1.5714
 1003MOL0     H35357   2.348   1.700   9.394 -0.1513 -0.0966  1.2151
 1003MOL0     H35358   2.511   1.735   9.356  0.7002 -0.9420 -2.1539
 1003MOL0     H35359   2.292   1.608   9.185  2.0606 -3.5466  0.4987
 1003MOL0     H35360   2.405   1.742   9.141  0.1738  0.2510 -2.1735
 1003MOL0     H35361   2.423   1.542   9.005 -1.3539 -1.6167  0.8375
 1003MOL0     H35362   2.477   1.455   9.148  2.3164 -1.8572 -3.2681
 1003MOL0     H35363   2.660   1.672   9.162  1.7363  0.3434 -0.9670
 1003MOL0     H35364   2.623   1.653   8.991 -2.0710 -2.3893 -0.9543
 1003MOL0     H35365   2.886   1.573   8.877  1.1616 -0.4363 -1.3949
 1003MOL0     H35366   2.889   1.495   8.661 -0.5490 -1.4314 -0.1376
 1003MOL0     H35367   2.889   1.070   8.430  0.2673  0.3811  0.2562
 1003MOL0     H35368   2.917   0.975   8.203 -0.3517 -2.1207  2.7734
 1003MOL0     H35369   2.564   0.892   7.961 -0.2033 -1.3656 -1.2074
 1003MOL0     H35370   2.605   1.062   7.894 -0.1602  0.6939 -0.6594
 1003MOL0     H35371   2.719   0.786   7.780 -1.6214 -0.4365  1.8301
 1003MOL0     H35372   2.630   0.909   7.712 -0.4940  1.0009  1.1341
 1003MOL0     H35373   2.818   1.071   7.722 -0.3232  1.0718  3.9543
 1003MOL0     H35374   2.912   0.971   7.826  1.9142 -0.9782 -0.8017
 1003MOL0     H35375   2.816   0.918   7.540 -0.8602 -2.8546 -0.9448
 1003MOL0     H35376   2.879   0.790   7.625 -2.3668  0.6863 -1.4923
 1003MOL0     H35377   3.058   0.875   7.508  0.0443 -0.4529  0.7290
 1003MOL0     H35378   3.084   0.880   7.672 -1.5095 -1.2286 -0.2681
 1003MOL0     H35379   3.031   1.133   7.663 -1.2115  1.3386 -1.4208
 1003MOL0     H35380   3.174   1.070   7.565  0.3140  0.2646  1.7728
 1003MOL0     H35381   2.913   1.154   7.460  1.7321  0.1747  5.7613
 1003MOL0     H35382   3.011   1.041   7.360  0.2632  0.1044 -0.5533
 1003MOL0     H35383   3.103   1.304   7.470 -1.8870  2.9687 -1.9735
 1003MOL0     H35384   3.201   1.188   7.380 -0.8857 -2.6198  1.0753
 1003MOL0     H35385   2.501   1.024   8.123 -0.4712  0.8135  0.1833
 1003MOL0     H35386   2.474   1.126   8.347  1.1372  0.1517  0.1814
 1003MOL0     H35387   2.573   1.211   8.753 -1.2767  2.1204 -0.3765
 1003MOL0     H35388   2.587   1.292   8.986 -1.6849  0.8721 -1.5761
 1003MOL0     H35389   3.800   1.298  10.071 -0.7851  0.7513 -0.8373
 1003MOL0     H35390   4.034   1.223   9.980 -0.4474  2.0069  1.4734
 1003MOL0     H35391   4.122   0.724   9.797 -0.7459  1.8119  0.4527
 1003MOL0     H35392   4.306   0.570   9.718 -2.8123  0.3297  0.0089
 1003MOL0     H35393   4.543   0.563   9.444  2.4816 -0.9462 -0.2728
 1003MOL0     H35394   4.415   0.497   9.551 -0.4381  1.0142  0.5729
 1003MOL0     H35395   4.564   0.393   9.697 -1.4971 -2.3204 -1.2082
 1003MOL0     H35396   4.709   0.467   9.620 -1.7446  3.2323  1.6319
 1003MOL0     H35397   4.651   0.339   9.409  0.7442  3.3355  1.1265
 1003MOL0     H35398   4.520   0.255   9.492 -0.4199 -0.1456 -0.4765
 1003MOL0     H35399   4.819   0.221   9.519  0.0856 -0.5829 -0.3612
 1003MOL0     H35400   4.729   0.224   9.665 -3.6987  0.4488  0.4646
 1003MOL0     H35401   4.619  -0.139   9.449 -3.3921  0.3323  0.5784
 1003MOL0     H35402   4.544   0.921   9.681 -1.6251  4.2441 -1.6111
 1003MOL0     H35403   4.483   1.117   9.666 -0.4914 -1.2053 -1.0559
 1003MOL0     H35404   4.318   1.170   9.671  3.2207 -0.2534 -3.9182
 1003MOL0     H35405   4.398   1.134   9.823 -1.2345 -1.3949  0.4711
 1004MOL0     O35406   3.882   4.809   5.906 -0.3558 -0.1032  0.4514
 1004MOL0     C35407   3.787   4.724   5.891 -0.2321  0.2135  0.6194
 1004MOL0     O35408   3.651   4.744   5.941  0.8867  0.2176 -0.2359
 1004MOL0     C35409   3.639   4.845   6.032  0.0365 -0.4981 -0.9944
 1004MOL0     C35410   3.575   4.965   5.996 -0.3158 -0.0650  0.2104
 1004MOL0     C35411   3.531   5.065   6.084  0.8396  0.1268  0.7855
 1004MOL0     C35412   3.591   5.062   6.211 -0.0509  0.6094  1.0186
 1004MOL0     O35413   3.543   5.141   6.319 -0.1108 -0.1713 -0.3118
 1004MOL0     C35414   3.639   5.176   6.416  0.1775 -0.8258 -0.0514
 1004MOL0     C35415   3.658   5.324   6.439 -0.5096 -0.1739 -0.2271
 1004MOL0     C35416   3.743   5.322   6.568  0.1801 -0.2337 -0.6403
 1004MOL0     C35417   3.737   5.457   6.643 -0.4674  0.7442  0.1553
 1004MOL0     C35418   3.837   5.477   6.754  0.1966  0.2509  0.3577
 1004MOL0     C35419   3.857   5.361   6.867 -0.8501 -0.4213 -1.8169
 1004MOL0     C35420   3.926   5.408   7.003 -0.0354 -0.5717 -0.7118
 1004MOL0     C35421   4.051   5.495   6.978  0.0502  0.2770 -0.7092
 1004MOL0     N35422   4.070   5.617   7.063  0.3403  0.3088 -0.1467
 1004MOL0     C35423   4.065   5.632   7.197  0.2656 -0.0310 -0.2039
 1004MOL0     C35424   4.130   5.753   7.219 -0.1480 -0.3053  0.5088
 1004MOL0     C35425   4.153   5.816   7.341 -1.1410  0.1601 -0.2393
 1004MOL0     C35426   4.297   5.772   7.391  0.8611  0.4370 -0.4845
 1004MOL0     C35427   4.415   5.789   7.300  0.0854  0.0331  0.0368
 1004MOL0     C35428   4.553   5.788   7.369  0.1602  0.6422  1.0042
 1004MOL0     O35429   4.564   5.906   7.445  0.5459  0.6149  0.3145
 1004MOL0     C35430   4.618   5.888   7.565  0.5003  0.6367  0.0026
 1004MOL0     C35431   4.541   5.842   7.659 -0.0343 -0.1613 -0.6449
 1004MOL0     C35432   4.600   5.814   7.783  0.1126 -0.0179 -0.1760
 1004MOL0     C35433   4.742   5.843   7.804 -0.2094 -0.4566 -0.3088
 1004MOL0     C35434   4.813   5.815   7.930  0.3793  0.5416  1.0041
 1004MOL0     O35435   4.941   5.866   7.950  0.3173  0.1549  0.0158
 1004MOL0     C35436   4.990   5.849   8.079  0.3104  0.8015  0.4633
 1004MOL0     C35437   5.003   5.963   8.162 -0.2313 -0.7119  0.0726
 1004MOL0     C35438   5.068   5.943   8.293 -0.2227 -0.9336 -0.2759
 1004MOL0     C35439   5.106   5.816   8.343  0.0399  0.3130  0.3068
 1004MOL0     O35440   5.163   5.791   8.469  0.9107 -0.5584  1.1538
 1004MOL0     C35441   5.202   5.903   8.552  0.0203  0.1064  0.3572
 1004MOL0     C35442   5.090   5.962   8.633 -0.1954 -0.8489  0.0567
 1004MOL0     C35443   4.999   5.857   8.693 -0.7385  1.0196 -1.0011
 1004MOL0     C35444   4.909   5.912   8.809 -0.1386 -0.4826  0.7410
 1004MOL0     C35445   4.833   5.805   8.873  0.4501 -0.3982 -1.5982
 1004MOL0     C35446   4.772   5.841   9.006  0.5456 -0.7591 -0.4244
 1004MOL0     C35447   4.655   5.747   9.040 -0.6415 -0.6491 -0.1053
 1004MOL0     C35448   4.592   5.786   9.168 -0.6135 -0.0501 -0.3098
 1004MOL0    Cl35449   4.556   5.646   9.273  0.1100  0.2735  0.4802
 1004MOL0     C35450   5.073   5.706   8.261 -0.0468  0.1045 -0.0857
 1004MOL0     C35451   5.023   5.722   8.135  0.1362  0.9887  0.0641
 1004MOL0     O35452   4.756   5.736   8.004  0.4117 -1.0585  0.1375
 1004MOL0     C35453   4.814   5.895   7.698  0.6814 -0.3483 -0.1669
 1004MOL0     C35454   4.754   5.908   7.577  0.5693  0.7520 -0.0917
 1004MOL0     N35455   4.150   5.812   7.102  0.5337 -0.6972  0.1616
 1004MOL0     N35456   4.114   5.731   7.005  0.5933 -0.5006 -0.8387
 1004MOL0     C35457   3.668   4.943   6.245  0.7265  0.0173  0.5984
 1004MOL0     C35458   3.678   4.834   6.158 -0.4226 -0.0886 -0.0434
 1004MOL0     C35459   3.830   4.584   5.837  0.2387 -0.0023 -0.1578
 1004MOL0     C35460   3.769   4.469   5.887 -0.1938 -1.0473 -0.4580
 1004MOL0     C35461   3.774   4.342   5.832 -0.1545 -0.8253  0.4439
 1004MOL0     C35462   3.854   4.326   5.714 -0.8356 -1.1914 -0.5635
 1004MOL0     O35463   3.845   4.200   5.660  1.3962 -0.2185 -0.2319
 1004MOL0     C35464   3.838   4.191   5.511  0.2957 -0.7649 -0.0034
 1004MOL0     C35465   3.964   4.120   5.465  0.4751  0.3534 -0.1441
 1004MOL0     C35466   3.960   3.966   5.463 -1.2632 -0.1005  0.4390
 1004MOL0     C35467   3.893   3.913   5.339  0.9151 -0.4020  0.1127
 1004MOL0     C35468   3.903   3.767   5.332 -0.3954 -0.8198  0.1419
 1004MOL0     C35469   3.913   3.649   5.332 -0.9736  0.2547 -0.5633
 1004MOL0     C35470   3.923   4.437   5.656 -0.2826  0.3139  0.1944
 1004MOL0     C35471   3.906   4.566   5.714 -0.4078  0.4266  0.1925
 1004MOL0     C35472   3.972   4.679   5.641  0.2413 -0.3016  1.2250
 1004MOL0     H35473   3.557   4.981   5.890 -0.8166 -0.9737  0.1552
 1004MOL0     H35474   3.470   5.151   6.057  1.9359  0.6044 -0.2398
 1004MOL0     H35475   3.605   5.125   6.506 -1.0915 -1.6944 -0.9850
 1004MOL0     H35476   3.737   5.129   6.399 -0.1943 -1.5107 -0.3062
 1004MOL0     H35477   3.561   5.362   6.471  0.2500 -1.6859  4.8525
 1004MOL0     H35478   3.697   5.370   6.348 -0.9685 -2.6589 -1.7709
 1004MOL0     H35479   3.846   5.285   6.563  0.9426  1.8984 -2.2703
 1004MOL0     H35480   3.696   5.245   6.630  1.3036 -0.7070 -0.3511
 1004MOL0     H35481   3.744   5.532   6.564 -3.1985 -2.2125 -3.2753
 1004MOL0     H35482   3.635   5.474   6.677 -0.5175 -0.6969  0.8232
 1004MOL0     H35483   3.935   5.507   6.716  1.0178  0.4547  2.5525
 1004MOL0     H35484   3.799   5.569   6.798 -1.7303 -0.1330 -0.3875
 1004MOL0     H35485   3.757   5.315   6.869 -0.3118 -1.7305 -3.1602
 1004MOL0     H35486   3.927   5.289   6.823  0.9627 -0.6666  1.1982
 1004MOL0     H35487   3.942   5.316   7.060 -1.8099  0.5321  1.7865
 1004MOL0     H35488   3.855   5.466   7.064  0.8831 -1.8556  1.7533
 1004MOL0     H35489   4.137   5.430   6.991 -2.5726 -3.0519  1.5306
 1004MOL0     H35490   4.051   5.536   6.876  1.4092  4.7092  0.8477
 1004MOL0     H35491   4.026   5.569   7.276  2.1070 -0.5665  0.3150
 1004MOL0     H35492   4.145   5.925   7.334 -0.5299  0.1299 -1.9289
 1004MOL0     H35493   4.073   5.789   7.411 -2.2922 -0.0469 -1.5746
 1004MOL0     H35494   4.309   5.844   7.473 -3.6721 -0.1719  0.9991
 1004MOL0     H35495   4.301   5.671   7.431  2.4301  1.2163  1.5126
 1004MOL0     H35496   4.405   5.892   7.263  3.0804  0.1916 -0.5736
 1004MOL0     H35497   4.414   5.714   7.221  0.8594  0.2082 -0.1522
 1004MOL0     H35498   4.642   5.794   7.305  0.0406  2.4220  0.9434
 1004MOL0     H35499   4.554   5.695   7.427  1.1758  0.4249  0.6494
 1004MOL0     H35500   4.433   5.839   7.646 -0.0307 -3.0634 -0.7185
 1004MOL0     H35501   4.539   5.796   7.870 -1.3169  3.7050 -0.2176
 1004MOL0     H35502   4.979   6.058   8.117 -0.9725  0.0692  2.0168
 1004MOL0     H35503   5.088   6.037   8.345 -0.2829 -1.7843  1.3433
 1004MOL0     H35504   5.276   5.869   8.625 -1.2143  1.1901  2.1982
 1004MOL0     H35505   5.255   5.982   8.497  1.2559  1.6133  3.4420
 1004MOL0     H35506   5.137   6.009   8.720  1.8360  1.1678 -2.0027
 1004MOL0     H35507   5.033   6.043   8.586  2.2752  1.1982  0.4037
 1004MOL0     H35508   4.944   5.812   8.611 -1.6169  3.2148 -1.7002
 1004MOL0     H35509   5.053   5.773   8.739 -2.1366  0.5265 -0.2244
 1004MOL0     H35510   4.845   5.997   8.785 -0.4705 -1.0553 -0.5388
 1004MOL0     H35511   4.976   5.963   8.879 -0.7713  0.0990  0.9307
 1004MOL0     H35512   4.909   5.731   8.900  0.8064  0.2844 -0.6188
 1004MOL0     H35513   4.759   5.762   8.806  0.1127 -0.9074 -0.9040
 1004MOL0     H35514   4.841   5.864   9.088 -1.6136  0.9947  1.0056
 1004MOL0     H35515   4.727   5.940   8.996  0.0250 -0.7645  1.3986
 1004MOL0     H35516   4.690   5.645   9.057 -2.0708 -0.9022  1.5800
 1004MOL0     H35517   4.575   5.744   8.965 -1.2398 -0.5418  0.5201
 1004MOL0     H35518   4.669   5.841   9.223  1.9018 -0.2877 -3.3059
 1004MOL0     H35519   4.497   5.836   9.149 -1.8228 -0.6977  3.3179
 1004MOL0     H35520   5.082   5.602   8.293 -3.1328  0.3411  1.9599
 1004MOL0     H35521   5.009   5.636   8.071 -1.0705 -1.0977  2.9207
 1004MOL0     H35522   4.919   5.918   7.711  1.0684 -2.1511  0.2373
 1004MOL0     H35523   4.820   5.941   7.497  0.7766  3.3795  1.0431
 1004MOL0     H35524   3.698   4.927   6.348 -0.0628 -5.5854  0.2613
 1004MOL0     H35525   3.717   4.737   6.187 -1.5474 -0.5263  0.0874
 1004MOL0     H35526   3.709   4.485   5.977 -2.2946  1.2348 -2.1420
 1004MOL0     H35527   3.726   4.251   5.868  0.3818 -1.0945  0.4961
 1004MOL0     H35528   3.827   4.287   5.461  3.5256  0.8170  2.0153
 1004MOL0     H35529   3.754   4.127   5.482  1.6577 -2.7546  0.1819
 1004MOL0     H35530   4.050   4.145   5.527 -0.4077 -0.9974  1.7096
 1004MOL0     H35531   3.995   4.152   5.365  2.6288  3.4591  1.3455
 1004MOL0     H35532   3.915   3.911   5.545 -2.8888  0.2716 -0.1722
 1004MOL0     H35533   4.063   3.932   5.446 -1.7872 -0.8431 -1.5555
 1004MOL0     H35534   3.788   3.945   5.335  0.4703 -1.8071  0.2312
 1004MOL0     H35535   3.939   3.956   5.250 -0.3500  0.6173 -0.0871
 1004MOL0     H35536   3.925   3.545   5.312 -0.7500 -0.1509  1.4427
 1004MOL0     H35537   3.979   4.422   5.565 -0.6869  2.0781 -0.3867
 1004MOL0     H35538   3.904   4.737   5.577  2.5324  0.5011 -0.6034
 1004MOL0     H35539   4.028   4.748   5.704  2.4063 -0.4523 -0.4281
 1004MOL0     H35540   4.056   4.647   5.579 -0.9459  0.3350 -0.8261
 1005MOL0     O35541  10.537   9.276   0.363 -0.2285  0.0111 -0.0257
 1005MOL0     C35542  10.438   9.252   0.431  0.1422  0.6035  1.0807
 1005MOL0     O35543  10.441   9.180   0.544 -0.3179  0.5182 -0.1758
 1005MOL0     C35544  10.548   9.162   0.629  0.0398 -0.2114  0.8164
 1005MOL0     C35545  10.533   9.054   0.713 -0.9569  0.1890 -0.6000
 1005MOL0     C35546  10.645   9.000   0.778 -0.4807 -0.3065  0.2745
 1005MOL0     C35547  10.782   9.039   0.748 -0.6336 -0.4570 -0.9537
 1005MOL0     O35548  10.894   8.976   0.786  0.1987 -0.0110  0.4086
 1005MOL0     C35549  10.886   8.838   0.796  0.0480 -0.0199  0.5746
 1005MOL0     C35550  11.004   8.768   0.867  0.1644  0.1759 -0.9156
 1005MOL0     C35551  11.126   8.755   0.781 -0.1710 -0.0451  0.2467
 1005MOL0     C35552  11.229   8.871   0.806  0.4385 -1.2558 -0.1453
 1005MOL0     C35553  11.328   8.874   0.682 -0.0924  0.7659  0.1957
 1005MOL0     C35554  11.442   8.973   0.688 -0.1794  1.0205 -0.5013
 1005MOL0     C35555  11.532   8.946   0.575  0.0867  0.1917 -0.5981
 1005MOL0     C35556  11.635   9.067   0.576  1.4492 -0.2421  1.3097
 1005MOL0     N35557  11.753   9.061   0.661 -0.1316  0.6158  0.0091
 1005MOL0     C35558  11.771   9.131   0.776 -0.5695 -0.2805 -0.5327
 1005MOL0     C35559  11.899   9.115   0.823  0.3992 -0.5603 -0.3360
 1005MOL0     C35560  11.958   9.175   0.940  0.2815  0.1278 -0.1084
 1005MOL0     C35561  12.077   9.267   0.919 -0.2649 -0.0383 -0.0440
 1005MOL0     C35562  12.036   9.374   0.814  0.8189 -0.3018  1.2829
 1005MOL0     C35563  12.149   9.466   0.778 -0.3709  0.1827 -0.8563
 1005MOL0     O35564  12.178   9.539   0.903 -0.5162 -0.0845 -0.0357
 1005MOL0     C35565  12.310   9.574   0.936  0.2897 -0.1096  0.6226
 1005MOL0     C35566  12.332   9.606   1.073 -0.5332 -0.9152  0.1619
 1005MOL0     C35567  12.458   9.622   1.117 -0.0470  0.6570 -0.2643
 1005MOL0     C35568  12.568   9.599   1.034  0.3491  0.0984  0.1812
 1005MOL0     C35569  12.709   9.597   1.085  0.7050  0.4200  0.4184
 1005MOL0     O35570  12.739   9.655   1.201  0.9129  0.8860 -0.5587
 1005MOL0     C35571  12.867   9.651   1.248 -0.2689 -0.3287 -0.7361
 1005MOL0     C35572  12.940   9.765   1.242 -0.4891  0.4791  0.0447
 1005MOL0     C35573  13.071   9.756   1.275  0.4529  0.2538  0.1597
 1005MOL0     C35574  13.128   9.641   1.336  0.1607  0.2610  0.1644
 1005MOL0     O35575  13.253   9.656   1.374  0.2287 -0.4749  0.9143
 1005MOL0     C35576  13.298   9.550   1.454 -0.5015  0.2919  0.1993
 1005MOL0     C35577  13.433   9.589   1.509  0.5383  0.4477 -0.6035
 1005MOL0     C35578  13.518   9.469   1.561 -0.1088 -0.4228 -0.5901
 1005MOL0     C35579  13.595   9.504   1.692  0.0876  0.6894  0.1443
 1005MOL0     C35580  13.666   9.376   1.735 -0.7525 -0.4663  0.8187
 1005MOL0     C35581  13.783   9.333   1.652  0.1286 -0.6594  0.1384
 1005MOL0     C35582  13.752   9.214   1.573 -0.4067 -0.6152 -0.0614
 1005MOL0     C35583  13.872   9.188   1.487 -0.3573  0.4257  0.2798
 1005MOL0    Cl35584  13.885   9.294   1.344 -0.7024  0.2615 -0.4077
 1005MOL0     C35585  13.048   9.530   1.352  1.5077 -0.1132  1.3337
 1005MOL0     C35586  12.924   9.531   1.291 -0.6199  0.0481 -1.0526
 1005MOL0     O35587  12.793   9.527   1.028 -1.0051  0.3683 -0.0734
 1005MOL0     C35588  12.551   9.554   0.902  0.0983 -0.5848  0.6788
 1005MOL0     C35589  12.418   9.544   0.856 -0.1173 -0.8924  0.2838
 1005MOL0     N35590  11.955   9.026   0.734 -0.3504 -0.6106 -2.2063
 1005MOL0     N35591  11.870   8.981   0.649 -0.7786  0.3098 -0.2833
 1005MOL0     C35592  10.791   9.153   0.668  0.9647 -0.2720  0.1868
 1005MOL0     C35593  10.674   9.219   0.608 -0.7040  0.1645 -0.5200
 1005MOL0     C35594  10.307   9.301   0.401 -0.3051  0.9243  0.1797
 1005MOL0     C35595  10.202   9.273   0.496 -0.0732 -0.0704 -0.4743
 1005MOL0     C35596  10.071   9.305   0.471  0.0730  0.6868 -0.2318
 1005MOL0     C35597  10.039   9.378   0.356 -0.2248  1.4448 -0.3061
 1005MOL0     O35598   9.913   9.422   0.340  1.3663  0.0575 -0.5113
 1005MOL0     C35599   9.801   9.353   0.383  1.0450 -0.8149 -1.1364
 1005MOL0     C35600   9.673   9.431   0.344 -0.0105  0.1599  0.8428
 1005MOL0     C35601   9.653   9.441   0.195  0.4050  1.7628  0.4053
 1005MOL0     C35602   9.661   9.584   0.156 -0.1190 -1.5267  0.6127
 1005MOL0     C35603   9.528   9.655   0.182  0.6279 -0.3795  0.5086
 1005MOL0     C35604   9.431   9.714   0.227 -0.5068  0.8557  0.2643
 1005MOL0     C35605  10.133   9.419   0.271  0.1484 -0.1073  0.5012
 1005MOL0     C35606  10.268   9.389   0.294 -0.4104  0.4082  0.2036
 1005MOL0     C35607  10.365   9.456   0.198  0.6984  0.4823 -0.3050
 1005MOL0     H35608  10.439   9.001   0.724  1.1245 -4.0855 -1.2786
 1005MOL0     H35609  10.628   8.914   0.842 -3.6680 -0.8926 -1.1852
 1005MOL0     H35610  10.801   8.799   0.852 -0.7792  0.8436 -0.0581
 1005MOL0     H35611  10.887   8.794   0.696  1.9207  0.3962  0.3710
 1005MOL0     H35612  10.978   8.666   0.895 -0.8621  1.1462  2.0446
 1005MOL0     H35613  11.030   8.823   0.958  2.6843 -2.9101  0.4395
 1005MOL0     H35614  11.100   8.751   0.675 -1.5447  1.8731  0.4435
 1005MOL0     H35615  11.177   8.663   0.810 -1.8189 -0.6213  1.4589
 1005MOL0     H35616  11.175   8.966   0.820  0.5749 -1.2118  0.0970
 1005MOL0     H35617  11.298   8.846   0.887 -0.4750 -0.2956  0.9649
 1005MOL0     H35618  11.378   8.777   0.676  2.3323  1.8135  1.9277
 1005MOL0     H35619  11.271   8.887   0.589  1.1868 -1.3727 -0.9702
 1005MOL0     H35620  11.398   9.073   0.685  1.4613  1.8887  1.5141
 1005MOL0     H35621  11.494   8.953   0.783  1.0745  1.2712 -1.1063
 1005MOL0     H35622  11.472   8.934   0.484  1.3599  0.3494 -1.4758
 1005MOL0     H35623  11.586   8.855   0.604 -0.0209  0.6920  1.3695
 1005MOL0     H35624  11.668   9.075   0.472 -1.7863  0.1812  0.1992
 1005MOL0     H35625  11.575   9.158   0.587 -1.1806 -1.6767 -0.1599
 1005MOL0     H35626  11.709   9.214   0.811 -1.8567 -0.8054 -1.4961
 1005MOL0     H35627  11.877   9.223   0.997  1.5764  2.9316 -0.4385
 1005MOL0     H35628  11.991   9.093   1.004 -1.1062 -0.3641  0.0057
 1005MOL0     H35629  12.105   9.316   1.012 -0.5198 -2.6644  1.4988
 1005MOL0     H35630  12.163   9.208   0.886 -0.9643 -0.6169 -0.8907
 1005MOL0     H35631  11.951   9.433   0.850  0.6182  0.9769 -1.1136
 1005MOL0     H35632  11.998   9.344   0.717 -1.8606  1.2772  1.7479
 1005MOL0     H35633  12.118   9.542   0.706  0.5765  1.4290  0.0081
 1005MOL0     H35634  12.219   9.403   0.723 -1.8334 -2.8085  0.5063
 1005MOL0     H35635  12.238   9.636   1.117 -0.8934  1.9823 -2.2485
 1005MOL0     H35636  12.462   9.644   1.223  1.6937 -2.1170  0.3516
 1005MOL0     H35637  12.895   9.860   1.214  2.9153  2.2211  0.0003
 1005MOL0     H35638  13.140   9.837   1.253  0.7755 -0.1117 -0.1803
 1005MOL0     H35639  13.233   9.543   1.542 -0.2574 -0.5373  0.3210
 1005MOL0     H35640  13.297   9.450   1.409 -2.1843 -0.1877  1.1854
 1005MOL0     H35641  13.494   9.641   1.435  2.2289 -1.9166 -1.0003
 1005MOL0     H35642  13.409   9.660   1.588 -2.6181 -1.5105  0.3868
 1005MOL0     H35643  13.452   9.389   1.597 -0.0510 -0.0751  0.3072
 1005MOL0     H35644  13.581   9.429   1.481 -1.3585  0.8963 -2.2962
 1005MOL0     H35645  13.521   9.532   1.768 -2.6084 -2.7127 -0.9436
 1005MOL0     H35646  13.662   9.588   1.669  2.9944 -2.1698 -3.0470
 1005MOL0     H35647  13.591   9.296   1.737 -1.7407  0.4413  0.4055
 1005MOL0     H35648  13.698   9.388   1.839  0.6010 -0.1922  0.3944
 1005MOL0     H35649  13.814   9.417   1.589  0.7295  0.7298  2.1849
 1005MOL0     H35650  13.869   9.319   1.717 -0.4270  1.5009  1.4300
 1005MOL0     H35651  13.658   9.229   1.518 -2.1426 -1.8528  2.3804
 1005MOL0     H35652  13.721   9.141   1.648  1.2466  0.3056  1.6066
 1005MOL0     H35653  13.964   9.191   1.546  1.7661 -2.1800 -2.5438
 1005MOL0     H35654  13.877   9.082   1.457  0.6932  1.0434 -1.9549
 1005MOL0     H35655  13.083   9.447   1.413  1.1848  0.8733  2.9404
 1005MOL0     H35656  12.865   9.441   1.300  0.1154 -0.3394  0.0472
 1005MOL0     H35657  12.633   9.521   0.839 -0.0292 -1.3882  0.9139
 1005MOL0     H35658  12.403   9.516   0.752  0.1462  0.4880 -0.1384
 1005MOL0     H35659  10.889   9.186   0.637  1.2835 -0.0253  1.3923
 1005MOL0     H35660  10.697   9.295   0.533 -1.5498 -0.7562 -1.7611
 1005MOL0     H35661  10.220   9.218   0.588  2.7949  2.1803  0.4859
 1005MOL0     H35662  10.015   9.290   0.563 -1.3944  1.4884 -0.9676
 1005MOL0     H35663   9.803   9.346   0.493 -1.0685  3.2153 -0.6120
 1005MOL0     H35664   9.812   9.255   0.338  0.8239 -0.7414 -1.3507
 1005MOL0     H35665   9.689   9.528   0.391  1.7023 -0.5873  1.9401
 1005MOL0     H35666   9.584   9.381   0.383 -1.7338  1.8415 -0.7403
 1005MOL0     H35667   9.561   9.389   0.168  1.4707  0.8688 -1.7397
 1005MOL0     H35668   9.727   9.386   0.136 -0.9261  0.0062  0.3213
 1005MOL0     H35669   9.739   9.635   0.214 -1.6311 -0.3221  1.6417
 1005MOL0     H35670   9.669   9.593   0.047 -0.6074 -0.3972  0.6566
 1005MOL0     H35671   9.351   9.770   0.272  0.1625  2.0070  0.0767
 1005MOL0     H35672  10.097   9.477   0.186 -1.5749 -2.9808 -0.8731
 1005MOL0     H35673  10.454   9.477   0.256  3.1510 -5.6766 -1.1214
 1005MOL0     H35674  10.391   9.391   0.114  2.0066 -1.1959  1.3204
 1005MOL0     H35675  10.330   9.552   0.157 -0.4130  2.3504  4.3527
 1006MOL0     O35676  11.062   9.676   2.764 -1.1679  0.4128  0.0083
 1006MOL0     C35677  11.137   9.740   2.687  0.3694  0.5345  0.1496
 1006MOL0     O35678  11.108   9.859   2.631 -0.1229 -1.2568  0.0479
 1006MOL0     C35679  11.003   9.935   2.689 -1.0626 -0.9617  0.7066
 1006MOL0     C35680  10.922  10.020   2.616 -0.5170  0.5783  0.2181
 1006MOL0     C35681  10.806  10.088   2.670  0.3099 -0.0286 -0.1696
 1006MOL0     C35682  10.780  10.072   2.803 -0.7649 -0.7879 -0.2398
 1006MOL0     O35683  10.685  10.138   2.877 -0.3014 -0.0891  0.0947
 1006MOL0     C35684  10.646  10.273   2.840 -0.0082 -0.1890  0.5748
 1006MOL0     C35685  10.577  10.354   2.949 -0.1376  0.2470 -0.1380
 1006MOL0     C35686  10.544  10.490   2.901  0.9723  0.7235  0.6195
 1006MOL0     C35687  10.488  10.582   3.007 -0.3210  0.1288  0.4349
 1006MOL0     C35688  10.475  10.723   2.946  0.3975  0.7657  0.2910
 1006MOL0     C35689  10.373  10.809   3.023 -0.2170  0.1594  0.0859
 1006MOL0     C35690  10.275  10.883   2.929 -0.1038  0.3399 -0.3879
 1006MOL0     C35691  10.318  11.028   2.901  1.1390 -0.3518 -1.4950
 1006MOL0     N35692  10.200  11.113   2.854  0.5150 -0.0455 -0.1485
 1006MOL0     C35693  10.139  11.208   2.928  0.1179  0.2280 -0.7900
 1006MOL0     C35694  10.019  11.236   2.872  0.4226  0.3271 -0.1414
 1006MOL0     C35695   9.930  11.346   2.923 -0.1002  0.7342 -0.5212
 1006MOL0     C35696   9.841  11.294   3.031 -0.2915  0.0301  0.0467
 1006MOL0     C35697   9.771  11.415   3.099  0.7214 -0.0846 -0.1732
 1006MOL0     C35698   9.706  11.371   3.230  0.4440  0.1752 -0.5564
 1006MOL0     O35699   9.805  11.291   3.299  0.2518 -0.4598  0.0023
 1006MOL0     C35700   9.775  11.251   3.423  0.3552 -0.0830 -0.2200
 1006MOL0     C35701   9.677  11.303   3.505 -0.1581  0.4085 -0.2387
 1006MOL0     C35702   9.656  11.248   3.639 -0.2277  0.6838 -0.9718
 1006MOL0     C35703   9.743  11.151   3.695  0.8078 -0.0136  0.0116
 1006MOL0     C35704   9.716  11.108   3.830  0.9180 -0.1635 -0.6063
 1006MOL0     O35705   9.589  11.133   3.884 -0.1388 -0.0174  0.3474
 1006MOL0     C35706   9.566  11.128   4.017 -1.0481  0.2489 -0.0428
 1006MOL0     C35707   9.654  11.155   4.129 -0.0968 -0.5496  0.6681
 1006MOL0     C35708   9.599  11.146   4.259 -0.1938 -0.4490  0.0179
 1006MOL0     C35709   9.468  11.113   4.292 -0.8180 -0.4536 -1.0277
 1006MOL0     O35710   9.420  11.112   4.422 -0.5981  0.4113 -0.1496
 1006MOL0     C35711   9.278  11.137   4.427 -1.0680 -0.1763 -0.5326
 1006MOL0     C35712   9.235  11.138   4.572 -0.1286 -0.2095  0.1138
 1006MOL0     C35713   9.079  11.093   4.588  0.3744  0.1352  0.8631
 1006MOL0     C35714   9.037  11.053   4.724  0.3594  0.6224 -0.4286
 1006MOL0     C35715   9.093  11.149   4.837  0.1392  0.5170 -0.3675
 1006MOL0     C35716   9.034  11.105   4.972 -0.0169 -1.0043 -0.8689
 1006MOL0     C35717   9.064  11.200   5.095  0.4095 -0.0961  1.1042
 1006MOL0     C35718   8.951  11.178   5.200  0.3082 -0.8549 -0.4089
 1006MOL0    Cl35719   8.981  11.279   5.347 -0.0490 -0.1434 -0.1236
 1006MOL0     C35720   9.390  11.092   4.175 -0.1594  0.3691  1.0157
 1006MOL0     C35721   9.439  11.096   4.052 -0.0796  0.9094  0.5500
 1006MOL0     O35722   9.811  11.062   3.894 -0.2897 -0.3453  0.1380
 1006MOL0     C35723   9.851  11.112   3.616  1.4151 -0.1980 -0.2810
 1006MOL0     C35724   9.866  11.159   3.481 -0.1405 -0.1503 -0.0831
 1006MOL0     N35725  10.016  11.164   2.754 -0.8190  0.2756 -0.6280
 1006MOL0     N35726  10.123  11.085   2.748  1.2621 -0.1327  0.2098
 1006MOL0     C35727  10.865   9.987   2.882 -0.2653 -0.3044  0.5489
 1006MOL0     C35728  10.976   9.927   2.824 -0.3265  0.4178  0.2406
 1006MOL0     C35729  11.259   9.666   2.649  0.1718 -0.4074 -0.3622
 1006MOL0     C35730  11.375   9.736   2.605 -0.1203  0.2824 -0.9026
 1006MOL0     C35731  11.493   9.668   2.565  0.1861  0.6632 -0.2476
 1006MOL0     C35732  11.504   9.528   2.571 -0.6078  0.3972 -0.1998
 1006MOL0     O35733  11.611   9.462   2.516 -0.0458  0.8840 -0.9864
 1006MOL0     C35734  11.689   9.408   2.624  0.2233  0.8133  0.3280
 1006MOL0     C35735  11.822   9.466   2.631 -0.5745  0.7280  0.4888
 1006MOL0     C35736  11.915   9.408   2.514  0.3100  0.0091  0.0470
 1006MOL0     C35737  11.985   9.524   2.446 -0.6169 -0.4266 -0.3609
 1006MOL0     C35738  12.076   9.592   2.536  0.0507 -0.5971  1.2578
 1006MOL0     C35739  12.136   9.642   2.629  0.5070 -0.6059 -0.9244
 1006MOL0     C35740  11.394   9.456   2.624 -0.1719 -0.0290 -0.2302
 1006MOL0     C35741  11.276   9.522   2.663 -0.1463 -0.1841  0.0510
 1006MOL0     C35742  11.165   9.424   2.684  0.0424  1.0727 -0.2649
 1006MOL0     H35743  10.941  10.036   2.510  2.8403 -3.8533 -0.1233
 1006MOL0     H35744  10.754  10.154   2.601 -1.8222 -0.9502  0.4828
 1006MOL0     H35745  10.731  10.335   2.809  0.0458  0.4789  1.9867
 1006MOL0     H35746  10.580  10.267   2.753  1.0468  1.0063 -0.3532
 1006MOL0     H35747  10.648  10.357   3.033  0.2647  0.4691 -0.4826
 1006MOL0     H35748  10.486  10.308   2.989  2.0854 -2.9710  1.7095
 1006MOL0     H35749  10.468  10.469   2.825  1.4698 -1.6633  0.6846
 1006MOL0     H35750  10.627  10.543   2.853  0.3663  0.3976 -0.8424
 1006MOL0     H35751  10.394  10.541   3.045 -0.5094 -2.2768 -2.2434
 1006MOL0     H35752  10.564  10.591   3.086 -0.3719 -1.9973  0.8053
 1006MOL0     H35753  10.571  10.775   2.940  0.1867  1.3325  1.6104
 1006MOL0     H35754  10.432  10.714   2.846 -1.7161  2.0017  1.0182
 1006MOL0     H35755  10.316  10.739   3.084  2.6642 -3.1418 -0.7459
 1006MOL0     H35756  10.429  10.879   3.085  1.5814  1.3150 -2.6541
 1006MOL0     H35757  10.179  10.890   2.981 -1.4150 -1.5789 -2.3737
 1006MOL0     H35758  10.257  10.837   2.832  1.6729  3.4779 -2.3611
 1006MOL0     H35759  10.357  11.084   2.987 -1.8384  1.7432 -1.3466
 1006MOL0     H35760  10.394  11.032   2.822  2.1524 -1.0778 -0.5854
 1006MOL0     H35761  10.171  11.245   3.024  0.6283 -0.7897 -0.5498
 1006MOL0     H35762   9.995  11.432   2.944  0.2954  0.6387 -1.3039
 1006MOL0     H35763   9.861  11.369   2.841 -1.1290 -0.4432 -0.0147
 1006MOL0     H35764   9.779  11.217   2.985  0.5769 -0.7818  0.2153
 1006MOL0     H35765   9.905  11.238   3.101  0.7029  1.5983  0.4541
 1006MOL0     H35766   9.694  11.457   3.032  1.0303  0.7885  0.0081
 1006MOL0     H35767   9.832  11.500   3.131 -2.3558  1.6691  1.5214
 1006MOL0     H35768   9.613  11.312   3.227 -1.2963  2.6633  0.7943
 1006MOL0     H35769   9.677  11.456   3.292  1.3277  1.8133 -2.2845
 1006MOL0     H35770   9.614  11.387   3.477 -3.0785 -0.7396  2.2424
 1006MOL0     H35771   9.590  11.296   3.712  1.5836 -0.9666  1.9546
 1006MOL0     H35772   9.758  11.180   4.112 -0.4088 -1.5260 -3.6385
 1006MOL0     H35773   9.672  11.159   4.338 -1.2158  1.2917  0.7263
 1006MOL0     H35774   9.263  11.239   4.391  0.0687 -0.4479 -1.8776
 1006MOL0     H35775   9.229  11.064   4.361  2.1786 -1.5097 -1.6624
 1006MOL0     H35776   9.280  11.051   4.619  2.1963  2.1293  2.5172
 1006MOL0     H35777   9.261  11.231   4.623 -1.3048  1.5687 -2.2726
 1006MOL0     H35778   9.018  11.178   4.557  1.0076 -0.1309 -1.2932
 1006MOL0     H35779   9.066  11.016   4.511 -2.6227  0.5788  0.8269
 1006MOL0     H35780   9.051  10.950   4.758  1.3621  0.5760 -0.9270
 1006MOL0     H35781   8.931  11.078   4.721  0.2976  1.6937  3.7639
 1006MOL0     H35782   9.078  11.252   4.805  2.9458  0.6153 -1.6893
 1006MOL0     H35783   9.199  11.122   4.830 -0.0285  0.0661 -1.4132
 1006MOL0     H35784   8.925  11.104   4.966 -0.1722  2.8912 -1.1596
 1006MOL0     H35785   9.058  11.001   4.999 -0.9618 -1.3819 -1.4452
 1006MOL0     H35786   9.067  11.305   5.064  0.2750 -0.7417 -1.2978
 1006MOL0     H35787   9.157  11.166   5.141 -0.9166 -2.5731  2.1343
 1006MOL0     H35788   8.855  11.197   5.151  1.3701  0.3636 -2.1391
 1006MOL0     H35789   8.954  11.075   5.234  1.5669 -0.8405 -0.4265
 1006MOL0     H35790   9.288  11.058   4.183 -1.5378  3.3693 -1.7947
 1006MOL0     H35791   9.368  11.083   3.971  1.5633 -0.0350 -0.8024
 1006MOL0     H35792   9.919  11.041   3.661 -1.9538 -1.9917  2.4766
 1006MOL0     H35793   9.948  11.135   3.414 -0.4575  0.9539 -0.8976
 1006MOL0     H35794  10.838   9.976   2.987  2.9604 -1.2200  1.3999
 1006MOL0     H35795  11.026   9.856   2.889  0.4575 -3.0965 -3.7432
 1006MOL0     H35796  11.369   9.844   2.596  3.2857  0.8637  1.7335
 1006MOL0     H35797  11.569   9.732   2.521 -0.0939  2.6962  2.0440
 1006MOL0     H35798  11.694   9.299   2.612  0.0295  0.6309  1.7026
 1006MOL0     H35799  11.640   9.431   2.720 -1.4324 -1.0640  0.0184
 1006MOL0     H35800  11.866   9.436   2.727  0.2403 -4.5949 -1.2261
 1006MOL0     H35801  11.819   9.575   2.635  0.4076  0.7502  1.1350
 1006MOL0     H35802  11.857   9.351   2.440  1.2750 -0.3458 -0.4577
 1006MOL0     H35803  11.986   9.344   2.568 -0.8061 -0.3384  1.1462
 1006MOL0     H35804  12.047   9.481   2.368  0.5259 -0.0750  0.3304
 1006MOL0     H35805  11.913   9.598   2.409 -1.0483 -0.7775 -0.2369
 1006MOL0     H35806  12.179   9.703   2.705  0.0618 -1.8510  0.3573
 1006MOL0     H35807  11.391   9.348   2.627 -3.1987 -0.0374  1.7060
 1006MOL0     H35808  11.074   9.460   2.634 -0.0040  0.1765 -0.8586
 1006MOL0     H35809  11.179   9.321   2.648 -1.2082  0.3324  1.2647
 1006MOL0     H35810  11.141   9.416   2.790  0.1012 -3.3263 -0.3861
 1007MOL0     O35811   7.332   5.367   9.068  0.3898 -0.0370 -0.2487
 1007MOL0     C35812   7.234   5.437   9.092 -0.1183 -0.1501 -0.2917
 1007MOL0     O35813   7.120   5.440   9.013 -0.7004  0.3688  0.3491
 1007MOL0     C35814   7.138   5.388   8.887  0.6456  0.2056 -0.2082
 1007MOL0     C35815   7.059   5.278   8.850 -0.0254  0.0450 -0.2296
 1007MOL0     C35816   7.054   5.225   8.721  0.0341 -0.1256 -0.4570
 1007MOL0     C35817   7.144   5.269   8.626 -0.1018 -0.2207  0.6476
 1007MOL0     O35818   7.168   5.206   8.500 -0.2589 -1.0594 -0.0519
 1007MOL0     C35819   7.118   5.075   8.481  0.0696  0.5752 -0.2767
 1007MOL0     C35820   7.175   5.020   8.344  0.5887 -0.2355  0.6442
 1007MOL0     C35821   7.338   5.017   8.347 -0.9684 -0.1635 -1.0597
 1007MOL0     C35822   7.401   4.955   8.227 -0.5561 -0.2777  0.3984
 1007MOL0     C35823   7.553   4.959   8.248 -0.6926  0.6893  0.2061
 1007MOL0     C35824   7.613   4.915   8.113  0.1287 -0.2199  0.2929
 1007MOL0     C35825   7.758   4.965   8.103 -0.4428 -0.4881  0.5509
 1007MOL0     C35826   7.824   4.886   7.994  0.6232 -0.0723 -0.3160
 1007MOL0     N35827   7.948   4.953   7.960  0.0630  0.1265  0.8823
 1007MOL0     C35828   8.016   5.066   8.006  0.3830  0.0300 -0.2189
 1007MOL0     C35829   8.123   5.057   7.927 -0.1466 -0.4809  0.8822
 1007MOL0     C35830   8.243   5.156   7.921  0.0646  0.4314  0.3507
 1007MOL0     C35831   8.189   5.298   7.949 -0.1818  0.0617  0.9583
 1007MOL0     C35832   8.289   5.413   7.955  0.8696 -0.6058  0.7930
 1007MOL0     C35833   8.204   5.536   8.004 -0.4660 -0.1762 -0.2406
 1007MOL0     O35834   8.301   5.643   7.998  0.1510 -0.1062 -0.5375
 1007MOL0     C35835   8.269   5.761   8.053 -0.8844 -0.2790  0.3612
 1007MOL0     C35836   8.134   5.805   8.074  0.8023 -0.8491 -0.0043
 1007MOL0     C35837   8.101   5.933   8.115  1.6172 -0.2015  0.0856
 1007MOL0     C35838   8.207   6.024   8.142 -0.3971  0.0181 -0.7131
 1007MOL0     C35839   8.165   6.163   8.192 -0.3193 -0.2905  0.1829
 1007MOL0     O35840   8.265   6.243   8.239  0.1136 -0.2296 -0.3536
 1007MOL0     C35841   8.230   6.352   8.327  0.0146  0.1447  0.1417
 1007MOL0     C35842   8.131   6.447   8.291 -0.2839  0.2453 -0.0553
 1007MOL0     C35843   8.098   6.554   8.372  0.3579 -0.3564 -0.1685
 1007MOL0     C35844   8.164   6.575   8.489 -0.4083 -1.1929 -1.0389
 1007MOL0     O35845   8.109   6.687   8.559 -0.1494  0.2409  0.3217
 1007MOL0     C35846   8.177   6.717   8.688 -0.7974 -0.1082  0.1705
 1007MOL0     C35847   8.117   6.827   8.779 -0.4807 -0.3461 -0.4151
 1007MOL0     C35848   8.179   6.814   8.921 -0.9466 -0.4594 -0.4498
 1007MOL0     C35849   8.110   6.893   9.028  0.3807 -0.6930 -0.3422
 1007MOL0     C35850   8.200   6.939   9.147  0.7813 -0.0983 -0.0551
 1007MOL0     C35851   8.301   6.835   9.202 -0.0596 -1.0665 -0.1477
 1007MOL0     C35852   8.344   6.870   9.345 -0.8087 -0.2987 -1.3031
 1007MOL0     C35853   8.222   6.857   9.447 -0.3195 -0.2857 -0.2132
 1007MOL0    Cl35854   8.292   6.811   9.601  0.5940 -0.2306 -0.0916
 1007MOL0     C35855   8.265   6.489   8.529 -0.3510 -0.0418  0.0246
 1007MOL0     C35856   8.306   6.386   8.445  0.3094  0.0826  0.6208
 1007MOL0     O35857   8.048   6.189   8.198  0.5370  0.2111  0.0446
 1007MOL0     C35858   8.340   5.978   8.137  0.4903 -0.5411  0.8022
 1007MOL0     C35859   8.370   5.853   8.088  0.1560  0.1530 -0.4254
 1007MOL0     N35860   8.133   4.943   7.848 -0.8196 -0.2853  0.0504
 1007MOL0     N35861   8.018   4.891   7.870  0.1761  0.5199  0.5024
 1007MOL0     C35862   7.221   5.380   8.663 -0.4152 -0.9958  0.4297
 1007MOL0     C35863   7.223   5.445   8.793 -0.1397 -1.1814  0.4605
 1007MOL0     C35864   7.223   5.492   9.225  0.8480 -1.1317 -0.3412
 1007MOL0     C35865   7.095   5.506   9.284 -0.4700 -0.7732 -0.2466
 1007MOL0     C35866   7.082   5.562   9.415 -0.4298 -0.1594 -0.0878
 1007MOL0     C35867   7.196   5.615   9.484  0.0850 -0.9152  0.0324
 1007MOL0     O35868   7.188   5.674   9.609  0.2127  0.6197  0.3780
 1007MOL0     C35869   7.066   5.738   9.659  0.7131 -0.0517 -0.3662
 1007MOL0     C35870   7.062   5.881   9.611 -0.3638 -0.4941  0.0433
 1007MOL0     C35871   6.934   5.957   9.646 -0.4491  0.6845  0.4945
 1007MOL0     C35872   6.949   6.108   9.647  0.0335  0.2569  0.7032
 1007MOL0     C35873   7.010   6.167   9.522 -0.1800 -0.7402 -0.1760
 1007MOL0     C35874   7.092   6.206   9.434  0.4374  0.6853  0.4155
 1007MOL0     C35875   7.320   5.600   9.425 -0.7021  0.0751 -0.2394
 1007MOL0     C35876   7.335   5.536   9.299 -0.1833 -0.2660  1.1560
 1007MOL0     C35877   7.482   5.534   9.255  0.3307  0.6437  1.0086
 1007MOL0     H35878   6.987   5.241   8.922  1.8691  0.1993  1.8543
 1007MOL0     H35879   6.981   5.146   8.704  1.5420 -1.8905  0.9064
 1007MOL0     H35880   7.150   5.008   8.561  0.0719  1.6413  0.6405
 1007MOL0     H35881   7.009   5.084   8.480 -0.0225  0.4794  2.1520
 1007MOL0     H35882   7.145   5.083   8.260 -0.1014 -3.1121 -1.4432
 1007MOL0     H35883   7.144   4.916   8.325  3.7211 -1.2235  0.4935
 1007MOL0     H35884   7.365   4.956   8.433 -0.4500  1.0326 -0.3563
 1007MOL0     H35885   7.376   5.119   8.350  2.6707 -1.3223 -2.3959
 1007MOL0     H35886   7.380   4.848   8.226  0.1507 -0.6374  4.9777
 1007MOL0     H35887   7.362   5.007   8.139 -2.3761 -1.3285  0.5415
 1007MOL0     H35888   7.592   5.054   8.287  3.3075 -1.4682  2.1663
 1007MOL0     H35889   7.591   4.886   8.321 -0.2122 -2.2314 -2.7597
 1007MOL0     H35890   7.603   4.807   8.101 -0.8494 -0.0169 -0.9396
 1007MOL0     H35891   7.558   4.963   8.032  0.5228 -1.2094 -0.5846
 1007MOL0     H35892   7.814   4.953   8.197  1.3587 -2.1751 -0.6706
 1007MOL0     H35893   7.755   5.070   8.071 -1.7350 -0.8231 -0.5163
 1007MOL0     H35894   7.851   4.783   8.017 -0.3589 -0.5372 -1.1720
 1007MOL0     H35895   7.770   4.898   7.899  0.5995 -0.0541 -0.3007
 1007MOL0     H35896   7.981   5.148   8.067  0.5748  0.2376 -0.3851
 1007MOL0     H35897   8.318   5.123   7.993  0.1326 -0.7681 -0.2434
 1007MOL0     H35898   8.291   5.153   7.823 -2.7910 -2.1283 -1.1531
 1007MOL0     H35899   8.115   5.322   7.872 -0.7144 -1.5323  0.9372
 1007MOL0     H35900   8.144   5.294   8.049  0.4350 -0.2497  1.2252
 1007MOL0     H35901   8.319   5.427   7.851 -0.3052 -1.1135  0.3679
 1007MOL0     H35902   8.380   5.392   8.013  1.5300 -0.6570 -0.2427
 1007MOL0     H35903   8.169   5.515   8.105 -1.8258  1.6391 -0.2949
 1007MOL0     H35904   8.109   5.547   7.952 -1.4633  0.0149  1.5530
 1007MOL0     H35905   8.046   5.747   8.047  1.4519 -1.7633 -0.2032
 1007MOL0     H35906   7.997   5.962   8.128  1.0499 -1.7972 -0.7213
 1007MOL0     H35907   8.076   6.426   8.199  1.5309 -1.1554 -0.8745
 1007MOL0     H35908   8.012   6.616   8.351 -0.1431 -0.7174  0.7696
 1007MOL0     H35909   8.162   6.628   8.749  2.6818 -1.1076 -0.2202
 1007MOL0     H35910   8.285   6.734   8.676 -0.9720  1.5344  0.5912
 1007MOL0     H35911   8.143   6.929   8.751  0.2648 -0.1654  0.8421
 1007MOL0     H35912   8.008   6.815   8.775 -0.3040 -2.4240 -0.2988
 1007MOL0     H35913   8.190   6.716   8.970  2.4881  1.0357  2.2053
 1007MOL0     H35914   8.283   6.847   8.913 -1.2593  0.6736  0.0561
 1007MOL0     H35915   8.036   6.822   9.065 -0.4723 -0.3759 -1.3799
 1007MOL0     H35916   8.050   6.976   8.987 -1.8124 -2.4895 -0.9860
 1007MOL0     H35917   8.140   6.969   9.233 -1.8274 -0.6790 -1.5551
 1007MOL0     H35918   8.258   7.028   9.120  0.0718 -0.1665 -1.9222
 1007MOL0     H35919   8.277   6.729   9.196  1.1632 -1.4943  1.7476
 1007MOL0     H35920   8.394   6.849   9.146  0.8183  0.1787  1.5363
 1007MOL0     H35921   8.397   6.965   9.351  0.0362 -0.4851 -4.4346
 1007MOL0     H35922   8.420   6.796   9.373  1.1998  1.1007 -2.8132
 1007MOL0     H35923   8.175   6.956   9.462  0.3758  0.1257 -0.7193
 1007MOL0     H35924   8.146   6.790   9.407 -2.3202  0.6923  1.6952
 1007MOL0     H35925   8.311   6.516   8.623 -4.0081  1.1290  1.6973
 1007MOL0     H35926   8.380   6.321   8.490  2.8233  2.3910  0.0935
 1007MOL0     H35927   8.427   6.038   8.164 -1.0168  2.1465  0.1027
 1007MOL0     H35928   8.472   5.817   8.087  0.2270  0.1640  1.6976
 1007MOL0     H35929   7.282   5.426   8.585  0.7299  1.1465  2.4545
 1007MOL0     H35930   7.283   5.535   8.805 -1.8100 -0.1903  2.2113
 1007MOL0     H35931   6.997   5.475   9.250 -1.6226 -0.3302  2.3770
 1007MOL0     H35932   6.985   5.561   9.464  1.7477 -0.4632  4.7243
 1007MOL0     H35933   7.060   5.732   9.768  1.1693  3.5552 -0.0183
 1007MOL0     H35934   6.976   5.693   9.615  0.7807 -0.3323 -0.2223
 1007MOL0     H35935   7.085   5.883   9.504  0.3764 -2.9358  0.0932
 1007MOL0     H35936   7.143   5.939   9.657  1.0243 -1.4892 -1.0732
 1007MOL0     H35937   6.907   5.927   9.748  1.9883 -0.5051  0.8509
 1007MOL0     H35938   6.849   5.928   9.583 -0.0465 -1.5237  0.8715
 1007MOL0     H35939   6.854   6.161   9.656  0.6047  0.9893  3.1412
 1007MOL0     H35940   7.009   6.134   9.735  1.3183  0.8827 -0.3151
 1007MOL0     H35941   7.171   6.231   9.366 -0.9386 -0.0697 -1.5806
 1007MOL0     H35942   7.411   5.632   9.475 -0.4174  0.1938 -0.8195
 1007MOL0     H35943   7.529   5.619   9.305 -0.9276  1.0810  1.4728
 1007MOL0     H35944   7.542   5.444   9.266 -1.3142 -0.2942  2.8978
 1007MOL0     H35945   7.468   5.557   9.149 -2.5902  1.5800  1.5171
 1008MOL0     O35946   4.301   7.491  11.131  0.3720 -0.0361 -0.0352
 1008MOL0     C35947   4.232   7.422  11.201 -0.3967  0.3254 -0.9835
 1008MOL0     O35948   4.094   7.391  11.175 -1.3032  0.1222 -0.0649
 1008MOL0     C35949   4.021   7.485  11.120  1.0508  0.3047  0.2009
 1008MOL0     C35950   3.890   7.461  11.069  0.1535 -0.8427 -0.1946
 1008MOL0     C35951   3.818   7.563  11.015 -0.2144  0.3979  0.0447
 1008MOL0     C35952   3.861   7.704  11.018  1.0753  0.8630  0.2926
 1008MOL0     O35953   3.790   7.816  10.980  0.2392 -0.4706  0.1011
 1008MOL0     C35954   3.658   7.797  10.943 -1.4443 -0.0207  1.4418
 1008MOL0     C35955   3.602   7.929  10.892 -0.9490 -1.1041 -0.2664
 1008MOL0     C35956   3.639   8.050  10.981  0.0791  1.0070 -0.4165
 1008MOL0     C35957   3.541   8.167  10.946  0.2128  0.7728  0.0214
 1008MOL0     C35958   3.565   8.225  10.807  0.6357 -0.1909 -0.4350
 1008MOL0     C35959   3.481   8.346  10.782  0.9082  0.2077 -0.0496
 1008MOL0     C35960   3.519   8.426  10.650 -0.4930  1.3722  0.4220
 1008MOL0     C35961   3.668   8.484  10.646 -0.6167 -0.1073 -0.6616
 1008MOL0     N35962   3.731   8.505  10.781 -0.0901 -0.5846  0.3628
 1008MOL0     C35963   3.846   8.451  10.808 -1.0682 -0.0169  0.3815
 1008MOL0     C35964   3.880   8.493  10.927  0.0670 -0.2251  0.8288
 1008MOL0     C35965   4.008   8.454  11.000  0.0677 -0.1029  0.6669
 1008MOL0     C35966   4.100   8.570  11.019  0.6875 -0.5928  0.1311
 1008MOL0     C35967   4.235   8.508  11.050  0.6416 -0.7132 -1.0487
 1008MOL0     C35968   4.344   8.621  11.060 -1.0923  0.0392  0.5241
 1008MOL0     O35969   4.466   8.572  11.096  0.5181 -0.1540  0.5306
 1008MOL0     C35970   4.501   8.519  11.214 -0.8989  0.1427 -0.7963
 1008MOL0     C35971   4.606   8.429  11.229 -0.9584 -0.6633 -0.4984
 1008MOL0     C35972   4.646   8.378  11.351 -0.2751 -0.1538 -0.0021
 1008MOL0     C35973   4.550   8.366  11.451 -0.3990  0.4949  0.4658
 1008MOL0     C35974   4.571   8.263  11.553  1.3271 -0.0295  0.3678
 1008MOL0     O35975   4.693   8.223  11.556 -0.4848 -0.5295 -0.1231
 1008MOL0     C35976   4.725   8.127  11.655 -0.0956 -0.4976  0.1154
 1008MOL0     C35977   4.668   8.000  11.646 -0.2920 -0.2280 -0.0971
 1008MOL0     C35978   4.702   7.889  11.724 -0.5412 -0.2445  0.8220
 1008MOL0     C35979   4.800   7.915  11.818  0.1912 -0.0776  0.0991
 1008MOL0     O35980   4.832   7.815  11.899  1.2173 -0.1728 -0.0783
 1008MOL0     C35981   4.948   7.812  11.963  0.4830 -0.4435 -0.1402
 1008MOL0     C35982   4.942   7.858  12.115  0.4218 -0.1502  0.2751
 1008MOL0     C35983   4.828   7.768  12.187 -0.1947  0.5005 -0.4070
 1008MOL0     C35984   4.791   7.823  12.323 -0.8105 -0.3101  0.6913
 1008MOL0     C35985   4.689   7.731  12.393  0.0563  0.2070  0.5186
 1008MOL0     C35986   4.765   7.618  12.470  0.1306  0.3999 -0.0933
 1008MOL0     C35987   4.810   7.680  12.600  0.3821  0.0244 -0.1007
 1008MOL0     C35988   4.929   7.604  12.671 -0.3505  0.0721  1.9515
 1008MOL0    Cl35989   5.082   7.637  12.582 -0.0153  0.1943  0.3718
 1008MOL0     C35990   4.852   8.041  11.835  0.5071  0.1274  0.6010
 1008MOL0     C35991   4.823   8.154  11.749 -1.0082 -0.0791 -1.0244
 1008MOL0     O35992   4.482   8.241  11.635  0.0724  0.3457  0.2217
 1008MOL0     C35993   4.435   8.449  11.431  0.0750  0.7907 -0.0812
 1008MOL0     C35994   4.405   8.526  11.318 -0.3042  0.4394  0.5983
 1008MOL0     N35995   3.772   8.561  10.980 -0.4043  0.4573 -0.8235
 1008MOL0     N35996   3.686   8.579  10.890 -0.1563 -0.6904  0.4995
 1008MOL0     C35997   3.982   7.727  11.077  0.6306  0.4143 -0.8456
 1008MOL0     C35998   4.057   7.624  11.120  1.1611 -0.4887 -0.3614
 1008MOL0     C35999   4.301   7.342  11.307  0.7584  0.0863 -0.0395
 1008MOL0     C36000   4.237   7.229  11.350  0.0979  0.3225 -1.2457
 1008MOL0     C36001   4.304   7.143  11.437 -0.0911  0.2954 -1.0385
 1008MOL0     C36002   4.427   7.188  11.494 -0.8398  0.4627 -0.1928
 1008MOL0     O36003   4.495   7.127  11.598 -1.2721 -0.8095 -0.3356
 1008MOL0     C36004   4.467   6.985  11.618  0.8055  0.0537 -0.4527
 1008MOL0     C36005   4.585   6.927  11.698 -0.0547 -0.4076 -0.9858
 1008MOL0     C36006   4.575   6.784  11.754  0.7449  0.5929  0.2508
 1008MOL0     C36007   4.708   6.738  11.811  0.2531  0.6088  0.4079
 1008MOL0     C36008   4.696   6.602  11.856  0.7384  0.6784  0.1024
 1008MOL0     C36009   4.702   6.492  11.911  0.1008  0.3339 -0.7716
 1008MOL0     C36010   4.486   7.301  11.451 -0.2033 -0.0717  0.6725
 1008MOL0     C36011   4.431   7.387  11.356  0.4454 -0.4101 -0.0010
 1008MOL0     C36012   4.494   7.529  11.338 -0.8673  0.4536 -0.1619
 1008MOL0     H36013   3.854   7.359  11.074  2.4286 -1.8029 -1.6417
 1008MOL0     H36014   3.718   7.549  10.974 -1.9561  2.6239  3.1268
 1008MOL0     H36015   3.667   7.728  10.859  2.1173  5.1953 -3.1733
 1008MOL0     H36016   3.601   7.769  11.033  1.1421 -2.5818  2.4432
 1008MOL0     H36017   3.494   7.927  10.907 -1.0249  1.0664 -0.2371
 1008MOL0     H36018   3.621   7.946  10.785  0.5015 -0.6937  0.0268
 1008MOL0     H36019   3.744   8.079  10.970  0.3883  0.5393  1.1127
 1008MOL0     H36020   3.623   8.016  11.084  0.2686  0.4807 -0.5589
 1008MOL0     H36021   3.437   8.132  10.950  0.0274  1.1185 -1.4548
 1008MOL0     H36022   3.555   8.243  11.024  0.9801  0.8242 -0.1652
 1008MOL0     H36023   3.670   8.249  10.787  1.4181 -2.3157  0.7666
 1008MOL0     H36024   3.526   8.157  10.731  0.2198  0.3399 -0.7019
 1008MOL0     H36025   3.381   8.305  10.763  0.6041  0.1225  1.5647
 1008MOL0     H36026   3.480   8.414  10.868 -3.3102  1.3208 -0.7523
 1008MOL0     H36027   3.456   8.515  10.645  1.1798  2.6327  0.7089
 1008MOL0     H36028   3.519   8.354  10.568 -2.2778  2.3409 -0.4929
 1008MOL0     H36029   3.725   8.413  10.586 -2.3117 -2.3280  0.2259
 1008MOL0     H36030   3.673   8.576  10.587  1.5117 -0.5431 -1.2594
 1008MOL0     H36031   3.904   8.384  10.746  1.9440  0.7463  2.1719
 1008MOL0     H36032   3.970   8.403  11.089 -2.2628 -0.3135 -0.3975
 1008MOL0     H36033   4.058   8.368  10.953 -1.5703  1.0001 -3.5643
 1008MOL0     H36034   4.106   8.626  10.925  1.4611 -1.3100 -0.2628
 1008MOL0     H36035   4.065   8.653  11.080  1.4847 -0.2758  0.1679
 1008MOL0     H36036   4.270   8.439  10.973 -0.5637  0.7869 -3.0269
 1008MOL0     H36037   4.240   8.449  11.142 -2.5637 -0.4260 -0.5892
 1008MOL0     H36038   4.316   8.698  11.131 -0.3944  3.8581 -2.9769
 1008MOL0     H36039   4.367   8.662  10.961 -1.4358  4.2979  2.0038
 1008MOL0     H36040   4.664   8.404  11.140  1.3309 -0.1185  0.7476
 1008MOL0     H36041   4.742   8.328  11.343  1.2633  2.0503  2.8910
 1008MOL0     H36042   4.584   7.977  11.581  0.1930  1.1459 -1.2613
 1008MOL0     H36043   4.661   7.789  11.710 -0.1592 -0.5905  2.0705
 1008MOL0     H36044   4.984   7.710  11.946  1.3118  0.0386 -1.4115
 1008MOL0     H36045   5.018   7.885  11.920  0.0479  1.6914  2.5106
 1008MOL0     H36046   5.040   7.850  12.162  0.3690  0.6552  0.5345
 1008MOL0     H36047   4.918   7.965  12.123  1.0321 -0.0204  0.3980
 1008MOL0     H36048   4.739   7.768  12.123 -1.0923  0.7142  0.8051
 1008MOL0     H36049   4.870   7.667  12.198  0.2311  0.8618  1.6412
 1008MOL0     H36050   4.741   7.919  12.304  0.8745  0.4720 -0.0261
 1008MOL0     H36051   4.877   7.834  12.390 -0.2001  0.8106 -0.2220
 1008MOL0     H36052   4.621   7.684  12.322  1.0004 -2.0130  0.9993
 1008MOL0     H36053   4.634   7.792  12.466  1.7080  1.1898  1.0090
 1008MOL0     H36054   4.692   7.539  12.486 -0.1462  0.2023 -2.0547
 1008MOL0     H36055   4.849   7.580  12.410 -2.9006 -3.5123 -2.3544
 1008MOL0     H36056   4.724   7.694  12.667  0.9326  1.9477  0.2825
 1008MOL0     H36057   4.835   7.787  12.600 -2.5133  1.0000  4.2010
 1008MOL0     H36058   4.950   7.651  12.768  0.6854  0.0669  1.7492
 1008MOL0     H36059   4.900   7.501  12.689  0.0873 -0.4038  0.1083
 1008MOL0     H36060   4.919   8.073  11.913 -0.1948  0.9452  0.8812
 1008MOL0     H36061   4.864   8.254  11.746 -2.4808  0.5356 -1.1599
 1008MOL0     H36062   4.369   8.441  11.517  0.6407  1.3322  0.4202
 1008MOL0     H36063   4.308   8.576  11.317 -1.8457 -2.2902  1.0062
 1008MOL0     H36064   4.016   7.829  11.094  2.3566  0.2645 -2.9507
 1008MOL0     H36065   4.148   7.668  11.160  2.1944 -0.4055 -2.6514
 1008MOL0     H36066   4.144   7.197  11.304 -1.8126  2.3049  0.9537
 1008MOL0     H36067   4.251   7.061  11.485  1.6560  0.1688  0.7956
 1008MOL0     H36068   4.464   6.944  11.517  2.9953  2.0441 -1.4395
 1008MOL0     H36069   4.376   6.968  11.675  2.1473 -0.7944  1.5743
 1008MOL0     H36070   4.601   6.989  11.787  0.2899 -0.3362 -1.0984
 1008MOL0     H36071   4.674   6.930  11.636  0.9770 -0.6935  0.4270
 1008MOL0     H36072   4.543   6.713  11.678  0.9885  0.3315  0.3855
 1008MOL0     H36073   4.487   6.776  11.818 -0.7632 -0.0797 -1.8072
 1008MOL0     H36074   4.782   6.747  11.732 -2.5841  2.7675 -2.2242
 1008MOL0     H36075   4.729   6.807  11.894 -0.5144  0.8075  0.4489
 1008MOL0     H36076   4.692   6.397  11.958  0.7369  1.2693  1.3552
 1008MOL0     H36077   4.580   7.341  11.486 -0.3452  1.3179 -0.4091
 1008MOL0     H36078   4.539   7.565  11.432 -0.0507 -0.9743  0.0196
 1008MOL0     H36079   4.577   7.518  11.268 -0.2924 -2.0127  0.8129
 1008MOL0     H36080   4.416   7.599  11.306  0.0171  1.8285  0.5694
 1009MOL0     O36081   4.012   5.163   9.245  0.2506 -0.5748  0.4095
 1009MOL0     C36082   4.018   5.284   9.248 -0.4924 -0.4606 -0.2727
 1009MOL0     O36083   3.940   5.367   9.324 -0.8176  0.0558  0.5210
 1009MOL0     C36084   3.836   5.311   9.378  1.1078 -0.3490 -0.2434
 1009MOL0     C36085   3.719   5.271   9.315  0.4032  0.7808  0.3364
 1009MOL0     C36086   3.599   5.226   9.386 -0.5276  0.2870  0.1771
 1009MOL0     C36087   3.614   5.198   9.518 -0.0544  0.7862  0.0594
 1009MOL0     O36088   3.519   5.162   9.604  0.7400  0.0502  0.0174
 1009MOL0     C36089   3.377   5.168   9.564  0.1253  0.4487  0.0915
 1009MOL0     C36090   3.300   5.105   9.688  0.0431  0.2497 -0.4408
 1009MOL0     C36091   3.168   5.193   9.713 -0.1842 -0.0320  0.2334
 1009MOL0     C36092   3.074   5.137   9.821  1.3824  0.1481 -1.3951
 1009MOL0     C36093   2.972   5.247   9.852  0.0611  0.0457  1.0579
 1009MOL0     C36094   2.873   5.215   9.968 -0.1971 -0.1380 -0.0153
 1009MOL0     C36095   2.760   5.313   9.987  0.2592 -0.6062  0.5755
 1009MOL0     C36096   2.660   5.321   9.869  0.0607 -0.7249  1.7655
 1009MOL0     N36097   2.609   5.183   9.838  0.4185 -0.0532  0.0326
 1009MOL0     C36098   2.494   5.132   9.897  0.3463  0.4574  0.2360
 1009MOL0     C36099   2.457   5.026   9.819  1.3472 -0.5420 -0.9455
 1009MOL0     C36100   2.323   4.960   9.832 -0.1198 -0.9036  0.2756
 1009MOL0     C36101   2.207   5.041   9.761 -0.2239  0.0510  0.1980
 1009MOL0     C36102   2.120   5.120   9.857  0.6448  0.1536 -1.5024
 1009MOL0     C36103   1.997   5.175   9.799  0.1439 -1.1639 -0.1921
 1009MOL0     O36104   1.910   5.057   9.778  0.1261 -0.1122 -1.0806
 1009MOL0     C36105   1.830   5.047   9.667 -0.5843 -1.1640  0.4748
 1009MOL0     C36106   1.825   4.921   9.608  1.2118 -0.8639  0.4420
 1009MOL0     C36107   1.744   4.899   9.492 -0.1640 -0.6113  0.0424
 1009MOL0     C36108   1.656   5.000   9.455  1.2165 -0.4710  0.0543
 1009MOL0     C36109   1.569   4.990   9.337  0.2020  0.0395  0.2563
 1009MOL0     O36110   1.574   4.870   9.264  0.1929 -0.9526  0.8940
 1009MOL0     C36111   1.515   4.852   9.137 -0.5121 -0.0018 -0.0335
 1009MOL0     C36112   1.469   4.725   9.110  0.6290  1.0923  1.2973
 1009MOL0     C36113   1.408   4.696   8.988 -0.4125  0.1235  0.4701
 1009MOL0     C36114   1.388   4.793   8.894  0.6795 -1.1701  1.2778
 1009MOL0     O36115   1.314   4.754   8.782  0.1577  0.1540 -0.1837
 1009MOL0     C36116   1.213   4.844   8.726  0.0590  0.1398  0.4615
 1009MOL0     C36117   1.099   4.852   8.822  0.3617 -0.2255 -0.0821
 1009MOL0     C36118   0.978   4.944   8.768 -0.8461 -0.8278 -0.6315
 1009MOL0     C36119   0.968   5.076   8.827  0.3595 -0.1220 -0.3920
 1009MOL0     C36120   1.099   5.155   8.811  0.7849  0.4280 -0.6443
 1009MOL0     C36121   1.088   5.301   8.866 -0.2276 -1.9186 -0.3186
 1009MOL0     C36122   1.217   5.384   8.856 -0.6559  0.0347 -1.3735
 1009MOL0     C36123   1.184   5.533   8.866 -0.0326  0.1075 -0.1228
 1009MOL0    Cl36124   1.328   5.625   8.860 -0.2111 -0.1521 -0.2419
 1009MOL0     C36125   1.438   4.921   8.916  0.3200  0.8094 -0.1406
 1009MOL0     C36126   1.499   4.951   9.039 -0.3267 -0.4855  0.0261
 1009MOL0     O36127   1.496   5.083   9.323  0.2173  0.1851 -0.0458
 1009MOL0     C36128   1.653   5.123   9.528 -0.7696  0.4911  0.3102
 1009MOL0     C36129   1.747   5.146   9.626  0.8738  1.5604 -0.2461
 1009MOL0     N36130   2.551   5.014   9.722  0.8188  0.6687 -1.1177
 1009MOL0     N36131   2.641   5.107   9.728  0.2367 -0.1413  0.0490
 1009MOL0     C36132   3.737   5.213   9.577  0.7537 -0.2091  0.2560
 1009MOL0     C36133   3.836   5.280   9.512 -0.4173 -0.7336  0.1566
 1009MOL0     C36134   4.124   5.341   9.163  0.4068 -0.0381 -0.6180
 1009MOL0     C36135   4.146   5.279   9.037 -0.4158 -0.6845 -0.4065
 1009MOL0     C36136   4.225   5.348   8.941 -0.6190 -0.4041 -0.7461
 1009MOL0     C36137   4.292   5.470   8.977 -0.7263  0.5504  0.3560
 1009MOL0     O36138   4.397   5.533   8.901 -0.6321 -0.3676  0.4971
 1009MOL0     C36139   4.409   5.511   8.756 -0.2052  1.3640 -0.7485
 1009MOL0     C36140   4.499   5.390   8.729  0.3851 -0.5541  1.1141
 1009MOL0     C36141   4.644   5.411   8.749 -0.3831 -0.4622 -0.0181
 1009MOL0     C36142   4.728   5.282   8.711 -0.8444  0.1585 -0.1340
 1009MOL0     C36143   4.876   5.313   8.723  1.4733  0.9489  0.4283
 1009MOL0     C36144   4.991   5.344   8.746  0.0209 -0.1123  0.9437
 1009MOL0     C36145   4.260   5.528   9.102 -0.2628 -0.8479 -0.6850
 1009MOL0     C36146   4.177   5.468   9.196 -0.8011  0.0442 -0.1176
 1009MOL0     C36147   4.171   5.544   9.318  0.3564  0.0602  0.2055
 1009MOL0     H36148   3.715   5.276   9.207  0.2362  1.3923  0.3701
 1009MOL0     H36149   3.509   5.210   9.328 -0.1626  0.2896 -0.3952
 1009MOL0     H36150   3.342   5.265   9.530  0.0306  0.5026  0.3411
 1009MOL0     H36151   3.363   5.111   9.472 -0.4386  1.4455 -0.4504
 1009MOL0     H36152   3.369   5.108   9.772  1.2144  0.1135 -1.3717
 1009MOL0     H36153   3.275   5.001   9.665 -0.7650 -0.3551  2.7840
 1009MOL0     H36154   3.118   5.217   9.618  2.1248  2.9586 -0.3788
 1009MOL0     H36155   3.206   5.291   9.742  0.3110  0.0720 -0.7263
 1009MOL0     H36156   3.029   5.047   9.778  1.4263 -0.2621 -0.5874
 1009MOL0     H36157   3.129   5.103   9.909 -2.2531 -1.5241  0.4844
 1009MOL0     H36158   3.032   5.337   9.867 -1.8681  1.6902 -0.5312
 1009MOL0     H36159   2.908   5.276   9.768 -0.7071 -1.3104  1.1350
 1009MOL0     H36160   2.822   5.120   9.949 -0.4981 -0.3547  1.6664
 1009MOL0     H36161   2.932   5.202  10.060 -2.2133  1.1794  1.5679
 1009MOL0     H36162   2.809   5.410  10.003  1.0405 -0.7612 -0.7385
 1009MOL0     H36163   2.698   5.287  10.073 -0.6821 -0.2703  0.0081
 1009MOL0     H36164   2.573   5.383   9.892  0.5222 -0.0548  1.7468
 1009MOL0     H36165   2.722   5.365   9.790  0.5357  0.8283  2.9313
 1009MOL0     H36166   2.442   5.173   9.983 -1.8935  1.4272 -1.4780
 1009MOL0     H36167   2.329   4.866   9.778  1.0113 -2.2055  2.5155
 1009MOL0     H36168   2.295   4.944   9.937  0.6744 -2.2943  0.2900
 1009MOL0     H36169   2.245   5.109   9.684  1.3847  0.1390  1.0279
 1009MOL0     H36170   2.150   4.955   9.725  2.0339 -1.5359  0.2248
 1009MOL0     H36171   2.179   5.201   9.901  2.5824 -1.5807 -0.7700
 1009MOL0     H36172   2.085   5.058   9.940  2.8855  1.8304  0.8558
 1009MOL0     H36173   2.029   5.232   9.712  1.2492 -3.7032 -1.5406
 1009MOL0     H36174   1.947   5.241   9.871 -2.5965 -5.4421  2.2841
 1009MOL0     H36175   1.899   4.847   9.638  0.1750 -1.9463  0.3868
 1009MOL0     H36176   1.741   4.808   9.432  0.5450  1.2418 -3.0318
 1009MOL0     H36177   1.473   4.648   9.186 -4.1981 -0.4916  0.3382
 1009MOL0     H36178   1.383   4.593   8.962  0.1054  0.1201 -0.0317
 1009MOL0     H36179   1.266   4.935   8.697  1.7725 -1.1818 -0.7881
 1009MOL0     H36180   1.171   4.805   8.632  0.4117  0.2246  0.2666
 1009MOL0     H36181   1.063   4.749   8.823 -2.7375  0.6082 -3.6374
 1009MOL0     H36182   1.137   4.876   8.922 -6.9151 -0.4019  3.4387
 1009MOL0     H36183   0.983   4.966   8.661  1.2249  3.2346  0.1078
 1009MOL0     H36184   0.886   4.894   8.799 -0.3955 -2.2255 -1.4506
 1009MOL0     H36185   0.944   5.076   8.934  0.2007  0.7740 -0.4200
 1009MOL0     H36186   0.896   5.139   8.775 -2.0244 -2.6830 -0.4138
 1009MOL0     H36187   1.128   5.167   8.706  0.1149 -1.0793 -1.0205
 1009MOL0     H36188   1.179   5.097   8.857  0.4129  0.7064  0.3663
 1009MOL0     H36189   1.018   5.350   8.798 -1.4870 -3.3996 -0.1335
 1009MOL0     H36190   1.031   5.310   8.959 -1.0497  3.1028 -1.0453
 1009MOL0     H36191   1.271   5.365   8.764  1.3089  0.3426 -0.3326
 1009MOL0     H36192   1.291   5.360   8.933 -2.9519  0.9549  1.3402
 1009MOL0     H36193   1.126   5.559   8.777 -3.4008 -0.0956  1.8237
 1009MOL0     H36194   1.123   5.550   8.956  0.4646 -1.0340  0.4519
 1009MOL0     H36195   1.435   4.996   8.838  0.0502 -0.4207 -1.3424
 1009MOL0     H36196   1.530   5.048   9.075  0.2309 -0.0984 -1.3979
 1009MOL0     H36197   1.570   5.191   9.512 -1.3914 -0.5563 -1.1972
 1009MOL0     H36198   1.749   5.244   9.673  3.7836  2.1587 -1.3991
 1009MOL0     H36199   3.733   5.203   9.685 -0.0796 -0.1112  0.2416
 1009MOL0     H36200   3.921   5.303   9.575 -1.2074 -1.0056  1.3596
 1009MOL0     H36201   4.085   5.191   9.019 -1.8123  0.4690 -1.5647
 1009MOL0     H36202   4.257   5.297   8.850  2.5201  0.1998 -0.0921
 1009MOL0     H36203   4.463   5.598   8.717  3.2052 -0.8806 -1.4315
 1009MOL0     H36204   4.318   5.503   8.695  1.7020 -2.3617 -3.4606
 1009MOL0     H36205   4.481   5.356   8.627  2.7454 -2.7616  1.3374
 1009MOL0     H36206   4.458   5.311   8.792  1.9771 -2.4054 -0.0831
 1009MOL0     H36207   4.661   5.424   8.856  0.5779  0.3793 -0.2491
 1009MOL0     H36208   4.680   5.509   8.714 -0.4020  0.5112  2.4717
 1009MOL0     H36209   4.696   5.192   8.764  2.9699 -1.6331 -0.5017
 1009MOL0     H36210   4.705   5.249   8.610 -5.4610  0.1652  0.7156
 1009MOL0     H36211   5.094   5.359   8.769 -0.1343  0.8531  1.0708
 1009MOL0     H36212   4.309   5.620   9.133 -1.6030  0.6280 -2.6999
 1009MOL0     H36213   4.068   5.579   9.328  0.7567  1.2318  0.3459
 1009MOL0     H36214   4.213   5.477   9.395  0.3422  4.4899  4.5831
 1009MOL0     H36215   4.239   5.629   9.330  0.2930  0.1039  0.2590
 1010MOL0     O36216   2.866   9.054   0.516 -1.1805  0.9796  0.5050
 1010MOL0     C36217   2.856   9.041   0.394 -0.5631 -0.8858 -0.2333
 1010MOL0     O36218   2.946   9.096   0.299  0.0193 -0.1462  0.1303
 1010MOL0     C36219   3.063   9.173   0.325  0.3561 -0.4370 -0.0157
 1010MOL0     C36220   3.095   9.231   0.447 -0.5167  0.2553 -0.2504
 1010MOL0     C36221   3.215   9.301   0.466  0.3856 -0.3469 -0.7874
 1010MOL0     C36222   3.310   9.302   0.364  0.5282 -0.8195 -0.4047
 1010MOL0     O36223   3.448   9.337   0.370 -0.0925  0.2858  0.0946
 1010MOL0     C36224   3.497   9.422   0.470 -0.7286 -0.3120 -1.3398
 1010MOL0     C36225   3.563   9.546   0.404  0.9503 -0.1958  0.5764
 1010MOL0     C36226   3.464   9.635   0.322  0.2191 -0.7979  0.2394
 1010MOL0     C36227   3.530   9.772   0.317 -0.6993  0.2352  0.6548
 1010MOL0     C36228   3.465   9.834   0.190  0.4087  0.0559 -1.3594
 1010MOL0     C36229   3.519   9.978   0.189  0.4509 -0.0305 -1.0151
 1010MOL0     C36230   3.540  10.036   0.050 -0.2585  0.8589 -0.4871
 1010MOL0     C36231   3.430  10.136   0.005 -0.4671  0.0141  0.1993
 1010MOL0     N36232   3.296  10.070   0.006  0.3935  0.5239  0.0845
 1010MOL0     C36233   3.195  10.076   0.094  0.7638  0.3778  0.6482
 1010MOL0     C36234   3.097   9.999   0.047  1.3058  0.8925  0.2868
 1010MOL0     C36235   2.966   9.944   0.107  0.0299 -0.2421 -0.5306
 1010MOL0     C36236   2.969   9.823   0.192 -0.4074 -0.9478 -0.0917
 1010MOL0     C36237   3.033   9.696   0.141 -0.7029  0.2516  0.7040
 1010MOL0     C36238   2.978   9.646   0.011 -0.6680  1.2006  0.8432
 1010MOL0     O36239   2.832   9.627  -0.001 -0.5536 -0.2213 -0.1040
 1010MOL0     C36240   2.775   9.505  -0.032  0.2943 -1.3764  0.3511
 1010MOL0     C36241   2.829   9.383   0.006 -1.1674 -1.3498  0.9689
 1010MOL0     C36242   2.764   9.265  -0.035  0.5528 -0.5305 -0.3141
 1010MOL0     C36243   2.638   9.266  -0.096  0.6805 -0.9952 -0.5587
 1010MOL0     C36244   2.558   9.138  -0.105 -0.1931  0.2010 -0.1680
 1010MOL0     O36245   2.430   9.162  -0.142  0.5537  0.6425  1.2363
 1010MOL0     C36246   2.351   9.056  -0.166 -0.0917 -0.2060 -0.6639
 1010MOL0     C36247   2.349   8.991  -0.295 -0.2877 -0.8143  0.4689
 1010MOL0     C36248   2.280   8.883  -0.323 -1.0441  0.2129  0.2170
 1010MOL0     C36249   2.189   8.841  -0.226 -0.2522  0.3582 -0.4261
 1010MOL0     O36250   2.099   8.733  -0.248  0.2943 -0.0121  1.0615
 1010MOL0     C36251   2.106   8.639  -0.360 -0.2175 -0.1850 -0.3118
 1010MOL0     C36252   2.062   8.499  -0.320 -0.2877  0.1387 -0.3852
 1010MOL0     C36253   2.173   8.422  -0.247 -0.7938  0.4451 -0.1619
 1010MOL0     C36254   2.113   8.295  -0.193  0.3063  0.0142 -0.2593
 1010MOL0     C36255   2.112   8.183  -0.289  0.6372 -0.1657 -0.6970
 1010MOL0     C36256   1.982   8.093  -0.281  0.2416 -0.3273 -0.3801
 1010MOL0     C36257   2.007   7.977  -0.176  0.0107 -0.1037 -0.5234
 1010MOL0     C36258   1.895   7.867  -0.196  0.2530 -0.4423  0.2804
 1010MOL0    Cl36259   1.942   7.747  -0.319  0.2158 -0.0718 -0.0999
 1010MOL0     C36260   2.192   8.898  -0.102  0.7300  0.1979  0.3051
 1010MOL0     C36261   2.271   9.001  -0.070 -0.4177 -0.3784  0.4871
 1010MOL0     O36262   2.602   9.028  -0.081 -0.1957  0.8633 -0.1762
 1010MOL0     C36263   2.575   9.393  -0.116 -1.2925 -0.5128 -0.5730
 1010MOL0     C36264   2.644   9.511  -0.093  0.0548 -0.0266 -0.0935
 1010MOL0     N36265   3.140   9.936  -0.064 -0.0432  0.3767 -0.1877
 1010MOL0     N36266   3.259   9.985  -0.088 -0.2369 -0.7217  0.3299
 1010MOL0     C36267   3.276   9.243   0.241 -0.4131  0.5744 -0.0248
 1010MOL0     C36268   3.153   9.175   0.225 -0.6499 -0.3258  0.8133
 1010MOL0     C36269   2.749   8.954   0.348  0.1294  0.1890 -0.1040
 1010MOL0     C36270   2.749   8.915   0.216 -0.0539  0.5245  0.8115
 1010MOL0     C36271   2.649   8.835   0.161 -0.4024  0.5030  0.3837
 1010MOL0     C36272   2.553   8.774   0.242 -0.3290  0.2142 -0.4261
 1010MOL0     O36273   2.452   8.696   0.198  0.1128 -0.9382  0.3013
 1010MOL0     C36274   2.478   8.581   0.111 -0.5230 -0.7373  0.2061
 1010MOL0     C36275   2.514   8.456   0.191  0.3246 -0.7099 -0.7439
 1010MOL0     C36276   2.582   8.340   0.103  0.0385 -0.3865  0.4486
 1010MOL0     C36277   2.735   8.315   0.120  0.1904  0.8653  1.1397
 1010MOL0     C36278   2.765   8.275   0.263  0.1494  0.4679  0.7967
 1010MOL0     C36279   2.779   8.251   0.386  0.2705  0.2035  0.4186
 1010MOL0     C36280   2.547   8.813   0.373 -0.0206  0.5310 -0.1656
 1010MOL0     C36281   2.640   8.898   0.428 -1.1663  0.2028  0.2160
 1010MOL0     C36282   2.617   8.914   0.577 -0.5797  0.3748  0.2760
 1010MOL0     H36283   3.028   9.230   0.532 -0.2896  2.6617  0.0230
 1010MOL0     H36284   3.228   9.337   0.567  0.7858 -1.7352 -0.3278
 1010MOL0     H36285   3.417   9.461   0.535  1.5303  2.1034  0.1869
 1010MOL0     H36286   3.567   9.368   0.533  0.5053 -0.1058 -2.4994
 1010MOL0     H36287   3.636   9.507   0.333 -0.5929 -3.5870  0.6724
 1010MOL0     H36288   3.623   9.600   0.478  2.2871 -2.7048  1.4275
 1010MOL0     H36289   3.364   9.649   0.366 -1.0129 -2.0708 -1.9788
 1010MOL0     H36290   3.453   9.592   0.222 -1.3329  4.1896 -2.0803
 1010MOL0     H36291   3.524   9.822   0.414  2.2405  0.6722  0.7028
 1010MOL0     H36292   3.637   9.770   0.295 -0.6045  1.9926  0.8070
 1010MOL0     H36293   3.483   9.796   0.089  0.2749  1.3727 -1.8991
 1010MOL0     H36294   3.356   9.836   0.187  0.3112 -1.8435 -0.7160
 1010MOL0     H36295   3.446  10.046   0.235  0.0505 -0.5898 -0.7993
 1010MOL0     H36296   3.607   9.988   0.253  1.9536 -1.3950 -2.7730
 1010MOL0     H36297   3.552   9.949  -0.016 -1.5537 -0.8275  1.4042
 1010MOL0     H36298   3.640  10.082   0.045 -0.1301  1.3839  3.6701
 1010MOL0     H36299   3.431  10.226   0.067 -0.6388  0.7960 -0.9145
 1010MOL0     H36300   3.452  10.164  -0.098 -2.1627 -2.2952 -0.8797
 1010MOL0     H36301   3.197  10.123   0.192 -1.5678 -0.2268  1.0387
 1010MOL0     H36302   2.919  10.026   0.162 -0.9330  0.4095 -2.2579
 1010MOL0     H36303   2.904   9.914   0.022 -2.4380 -1.3925  1.5532
 1010MOL0     H36304   3.012   9.853   0.288 -1.3822 -0.7263  0.2811
 1010MOL0     H36305   2.865   9.802   0.220 -1.4429 -0.8401 -3.4291
 1010MOL0     H36306   3.015   9.622   0.219  1.8367 -0.9564  0.2486
 1010MOL0     H36307   3.142   9.697   0.132 -0.7424 -0.1291  0.1488
 1010MOL0     H36308   3.027   9.549  -0.006 -0.8095  1.4195 -1.0039
 1010MOL0     H36309   3.005   9.711  -0.072 -1.2628  0.2116 -0.1475
 1010MOL0     H36310   2.924   9.392   0.058 -1.4564  1.5581  1.1496
 1010MOL0     H36311   2.809   9.173  -0.000  2.3574  1.1910  2.3604
 1010MOL0     H36312   2.408   9.029  -0.377 -0.2479 -0.2510  0.7554
 1010MOL0     H36313   2.283   8.849  -0.426 -0.8271 -2.2373  0.9709
 1010MOL0     H36314   2.040   8.691  -0.431  2.4835  3.9706 -0.1403
 1010MOL0     H36315   2.207   8.631  -0.401  0.4614 -2.4941  1.6347
 1010MOL0     H36316   1.981   8.517  -0.250 -0.4241  0.9915 -0.7512
 1010MOL0     H36317   2.021   8.434  -0.398 -0.6565 -0.1909  0.0812
 1010MOL0     H36318   2.242   8.407  -0.331  3.9918  2.5701  2.9696
 1010MOL0     H36319   2.210   8.487  -0.168  1.8786  1.6388 -2.2334
 1010MOL0     H36320   2.011   8.317  -0.160  0.4299 -0.9546  0.8510
 1010MOL0     H36321   2.175   8.267  -0.107  1.5041 -0.3548 -1.2193
 1010MOL0     H36322   2.210   8.134  -0.284  2.2300  2.7818 -0.6014
 1010MOL0     H36323   2.121   8.231  -0.387 -1.1671  3.0018  0.5490
 1010MOL0     H36324   1.893   8.152  -0.257  0.3037  0.2747 -1.5582
 1010MOL0     H36325   1.970   8.053  -0.382  3.1963  1.7600 -1.7287
 1010MOL0     H36326   1.999   8.028  -0.080  1.2279  1.2095 -1.0698
 1010MOL0     H36327   2.108   7.938  -0.196  0.1838 -1.4560  2.4851
 1010MOL0     H36328   1.891   7.813  -0.101 -2.0857 -0.9378 -0.0305
 1010MOL0     H36329   1.792   7.896  -0.221  0.4903  1.3719  1.2811
 1010MOL0     H36330   2.127   8.848  -0.032 -1.0151 -1.0251 -2.0296
 1010MOL0     H36331   2.267   9.047   0.028  2.6064 -0.9437  0.9752
 1010MOL0     H36332   2.470   9.402  -0.144 -1.4861  1.5747  0.6090
 1010MOL0     H36333   2.597   9.603  -0.126  0.1432  0.0618  0.0298
 1010MOL0     H36334   3.348   9.242   0.160 -1.0901  3.2996 -0.7713
 1010MOL0     H36335   3.131   9.114   0.138 -1.7269 -1.1939  1.6667
 1010MOL0     H36336   2.819   8.954   0.143 -1.2212 -1.3738 -1.4288
 1010MOL0     H36337   2.637   8.822   0.054 -0.4663 -3.0953  0.7087
 1010MOL0     H36338   2.555   8.593   0.035 -1.5754 -2.7673 -1.2856
 1010MOL0     H36339   2.384   8.561   0.059 -1.0793  0.8105  0.5664
 1010MOL0     H36340   2.426   8.410   0.237  3.0858 -2.8665  2.9415
 1010MOL0     H36341   2.591   8.484   0.263 -0.5942  2.0558 -0.7075
 1010MOL0     H36342   2.571   8.380   0.002 -1.7213 -0.9112  0.3965
 1010MOL0     H36343   2.526   8.246   0.114  2.9575 -2.6637 -2.2507
 1010MOL0     H36344   2.749   8.227   0.056 -1.5633  0.2079  1.5802
 1010MOL0     H36345   2.797   8.395   0.080 -0.1294  0.0201 -1.1826
 1010MOL0     H36346   2.776   8.219   0.488 -0.9125 -2.7144 -0.4388
 1010MOL0     H36347   2.460   8.774   0.426 -0.6205  0.2492 -1.3248
 1010MOL0     H36348   2.509   8.906   0.592 -0.7318  0.5665 -0.6458
 1010MOL0     H36349   2.673   8.832   0.622 -0.9153  0.2639  0.4952
 1010MOL0     H36350   2.658   9.006   0.619  1.2652 -0.3952  0.2298
 1011MOL0     O36351   7.306   6.713   5.428 -0.2215  1.0437  0.2803
 1011MOL0     C36352   7.388   6.697   5.341 -1.1314  0.5818 -0.4097
 1011MOL0     O36353   7.461   6.801   5.289  0.1209 -0.2972 -0.1350
 1011MOL0     C36354   7.428   6.933   5.316 -0.7563  0.5263  1.1669
 1011MOL0     C36355   7.405   7.017   5.203 -0.5628  0.2032  0.6301
 1011MOL0     C36356   7.356   7.146   5.228 -0.1017  0.0382  0.3789
 1011MOL0     C36357   7.354   7.210   5.347  0.5674  0.0684 -1.2845
 1011MOL0     O36358   7.311   7.345   5.357 -0.0331  0.0299  0.2990
 1011MOL0     C36359   7.358   7.430   5.463  0.2495 -0.0440  0.0206
 1011MOL0     C36360   7.342   7.577   5.421  0.8441 -0.6796 -0.1224
 1011MOL0     C36361   7.198   7.610   5.394  0.3190  0.3347 -0.4603
 1011MOL0     C36362   7.174   7.660   5.250  0.7584 -0.3682  0.1906
 1011MOL0     C36363   7.021   7.708   5.228 -0.4137 -0.5222 -0.6716
 1011MOL0     C36364   7.003   7.802   5.107 -0.3955  0.1666  0.0668
 1011MOL0     C36365   6.857   7.821   5.047 -0.1788 -0.5746  0.2695
 1011MOL0     C36366   6.773   7.923   5.132  0.2063 -0.0819 -0.4352
 1011MOL0     N36367   6.637   7.940   5.077  1.0230  0.3342  0.0954
 1011MOL0     C36368   6.544   8.015   5.143  0.1487  0.5550 -0.4601
 1011MOL0     C36369   6.427   7.997   5.082 -0.2747  0.5780  0.4705
 1011MOL0     C36370   6.300   8.066   5.137  0.2507  1.2350 -0.0112
 1011MOL0     C36371   6.280   8.043   5.283 -0.0833  0.3783  0.6004
 1011MOL0     C36372   6.159   8.122   5.325 -0.3658 -0.4378  0.1166
 1011MOL0     C36373   6.150   8.112   5.469 -0.4374 -0.2516  1.2793
 1011MOL0     O36374   6.253   8.188   5.533 -0.2228 -0.0603 -0.5169
 1011MOL0     C36375   6.265   8.163   5.668 -0.3045  0.3516  0.4300
 1011MOL0     C36376   6.366   8.231   5.738 -0.1293  0.4485  0.3442
 1011MOL0     C36377   6.378   8.219   5.877 -0.8115  0.8140 -0.0151
 1011MOL0     C36378   6.302   8.135   5.953 -0.4434  0.0882 -1.0185
 1011MOL0     C36379   6.334   8.114   6.100 -0.7072  0.1091  0.2384
 1011MOL0     O36380   6.430   8.194   6.153  1.4183  0.0990  0.3177
 1011MOL0     C36381   6.435   8.189   6.286 -0.3813  0.2088  0.0380
 1011MOL0     C36382   6.353   8.273   6.368  0.2016  0.3085 -0.0104
 1011MOL0     C36383   6.371   8.286   6.508 -0.2182  0.2107 -0.0707
 1011MOL0     C36384   6.466   8.199   6.568 -0.4612  1.3580 -0.1854
 1011MOL0     O36385   6.474   8.184   6.709  0.8915  0.0817 -0.1650
 1011MOL0     C36386   6.391   8.260   6.794  0.0272 -0.7039 -0.2610
 1011MOL0     C36387   6.432   8.242   6.941  0.5471  0.5583  0.3264
 1011MOL0     C36388   6.424   8.091   6.996  0.0559  0.3924  0.5192
 1011MOL0     C36389   6.279   8.061   7.042  0.0912 -0.1911 -0.2708
 1011MOL0     C36390   6.264   7.924   7.079  0.0263  0.3484 -0.1286
 1011MOL0     C36391   6.108   7.892   7.114 -0.4783 -0.6706  0.3323
 1011MOL0     C36392   6.077   7.749   7.150 -0.6252  0.1751  0.0176
 1011MOL0     C36393   6.140   7.700   7.284  0.6853  0.0878 -1.5787
 1011MOL0    Cl36394   6.056   7.758   7.432  0.1852  0.2984  0.0705
 1011MOL0     C36395   6.536   8.106   6.485 -0.8812 -0.1867 -0.5970
 1011MOL0     C36396   6.527   8.106   6.346  0.6069 -0.4613 -0.4079
 1011MOL0     O36397   6.265   8.035   6.160  0.4503 -0.4074 -0.3030
 1011MOL0     C36398   6.187   8.081   5.887  0.1796  0.0310  0.2174
 1011MOL0     C36399   6.176   8.092   5.747  0.6682  0.6616  0.1172
 1011MOL0     N36400   6.447   7.909   4.982 -0.8458 -0.1296  0.7356
 1011MOL0     N36401   6.568   7.876   4.968 -0.7254 -0.4697 -0.3069
 1011MOL0     C36402   7.392   7.126   5.457  0.1660  0.3110 -0.3497
 1011MOL0     C36403   7.430   6.997   5.439  0.1768 -0.4823 -0.2861
 1011MOL0     C36404   7.428   6.553   5.303  0.1956  0.0754 -0.2784
 1011MOL0     C36405   7.359   6.440   5.363 -0.4107 -0.9030  1.0227
 1011MOL0     C36406   7.373   6.311   5.324 -0.1351 -1.0175  0.4842
 1011MOL0     C36407   7.462   6.278   5.222  0.6669  1.1554  0.3322
 1011MOL0     O36408   7.490   6.155   5.155  1.1372 -0.2393  0.3621
 1011MOL0     C36409   7.383   6.070   5.117  0.5477 -0.3383  1.2908
 1011MOL0     C36410   7.394   5.979   4.979  0.6551 -0.6867 -0.4900
 1011MOL0     C36411   7.360   6.056   4.853  0.5198  0.1445 -0.4281
 1011MOL0     C36412   7.370   5.959   4.741 -0.1190  1.5363 -0.0144
 1011MOL0     C36413   7.337   6.036   4.618 -0.5530 -0.7420  0.8463
 1011MOL0     C36414   7.300   6.112   4.526  0.6070  0.0314 -0.3057
 1011MOL0     C36415   7.536   6.382   5.165 -0.1564 -0.0186 -0.2329
 1011MOL0     C36416   7.522   6.513   5.198  0.1764 -0.3127  0.0154
 1011MOL0     C36417   7.614   6.619   5.131  0.4639 -0.0061 -0.8702
 1011MOL0     H36418   7.411   6.970   5.106  1.4000  1.0118  0.3271
 1011MOL0     H36419   7.319   7.209   5.148 -0.6308 -0.7754 -0.0277
 1011MOL0     H36420   7.296   7.410   5.551 -0.6754  0.9529 -0.3852
 1011MOL0     H36421   7.464   7.409   5.482  0.4512  2.1906  1.8204
 1011MOL0     H36422   7.390   7.589   5.324  2.8063 -3.4138  0.3833
 1011MOL0     H36423   7.386   7.643   5.497 -1.8703  0.7615  0.3297
 1011MOL0     H36424   7.172   7.689   5.466  0.1501 -1.1314  1.1503
 1011MOL0     H36425   7.142   7.521   5.425  1.2306 -0.2158 -0.3457
 1011MOL0     H36426   7.227   7.748   5.214 -0.1156 -0.9353 -2.7954
 1011MOL0     H36427   7.201   7.582   5.178  1.1155  1.1285 -1.3305
 1011MOL0     H36428   6.954   7.622   5.230 -0.9125 -0.1306  0.0594
 1011MOL0     H36429   6.998   7.765   5.319 -0.1213  0.4030 -1.1611
 1011MOL0     H36430   7.059   7.895   5.116  2.2734 -1.2989 -0.3216
 1011MOL0     H36431   7.060   7.737   5.040 -0.3693  0.2335  0.0239
 1011MOL0     H36432   6.807   7.726   5.029  0.8521 -0.6601 -2.5693
 1011MOL0     H36433   6.870   7.857   4.944  0.2143  2.7061  1.3268
 1011MOL0     H36434   6.765   7.881   5.233  2.0623 -1.8794 -0.9590
 1011MOL0     H36435   6.827   8.018   5.126 -1.2535  0.7090 -2.1196
 1011MOL0     H36436   6.568   8.071   5.232  1.7471 -0.7961  0.0267
 1011MOL0     H36437   6.325   8.172   5.131  0.1875  1.4520  2.6356
 1011MOL0     H36438   6.206   8.028   5.093  0.0350 -0.0267  1.4510
 1011MOL0     H36439   6.261   7.937   5.300  0.6753  0.1595  0.1129
 1011MOL0     H36440   6.364   8.079   5.343 -0.1202  1.8005 -0.1665
 1011MOL0     H36441   6.065   8.087   5.282 -1.0275 -1.6568  2.3897
 1011MOL0     H36442   6.167   8.227   5.296 -1.3785  0.2340  2.0713
 1011MOL0     H36443   6.156   8.005   5.490  2.4426 -0.7012 -1.1256
 1011MOL0     H36444   6.051   8.148   5.497 -0.4834  1.8333 -1.2248
 1011MOL0     H36445   6.435   8.297   5.686  0.5064  0.2197  0.8769
 1011MOL0     H36446   6.458   8.279   5.918  0.7069 -0.5528 -0.8310
 1011MOL0     H36447   6.266   8.331   6.337 -0.0770  0.8411  1.6431
 1011MOL0     H36448   6.293   8.337   6.563 -1.0409 -0.1248 -0.8945
 1011MOL0     H36449   6.392   8.368   6.778  1.1875  0.1070  4.0590
 1011MOL0     H36450   6.285   8.238   6.776 -0.0275  1.0557 -2.6143
 1011MOL0     H36451   6.538   8.266   6.953  1.1504 -2.3824  1.8613
 1011MOL0     H36452   6.381   8.316   7.004  0.7323  0.3433  0.7363
 1011MOL0     H36453   6.454   8.034   6.907  1.7334  3.1724 -0.8361
 1011MOL0     H36454   6.504   8.061   7.064 -4.1698 -1.2896  5.4495
 1011MOL0     H36455   6.209   8.094   6.965 -1.4186  3.5837  2.3942
 1011MOL0     H36456   6.250   8.118   7.131  0.1824 -0.7269  0.1079
 1011MOL0     H36457   6.337   7.900   7.156  0.8951 -0.6602 -1.2174
 1011MOL0     H36458   6.293   7.867   6.990  1.6019  1.1522 -0.1563
 1011MOL0     H36459   6.072   7.960   7.191  1.6137  0.6654  0.2173
 1011MOL0     H36460   6.049   7.911   7.023 -1.7496 -1.6171  0.9299
 1011MOL0     H36461   6.108   7.681   7.070  1.3012  1.9456 -0.8106
 1011MOL0     H36462   5.970   7.729   7.163 -0.7339  0.0354 -1.0037
 1011MOL0     H36463   6.130   7.592   7.269 -1.8986 -0.1212  0.9721
 1011MOL0     H36464   6.246   7.725   7.293  1.8291 -4.1615 -1.2463
 1011MOL0     H36465   6.607   8.047   6.542 -1.5897  0.2391  0.7602
 1011MOL0     H36466   6.589   8.048   6.280 -1.4986  0.4790 -3.4215
 1011MOL0     H36467   6.126   8.020   5.952  1.5391 -0.4002  1.1374
 1011MOL0     H36468   6.094   8.034   5.706  0.3466  1.2633 -0.0877
 1011MOL0     H36469   7.387   7.168   5.557  2.2283  0.2988 -0.2040
 1011MOL0     H36470   7.469   6.953   5.530  0.0371  0.0761  0.0527
 1011MOL0     H36471   7.302   6.466   5.452 -0.9797 -4.6970  1.9634
 1011MOL0     H36472   7.309   6.236   5.369 -4.7342 -0.0265 -3.5679
 1011MOL0     H36473   7.296   6.132   5.095  0.3488 -0.8014  0.7295
 1011MOL0     H36474   7.376   6.002   5.202  0.9060  0.9100  2.3388
 1011MOL0     H36475   7.311   5.908   4.968  0.4340 -0.2865 -1.5194
 1011MOL0     H36476   7.490   5.931   4.994  1.7393  1.8068  1.3147
 1011MOL0     H36477   7.435   6.135   4.841  1.3772 -0.2301  1.9946
 1011MOL0     H36478   7.266   6.113   4.856  1.7916  2.3572 -0.4395
 1011MOL0     H36479   7.464   5.903   4.746 -1.9691 -1.7985  0.2188
 1011MOL0     H36480   7.292   5.883   4.747 -0.0592  1.4227 -0.6421
 1011MOL0     H36481   7.275   6.181   4.447 -1.9550  0.5227  0.8545
 1011MOL0     H36482   7.608   6.363   5.085 -1.7020 -0.6993 -1.5089
 1011MOL0     H36483   7.676   6.572   5.054  0.7905 -1.6491  0.3459
 1011MOL0     H36484   7.545   6.696   5.095  2.2389  2.6054  0.9144
 1011MOL0     H36485   7.678   6.648   5.216  0.2001  0.1123 -0.7103
 1012MOL0     O36486   0.993   9.910   4.088 -0.3174 -0.1104 -0.6605
 1012MOL0     C36487   0.987   9.794   4.047  0.6714 -0.1452  0.5988
 1012MOL0     O36488   1.052   9.741   3.943  1.0426 -1.2562  0.9083
 1012MOL0     C36489   1.112   9.813   3.846  0.0995 -0.8484  0.3577
 1012MOL0     C36490   1.100   9.950   3.826  0.5275 -0.0192  0.6077
 1012MOL0     C36491   1.164  10.017   3.721 -0.7335 -0.3083 -0.5712
 1012MOL0     C36492   1.253   9.940   3.638  0.0774  0.0032  0.0767
 1012MOL0     O36493   1.329  10.010   3.541  0.5596 -0.5333  0.0546
 1012MOL0     C36494   1.449   9.949   3.501  0.3782  1.1409  0.2697
 1012MOL0     C36495   1.560   9.926   3.603  0.1436 -0.0523  0.6843
 1012MOL0     C36496   1.685   9.881   3.537 -0.5154 -0.1838 -0.7055
 1012MOL0     C36497   1.808   9.899   3.618  0.0974 -0.8415 -0.6346
 1012MOL0     C36498   1.933   9.838   3.547  0.6927 -0.1729  0.3353
 1012MOL0     C36499   2.040   9.799   3.655  0.0009  0.8396 -0.3755
 1012MOL0     C36500   2.170   9.791   3.584  0.1832  0.3598  0.1623
 1012MOL0     C36501   2.288   9.807   3.684 -0.5934  0.4006 -0.5983
 1012MOL0     N36502   2.342   9.947   3.698 -0.5824 -0.0900 -0.3545
 1012MOL0     C36503   2.312  10.041   3.793 -0.3501 -0.2325 -0.3972
 1012MOL0     C36504   2.354  10.153   3.747 -0.1188 -0.4925  0.7920
 1012MOL0     C36505   2.367  10.283   3.818 -0.4157  0.0639 -0.1757
 1012MOL0     C36506   2.227  10.344   3.844 -1.3389 -0.2809 -0.5507
 1012MOL0     C36507   2.117  10.338   3.748  0.1374  0.7922  0.1170
 1012MOL0     C36508   2.143  10.413   3.611 -0.1407  0.2177  0.0254
 1012MOL0     O36509   2.168  10.555   3.654 -0.0680  0.0381  0.6259
 1012MOL0     C36510   2.059  10.638   3.681  0.3995 -0.4801 -0.2223
 1012MOL0     C36511   2.079  10.771   3.726  0.4721  0.6554 -0.2778
 1012MOL0     C36512   1.968  10.851   3.751  0.0477  0.8359  0.0368
 1012MOL0     C36513   1.834  10.820   3.713  0.0582 -0.2648  0.3662
 1012MOL0     C36514   1.714  10.916   3.731 -0.3171 -0.1962 -0.5545
 1012MOL0     O36515   1.753  11.036   3.803 -0.4219  0.1243  0.4511
 1012MOL0     C36516   1.663  11.135   3.789 -0.4354  0.4207 -0.2061
 1012MOL0     C36517   1.687  11.236   3.692  1.7909  0.5728 -0.7615
 1012MOL0     C36518   1.592  11.339   3.678  0.5361  0.7970  0.4608
 1012MOL0     C36519   1.487  11.357   3.763  0.7935  0.8085 -0.3758
 1012MOL0     O36520   1.412  11.464   3.737  0.0878  0.8931 -0.1151
 1012MOL0     C36521   1.321  11.505   3.847  1.4871 -0.1460 -0.2452
 1012MOL0     C36522   1.268  11.651   3.843  0.0402 -0.1139 -0.4645
 1012MOL0     C36523   1.175  11.678   3.965  0.9981  0.2813  0.4237
 1012MOL0     C36524   1.124  11.831   3.969 -0.5734 -0.4897 -0.4348
 1012MOL0     C36525   1.044  11.855   4.101  0.0486 -0.5863  0.1809
 1012MOL0     C36526   1.013  12.009   4.119  0.2130 -0.9946  0.0655
 1012MOL0     C36527   0.962  12.029   4.263 -0.4073 -0.8045  0.0147
 1012MOL0     C36528   0.951  12.180   4.288  0.2846 -0.4861 -0.2763
 1012MOL0    Cl36529   0.804  12.214   4.402 -0.1011 -0.2357  0.2223
 1012MOL0     C36530   1.467  11.256   3.869  0.5858 -0.3135 -0.0826
 1012MOL0     C36531   1.560  11.152   3.885  1.0525  1.2631  1.1647
 1012MOL0     O36532   1.595  10.888   3.697  0.1404  0.0257 -0.5230
 1012MOL0     C36533   1.812  10.692   3.650  0.7698  0.3504 -0.1226
 1012MOL0     C36534   1.925  10.611   3.637 -0.9452 -0.8299 -0.8875
 1012MOL0     N36535   2.393  10.134   3.607  0.3798 -0.2736 -0.4767
 1012MOL0     N36536   2.390  10.011   3.591 -0.3138 -0.0715 -0.7443
 1012MOL0     C36537   1.258   9.794   3.658  0.7834 -0.1432  0.8599
 1012MOL0     C36538   1.181   9.737   3.756  0.7576 -0.4616 -0.0657
 1012MOL0     C36539   0.901   9.692   4.125 -0.8375 -0.0421 -0.2489
 1012MOL0     C36540   0.832   9.734   4.244  0.4499 -0.5550  0.5916
 1012MOL0     C36541   0.743   9.657   4.317 -0.3620 -0.2046 -0.0898
 1012MOL0     C36542   0.722   9.528   4.279 -0.9832  0.2576  0.2777
 1012MOL0     O36543   0.629   9.448   4.337  0.3066 -0.5596  0.2351
 1012MOL0     C36544   0.513   9.501   4.417  0.0221 -0.6668  0.7454
 1012MOL0     C36545   0.436   9.379   4.486 -0.2917  0.1758  0.1600
 1012MOL0     C36546   0.343   9.322   4.382  0.3135  0.5362 -0.0375
 1012MOL0     C36547   0.294   9.190   4.434 -0.2661  0.8202  0.7865
 1012MOL0     C36548   0.220   9.204   4.557 -0.9796  0.6795 -0.1480
 1012MOL0     C36549   0.164   9.232   4.661 -0.5855 -0.3830  0.1837
 1012MOL0     C36550   0.804   9.479   4.177 -0.3144 -0.3678 -0.1835
 1012MOL0     C36551   0.889   9.559   4.094 -0.2161 -0.2299  0.2706
 1012MOL0     C36552   0.966   9.481   3.994 -0.9450 -0.0065  0.5812
 1012MOL0     H36553   1.024   9.999   3.886  1.0010  0.5139  0.7862
 1012MOL0     H36554   1.151  10.125   3.713 -2.0222 -0.1369  2.3965
 1012MOL0     H36555   1.444   9.850   3.457  2.9521  1.2953 -0.5381
 1012MOL0     H36556   1.475  10.011   3.415 -2.2910 -0.2004 -1.6276
 1012MOL0     H36557   1.531   9.850   3.676 -0.6368 -1.2231 -0.7789
 1012MOL0     H36558   1.576  10.024   3.650  2.8170 -1.5555  3.2046
 1012MOL0     H36559   1.700   9.943   3.448  0.2709 -0.5048 -0.8059
 1012MOL0     H36560   1.663   9.776   3.518 -0.2601 -0.5248  0.7872
 1012MOL0     H36561   1.824  10.005   3.638  0.5468 -1.0900  0.3687
 1012MOL0     H36562   1.799   9.841   3.711 -1.3680 -1.5302 -1.1815
 1012MOL0     H36563   1.901   9.754   3.485  1.6490 -0.0871 -0.2978
 1012MOL0     H36564   1.973   9.907   3.473 -0.6361  2.4114  1.8745
 1012MOL0     H36565   2.043   9.879   3.729  0.3933 -0.1922  0.7680
 1012MOL0     H36566   2.010   9.702   3.696  0.0127  0.4746 -1.2081
 1012MOL0     H36567   2.192   9.856   3.499 -0.0998  0.4311  0.1431
 1012MOL0     H36568   2.170   9.686   3.554 -2.4597 -0.1910  1.7910
 1012MOL0     H36569   2.254   9.769   3.781  2.5204 -0.1799  0.3880
 1012MOL0     H36570   2.370   9.739   3.659 -2.1332 -2.2902  1.1286
 1012MOL0     H36571   2.257  10.031   3.886 -0.6971 -0.3365 -0.6122
 1012MOL0     H36572   2.414  10.258   3.913 -1.2515 -0.9944 -0.0229
 1012MOL0     H36573   2.416  10.346   3.743 -2.7380 -3.0316 -4.7907
 1012MOL0     H36574   2.200  10.290   3.936 -0.6367 -0.6256 -0.5373
 1012MOL0     H36575   2.241  10.450   3.867 -0.8295 -0.1432 -1.4399
 1012MOL0     H36576   2.025  10.373   3.796 -2.0681 -5.0806  1.0281
 1012MOL0     H36577   2.077  10.238   3.728 -0.0118  1.3803 -2.9606
 1012MOL0     H36578   2.051  10.395   3.555  0.5067 -2.4358 -0.2984
 1012MOL0     H36579   2.228  10.376   3.553 -0.9828 -0.7602 -0.6142
 1012MOL0     H36580   2.182  10.806   3.725  1.0879 -1.0765 -1.2242
 1012MOL0     H36581   1.984  10.944   3.805 -1.6626  0.3535  1.4619
 1012MOL0     H36582   1.775  11.232   3.630  1.4406  0.2263 -1.2436
 1012MOL0     H36583   1.591  11.414   3.600 -0.5110 -0.5630 -0.9152
 1012MOL0     H36584   1.231  11.443   3.848  0.7001  0.8950  2.2652
 1012MOL0     H36585   1.364  11.493   3.947  0.7930  0.0224  0.0813
 1012MOL0     H36586   1.340  11.731   3.861  0.6334 -0.9873  1.2483
 1012MOL0     H36587   1.204  11.664   3.755 -2.6337 -0.8133  1.2463
 1012MOL0     H36588   1.080  11.622   3.961  0.7478  0.7725 -0.8825
 1012MOL0     H36589   1.220  11.637   4.055  1.2890  0.3813  0.3225
 1012MOL0     H36590   1.058  11.852   3.884 -0.9904 -0.1519 -0.0365
 1012MOL0     H36591   1.212  11.896   3.966  1.1675 -2.7580 -3.1325
 1012MOL0     H36592   1.105  11.825   4.187  3.6490  1.3817 -1.4576
 1012MOL0     H36593   0.948  11.802   4.103 -0.9356  1.0007 -1.6813
 1012MOL0     H36594   1.106  12.065   4.106  0.5034 -1.4571  0.1418
 1012MOL0     H36595   0.941  12.020   4.038  0.8694 -2.9967 -0.8309
 1012MOL0     H36596   1.022  11.974   4.336  0.2820 -1.2143 -0.8266
 1012MOL0     H36597   0.865  11.980   4.268  1.6117 -5.2296  0.7851
 1012MOL0     H36598   1.045  12.211   4.336  1.5192  0.7655 -3.2377
 1012MOL0     H36599   0.950  12.226   4.189 -2.9432 -1.9713 -1.0636
 1012MOL0     H36600   1.393  11.277   3.946 -0.9914  2.1936 -2.1340
 1012MOL0     H36601   1.553  11.093   3.975 -0.2665 -2.3256 -1.0791
 1012MOL0     H36602   1.711  10.671   3.619  0.4719 -3.5181  2.7372
 1012MOL0     H36603   1.900  10.509   3.609 -1.3167 -0.2392 -2.8288
 1012MOL0     H36604   1.326   9.729   3.604  0.7877  1.7592 -1.6342
 1012MOL0     H36605   1.174   9.633   3.788 -1.8794  0.1046  1.5334
 1012MOL0     H36606   0.845   9.839   4.271  0.9910 -0.4145 -0.1691
 1012MOL0     H36607   0.694   9.698   4.404  0.4604 -1.3089  0.9403
 1012MOL0     H36608   0.444   9.556   4.352  1.2652 -1.1625 -1.0574
 1012MOL0     H36609   0.554   9.569   4.492 -2.6341  2.3601 -0.3182
 1012MOL0     H36610   0.378   9.419   4.570 -0.4801  2.9175 -1.1958
 1012MOL0     H36611   0.509   9.302   4.514 -1.0903 -0.4220  0.6423
 1012MOL0     H36612   0.397   9.309   4.288  0.3058  1.5702 -0.1945
 1012MOL0     H36613   0.257   9.383   4.353 -1.5885 -0.4463  3.0615
 1012MOL0     H36614   0.230   9.157   4.352 -0.4549  2.3312  0.2938
 1012MOL0     H36615   0.377   9.121   4.451 -2.9525 -2.9480 -0.0942
 1012MOL0     H36616   0.114   9.261   4.752 -1.2037 -1.7533  0.3211
 1012MOL0     H36617   0.777   9.378   4.148 -0.2925 -0.7914  1.2426
 1012MOL0     H36618   1.072   9.501   4.010 -0.4642 -1.1182 -1.0064
 1012MOL0     H36619   0.951   9.375   4.018 -2.3592  0.2027  0.7586
 1012MOL0     H36620   0.925   9.498   3.894 -0.7049  1.5091  0.7276
 1013MOL0     O36621   1.636   8.509   5.190 -0.2881 -0.1445  0.1492
 1013MOL0     C36622   1.558   8.555   5.275  0.5243 -0.4067  0.3693
 1013MOL0     O36623   1.423   8.602   5.254 -0.2758  0.4712  0.0972
 1013MOL0     C36624   1.360   8.576   5.135 -0.9651  0.0872  0.0526
 1013MOL0     C36625   1.258   8.666   5.093  0.6057 -0.0224 -1.2810
 1013MOL0     C36626   1.187   8.641   4.978 -0.6648 -0.7425  0.6311
 1013MOL0     C36627   1.206   8.515   4.916 -0.4756 -1.6449  0.3428
 1013MOL0     O36628   1.130   8.466   4.812 -0.1675  1.3908 -1.0233
 1013MOL0     C36629   1.019   8.533   4.755 -0.1695 -0.0766 -0.3522
 1013MOL0     C36630   1.059   8.607   4.634  0.6101  0.8071 -0.5121
 1013MOL0     C36631   1.141   8.735   4.660  0.5117  0.1825  1.3021
 1013MOL0     C36632   1.187   8.786   4.530  0.4489 -0.1692  0.0257
 1013MOL0     C36633   1.291   8.893   4.551 -0.3861  0.5561  0.9320
 1013MOL0     C36634   1.418   8.846   4.630 -0.4835 -0.4049 -0.9647
 1013MOL0     C36635   1.550   8.909   4.580  0.4735  0.4305 -0.0785
 1013MOL0     C36636   1.654   8.893   4.692 -0.4431 -0.0026  0.0154
 1013MOL0     N36637   1.783   8.957   4.655 -0.3668 -0.2049  0.4053
 1013MOL0     C36638   1.877   8.907   4.574 -0.3301 -0.0047  0.4554
 1013MOL0     C36639   1.978   8.997   4.572  0.6591 -0.1688  0.4620
 1013MOL0     C36640   2.105   8.997   4.478  0.4424 -0.0100  0.7547
 1013MOL0     C36641   2.071   9.025   4.339 -0.1600  1.1855  0.2913
 1013MOL0     C36642   2.159   8.936   4.240  0.1952 -0.8271 -0.3278
 1013MOL0     C36643   2.152   8.973   4.092  0.0871 -0.3142 -0.1042
 1013MOL0     O36644   2.012   8.935   4.049  0.2076 -0.3193 -0.7178
 1013MOL0     C36645   1.983   8.908   3.918 -0.2971 -0.6452 -0.5031
 1013MOL0     C36646   2.032   8.982   3.809 -0.0584  0.2325 -0.5263
 1013MOL0     C36647   2.006   8.937   3.678  0.3391  0.6486 -0.3484
 1013MOL0     C36648   1.926   8.823   3.653 -0.3319 -0.1057  0.1964
 1013MOL0     C36649   1.889   8.792   3.512  0.6859 -0.4587  0.7393
 1013MOL0     O36650   1.779   8.716   3.494 -0.1255  0.4638 -0.0574
 1013MOL0     C36651   1.730   8.674   3.369 -0.4764  0.0326  0.3578
 1013MOL0     C36652   1.611   8.616   3.372  1.1693 -0.3896  0.5445
 1013MOL0     C36653   1.536   8.588   3.256 -0.2707  0.1503  0.1521
 1013MOL0     C36654   1.604   8.595   3.139 -0.8790  0.3649 -1.0549
 1013MOL0     O36655   1.549   8.554   3.022  0.0192 -0.6587  0.6373
 1013MOL0     C36656   1.568   8.627   2.895 -0.6504  0.2463  0.3808
 1013MOL0     C36657   1.442   8.611   2.813 -0.4772  0.1147 -0.4890
 1013MOL0     C36658   1.422   8.683   2.680 -0.1971  0.1871 -0.1982
 1013MOL0     C36659   1.275   8.687   2.644 -0.2540 -0.3067 -0.0732
 1013MOL0     C36660   1.260   8.753   2.506  0.1471  0.2902 -0.0755
 1013MOL0     C36661   1.126   8.728   2.443 -0.2396 -0.2839  0.2635
 1013MOL0     C36662   1.017   8.830   2.490 -0.2632 -0.5003 -0.0670
 1013MOL0     C36663   0.882   8.784   2.424  0.5037 -0.3247  0.1436
 1013MOL0    Cl36664   0.745   8.899   2.469  0.7726  0.0251 -0.1448
 1013MOL0     C36665   1.734   8.656   3.127  0.1579  0.0198  0.6596
 1013MOL0     C36666   1.794   8.697   3.242 -0.1766 -0.2206  0.5099
 1013MOL0     O36667   1.943   8.852   3.420 -0.3190  0.5254 -0.0641
 1013MOL0     C36668   1.886   8.750   3.763  0.6279 -0.5147 -0.6171
 1013MOL0     C36669   1.901   8.800   3.896 -0.0895  0.7663  0.8042
 1013MOL0     N36670   1.947   9.099   4.660 -0.2281 -0.5731  0.1518
 1013MOL0     N36671   1.832   9.072   4.711  0.6803 -0.7291  0.3128
 1013MOL0     C36672   1.298   8.423   4.967 -0.3104  0.5073 -0.1059
 1013MOL0     C36673   1.381   8.454   5.076 -1.0752 -0.0402  0.1568
 1013MOL0     C36674   1.631   8.588   5.397  0.7144  0.7091 -0.6522
 1013MOL0     C36675   1.772   8.574   5.414  0.0882 -0.5576  0.6559
 1013MOL0     C36676   1.840   8.589   5.539 -0.1047 -0.3566  1.4621
 1013MOL0     C36677   1.767   8.630   5.645  0.7617 -0.8289  0.4620
 1013MOL0     O36678   1.826   8.650   5.767 -0.4527 -0.6272  0.0865
 1013MOL0     C36679   1.776   8.575   5.877 -0.4219 -0.0024 -0.6948
 1013MOL0     C36680   1.868   8.574   5.993 -1.1046 -0.0298  0.3060
 1013MOL0     C36681   1.823   8.492   6.112  0.0816 -0.4517 -1.4624
 1013MOL0     C36682   1.893   8.530   6.247  0.5195 -0.4623 -0.4579
 1013MOL0     C36683   2.035   8.467   6.250  0.3983 -0.2717 -0.2522
 1013MOL0     C36684   2.150   8.423   6.239 -1.1791  0.0473  0.1522
 1013MOL0     C36685   1.633   8.659   5.629  0.0331  0.4897 -0.3420
 1013MOL0     C36686   1.563   8.634   5.509 -0.1166 -0.9204  0.0952
 1013MOL0     C36687   1.415   8.662   5.516 -0.2404 -0.7111  0.5161
 1013MOL0     H36688   1.227   8.744   5.162 -0.1282 -3.2292  2.3777
 1013MOL0     H36689   1.115   8.708   4.932  0.1133 -0.5108 -0.2924
 1013MOL0     H36690   0.949   8.463   4.708  1.3302 -1.4368 -0.6489
 1013MOL0     H36691   0.968   8.585   4.837 -0.3464 -1.2189  0.2793
 1013MOL0     H36692   0.964   8.634   4.586 -0.1683  0.5882  0.8460
 1013MOL0     H36693   1.120   8.552   4.563 -1.7065 -1.0067 -1.2266
 1013MOL0     H36694   1.226   8.707   4.723 -0.7734 -1.5290  2.3553
 1013MOL0     H36695   1.080   8.805   4.717  0.1218  0.5117  0.4964
 1013MOL0     H36696   1.239   8.707   4.475 -0.0075  0.1068 -0.8160
 1013MOL0     H36697   1.099   8.807   4.468 -1.8778 -5.6370  0.8242
 1013MOL0     H36698   1.318   8.929   4.451  4.4933 -1.3501  1.2839
 1013MOL0     H36699   1.245   8.979   4.600  0.0010  2.3207 -1.6124
 1013MOL0     H36700   1.399   8.873   4.734 -0.4960 -1.2643 -0.7343
 1013MOL0     H36701   1.430   8.737   4.628  0.2693 -0.3341 -0.7343
 1013MOL0     H36702   1.531   9.015   4.558  2.8824  1.5735  2.6351
 1013MOL0     H36703   1.583   8.865   4.486  0.1915  0.7629 -0.3352
 1013MOL0     H36704   1.623   8.957   4.775 -2.6385  5.0510 -4.0832
 1013MOL0     H36705   1.669   8.794   4.734 -0.8502 -0.7389 -1.4881
 1013MOL0     H36706   1.888   8.816   4.515  4.0560 -0.1230  1.1842
 1013MOL0     H36707   2.179   9.069   4.515  3.8179 -2.4381 -0.8087
 1013MOL0     H36708   2.152   8.901   4.500  1.9070  1.0497  2.5576
 1013MOL0     H36709   1.968   9.012   4.304 -0.4443  5.6226 -1.1930
 1013MOL0     H36710   2.078   9.132   4.317 -1.4011  0.6518 -3.4026
 1013MOL0     H36711   2.144   8.829   4.259 -2.2096 -0.4939 -0.0147
 1013MOL0     H36712   2.265   8.936   4.266  0.7390 -0.4538 -2.3884
 1013MOL0     H36713   2.226   8.917   4.035 -1.7315 -3.3249  0.2552
 1013MOL0     H36714   2.175   9.079   4.083  1.7644 -0.8284 -2.8362
 1013MOL0     H36715   2.101   9.066   3.813  3.4443 -2.3717 -0.9966
 1013MOL0     H36716   2.046   8.986   3.589  0.1883  2.9961  0.7851
 1013MOL0     H36717   1.555   8.596   3.463 -0.9205 -0.0206 -0.5829
 1013MOL0     H36718   1.431   8.560   3.264 -1.8469  4.2972 -2.5365
 1013MOL0     H36719   1.573   8.735   2.912  0.1958  0.0238  1.7370
 1013MOL0     H36720   1.661   8.609   2.841 -1.2419 -2.0652  0.0235
 1013MOL0     H36721   1.427   8.504   2.797  2.0399 -0.5296  0.8420
 1013MOL0     H36722   1.359   8.644   2.877 -0.9401 -0.2802 -0.8892
 1013MOL0     H36723   1.461   8.784   2.699  0.3559  0.1824 -1.2061
 1013MOL0     H36724   1.485   8.637   2.604  0.1193  1.9638 -1.0718
 1013MOL0     H36725   1.212   8.748   2.711 -1.6615  2.3361 -3.4880
 1013MOL0     H36726   1.240   8.584   2.647 -3.5178  0.7195  1.6794
 1013MOL0     H36727   1.329   8.706   2.435 -0.6779 -1.2107  0.0568
 1013MOL0     H36728   1.290   8.858   2.501  1.1860 -0.0405 -1.8743
 1013MOL0     H36729   1.129   8.747   2.335 -0.8335  1.4751  0.5225
 1013MOL0     H36730   1.098   8.624   2.463  0.1736 -0.0909  1.9994
 1013MOL0     H36731   1.037   8.932   2.457 -3.3501  0.9733  2.1504
 1013MOL0     H36732   0.997   8.840   2.597 -1.9380  1.9726 -0.5330
 1013MOL0     H36733   0.887   8.767   2.316  0.4904 -1.7154  0.3473
 1013MOL0     H36734   0.850   8.691   2.471  0.6717  1.1218  3.3910
 1013MOL0     H36735   1.776   8.662   3.027 -1.2404 -0.5168  0.0053
 1013MOL0     H36736   1.884   8.757   3.228 -0.6812  0.8873  1.8198
 1013MOL0     H36737   1.829   8.659   3.749 -4.8088  2.5406 -0.7374
 1013MOL0     H36738   1.858   8.748   3.981  3.1094  1.1740  2.8628
 1013MOL0     H36739   1.305   8.323   4.925  0.6600 -1.6745  4.6448
 1013MOL0     H36740   1.439   8.371   5.114 -0.9870 -0.7231 -1.4101
 1013MOL0     H36741   1.833   8.541   5.331  0.8612  0.8735  0.6112
 1013MOL0     H36742   1.947   8.571   5.545 -0.0071  0.1834  1.4000
 1013MOL0     H36743   1.758   8.471   5.846 -0.2005 -0.3778  0.3821
 1013MOL0     H36744   1.686   8.625   5.915  0.8813  3.0136 -1.3735
 1013MOL0     H36745   1.872   8.678   6.028  1.3926  0.1825 -0.3978
 1013MOL0     H36746   1.964   8.536   5.957 -1.1539 -0.5164  0.6795
 1013MOL0     H36747   1.847   8.386   6.108  1.5773 -0.4489  2.3831
 1013MOL0     H36748   1.716   8.506   6.131  0.2153 -1.2975  0.0978
 1013MOL0     H36749   1.884   8.637   6.263 -0.1537 -0.2730 -1.9305
 1013MOL0     H36750   1.830   8.485   6.324 -0.0237  3.7354  1.8163
 1013MOL0     H36751   2.249   8.385   6.229 -0.5185  1.5570  0.5323
 1013MOL0     H36752   1.574   8.703   5.709  1.8132  0.0049  1.3156
 1013MOL0     H36753   1.382   8.737   5.443 -3.5315 -0.6671  1.8388
 1013MOL0     H36754   1.348   8.578   5.495  1.9174 -3.1210  2.7101
 1013MOL0     H36755   1.393   8.704   5.615 -1.4442  1.5337 -0.6081
 1014MOL0     O36756   1.000   5.357  10.861  0.0614 -0.0073  0.1843
 1014MOL0     C36757   1.072   5.452  10.859 -0.3970  0.0964  0.6937
 1014MOL0     O36758   1.049   5.573  10.915  0.2290 -0.5165  0.4852
 1014MOL0     C36759   0.926   5.600  10.975  0.4482 -0.5334 -1.1955
 1014MOL0     C36760   0.854   5.722  10.944  0.2286  0.5036  0.9865
 1014MOL0     C36761   0.740   5.762  11.020  0.4121  0.5960  0.5611
 1014MOL0     C36762   0.691   5.679  11.125  0.0826 -0.1038  0.1176
 1014MOL0     O36763   0.593   5.705  11.222 -0.5069 -1.0465  0.9796
 1014MOL0     C36764   0.498   5.814  11.186 -0.7078 -0.1990  0.6022
 1014MOL0     C36765   0.385   5.802  11.282 -0.5941  0.3430 -0.1911
 1014MOL0     C36766   0.278   5.911  11.274  1.0441 -0.6276 -0.1994
 1014MOL0     C36767   0.163   5.894  11.159  0.5148 -0.1577  0.9100
 1014MOL0     C36768   0.081   6.030  11.163  0.0478  0.3418 -0.3164
 1014MOL0     C36769  -0.056   6.003  11.093 -0.1739  0.6799  0.2585
 1014MOL0     C36770  -0.148   6.124  11.090  1.4116  1.3558 -0.0524
 1014MOL0     C36771  -0.221   6.155  11.221 -0.3475  0.4574  0.6685
 1014MOL0     N36772  -0.272   6.039  11.288 -0.2697  0.2447 -0.5133
 1014MOL0     C36773  -0.228   5.991  11.406 -0.5388 -0.3191 -0.4599
 1014MOL0     C36774  -0.270   5.868  11.419 -0.2628  0.2264 -0.8724
 1014MOL0     C36775  -0.274   5.785  11.543  0.0549  0.1151 -0.5973
 1014MOL0     C36776  -0.139   5.696  11.549  0.2392  0.7424 -0.0380
 1014MOL0     C36777  -0.145   5.570  11.453 -0.0834  0.3033 -0.4695
 1014MOL0     C36778  -0.014   5.506  11.431 -0.0168  0.8564 -0.1744
 1014MOL0     O36779   0.047   5.484  11.560  0.0935 -0.6814 -0.1542
 1014MOL0     C36780   0.182   5.489  11.556  0.0430 -0.3472  0.0588
 1014MOL0     C36781   0.247   5.550  11.661  0.4409 -0.2532 -0.4690
 1014MOL0     C36782   0.386   5.540  11.679 -0.1961 -0.1333  0.3257
 1014MOL0     C36783   0.466   5.477  11.572 -0.8801  0.2089  0.4920
 1014MOL0     C36784   0.616   5.443  11.584  0.5449 -0.1913  0.0493
 1014MOL0     O36785   0.684   5.493  11.693  0.3325 -0.0377 -0.0907
 1014MOL0     C36786   0.817   5.474  11.705  1.0258 -0.2703 -0.2000
 1014MOL0     C36787   0.874   5.349  11.685 -0.5123  0.1493  0.0139
 1014MOL0     C36788   1.011   5.336  11.714 -0.8665  0.0627  0.2014
 1014MOL0     C36789   1.089   5.454  11.744 -0.8374  1.6801 -0.0483
 1014MOL0     O36790   1.224   5.458  11.774 -0.5689 -0.4890  0.1319
 1014MOL0     C36791   1.295   5.339  11.721  0.2010  0.8955 -0.8567
 1014MOL0     C36792   1.315   5.240  11.837 -0.1363  0.1829  0.0147
 1014MOL0     C36793   1.402   5.296  11.951  0.8790  0.2243  0.1007
 1014MOL0     C36794   1.450   5.188  12.043  0.6438  0.5060  0.4453
 1014MOL0     C36795   1.542   5.240  12.151  0.7098 -0.7031 -0.0501
 1014MOL0     C36796   1.468   5.306  12.269  0.2215 -0.5199  0.8619
 1014MOL0     C36797   1.556   5.381  12.370  0.2667  0.5759  0.8838
 1014MOL0     C36798   1.479   5.488  12.452 -0.0481  0.0673 -0.6658
 1014MOL0    Cl36799   1.589   5.612  12.515  0.0630 -0.2109 -0.1060
 1014MOL0     C36800   1.028   5.579  11.755  0.7062  0.0115  0.0379
 1014MOL0     C36801   0.890   5.586  11.738 -0.6346  0.1757  0.5839
 1014MOL0     O36802   0.665   5.386  11.490  0.1704 -0.5679  0.3199
 1014MOL0     C36803   0.393   5.425  11.455  0.1079  0.5472 -0.6078
 1014MOL0     C36804   0.255   5.436  11.446  0.7420 -0.6339  0.1471
 1014MOL0     N36805  -0.347   5.845  11.308 -0.7155 -0.0658  0.0199
 1014MOL0     N36806  -0.350   5.946  11.238 -0.4851 -0.2993 -0.4530
 1014MOL0     C36807   0.753   5.555  11.146 -0.6617  0.4346 -0.5578
 1014MOL0     C36808   0.871   5.522  11.077  0.6317 -0.0410  0.2809
 1014MOL0     C36809   1.202   5.431  10.786 -0.1834  0.8828 -0.1522
 1014MOL0     C36810   1.281   5.319  10.815  0.1918 -0.5099 -1.2665
 1014MOL0     C36811   1.421   5.309  10.777  0.8698  0.8214 -0.3635
 1014MOL0     C36812   1.483   5.418  10.731  0.7231 -0.0942  0.1897
 1014MOL0     O36813   1.620   5.410  10.708  0.0443 -0.0296  0.7366
 1014MOL0     C36814   1.695   5.516  10.646  0.0356  0.4936 -0.1936
 1014MOL0     C36815   1.837   5.471  10.618  0.3506  0.1881 -0.4069
 1014MOL0     C36816   1.830   5.338  10.533  0.2103  0.0912 -0.4084
 1014MOL0     C36817   1.971   5.273  10.513 -0.6364 -0.2831  0.1491
 1014MOL0     C36818   2.068   5.348  10.439 -0.2855  1.3067 -0.0966
 1014MOL0     C36819   2.164   5.394  10.390  0.1360 -0.5117 -0.5899
 1014MOL0     C36820   1.409   5.531  10.701 -0.3114  0.6118  0.0545
 1014MOL0     C36821   1.274   5.539  10.723  0.7911 -0.2479 -0.3370
 1014MOL0     C36822   1.207   5.658  10.657 -0.5290 -0.0416 -0.5103
 1014MOL0     H36823   0.882   5.797  10.870 -0.2938  2.5821  2.8148
 1014MOL0     H36824   0.693   5.858  11.001  0.2265  0.2367 -0.9159
 1014MOL0     H36825   0.555   5.908  11.188  1.6962 -1.3603 -2.9696
 1014MOL0     H36826   0.460   5.804  11.084 -2.1616  1.6312  0.8967
 1014MOL0     H36827   0.437   5.798  11.377  1.0325  0.3658 -1.0496
 1014MOL0     H36828   0.322   5.713  11.280 -3.4649  2.2087 -2.5300
 1014MOL0     H36829   0.330   6.008  11.270 -1.3397  0.7108 -0.9943
 1014MOL0     H36830   0.223   5.904  11.368 -1.1970  0.1378 -1.3820
 1014MOL0     H36831   0.205   5.896  11.057  0.2194  1.4144  0.7891
 1014MOL0     H36832   0.114   5.800  11.183  0.4193 -0.7882 -1.4607
 1014MOL0     H36833   0.065   6.076  11.261  1.9916  3.2642 -1.2443
 1014MOL0     H36834   0.137   6.105  11.106  1.3986  2.3607  3.3688
 1014MOL0     H36835  -0.027   5.972  10.993 -0.7671  0.2245  0.2259
 1014MOL0     H36836  -0.117   5.920  11.128 -0.5845  0.5266 -0.8120
 1014MOL0     H36837  -0.228   6.098  11.021  1.9786  0.1635 -0.2737
 1014MOL0     H36838  -0.094   6.213  11.056  1.3320  1.5356  0.2819
 1014MOL0     H36839  -0.165   6.226  11.283  2.8897 -0.6258 -0.7998
 1014MOL0     H36840  -0.308   6.215  11.195 -0.9414  0.2299  2.0155
 1014MOL0     H36841  -0.193   6.053  11.489 -1.4984 -1.5579  0.9252
 1014MOL0     H36842  -0.303   5.858  11.620  3.3201  3.1888 -1.9946
 1014MOL0     H36843  -0.357   5.717  11.521  0.4474 -0.0011 -1.7854
 1014MOL0     H36844  -0.063   5.766  11.514 -3.2417  4.2765 -1.2432
 1014MOL0     H36845  -0.119   5.686  11.656  0.9829  1.4136 -0.1028
 1014MOL0     H36846  -0.190   5.595  11.357 -1.1665  1.8441  0.3974
 1014MOL0     H36847  -0.205   5.501  11.512  2.8100 -0.5036  1.7837
 1014MOL0     H36848   0.043   5.580  11.374  0.5373  2.4076  2.2474
 1014MOL0     H36849  -0.028   5.408  11.385  0.9564  0.3585  0.5424
 1014MOL0     H36850   0.190   5.575  11.750  1.7516  2.3044 -0.2406
 1014MOL0     H36851   0.439   5.569  11.769  1.1432  0.7394 -0.7144
 1014MOL0     H36852   0.812   5.264  11.658 -0.1061 -0.4098  0.7965
 1014MOL0     H36853   1.056   5.238  11.706  1.0732  0.9862 -1.1998
 1014MOL0     H36854   1.244   5.285  11.641 -0.4718  1.6701 -0.9601
 1014MOL0     H36855   1.394   5.359  11.679 -0.7416  1.7532 -2.7972
 1014MOL0     H36856   1.221   5.207  11.883  1.8530 -0.5145  3.9983
 1014MOL0     H36857   1.356   5.153  11.783 -1.4775  0.5860 -1.7398
 1014MOL0     H36858   1.488   5.359  11.924  0.6566  1.2797  1.7580
 1014MOL0     H36859   1.333   5.362  12.003  0.0129 -1.9917  1.9572
 1014MOL0     H36860   1.494   5.111  11.978 -0.5140  0.4797 -0.3214
 1014MOL0     H36861   1.364   5.133  12.082 -0.8248  0.7151 -2.2646
 1014MOL0     H36862   1.615   5.311  12.112 -0.0421 -0.0277 -0.2533
 1014MOL0     H36863   1.597   5.154  12.191  0.5790 -0.5909  0.3764
 1014MOL0     H36864   1.416   5.391  12.222  1.5851  1.4467  2.7024
 1014MOL0     H36865   1.399   5.243  12.325 -2.4002  1.6484  0.3093
 1014MOL0     H36866   1.616   5.440  12.301 -4.8142  1.8082 -3.1238
 1014MOL0     H36867   1.617   5.312  12.429 -0.5593  0.9994  2.3046
 1014MOL0     H36868   1.400   5.534  12.392 -0.1649  2.3047  1.1041
 1014MOL0     H36869   1.428   5.434  12.532  0.3935 -2.2231 -1.8367
 1014MOL0     H36870   1.084   5.671  11.767  0.2238  0.2251  0.7180
 1014MOL0     H36871   0.840   5.681  11.749  0.7383  0.9852  0.1024
 1014MOL0     H36872   0.460   5.379  11.382  1.0506 -0.2146  0.6817
 1014MOL0     H36873   0.205   5.390  11.361  1.2239 -2.2419  0.6843
 1014MOL0     H36874   0.717   5.491  11.226  1.2303  2.0933  1.7930
 1014MOL0     H36875   0.912   5.426  11.105 -5.4148 -2.1953  3.5924
 1014MOL0     H36876   1.243   5.226  10.854  0.4159 -1.1918 -2.6239
 1014MOL0     H36877   1.474   5.217  10.796  3.2181  2.4975  1.9934
 1014MOL0     H36878   1.683   5.615  10.690 -0.4810  0.6778 -0.7374
 1014MOL0     H36879   1.636   5.515  10.554  0.2551  0.8128 -0.3359
 1014MOL0     H36880   1.906   5.448  10.699 -1.8229 -1.2189  1.1334
 1014MOL0     H36881   1.885   5.555  10.566  1.5782 -0.9324 -1.1613
 1014MOL0     H36882   1.785   5.364  10.436 -0.0078  3.1208  0.3778
 1014MOL0     H36883   1.766   5.263  10.580  2.3853 -1.5808  0.0099
 1014MOL0     H36884   2.004   5.243  10.613  2.1114  1.9679  0.0381
 1014MOL0     H36885   1.959   5.172  10.475 -0.4486 -0.6348  1.0017
 1014MOL0     H36886   2.260   5.430  10.360  1.3753 -0.2928  3.1282
 1014MOL0     H36887   1.461   5.621  10.668  1.0532 -1.1874 -3.2483
 1014MOL0     H36888   1.222   5.645  10.550  2.0124  0.2933 -0.2558
 1014MOL0     H36889   1.099   5.656  10.674 -0.5596 -5.3638  0.4195
 1014MOL0     H36890   1.254   5.752  10.689  1.7954 -0.2865 -2.9144
 1015MOL0     O36891   3.879  10.823  10.082 -0.9227  0.6033  0.0438
 1015MOL0     C36892   3.803  10.729  10.083  0.8597  0.1541 -0.0419
 1015MOL0     O36893   3.773  10.644  10.194 -0.0539  0.0308 -0.2854
 1015MOL0     C36894   3.823  10.686  10.314  1.1401 -0.0665 -0.3612
 1015MOL0     C36895   3.796  10.809  10.373  0.3122  0.0678  0.0208
 1015MOL0     C36896   3.844  10.837  10.505  0.2882 -0.1968  0.9601
 1015MOL0     C36897   3.921  10.745  10.568  0.2245 -0.1391 -0.2018
 1015MOL0     O36898   3.984  10.766  10.688  0.2617  0.0539 -0.4349
 1015MOL0     C36899   3.909  10.849  10.778  0.8748  0.3193  0.3163
 1015MOL0     C36900   3.965  10.842  10.920  1.0135 -0.5235  0.9821
 1015MOL0     C36901   3.908  10.948  11.018  0.6880 -0.1548 -0.3919
 1015MOL0     C36902   3.910  10.917  11.171 -0.6137  0.4259 -0.0209
 1015MOL0     C36903   3.839  11.022  11.261 -0.3559  0.3324 -0.5502
 1015MOL0     C36904   3.734  10.964  11.347  0.0759 -0.2835  0.2177
 1015MOL0     C36905   3.779  10.860  11.445  0.0492 -0.5534  0.5891
 1015MOL0     C36906   3.664  10.820  11.531 -1.3125  0.8370  0.4599
 1015MOL0     N36907   3.645  10.893  11.659  0.1812  0.1484 -0.3825
 1015MOL0     C36908   3.599  11.024  11.669  0.4113  0.3814 -0.4010
 1015MOL0     C36909   3.582  11.048  11.807  0.8789 -0.1560  1.4268
 1015MOL0     C36910   3.533  11.181  11.868  0.5871  0.1881  0.0222
 1015MOL0     C36911   3.382  11.163  11.889  0.4165  0.5195 -0.0257
 1015MOL0     C36912   3.313  11.300  11.878 -0.1551  0.4615  0.1934
 1015MOL0     C36913   3.347  11.393  11.999  0.1940  0.2095  0.1320
 1015MOL0     O36914   3.275  11.353  12.116 -0.4278  0.3147 -0.3136
 1015MOL0     C36915   3.322  11.387  12.242  0.1868  0.2452 -0.1588
 1015MOL0     C36916   3.412  11.484  12.278 -0.5893 -0.1892 -0.1895
 1015MOL0     C36917   3.468  11.487  12.410  0.1022 -0.3917 -0.0560
 1015MOL0     C36918   3.411  11.400  12.507 -0.6427 -0.4442  0.2619
 1015MOL0     C36919   3.457  11.401  12.652  0.0782  0.2877 -0.1567
 1015MOL0     O36920   3.550  11.497  12.669  0.4723 -0.5519 -0.2643
 1015MOL0     C36921   3.598  11.531  12.797 -0.5107 -0.2474 -0.3481
 1015MOL0     C36922   3.729  11.565  12.813  0.3083 -0.1310  0.9005
 1015MOL0     C36923   3.781  11.589  12.940 -0.1888 -0.8063 -0.8658
 1015MOL0     C36924   3.693  11.613  13.049  0.2333  0.0451 -0.1352
 1015MOL0     O36925   3.773  11.614  13.158 -0.3923 -0.4118  0.1958
 1015MOL0     C36926   3.712  11.674  13.275 -0.4263 -0.0530 -0.0463
 1015MOL0     C36927   3.643  11.561  13.349  0.6289 -0.3876  0.3163
 1015MOL0     C36928   3.541  11.608  13.462  0.4676 -0.5648  1.0923
 1015MOL0     C36929   3.530  11.520  13.570  0.0045 -0.3264  0.0627
 1015MOL0     C36930   3.413  11.564  13.657 -0.1808  0.8107 -0.2087
 1015MOL0     C36931   3.275  11.528  13.597  0.0022 -0.3811  0.1132
 1015MOL0     C36932   3.166  11.514  13.700  0.2855 -0.3349  0.0920
 1015MOL0     C36933   3.117  11.652  13.741 -0.0102  0.3150  0.7810
 1015MOL0    Cl36934   3.025  11.715  13.603  0.1392  0.4588 -0.0896
 1015MOL0     C36935   3.550  11.611  13.029 -0.4340 -0.3364  0.7652
 1015MOL0     C36936   3.506  11.553  12.908 -0.3672 -0.0441  0.6620
 1015MOL0     O36937   3.422  11.316  12.736 -0.0803  0.4210 -0.2132
 1015MOL0     C36938   3.304  11.318  12.471 -0.3649  0.2409 -0.4233
 1015MOL0     C36939   3.267  11.308  12.341 -0.7821 -0.0694  0.0776
 1015MOL0     N36940   3.625  10.934  11.874  0.1910  0.0587  0.5590
 1015MOL0     N36941   3.657  10.839  11.785  0.2125 -0.0480  0.2774
 1015MOL0     C36942   3.945  10.620  10.510 -0.3159 -0.3527  0.1630
 1015MOL0     C36943   3.894  10.588  10.383 -0.7867  0.2165  0.0331
 1015MOL0     C36944   3.752  10.691   9.950  0.6429  0.8848 -0.4345
 1015MOL0     C36945   3.643  10.606   9.950  1.1451  0.0802  0.5134
 1015MOL0     C36946   3.565  10.585   9.828 -0.0237  0.7496 -0.1633
 1015MOL0     C36947   3.619  10.633   9.710 -0.7828 -0.8264 -0.0975
 1015MOL0     O36948   3.546  10.602   9.597  0.2138  0.1549 -0.4945
 1015MOL0     C36949   3.499  10.713   9.514 -0.6301  0.7879 -0.0358
 1015MOL0     C36950   3.417  10.647   9.412  0.7647 -1.2216 -0.2581
 1015MOL0     C36951   3.370  10.743   9.313 -0.3124 -0.5438  0.7907
 1015MOL0     C36952   3.488  10.781   9.218  0.0998  0.3875  0.1630
 1015MOL0     C36953   3.422  10.889   9.133 -0.7894 -0.6857 -0.0524
 1015MOL0     C36954   3.383  10.976   9.064 -0.7825  0.0731  0.1259
 1015MOL0     C36955   3.726  10.716   9.713 -0.3746  0.1644 -0.4141
 1015MOL0     C36956   3.797  10.745   9.827 -0.6831 -0.4515 -0.2497
 1015MOL0     C36957   3.918  10.836   9.810 -0.0278 -0.1361  0.4793
 1015MOL0     H36958   3.734  10.887  10.330  1.3687  3.4469  3.9734
 1015MOL0     H36959   3.832  10.939  10.542  1.3861  0.8452 -1.3420
 1015MOL0     H36960   3.897  10.947  10.732 -1.8587 -1.2679 -2.8631
 1015MOL0     H36961   3.808  10.806  10.781  1.9599 -2.6448 -1.5527
 1015MOL0     H36962   4.074  10.853  10.921  1.2090 -2.1216  0.0292
 1015MOL0     H36963   3.943  10.745  10.965 -2.6502  1.4733  4.0291
 1015MOL0     H36964   3.801  10.969  11.007  0.7566  0.7024  0.4464
 1015MOL0     H36965   3.949  11.045  10.990 -0.3193 -0.3039 -2.6868
 1015MOL0     H36966   3.866  10.818  11.186 -0.7995  0.7191  1.5286
 1015MOL0     H36967   4.018  10.912  11.190  0.1055  1.1333 -3.2405
 1015MOL0     H36968   3.924  11.073  11.307  0.6781  1.1216 -3.1567
 1015MOL0     H36969   3.790  11.097  11.199  0.4459  0.9487 -0.4550
 1015MOL0     H36970   3.706  11.048  11.412  2.7529  0.2779  0.7635
 1015MOL0     H36971   3.649  10.933  11.286  1.5145  0.7991 -2.5220
 1015MOL0     H36972   3.855  10.901  11.513  1.9171  0.5830 -2.0248
 1015MOL0     H36973   3.825  10.780  11.387 -0.0086  0.9250 -1.6492
 1015MOL0     H36974   3.569  10.828  11.476 -0.5963 -3.2752 -1.7308
 1015MOL0     H36975   3.684  10.719  11.565  2.3302  1.2249 -0.1776
 1015MOL0     H36976   3.585  11.085  11.581  0.0854 -0.7062 -1.1298
 1015MOL0     H36977   3.579  11.197  11.966 -0.0189 -1.7688  0.6596
 1015MOL0     H36978   3.557  11.257  11.793  0.7122 -0.9598 -1.1258
 1015MOL0     H36979   3.340  11.094  11.815  2.4487 -0.4220 -0.3437
 1015MOL0     H36980   3.359  11.128  11.990 -1.7158  1.7419 -0.0062
 1015MOL0     H36981   3.205  11.298  11.860 -0.2978  4.4342 -0.4373
 1015MOL0     H36982   3.358  11.350  11.791  2.1604  1.3194  1.7625
 1015MOL0     H36983   3.322  11.498  11.981  2.2478  1.3989  3.2809
 1015MOL0     H36984   3.457  11.398  12.001  0.4424 -2.0575 -2.5595
 1015MOL0     H36985   3.460  11.546  12.203 -1.5899  0.2821 -0.4625
 1015MOL0     H36986   3.538  11.566  12.432 -2.1684  1.1916  2.0221
 1015MOL0     H36987   3.806  11.545  12.739  2.0098  2.2154  1.8878
 1015MOL0     H36988   3.883  11.615  12.968 -0.2749 -2.5712  1.4211
 1015MOL0     H36989   3.801  11.712  13.325  0.9763 -1.6487 -1.2360
 1015MOL0     H36990   3.636  11.748  13.247 -1.6251 -0.4569  1.9354
 1015MOL0     H36991   3.585  11.504  13.275 -1.3602  1.3695  0.4056
 1015MOL0     H36992   3.711  11.493  13.400 -1.9007 -2.7290  0.8335
 1015MOL0     H36993   3.580  11.703  13.500  2.1804 -0.3955 -0.9211
 1015MOL0     H36994   3.447  11.635  13.412  2.5270  2.1921 -1.6827
 1015MOL0     H36995   3.620  11.543  13.628 -0.3064  0.7825  0.1244
 1015MOL0     H36996   3.519  11.420  13.526  1.8713  0.0414 -1.3529
 1015MOL0     H36997   3.423  11.667  13.692 -3.8147  0.9099  0.9646
 1015MOL0     H36998   3.419  11.494  13.742  2.3649  1.7244  0.4627
 1015MOL0     H36999   3.238  11.587  13.512  0.1596  3.5946  2.5550
 1015MOL0     H37000   3.279  11.428  13.552 -0.9062 -0.0534 -0.7330
 1015MOL0     H37001   3.201  11.463  13.790 -1.0566 -1.4870 -0.0099
 1015MOL0     H37002   3.084  11.457  13.655  1.0308 -2.2180  1.0019
 1015MOL0     H37003   3.054  11.654  13.830  1.5408  0.8120  1.9057
 1015MOL0     H37004   3.195  11.727  13.761  0.2762  0.4660 -0.7527
 1015MOL0     H37005   3.494  11.633  13.119 -0.1681  0.6710  0.6957
 1015MOL0     H37006   3.403  11.530  12.883 -0.7938  1.4809  0.9117
 1015MOL0     H37007   3.265  11.244  12.539  5.1815 -1.6705  1.2749
 1015MOL0     H37008   3.197  11.232  12.308 -1.4049  0.0837  1.0207
 1015MOL0     H37009   3.993  10.540  10.564 -0.8493 -1.1866 -0.5840
 1015MOL0     H37010   3.907  10.489  10.340 -1.6439 -0.2077  0.7182
 1015MOL0     H37011   3.603  10.557  10.038  0.7339  0.1454  0.3642
 1015MOL0     H37012   3.470  10.533   9.836  0.6113 -0.6017 -1.0288
 1015MOL0     H37013   3.587  10.770   9.484  0.7114  0.4430  2.9162
 1015MOL0     H37014   3.454  10.784   9.583  4.5817  2.1716  2.4306
 1015MOL0     H37015   3.328  10.598   9.452 -0.7310  1.1331 -0.5733
 1015MOL0     H37016   3.470  10.561   9.370 -2.5017 -4.0754  0.9716
 1015MOL0     H37017   3.318  10.818   9.374 -4.6809 -2.3657 -0.3131
 1015MOL0     H37018   3.293  10.711   9.243 -1.7673  3.7910  0.0690
 1015MOL0     H37019   3.581  10.815   9.265  0.0726 -1.3542  1.5911
 1015MOL0     H37020   3.511  10.685   9.171 -1.0074  1.1274 -1.9818
 1015MOL0     H37021   3.351  11.059   9.004 -0.2755  3.0253  3.6236
 1015MOL0     H37022   3.770  10.745   9.618  1.9164 -2.3764 -0.2599
 1015MOL0     H37023   3.882  10.932   9.848 -3.2910  0.4463 -3.3892
 1015MOL0     H37024   4.000  10.802   9.874  0.4318 -0.5618 -0.3129
 1015MOL0     H37025   3.932  10.858   9.703 -0.0226 -1.4726  0.1870
 1016MOL0     O37026  11.259  11.003   6.236 -0.5922  0.4438 -0.0399
 1016MOL0     C37027  11.229  10.982   6.355  0.3724  0.2088  0.6306
 1016MOL0     O37028  11.268  10.867   6.424  0.3109 -0.4845 -0.4954
 1016MOL0     C37029  11.319  10.755   6.358 -0.2072  0.2674 -1.3306
 1016MOL0     C37030  11.447  10.696   6.408 -0.9180 -0.7704  0.4225
 1016MOL0     C37031  11.485  10.573   6.363 -0.7210 -0.8313 -0.5584
 1016MOL0     C37032  11.413  10.512   6.264 -0.4744 -0.0561  0.0101
 1016MOL0     O37033  11.467  10.397   6.213 -0.2384  0.2074  0.3152
 1016MOL0     C37034  11.417  10.280   6.272 -0.3089 -0.7743  0.3498
 1016MOL0     C37035  11.498  10.167   6.213 -0.3480  0.0276 -0.3568
 1016MOL0     C37036  11.640  10.188   6.271 -0.1817 -0.3903  0.3204
 1016MOL0     C37037  11.738  10.075   6.237  0.5881  0.0780 -0.5607
 1016MOL0     C37038  11.852  10.069   6.340  0.3029 -1.3330 -0.3662
 1016MOL0     C37039  11.935   9.946   6.332  0.3445  0.0260  0.6715
 1016MOL0     C37040  12.066   9.982   6.256  0.0117  0.0822  0.1628
 1016MOL0     C37041  12.131   9.867   6.184  0.0853 -0.5097 -0.7077
 1016MOL0     N37042  12.171   9.760   6.271  1.2431 -0.3079 -0.1203
 1016MOL0     C37043  12.101   9.684   6.359 -0.4125  0.0750  0.5167
 1016MOL0     C37044  12.177   9.577   6.389  0.0808 -0.9465 -1.0691
 1016MOL0     C37045  12.126   9.454   6.468 -0.4061 -0.7850  0.1574
 1016MOL0     C37046  12.188   9.325   6.418 -0.4740  0.1662  0.1593
 1016MOL0     C37047  12.090   9.208   6.418 -0.3711 -0.1782  0.0734
 1016MOL0     C37048  12.142   9.071   6.454 -0.2100 -0.7358  0.1929
 1016MOL0     O37049  12.180   9.080   6.589  0.1554  0.0695 -0.6350
 1016MOL0     C37050  12.208   8.963   6.664 -0.8081  0.0932  0.1376
 1016MOL0     C37051  12.218   8.977   6.801  0.3441 -0.4259  0.1349
 1016MOL0     C37052  12.234   8.864   6.887  0.2669 -0.2263 -0.0975
 1016MOL0     C37053  12.221   8.739   6.826  0.4088 -0.3811 -0.3289
 1016MOL0     C37054  12.192   8.624   6.915 -0.6861  0.3347 -0.3986
 1016MOL0     O37055  12.190   8.639   7.053 -0.0732 -0.0289 -0.0394
 1016MOL0     C37056  12.185   8.526   7.134 -0.1740 -0.5274 -0.6145
 1016MOL0     C37057  12.099   8.535   7.246  0.2620 -0.5169  0.0142
 1016MOL0     C37058  12.102   8.432   7.341 -0.1347  0.1372  0.4313
 1016MOL0     C37059  12.188   8.324   7.334  0.1032 -0.1628 -1.4777
 1016MOL0     O37060  12.185   8.226   7.440  0.1998 -0.0690  0.7648
 1016MOL0     C37061  12.275   8.121   7.448 -0.0862  0.2482  0.9329
 1016MOL0     C37062  12.243   8.049   7.574  0.6227 -0.6206 -0.4228
 1016MOL0     C37063  12.289   8.130   7.692 -0.6484 -0.1858  0.9626
 1016MOL0     C37064  12.311   8.038   7.810  0.1159  0.5018 -0.1054
 1016MOL0     C37065  12.342   8.102   7.949 -0.2396 -0.9090  0.1713
 1016MOL0     C37066  12.221   8.170   7.995 -0.5936 -0.6279 -0.8227
 1016MOL0     C37067  12.261   8.258   8.123 -0.5617 -0.4066 -0.0791
 1016MOL0     C37068  12.145   8.290   8.220 -1.0253 -0.2489 -0.7451
 1016MOL0    Cl37069  12.030   8.405   8.142 -0.2117 -0.1600 -0.3474
 1016MOL0     C37070  12.270   8.310   7.227 -0.7100 -0.9959 -0.4027
 1016MOL0     C37071  12.272   8.415   7.127 -0.1934 -0.6560 -0.4783
 1016MOL0     O37072  12.176   8.514   6.855  0.1243 -0.5630 -0.8769
 1016MOL0     C37073  12.223   8.730   6.686 -0.5528 -0.2612 -1.2863
 1016MOL0     C37074  12.218   8.836   6.601  0.9062 -0.2026 -0.4044
 1016MOL0     N37075  12.286   9.586   6.311 -0.8858 -0.4205  0.2705
 1016MOL0     N37076  12.281   9.694   6.247 -0.4276 -0.0202  0.2141
 1016MOL0     C37077  11.302  10.572   6.199  0.1442 -0.8131 -0.0573
 1016MOL0     C37078  11.249  10.696   6.253 -0.7178  0.1577 -0.0817
 1016MOL0     C37079  11.126  11.076   6.404  0.8562  0.9151 -0.6477
 1016MOL0     C37080  11.008  11.016   6.470  0.3265  0.4473  0.0653
 1016MOL0     C37081  10.910  11.091   6.536  0.3352 -0.3229  0.2103
 1016MOL0     C37082  10.911  11.231   6.523  0.5745  0.8507 -0.0514
 1016MOL0     O37083  10.829  11.320   6.589  0.0692  0.5273  0.0091
 1016MOL0     C37084  10.753  11.269   6.704  1.0762 -0.0804 -0.1233
 1016MOL0     C37085  10.835  11.232   6.828 -0.4716  0.8003 -0.0014
 1016MOL0     C37086  10.927  11.354   6.866  0.0275 -0.2934  0.3822
 1016MOL0     C37087  11.055  11.306   6.930 -0.7987 -0.4595 -0.0652
 1016MOL0     C37088  11.156  11.242   6.843  0.6141  0.3368  0.6256
 1016MOL0     C37089  11.235  11.182   6.763  0.0337 -0.7506 -0.0386
 1016MOL0     C37090  11.008  11.283   6.441 -0.0366 -0.3737  0.6225
 1016MOL0     C37091  11.123  11.215   6.393 -0.2261  0.5196  0.7787
 1016MOL0     C37092  11.226  11.306   6.324  0.2452 -0.9534  0.3211
 1016MOL0     H37093  11.510  10.749   6.478  0.1063 -1.8308  0.3349
 1016MOL0     H37094  11.573  10.521   6.401  1.2622  3.7870  2.0613
 1016MOL0     H37095  11.423  10.283   6.381 -1.7291 -2.5685  0.5315
 1016MOL0     H37096  11.313  10.262   6.243 -1.0310  2.3824  0.6761
 1016MOL0     H37097  11.495  10.172   6.104  1.1387 -2.5651 -0.6195
 1016MOL0     H37098  11.457  10.068   6.235 -3.0178  0.8320 -1.2799
 1016MOL0     H37099  11.631  10.174   6.379  0.9020 -0.6044  0.3910
 1016MOL0     H37100  11.681  10.284   6.240  1.7810 -1.8579 -2.0577
 1016MOL0     H37101  11.692   9.977   6.220 -1.2318  1.3063 -3.6385
 1016MOL0     H37102  11.789  10.095   6.143 -0.0924 -0.4544 -1.0554
 1016MOL0     H37103  11.909  10.162   6.341 -3.3910  1.2060 -2.7198
 1016MOL0     H37104  11.823  10.068   6.446 -0.7290  0.7631 -0.5673
 1016MOL0     H37105  11.968   9.919   6.433  0.8614  0.4018  0.6067
 1016MOL0     H37106  11.887   9.863   6.279  0.1988  0.2233  0.4945
 1016MOL0     H37107  12.141  10.025   6.323  0.9540 -0.4299 -0.5405
 1016MOL0     H37108  12.045  10.053   6.176  2.5780  0.4983 -0.2007
 1016MOL0     H37109  12.069   9.829   6.102  0.0999 -0.5276 -0.7107
 1016MOL0     H37110  12.215   9.901   6.123  0.5061 -2.1602 -1.0926
 1016MOL0     H37111  12.002   9.690   6.403  0.2995 -2.8579  2.8571
 1016MOL0     H37112  12.141   9.469   6.575  5.3347 -1.2970 -0.2631
 1016MOL0     H37113  12.019   9.470   6.451 -0.5698 -2.4232 -0.5134
 1016MOL0     H37114  12.230   9.334   6.317 -0.8647  2.9857  0.1434
 1016MOL0     H37115  12.280   9.312   6.476  1.1506  1.4673 -1.9426
 1016MOL0     H37116  12.052   9.202   6.315 -0.0402  1.6497 -0.1968
 1016MOL0     H37117  12.014   9.231   6.494  0.7660  0.4122  1.0606
 1016MOL0     H37118  12.223   9.043   6.386  0.6996  0.6907  0.6322
 1016MOL0     H37119  12.061   8.998   6.442 -1.9098  0.5616  2.8681
 1016MOL0     H37120  12.219   9.077   6.844 -0.0700 -0.1802 -0.4074
 1016MOL0     H37121  12.244   8.889   6.993 -1.6170  2.5407 -0.4643
 1016MOL0     H37122  12.051   8.631   7.261  0.9428 -0.3253  1.0829
 1016MOL0     H37123  12.045   8.453   7.431 -1.4621  2.7930 -0.8969
 1016MOL0     H37124  12.278   8.057   7.359  1.7402  2.0886 -0.4352
 1016MOL0     H37125  12.376   8.162   7.455 -0.1354  0.2625  1.6408
 1016MOL0     H37126  12.139   8.015   7.576  0.1943  0.2467 -3.2336
 1016MOL0     H37127  12.306   7.960   7.577  2.5145  0.5790 -1.7410
 1016MOL0     H37128  12.376   8.189   7.664 -0.7204 -0.3946  0.2594
 1016MOL0     H37129  12.203   8.196   7.712 -1.0260 -0.4963  0.4080
 1016MOL0     H37130  12.403   7.981   7.790  1.4836  1.7221  2.2049
 1016MOL0     H37131  12.223   7.974   7.818 -0.4222  1.3812  1.2607
 1016MOL0     H37132  12.423   8.176   7.945  0.5727 -1.8116 -0.3247
 1016MOL0     H37133  12.368   8.029   8.026  1.1647 -1.5499 -0.8850
 1016MOL0     H37134  12.162   8.234   7.929 -5.7200 -1.8220  2.0511
 1016MOL0     H37135  12.156   8.088   8.027 -0.6980 -0.9497 -1.8395
 1016MOL0     H37136  12.309   8.347   8.082  0.7295 -0.9865  0.1004
 1016MOL0     H37137  12.339   8.204   8.178 -0.6082 -0.3894  0.0033
 1016MOL0     H37138  12.087   8.200   8.242  0.9745 -1.1792  1.0322
 1016MOL0     H37139  12.183   8.326   8.316  0.4944 -1.4414 -0.8642
 1016MOL0     H37140  12.344   8.230   7.226 -0.2324 -0.5716  0.1165
 1016MOL0     H37141  12.345   8.398   7.049 -0.3591  0.4910 -0.9069
 1016MOL0     H37142  12.233   8.635   6.635 -3.2536 -0.7332 -1.0601
 1016MOL0     H37143  12.201   8.821   6.495 -1.0653  0.7444 -0.2831
 1016MOL0     H37144  11.252  10.525   6.115  1.6713 -0.1511 -1.3820
 1016MOL0     H37145  11.161  10.735   6.203 -1.3463  1.6823  2.0682
 1016MOL0     H37146  10.998  10.910   6.488  1.4167  0.2055 -0.6971
 1016MOL0     H37147  10.833  11.044   6.597  3.1098 -2.4178  2.3428
 1016MOL0     H37148  10.693  11.185   6.667  1.6125 -0.9795  1.0046
 1016MOL0     H37149  10.682  11.337   6.752  2.1289  0.6899  0.3896
 1016MOL0     H37150  10.910  11.157   6.797  2.3667  2.1519  2.9677
 1016MOL0     H37151  10.769  11.195   6.907 -0.7546  3.5065  1.1390
 1016MOL0     H37152  10.871  11.420   6.933  1.3112  2.7425 -1.3226
 1016MOL0     H37153  10.944  11.420   6.781 -0.1804  1.3608  1.5753
 1016MOL0     H37154  11.106  11.397   6.961 -0.3774 -1.0564  1.0424
 1016MOL0     H37155  11.026  11.242   7.014 -4.9218 -1.5444 -2.0433
 1016MOL0     H37156  11.308  11.126   6.708 -0.1840 -0.6330 -0.4465
 1016MOL0     H37157  11.016  11.391   6.440  2.3505 -0.4977  0.6897
 1016MOL0     H37158  11.187  11.351   6.232  0.6356  1.3623  1.2230
 1016MOL0     H37159  11.256  11.386   6.392  0.3099 -1.2233  0.6119
 1016MOL0     H37160  11.313  11.246   6.297 -0.2075 -0.6859 -1.8797
 1017MOL0     O37161   4.212   1.030   4.777 -0.1085 -0.8536 -0.4967
 1017MOL0     C37162   4.161   1.078   4.680 -0.0298 -0.4096  0.4644
 1017MOL0     O37163   4.119   1.210   4.670 -0.8133 -0.2909  0.7023
 1017MOL0     C37164   4.103   1.276   4.785  0.3108  0.0865  0.4406
 1017MOL0     C37165   3.993   1.251   4.862 -0.1885 -0.8292 -0.2651
 1017MOL0     C37166   3.958   1.343   4.968 -0.1924 -0.2389 -0.3830
 1017MOL0     C37167   4.038   1.455   4.984  0.5294 -0.2246 -0.2092
 1017MOL0     O37168   4.013   1.564   5.061 -0.2632 -0.0219 -0.7301
 1017MOL0     C37169   3.921   1.549   5.164 -0.2437  0.6544 -0.2765
 1017MOL0     C37170   3.926   1.667   5.264  0.4986 -0.2912 -0.1516
 1017MOL0     C37171   3.815   1.675   5.369 -0.2269 -0.1740  0.4185
 1017MOL0     C37172   3.816   1.805   5.444  0.7408 -0.5446 -0.2316
 1017MOL0     C37173   3.959   1.865   5.462  0.8158 -0.0631  0.6642
 1017MOL0     C37174   3.957   1.987   5.563 -1.3958  0.7620 -0.3245
 1017MOL0     C37175   3.884   2.102   5.502  0.8838 -1.2392  0.9676
 1017MOL0     C37176   3.976   2.194   5.414  0.1919  1.1346 -0.9376
 1017MOL0     N37177   3.914   2.267   5.310 -0.1614  0.0548  0.1065
 1017MOL0     C37178   3.934   2.238   5.174  0.0703 -0.5691 -0.6151
 1017MOL0     C37179   3.915   2.353   5.111 -0.2303 -0.3789 -0.8825
 1017MOL0     C37180   3.928   2.372   4.955  1.3534  0.1523  0.3726
 1017MOL0     C37181   3.790   2.375   4.884 -0.9369 -0.0642  0.4639
 1017MOL0     C37182   3.750   2.234   4.849 -0.4815  0.2241 -0.0400
 1017MOL0     C37183   3.609   2.227   4.797 -0.0494 -0.6129 -0.9664
 1017MOL0     O37184   3.584   2.142   4.690 -0.3426  0.6409 -0.3817
 1017MOL0     C37185   3.458   2.124   4.646  0.1811  1.0935  0.1974
 1017MOL0     C37186   3.345   2.202   4.673 -0.1494  0.1936 -0.6624
 1017MOL0     C37187   3.220   2.174   4.612 -0.9562 -0.1398  0.0226
 1017MOL0     C37188   3.205   2.079   4.515 -0.1822  0.0199  0.1666
 1017MOL0     C37189   3.076   2.032   4.457 -1.0219 -0.7817  0.1409
 1017MOL0     O37190   3.086   1.936   4.359  0.3785 -0.8063 -0.5022
 1017MOL0     C37191   2.975   1.869   4.322 -0.5939 -0.5658 -0.8167
 1017MOL0     C37192   2.863   1.931   4.275 -0.1767  0.0800  1.0327
 1017MOL0     C37193   2.754   1.855   4.234  0.4581  0.1187 -0.2964
 1017MOL0     C37194   2.762   1.709   4.241  0.2811  0.7261 -0.0444
 1017MOL0     O37195   2.659   1.615   4.207 -0.0169 -0.7993 -0.2354
 1017MOL0     C37196   2.523   1.679   4.218 -0.3921  0.3193  0.0349
 1017MOL0     C37197   2.418   1.581   4.283  0.3536 -0.8124 -0.2538
 1017MOL0     C37198   2.280   1.589   4.211 -0.5411 -0.0619  0.5623
 1017MOL0     C37199   2.170   1.498   4.276 -1.0447 -0.6712 -0.4473
 1017MOL0     C37200   2.028   1.518   4.212  0.1903 -0.2235  0.8871
 1017MOL0     C37201   1.945   1.396   4.254 -0.2652 -1.2799  0.4116
 1017MOL0     C37202   1.793   1.409   4.245  0.0547  0.3067 -0.2884
 1017MOL0     C37203   1.734   1.273   4.234  0.8994 -0.0970 -0.0063
 1017MOL0    Cl37204   1.552   1.317   4.228  0.4667  0.7397 -0.1624
 1017MOL0     C37205   2.880   1.645   4.287  0.6444 -0.2691  0.0274
 1017MOL0     C37206   2.987   1.727   4.320  0.3184 -0.2923  0.3440
 1017MOL0     O37207   2.973   2.087   4.494 -0.7512  0.1624 -0.8518
 1017MOL0     C37208   3.321   2.006   4.485  0.7701 -1.1185  0.1883
 1017MOL0     C37209   3.443   2.035   4.535  0.1519  0.0241 -0.6395
 1017MOL0     N37210   3.884   2.448   5.208 -0.1162 -0.0226  0.2607
 1017MOL0     N37211   3.868   2.390   5.326 -0.5832 -0.4284  0.6919
 1017MOL0     C37212   4.148   1.480   4.905 -0.2884  0.5878  0.8685
 1017MOL0     C37213   4.180   1.396   4.797  0.5169  0.4603 -0.8204
 1017MOL0     C37214   4.140   0.981   4.565  0.5293 -0.2359 -0.6216
 1017MOL0     C37215   4.062   1.032   4.462 -0.3945 -0.2598  0.4239
 1017MOL0     C37216   4.039   0.954   4.354 -0.3981  0.7241  1.0062
 1017MOL0     C37217   4.096   0.828   4.338  0.3470 -0.3887  0.4863
 1017MOL0     O37218   4.080   0.767   4.219 -0.4377  0.2935  0.5835
 1017MOL0     C37219   4.172   0.815   4.117  0.6136  0.5687  0.1323
 1017MOL0     C37220   4.195   0.702   4.030  0.1764  0.4694  0.2759
 1017MOL0     C37221   4.064   0.667   3.950  0.4245 -0.2733  1.1033
 1017MOL0     C37222   4.061   0.521   3.919  0.4575  0.8909 -0.6543
 1017MOL0     C37223   4.175   0.495   3.824 -0.4973 -0.3957 -0.3435
 1017MOL0     C37224   4.267   0.466   3.747 -0.4992  0.1881 -0.9320
 1017MOL0     C37225   4.165   0.770   4.444  0.2032 -0.4660 -0.7276
 1017MOL0     C37226   4.193   0.849   4.556 -1.0443  0.2672 -0.0282
 1017MOL0     C37227   4.296   0.778   4.652  0.5891  1.0724 -0.3476
 1017MOL0     H37228   3.935   1.160   4.851  0.1157 -1.1535  0.6925
 1017MOL0     H37229   3.868   1.326   5.026  0.7376 -0.9515  0.9169
 1017MOL0     H37230   3.821   1.558   5.120  0.1430  1.3766 -1.0226
 1017MOL0     H37231   3.933   1.453   5.216  2.3844  1.0750  0.0454
 1017MOL0     H37232   3.919   1.757   5.203  2.2076  0.6767  0.9997
 1017MOL0     H37233   4.026   1.662   5.309  0.1138 -0.1482  0.7534
 1017MOL0     H37234   3.827   1.588   5.434  2.8841 -1.8378 -2.1032
 1017MOL0     H37235   3.723   1.662   5.310  0.2416  2.3200 -0.9926
 1017MOL0     H37236   3.741   1.868   5.394  0.9200  0.1129  0.3066
 1017MOL0     H37237   3.775   1.779   5.542  0.3150 -1.7079 -0.7096
 1017MOL0     H37238   4.025   1.788   5.504  0.7979 -0.1683  0.4976
 1017MOL0     H37239   4.007   1.909   5.375  0.2258  0.8361  0.7822
 1017MOL0     H37240   3.913   1.956   5.659  0.4768 -3.5530 -0.6563
 1017MOL0     H37241   4.057   2.023   5.588  0.4736 -3.8407 -0.3468
 1017MOL0     H37242   3.843   2.163   5.583 -0.9709 -0.2727 -0.5863
 1017MOL0     H37243   3.795   2.077   5.443  0.9097 -3.1423  1.6765
 1017MOL0     H37244   4.018   2.262   5.488 -1.5123  0.0008  1.2138
 1017MOL0     H37245   4.053   2.129   5.372 -0.4728  0.1050 -0.6102
 1017MOL0     H37246   3.961   2.155   5.110  2.6508  0.8717 -1.5483
 1017MOL0     H37247   3.980   2.468   4.944  1.0422  0.1657 -1.2823
 1017MOL0     H37248   3.994   2.296   4.914  1.2630 -0.0609  0.6235
 1017MOL0     H37249   3.708   2.414   4.944 -0.6467  0.2910  0.6352
 1017MOL0     H37250   3.798   2.441   4.797 -2.8246 -1.1956 -0.6301
 1017MOL0     H37251   3.740   2.178   4.943 -1.2341  1.2757  0.5306
 1017MOL0     H37252   3.815   2.186   4.776  0.9658  0.7960  0.8413
 1017MOL0     H37253   3.580   2.323   4.753 -2.4915 -0.1803  1.3062
 1017MOL0     H37254   3.543   2.195   4.879  3.2815  3.1800  3.7639
 1017MOL0     H37255   3.325   2.279   4.748  1.0063  1.3853 -1.5206
 1017MOL0     H37256   3.140   2.240   4.644  1.1934  2.5613  0.1782
 1017MOL0     H37257   2.870   2.039   4.266 -0.5166  0.0161 -0.0999
 1017MOL0     H37258   2.672   1.903   4.182  1.1040  1.2773 -0.2781
 1017MOL0     H37259   2.508   1.779   4.259 -1.0905  1.2261 -2.2509
 1017MOL0     H37260   2.505   1.691   4.111 -2.3268 -0.0863  0.2897
 1017MOL0     H37261   2.458   1.480   4.280  1.7506 -0.2552 -2.2690
 1017MOL0     H37262   2.417   1.613   4.388  0.8438  0.7655 -0.6935
 1017MOL0     H37263   2.241   1.692   4.208  0.1418  0.1883  0.0542
 1017MOL0     H37264   2.292   1.560   4.107  3.3039 -0.9530  1.0963
 1017MOL0     H37265   2.181   1.519   4.382  1.5463  0.2727 -0.8186
 1017MOL0     H37266   2.209   1.396   4.263  0.5547 -0.0450 -0.8495
 1017MOL0     H37267   2.042   1.529   4.104  1.1926 -1.4909  0.8639
 1017MOL0     H37268   1.988   1.613   4.249  1.6771  2.4454 -3.6234
 1017MOL0     H37269   1.966   1.311   4.189 -1.6331 -3.1211  2.2661
 1017MOL0     H37270   1.977   1.362   4.353 -3.2003 -0.1249  1.8633
 1017MOL0     H37271   1.762   1.460   4.153 -1.9556 -3.0734 -1.6743
 1017MOL0     H37272   1.753   1.459   4.334 -1.2779 -3.2564  1.3166
 1017MOL0     H37273   1.754   1.228   4.136 -2.2254  1.2430 -1.4116
 1017MOL0     H37274   1.765   1.211   4.318 -0.2357 -2.2848 -1.1067
 1017MOL0     H37275   2.889   1.537   4.290  3.9515 -0.0758  0.2520
 1017MOL0     H37276   3.085   1.685   4.343 -0.1889 -1.9700 -0.3915
 1017MOL0     H37277   3.313   1.930   4.408 -1.1596  1.1442 -2.0097
 1017MOL0     H37278   3.531   1.982   4.499 -0.1171  0.8739 -2.6750
 1017MOL0     H37279   4.205   1.572   4.904  2.6602 -1.0649 -1.7798
 1017MOL0     H37280   4.258   1.414   4.724  1.1523  0.6342 -0.1107
 1017MOL0     H37281   4.020   1.132   4.469  0.4514  0.3555 -2.0576
 1017MOL0     H37282   3.992   1.007   4.272 -1.2358 -0.8587  0.4305
 1017MOL0     H37283   4.265   0.845   4.166  0.3053 -0.5121  1.4372
 1017MOL0     H37284   4.119   0.899   4.070 -2.5616 -1.5831 -0.4754
 1017MOL0     H37285   4.234   0.621   4.092 -2.5978  1.1303  3.1914
 1017MOL0     H37286   4.276   0.733   3.964 -0.3872  1.1095 -0.1257
 1017MOL0     H37287   4.071   0.720   3.855 -0.8837  0.5547  1.4353
 1017MOL0     H37288   3.973   0.685   4.009 -0.6144 -2.4139  0.2542
 1017MOL0     H37289   4.087   0.476   4.015  0.2024 -0.9902 -1.4239
 1017MOL0     H37290   3.970   0.476   3.877 -0.2552  1.3652  0.3528
 1017MOL0     H37291   4.336   0.414   3.683 -1.5742 -0.2221 -1.7836
 1017MOL0     H37292   4.196   0.667   4.432 -0.9754 -1.0596  0.9337
 1017MOL0     H37293   4.387   0.837   4.668 -0.3451  1.6591  4.1324
 1017MOL0     H37294   4.252   0.779   4.753 -0.0974 -0.2465 -0.6168
 1017MOL0     H37295   4.318   0.678   4.615  1.9005  1.7251 -1.3971
 1018MOL0     O37296   0.491  10.785   3.217  0.0906 -0.0944  0.5257
 1018MOL0     C37297   0.425  10.741   3.311 -0.5348 -0.2036  0.1893
 1018MOL0     O37298   0.304  10.680   3.296  0.2486 -1.0387  0.2206
 1018MOL0     C37299   0.260  10.642   3.176  1.0849 -0.4745  0.7567
 1018MOL0     C37300   0.338  10.600   3.063  0.6143 -0.1946  0.5299
 1018MOL0     C37301   0.282  10.547   2.950  0.2657 -0.4675  0.1382
 1018MOL0     C37302   0.148  10.547   2.935 -0.3226 -0.9573 -0.2031
 1018MOL0     O37303   0.082  10.493   2.830 -0.7129 -0.2607 -0.5982
 1018MOL0     C37304   0.150  10.397   2.753 -0.3928 -0.3321  1.0978
 1018MOL0     C37305   0.070  10.348   2.631  1.0819 -0.7314 -0.3190
 1018MOL0     C37306   0.150  10.264   2.529 -0.9002 -0.5998 -0.6229
 1018MOL0     C37307   0.075  10.217   2.403 -0.1688 -0.3983 -0.2041
 1018MOL0     C37308  -0.011  10.091   2.417  0.1454  0.0175  0.5191
 1018MOL0     C37309  -0.065  10.059   2.275 -0.8598  0.5169 -0.2582
 1018MOL0     C37310  -0.160   9.939   2.275 -0.5172 -0.1998  0.3553
 1018MOL0     C37311  -0.296   9.984   2.344  0.3510  0.1057 -0.1851
 1018MOL0     N37312  -0.411   9.894   2.316  0.4102  0.1551  0.0712
 1018MOL0     C37313  -0.399   9.748   2.319 -0.5033 -0.7295 -0.6662
 1018MOL0     C37314  -0.511   9.694   2.272 -0.0735  0.6905  0.0368
 1018MOL0     C37315  -0.523   9.551   2.216 -0.6906 -0.7761 -0.7766
 1018MOL0     C37316  -0.546   9.451   2.332 -0.8067 -0.1568  0.2356
 1018MOL0     C37317  -0.611   9.325   2.265 -0.1805  0.2837  1.1609
 1018MOL0     C37318  -0.765   9.337   2.267  0.0950  0.6705  1.3456
 1018MOL0     O37319  -0.830   9.255   2.362 -0.4285  0.9874  0.8145
 1018MOL0     C37320  -0.963   9.253   2.381 -0.5120 -0.6021  0.1765
 1018MOL0     C37321  -1.015   9.125   2.402  0.3224 -0.6937 -0.2668
 1018MOL0     C37322  -1.156   9.113   2.424  0.5597 -0.4145  0.0118
 1018MOL0     C37323  -1.242   9.220   2.407  0.7721 -0.3194  0.8363
 1018MOL0     C37324  -1.390   9.203   2.431  0.3629  0.4050  0.1492
 1018MOL0     O37325  -1.442   9.075   2.435  0.9272 -0.2609  0.6717
 1018MOL0     C37326  -1.580   9.055   2.440 -0.5960  0.0021 -0.9281
 1018MOL0     C37327  -1.683   9.145   2.395 -0.0943  1.1943  0.1092
 1018MOL0     C37328  -1.820   9.119   2.396  1.1850  0.7083  0.2123
 1018MOL0     C37329  -1.868   8.999   2.461  0.3989  0.4460  0.5273
 1018MOL0     O37330  -1.995   8.955   2.459 -0.2448 -0.1002 -0.1245
 1018MOL0     C37331  -2.041   8.920   2.324 -1.1017  0.2017  0.0576
 1018MOL0     C37332  -2.165   9.002   2.277 -1.1982  0.4059  0.3129
 1018MOL0     C37333  -2.197   8.957   2.134  0.7764 -0.2171  0.0469
 1018MOL0     C37334  -2.348   8.962   2.121 -0.5122  1.3322 -1.0116
 1018MOL0     C37335  -2.402   8.931   1.979 -1.1645 -0.1775 -0.3102
 1018MOL0     C37336  -2.550   8.960   1.972  0.1062 -0.5453 -0.6880
 1018MOL0     C37337  -2.632   8.862   2.065  0.5378  0.6148  0.0838
 1018MOL0     C37338  -2.785   8.854   2.044 -0.0681  0.5696 -0.2401
 1018MOL0    Cl37339  -2.844   8.897   1.879  0.1047  0.7060  0.5578
 1018MOL0     C37340  -1.767   8.921   2.526 -0.4448 -0.7665 -0.1844
 1018MOL0     C37341  -1.628   8.943   2.519  0.3242 -0.6536 -0.4823
 1018MOL0     O37342  -1.456   9.307   2.439 -0.1521 -0.5292  0.5269
 1018MOL0     C37343  -1.184   9.347   2.363  0.3822  0.9516  0.0230
 1018MOL0     C37344  -1.046   9.363   2.357 -0.3197 -0.1455 -0.2267
 1018MOL0     N37345  -0.599   9.804   2.257  0.4243  0.0150 -1.6671
 1018MOL0     N37346  -0.541   9.917   2.284 -0.6712  0.1676 -0.7747
 1018MOL0     C37347   0.068  10.583   3.043 -0.7423  0.5385  0.9286
 1018MOL0     C37348   0.122  10.630   3.163 -0.0522  1.2905 -0.7907
 1018MOL0     C37349   0.465  10.781   3.448  0.0922 -0.1148 -0.1848
 1018MOL0     C37350   0.375  10.773   3.560 -0.5763  1.0297 -0.3293
 1018MOL0     C37351   0.425  10.790   3.693 -0.0560  0.2617  0.5251
 1018MOL0     C37352   0.557  10.822   3.719 -0.4727 -0.4525  0.9064
 1018MOL0     O37353   0.608  10.845   3.843 -0.7208  0.4722 -0.4897
 1018MOL0     C37354   0.512  10.849   3.956 -1.1317 -0.0581  0.2961
 1018MOL0     C37355   0.432  10.978   3.965 -0.6843 -0.1706 -0.4742
 1018MOL0     C37356   0.331  10.995   4.078 -0.1713  0.0775  0.2078
 1018MOL0     C37357   0.397  11.015   4.216 -0.6131 -0.3391  0.2594
 1018MOL0     C37358   0.334  10.936   4.319  0.7620  0.0211  0.3213
 1018MOL0     C37359   0.258  10.875   4.390  0.2008 -0.9006 -0.5188
 1018MOL0     C37360   0.640  10.831   3.609 -0.0459 -0.1120 -0.0310
 1018MOL0     C37361   0.603  10.809   3.480  0.7324  0.1456 -0.7634
 1018MOL0     C37362   0.722  10.814   3.379  0.1257  0.1896 -0.3287
 1018MOL0     H37363   0.446  10.605   3.077  0.5908 -0.1869  0.7075
 1018MOL0     H37364   0.352  10.500   2.881  1.9716 -0.1705  1.5916
 1018MOL0     H37365   0.233  10.453   2.710 -0.0464 -1.6989 -0.1088
 1018MOL0     H37366   0.181  10.319   2.824  2.7534 -1.6710 -1.5164
 1018MOL0     H37367   0.036  10.445   2.592 -1.0113 -0.8509  1.0382
 1018MOL0     H37368  -0.017  10.297   2.673 -0.4705  0.7645 -1.5811
 1018MOL0     H37369   0.204  10.180   2.572 -1.3520 -0.3284  0.4909
 1018MOL0     H37370   0.228  10.338   2.509 -0.0697 -1.5227 -0.8538
 1018MOL0     H37371   0.017  10.302   2.368  0.5616  0.7578  1.2768
 1018MOL0     H37372   0.153  10.197   2.329 -1.2632  1.4628 -1.9606
 1018MOL0     H37373   0.046  10.006   2.456 -0.2474 -0.8189 -0.6754
 1018MOL0     H37374  -0.099  10.114   2.477 -0.1285  1.1291 -0.2780
 1018MOL0     H37375  -0.107  10.143   2.218 -2.0914 -1.2604 -2.0856
 1018MOL0     H37376   0.015  10.029   2.207 -1.4847 -2.3688  0.1785
 1018MOL0     H37377  -0.106   9.860   2.327 -1.5689 -2.0115 -1.1541
 1018MOL0     H37378  -0.186   9.918   2.171  0.2220  0.4485  0.0295
 1018MOL0     H37379  -0.288   9.997   2.452 -0.7206 -1.5102  0.1248
 1018MOL0     H37380  -0.334  10.078   2.300 -0.8239 -0.9384 -1.4965
 1018MOL0     H37381  -0.303   9.702   2.341  0.4958  1.7478  0.5958
 1018MOL0     H37382  -0.616   9.542   2.158 -2.7864 -2.6558  2.5798
 1018MOL0     H37383  -0.446   9.531   2.141 -2.3483 -1.6733 -2.3448
 1018MOL0     H37384  -0.451   9.420   2.377 -0.5372  0.2893 -0.0222
 1018MOL0     H37385  -0.612   9.491   2.409 -0.6460  1.1676 -0.2988
 1018MOL0     H37386  -0.579   9.242   2.328 -1.1754 -0.8657  0.2129
 1018MOL0     H37387  -0.572   9.301   2.165 -0.6924 -2.4176  1.5407
 1018MOL0     H37388  -0.816   9.313   2.174  2.1207  1.0714  0.0702
 1018MOL0     H37389  -0.789   9.441   2.292 -1.0742  0.9142 -0.5984
 1018MOL0     H37390  -0.951   9.038   2.405  0.1588 -0.7946  1.6352
 1018MOL0     H37391  -1.202   9.016   2.441  0.1575 -0.1352  0.5255
 1018MOL0     H37392  -1.652   9.231   2.337 -1.0384  2.6576  1.7084
 1018MOL0     H37393  -1.898   9.176   2.346  1.1218  0.4965  0.0688
 1018MOL0     H37394  -1.965   8.940   2.248 -2.5310 -0.2293 -1.5477
 1018MOL0     H37395  -2.081   8.819   2.340  2.8153 -1.5162  0.1774
 1018MOL0     H37396  -2.242   8.978   2.351 -0.4072 -1.7094  0.5281
 1018MOL0     H37397  -2.134   9.107   2.274 -3.8001  1.2594  0.4938
 1018MOL0     H37398  -2.145   9.019   2.060  2.2025 -1.3092  0.1104
 1018MOL0     H37399  -2.170   8.854   2.110 -3.2130 -1.0719 -1.5875
 1018MOL0     H37400  -2.380   9.065   2.138 -2.6908  0.4509  0.5394
 1018MOL0     H37401  -2.381   8.891   2.197  1.6628  0.1764 -1.0617
 1018MOL0     H37402  -2.373   8.826   1.971 -1.1809 -0.2245  0.2665
 1018MOL0     H37403  -2.340   9.005   1.928 -0.2063  2.8619  4.6478
 1018MOL0     H37404  -2.562   9.064   2.002  0.0109 -1.1583  1.5869
 1018MOL0     H37405  -2.578   8.956   1.867 -0.5716  0.3624 -0.5500
 1018MOL0     H37406  -2.616   8.896   2.168  1.1379  2.4960 -0.5909
 1018MOL0     H37407  -2.593   8.760   2.061 -1.4822 -0.1692 -1.3342
 1018MOL0     H37408  -2.840   8.767   2.081 -0.8792 -0.1620 -2.9983
 1018MOL0     H37409  -2.806   8.938   2.111  4.2591 -0.6177  3.0912
 1018MOL0     H37410  -1.790   8.824   2.570  3.5972 -1.3626  1.0283
 1018MOL0     H37411  -1.568   8.877   2.581  1.4545 -0.1877 -1.0493
 1018MOL0     H37412  -1.260   9.420   2.337 -3.8937 -2.1097  2.6537
 1018MOL0     H37413  -1.005   9.463   2.358  0.8126 -0.5895  0.6648
 1018MOL0     H37414  -0.038  10.558   3.039 -0.3900 -1.0683  1.0870
 1018MOL0     H37415   0.050  10.665   3.237 -2.0110 -2.2511 -0.8123
 1018MOL0     H37416   0.268  10.759   3.551 -0.2280 -0.8253 -2.6515
 1018MOL0     H37417   0.352  10.767   3.769  0.0305 -2.2317 -0.0680
 1018MOL0     H37418   0.567  10.848   4.051  0.8648 -2.9815 -0.7616
 1018MOL0     H37419   0.441  10.767   3.949 -2.5601  1.2855 -2.1305
 1018MOL0     H37420   0.379  10.983   3.869 -0.8917  0.3115 -0.3331
 1018MOL0     H37421   0.513  11.051   3.969  0.4174 -1.3159 -0.9824
 1018MOL0     H37422   0.265  10.909   4.065 -0.0218  0.1970 -1.5470
 1018MOL0     H37423   0.274  11.073   4.028  0.1767 -0.7068 -1.4930
 1018MOL0     H37424   0.501  10.986   4.204 -0.8433 -1.3981  0.6909
 1018MOL0     H37425   0.394  11.121   4.244 -1.7853  0.5644 -2.8592
 1018MOL0     H37426   0.189  10.817   4.447 -3.1103  1.3057 -1.9889
 1018MOL0     H37427   0.742  10.860   3.633 -1.3264  4.1799  1.0916
 1018MOL0     H37428   0.702  10.906   3.323  2.9837  1.8952  1.1964
 1018MOL0     H37429   0.819  10.820   3.430  0.2865 -2.8322 -0.1002
 1018MOL0     H37430   0.722  10.727   3.312  1.7252  1.1728 -1.6861
 1019MOL0     O37431   4.782   0.930   6.728  0.2771  0.0615  0.1205
 1019MOL0     C37432   4.661   0.948   6.711 -0.2662  0.4793 -0.5710
 1019MOL0     O37433   4.584   0.898   6.605  0.5643 -0.3541 -0.1905
 1019MOL0     C37434   4.623   0.791   6.538  1.3542 -0.5458  0.6626
 1019MOL0     C37435   4.578   0.660   6.556 -0.0704 -0.1617  0.9045
 1019MOL0     C37436   4.622   0.542   6.490  0.0765 -0.4541  0.2395
 1019MOL0     C37437   4.723   0.556   6.390  0.0581 -1.0981  1.3623
 1019MOL0     O37438   4.793   0.456   6.311 -0.2711  0.5485 -0.5517
 1019MOL0     C37439   4.747   0.309   6.293  0.8161 -1.1909 -0.5597
 1019MOL0     C37440   4.828   0.228   6.198 -0.6252 -0.4779 -0.4261
 1019MOL0     C37441   4.799   0.085   6.220 -0.1637  0.4235 -0.0438
 1019MOL0     C37442   4.889   0.017   6.115 -0.5836  0.6584  0.4759
 1019MOL0     C37443   4.904  -0.138   6.109 -0.3671 -0.3299  0.4907
 1019MOL0     C37444   5.044  -0.181   6.163 -0.0381 -0.1647 -0.0211
 1019MOL0     C37445   5.077  -0.332   6.159  0.1794 -0.6182 -0.6940
 1019MOL0     C37446   5.019  -0.421   6.276 -0.2498  0.5565  0.1276
 1019MOL0     N37447   5.069  -0.563   6.268  0.9117 -0.4791 -0.7771
 1019MOL0     C37448   5.193  -0.607   6.305  0.2704  0.1614 -1.5732
 1019MOL0     C37449   5.183  -0.736   6.296  1.0110 -0.2614  1.2155
 1019MOL0     C37450   5.296  -0.834   6.281  0.1847 -0.2812 -1.1857
 1019MOL0     C37451   5.331  -0.870   6.137  0.5817  0.5626 -0.2589
 1019MOL0     C37452   5.392  -0.761   6.052 -0.6738  0.5095  0.1204
 1019MOL0     C37453   5.410  -0.806   5.909 -0.4645  0.4851  0.1149
 1019MOL0     O37454   5.484  -0.702   5.838 -0.4017  0.2869 -0.4035
 1019MOL0     C37455   5.589  -0.740   5.758 -0.4851  0.4982 -1.3468
 1019MOL0     C37456   5.565  -0.834   5.658  0.0545 -0.8533 -0.1061
 1019MOL0     C37457   5.669  -0.887   5.592  0.7698 -0.5123  0.3925
 1019MOL0     C37458   5.807  -0.858   5.628 -0.7890 -1.4375  1.0677
 1019MOL0     C37459   5.927  -0.926   5.557  0.6106 -0.2083 -0.0723
 1019MOL0     O37460   5.882  -1.033   5.466 -0.7566 -0.1437 -0.0923
 1019MOL0     C37461   5.961  -1.101   5.379 -1.2625  1.0869 -0.7904
 1019MOL0     C37462   6.097  -1.084   5.357 -0.9196 -0.0899 -1.3381
 1019MOL0     C37463   6.182  -1.170   5.287  0.2335 -0.1855 -0.1932
 1019MOL0     C37464   6.117  -1.268   5.213  0.3507  0.1949 -0.2956
 1019MOL0     O37465   6.187  -1.374   5.158 -0.5749  0.1559  0.4491
 1019MOL0     C37466   6.330  -1.374   5.156  0.2607 -0.9395 -0.1953
 1019MOL0     C37467   6.384  -1.507   5.093 -0.3038 -1.1305  0.5291
 1019MOL0     C37468   6.496  -1.468   4.988  0.1586  1.0747  0.3716
 1019MOL0     C37469   6.536  -1.601   4.911 -0.6546 -0.2219 -0.3403
 1019MOL0     C37470   6.619  -1.569   4.783  0.0914  0.2202 -0.1507
 1019MOL0     C37471   6.517  -1.499   4.673  0.1736  0.3642 -0.0697
 1019MOL0     C37472   6.600  -1.457   4.555  0.2858  0.3589 -0.2456
 1019MOL0     C37473   6.630  -1.568   4.459  0.8147 -0.2972 -0.2207
 1019MOL0    Cl37474   6.696  -1.499   4.307 -0.5369 -0.0070 -0.0066
 1019MOL0     C37475   5.971  -1.277   5.213  0.4465  0.3038 -0.4474
 1019MOL0     C37476   5.896  -1.193   5.300 -0.0924 -0.4884  0.3010
 1019MOL0     O37477   6.037  -0.888   5.578 -0.8338  0.6537 -0.4673
 1019MOL0     C37478   5.827  -0.752   5.719 -0.1173  0.0616 -0.0541
 1019MOL0     C37479   5.721  -0.697   5.789 -0.0307 -0.8554 -0.3425
 1019MOL0     N37480   5.054  -0.776   6.268  0.2504 -0.3940  0.1935
 1019MOL0     N37481   4.990  -0.672   6.246  0.5517 -0.2373  0.3009
 1019MOL0     C37482   4.769   0.686   6.370  0.0605  1.2464  0.4163
 1019MOL0     C37483   4.721   0.798   6.432  0.0665 -0.0514  0.1819
 1019MOL0     C37484   4.587   1.019   6.808  0.4824  0.2003  0.0092
 1019MOL0     C37485   4.482   0.958   6.876  0.1696 -0.2591  0.1508
 1019MOL0     C37486   4.420   1.015   6.985 -0.3622  0.7300 -0.2747
 1019MOL0     C37487   4.460   1.138   7.025 -0.9987  0.1856 -0.8432
 1019MOL0     O37488   4.410   1.208   7.134  0.1452  0.0955 -0.1565
 1019MOL0     C37489   4.284   1.168   7.194  0.1026 -0.7010 -0.4020
 1019MOL0     C37490   4.208   1.292   7.253  0.3505  0.2801  0.6542
 1019MOL0     C37491   4.073   1.258   7.318 -0.0039 -0.8263 -0.2148
 1019MOL0     C37492   4.089   1.268   7.472  0.3921 -0.4307 -0.0925
 1019MOL0     C37493   4.172   1.160   7.513 -0.9903 -0.2721  0.8726
 1019MOL0     C37494   4.237   1.068   7.556  0.8857 -0.5967  0.2796
 1019MOL0     C37495   4.557   1.208   6.956 -0.3252 -0.1652 -0.1883
 1019MOL0     C37496   4.624   1.154   6.849  0.2586  0.8444 -1.5609
 1019MOL0     C37497   4.720   1.237   6.767  0.3390 -0.6800  0.0445
 1019MOL0     H37498   4.496   0.650   6.627 -0.7039  2.1285  0.5614
 1019MOL0     H37499   4.576   0.447   6.512 -2.2695  0.2808 -1.1104
 1019MOL0     H37500   4.728   0.267   6.391 -2.3198 -2.9038 -1.7750
 1019MOL0     H37501   4.650   0.323   6.243  1.6243  2.3942 -1.4798
 1019MOL0     H37502   4.931   0.263   6.199 -0.5560 -0.6932  0.7627
 1019MOL0     H37503   4.797   0.257   6.097  0.0167  2.3071  0.1019
 1019MOL0     H37504   4.700   0.069   6.177  0.6521  0.9814 -2.2826
 1019MOL0     H37505   4.810   0.045   6.321 -0.6006  1.4458  0.4227
 1019MOL0     H37506   4.845   0.035   6.016 -1.1216 -3.2848 -0.1753
 1019MOL0     H37507   4.990   0.059   6.117  0.4020 -1.4986 -0.3317
 1019MOL0     H37508   4.831  -0.181   6.178  0.8426  0.2055  2.1639
 1019MOL0     H37509   4.885  -0.181   6.010 -1.4236  1.7267 -0.2718
 1019MOL0     H37510   5.115  -0.126   6.101  0.2334 -0.1901  0.2669
 1019MOL0     H37511   5.058  -0.143   6.264 -0.2048 -2.4194  0.9179
 1019MOL0     H37512   5.186  -0.340   6.168 -0.0227 -2.7257  0.5854
 1019MOL0     H37513   5.041  -0.369   6.062 -0.9363 -0.9699 -0.1565
 1019MOL0     H37514   5.043  -0.382   6.375 -0.4978 -1.5427  1.0862
 1019MOL0     H37515   4.911  -0.426   6.259  0.1039 -1.1327 -2.1842
 1019MOL0     H37516   5.288  -0.556   6.313  1.7497 -2.5057 -0.8387
 1019MOL0     H37517   5.385  -0.790   6.326 -1.1375  0.4061  0.9124
 1019MOL0     H37518   5.262  -0.914   6.348 -0.7090  1.8804  1.0879
 1019MOL0     H37519   5.409  -0.947   6.133 -1.2696 -1.3785 -1.3933
 1019MOL0     H37520   5.239  -0.920   6.105 -0.9096 -1.1065  5.4010
 1019MOL0     H37521   5.486  -0.718   6.088  0.0916 -1.8024  1.0366
 1019MOL0     H37522   5.325  -0.674   6.059 -1.6544 -0.2265  0.1499
 1019MOL0     H37523   5.311  -0.824   5.867  0.2643 -3.7699 -0.2150
 1019MOL0     H37524   5.465  -0.900   5.917  1.3778  1.5923  1.0175
 1019MOL0     H37525   5.463  -0.855   5.628  0.1833  0.6958 -1.7844
 1019MOL0     H37526   5.644  -0.959   5.515  0.2914  0.5910 -0.5143
 1019MOL0     H37527   6.156  -1.026   5.427 -1.6954 -0.5966 -0.2366
 1019MOL0     H37528   6.288  -1.147   5.290 -0.3371  2.8038  0.1603
 1019MOL0     H37529   6.366  -1.287   5.102  2.1535  1.0616  3.8420
 1019MOL0     H37530   6.371  -1.366   5.257 -1.2202 -0.9278  0.4293
 1019MOL0     H37531   6.422  -1.580   5.166  1.4863 -0.8559 -0.0798
 1019MOL0     H37532   6.307  -1.549   5.027  1.2032 -0.2251 -1.9013
 1019MOL0     H37533   6.451  -1.414   4.904 -1.0860 -1.5370 -0.7405
 1019MOL0     H37534   6.579  -1.411   5.031  1.2268 -0.3793  0.3006
 1019MOL0     H37535   6.455  -1.667   4.878 -0.6293  0.3300 -1.5462
 1019MOL0     H37536   6.598  -1.660   4.979  0.3193  1.8514  0.6454
 1019MOL0     H37537   6.662  -1.664   4.752  0.8765 -0.5315  2.9437
 1019MOL0     H37538   6.698  -1.498   4.808  0.5090 -0.2486 -0.1367
 1019MOL0     H37539   6.435  -1.564   4.641  2.4069 -1.2234 -3.0623
 1019MOL0     H37540   6.482  -1.404   4.714  4.0903  1.7419  0.5576
 1019MOL0     H37541   6.698  -1.415   4.579 -0.5675  1.9812  0.5409
 1019MOL0     H37542   6.544  -1.377   4.506  0.6415  0.8500  0.1465
 1019MOL0     H37543   6.707  -1.629   4.506  4.4926  4.3951  0.5377
 1019MOL0     H37544   6.540  -1.631   4.450 -0.9402  1.6721  2.0903
 1019MOL0     H37545   5.922  -1.342   5.141  0.9071 -2.7324  1.7745
 1019MOL0     H37546   5.788  -1.190   5.287  0.2258 -1.0716 -3.7330
 1019MOL0     H37547   5.929  -0.721   5.740 -0.0259 -0.1340 -0.2126
 1019MOL0     H37548   5.729  -0.622   5.868  0.7349  0.5625 -1.7041
 1019MOL0     H37549   4.845   0.688   6.292  0.6402 -2.2042  0.7239
 1019MOL0     H37550   4.750   0.901   6.415 -0.0797  0.5797  3.1721
 1019MOL0     H37551   4.449   0.862   6.839 -1.0197  1.0222 -2.3566
 1019MOL0     H37552   4.338   0.964   7.034 -1.4468  2.5395 -0.1447
 1019MOL0     H37553   4.316   1.105   7.277 -1.0471 -1.6179 -0.6412
 1019MOL0     H37554   4.219   1.107   7.131  0.7632 -0.2401 -1.5725
 1019MOL0     H37555   4.173   1.353   7.169 -2.3494 -1.8799  0.0551
 1019MOL0     H37556   4.277   1.352   7.312 -0.1255  1.4209  0.0847
 1019MOL0     H37557   4.025   1.164   7.289 -1.1923  0.3722 -2.4494
 1019MOL0     H37558   4.011   1.342   7.285  0.5385 -0.3169  0.0535
 1019MOL0     H37559   4.113   1.367   7.512 -2.8630  1.9376 -3.3257
 1019MOL0     H37560   3.988   1.253   7.512  0.1922  0.4026 -0.2810
 1019MOL0     H37561   4.287   0.980   7.592  1.7617 -0.7315 -1.1864
 1019MOL0     H37562   4.594   1.302   6.994 -0.2121 -0.6428  0.9405
 1019MOL0     H37563   4.810   1.283   6.809 -0.1062  0.4980 -0.2496
 1019MOL0     H37564   4.757   1.178   6.683 -0.9052 -2.8639  0.9644
 1019MOL0     H37565   4.660   1.318   6.726 -0.0811  1.0326  3.6480
 1020MOL0     O37566   1.873  11.054   8.059 -0.2691  0.2415 -0.1431
 1020MOL0     C37567   1.793  11.117   8.129 -0.4840  0.5513  0.1556
 1020MOL0     O37568   1.831  11.212   8.219  0.4147 -0.5155 -0.2972
 1020MOL0     C37569   1.959  11.241   8.251 -0.0601 -0.6309  1.2060
 1020MOL0     C37570   1.988  11.275   8.378 -0.6596  0.7269  0.3779
 1020MOL0     C37571   2.109  11.327   8.417  0.2638  0.5010 -0.6409
 1020MOL0     C37572   2.216  11.326   8.330  0.1761 -0.4223  0.2037
 1020MOL0     O37573   2.338  11.367   8.367  0.5784 -0.0193 -0.4194
 1020MOL0     C37574   2.399  11.314   8.488 -0.3750  0.1913 -0.2228
 1020MOL0     C37575   2.506  11.405   8.540  1.2736  0.9880  0.5853
 1020MOL0     C37576   2.442  11.538   8.590 -0.2880 -0.1593  1.2404
 1020MOL0     C37577   2.541  11.658   8.577 -0.7663  0.2902 -0.0982
 1020MOL0     C37578   2.667  11.649   8.661 -0.4593 -0.7511 -0.9895
 1020MOL0     C37579   2.766  11.762   8.646  0.5564  0.2356  0.8397
 1020MOL0     C37580   2.862  11.793   8.750 -0.0565  1.0220 -0.2178
 1020MOL0     C37581   2.948  11.679   8.789  0.3030  0.2140  0.6802
 1020MOL0     N37582   3.039  11.721   8.897 -0.0307 -0.6885 -0.1747
 1020MOL0     C37583   3.057  11.854   8.942 -0.3760 -0.2111  0.2370
 1020MOL0     C37584   3.124  11.845   9.054  0.4692 -1.0444  0.0886
 1020MOL0     C37585   3.148  11.970   9.146  0.6401  0.1953 -0.2981
 1020MOL0     C37586   3.067  11.962   9.275 -0.8997 -0.3338 -0.3304
 1020MOL0     C37587   3.122  12.060   9.380  0.6407 -0.0532 -0.0618
 1020MOL0     C37588   3.118  12.204   9.340 -0.4205  1.0773  0.0782
 1020MOL0     O37589   2.984  12.234   9.289 -0.2089 -1.1888 -0.6934
 1020MOL0     C37590   2.867  12.263   9.361  0.6849  0.0464 -0.0871
 1020MOL0     C37591   2.752  12.303   9.292  0.5624 -0.0729 -0.0450
 1020MOL0     C37592   2.630  12.335   9.351  0.2521  0.7298  0.3707
 1020MOL0     C37593   2.621  12.305   9.486  0.9521 -0.7837  0.1248
 1020MOL0     C37594   2.488  12.330   9.548 -0.3536  0.6700  0.0542
 1020MOL0     O37595   2.505  12.349   9.688  0.1450  0.1326  0.0318
 1020MOL0     C37596   2.390  12.318   9.758 -0.8880  0.2393 -0.0536
 1020MOL0     C37597   2.393  12.205   9.834 -0.1356  0.2377  0.2312
 1020MOL0     C37598   2.280  12.157   9.910 -0.0301  0.1801 -0.9584
 1020MOL0     C37599   2.151  12.226   9.889 -0.3045 -1.4904 -0.1265
 1020MOL0     O37600   2.030  12.195   9.951 -0.9109 -0.3043  0.0241
 1020MOL0     C37601   2.050  12.114  10.073  0.6638 -0.5661 -0.8716
 1020MOL0     C37602   1.913  12.091  10.124  1.1314  1.2344 -0.2355
 1020MOL0     C37603   1.809  12.023  10.037 -0.3540  0.1775 -0.1425
 1020MOL0     C37604   1.682  11.974  10.109 -0.2236 -0.1114 -0.1720
 1020MOL0     C37605   1.564  11.968  10.008  0.0009  0.8387 -0.1205
 1020MOL0     C37606   1.441  11.936  10.083 -0.6970  0.4133  0.3420
 1020MOL0     C37607   1.330  11.977   9.991 -0.2646 -0.4046  0.9521
 1020MOL0     C37608   1.193  12.008  10.058  0.5884  0.6126 -1.7399
 1020MOL0    Cl37609   1.147  11.863  10.158  0.4491  0.4160  0.5033
 1020MOL0     C37610   2.145  12.341   9.806 -1.1261  1.1984  0.1466
 1020MOL0     C37611   2.261  12.383   9.748 -0.7645  0.4116 -0.2470
 1020MOL0     O37612   2.391  12.367   9.486 -0.7411  0.6664  0.7201
 1020MOL0     C37613   2.735  12.279   9.562 -0.1844 -0.8049 -0.1905
 1020MOL0     C37614   2.859  12.254   9.500  0.5979  0.3496  0.2688
 1020MOL0     N37615   3.151  11.712   9.079 -0.3067 -0.3587 -0.5500
 1020MOL0     N37616   3.097  11.634   8.985 -0.3395  0.4462  0.3480
 1020MOL0     C37617   2.196  11.290   8.195 -0.8707 -0.1025 -0.3363
 1020MOL0     C37618   2.061  11.256   8.153 -0.7800 -1.2889  0.4488
 1020MOL0     C37619   1.652  11.094   8.105  0.4222  0.0690  0.7772
 1020MOL0     C37620   1.608  11.085   7.964  0.0842 -0.1609 -0.2997
 1020MOL0     C37621   1.475  11.050   7.942 -0.5434 -0.0043 -0.2803
 1020MOL0     C37622   1.383  11.031   8.043 -0.3232 -0.1981  0.6197
 1020MOL0     O37623   1.252  10.996   8.028  0.7741  0.0182 -1.1337
 1020MOL0     C37624   1.171  11.068   7.936  0.2845  1.1339 -0.0364
 1020MOL0     C37625   1.035  10.993   7.940 -0.9415 -0.4005  0.0160
 1020MOL0     C37626   0.948  11.048   8.057  0.3000  0.0282 -0.1224
 1020MOL0     C37627   0.812  10.989   8.068  0.7019 -0.3532 -0.3478
 1020MOL0     C37628   0.723  11.025   7.960 -0.6313  0.1642  0.2463
 1020MOL0     C37629   0.640  11.034   7.866  0.8926  0.1969  0.4802
 1020MOL0     C37630   1.424  11.059   8.176  0.1693 -0.6614  1.1826
 1020MOL0     C37631   1.555  11.080   8.204  0.1941  0.9678 -0.2590
 1020MOL0     C37632   1.586  11.105   8.344 -0.1552 -1.2165 -0.3652
 1020MOL0     H37633   1.898  11.263   8.439 -2.5467 -1.9449 -2.5718
 1020MOL0     H37634   2.116  11.358   8.521 -0.1901  2.1000 -1.0600
 1020MOL0     H37635   2.326  11.290   8.566 -2.7326  0.4776 -2.2496
 1020MOL0     H37636   2.445  11.219   8.457  1.3476  1.0066 -0.3000
 1020MOL0     H37637   2.583  11.413   8.462 -0.6991 -1.9191 -1.8911
 1020MOL0     H37638   2.565  11.364   8.623 -0.0727  1.4961  1.8337
 1020MOL0     H37639   2.419  11.529   8.697  1.7602  2.5731  2.0339
 1020MOL0     H37640   2.356  11.560   8.527 -1.0129 -2.5922  1.2561
 1020MOL0     H37641   2.551  11.678   8.469 -0.8297  0.9664  0.0181
 1020MOL0     H37642   2.483  11.744   8.611 -3.5435 -0.8634 -1.5644
 1020MOL0     H37643   2.628  11.655   8.763 -2.0047  0.9165 -1.6234
 1020MOL0     H37644   2.718  11.558   8.629  2.3868  0.3113  0.1760
 1020MOL0     H37645   2.828  11.732   8.560  0.4495 -0.2498  0.9269
 1020MOL0     H37646   2.713  11.849   8.608 -1.3089 -0.2715  2.1817
 1020MOL0     H37647   2.807  11.817   8.842  0.0594  0.7044 -0.0644
 1020MOL0     H37648   2.918  11.883   8.722 -1.0354  1.6535 -0.1818
 1020MOL0     H37649   2.890  11.596   8.832 -0.9781 -0.2742 -1.8045
 1020MOL0     H37650   2.994  11.636   8.700 -1.0766  1.9025 -0.9030
 1020MOL0     H37651   3.015  11.946   8.902  1.4105  0.8209  0.5831
 1020MOL0     H37652   3.255  11.974   9.171  0.8273 -1.6310 -0.6361
 1020MOL0     H37653   3.126  12.052   9.077 -0.2568 -0.5205 -0.8891
 1020MOL0     H37654   2.964  11.982   9.245 -1.0004 -0.4847 -0.0827
 1020MOL0     H37655   3.082  11.865   9.323  2.5939  0.4794  0.4817
 1020MOL0     H37656   3.228  12.048   9.402  1.5372  1.1771 -3.0897
 1020MOL0     H37657   3.060  12.050   9.469  0.5090 -0.9755 -0.2500
 1020MOL0     H37658   3.193  12.231   9.266 -0.4271  2.2636  0.4922
 1020MOL0     H37659   3.149  12.271   9.421 -0.0963  0.0067  0.8716
 1020MOL0     H37660   2.759  12.317   9.184  0.3668  2.8357  0.2384
 1020MOL0     H37661   2.545  12.369   9.293  2.4883 -1.1815 -4.6014
 1020MOL0     H37662   2.488  12.152   9.830  0.6980  1.6208  0.7787
 1020MOL0     H37663   2.299  12.068   9.969 -0.7738 -0.2275 -1.3161
 1020MOL0     H37664   2.101  12.021  10.045 -0.3816 -0.6168 -2.7950
 1020MOL0     H37665   2.095  12.164  10.159 -2.4930 -0.4312  0.8572
 1020MOL0     H37666   1.912  12.039  10.221  0.7436  1.8140  0.0780
 1020MOL0     H37667   1.864  12.185  10.152 -3.0466 -0.7582 -0.1354
 1020MOL0     H37668   1.778  12.099   9.965  1.3198  0.2830 -0.7854
 1020MOL0     H37669   1.863  11.938   9.993  2.4197  2.4195 -1.3889
 1020MOL0     H37670   1.662  12.045  10.190  2.4729  0.5140  0.0503
 1020MOL0     H37671   1.711  11.873  10.141 -0.7933 -0.4635 -0.7545
 1020MOL0     H37672   1.582  11.888   9.935  0.6911  1.3162 -0.4861
 1020MOL0     H37673   1.553  12.062   9.952 -2.4417  0.7786  0.1536
 1020MOL0     H37674   1.448  11.829  10.104  2.3246  0.2643 -0.9562
 1020MOL0     H37675   1.442  11.989  10.179 -0.0412 -1.6422  1.5187
 1020MOL0     H37676   1.317  11.911   9.905  3.2430 -0.4944  0.3431
 1020MOL0     H37677   1.345  12.072   9.940  0.7915 -0.5843  0.8963
 1020MOL0     H37678   1.196  12.099  10.119 -3.2995  0.5147 -1.1232
 1020MOL0     H37679   1.111  12.015   9.985 -0.6904 -1.5752 -0.5945
 1020MOL0     H37680   2.056  12.396   9.778 -1.0722  0.2401 -2.0620
 1020MOL0     H37681   2.265  12.466   9.678  0.3955 -1.4916 -2.5879
 1020MOL0     H37682   2.727  12.288   9.670 -1.0892 -1.0968 -0.2251
 1020MOL0     H37683   2.946  12.234   9.563 -0.3726  1.0817  1.9096
 1020MOL0     H37684   2.285  11.270   8.137  0.8748 -2.4941  2.8736
 1020MOL0     H37685   2.044  11.226   8.051  1.8088 -0.6280 -0.2515
 1020MOL0     H37686   1.685  11.121   7.896  3.0805 -2.3345  1.6806
 1020MOL0     H37687   1.453  11.029   7.837 -1.2374 -1.7297  0.1711
 1020MOL0     H37688   1.210  11.049   7.836  1.1353  0.7119  0.3634
 1020MOL0     H37689   1.148  11.172   7.963 -5.9562  1.0233 -3.0190
 1020MOL0     H37690   1.032  10.885   7.951  0.4498 -0.3439  1.1889
 1020MOL0     H37691   0.994  11.022   7.842 -2.1497  0.6757  0.8081
 1020MOL0     H37692   0.929  11.154   8.037 -1.4316 -0.1927  0.2169
 1020MOL0     H37693   1.001  11.012   8.145  0.3513  0.3887 -0.0026
 1020MOL0     H37694   0.812  10.880   8.073 -1.0626 -0.4746 -1.7735
 1020MOL0     H37695   0.774  11.033   8.160  0.8128  2.0756 -1.3767
 1020MOL0     H37696   0.565  11.049   7.790  0.6820  2.8640  1.1250
 1020MOL0     H37697   1.343  11.062   8.248 -0.5629 -0.0981  0.3719
 1020MOL0     H37698   1.499  11.102   8.410 -2.6387 -1.7057 -3.4825
 1020MOL0     H37699   1.657  11.031   8.383  1.0043 -1.2018 -2.3293
 1020MOL0     H37700   1.625  11.207   8.351 -2.1686 -0.2962 -1.7645
 1021MOL0     O37701  11.194   6.750   3.209 -0.3513  0.1093 -0.1783
 1021MOL0     C37702  11.217   6.811   3.314 -0.1632  0.6583 -0.9078
 1021MOL0     O37703  11.138   6.909   3.363  0.5556  0.5050  0.7285
 1021MOL0     C37704  11.016   6.926   3.315 -0.0173 -0.2201 -0.2065
 1021MOL0     C37705  10.986   7.064   3.283  0.1350 -0.3060 -0.6256
 1021MOL0     C37706  10.861   7.102   3.230  0.3148 -0.4160 -0.2338
 1021MOL0     C37707  10.765   7.007   3.209 -0.0480  0.3618  0.2360
 1021MOL0     O37708  10.645   7.040   3.149  0.2817 -0.0862 -0.3650
 1021MOL0     C37709  10.546   6.937   3.141  1.1591  0.2830  0.4839
 1021MOL0     C37710  10.411   6.993   3.085  0.7840 -0.7911 -0.3099
 1021MOL0     C37711  10.419   7.008   2.927 -0.6522 -1.5344 -0.7375
 1021MOL0     C37712  10.396   7.157   2.878 -0.9985 -0.0186 -0.1774
 1021MOL0     C37713  10.377   7.179   2.732 -0.2132 -0.4158 -0.3510
 1021MOL0     C37714  10.403   7.320   2.676  0.1682  0.2067  0.5745
 1021MOL0     C37715  10.357   7.305   2.523  0.9615 -0.1190  0.0518
 1021MOL0     C37716  10.369   7.447   2.448  0.4956 -0.4154 -0.2237
 1021MOL0     N37717  10.299   7.556   2.506 -1.2044  0.3399  0.2173
 1021MOL0     C37718  10.355   7.676   2.546 -0.0189 -1.0323  0.1730
 1021MOL0     C37719  10.252   7.752   2.592  0.0395  0.0473  1.1328
 1021MOL0     C37720  10.237   7.887   2.633 -0.1190 -0.6913 -0.6130
 1021MOL0     C37721  10.215   7.978   2.508  0.0756  0.3360  0.1148
 1021MOL0     C37722  10.189   8.126   2.535 -0.5056 -0.4552 -0.9027
 1021MOL0     C37723  10.041   8.162   2.565 -0.1525 -0.8295  0.6737
 1021MOL0     O37724   9.959   8.146   2.453  0.0259 -0.4306 -0.0793
 1021MOL0     C37725   9.846   8.219   2.439  0.2575  0.1490  1.5814
 1021MOL0     C37726   9.770   8.266   2.545 -0.4218 -1.3749 -0.2496
 1021MOL0     C37727   9.649   8.331   2.523  1.2872  0.2219  0.0659
 1021MOL0     C37728   9.594   8.365   2.397 -0.0062  0.2305  0.0880
 1021MOL0     C37729   9.470   8.431   2.377  0.5226  0.2229  0.0333
 1021MOL0     O37730   9.399   8.476   2.488 -1.1543  0.2625 -0.5524
 1021MOL0     C37731   9.291   8.554   2.484 -0.1180  0.1118  0.1245
 1021MOL0     C37732   9.275   8.621   2.603  0.6362  0.3161  0.1845
 1021MOL0     C37733   9.178   8.717   2.623  0.3999  0.0581  0.3819
 1021MOL0     C37734   9.111   8.765   2.519  0.1222 -1.6499  0.1053
 1021MOL0     O37735   9.026   8.880   2.542 -0.0536 -0.5411  0.8377
 1021MOL0     C37736   8.878   8.860   2.539 -0.3822 -1.1897  0.3665
 1021MOL0     C37737   8.824   9.001   2.565 -0.3548  0.2282  0.3962
 1021MOL0     C37738   8.676   8.998   2.558  0.2733 -0.1179  0.6859
 1021MOL0     C37739   8.604   9.124   2.564  1.2202 -1.4285 -0.2399
 1021MOL0     C37740   8.463   9.113   2.627  0.1373  0.0072 -0.4659
 1021MOL0     C37741   8.386   9.252   2.626  0.1099  0.3270 -0.1919
 1021MOL0     C37742   8.250   9.254   2.704  0.5238  1.1698  0.3694
 1021MOL0     C37743   8.170   9.376   2.699 -0.3346 -0.2741  0.5047
 1021MOL0    Cl37744   8.125   9.429   2.537 -0.0703 -0.2046  0.5027
 1021MOL0     C37745   9.120   8.705   2.391 -0.5246 -1.2014  0.6726
 1021MOL0     C37746   9.204   8.598   2.376 -0.9252  0.5844  0.7555
 1021MOL0     O37747   9.438   8.447   2.257 -0.2608 -0.1969  0.3057
 1021MOL0     C37748   9.683   8.334   2.285  0.4658 -0.4160 -0.5072
 1021MOL0     C37749   9.807   8.267   2.307  0.2706 -0.3708 -0.0199
 1021MOL0     N37750  10.133   7.675   2.591  0.2990  0.9066 -0.5688
 1021MOL0     N37751  10.171   7.560   2.544 -0.7048 -0.2822 -0.7073
 1021MOL0     C37752  10.801   6.873   3.236 -0.2120 -0.0356  0.9530
 1021MOL0     C37753  10.921   6.831   3.288  0.0028 -0.2478 -0.8183
 1021MOL0     C37754  11.340   6.770   3.400  0.4838  0.5350  0.2013
 1021MOL0     C37755  11.365   6.850   3.509  0.1238  0.2931  0.4145
 1021MOL0     C37756  11.458   6.817   3.606 -0.2965 -0.2518 -0.1871
 1021MOL0     C37757  11.520   6.694   3.603 -0.4699  1.0114  1.0708
 1021MOL0     O37758  11.613   6.669   3.698 -0.4185  0.0654 -0.0805
 1021MOL0     C37759  11.592   6.703   3.835 -0.5288  0.1586  0.2462
 1021MOL0     C37760  11.696   6.641   3.922  0.2119 -0.3730 -0.5279
 1021MOL0     C37761  11.681   6.485   3.923  1.0319  0.7813  0.7562
 1021MOL0     C37762  11.770   6.412   3.807 -0.1604 -1.3502 -0.6010
 1021MOL0     C37763  11.911   6.416   3.851  0.0539 -0.3040  0.0856
 1021MOL0     C37764  12.033   6.425   3.865  0.0574 -1.0659 -0.3303
 1021MOL0     C37765  11.490   6.603   3.499 -0.1245  0.2390  0.2494
 1021MOL0     C37766  11.396   6.638   3.392  0.4636  0.2814 -0.9664
 1021MOL0     C37767  11.354   6.534   3.286 -0.2208  0.1390  0.1175
 1021MOL0     H37768  11.064   7.139   3.293 -0.8425  0.7566 -0.8009
 1021MOL0     H37769  10.841   7.208   3.229  0.4087 -0.3709 -2.2650
 1021MOL0     H37770  10.579   6.854   3.078  0.0154 -0.6680  1.1035
 1021MOL0     H37771  10.536   6.893   3.240  2.9950 -1.9583 -0.2340
 1021MOL0     H37772  10.399   7.092   3.129  0.2206 -0.7793 -0.4730
 1021MOL0     H37773  10.324   6.937   3.122  2.2474 -1.4924  2.3108
 1021MOL0     H37774  10.335   6.954   2.883 -0.8009 -0.8262 -1.3559
 1021MOL0     H37775  10.512   6.959   2.897  1.0129 -0.5646  2.4745
 1021MOL0     H37776  10.305   7.202   2.917 -1.3989 -0.1305 -0.9556
 1021MOL0     H37777  10.474   7.224   2.915 -0.1554 -0.4845 -1.0586
 1021MOL0     H37778  10.449   7.117   2.676  0.8343  3.5061 -3.8463
 1021MOL0     H37779  10.276   7.153   2.698  0.6206  0.1942 -3.6239
 1021MOL0     H37780  10.338   7.382   2.738 -2.7621  1.0011 -2.9298
 1021MOL0     H37781  10.504   7.359   2.687  0.0248  0.9089 -0.5008
 1021MOL0     H37782  10.250   7.288   2.513  1.0603 -1.3029  0.7726
 1021MOL0     H37783  10.409   7.230   2.464  0.4209 -0.3431 -0.1413
 1021MOL0     H37784  10.475   7.474   2.448 -0.1366  2.3081 -0.1716
 1021MOL0     H37785  10.337   7.436   2.344  1.3667 -2.5585 -0.3253
 1021MOL0     H37786  10.458   7.712   2.541 -0.4742  0.1827 -1.1548
 1021MOL0     H37787  10.154   7.896   2.703  1.3984 -0.4077  1.2464
 1021MOL0     H37788  10.326   7.922   2.687 -0.6867  1.0321 -0.7361
 1021MOL0     H37789  10.287   7.948   2.431 -0.1089  1.9790 -0.7307
 1021MOL0     H37790  10.123   7.936   2.465 -1.4039  2.4720  1.0300
 1021MOL0     H37791  10.216   8.178   2.443  3.2978 -1.8969 -0.7613
 1021MOL0     H37792  10.247   8.164   2.620 -0.4860 -0.3080 -0.9818
 1021MOL0     H37793  10.046   8.265   2.602  3.6075 -0.1909 -1.1842
 1021MOL0     H37794  10.001   8.102   2.647 -1.4433 -2.7900 -1.3061
 1021MOL0     H37795   9.797   8.242   2.647 -2.7971  1.6477  1.2527
 1021MOL0     H37796   9.578   8.366   2.597 -1.0875 -0.9535 -1.5105
 1021MOL0     H37797   9.343   8.590   2.682  1.6839 -1.3877 -1.2895
 1021MOL0     H37798   9.169   8.788   2.705 -1.1990 -0.9459  1.1092
 1021MOL0     H37799   8.844   8.808   2.449  0.8307  0.0783 -0.8699
 1021MOL0     H37800   8.846   8.794   2.620  0.8316 -1.8024  0.3749
 1021MOL0     H37801   8.854   9.045   2.661 -1.3993  0.2526  0.7183
 1021MOL0     H37802   8.862   9.073   2.492 -1.5721 -1.5569 -2.1448
 1021MOL0     H37803   8.641   8.944   2.469 -1.2129 -0.8743  1.6947
 1021MOL0     H37804   8.637   8.931   2.635 -0.1793  0.6179  1.1100
 1021MOL0     H37805   8.593   9.174   2.468 -3.7057 -0.7772  0.3991
 1021MOL0     H37806   8.665   9.200   2.613  0.5817  1.3775 -3.4819
 1021MOL0     H37807   8.482   9.080   2.730 -3.6354 -2.0237 -0.2607
 1021MOL0     H37808   8.413   9.040   2.563  1.6928 -1.1476 -0.4329
 1021MOL0     H37809   8.444   9.333   2.672  1.4119 -0.6748 -0.0367
 1021MOL0     H37810   8.373   9.276   2.520 -0.3880 -0.8505 -0.4153
 1021MOL0     H37811   8.273   9.256   2.811 -2.4043  4.9667  1.1133
 1021MOL0     H37812   8.181   9.172   2.680  1.0992  1.1639 -1.4416
 1021MOL0     H37813   8.075   9.362   2.751 -1.5647  1.8478 -0.9981
 1021MOL0     H37814   8.225   9.460   2.742  0.7406  1.5576 -3.9202
 1021MOL0     H37815   9.050   8.734   2.314 -2.2783 -3.4396  1.2870
 1021MOL0     H37816   9.212   8.558   2.275  2.0628 -0.5762  1.3445
 1021MOL0     H37817   9.659   8.359   2.182  4.1174  2.3118 -0.8923
 1021MOL0     H37818   9.858   8.240   2.215 -1.1149  2.9677 -1.9747
 1021MOL0     H37819  10.740   6.784   3.225  1.2070 -1.0402  0.8882
 1021MOL0     H37820  10.935   6.726   3.311 -2.1514 -0.0987  1.6827
 1021MOL0     H37821  11.302   6.935   3.535 -3.3921 -1.7890 -0.6540
 1021MOL0     H37822  11.496   6.887   3.680  1.0442 -0.6936 -0.4333
 1021MOL0     H37823  11.490   6.678   3.867 -0.3986 -3.1342 -1.4795
 1021MOL0     H37824  11.603   6.810   3.854 -0.1281  0.2458 -0.4635
 1021MOL0     H37825  11.691   6.683   4.023  0.9787 -0.6710 -0.3653
 1021MOL0     H37826  11.788   6.665   3.867 -1.5101  5.2525 -1.6284
 1021MOL0     H37827  11.575   6.463   3.907 -0.1870  4.5075  2.5729
 1021MOL0     H37828  11.708   6.459   4.026 -1.1918  1.3147  1.5403
 1021MOL0     H37829  11.738   6.308   3.796 -0.8335 -1.6009  2.6280
 1021MOL0     H37830  11.763   6.464   3.711  2.5501  0.9934  0.3173
 1021MOL0     H37831  12.139   6.430   3.883  0.1152  2.2496 -0.8989
 1021MOL0     H37832  11.538   6.508   3.520  2.1883  0.6484 -2.5648
 1021MOL0     H37833  11.368   6.577   3.186  1.0311  1.2244  0.7360
 1021MOL0     H37834  11.423   6.449   3.294 -0.5532 -0.2207 -0.6865
 1021MOL0     H37835  11.254   6.493   3.300 -0.6355  0.2608 -2.0925
 1022MOL0     O37836   9.035   7.507   5.782 -0.7443 -0.4225 -0.1013
 1022MOL0     C37837   9.031   7.620   5.849 -0.0123  0.4852 -0.2686
 1022MOL0     O37838   8.981   7.638   5.975 -0.3980 -0.1327 -0.0973
 1022MOL0     C37839   8.904   7.520   6.018 -0.3145 -0.5063 -1.2281
 1022MOL0     C37840   8.785   7.493   5.947  0.3744  0.2700 -0.1613
 1022MOL0     C37841   8.726   7.365   5.960  0.7498  0.9297  0.8456
 1022MOL0     C37842   8.783   7.271   6.045  0.5949  0.5141  0.5936
 1022MOL0     O37843   8.722   7.157   6.070 -0.1358  0.2332 -0.1894
 1022MOL0     C37844   8.598   7.176   6.134 -0.0116  0.3286  0.2981
 1022MOL0     C37845   8.604   7.130   6.283  0.5634  1.2925  0.4608
 1022MOL0     C37846   8.456   7.131   6.355 -0.7736 -0.5584 -0.1325
 1022MOL0     C37847   8.455   7.089   6.500  0.9785 -0.7136 -0.5861
 1022MOL0     C37848   8.316   7.098   6.556 -0.4480  0.5665  0.0664
 1022MOL0     C37849   8.271   7.247   6.574 -0.5589 -0.3808 -0.3054
 1022MOL0     C37850   8.170   7.268   6.692 -0.1678 -0.1517  0.3442
 1022MOL0     C37851   8.076   7.155   6.714 -0.6178 -0.5951  0.5041
 1022MOL0     N37852   7.951   7.216   6.758 -0.5905 -0.0445 -0.1565
 1022MOL0     C37853   7.924   7.237   6.885  1.6581 -0.5298 -0.7138
 1022MOL0     C37854   7.808   7.318   6.887 -0.4800 -0.0015  0.9748
 1022MOL0     C37855   7.726   7.374   6.997  0.2644 -0.7410  0.5806
 1022MOL0     C37856   7.725   7.304   7.132  0.0220 -1.1255  0.2629
 1022MOL0     C37857   7.645   7.181   7.148  0.1965  0.3072  0.4903
 1022MOL0     C37858   7.677   7.128   7.289  0.8248 -0.7128 -0.6247
 1022MOL0     O37859   7.545   7.097   7.359 -0.0484  0.2389 -0.9085
 1022MOL0     C37860   7.478   7.192   7.428 -0.1749 -0.9137  0.3336
 1022MOL0     C37861   7.513   7.329   7.436  0.0352 -0.0980 -0.0547
 1022MOL0     C37862   7.443   7.429   7.509  0.2510  0.6394 -0.1603
 1022MOL0     C37863   7.320   7.389   7.568 -0.2151 -0.3854 -0.2062
 1022MOL0     C37864   7.230   7.491   7.628  0.1032  0.2264  0.2173
 1022MOL0     O37865   7.170   7.460   7.748  1.0237 -0.0269 -0.1714
 1022MOL0     C37866   7.121   7.552   7.845 -0.1164 -0.4312  0.3574
 1022MOL0     C37867   7.016   7.521   7.930 -0.3264 -0.4672  0.0493
 1022MOL0     C37868   6.974   7.609   8.029  0.0804  0.6671 -0.4143
 1022MOL0     C37869   7.022   7.738   8.039 -0.5934 -0.9675 -0.2379
 1022MOL0     O37870   6.971   7.816   8.131  0.4218 -0.3938  1.1958
 1022MOL0     C37871   6.964   7.961   8.112  0.2910 -0.3965  0.7185
 1022MOL0     C37872   6.852   8.017   8.204 -0.7181 -0.1219 -0.0294
 1022MOL0     C37873   6.706   7.980   8.152 -0.8997 -0.3266  0.3827
 1022MOL0     C37874   6.593   8.015   8.241 -0.1254 -0.5462  0.1216
 1022MOL0     C37875   6.546   8.161   8.245  0.4556 -0.4821  0.2675
 1022MOL0     C37876   6.429   8.166   8.348  0.4463 -0.1722  0.3737
 1022MOL0     C37877   6.491   8.183   8.485  0.1565 -0.0137 -0.5846
 1022MOL0     C37878   6.390   8.195   8.595  0.5116 -0.3292 -1.0529
 1022MOL0    Cl37879   6.321   8.357   8.613 -0.0308  0.0942  0.2014
 1022MOL0     C37880   7.125   7.778   7.947 -0.1763 -0.0601  0.4656
 1022MOL0     C37881   7.181   7.683   7.856 -0.1005 -0.1165  0.4918
 1022MOL0     O37882   7.234   7.602   7.574 -0.2001 -0.1439  0.2218
 1022MOL0     C37883   7.297   7.256   7.574  0.4811 -0.8612 -0.1548
 1022MOL0     C37884   7.363   7.158   7.508  0.0317 -0.3226  0.1377
 1022MOL0     N37885   7.770   7.335   6.757  0.4546  0.5469  0.5887
 1022MOL0     N37886   7.853   7.272   6.678 -0.7392 -0.0877 -0.0622
 1022MOL0     C37887   8.900   7.308   6.126  0.2028 -0.9265 -0.0397
 1022MOL0     C37888   8.964   7.425   6.102  1.5496 -0.0747 -0.8661
 1022MOL0     C37889   9.102   7.743   5.812  0.5022  0.7210 -0.5122
 1022MOL0     C37890   9.179   7.817   5.901 -0.4035 -0.0631 -0.0293
 1022MOL0     C37891   9.239   7.933   5.862 -0.3469  0.4301 -0.3886
 1022MOL0     C37892   9.231   7.981   5.729 -0.0304 -0.1791  0.2340
 1022MOL0     O37893   9.298   8.102   5.718 -0.1733 -0.2714  0.4925
 1022MOL0     C37894   9.277   8.180   5.594 -0.6449  0.3273 -1.1710
 1022MOL0     C37895   9.266   8.320   5.646 -0.4457  0.1883  0.3666
 1022MOL0     C37896   9.401   8.397   5.677 -0.1758 -0.0868 -0.6068
 1022MOL0     C37897   9.459   8.350   5.812 -0.2585  0.1459  0.6722
 1022MOL0     C37898   9.567   8.440   5.861 -0.2267  0.0258  1.1558
 1022MOL0     C37899   9.645   8.517   5.918  0.5395 -0.2714  1.1341
 1022MOL0     C37900   9.156   7.908   5.644 -0.1811 -1.1974 -0.3973
 1022MOL0     C37901   9.098   7.783   5.682  0.0003  0.2933 -0.3261
 1022MOL0     C37902   9.040   7.711   5.557 -0.1168  0.5889  0.6952
 1022MOL0     H37903   8.741   7.567   5.881  0.2442 -1.3279 -1.9448
 1022MOL0     H37904   8.631   7.337   5.916  1.9771  0.4055 -1.6079
 1022MOL0     H37905   8.578   7.283   6.144 -1.2253  0.0406  1.2190
 1022MOL0     H37906   8.512   7.130   6.084  0.9829 -2.5192  1.0156
 1022MOL0     H37907   8.684   7.188   6.330 -0.2408  3.3933 -0.6291
 1022MOL0     H37908   8.630   7.024   6.284 -0.5662  1.0085  1.4943
 1022MOL0     H37909   8.391   7.073   6.288  1.0494 -2.4960 -0.3087
 1022MOL0     H37910   8.423   7.236   6.352 -0.6796 -0.5378 -0.4053
 1022MOL0     H37911   8.485   6.986   6.521  2.1659 -0.0509  1.2498
 1022MOL0     H37912   8.517   7.154   6.562 -0.0236  1.2640 -1.5483
 1022MOL0     H37913   8.245   7.038   6.498 -1.4520  1.4728  0.3095
 1022MOL0     H37914   8.312   7.042   6.650 -1.4676 -0.0580 -0.3323
 1022MOL0     H37915   8.363   7.305   6.574  1.3082 -3.1750  0.3351
 1022MOL0     H37916   8.217   7.289   6.488  3.3767  0.1469 -2.7496
 1022MOL0     H37917   8.113   7.354   6.656 -3.3255 -2.0021  0.5561
 1022MOL0     H37918   8.224   7.301   6.781  3.1578 -2.0525 -0.7806
 1022MOL0     H37919   8.050   7.105   6.620  3.1836  0.5292 -1.3299
 1022MOL0     H37920   8.117   7.082   6.785  2.7627 -0.4239 -1.1001
 1022MOL0     H37921   7.977   7.205   6.974 -0.5733 -2.7524 -0.0599
 1022MOL0     H37922   7.774   7.472   7.006  2.8142 -1.6007 -2.0970
 1022MOL0     H37923   7.623   7.379   6.959  0.3995 -0.3186  0.2630
 1022MOL0     H37924   7.826   7.282   7.168 -1.1326 -1.9392  3.3198
 1022MOL0     H37925   7.688   7.380   7.202 -2.0511 -1.7588 -0.0831
 1022MOL0     H37926   7.669   7.111   7.067 -0.0690  1.7489 -0.8816
 1022MOL0     H37927   7.537   7.198   7.145 -0.2369 -1.5977  2.5832
 1022MOL0     H37928   7.739   7.188   7.357 -1.9101  0.8470  0.6323
 1022MOL0     H37929   7.736   7.037   7.275 -1.6027 -2.3667 -0.7411
 1022MOL0     H37930   7.610   7.354   7.394 -0.2800  0.7657 -0.2945
 1022MOL0     H37931   7.479   7.532   7.505  3.1394 -0.3275 -1.6482
 1022MOL0     H37932   6.974   7.421   7.922 -0.0939 -0.5022 -0.8667
 1022MOL0     H37933   6.900   7.574   8.101  3.5623 -3.8247  1.4803
 1022MOL0     H37934   7.056   8.016   8.132 -0.3670  0.9018  0.3148
 1022MOL0     H37935   6.937   7.983   8.008  0.6935 -0.9478  0.4916
 1022MOL0     H37936   6.867   7.977   8.304 -3.9241 -2.7268 -0.4442
 1022MOL0     H37937   6.868   8.125   8.218 -0.9020 -0.2356  1.1046
 1022MOL0     H37938   6.693   8.017   8.050  0.2313  1.4025  0.8321
 1022MOL0     H37939   6.697   7.871   8.140 -1.4152 -0.0022 -3.2864
 1022MOL0     H37940   6.616   7.979   8.342 -3.9750 -0.3091  1.2509
 1022MOL0     H37941   6.510   7.957   8.199  1.3325 -2.3900 -0.3496
 1022MOL0     H37942   6.500   8.194   8.151  0.6137  2.0911  1.0148
 1022MOL0     H37943   6.638   8.219   8.258 -0.3098  1.9972 -3.5153
 1022MOL0     H37944   6.361   8.250   8.338 -0.1927 -0.8159 -0.8950
 1022MOL0     H37945   6.373   8.072   8.341  1.5775 -0.7976 -0.6606
 1022MOL0     H37946   6.546   8.276   8.497 -2.1899  1.1407  2.4134
 1022MOL0     H37947   6.557   8.106   8.527  1.5787  1.9989  1.0486
 1022MOL0     H37948   6.310   8.123   8.576  0.4314 -0.3263 -0.7181
 1022MOL0     H37949   6.432   8.163   8.691  3.6625  0.2919 -2.0946
 1022MOL0     H37950   7.172   7.875   7.959  0.6563 -0.5204  1.0645
 1022MOL0     H37951   7.265   7.717   7.796  0.1106  0.7889  1.2787
 1022MOL0     H37952   7.204   7.232   7.625  2.2580 -1.3374  3.1135
 1022MOL0     H37953   7.322   7.058   7.518 -1.8062  0.5820  2.1157
 1022MOL0     H37954   8.925   7.234   6.201  1.8921 -1.8251 -1.3950
 1022MOL0     H37955   9.064   7.438   6.141  0.9013  1.4864  0.3581
 1022MOL0     H37956   9.186   7.783   6.003 -0.8930 -1.3300 -0.3982
 1022MOL0     H37957   9.282   8.001   5.935 -0.9449  3.6754 -2.8296
 1022MOL0     H37958   9.191   8.151   5.532 -0.9035  1.0098 -1.1496
 1022MOL0     H37959   9.364   8.165   5.529 -0.6229 -1.0246 -0.8413
 1022MOL0     H37960   9.198   8.320   5.732 -0.9698  0.2543 -0.0404
 1022MOL0     H37961   9.222   8.382   5.567  0.6319  2.2826  1.3298
 1022MOL0     H37962   9.369   8.501   5.688 -1.9188 -0.8520  3.0008
 1022MOL0     H37963   9.483   8.388   5.605  0.8191 -3.2055  0.7666
 1022MOL0     H37964   9.379   8.363   5.887 -2.2909  2.0432 -1.6341
 1022MOL0     H37965   9.503   8.250   5.805  2.1631  1.1421  0.8880
 1022MOL0     H37966   9.707   8.595   5.957  1.2343  0.1362 -0.6761
 1022MOL0     H37967   9.142   7.948   5.544 -0.9329  4.1930  1.5143
 1022MOL0     H37968   9.120   7.656   5.508  2.2178  0.9330  3.7722
 1022MOL0     H37969   8.961   7.637   5.570 -0.2805  0.0655 -2.4863
 1022MOL0     H37970   9.010   7.790   5.487  1.6570  1.3797  0.7562
 1023MOL0     O37971   7.605   2.138  11.310  0.5063  0.3574 -0.1350
 1023MOL0     C37972   7.573   2.224  11.222  0.9126  0.0840 -1.1909
 1023MOL0     O37973   7.476   2.198  11.120  0.6534 -0.3224 -0.6476
 1023MOL0     C37974   7.396   2.094  11.140 -0.4046  0.4266  1.1530
 1023MOL0     C37975   7.398   2.015  11.028 -0.5168  0.0261  0.4617
 1023MOL0     C37976   7.303   1.921  11.008  0.4826 -0.2560 -1.1026
 1023MOL0     C37977   7.203   1.896  11.100  0.5121  0.3852 -0.7872
 1023MOL0     O37978   7.099   1.803  11.099 -0.6908 -0.9744  0.4475
 1023MOL0     C37979   7.039   1.780  10.969  0.2340 -0.0050  0.6265
 1023MOL0     C37980   6.914   1.686  10.975 -0.0358  0.5034 -0.8699
 1023MOL0     C37981   6.832   1.717  11.104 -0.0312  0.5057 -0.2948
 1023MOL0     C37982   6.698   1.641  11.096 -0.3363  1.0874  0.1239
 1023MOL0     C37983   6.589   1.680  11.199  0.0759 -0.3997  0.4336
 1023MOL0     C37984   6.442   1.655  11.147 -1.1616  0.8440 -0.5873
 1023MOL0     C37985   6.331   1.685  11.241  0.1911 -0.0274  0.9029
 1023MOL0     C37986   6.191   1.637  11.200  0.2241  0.0568 -0.0125
 1023MOL0     N37987   6.081   1.662  11.299  0.2618 -0.3954 -0.4661
 1023MOL0     C37988   6.045   1.791  11.339  0.3070  0.5414  0.6661
 1023MOL0     C37989   5.958   1.773  11.445 -0.8022 -0.7220 -0.1369
 1023MOL0     C37990   5.891   1.898  11.520  0.8868  0.7464  0.0152
 1023MOL0     C37991   5.910   2.034  11.452  0.0271 -0.8913 -0.6971
 1023MOL0     C37992   5.869   2.151  11.541 -0.7937 -0.6998 -0.0990
 1023MOL0     C37993   5.988   2.233  11.586  0.3978  0.1083  0.8431
 1023MOL0     O37994   5.955   2.371  11.627 -0.3590  0.5173  0.4703
 1023MOL0     C37995   5.904   2.465  11.543 -0.2400  0.1739  0.1493
 1023MOL0     C37996   5.856   2.582  11.605 -0.7200 -0.2237 -0.4115
 1023MOL0     C37997   5.787   2.680  11.536  0.9629 -0.0668  0.3127
 1023MOL0     C37998   5.768   2.666  11.399 -0.2662  0.1535 -0.0546
 1023MOL0     C37999   5.685   2.764  11.328  0.1626 -0.6677 -0.2361
 1023MOL0     O38000   5.615   2.858  11.403 -0.7100 -0.7592  0.3850
 1023MOL0     C38001   5.560   2.963  11.341  0.3128 -0.5312 -0.0729
 1023MOL0     C38002   5.553   3.074  11.421 -0.3952  0.2693  0.0051
 1023MOL0     C38003   5.501   3.199  11.369 -0.3366  0.2873  0.5856
 1023MOL0     C38004   5.463   3.212  11.235 -0.7892  0.7298  0.3326
 1023MOL0     O38005   5.423   3.335  11.189 -0.9662 -0.0996 -0.4733
 1023MOL0     C38006   5.469   3.388  11.058 -0.7428  0.6012 -1.0535
 1023MOL0     C38007   5.413   3.517  11.002 -0.0945  0.5297  0.0775
 1023MOL0     C38008   5.420   3.634  11.104 -0.2030 -0.0501  0.1617
 1023MOL0     C38009   5.572   3.680  11.121  0.0865 -0.0440 -0.4586
 1023MOL0     C38010   5.562   3.819  11.198  0.1284 -0.5910  0.3910
 1023MOL0     C38011   5.683   3.900  11.237 -0.4927 -0.6474  0.5942
 1023MOL0     C38012   5.648   4.015  11.328 -0.2496  0.3956 -0.4912
 1023MOL0     C38013   5.652   3.994  11.470  1.1007  0.4872  0.2419
 1023MOL0    Cl38014   5.602   4.142  11.557  0.1460 -0.2402 -0.2291
 1023MOL0     C38015   5.475   3.095  11.151  0.2288  0.6329 -0.4693
 1023MOL0     C38016   5.512   2.973  11.202  0.6469  0.0929 -0.4948
 1023MOL0     O38017   5.681   2.748  11.206  0.5263  1.1751  0.0152
 1023MOL0     C38018   5.817   2.543  11.329 -1.1635  0.2983 -1.0630
 1023MOL0     C38019   5.885   2.446  11.405  0.1576 -0.7385  0.2754
 1023MOL0     N38020   5.957   1.642  11.471  1.1086  1.3268 -0.6219
 1023MOL0     N38021   6.034   1.576  11.389  0.4994  0.1651 -0.0727
 1023MOL0     C38022   7.200   1.978  11.207 -0.3045 -0.4187 -0.8230
 1023MOL0     C38023   7.299   2.074  11.234  0.5270  1.5656  1.0820
 1023MOL0     C38024   7.633   2.362  11.240 -0.0672  0.9128  0.2616
 1023MOL0     C38025   7.709   2.394  11.353 -0.7680  0.4023 -0.7616
 1023MOL0     C38026   7.764   2.517  11.373  0.1628 -1.5952  0.7507
 1023MOL0     C38027   7.754   2.615  11.276 -0.0602 -0.5424  0.7908
 1023MOL0     O38028   7.793   2.742  11.307  0.2901  0.0354  0.8698
 1023MOL0     C38029   7.865   2.811  11.196 -0.0422  0.1128  0.0232
 1023MOL0     C38030   7.805   2.947  11.158 -0.2127 -0.1264 -0.3450
 1023MOL0     C38031   7.909   3.039  11.087  0.5913  0.0428  0.0126
 1023MOL0     C38032   7.863   3.183  11.055  0.2067  0.1843  0.1954
 1023MOL0     C38033   7.846   3.265  11.174  0.7726  0.6003  0.1515
 1023MOL0     C38034   7.837   3.322  11.275 -0.2275 -0.0230  0.1252
 1023MOL0     C38035   7.681   2.584  11.160  1.3871 -0.0410  0.0114
 1023MOL0     C38036   7.622   2.461  11.139 -0.4988 -0.1780  0.2298
 1023MOL0     C38037   7.543   2.452  11.012  0.0033  0.8638  0.2972
 1023MOL0     H38038   7.463   2.042  10.945  2.8964 -1.3351  2.4704
 1023MOL0     H38039   7.303   1.878  10.909  1.0913 -0.1075 -1.1684
 1023MOL0     H38040   7.013   1.878  10.928  1.0630 -0.0864 -0.1103
 1023MOL0     H38041   7.114   1.732  10.907  0.1838 -3.4997  2.9810
 1023MOL0     H38042   6.936   1.580  10.962  0.9871  0.5640  0.2687
 1023MOL0     H38043   6.859   1.706  10.882  1.1600  0.9669 -1.4941
 1023MOL0     H38044   6.813   1.824  11.118 -3.7037 -0.2523  1.9006
 1023MOL0     H38045   6.894   1.680  11.186 -0.5029 -0.4676 -0.3571
 1023MOL0     H38046   6.653   1.668  11.000 -1.5762 -5.0104 -1.4498
 1023MOL0     H38047   6.721   1.535  11.081 -0.5251  1.1906 -0.9278
 1023MOL0     H38048   6.605   1.604  11.276  2.3274  0.0331  0.4614
 1023MOL0     H38049   6.598   1.783  11.235 -0.0952 -1.3541  3.4998
 1023MOL0     H38050   6.431   1.701  11.048  0.9933  0.8445 -0.8782
 1023MOL0     H38051   6.432   1.550  11.119  2.6393  0.4427 -0.8759
 1023MOL0     H38052   6.333   1.793  11.256  1.2972  0.0996 -0.0502
 1023MOL0     H38053   6.356   1.639  11.337 -3.4348  0.4379  2.2073
 1023MOL0     H38054   6.160   1.691  11.110  2.0979  1.7354  0.2769
 1023MOL0     H38055   6.189   1.532  11.170 -1.5141  0.0307  0.0624
 1023MOL0     H38056   6.087   1.885  11.307  2.1565 -0.9316 -1.5498
 1023MOL0     H38057   5.782   1.885  11.516  0.9349  0.6379 -2.1367
 1023MOL0     H38058   5.929   1.891  11.623 -0.4780  1.9524  0.6357
 1023MOL0     H38059   6.017   2.047  11.430 -0.0290 -0.6110 -0.8056
 1023MOL0     H38060   5.867   2.037  11.352 -3.4058 -2.4444  0.5775
 1023MOL0     H38061   5.812   2.125  11.631 -0.4469  1.1542  0.6889
 1023MOL0     H38062   5.795   2.214  11.492 -1.3300 -1.0499  0.2428
 1023MOL0     H38063   6.050   2.243  11.496 -2.3337 -1.3319 -1.3549
 1023MOL0     H38064   6.044   2.187  11.668 -0.3122  0.4264  1.5228
 1023MOL0     H38065   5.890   2.600  11.707 -1.3524  1.1748 -0.4148
 1023MOL0     H38066   5.750   2.771  11.583  2.6324 -0.1489  1.9382
 1023MOL0     H38067   5.573   3.081  11.528 -1.1391  0.4410  0.1388
 1023MOL0     H38068   5.495   3.286  11.434 -0.5113 -1.5545  3.1915
 1023MOL0     H38069   5.578   3.394  11.063 -0.5198 -2.5179  0.5160
 1023MOL0     H38070   5.442   3.310  10.986 -2.3510 -1.7075  1.8027
 1023MOL0     H38071   5.467   3.551  10.913  2.0602  1.6811  1.7227
 1023MOL0     H38072   5.305   3.509  10.988 -0.1197  0.1609  0.4654
 1023MOL0     H38073   5.364   3.718  11.063  1.0100  0.4352 -0.5454
 1023MOL0     H38074   5.389   3.598  11.203 -1.2372 -1.7217 -0.7261
 1023MOL0     H38075   5.619   3.693  11.023 -1.3834 -0.7109 -1.3041
 1023MOL0     H38076   5.626   3.611  11.186  0.2354  3.0575  3.0153
 1023MOL0     H38077   5.493   3.791  11.278 -2.7998  0.8798 -1.4511
 1023MOL0     H38078   5.508   3.885  11.129 -0.4030 -1.5443 -0.1368
 1023MOL0     H38079   5.758   3.833  11.280  1.5991  0.6668 -0.8347
 1023MOL0     H38080   5.739   3.940  11.152 -1.1279  1.3323  1.0593
 1023MOL0     H38081   5.547   4.049  11.302 -0.9981 -0.6220  0.9728
 1023MOL0     H38082   5.717   4.098  11.310  2.2377 -1.0485  1.7274
 1023MOL0     H38083   5.568   3.930  11.498  0.0357  1.9907  0.6461
 1023MOL0     H38084   5.748   3.953  11.501  0.5352 -0.4270  0.8140
 1023MOL0     H38085   5.472   3.110  11.044 -1.7676 -3.3243 -1.1060
 1023MOL0     H38086   5.503   2.897  11.125 -2.3968 -1.3515  1.1359
 1023MOL0     H38087   5.812   2.532  11.221 -1.5205  0.9498 -1.1230
 1023MOL0     H38088   5.923   2.360  11.350 -0.3431 -1.7296  1.4173
 1023MOL0     H38089   7.113   1.959  11.269  1.0539  1.3793  1.8446
 1023MOL0     H38090   7.277   2.142  11.316  1.7814 -1.5319  4.2273
 1023MOL0     H38091   7.715   2.321  11.432  0.3244  1.6593  0.3744
 1023MOL0     H38092   7.805   2.553  11.467 -2.1964  2.2416  0.5314
 1023MOL0     H38093   7.871   2.744  11.110 -3.0425 -0.1453 -0.0957
 1023MOL0     H38094   7.968   2.821  11.230  0.6930 -2.7992 -1.0638
 1023MOL0     H38095   7.754   2.992  11.244  1.4374  1.2201 -0.0236
 1023MOL0     H38096   7.733   2.921  11.080 -0.0226 -3.0871  0.3501
 1023MOL0     H38097   7.942   3.005  10.988  1.0526  2.1180 -0.6010
 1023MOL0     H38098   7.995   3.049  11.154  0.7447 -0.9973 -0.0149
 1023MOL0     H38099   7.937   3.233  10.993 -1.0670 -1.6229 -3.0718
 1023MOL0     H38100   7.768   3.184  11.001 -0.8263 -2.1376  1.7826
 1023MOL0     H38101   7.814   3.368  11.369  1.0228 -2.0011  1.4550
 1023MOL0     H38102   7.645   2.666  11.099  1.6162 -0.8657 -1.2572
 1023MOL0     H38103   7.507   2.549  10.976 -2.1862 -0.2921 -0.8949
 1023MOL0     H38104   7.600   2.409  10.930  0.2589  2.9320 -0.6706
 1023MOL0     H38105   7.451   2.395  11.030 -0.3091  2.0047  2.8030
 1024MOL0     O38106   9.028   5.575   0.391  0.0849  0.2836  0.2717
 1024MOL0     C38107   9.146   5.569   0.413 -0.5696 -0.6928 -0.2873
 1024MOL0     O38108   9.224   5.673   0.485  0.1569 -0.3768  0.0585
 1024MOL0     C38109   9.158   5.771   0.557 -0.1237  0.1065  0.1971
 1024MOL0     C38110   9.052   5.849   0.504  0.0297  1.7187 -0.7132
 1024MOL0     C38111   8.997   5.952   0.576 -0.9298 -0.5608 -0.0594
 1024MOL0     C38112   9.034   5.992   0.708 -0.2292  1.7206  0.9588
 1024MOL0     O38113   8.978   6.082   0.791 -0.7759 -0.6293  0.1301
 1024MOL0     C38114   8.940   6.207   0.729 -0.0740  0.7140 -0.5785
 1024MOL0     C38115   9.055   6.283   0.685  0.3989  0.0881 -0.1682
 1024MOL0     C38116   9.019   6.430   0.662  0.8766 -0.9912 -0.6283
 1024MOL0     C38117   8.902   6.452   0.566 -0.8832 -0.1479 -0.1765
 1024MOL0     C38118   8.864   6.597   0.560 -0.2638 -0.4003  0.0260
 1024MOL0     C38119   8.752   6.628   0.469 -0.1096 -0.6834 -0.3724
 1024MOL0     C38120   8.751   6.772   0.415  0.3430  0.3717 -0.8766
 1024MOL0     C38121   8.613   6.812   0.350  1.2954 -0.6629 -1.0306
 1024MOL0     N38122   8.623   6.950   0.303 -0.0687  0.1601  0.2863
 1024MOL0     C38123   8.607   7.063   0.372  0.3649 -0.6310 -0.9914
 1024MOL0     C38124   8.646   7.171   0.294 -0.0687  0.5718 -0.1882
 1024MOL0     C38125   8.663   7.316   0.333 -0.2695  0.2849  0.3781
 1024MOL0     C38126   8.791   7.373   0.282 -0.1058  0.4498  0.2732
 1024MOL0     C38127   8.921   7.326   0.351 -0.0881 -0.4492  0.2535
 1024MOL0     C38128   8.969   7.185   0.340 -0.3591  0.3024 -1.1242
 1024MOL0     O38129   9.084   7.146   0.414 -0.0348 -0.7830  0.3244
 1024MOL0     C38130   9.128   7.017   0.411  0.0891  1.3756  0.6007
 1024MOL0     C38131   9.081   6.918   0.326 -0.8732 -0.3187 -0.7620
 1024MOL0     C38132   9.141   6.793   0.329  0.0075  0.3028  0.9359
 1024MOL0     C38133   9.236   6.741   0.421  0.5618  0.5190 -0.4499
 1024MOL0     C38134   9.301   6.607   0.405  0.6054  0.5226 -0.3867
 1024MOL0     O38135   9.363   6.550   0.513 -0.0466  0.0597 -0.4824
 1024MOL0     C38136   9.386   6.412   0.518 -0.1285  0.9505  0.8008
 1024MOL0     C38137   9.320   6.309   0.451  0.5084  0.2976 -0.2541
 1024MOL0     C38138   9.337   6.174   0.481 -0.9002  0.4798 -0.1756
 1024MOL0     C38139   9.435   6.127   0.573 -0.1561 -0.2595 -0.1320
 1024MOL0     O38140   9.446   6.001   0.611  0.0156  0.3023  0.0395
 1024MOL0     C38141   9.505   5.918   0.515  0.2147 -0.2509  0.4460
 1024MOL0     C38142   9.658   5.919   0.516 -0.1231 -0.4910 -0.4402
 1024MOL0     C38143   9.724   5.832   0.412  0.4319  0.7906 -0.5040
 1024MOL0     C38144   9.870   5.875   0.415  0.2648  0.2488  0.6094
 1024MOL0     C38145   9.961   5.790   0.317  1.3495  0.6241  0.9526
 1024MOL0     C38146  10.082   5.865   0.274  0.4838  0.1662  0.4850
 1024MOL0     C38147  10.176   5.800   0.177 -0.1586  0.4697 -0.2287
 1024MOL0     C38148  10.112   5.711   0.072  0.0532  0.8052  0.0959
 1024MOL0    Cl38149  10.012   5.798  -0.054  0.2963  0.1656 -0.2095
 1024MOL0     C38150   9.513   6.226   0.628 -0.4361  0.7668 -0.0574
 1024MOL0     C38151   9.492   6.364   0.603 -0.0511 -0.2387 -0.5093
 1024MOL0     O38152   9.275   6.550   0.296 -0.7183  0.6635 -1.0030
 1024MOL0     C38153   9.267   6.837   0.521 -0.2271  0.5074  1.2149
 1024MOL0     C38154   9.221   6.973   0.512  0.0115 -1.1122  0.0889
 1024MOL0     N38155   8.660   7.115   0.167 -0.2464  0.0971  0.0007
 1024MOL0     N38156   8.643   6.986   0.174 -0.8396  0.1321  0.5583
 1024MOL0     C38157   9.134   5.910   0.760 -0.3243  0.5651 -1.0349
 1024MOL0     C38158   9.203   5.813   0.683 -0.4014 -0.0692  0.0673
 1024MOL0     C38159   9.222   5.467   0.359 -0.7807  0.6262 -0.5759
 1024MOL0     C38160   9.251   5.494   0.226  0.0647 -1.1226  0.6169
 1024MOL0     C38161   9.300   5.393   0.137 -1.2522  0.0026  0.6016
 1024MOL0     C38162   9.331   5.261   0.193 -0.2151 -0.3406  0.3436
 1024MOL0     O38163   9.364   5.155   0.111 -0.0406  0.3480  0.2156
 1024MOL0     C38164   9.437   5.176  -0.007 -0.3602  0.7062 -0.4620
 1024MOL0     C38165   9.490   5.043  -0.061  0.4017 -0.7996 -0.4410
 1024MOL0     C38166   9.617   4.986   0.007  0.3378 -0.7173  0.4337
 1024MOL0     C38167   9.637   4.833  -0.016  0.5586 -0.2840  1.4264
 1024MOL0     C38168   9.764   4.775   0.027  0.6204 -0.1110 -0.9437
 1024MOL0     C38169   9.875   4.748   0.062  0.2950  0.1826 -0.2017
 1024MOL0     C38170   9.311   5.238   0.334 -0.3736  0.2440 -0.7753
 1024MOL0     C38171   9.257   5.342   0.415  0.0286 -0.3367  0.0319
 1024MOL0     C38172   9.231   5.316   0.568 -0.9145  1.0948 -0.7656
 1024MOL0     H38173   9.009   5.824   0.407 -1.8455  1.7216  0.0904
 1024MOL0     H38174   8.924   6.019   0.533 -0.0877  1.5093  1.5397
 1024MOL0     H38175   8.861   6.181   0.657 -2.6430 -0.5062  2.4668
 1024MOL0     H38176   8.893   6.268   0.806  1.2591  3.2533 -1.6598
 1024MOL0     H38177   9.092   6.235   0.594  2.6332  0.3808  0.5230
 1024MOL0     H38178   9.133   6.290   0.761  2.2661 -1.3450 -1.8348
 1024MOL0     H38179   9.102   6.488   0.621  0.2423 -0.7643 -1.6422
 1024MOL0     H38180   8.988   6.475   0.756 -0.4994 -2.6352 -0.2346
 1024MOL0     H38181   8.944   6.429   0.467 -1.3727  1.3153 -0.7481
 1024MOL0     H38182   8.812   6.392   0.584 -1.7773 -0.1253 -3.7920
 1024MOL0     H38183   8.845   6.637   0.660 -2.3218 -2.3393  0.5106
 1024MOL0     H38184   8.945   6.654   0.514 -1.0306  0.7827  0.1091
 1024MOL0     H38185   8.755   6.563   0.381 -3.4565  0.8456 -1.7806
 1024MOL0     H38186   8.656   6.607   0.517 -1.2320  0.6049 -1.9698
 1024MOL0     H38187   8.832   6.785   0.344  2.0613  0.1598  0.9481
 1024MOL0     H38188   8.771   6.838   0.501 -0.4627  0.4586 -0.7404
 1024MOL0     H38189   8.605   6.743   0.265 -0.0170 -0.3895 -1.1445
 1024MOL0     H38190   8.525   6.795   0.413 -2.8377  0.9378 -5.7921
 1024MOL0     H38191   8.575   7.084   0.474  2.4056 -1.0636 -0.2204
 1024MOL0     H38192   8.580   7.373   0.290 -1.3813 -1.2129  0.4371
 1024MOL0     H38193   8.653   7.322   0.442 -0.6545  0.9811  0.3097
 1024MOL0     H38194   8.785   7.386   0.174 -3.0306  1.7360  0.4991
 1024MOL0     H38195   8.792   7.479   0.309 -0.7857  0.6304 -0.3678
 1024MOL0     H38196   8.912   7.343   0.458  3.9060 -1.8061  0.9615
 1024MOL0     H38197   8.990   7.397   0.305 -4.2873  1.8557 -3.3215
 1024MOL0     H38198   8.995   7.165   0.236  3.3314  0.6215 -0.3837
 1024MOL0     H38199   8.882   7.123   0.366 -0.8801  2.0884  1.8982
 1024MOL0     H38200   9.004   6.929   0.251 -0.1191 -0.6816 -1.6144
 1024MOL0     H38201   9.106   6.728   0.250  1.1415  1.0401 -0.2097
 1024MOL0     H38202   9.240   6.332   0.382  0.0841  0.3810  0.2593
 1024MOL0     H38203   9.279   6.104   0.422  2.0184 -0.2001 -2.4088
 1024MOL0     H38204   9.469   5.816   0.529 -0.3273 -0.1227  0.0235
 1024MOL0     H38205   9.483   5.945   0.412  2.7283  4.1537  0.7863
 1024MOL0     H38206   9.681   6.026   0.516  1.3807 -0.7725  1.2726
 1024MOL0     H38207   9.694   5.878   0.611 -3.3737 -1.4273  0.5258
 1024MOL0     H38208   9.717   5.730   0.452 -4.9292  0.6459 -1.1730
 1024MOL0     H38209   9.675   5.836   0.314  0.6813 -2.2553 -0.8598
 1024MOL0     H38210   9.909   5.876   0.517 -0.2202 -0.4435  0.8124
 1024MOL0     H38211   9.874   5.978   0.380 -1.0241  1.1421  2.8746
 1024MOL0     H38212   9.903   5.776   0.225  0.2939 -3.2216  2.0288
 1024MOL0     H38213   9.979   5.692   0.362 -3.8536 -1.9704 -1.7110
 1024MOL0     H38214  10.042   5.955   0.227 -0.8093 -1.1911 -1.1189
 1024MOL0     H38215  10.144   5.896   0.359  1.3430  1.1668 -0.4763
 1024MOL0     H38216  10.255   5.746   0.230 -0.9584  1.2673  1.8726
 1024MOL0     H38217  10.227   5.890   0.141 -1.1421  1.5487  1.0095
 1024MOL0     H38218  10.189   5.653   0.020 -0.1020  1.1450 -0.5217
 1024MOL0     H38219  10.045   5.633   0.110 -1.8518  2.0684 -0.5756
 1024MOL0     H38220   9.597   6.187   0.684 -1.2009 -2.2014 -0.7985
 1024MOL0     H38221   9.566   6.433   0.642 -0.3989 -0.8648  1.3695
 1024MOL0     H38222   9.325   6.817   0.610 -2.6167  2.2009  3.2792
 1024MOL0     H38223   9.251   7.048   0.584  1.2796 -3.5837  2.2995
 1024MOL0     H38224   9.181   5.923   0.857 -1.5194  0.1242 -0.3788
 1024MOL0     H38225   9.290   5.766   0.728 -1.1591 -1.0302  0.5705
 1024MOL0     H38226   9.227   5.585   0.173  0.5053 -1.5447 -0.3265
 1024MOL0     H38227   9.310   5.406   0.030  2.0643 -1.8546  0.5723
 1024MOL0     H38228   9.520   5.245   0.013  3.1724 -2.8395 -1.5647
 1024MOL0     H38229   9.376   5.228  -0.081  1.6032  0.6765 -2.2012
 1024MOL0     H38230   9.506   5.078  -0.163 -0.6334  1.4075  0.0981
 1024MOL0     H38231   9.410   4.969  -0.071 -0.4288  0.0093  0.0582
 1024MOL0     H38232   9.628   5.005   0.115  2.0852  0.0460  0.1538
 1024MOL0     H38233   9.709   5.034  -0.028  1.1375 -1.4138  1.5104
 1024MOL0     H38234   9.553   4.780   0.030  0.5390  0.1734  1.9196
 1024MOL0     H38235   9.632   4.820  -0.125 -0.1611  1.6178  1.1909
 1024MOL0     H38236   9.979   4.733   0.083  0.0357 -1.7228 -0.0928
 1024MOL0     H38237   9.320   5.135   0.369  1.4663 -0.0274 -1.8915
 1024MOL0     H38238   9.265   5.392   0.639  1.2210 -0.0277 -0.5362
 1024MOL0     H38239   9.126   5.290   0.586  0.0331 -0.3613  3.6591
 1024MOL0     H38240   9.277   5.224   0.603  2.1263  2.7978  0.0409
  11.51902  11.51902  11.51902
